<event>
 6    4  0.2271823E-003  0.1396648E+03  0.7818608E-02  0.1213781E+00
          4   -1    0    0  502    0  0.00000000000E+00  0.00000000000E+00  0.16492667795E+03  0.16493156762E+03  0.12700000000E+01 0. -1.
         -4   -1    0    0    0  501 -0.00000000000E+00 -0.00000000000E+00 -0.14144751318E+03  0.14145321448E+03  0.12700000000E+01 0. -1.
         25    2    1    2    0    0  0.59751501539E+02  0.17624155424E+02  0.12489522333E+03  0.18736348264E+03  0.12500162008E+03 0.  0.
    9000005    1    3    3    0    0  0.55007495346E+02  0.44967236744E+02  0.13203992950E+02  0.72271864197E+02  0.10000000000E+01 0.  0.
    9000005    1    3    3    0    0  0.47440061922E+01 -0.27343081320E+02  0.11169123038E+03  0.11509161844E+03  0.10000000000E+01 0.  0.
         21    1    1    2  502  501 -0.59751501539E+02 -0.17624155424E+02 -0.10141605857E+03  0.11902129946E+03  0.00000000000E+00 0. -1.
<mgrwt>
<rscale>  1 0.13966481E+03</rscale>
<asrwt>0</asrwt>
<pdfrwt beam="1">  1        4 0.25374150E-01 0.13966481E+03</pdfrwt>
<pdfrwt beam="2">  1       -4 0.21761971E-01 0.13966481E+03</pdfrwt>
<totfact> 0.47046814E+02</totfact>
</mgrwt>
</event>
<event>
 6    4  0.2271823E-003  0.1284789E+03  0.7818608E-02  0.1229730E+00
          4   -1    0    0  502    0  0.00000000000E+00  0.00000000000E+00  0.21184046011E+03  0.21184426695E+03  0.12700000000E+01 0.  1.
         -4   -1    0    0    0  501 -0.00000000000E+00 -0.00000000000E+00 -0.30114746403E+02  0.30141513747E+02  0.12700000000E+01 0.  1.
         25    2    1    2    0    0 -0.28481301487E+02 -0.83958668540E+01  0.15996748267E+03  0.20517415574E+03  0.12500065422E+03 0.  0.
    9000005    1    3    3    0    0  0.48985915741E+02 -0.11081591909E+01  0.46287845801E+02  0.67412258727E+02  0.10000000000E+01 0.  0.
    9000005    1    3    3    0    0 -0.77467217228E+02 -0.72877076632E+01  0.11367963687E+03  0.13776189701E+03  0.10000000000E+01 0.  0.
         21    1    1    2  502  501  0.28481301487E+02  0.83958668540E+01  0.21758231034E+02  0.36811624962E+02  0.00000000000E+00 0.  1.
<mgrwt>
<rscale>  1 0.12847894E+03</rscale>
<asrwt>0</asrwt>
<pdfrwt beam="1">  1        4 0.32593191E-01 0.12847894E+03</pdfrwt>
<pdfrwt beam="2">  1       -4 0.46353899E-02 0.12847894E+03</pdfrwt>
<totfact> 0.39547508E+03</totfact>
</mgrwt>
</event>
<event>
 6    4  0.2271823E-003  0.1270265E+03  0.7818608E-02  0.1231936E+00
         -4   -1    0    0    0  501 -0.00000000000E+00  0.00000000000E+00  0.56712806014E+03  0.56712948213E+03  0.12700000000E+01 0. -1.
          4   -1    0    0  502    0  0.00000000000E+00 -0.00000000000E+00 -0.98652190676E+01  0.99466299445E+01  0.12700000000E+01 0. -1.
         25    2    1    2    0    0 -0.27243771531E+01  0.22433006393E+02  0.45942370772E+03  0.47666118280E+03  0.12500031184E+03 0.  0.
    9000005    1    3    3    0    0  0.35918607295E+02 -0.39793543435E+02  0.20585540559E+03  0.21272310749E+03  0.10000000000E+01 0.  0.
    9000005    1    3    3    0    0 -0.38642984449E+02  0.62226549829E+02  0.25356830213E+03  0.26393807531E+03  0.10000000000E+01 0.  0.
         21    1    1    2  502  501  0.27243771531E+01 -0.22433006393E+02  0.97839133350E+02  0.10041492928E+03  0.00000000000E+00 0. -1.
<mgrwt>
<rscale>  1 0.12702653E+03</rscale>
<asrwt>0</asrwt>
<pdfrwt beam="2">  1        4 0.15240974E-02 0.12702653E+03</pdfrwt>
<pdfrwt beam="1">  1       -4 0.87256861E-01 0.12702653E+03</pdfrwt>
<totfact> 0.29263005E+03</totfact>
</mgrwt>
</event>
<event>
 6    4  0.2271823E-003  0.1299155E+03  0.7818608E-02  0.1227581E+00
         -4   -1    0    0    0  501 -0.00000000000E+00  0.00000000000E+00  0.17551204548E+03  0.17551664026E+03  0.12700000000E+01 0.  1.
          4   -1    0    0  502    0  0.00000000000E+00 -0.00000000000E+00 -0.47421198279E+02  0.47438201338E+02  0.12700000000E+01 0.  1.
         25    2    1    2    0    0  0.31484394739E+02  0.16162321579E+02  0.53703292239E+02  0.14057768406E+03  0.12500221561E+03 0.  0.
    9000005    1    3    3    0    0 -0.24914275484E+02  0.24301448318E+02 -0.25388625163E+02  0.43091342528E+02  0.10000000000E+01 0.  0.
    9000005    1    3    3    0    0  0.56398670223E+02 -0.81391267386E+01  0.79091917402E+02  0.97486341532E+02  0.10000000000E+01 0.  0.
         21    1    1    2  502  501 -0.31484394739E+02 -0.16162321579E+02  0.74387554961E+02  0.82377157537E+02  0.00000000000E+00 0.  1.
<mgrwt>
<rscale>  1 0.12991552E+03</rscale>
<asrwt>0</asrwt>
<pdfrwt beam="2">  1        4 0.72972306E-02 0.12991552E+03</pdfrwt>
<pdfrwt beam="1">  1       -4 0.27003514E-01 0.12991552E+03</pdfrwt>
<totfact> 0.27095803E+03</totfact>
</mgrwt>
</event>
<event>
 6    4  0.2271823E-003  0.1437732E+03  0.7818608E-02  0.1208340E+00
         -4   -1    0    0    0  501 -0.00000000000E+00  0.00000000000E+00  0.13664375291E+03  0.13664965463E+03  0.12700000000E+01 0.  1.
          4   -1    0    0  502    0  0.00000000000E+00 -0.00000000000E+00 -0.16851124386E+03  0.16851602952E+03  0.12700000000E+01 0.  1.
         25    2    1    2    0    0 -0.69922320407E+02 -0.12592369173E+02 -0.12327997095E+03  0.18939029750E+03  0.12499213934E+03 0.  0.
    9000005    1    3    3    0    0 -0.17528388665E+02 -0.25266019274E+02  0.19733581803E+02  0.36551749478E+02  0.10000000000E+01 0.  0.
    9000005    1    3    3    0    0 -0.52393931742E+02  0.12673650101E+02 -0.14301355275E+03  0.15283854802E+03  0.10000000000E+01 0.  0.
         21    1    1    2  502  501  0.69922320407E+02  0.12592369173E+02  0.91412480011E+02  0.11577538665E+03  0.00000000000E+00 0.  1.
<mgrwt>
<rscale>  1 0.14377320E+03</rscale>
<asrwt>0</asrwt>
<pdfrwt beam="2">  1        4 0.25925629E-01 0.14377320E+03</pdfrwt>
<pdfrwt beam="1">  1       -4 0.21022938E-01 0.14377320E+03</pdfrwt>
<totfact> 0.48397420E+02</totfact>
</mgrwt>
</event>
<event>
 6    4  0.2271823E-003  0.1274090E+03  0.7818608E-02  0.1231352E+00
         -4   -1    0    0    0  501 -0.00000000000E+00  0.00000000000E+00  0.10768357498E+02  0.10842989588E+02  0.12700000000E+01 0. -1.
          4   -1    0    0  502    0  0.00000000000E+00 -0.00000000000E+00 -0.60096531977E+03  0.60096666169E+03  0.12700000000E+01 0. -1.
         25    2    1    2    0    0  0.12727763653E+02  0.21123035836E+02 -0.55069518580E+03  0.56524175509E+03  0.12499950173E+03 0.  0.
    9000005    1    3    3    0    0 -0.39361722244E+02 -0.33265468429E+02 -0.19847317409E+03  0.20505740026E+03  0.10000000000E+01 0.  0.
    9000005    1    3    3    0    0  0.52089485896E+02  0.54388504265E+02 -0.35222201171E+03  0.36018435484E+03  0.10000000000E+01 0.  0.
         21    1    1    2  502  501 -0.12727763653E+02 -0.21123035836E+02 -0.39501776477E+02  0.46567896188E+02  0.00000000000E+00 0. -1.
<mgrwt>
<rscale>  1 0.12740900E+03</rscale>
<asrwt>0</asrwt>
<pdfrwt beam="2">  1        4 0.92462021E-01 0.12740900E+03</pdfrwt>
<pdfrwt beam="1">  1       -4 0.16625150E-02 0.12740900E+03</pdfrwt>
<totfact> 0.22504219E+03</totfact>
</mgrwt>
</event>
<event>
 6    4  0.2271823E-003  0.1412746E+03  0.7818608E-02  0.1211624E+00
         -4   -1    0    0    0  501 -0.00000000000E+00  0.00000000000E+00  0.97636408985E+02  0.97644668362E+02  0.12700000000E+01 0. -1.
          4   -1    0    0  502    0  0.00000000000E+00 -0.00000000000E+00 -0.12272654685E+03  0.12273311779E+03  0.12700000000E+01 0. -1.
         25    2    1    2    0    0  0.62604698585E+02 -0.20335403278E+02 -0.50197145604E+02  0.14992752888E+03  0.12500253429E+03 0.  0.
    9000005    1    3    3    0    0  0.44556587906E+01  0.27824400879E+02 -0.66894259491E+02  0.72594022705E+02  0.10000000000E+01 0.  0.
    9000005    1    3    3    0    0  0.58149039794E+02 -0.48159804157E+02  0.16697113888E+02  0.77333506177E+02  0.10000000000E+01 0.  0.
         21    1    1    2  502  501 -0.62604698585E+02  0.20335403278E+02  0.25107007740E+02  0.70450257267E+02  0.00000000000E+00 0.  1.
<mgrwt>
<rscale>  1 0.14127459E+03</rscale>
<asrwt>0</asrwt>
<pdfrwt beam="2">  1        4 0.18882148E-01 0.14127459E+03</pdfrwt>
<pdfrwt beam="1">  1       -4 0.15022127E-01 0.14127459E+03</pdfrwt>
<totfact> 0.15621168E+03</totfact>
</mgrwt>
</event>
<event>
 6    4  0.2271823E-003  0.1284973E+03  0.7818608E-02  0.1229703E+00
         -4   -1    0    0    0  501 -0.00000000000E+00  0.00000000000E+00  0.32953238228E+03  0.32953482953E+03  0.12700000000E+01 0.  1.
          4   -1    0    0  502    0  0.00000000000E+00 -0.00000000000E+00 -0.21076236562E+02  0.21114465364E+02  0.12700000000E+01 0.  1.
         25    2    1    2    0    0 -0.20776764456E+02 -0.21308717966E+02  0.19634318233E+03  0.23465338133E+03  0.12500331484E+03 0.  0.
    9000005    1    3    3    0    0  0.25247119335E+01 -0.71703599593E+02  0.94501748347E+02  0.11865648236E+03  0.10000000000E+01 0.  0.
    9000005    1    3    3    0    0 -0.23301476389E+02  0.50394881627E+02  0.10184143398E+03  0.11599689898E+03  0.10000000000E+01 0.  0.
         21    1    1    2  502  501  0.20776764456E+02  0.21308717966E+02  0.11211296339E+03  0.11599591356E+03  0.00000000000E+00 0.  1.
<mgrwt>
<rscale>  1 0.12849733E+03</rscale>
<asrwt>0</asrwt>
<pdfrwt beam="2">  1        4 0.32456269E-02 0.12849733E+03</pdfrwt>
<pdfrwt beam="1">  1       -4 0.50700418E-01 0.12849733E+03</pdfrwt>
<totfact> 0.29111183E+03</totfact>
</mgrwt>
</event>
<event>
 6    4  0.2271823E-003  0.1272833E+03  0.7818608E-02  0.1231543E+00
          4   -1    0    0  502    0  0.00000000000E+00  0.00000000000E+00  0.20373372816E+04  0.20373376775E+04  0.12700000000E+01 0.  1.
         -4   -1    0    0    0  501 -0.00000000000E+00 -0.00000000000E+00 -0.36523722038E+01  0.38668750581E+01  0.12700000000E+01 0.  1.
         25    2    1    2    0    0 -0.39555870215E+00  0.24021510869E+02  0.19497164354E+04  0.19538667367E+04  0.12499542657E+03 0.  0.
    9000005    1    3    3    0    0 -0.39009490629E+02  0.37447179943E+02  0.40336033476E+03  0.40697001278E+03  0.10000000000E+01 0.  0.
    9000005    1    3    3    0    0  0.38613931927E+02 -0.13425669074E+02  0.15463561007E+04  0.15468967239E+04  0.10000000000E+01 0.  0.
         21    1    1    2  502  501  0.39555870215E+00 -0.24021510869E+02  0.83968473986E+02  0.87337815834E+02  0.00000000000E+00 0. -1.
<mgrwt>
<rscale>  1 0.12728333E+03</rscale>
<asrwt>0</asrwt>
<pdfrwt beam="1">  1        4 0.31345282E+00 0.12728333E+03</pdfrwt>
<pdfrwt beam="2">  1       -4 0.57843449E-03 0.12728333E+03</pdfrwt>
<totfact> 0.34857460E+02</totfact>
</mgrwt>
</event>
<event>
 6    4  0.2271823E-003  0.1309805E+03  0.7818608E-02  0.1226008E+00
         -4   -1    0    0    0  501 -0.00000000000E+00  0.00000000000E+00  0.32355910407E+02  0.32380825164E+02  0.12700000000E+01 0.  1.
          4   -1    0    0  502    0  0.00000000000E+00 -0.00000000000E+00 -0.22414215715E+03  0.22414575506E+03  0.12700000000E+01 0.  1.
         25    2    1    2    0    0 -0.33144478587E+02 -0.20781892627E+02 -0.15351503064E+03  0.20179880388E+03  0.12500179636E+03 0.  0.
    9000005    1    3    3    0    0 -0.35352174651E+02 -0.71075896099E+02 -0.10711594828E+03  0.13332811270E+03  0.10000000000E+01 0.  0.
    9000005    1    3    3    0    0  0.22076960644E+01  0.50294003472E+02 -0.46399082354E+02  0.68470691178E+02  0.10000000000E+01 0.  0.
         21    1    1    2  502  501  0.33144478587E+02  0.20781892627E+02 -0.38271216106E+02  0.54727776350E+02  0.00000000000E+00 0.  1.
<mgrwt>
<rscale>  1 0.13098050E+03</rscale>
<asrwt>0</asrwt>
<pdfrwt beam="2">  1        4 0.34485601E-01 0.13098050E+03</pdfrwt>
<pdfrwt beam="1">  1       -4 0.49800258E-02 0.13098050E+03</pdfrwt>
<totfact> 0.31788587E+03</totfact>
</mgrwt>
</event>
<event>
 6    4  0.2271823E-003  0.1297611E+03  0.7818608E-02  0.1227811E+00
          4   -1    0    0  502    0  0.00000000000E+00  0.00000000000E+00  0.28088053933E+02  0.28116750768E+02  0.12700000000E+01 0. -1.
         -4   -1    0    0    0  501 -0.00000000000E+00 -0.00000000000E+00 -0.26852788033E+03  0.26853088354E+03  0.12700000000E+01 0. -1.
         25    2    1    2    0    0 -0.34132995112E+02  0.69613882367E+01 -0.22222792056E+03  0.25733865574E+03  0.12499765111E+03 0.  0.
    9000005    1    3    3    0    0 -0.81357326839E+02  0.36074240456E+00 -0.15270613947E+03  0.17302979454E+03  0.10000000000E+01 0.  0.
    9000005    1    3    3    0    0  0.47224331727E+02  0.66006458321E+01 -0.69521781084E+02  0.84308861204E+02  0.10000000000E+01 0.  0.
         21    1    1    2  502  501  0.34132995112E+02 -0.69613882367E+01 -0.18211905842E+02  0.39308978565E+02  0.00000000000E+00 0. -1.
<mgrwt>
<rscale>  1 0.12976107E+03</rscale>
<asrwt>0</asrwt>
<pdfrwt beam="1">  1        4 0.43236777E-02 0.12976107E+03</pdfrwt>
<pdfrwt beam="2">  1       -4 0.41314418E-01 0.12976107E+03</pdfrwt>
<totfact> 0.27958670E+03</totfact>
</mgrwt>
</event>
<event>
 6    4  0.2271823E-003  0.1271054E+03  0.7818608E-02  0.1231815E+00
          4   -1    0    0  502    0  0.00000000000E+00  0.00000000000E+00  0.11750521423E+04  0.11750528286E+04  0.12700000000E+01 0. -1.
         -4   -1    0    0    0  501 -0.00000000000E+00 -0.00000000000E+00 -0.14223043210E+02  0.14279630883E+02  0.12700000000E+01 0. -1.
         25    2    1    2    0    0  0.66734033479E+00  0.23015252455E+02  0.11593104826E+04  0.11662575080E+04  0.12500253045E+03 0.  0.
    9000005    1    3    3    0    0  0.15190249589E+02  0.55277350737E+02  0.10454856864E+04  0.10470566602E+04  0.10000000000E+01 0.  0.
    9000005    1    3    3    0    0 -0.14522909254E+02 -0.32262098282E+02  0.11382479622E+03  0.11920084779E+03  0.10000000000E+01 0.  0.
         21    1    1    2  502  501 -0.66734033479E+00 -0.23015252455E+02  0.15186164095E+01  0.23074951452E+02  0.00000000000E+00 0. -1.
<mgrwt>
<rscale>  1 0.12710539E+03</rscale>
<asrwt>0</asrwt>
<pdfrwt beam="1">  1        4 0.18078173E+00 0.12710539E+03</pdfrwt>
<pdfrwt beam="2">  1       -4 0.21925654E-02 0.12710539E+03</pdfrwt>
<totfact> 0.28272601E+02</totfact>
</mgrwt>
</event>
<event>
 6    4  0.2271823E-003  0.1438087E+03  0.7818608E-02  0.1208294E+00
         -4   -1    0    0    0  501 -0.00000000000E+00  0.00000000000E+00  0.71671533196E+01  0.72788039338E+01  0.12700000000E+01 0. -1.
          4   -1    0    0  502    0  0.00000000000E+00 -0.00000000000E+00 -0.17773699578E+04  0.17773704115E+04  0.12700000000E+01 0. -1.
         25    2    1    2    0    0  0.69717787508E+02 -0.13921922561E+02 -0.14226202051E+04  0.14298703361E+04  0.12500616143E+03 0.  0.
    9000005    1    3    3    0    0  0.80518178447E+01  0.43365300955E+02 -0.22431755390E+03  0.22861484222E+03  0.10000000000E+01 0.  0.
    9000005    1    3    3    0    0  0.61665969663E+02 -0.57287223516E+02 -0.11983026512E+04  0.12012554939E+04  0.10000000000E+01 0.  0.
         21    1    1    2  502  501 -0.69717787508E+02  0.13921922561E+02 -0.34758259938E+03  0.35477887933E+03  0.00000000000E+00 0. -1.
<mgrwt>
<rscale>  1 0.14380866E+03</rscale>
<asrwt>0</asrwt>
<pdfrwt beam="2">  1        4 0.27344981E+00 0.14380866E+03</pdfrwt>
<pdfrwt beam="1">  1       -4 0.11112638E-02 0.14380866E+03</pdfrwt>
<totfact> 0.22701730E+02</totfact>
</mgrwt>
</event>
<event>
 6    4  0.2271823E-003  0.1268106E+03  0.7818608E-02  0.1232266E+00
         -4   -1    0    0    0  501 -0.00000000000E+00  0.00000000000E+00  0.20774955325E+02  0.20813737501E+02  0.12700000000E+01 0.  1.
          4   -1    0    0  502    0  0.00000000000E+00 -0.00000000000E+00 -0.26669923722E+03  0.26670226102E+03  0.12700000000E+01 0.  1.
         25    2    1    2    0    0  0.53212270226E+01 -0.20615115244E+02 -0.22040077242E+03  0.25427824936E+03  0.12501051628E+03 0.  0.
    9000005    1    3    3    0    0 -0.29268028787E+02  0.43956332250E+02 -0.10601345275E+03  0.11844251271E+03  0.10000000000E+01 0.  0.
    9000005    1    3    3    0    0  0.34589255809E+02 -0.64571447494E+02 -0.11438731967E+03  0.13583573665E+03  0.10000000000E+01 0.  0.
         21    1    1    2  502  501 -0.53212270226E+01  0.20615115244E+02 -0.25523509476E+02  0.33237749164E+02  0.00000000000E+00 0.  1.
<mgrwt>
<rscale>  1 0.12681060E+03</rscale>
<asrwt>0</asrwt>
<pdfrwt beam="2">  1        4 0.41033865E-01 0.12681060E+03</pdfrwt>
<pdfrwt beam="1">  1       -4 0.31993630E-02 0.12681060E+03</pdfrwt>
<totfact> 0.45358624E+03</totfact>
</mgrwt>
</event>
<event>
 6    4  0.2271823E-003  0.1368869E+03  0.7818608E-02  0.1217580E+00
         -4   -1    0    0    0  501 -0.00000000000E+00  0.00000000000E+00  0.18081744220E+03  0.18082190217E+03  0.12700000000E+01 0. -1.
          4   -1    0    0  502    0  0.00000000000E+00 -0.00000000000E+00 -0.86733380033E+02  0.86742677570E+02  0.12700000000E+01 0. -1.
         25    2    1    2    0    0  0.49118822377E+02 -0.26462882700E+02 -0.22117750386E+02  0.13866227521E+03  0.12500035524E+03 0.  0.
    9000005    1    3    3    0    0  0.48221447880E+02 -0.10334475492E+02 -0.71404999493E+02  0.86785847762E+02  0.10000000000E+01 0.  0.
    9000005    1    3    3    0    0  0.89737449776E+00 -0.16128407208E+02  0.49287249106E+02  0.51876427446E+02  0.10000000000E+01 0.  0.
         21    1    1    2  502  501 -0.49118822377E+02  0.26462882700E+02  0.11620181255E+03  0.12890230453E+03  0.00000000000E+00 0. -1.
<mgrwt>
<rscale>  1 0.13688693E+03</rscale>
<asrwt>0</asrwt>
<pdfrwt beam="2">  1        4 0.13344655E-01 0.13688693E+03</pdfrwt>
<pdfrwt beam="1">  1       -4 0.27819126E-01 0.13688693E+03</pdfrwt>
<totfact> 0.93848185E+02</totfact>
</mgrwt>
</event>
<event>
 6    4  0.2271823E-003  0.1271802E+03  0.7818608E-02  0.1231701E+00
          4   -1    0    0  502    0  0.00000000000E+00  0.00000000000E+00  0.30597302693E+02  0.30623648249E+02  0.12700000000E+01 0. -1.
         -4   -1    0    0    0  501 -0.00000000000E+00 -0.00000000000E+00 -0.27846434019E+03  0.27846723624E+03  0.12700000000E+01 0. -1.
         25    2    1    2    0    0  0.16313197838E+01 -0.23346448723E+02 -0.10674094177E+03  0.16603742326E+03  0.12500831733E+03 0.  0.
    9000005    1    3    3    0    0 -0.37742652448E+02  0.20290788193E+02  0.14728557111E+01  0.42888147585E+02  0.10000000000E+01 0.  0.
    9000005    1    3    3    0    0  0.39373972232E+02 -0.43637236917E+02 -0.10821379748E+03  0.12314927568E+03  0.10000000000E+01 0.  0.
         21    1    1    2  502  501 -0.16313197838E+01  0.23346448723E+02 -0.14112609573E+03  0.14305346122E+03  0.00000000000E+00 0. -1.
<mgrwt>
<rscale>  1 0.12718018E+03</rscale>
<asrwt>0</asrwt>
<pdfrwt beam="1">  1        4 0.47095269E-02 0.12718018E+03</pdfrwt>
<pdfrwt beam="2">  1       -4 0.42842915E-01 0.12718018E+03</pdfrwt>
<totfact> 0.22590215E+03</totfact>
</mgrwt>
</event>
<event>
 6    4  0.2271823E-003  0.1302255E+03  0.7818608E-02  0.1227122E+00
         -4   -1    0    0    0  501 -0.00000000000E+00  0.00000000000E+00  0.15327344953E+03  0.15327871095E+03  0.12700000000E+01 0.  1.
          4   -1    0    0  502    0  0.00000000000E+00 -0.00000000000E+00 -0.55025954507E+02  0.55040608367E+02  0.12700000000E+01 0.  1.
         25    2    1    2    0    0  0.15389712279E+02  0.33120405093E+02  0.34282355676E+02  0.13466238801E+03  0.12499949743E+03 0.  0.
    9000005    1    3    3    0    0 -0.26780588563E+02  0.24012421724E+02  0.69958833356E+02  0.78670418109E+02  0.10000000000E+01 0.  0.
    9000005    1    3    3    0    0  0.42170300843E+02  0.91079833689E+01 -0.35676477680E+02  0.55991969905E+02  0.10000000000E+01 0.  0.
         21    1    1    2  502  501 -0.15389712279E+02 -0.33120405093E+02  0.63965139348E+02  0.73656931306E+02  0.00000000000E+00 0.  1.
<mgrwt>
<rscale>  1 0.13022549E+03</rscale>
<asrwt>0</asrwt>
<pdfrwt beam="2">  1        4 0.84670636E-02 0.13022549E+03</pdfrwt>
<pdfrwt beam="1">  1       -4 0.23582062E-01 0.13022549E+03</pdfrwt>
<totfact> 0.27230329E+03</totfact>
</mgrwt>
</event>
<event>
 6    4  0.2271823E-003  0.1302243E+03  0.7818608E-02  0.1227123E+00
          4   -1    0    0  502    0  0.00000000000E+00  0.00000000000E+00  0.10469388072E+04  0.10469395775E+04  0.12700000000E+01 0.  1.
         -4   -1    0    0    0  501 -0.00000000000E+00 -0.00000000000E+00 -0.74092309425E+01  0.75172869547E+01  0.12700000000E+01 0.  1.
         25    2    1    2    0    0 -0.35331075464E+02 -0.92475636742E+01  0.92818548180E+03  0.93727619327E+03  0.12499828606E+03 0.  0.
    9000005    1    3    3    0    0 -0.24683359094E+02  0.46766569366E+02  0.70283769268E+03  0.70482494456E+03  0.10000000000E+01 0.  0.
    9000005    1    3    3    0    0 -0.10647716369E+02 -0.56014133040E+02  0.22534778912E+03  0.23245124871E+03  0.10000000000E+01 0.  0.
         21    1    1    2  502  501  0.35331075464E+02  0.92475636742E+01  0.11134409447E+03  0.11718067119E+03  0.00000000000E+00 0.  1.
<mgrwt>
<rscale>  1 0.13022432E+03</rscale>
<asrwt>0</asrwt>
<pdfrwt beam="1">  1        4 0.16107579E+00 0.13022432E+03</pdfrwt>
<pdfrwt beam="2">  1       -4 0.11482536E-02 0.13022432E+03</pdfrwt>
<totfact> 0.10364419E+03</totfact>
</mgrwt>
</event>
<event>
 6    4  0.2271823E-003  0.1300014E+03  0.7818608E-02  0.1227454E+00
         -4   -1    0    0    0  501 -0.00000000000E+00  0.00000000000E+00  0.25304468184E+02  0.25336318006E+02  0.12700000000E+01 0.  1.
          4   -1    0    0  502    0  0.00000000000E+00 -0.00000000000E+00 -0.27109655537E+03  0.27109953012E+03  0.12700000000E+01 0.  1.
         25    2    1    2    0    0 -0.27327039806E+02  0.22988605210E+02 -0.19289004435E+03  0.23260897910E+03  0.12500049950E+03 0.  0.
    9000005    1    3    3    0    0 -0.26704883497E+02 -0.17230119047E+02  0.36382501559E+01  0.32004135188E+02  0.10000000000E+01 0.  0.
    9000005    1    3    3    0    0 -0.62215630908E+00  0.40218724257E+02 -0.19652829450E+03  0.20060484391E+03  0.10000000000E+01 0.  0.
         21    1    1    2  502  501  0.27327039806E+02 -0.22988605210E+02 -0.52902042839E+02  0.63826869033E+02  0.00000000000E+00 0.  1.
<mgrwt>
<rscale>  1 0.13000142E+03</rscale>
<asrwt>0</asrwt>
<pdfrwt beam="2">  1        4 0.41709839E-01 0.13000142E+03</pdfrwt>
<pdfrwt beam="1">  1       -4 0.38956741E-02 0.13000142E+03</pdfrwt>
<totfact> 0.32393855E+03</totfact>
</mgrwt>
</event>
<event>
 6    4  0.2271823E-003  0.1318915E+03  0.7818608E-02  0.1224676E+00
          4   -1    0    0  502    0  0.00000000000E+00  0.00000000000E+00  0.56545755493E+02  0.56560015597E+02  0.12700000000E+01 0.  1.
         -4   -1    0    0    0  501 -0.00000000000E+00 -0.00000000000E+00 -0.17825062830E+03  0.17825515249E+03  0.12700000000E+01 0.  1.
         25    2    1    2    0    0  0.27534063679E+02 -0.31816715078E+02 -0.31978440933E+02  0.13571289466E+03  0.12499976429E+03 0.  0.
    9000005    1    3    3    0    0  0.39249965905E+02 -0.60358158227E+02  0.20467315442E+02  0.74857051034E+02  0.10000000000E+01 0.  0.
    9000005    1    3    3    0    0 -0.11715902225E+02  0.28541443150E+02 -0.52445756375E+02  0.60855843629E+02  0.10000000000E+01 0.  0.
         21    1    1    2  502  501 -0.27534063679E+02  0.31816715078E+02 -0.89726431874E+02  0.99102273424E+02  0.00000000000E+00 0.  1.
<mgrwt>
<rscale>  1 0.13189151E+03</rscale>
<asrwt>0</asrwt>
<pdfrwt beam="1">  1        4 0.87007921E-02 0.13189151E+03</pdfrwt>
<pdfrwt beam="2">  1       -4 0.27424618E-01 0.13189151E+03</pdfrwt>
<totfact> 0.19745632E+03</totfact>
</mgrwt>
</event>
<event>
 6    4  0.2271823E-003  0.1398376E+03  0.7818608E-02  0.1213548E+00
          4   -1    0    0  502    0  0.00000000000E+00  0.00000000000E+00  0.17243763319E+03  0.17244230989E+03  0.12700000000E+01 0. -1.
         -4   -1    0    0    0  501 -0.00000000000E+00 -0.00000000000E+00 -0.60503320227E+02  0.60516647780E+02  0.12700000000E+01 0. -1.
         25    2    1    2    0    0  0.54647320504E+02 -0.30691875663E+02  0.91169505872E+02  0.16693246236E+03  0.12500498917E+03 0.  0.
    9000005    1    3    3    0    0  0.64922271282E+02 -0.26982948707E+02 -0.46689310901E+01  0.70468288945E+02  0.10000000000E+01 0.  0.
    9000005    1    3    3    0    0 -0.10274950778E+02 -0.37089269552E+01  0.95838436962E+02  0.96464173412E+02  0.10000000000E+01 0.  0.
         21    1    1    2  502  501 -0.54647320504E+02  0.30691875663E+02  0.20764807093E+02  0.66026495315E+02  0.00000000000E+00 0. -1.
<mgrwt>
<rscale>  1 0.13983765E+03</rscale>
<asrwt>0</asrwt>
<pdfrwt beam="1">  1        4 0.26530251E-01 0.13983765E+03</pdfrwt>
<pdfrwt beam="2">  1       -4 0.93095881E-02 0.13983765E+03</pdfrwt>
<totfact> 0.19002966E+03</totfact>
</mgrwt>
</event>
<event>
 6    4  0.2271823E-003  0.1282293E+03  0.7818608E-02  0.1230107E+00
         -4   -1    0    0    0  501 -0.00000000000E+00  0.00000000000E+00  0.29882191449E+02  0.29909166919E+02  0.12700000000E+01 0.  1.
          4   -1    0    0  502    0  0.00000000000E+00 -0.00000000000E+00 -0.20595752172E+03  0.20596143729E+03  0.12700000000E+01 0.  1.
         25    2    1    2    0    0 -0.63738020490E+01  0.27999607812E+02 -0.14340047419E+03  0.19237060870E+03  0.12497260381E+03 0.  0.
    9000005    1    3    3    0    0  0.11006520065E+02 -0.40959872335E+02 -0.13933762398E+02  0.44654275946E+02  0.10000000000E+01 0.  0.
    9000005    1    3    3    0    0 -0.17380322114E+02  0.68959480148E+02 -0.12946671179E+03  0.14771633275E+03  0.10000000000E+01 0.  0.
         21    1    1    2  502  501  0.63738020490E+01 -0.27999607812E+02 -0.32674856078E+02  0.43499995516E+02  0.00000000000E+00 0.  1.
<mgrwt>
<rscale>  1 0.12822931E+03</rscale>
<asrwt>0</asrwt>
<pdfrwt beam="2">  1        4 0.31688148E-01 0.12822931E+03</pdfrwt>
<pdfrwt beam="1">  1       -4 0.45996366E-02 0.12822931E+03</pdfrwt>
<totfact> 0.42226615E+03</totfact>
</mgrwt>
</event>
<event>
 6    4  0.2271823E-003  0.1551037E+03  0.7818608E-02  0.1194338E+00
          4   -1    0    0  502    0  0.00000000000E+00  0.00000000000E+00  0.40338905209E+02  0.40358892124E+02  0.12700000000E+01 0.  1.
         -4   -1    0    0    0  501 -0.00000000000E+00 -0.00000000000E+00 -0.46829366954E+03  0.46829539164E+03  0.12700000000E+01 0.  1.
         25    2    1    2    0    0 -0.75489480824E+02 -0.52286426394E+02 -0.14940304165E+03  0.21535649259E+03  0.12499847177E+03 0.  0.
    9000005    1    3    3    0    0 -0.10370689969E+03 -0.14592653718E+02 -0.12230712935E+03  0.16102204965E+03  0.10000000000E+01 0.  0.
    9000005    1    3    3    0    0  0.28217418861E+02 -0.37693772676E+02 -0.27095912306E+02  0.54334442939E+02  0.10000000000E+01 0.  0.
         21    1    1    2  502  501  0.75489480824E+02  0.52286426394E+02 -0.27855172267E+03  0.29329779117E+03  0.00000000000E+00 0.  1.
<mgrwt>
<rscale>  1 0.15510368E+03</rscale>
<asrwt>0</asrwt>
<pdfrwt beam="1">  1        4 0.62076557E-02 0.15510368E+03</pdfrwt>
<pdfrwt beam="2">  1       -4 0.72046846E-01 0.15510368E+03</pdfrwt>
<totfact> 0.51209958E+02</totfact>
</mgrwt>
</event>
<event>
 6    4  0.2271823E-003  0.1293657E+03  0.7818608E-02  0.1228400E+00
         -4   -1    0    0    0  501 -0.00000000000E+00  0.00000000000E+00  0.38607988020E+03  0.38608196901E+03  0.12700000000E+01 0. -1.
          4   -1    0    0  502    0  0.00000000000E+00 -0.00000000000E+00 -0.26058348694E+02  0.26089278193E+02  0.12700000000E+01 0. -1.
         25    2    1    2    0    0 -0.10128153277E+02  0.31714208594E+02  0.14390267086E+03  0.19350315982E+03  0.12500849436E+03 0.  0.
    9000005    1    3    3    0    0  0.21701745076E+02  0.72545738165E+02  0.69035133284E+02  0.10247292078E+03  0.10000000000E+01 0.  0.
    9000005    1    3    3    0    0 -0.31829898353E+02 -0.40831529571E+02  0.74867537578E+02  0.91030239038E+02  0.10000000000E+01 0.  0.
         21    1    1    2  502  501  0.10128153277E+02 -0.31714208594E+02  0.21611886065E+03  0.21866808739E+03  0.00000000000E+00 0. -1.
<mgrwt>
<rscale>  1 0.12936574E+03</rscale>
<asrwt>0</asrwt>
<pdfrwt beam="2">  1        4 0.40115166E-02 0.12936574E+03</pdfrwt>
<pdfrwt beam="1">  1       -4 0.59399444E-01 0.12936574E+03</pdfrwt>
<totfact> 0.15045487E+03</totfact>
</mgrwt>
</event>
<event>
 6    4  0.2271823E-003  0.1281957E+03  0.7818608E-02  0.1230158E+00
          4   -1    0    0  502    0  0.00000000000E+00  0.00000000000E+00  0.95308569865E+02  0.95317030953E+02  0.12700000000E+01 0. -1.
         -4   -1    0    0    0  501 -0.00000000000E+00 -0.00000000000E+00 -0.64771618508E+02  0.64784067981E+02  0.12700000000E+01 0. -1.
         25    2    1    2    0    0 -0.28174896409E+02  0.38671814136E+01  0.19865277107E+02  0.12972570575E+03  0.12500139846E+03 0.  0.
    9000005    1    3    3    0    0  0.26231682266E+02 -0.17834715231E+02  0.53476770586E+02  0.62184750656E+02  0.10000000000E+01 0.  0.
    9000005    1    3    3    0    0 -0.54406578675E+02  0.21701896645E+02 -0.33611493478E+02  0.67540955094E+02  0.10000000000E+01 0.  0.
         21    1    1    2  502  501  0.28174896409E+02 -0.38671814136E+01  0.10671674250E+02  0.30375393184E+02  0.00000000000E+00 0. -1.
<mgrwt>
<rscale>  1 0.12819567E+03</rscale>
<asrwt>0</asrwt>
<pdfrwt beam="1">  1        4 0.14664465E-01 0.12819567E+03</pdfrwt>
<pdfrwt beam="2">  1       -4 0.99664729E-02 0.12819567E+03</pdfrwt>
<totfact> 0.48195754E+03</totfact>
</mgrwt>
</event>
<event>
 6    4  0.2271823E-003  0.1272252E+03  0.7818608E-02  0.1231632E+00
         -4   -1    0    0    0  501 -0.00000000000E+00  0.00000000000E+00  0.10914813300E+03  0.10915552133E+03  0.12700000000E+01 0. -1.
          4   -1    0    0  502    0  0.00000000000E+00 -0.00000000000E+00 -0.52803032599E+02  0.52818303188E+02  0.12700000000E+01 0. -1.
         25    2    1    2    0    0  0.59796351085E+01 -0.22924721517E+02  0.53845295376E+02  0.13815056031E+03  0.12499985034E+03 0.  0.
    9000005    1    3    3    0    0  0.40835652777E+01  0.51891253886E+01 -0.39798065340E+02  0.40354535464E+02  0.10000000000E+01 0.  0.
    9000005    1    3    3    0    0  0.18960698309E+01 -0.28113846906E+02  0.93643360716E+02  0.97796024842E+02  0.10000000000E+01 0.  0.
         21    1    1    2  502  501 -0.59796351085E+01  0.22924721517E+02  0.24998050237E+01  0.23823264214E+02  0.00000000000E+00 0. -1.
<mgrwt>
<rscale>  1 0.12722524E+03</rscale>
<asrwt>0</asrwt>
<pdfrwt beam="2">  1        4 0.81252865E-02 0.12722524E+03</pdfrwt>
<pdfrwt beam="1">  1       -4 0.16793763E-01 0.12722524E+03</pdfrwt>
<totfact> 0.53345337E+03</totfact>
</mgrwt>
</event>
<event>
 6    4  0.2271823E-003  0.1307714E+03  0.7818608E-02  0.1226316E+00
         -4   -1    0    0    0  501 -0.00000000000E+00  0.00000000000E+00  0.50803311233E+03  0.50803469973E+03  0.12700000000E+01 0. -1.
          4   -1    0    0  502    0  0.00000000000E+00 -0.00000000000E+00 -0.14511448730E+02  0.14566916085E+02  0.12700000000E+01 0. -1.
         25    2    1    2    0    0  0.24213324386E+02 -0.29814277610E+02  0.33821674733E+03  0.36261788774E+03  0.12500395238E+03 0.  0.
    9000005    1    3    3    0    0  0.54154169672E+02 -0.63755980105E+02  0.24704417929E+03  0.26082431945E+03  0.10000000000E+01 0.  0.
    9000005    1    3    3    0    0 -0.29940845286E+02  0.33941702495E+02  0.91172568031E+02  0.10179356829E+03  0.10000000000E+01 0.  0.
         21    1    1    2  502  501 -0.24213324386E+02  0.29814277610E+02  0.15530491628E+03  0.15998372807E+03  0.00000000000E+00 0. -1.
<mgrwt>
<rscale>  1 0.13077142E+03</rscale>
<asrwt>0</asrwt>
<pdfrwt beam="2">  1        4 0.22369197E-02 0.13077142E+03</pdfrwt>
<pdfrwt beam="1">  1       -4 0.78163317E-01 0.13077142E+03</pdfrwt>
<totfact> 0.20880945E+03</totfact>
</mgrwt>
</event>
<event>
 6    4  0.2271823E-003  0.1271633E+03  0.7818608E-02  0.1231727E+00
          4   -1    0    0  502    0  0.00000000000E+00  0.00000000000E+00  0.79491509947E+01  0.80499628283E+01  0.12700000000E+01 0. -1.
         -4   -1    0    0    0  501 -0.00000000000E+00 -0.00000000000E+00 -0.71055486495E+03  0.71055599991E+03  0.12700000000E+01 0. -1.
         25    2    1    2    0    0  0.23219120539E+02 -0.19482965041E+01 -0.61003307393E+03  0.62314593393E+03  0.12501032065E+03 0.  0.
    9000005    1    3    3    0    0  0.66791934547E+02  0.18306337267E+02 -0.47043174081E+03  0.47550321478E+03  0.10000000000E+01 0.  0.
    9000005    1    3    3    0    0 -0.43572814008E+02 -0.20254633771E+02 -0.13960133312E+03  0.14764271915E+03  0.10000000000E+01 0.  0.
         21    1    1    2  502  501 -0.23219120539E+02  0.19482965041E+01 -0.92572640031E+02  0.95460028809E+02  0.00000000000E+00 0. -1.
<mgrwt>
<rscale>  1 0.12716330E+03</rscale>
<asrwt>0</asrwt>
<pdfrwt beam="1">  1        4 0.12307889E-02 0.12716330E+03</pdfrwt>
<pdfrwt beam="2">  1       -4 0.10932393E+00 0.12716330E+03</pdfrwt>
<totfact> 0.24123814E+03</totfact>
</mgrwt>
</event>
<event>
 6    4  0.2271823E-003  0.1280291E+03  0.7818608E-02  0.1230410E+00
          4   -1    0    0  502    0  0.00000000000E+00  0.00000000000E+00  0.40468956394E+03  0.40469155670E+03  0.12700000000E+01 0.  1.
         -4   -1    0    0    0  501 -0.00000000000E+00 -0.00000000000E+00 -0.15220518017E+02  0.15273410513E+02  0.12700000000E+01 0.  1.
         25    2    1    2    0    0 -0.13436212644E+02 -0.24222748960E+02  0.33939439841E+03  0.36273959084E+03  0.12499671880E+03 0.  0.
    9000005    1    3    3    0    0 -0.28703321216E+02  0.44832733125E+02  0.19211783725E+03  0.19935926866E+03  0.10000000000E+01 0.  0.
    9000005    1    3    3    0    0  0.15267108572E+02 -0.69055482085E+02  0.14727656116E+03  0.16338032218E+03  0.10000000000E+01 0.  0.
         21    1    1    2  502  501  0.13436212644E+02  0.24222748960E+02  0.50074647515E+02  0.57225376374E+02  0.00000000000E+00 0.  1.
<mgrwt>
<rscale>  1 0.12802911E+03</rscale>
<asrwt>0</asrwt>
<pdfrwt beam="1">  1        4 0.62264150E-01 0.12802911E+03</pdfrwt>
<pdfrwt beam="2">  1       -4 0.23458403E-02 0.12802911E+03</pdfrwt>
<totfact> 0.31507012E+03</totfact>
</mgrwt>
</event>
<event>
 6    4  0.2271823E-003  0.1308331E+03  0.7818608E-02  0.1226225E+00
          4   -1    0    0  502    0  0.00000000000E+00  0.00000000000E+00  0.45612049680E+02  0.45629726890E+02  0.12700000000E+01 0.  1.
         -4   -1    0    0    0  501 -0.00000000000E+00 -0.00000000000E+00 -0.15756155477E+03  0.15756667300E+03  0.12700000000E+01 0.  1.
         25    2    1    2    0    0 -0.20700975148E+02  0.32604067880E+02 -0.83151644895E+02  0.15502096667E+03  0.12500299374E+03 0.  0.
    9000005    1    3    3    0    0 -0.13195911973E+02  0.60324113139E+02  0.53318826422E+01  0.61988383519E+02  0.10000000000E+01 0.  0.
    9000005    1    3    3    0    0 -0.75050631752E+01 -0.27720045259E+02 -0.88483527537E+02  0.93032583151E+02  0.10000000000E+01 0.  0.
         21    1    1    2  502  501  0.20700975148E+02 -0.32604067880E+02 -0.28797860193E+02  0.48175433222E+02  0.00000000000E+00 0.  1.
<mgrwt>
<rscale>  1 0.13083312E+03</rscale>
<asrwt>0</asrwt>
<pdfrwt beam="1">  1        4 0.70189920E-02 0.13083312E+03</pdfrwt>
<pdfrwt beam="2">  1       -4 0.24241992E-01 0.13083312E+03</pdfrwt>
<totfact> 0.35321647E+03</totfact>
</mgrwt>
</event>
<event>
 6    4  0.2271823E-003  0.1776448E+03  0.7818608E-02  0.1170102E+00
         -4   -1    0    0    0  501 -0.00000000000E+00  0.00000000000E+00  0.25629060345E+03  0.25629375006E+03  0.12700000000E+01 0. -1.
          4   -1    0    0  502    0  0.00000000000E+00 -0.00000000000E+00 -0.90332876684E+02  0.90341803779E+02  0.12700000000E+01 0. -1.
         25    2    1    2    0    0  0.75240629807E+02 -0.10135660143E+03  0.87691279861E+02  0.19810963105E+03  0.12499340912E+03 0.  0.
    9000005    1    3    3    0    0  0.11041188958E+03 -0.71982738751E+02  0.64651281822E+02  0.14680970091E+03  0.10000000000E+01 0.  0.
    9000005    1    3    3    0    0 -0.35171259777E+02 -0.29373862678E+02  0.23039998039E+02  0.51299930142E+02  0.10000000000E+01 0.  0.
         21    1    1    2  502  501 -0.75240629807E+02  0.10135660143E+03  0.78266446907E+02  0.14852592278E+03  0.00000000000E+00 0. -1.
<mgrwt>
<rscale>  1 0.17764477E+03</rscale>
<asrwt>0</asrwt>
<pdfrwt beam="2">  1        4 0.13898295E-01 0.17764477E+03</pdfrwt>
<pdfrwt beam="1">  1       -4 0.39430251E-01 0.17764477E+03</pdfrwt>
<totfact> 0.47010089E+02</totfact>
</mgrwt>
</event>
<event>
 6    4  0.2271823E-003  0.1279662E+03  0.7818608E-02  0.1230505E+00
          4   -1    0    0  502    0  0.00000000000E+00  0.00000000000E+00  0.20415984716E+03  0.20416379721E+03  0.12700000000E+01 0.  1.
         -4   -1    0    0    0  501 -0.00000000000E+00 -0.00000000000E+00 -0.43895631030E+02  0.43913999174E+02  0.12700000000E+01 0.  1.
         25    2    1    2    0    0  0.19381625719E+02  0.19280456832E+02  0.17517548997E+03  0.21693731600E+03  0.12501185286E+03 0.  0.
    9000005    1    3    3    0    0 -0.21194264862E+02  0.24329299392E+01 -0.12119334129E+02  0.24555941661E+02  0.10000000000E+01 0.  0.
    9000005    1    3    3    0    0  0.40575890581E+02  0.16847526892E+02  0.18729482410E+03  0.19238137434E+03  0.10000000000E+01 0.  0.
         21    1    1    2  502  501 -0.19381625719E+02 -0.19280456832E+02 -0.14911273840E+02  0.31140480386E+02  0.00000000000E+00 0.  1.
<mgrwt>
<rscale>  1 0.12796619E+03</rscale>
<asrwt>0</asrwt>
<pdfrwt beam="1">  1        4 0.31410924E-01 0.12796619E+03</pdfrwt>
<pdfrwt beam="2">  1       -4 0.67548907E-02 0.12796619E+03</pdfrwt>
<totfact> 0.23060684E+03</totfact>
</mgrwt>
</event>
<event>
 6    4  0.2271823E-003  0.1287228E+03  0.7818608E-02  0.1229363E+00
          4   -1    0    0  502    0  0.00000000000E+00  0.00000000000E+00  0.45375412945E+03  0.45375590673E+03  0.12700000000E+01 0.  1.
         -4   -1    0    0    0  501 -0.00000000000E+00 -0.00000000000E+00 -0.14792805809E+02  0.14847222087E+02  0.12700000000E+01 0.  1.
         25    2    1    2    0    0 -0.29037677209E+02 -0.10065794314E+02  0.39096572767E+03  0.41161116319E+03  0.12500017017E+03 0.  0.
    9000005    1    3    3    0    0  0.30257054104E+02  0.47624503763E+01  0.22271866311E+02  0.37884116535E+02  0.10000000000E+01 0.  0.
    9000005    1    3    3    0    0 -0.59294731313E+02 -0.14828244690E+02  0.36869386136E+03  0.37372704666E+03  0.10000000000E+01 0.  0.
         21    1    1    2  502  501  0.29037677209E+02  0.10065794314E+02  0.47995595975E+02  0.56991965626E+02  0.00000000000E+00 0. -1.
<mgrwt>
<rscale>  1 0.12872276E+03</rscale>
<asrwt>0</asrwt>
<pdfrwt beam="1">  1        4 0.69812654E-01 0.12872276E+03</pdfrwt>
<pdfrwt beam="2">  1       -4 0.22801387E-02 0.12872276E+03</pdfrwt>
<totfact> 0.25828491E+03</totfact>
</mgrwt>
</event>
<event>
 6    4  0.2271823E-003  0.1284422E+03  0.7818608E-02  0.1229786E+00
         -4   -1    0    0    0  501 -0.00000000000E+00  0.00000000000E+00  0.46543639219E+03  0.46543812487E+03  0.12700000000E+01 0. -1.
          4   -1    0    0  502    0  0.00000000000E+00 -0.00000000000E+00 -0.19605064791E+02  0.19646156506E+02  0.12700000000E+01 0. -1.
         25    2    1    2    0    0 -0.24622717118E+02  0.16314605258E+02  0.20137465368E+03  0.23884961713E+03  0.12499977567E+03 0.  0.
    9000005    1    3    3    0    0  0.30768969601E+02  0.11030021378E+02  0.17359696987E+03  0.17665021599E+03  0.10000000000E+01 0.  0.
    9000005    1    3    3    0    0 -0.55391686719E+02  0.52845838793E+01  0.27777683803E+02  0.62199401137E+02  0.10000000000E+01 0.  0.
         21    1    1    2  502  501  0.24622717118E+02 -0.16314605258E+02  0.24445667373E+03  0.24623466424E+03  0.00000000000E+00 0. -1.
<mgrwt>
<rscale>  1 0.12844216E+03</rscale>
<asrwt>0</asrwt>
<pdfrwt beam="2">  1        4 0.30194582E-02 0.12844216E+03</pdfrwt>
<pdfrwt beam="1">  1       -4 0.71608889E-01 0.12844216E+03</pdfrwt>
<totfact> 0.15787946E+03</totfact>
</mgrwt>
</event>
<event>
 6    4  0.2271823E-003  0.1540988E+03  0.7818608E-02  0.1195525E+00
         -4   -1    0    0    0  501 -0.00000000000E+00  0.00000000000E+00  0.19914764915E+03  0.19915169862E+03  0.12700000000E+01 0. -1.
          4   -1    0    0  502    0  0.00000000000E+00 -0.00000000000E+00 -0.77483554660E+02  0.77493961976E+02  0.12700000000E+01 0. -1.
         25    2    1    2    0    0  0.77947456294E+02  0.45222364108E+02  0.51637740947E+02  0.16252047341E+03  0.12500231930E+03 0.  0.
    9000005    1    3    3    0    0 -0.53795165713E+01  0.53907209086E+02  0.56899002601E+02  0.78571132657E+02  0.10000000000E+01 0.  0.
    9000005    1    3    3    0    0  0.83326972865E+02 -0.86848449785E+01 -0.52612616542E+01  0.83949340756E+02  0.10000000000E+01 0.  0.
         21    1    1    2  502  501 -0.77947456294E+02 -0.45222364108E+02  0.70026353542E+02  0.11412518718E+03  0.00000000000E+00 0. -1.
<mgrwt>
<rscale>  1 0.15409883E+03</rscale>
<asrwt>0</asrwt>
<pdfrwt beam="2">  1        4 0.11921659E-01 0.15409883E+03</pdfrwt>
<pdfrwt beam="1">  1       -4 0.30639211E-01 0.15409883E+03</pdfrwt>
<totfact> 0.97281055E+02</totfact>
</mgrwt>
</event>
<event>
 6    4  0.2271823E-003  0.1300764E+03  0.7818608E-02  0.1227342E+00
         -4   -1    0    0    0  501 -0.00000000000E+00  0.00000000000E+00  0.50500369321E+03  0.50500529013E+03  0.12700000000E+01 0.  1.
          4   -1    0    0  502    0  0.00000000000E+00 -0.00000000000E+00 -0.13885676805E+02  0.13943633685E+02  0.12700000000E+01 0.  1.
         25    2    1    2    0    0  0.23455408721E+02 -0.27293930656E+02  0.41164055620E+03  0.43170339941E+03  0.12499905079E+03 0.  0.
    9000005    1    3    3    0    0  0.61235999075E+02  0.22624377728E+02  0.24928965075E+03  0.25769757473E+03  0.10000000000E+01 0.  0.
    9000005    1    3    3    0    0 -0.37780590354E+02 -0.49918308384E+02  0.16235090545E+03  0.17400582467E+03  0.10000000000E+01 0.  0.
         21    1    1    2  502  501 -0.23455408721E+02  0.27293930656E+02  0.79477460201E+02  0.87245524407E+02  0.00000000000E+00 0. -1.
<mgrwt>
<rscale>  1 0.13007643E+03</rscale>
<asrwt>0</asrwt>
<pdfrwt beam="2">  1        4 0.21408389E-02 0.13007643E+03</pdfrwt>
<pdfrwt beam="1">  1       -4 0.77697461E-01 0.13007643E+03</pdfrwt>
<totfact> 0.22613602E+03</totfact>
</mgrwt>
</event>
<event>
 6    4  0.2271823E-003  0.1319670E+03  0.7818608E-02  0.1224566E+00
         -4   -1    0    0    0  501 -0.00000000000E+00  0.00000000000E+00  0.56354111988E+03  0.56354255092E+03  0.12700000000E+01 0.  1.
          4   -1    0    0  502    0  0.00000000000E+00 -0.00000000000E+00 -0.25450533389E+02  0.25482200646E+02  0.12700000000E+01 0.  1.
         25    2    1    2    0    0  0.35218029273E+02  0.23469379492E+02  0.15485123824E+03  0.20345566643E+03  0.12499672340E+03 0.  0.
    9000005    1    3    3    0    0  0.26966764523E+02 -0.46509850792E+02  0.34184003578E+02  0.63717491399E+02  0.10000000000E+01 0.  0.
    9000005    1    3    3    0    0  0.82512647497E+01  0.69979230285E+02  0.12066723466E+03  0.13973817503E+03  0.10000000000E+01 0.  0.
         21    1    1    2  502  501 -0.35218029273E+02 -0.23469379492E+02  0.38323934826E+03  0.38556908513E+03  0.00000000000E+00 0.  1.
<mgrwt>
<rscale>  1 0.13196705E+03</rscale>
<asrwt>0</asrwt>
<pdfrwt beam="2">  1        4 0.39180131E-02 0.13196705E+03</pdfrwt>
<pdfrwt beam="1">  1       -4 0.86701171E-01 0.13196705E+03</pdfrwt>
<totfact> 0.69138167E+02</totfact>
</mgrwt>
</event>
<event>
 6    4  0.2271823E-003  0.1274834E+03  0.7818608E-02  0.1231238E+00
          4   -1    0    0  502    0  0.00000000000E+00  0.00000000000E+00  0.69487518275E+02  0.69499122988E+02  0.12700000000E+01 0. -1.
         -4   -1    0    0    0  501 -0.00000000000E+00 -0.00000000000E+00 -0.92207897815E+02  0.92216643397E+02  0.12700000000E+01 0. -1.
         25    2    1    2    0    0 -0.10459920472E+02 -0.22780317973E+02  0.59074388125E+00  0.12748476730E+03  0.12499465625E+03 0.  0.
    9000005    1    3    3    0    0  0.17368348242E+02 -0.78449681677E+01  0.58489732064E+02  0.61524400063E+02  0.10000000000E+01 0.  0.
    9000005    1    3    3    0    0 -0.27828268714E+02 -0.14935349806E+02 -0.57898988182E+02  0.65960367237E+02  0.10000000000E+01 0.  0.
         21    1    1    2  502  501  0.10459920472E+02  0.22780317973E+02 -0.23311123421E+02  0.34230999085E+02  0.00000000000E+00 0. -1.
<mgrwt>
<rscale>  1 0.12748340E+03</rscale>
<asrwt>0</asrwt>
<pdfrwt beam="1">  1        4 0.10691953E-01 0.12748340E+03</pdfrwt>
<pdfrwt beam="2">  1       -4 0.14187396E-01 0.12748340E+03</pdfrwt>
<totfact> 0.45276687E+03</totfact>
</mgrwt>
</event>
<event>
 6    4  0.2271823E-003  0.1274343E+03  0.7818608E-02  0.1231313E+00
          4   -1    0    0  502    0  0.00000000000E+00  0.00000000000E+00  0.93650790072E+03  0.93650876184E+03  0.12700000000E+01 0.  1.
         -4   -1    0    0    0  501 -0.00000000000E+00 -0.00000000000E+00 -0.95046762016E+01  0.95891485387E+01  0.12700000000E+01 0.  1.
         25    2    1    2    0    0  0.23811340620E+02 -0.69218570680E+01  0.90173425853E+03  0.91069434150E+03  0.12499847435E+03 0.  0.
    9000005    1    3    3    0    0  0.69298999983E+02  0.17098627123E+02  0.63859434411E+03  0.64257174757E+03  0.10000000000E+01 0.  0.
    9000005    1    3    3    0    0 -0.45487659364E+02 -0.24020484191E+02  0.26313991442E+03  0.26812259393E+03  0.10000000000E+01 0.  0.
         21    1    1    2  502  501 -0.23811340620E+02  0.69218570680E+01  0.25268965990E+02  0.35403568882E+02  0.00000000000E+00 0.  1.
<mgrwt>
<rscale>  1 0.12743434E+03</rscale>
<asrwt>0</asrwt>
<pdfrwt beam="1">  1        4 0.14408466E+00 0.12743434E+03</pdfrwt>
<pdfrwt beam="2">  1       -4 0.14688224E-02 0.12743434E+03</pdfrwt>
<totfact> 0.94468475E+02</totfact>
</mgrwt>
</event>
<event>
 6    4  0.2271823E-003  0.1283742E+03  0.7818608E-02  0.1229888E+00
          4   -1    0    0  502    0  0.00000000000E+00  0.00000000000E+00  0.29898588203E+02  0.29925548892E+02  0.12700000000E+01 0. -1.
         -4   -1    0    0    0  501 -0.00000000000E+00 -0.00000000000E+00 -0.22352207801E+03  0.22352568590E+03  0.12700000000E+01 0. -1.
         25    2    1    2    0    0 -0.60993304837E+01  0.28579270329E+02 -0.12643395476E+03  0.18018179952E+03  0.12500383770E+03 0.  0.
    9000005    1    3    3    0    0  0.13278142066E+02  0.54512236433E+02 -0.13540651172E+03  0.14657358696E+03  0.10000000000E+01 0.  0.
    9000005    1    3    3    0    0 -0.19377472549E+02 -0.25932966105E+02  0.89725569617E+01  0.33608212565E+02  0.10000000000E+01 0.  0.
         21    1    1    2  502  501  0.60993304837E+01 -0.28579270329E+02 -0.67189535051E+02  0.73269435273E+02  0.00000000000E+00 0. -1.
<mgrwt>
<rscale>  1 0.12837420E+03</rscale>
<asrwt>0</asrwt>
<pdfrwt beam="1">  1        4 0.46021344E-02 0.12837420E+03</pdfrwt>
<pdfrwt beam="2">  1       -4 0.34390362E-01 0.12837420E+03</pdfrwt>
<totfact> 0.36088792E+03</totfact>
</mgrwt>
</event>
<event>
 6    4  0.2271823E-003  0.1411564E+03  0.7818608E-02  0.1211781E+00
         -4   -1    0    0    0  501 -0.00000000000E+00  0.00000000000E+00  0.25543596834E+03  0.25543912547E+03  0.12700000000E+01 0.  1.
          4   -1    0    0  502    0  0.00000000000E+00 -0.00000000000E+00 -0.11710654898E+03  0.11711343524E+03  0.12700000000E+01 0.  1.
         25    2    1    2    0    0  0.64059636476E+02  0.14019085762E+02 -0.67546492916E+02  0.15648529562E+03  0.12499978900E+03 0.  0.
    9000005    1    3    3    0    0 -0.30264958613E+02  0.30312084403E+02 -0.35168700442E+02  0.55431287839E+02  0.10000000000E+01 0.  0.
    9000005    1    3    3    0    0  0.94324595090E+02 -0.16292998642E+02 -0.32377792475E+02  0.10105400778E+03  0.10000000000E+01 0.  0.
         21    1    1    2  502  501 -0.64059636476E+02 -0.14019085762E+02  0.20587591227E+03  0.21606726509E+03  0.00000000000E+00 0.  1.
<mgrwt>
<rscale>  1 0.14115636E+03</rscale>
<asrwt>0</asrwt>
<pdfrwt beam="2">  1        4 0.18017165E-01 0.14115636E+03</pdfrwt>
<pdfrwt beam="1">  1       -4 0.39298614E-01 0.14115636E+03</pdfrwt>
<totfact> 0.28767197E+02</totfact>
</mgrwt>
</event>
<event>
 6    4  0.2271823E-003  0.1370228E+03  0.7818608E-02  0.1217392E+00
          4   -1    0    0  502    0  0.00000000000E+00  0.00000000000E+00  0.15463384192E+03  0.15463905706E+03  0.12700000000E+01 0. -1.
         -4   -1    0    0    0  501 -0.00000000000E+00 -0.00000000000E+00 -0.60737291145E+02  0.60750567369E+02  0.12700000000E+01 0. -1.
         25    2    1    2    0    0  0.24911117977E+02 -0.50315532268E+02  0.58287864932E+02  0.14890507664E+03  0.12499212001E+03 0.  0.
    9000005    1    3    3    0    0 -0.17030964813E+02 -0.63182945058E+02  0.77124661718E+02  0.10115014461E+03  0.10000000000E+01 0.  0.
    9000005    1    3    3    0    0  0.41942082791E+02  0.12867412790E+02 -0.18836796786E+02  0.47754932037E+02  0.10000000000E+01 0.  0.
         21    1    1    2  502  501 -0.24911117977E+02  0.50315532268E+02  0.35608685843E+02  0.66484547782E+02  0.00000000000E+00 0. -1.
<mgrwt>
<rscale>  1 0.13702280E+03</rscale>
<asrwt>0</asrwt>
<pdfrwt beam="1">  1        4 0.23791244E-01 0.13702280E+03</pdfrwt>
<pdfrwt beam="2">  1       -4 0.93456212E-02 0.13702280E+03</pdfrwt>
<totfact> 0.22988945E+03</totfact>
</mgrwt>
</event>
<event>
 6    4  0.2271823E-003  0.1277062E+03  0.7818608E-02  0.1230900E+00
         -4   -1    0    0    0  501 -0.00000000000E+00  0.00000000000E+00  0.23039832216E+02  0.23074808093E+02  0.12700000000E+01 0.  1.
          4   -1    0    0  502    0  0.00000000000E+00 -0.00000000000E+00 -0.26756909773E+03  0.26757211170E+03  0.12700000000E+01 0.  1.
         25    2    1    2    0    0  0.25405140581E+02  0.63983324125E+01 -0.22191879006E+03  0.25604065698E+03  0.12499003489E+03 0.  0.
    9000005    1    3    3    0    0  0.61759253847E+02  0.34204147361E+02 -0.78925761134E+02  0.10589808734E+03  0.10000000000E+01 0.  0.
    9000005    1    3    3    0    0 -0.36354113266E+02 -0.27805814948E+02 -0.14299302892E+03  0.15014256964E+03  0.10000000000E+01 0.  0.
         21    1    1    2  502  501 -0.25405140581E+02 -0.63983324125E+01 -0.22610475457E+02  0.34606262814E+02  0.00000000000E+00 0.  1.
<mgrwt>
<rscale>  1 0.12770618E+03</rscale>
<asrwt>0</asrwt>
<pdfrwt beam="2">  1        4 0.41167397E-01 0.12770618E+03</pdfrwt>
<pdfrwt beam="1">  1       -4 0.35475121E-02 0.12770618E+03</pdfrwt>
<totfact> 0.38377462E+03</totfact>
</mgrwt>
</event>
<event>
 6    4  0.2271823E-003  0.1298913E+03  0.7818608E-02  0.1227617E+00
         -4   -1    0    0    0  501 -0.00000000000E+00  0.00000000000E+00  0.32619405626E+02  0.32644119277E+02  0.12700000000E+01 0. -1.
          4   -1    0    0  502    0  0.00000000000E+00 -0.00000000000E+00 -0.21433901081E+03  0.21434277328E+03  0.12700000000E+01 0. -1.
         25    2    1    2    0    0  0.11214282637E+02  0.33478296443E+02 -0.15759554826E+03  0.20422561813E+03  0.12500075921E+03 0.  0.
    9000005    1    3    3    0    0 -0.14974089487E+02  0.19144631097E+01 -0.16223459039E+03  0.16293848792E+03  0.10000000000E+01 0.  0.
    9000005    1    3    3    0    0  0.26188372124E+02  0.31563833333E+02  0.46390421361E+01  0.41287130212E+02  0.10000000000E+01 0.  0.
         21    1    1    2  502  501 -0.11214282637E+02 -0.33478296443E+02 -0.24124056933E+02  0.42761274428E+02  0.00000000000E+00 0. -1.
<mgrwt>
<rscale>  1 0.12989129E+03</rscale>
<asrwt>0</asrwt>
<pdfrwt beam="2">  1        4 0.32977422E-01 0.12989129E+03</pdfrwt>
<pdfrwt beam="1">  1       -4 0.50205607E-02 0.12989129E+03</pdfrwt>
<totfact> 0.34118869E+03</totfact>
</mgrwt>
</event>
<event>
 6    4  0.2271823E-003  0.1271084E+03  0.7818608E-02  0.1231811E+00
         -4   -1    0    0    0  501 -0.00000000000E+00  0.00000000000E+00  0.66025366987E+02  0.66037580102E+02  0.12700000000E+01 0. -1.
          4   -1    0    0  502    0  0.00000000000E+00 -0.00000000000E+00 -0.85915713381E+02  0.85925099394E+02  0.12700000000E+01 0. -1.
         25    2    1    2    0    0  0.83107306501E+01 -0.21512817950E+02 -0.21195538426E+02  0.12886347807E+03  0.12499870220E+03 0.  0.
    9000005    1    3    3    0    0  0.46945077975E+02  0.18162902351E+02  0.25484528938E+02  0.56428650375E+02  0.10000000000E+01 0.  0.
    9000005    1    3    3    0    0 -0.38634347325E+02 -0.39675720301E+02 -0.46680067364E+02  0.72434827699E+02  0.10000000000E+01 0.  0.
         21    1    1    2  502  501 -0.83107306501E+01  0.21512817950E+02  0.13051920318E+01  0.23099201422E+02  0.00000000000E+00 0.  1.
<mgrwt>
<rscale>  1 0.12710840E+03</rscale>
<asrwt>0</asrwt>
<pdfrwt beam="2">  1        4 0.13219464E-01 0.12710840E+03</pdfrwt>
<pdfrwt beam="1">  1       -4 0.10159410E-01 0.12710840E+03</pdfrwt>
<totfact> 0.55727130E+03</totfact>
</mgrwt>
</event>
<event>
 6    4  0.2271823E-003  0.1269538E+03  0.7818608E-02  0.1232047E+00
          4   -1    0    0  502    0  0.00000000000E+00  0.00000000000E+00  0.14034962988E+03  0.14035537577E+03  0.12700000000E+01 0. -1.
         -4   -1    0    0    0  501 -0.00000000000E+00 -0.00000000000E+00 -0.10629032520E+03  0.10629791217E+03  0.12700000000E+01 0. -1.
         25    2    1    2    0    0  0.22154358835E+02 -0.86720650276E+00  0.10972882848E+03  0.16780251434E+03  0.12500280140E+03 0.  0.
    9000005    1    3    3    0    0  0.21368880479E+02 -0.62065967550E+02  0.53577501605E+02  0.84737017053E+02  0.10000000000E+01 0.  0.
    9000005    1    3    3    0    0  0.78547835675E+00  0.61198761047E+02  0.56151326879E+02  0.83065497291E+02  0.10000000000E+01 0.  0.
         21    1    1    2  502  501 -0.22154358835E+02  0.86720650276E+00 -0.75669523811E+02  0.78850773594E+02  0.00000000000E+00 0. -1.
<mgrwt>
<rscale>  1 0.12695380E+03</rscale>
<asrwt>0</asrwt>
<pdfrwt beam="1">  1        4 0.21593276E-01 0.12695380E+03</pdfrwt>
<pdfrwt beam="2">  1       -4 0.16353383E-01 0.12695380E+03</pdfrwt>
<totfact> 0.10331633E+03</totfact>
</mgrwt>
</event>
<event>
 6    4  0.2271823E-003  0.1296574E+03  0.7818608E-02  0.1227965E+00
          4   -1    0    0  502    0  0.00000000000E+00  0.00000000000E+00  0.11676053358E+02  0.11744918988E+02  0.12700000000E+01 0.  1.
         -4   -1    0    0    0  501 -0.00000000000E+00 -0.00000000000E+00 -0.58083067253E+03  0.58083206097E+03  0.12700000000E+01 0.  1.
         25    2    1    2    0    0 -0.12308746934E+02 -0.32180537595E+02 -0.42352693977E+03  0.44292901553E+03  0.12499580726E+03 0.  0.
    9000005    1    3    3    0    0  0.11945096083E+02  0.46114041525E+02 -0.15044020808E+03  0.15780508975E+03  0.10000000000E+01 0.  0.
    9000005    1    3    3    0    0 -0.24253843016E+02 -0.78294579120E+02 -0.27308673170E+03  0.28512392578E+03  0.10000000000E+01 0.  0.
         21    1    1    2  502  501  0.12308746934E+02  0.32180537595E+02 -0.14562767940E+03  0.14964796443E+03  0.00000000000E+00 0.  1.
<mgrwt>
<rscale>  1 0.12965741E+03</rscale>
<asrwt>0</asrwt>
<pdfrwt beam="1">  1        4 0.18017205E-02 0.12965741E+03</pdfrwt>
<pdfrwt beam="2">  1       -4 0.89363947E-01 0.12965741E+03</pdfrwt>
<totfact> 0.21579852E+03</totfact>
</mgrwt>
</event>
<event>
 6    4  0.2271823E-003  0.1346860E+03  0.7818608E-02  0.1220664E+00
          4   -1    0    0  502    0  0.00000000000E+00  0.00000000000E+00  0.38021944837E+03  0.38022156937E+03  0.12700000000E+01 0.  1.
         -4   -1    0    0    0  501 -0.00000000000E+00 -0.00000000000E+00 -0.24239594613E+02  0.24272841758E+02  0.12700000000E+01 0.  1.
         25    2    1    2    0    0  0.50006501317E+02 -0.38413797315E+01  0.30275610673E+03  0.33136320289E+03  0.12499962276E+03 0.  0.
    9000005    1    3    3    0    0  0.64960419656E+02  0.19709738580E+02  0.72137992318E+02  0.99061697202E+02  0.10000000000E+01 0.  0.
    9000005    1    3    3    0    0 -0.14953918339E+02 -0.23551118312E+02  0.23061811441E+03  0.23230150568E+03  0.10000000000E+01 0.  0.
         21    1    1    2  502  501 -0.50006501317E+02  0.38413797315E+01  0.53223747021E+02  0.73131208244E+02  0.00000000000E+00 0.  1.
<mgrwt>
<rscale>  1 0.13468598E+03</rscale>
<asrwt>0</asrwt>
<pdfrwt beam="1">  1        4 0.58498020E-01 0.13468598E+03</pdfrwt>
<pdfrwt beam="2">  1       -4 0.37318890E-02 0.13468598E+03</pdfrwt>
<totfact> 0.17576312E+03</totfact>
</mgrwt>
</event>
<event>
 6    4  0.2271823E-003  0.1287036E+03  0.7818608E-02  0.1229392E+00
         -4   -1    0    0    0  501 -0.00000000000E+00  0.00000000000E+00  0.13902727265E+03  0.13903307319E+03  0.12700000000E+01 0. -1.
          4   -1    0    0  502    0  0.00000000000E+00 -0.00000000000E+00 -0.60944256301E+02  0.60957487449E+02  0.12700000000E+01 0. -1.
         25    2    1    2    0    0 -0.30157421420E+02 -0.51094862032E+01  0.14607673966E+02  0.12952996167E+03  0.12501619862E+03 0.  0.
    9000005    1    3    3    0    0  0.22263333498E+01 -0.58861501883E+02  0.28199957754E+02  0.65313632432E+02  0.10000000000E+01 0.  0.
    9000005    1    3    3    0    0 -0.32383754769E+02  0.53752015680E+02 -0.13592283788E+02  0.64216329241E+02  0.10000000000E+01 0.  0.
         21    1    1    2  502  501  0.30157421420E+02  0.51094862032E+01  0.63475342382E+02  0.70460598965E+02  0.00000000000E+00 0. -1.
<mgrwt>
<rscale>  1 0.12870364E+03</rscale>
<asrwt>0</asrwt>
<pdfrwt beam="2">  1        4 0.93775034E-02 0.12870364E+03</pdfrwt>
<pdfrwt beam="1">  1       -4 0.21390275E-01 0.12870364E+03</pdfrwt>
<totfact> 0.27351965E+03</totfact>
</mgrwt>
</event>
<event>
 6    4  0.2271823E-003  0.1352916E+03  0.7818608E-02  0.1219809E+00
         -4   -1    0    0    0  501 -0.00000000000E+00  0.00000000000E+00  0.42974421472E+03  0.42974609130E+03  0.12700000000E+01 0. -1.
          4   -1    0    0  502    0  0.00000000000E+00 -0.00000000000E+00 -0.21626627061E+02  0.21663884647E+02  0.12700000000E+01 0. -1.
         25    2    1    2    0    0  0.51716799197E+02  0.20112591930E+01  0.24000527721E+03  0.27551108053E+03  0.12500059970E+03 0.  0.
    9000005    1    3    3    0    0 -0.13753797415E+02 -0.25489932685E+02  0.18063371617E+03  0.18294382479E+03  0.10000000000E+01 0.  0.
    9000005    1    3    3    0    0  0.65470596613E+02  0.27501191878E+02  0.59371561045E+02  0.92567255746E+02  0.10000000000E+01 0.  0.
         21    1    1    2  502  501 -0.51716799197E+02 -0.20112591930E+01  0.16811231045E+03  0.17589889541E+03  0.00000000000E+00 0. -1.
<mgrwt>
<rscale>  1 0.13529162E+03</rscale>
<asrwt>0</asrwt>
<pdfrwt beam="2">  1        4 0.33301837E-02 0.13529162E+03</pdfrwt>
<pdfrwt beam="1">  1       -4 0.66117505E-01 0.13529162E+03</pdfrwt>
<totfact> 0.16257703E+03</totfact>
</mgrwt>
</event>
<event>
 6    4  0.2271823E-003  0.1273949E+03  0.7818608E-02  0.1231373E+00
          4   -1    0    0  502    0  0.00000000000E+00  0.00000000000E+00  0.26529063253E+03  0.26529367238E+03  0.12700000000E+01 0.  1.
         -4   -1    0    0    0  501 -0.00000000000E+00 -0.00000000000E+00 -0.21762042345E+02  0.21799068490E+02  0.12700000000E+01 0.  1.
         25    2    1    2    0    0  0.38135350885E+01 -0.24285359821E+02  0.20708613179E+03  0.24313395876E+03  0.12500053668E+03 0.  0.
    9000005    1    3    3    0    0  0.55142233663E+02  0.19689399413E+02  0.79412966636E+02  0.98669943005E+02  0.10000000000E+01 0.  0.
    9000005    1    3    3    0    0 -0.51328698574E+02 -0.43974759234E+02  0.12767316515E+03  0.14446401575E+03  0.10000000000E+01 0.  0.
         21    1    1    2  502  501 -0.38135350885E+01  0.24285359821E+02  0.36442458390E+02  0.43958782115E+02  0.00000000000E+00 0. -1.
<mgrwt>
<rscale>  1 0.12739488E+03</rscale>
<asrwt>0</asrwt>
<pdfrwt beam="1">  1        4 0.40817026E-01 0.12739488E+03</pdfrwt>
<pdfrwt beam="2">  1       -4 0.33510885E-02 0.12739488E+03</pdfrwt>
<totfact> 0.42666670E+03</totfact>
</mgrwt>
</event>
<event>
 6    4  0.2271823E-003  0.1270824E+03  0.7818608E-02  0.1231850E+00
          4   -1    0    0  502    0  0.00000000000E+00  0.00000000000E+00  0.60559179655E+03  0.60559312822E+03  0.12700000000E+01 0.  1.
         -4   -1    0    0    0  501 -0.00000000000E+00 -0.00000000000E+00 -0.92470656338E+01  0.93338696603E+01  0.12700000000E+01 0.  1.
         25    2    1    2    0    0 -0.21356455024E+02  0.83383316573E+01  0.50169417913E+03  0.51753935544E+03  0.12499723643E+03 0.  0.
    9000005    1    3    3    0    0 -0.20845105538E+02  0.45973657285E+02  0.45388193968E+03  0.45668141057E+03  0.10000000000E+01 0.  0.
    9000005    1    3    3    0    0 -0.51134948611E+00 -0.37635325628E+02  0.47812239444E+02  0.60857944872E+02  0.10000000000E+01 0.  0.
         21    1    1    2  502  501  0.21356455024E+02 -0.83383316573E+01  0.94650551783E+02  0.97387642434E+02  0.00000000000E+00 0. -1.
<mgrwt>
<rscale>  1 0.12708239E+03</rscale>
<asrwt>0</asrwt>
<pdfrwt beam="1">  1        4 0.93174795E-01 0.12708239E+03</pdfrwt>
<pdfrwt beam="2">  1       -4 0.14294044E-02 0.12708239E+03</pdfrwt>
<totfact> 0.27825043E+03</totfact>
</mgrwt>
</event>
<event>
 6    4  0.2271823E-003  0.1593856E+03  0.7818608E-02  0.1189392E+00
          4   -1    0    0  502    0  0.00000000000E+00  0.00000000000E+00  0.11799764781E+03  0.11800448207E+03  0.12700000000E+01 0.  1.
         -4   -1    0    0    0  501 -0.00000000000E+00 -0.00000000000E+00 -0.15423586430E+03  0.15424109289E+03  0.12700000000E+01 0.  1.
         25    2    1    2    0    0  0.52016887288E+02 -0.84109242792E+02  0.16378356769E+02  0.16022492924E+03  0.12499462425E+03 0.  0.
    9000005    1    3    3    0    0  0.54028914626E+02 -0.23715108698E+02  0.61173130857E+02  0.84998129009E+02  0.10000000000E+01 0.  0.
    9000005    1    3    3    0    0 -0.20120273383E+01 -0.60394134094E+02 -0.44794774088E+02  0.75226800228E+02  0.10000000000E+01 0.  0.
         21    1    1    2  502  501 -0.52016887288E+02  0.84109242792E+02 -0.52616573261E+02  0.11202064572E+03  0.00000000000E+00 0.  1.
<mgrwt>
<rscale>  1 0.15938562E+03</rscale>
<asrwt>0</asrwt>
<pdfrwt beam="1">  1        4 0.18154412E-01 0.15938562E+03</pdfrwt>
<pdfrwt beam="2">  1       -4 0.23729522E-01 0.15938562E+03</pdfrwt>
<totfact> 0.75696570E+02</totfact>
</mgrwt>
</event>
<event>
 6    4  0.2271823E-003  0.1315946E+03  0.7818608E-02  0.1225109E+00
         -4   -1    0    0    0  501 -0.00000000000E+00  0.00000000000E+00  0.41719183908E+03  0.41719377211E+03  0.12700000000E+01 0.  1.
          4   -1    0    0  502    0  0.00000000000E+00 -0.00000000000E+00 -0.30589571091E+02  0.30615923301E+02  0.12700000000E+01 0.  1.
         25    2    1    2    0    0 -0.39169695854E+02  0.12534612854E+02  0.12012433230E+03  0.17817684912E+03  0.12500301100E+03 0.  0.
    9000005    1    3    3    0    0 -0.15247984050E+02  0.63647871116E+02  0.30390198981E+02  0.72167282818E+02  0.10000000000E+01 0.  0.
    9000005    1    3    3    0    0 -0.23921711803E+02 -0.51113258262E+02  0.89734133316E+02  0.10600956630E+03  0.10000000000E+01 0.  0.
         21    1    1    2  502  501  0.39169695854E+02 -0.12534612854E+02  0.26647793569E+03  0.26963284629E+03  0.00000000000E+00 0. -1.
<mgrwt>
<rscale>  1 0.13159458E+03</rscale>
<asrwt>0</asrwt>
<pdfrwt beam="2">  1        4 0.47082639E-02 0.13159458E+03</pdfrwt>
<pdfrwt beam="1">  1       -4 0.64185533E-01 0.13159458E+03</pdfrwt>
<totfact> 0.99360984E+02</totfact>
</mgrwt>
</event>
<event>
 6    4  0.2271823E-003  0.1268080E+03  0.7818608E-02  0.1232270E+00
         -4   -1    0    0    0  501 -0.00000000000E+00  0.00000000000E+00  0.26469028338E+03  0.26469333013E+03  0.12700000000E+01 0. -1.
          4   -1    0    0  502    0  0.00000000000E+00 -0.00000000000E+00 -0.21117642922E+02  0.21155796903E+02  0.12700000000E+01 0. -1.
         25    2    1    2    0    0  0.16836487142E+02 -0.13120894390E+02  0.22089815689E+03  0.25470819940E+03  0.12499858381E+03 0.  0.
    9000005    1    3    3    0    0 -0.50901981295E+02 -0.14006881740E+02  0.13729389310E+03  0.14709798611E+03  0.10000000000E+01 0.  0.
    9000005    1    3    3    0    0  0.67738468437E+02  0.88598734978E+00  0.83604263794E+02  0.10761021329E+03  0.10000000000E+01 0.  0.
         21    1    1    2  502  501 -0.16836487142E+02  0.13120894390E+02  0.22674483568E+02  0.31140927635E+02  0.00000000000E+00 0. -1.
<mgrwt>
<rscale>  1 0.12680801E+03</rscale>
<asrwt>0</asrwt>
<pdfrwt beam="2">  1        4 0.32520373E-02 0.12680801E+03</pdfrwt>
<pdfrwt beam="1">  1       -4 0.40724752E-01 0.12680801E+03</pdfrwt>
<totfact> 0.44874581E+03</totfact>
</mgrwt>
</event>
<event>
 6    4  0.2271823E-003  0.1266164E+03  0.7818608E-02  0.1232565E+00
          4   -1    0    0  502    0  0.00000000000E+00  0.00000000000E+00  0.95484597260E+02  0.95493042752E+02  0.12700000000E+01 0. -1.
         -4   -1    0    0    0  501 -0.00000000000E+00 -0.00000000000E+00 -0.63664071013E+02  0.63676737023E+02  0.12700000000E+01 0. -1.
         25    2    1    2    0    0 -0.13580415281E+01 -0.20096154361E+02  0.45807274858E+02  0.13464777265E+03  0.12500406614E+03 0.  0.
    9000005    1    3    3    0    0 -0.18535631887E+02 -0.55437163494E+02  0.67865377531E+02  0.89574316705E+02  0.10000000000E+01 0.  0.
    9000005    1    3    3    0    0  0.17177590359E+02  0.35341009132E+02 -0.22058102673E+02  0.45073455942E+02  0.10000000000E+01 0.  0.
         21    1    1    2  502  501  0.13580415281E+01  0.20096154361E+02 -0.13986748610E+02  0.24522007128E+02  0.00000000000E+00 0. -1.
<mgrwt>
<rscale>  1 0.12661641E+03</rscale>
<asrwt>0</asrwt>
<pdfrwt beam="1">  1        4 0.14691562E-01 0.12661641E+03</pdfrwt>
<pdfrwt beam="2">  1       -4 0.97960965E-02 0.12661641E+03</pdfrwt>
<totfact> 0.49300031E+03</totfact>
</mgrwt>
</event>
<event>
 6    4  0.2271823E-003  0.1266135E+03  0.7818608E-02  0.1232569E+00
         -4   -1    0    0    0  501 -0.00000000000E+00  0.00000000000E+00  0.36674198955E+01  0.38810911725E+01  0.12700000000E+01 0.  1.
          4   -1    0    0  502    0  0.00000000000E+00 -0.00000000000E+00 -0.14714218725E+04  0.14714224206E+04  0.12700000000E+01 0.  1.
         25    2    1    2    0    0 -0.36754397369E+00 -0.20157149687E+02 -0.13399603012E+04  0.13459288971E+04  0.12499816634E+03 0.  0.
    9000005    1    3    3    0    0  0.39943769962E+02  0.14369448544E+01 -0.15459951187E+03  0.15968587489E+03  0.10000000000E+01 0.  0.
    9000005    1    3    3    0    0 -0.40311313936E+02 -0.21594094541E+02 -0.11853607893E+04  0.11862430222E+04  0.10000000000E+01 0.  0.
         21    1    1    2  502  501  0.36754397369E+00  0.20157149687E+02 -0.12779415143E+03  0.12937461464E+03  0.00000000000E+00 0. -1.
<mgrwt>
<rscale>  1 0.12661354E+03</rscale>
<asrwt>0</asrwt>
<pdfrwt beam="2">  1        4 0.22638862E+00 0.12661354E+03</pdfrwt>
<pdfrwt beam="1">  1       -4 0.58069803E-03 0.12661354E+03</pdfrwt>
<totfact> 0.10998955E+03</totfact>
</mgrwt>
</event>
<event>
 6    4  0.2271823E-003  0.1270039E+03  0.7818608E-02  0.1231970E+00
          4   -1    0    0  502    0  0.00000000000E+00  0.00000000000E+00  0.10056511762E+03  0.10057313648E+03  0.12700000000E+01 0.  1.
         -4   -1    0    0    0  501 -0.00000000000E+00 -0.00000000000E+00 -0.55802581436E+02  0.55817031406E+02  0.12700000000E+01 0.  1.
         25    2    1    2    0    0  0.25515360233E+01 -0.22327507100E+02  0.41892880652E+02  0.13373486316E+03  0.12499988906E+03 0.  0.
    9000005    1    3    3    0    0  0.49149850600E+02  0.73266362335E+01  0.57815457849E+02  0.76243128076E+02  0.10000000000E+01 0.  0.
    9000005    1    3    3    0    0 -0.46598314577E+02 -0.29654143333E+02 -0.15922577197E+02  0.57491735083E+02  0.10000000000E+01 0.  0.
         21    1    1    2  502  501 -0.25515360233E+01  0.22327507100E+02  0.28696555291E+01  0.22655304726E+02  0.00000000000E+00 0.  1.
<mgrwt>
<rscale>  1 0.12700394E+03</rscale>
<asrwt>0</asrwt>
<pdfrwt beam="1">  1        4 0.15473285E-01 0.12700394E+03</pdfrwt>
<pdfrwt beam="2">  1       -4 0.85867410E-02 0.12700394E+03</pdfrwt>
<totfact> 0.56175283E+03</totfact>
</mgrwt>
</event>
<event>
 6    4  0.2271823E-003  0.1266254E+03  0.7818608E-02  0.1232551E+00
         -4   -1    0    0    0  501 -0.00000000000E+00  0.00000000000E+00  0.25102763702E+03  0.25103084959E+03  0.12700000000E+01 0. -1.
          4   -1    0    0  502    0  0.00000000000E+00 -0.00000000000E+00 -0.26484410244E+02  0.26514842748E+02  0.12700000000E+01 0. -1.
         25    2    1    2    0    0  0.19029637556E+02  0.68154522510E+01  0.13237119700E+03  0.18318330276E+03  0.12500164447E+03 0.  0.
    9000005    1    3    3    0    0 -0.14237535077E+02 -0.20247077337E+02 -0.15496147824E+02  0.29219550700E+02  0.10000000000E+01 0.  0.
    9000005    1    3    3    0    0  0.33267172633E+02  0.27062529588E+02  0.14786734483E+03  0.15396375206E+03  0.10000000000E+01 0.  0.
         21    1    1    2  502  501 -0.19029637556E+02 -0.68154522510E+01  0.92172029775E+02  0.94362389582E+02  0.00000000000E+00 0. -1.
<mgrwt>
<rscale>  1 0.12662539E+03</rscale>
<asrwt>0</asrwt>
<pdfrwt beam="2">  1        4 0.40771127E-02 0.12662539E+03</pdfrwt>
<pdfrwt beam="1">  1       -4 0.38622224E-01 0.12662539E+03</pdfrwt>
<totfact> 0.34834308E+03</totfact>
</mgrwt>
</event>
<event>
 6    4  0.2271823E-003  0.1271544E+03  0.7818608E-02  0.1231740E+00
         -4   -1    0    0    0  501 -0.00000000000E+00  0.00000000000E+00  0.25051829335E+02  0.25083999941E+02  0.12700000000E+01 0. -1.
          4   -1    0    0  502    0  0.00000000000E+00 -0.00000000000E+00 -0.24105111693E+03  0.24105446246E+03  0.12700000000E+01 0. -1.
         25    2    1    2    0    0 -0.22626645553E+02 -0.55181079196E+01 -0.20280677243E+03  0.23937174687E+03  0.12500332657E+03 0.  0.
    9000005    1    3    3    0    0 -0.52180224131E+02 -0.21049140346E+02 -0.30800029729E+02  0.64152037622E+02  0.10000000000E+01 0.  0.
    9000005    1    3    3    0    0  0.29553578579E+02  0.15531032426E+02 -0.17200674270E+03  0.17521970925E+03  0.10000000000E+01 0.  0.
         21    1    1    2  502  501  0.22626645553E+02  0.55181079196E+01 -0.13192515164E+02  0.26766715531E+02  0.00000000000E+00 0. -1.
<mgrwt>
<rscale>  1 0.12715442E+03</rscale>
<asrwt>0</asrwt>
<pdfrwt beam="2">  1        4 0.37087518E-01 0.12715442E+03</pdfrwt>
<pdfrwt beam="1">  1       -4 0.38568598E-02 0.12715442E+03</pdfrwt>
<totfact> 0.41210427E+03</totfact>
</mgrwt>
</event>
<event>
 6    4  0.2271823E-003  0.1275192E+03  0.7818608E-02  0.1231184E+00
         -4   -1    0    0    0  501 -0.00000000000E+00  0.00000000000E+00  0.30759995068E+03  0.30760257242E+03  0.12700000000E+01 0. -1.
          4   -1    0    0  502    0  0.00000000000E+00 -0.00000000000E+00 -0.24257137323E+02  0.24290360456E+02  0.12700000000E+01 0. -1.
         25    2    1    2    0    0 -0.18688251825E+02  0.16960090135E+02  0.15320725081E+03  0.19933290853E+03  0.12499700521E+03 0.  0.
    9000005    1    3    3    0    0  0.25869571209E+02  0.36345423331E+02  0.14282557247E+03  0.14963411598E+03  0.10000000000E+01 0.  0.
    9000005    1    3    3    0    0 -0.44557823033E+02 -0.19385333196E+02  0.10381678336E+02  0.49698792558E+02  0.10000000000E+01 0.  0.
         21    1    1    2  502  501  0.18688251825E+02 -0.16960090135E+02  0.13013556255E+03  0.13256002434E+03  0.00000000000E+00 0. -1.
<mgrwt>
<rscale>  1 0.12751920E+03</rscale>
<asrwt>0</asrwt>
<pdfrwt beam="2">  1        4 0.37346246E-02 0.12751920E+03</pdfrwt>
<pdfrwt beam="1">  1       -4 0.47325826E-01 0.12751920E+03</pdfrwt>
<totfact> 0.26785517E+03</totfact>
</mgrwt>
</event>
<event>
 6    4  0.2271823E-003  0.1283983E+03  0.7818608E-02  0.1229852E+00
          4   -1    0    0  502    0  0.00000000000E+00  0.00000000000E+00  0.44986239067E+01  0.46744536637E+01  0.12700000000E+01 0.  1.
         -4   -1    0    0    0  501 -0.00000000000E+00 -0.00000000000E+00 -0.14229233704E+04  0.14229239371E+04  0.12700000000E+01 0.  1.
         25    2    1    2    0    0  0.14326404464E+02 -0.25590369712E+02 -0.10112405668E+04  0.10193594056E+04  0.12500400350E+03 0.  0.
    9000005    1    3    3    0    0 -0.39859580119E+02 -0.20249644234E+02 -0.79877150032E+03  0.80002233965E+03  0.10000000000E+01 0.  0.
    9000005    1    3    3    0    0  0.54185984584E+02 -0.53407254780E+01 -0.21246906651E+03  0.21933706595E+03  0.10000000000E+01 0.  0.
         21    1    1    2  502  501 -0.14326404464E+02  0.25590369712E+02 -0.40718417961E+03  0.40823898517E+03  0.00000000000E+00 0.  1.
<mgrwt>
<rscale>  1 0.12839826E+03</rscale>
<asrwt>0</asrwt>
<pdfrwt beam="1">  1        4 0.70566608E-03 0.12839826E+03</pdfrwt>
<pdfrwt beam="2">  1       -4 0.21892451E+00 0.12839826E+03</pdfrwt>
<totfact> 0.91395369E+02</totfact>
</mgrwt>
</event>
<event>
 6    4  0.2271823E-003  0.1317297E+03  0.7818608E-02  0.1224912E+00
         -4   -1    0    0    0  501 -0.00000000000E+00  0.00000000000E+00  0.31568550178E+03  0.31568805637E+03  0.12700000000E+01 0. -1.
          4   -1    0    0  502    0  0.00000000000E+00 -0.00000000000E+00 -0.39175684104E+02  0.39196264172E+02  0.12700000000E+01 0. -1.
         25    2    1    2    0    0  0.28341465890E+02  0.30410684117E+02  0.80203461677E+02  0.15422482338E+03  0.12499860992E+03 0.  0.
    9000005    1    3    3    0    0 -0.67933333837E+01  0.64477545186E+02  0.82846182869E+02  0.10520453045E+03  0.10000000000E+01 0.  0.
    9000005    1    3    3    0    0  0.35134799274E+02 -0.34066861068E+02 -0.26427211917E+01  0.49020292924E+02  0.10000000000E+01 0.  0.
         21    1    1    2  502  501 -0.28341465890E+02 -0.30410684117E+02  0.19630635599E+03  0.20065949716E+03  0.00000000000E+00 0. -1.
<mgrwt>
<rscale>  1 0.13172965E+03</rscale>
<asrwt>0</asrwt>
<pdfrwt beam="2">  1        4 0.60288082E-02 0.13172965E+03</pdfrwt>
<pdfrwt beam="1">  1       -4 0.48568777E-01 0.13172965E+03</pdfrwt>
<totfact> 0.11891373E+03</totfact>
</mgrwt>
</event>
<event>
 6    4  0.2271823E-003  0.1311475E+03  0.7818608E-02  0.1225763E+00
         -4   -1    0    0    0  501 -0.00000000000E+00  0.00000000000E+00  0.12591851402E+03  0.12592491839E+03  0.12700000000E+01 0. -1.
          4   -1    0    0  502    0  0.00000000000E+00 -0.00000000000E+00 -0.29382510331E+03  0.29382784796E+03  0.12700000000E+01 0. -1.
         25    2    1    2    0    0 -0.37541867536E+02 -0.12840825425E+02 -0.27547491831E+03  0.30510014308E+03  0.12500155228E+03 0.  0.
    9000005    1    3    3    0    0 -0.77077271114E+02  0.19417719357E+01 -0.23208382614E+03  0.24455792475E+03  0.10000000000E+01 0.  0.
    9000005    1    3    3    0    0  0.39535403579E+02 -0.14782597361E+02 -0.43391092169E+02  0.60542218332E+02  0.10000000000E+01 0.  0.
         21    1    1    2  502  501  0.37541867536E+02  0.12840825425E+02  0.10756832902E+03  0.11465262327E+03  0.00000000000E+00 0. -1.
<mgrwt>
<rscale>  1 0.13114750E+03</rscale>
<asrwt>0</asrwt>
<pdfrwt beam="2">  1        4 0.45204566E-01 0.13114750E+03</pdfrwt>
<pdfrwt beam="1">  1       -4 0.19372783E-01 0.13114750E+03</pdfrwt>
<totfact> 0.18897346E+02</totfact>
</mgrwt>
</event>
<event>
 6    4  0.2271823E-003  0.1308989E+03  0.7818608E-02  0.1226128E+00
         -4   -1    0    0    0  501 -0.00000000000E+00  0.00000000000E+00  0.80078513327E+02  0.80088583435E+02  0.12700000000E+01 0.  1.
          4   -1    0    0  502    0  0.00000000000E+00 -0.00000000000E+00 -0.90243060000E+02  0.90251995978E+02  0.12700000000E+01 0.  1.
         25    2    1    2    0    0 -0.38440667397E+02  0.55980909831E+01 -0.12023963876E+02  0.13144995117E+03  0.12500196168E+03 0.  0.
    9000005    1    3    3    0    0 -0.72962135208E+02  0.20703780297E+02  0.23751097834E+02  0.79481031328E+02  0.10000000000E+01 0.  0.
    9000005    1    3    3    0    0  0.34521467811E+02 -0.15105689314E+02 -0.35775061711E+02  0.51968919845E+02  0.10000000000E+01 0.  0.
         21    1    1    2  502  501  0.38440667397E+02 -0.55980909831E+01  0.18594172040E+01  0.38890628240E+02  0.00000000000E+00 0.  1.
<mgrwt>
<rscale>  1 0.13089887E+03</rscale>
<asrwt>0</asrwt>
<pdfrwt beam="2">  1        4 0.13885010E-01 0.13089887E+03</pdfrwt>
<pdfrwt beam="1">  1       -4 0.12321233E-01 0.13089887E+03</pdfrwt>
<totfact> 0.37160575E+03</totfact>
</mgrwt>
</event>
<event>
 6    4  0.2271823E-003  0.1268111E+03  0.7818608E-02  0.1232266E+00
          4   -1    0    0  502    0  0.00000000000E+00  0.00000000000E+00  0.58241715635E+02  0.58255560594E+02  0.12700000000E+01 0.  1.
         -4   -1    0    0    0  501 -0.00000000000E+00 -0.00000000000E+00 -0.15579693920E+03  0.15580211540E+03  0.12700000000E+01 0.  1.
         25    2    1    2    0    0 -0.12133963597E+02 -0.17548803422E+02 -0.13721073103E+02  0.12755126954E+03  0.12500345971E+03 0.  0.
    9000005    1    3    3    0    0  0.50683710476E+02 -0.34549807862E+02 -0.17390228906E+01  0.61372240724E+02  0.10000000000E+01 0.  0.
    9000005    1    3    3    0    0 -0.62817674073E+02  0.17001004441E+02 -0.11982050212E+02  0.66179028817E+02  0.10000000000E+01 0.  0.
         21    1    1    2  502  501  0.12133963597E+02  0.17548803422E+02 -0.83834150460E+02  0.86506406453E+02  0.00000000000E+00 0.  1.
<mgrwt>
<rscale>  1 0.12681111E+03</rscale>
<asrwt>0</asrwt>
<pdfrwt beam="1">  1        4 0.89617272E-02 0.12681111E+03</pdfrwt>
<pdfrwt beam="2">  1       -4 0.23970223E-01 0.12681111E+03</pdfrwt>
<totfact> 0.23892383E+03</totfact>
</mgrwt>
</event>
<event>
 6    4  0.2271823E-003  0.1276256E+03  0.7818608E-02  0.1231022E+00
         -4   -1    0    0    0  501 -0.00000000000E+00  0.00000000000E+00  0.14735850315E+03  0.14736397575E+03  0.12700000000E+01 0. -1.
          4   -1    0    0  502    0  0.00000000000E+00 -0.00000000000E+00 -0.41151408219E+02  0.41171000697E+02  0.12700000000E+01 0. -1.
         25    2    1    2    0    0  0.23515367059E+02  0.10479265758E+02  0.74820462871E+02  0.14794054123E+03  0.12500205829E+03 0.  0.
    9000005    1    3    3    0    0  0.41549061840E+02  0.46907704336E+02  0.85398330189E+02  0.10592701291E+03  0.10000000000E+01 0.  0.
    9000005    1    3    3    0    0 -0.18033694781E+02 -0.36428438578E+02 -0.10577867318E+02  0.42013528318E+02  0.10000000000E+01 0.  0.
         21    1    1    2  502  501 -0.23515367059E+02 -0.10479265758E+02  0.31386632058E+02  0.40594435218E+02  0.00000000000E+00 0. -1.
<mgrwt>
<rscale>  1 0.12762563E+03</rscale>
<asrwt>0</asrwt>
<pdfrwt beam="2">  1        4 0.63329139E-02 0.12762563E+03</pdfrwt>
<pdfrwt beam="1">  1       -4 0.22672467E-01 0.12762563E+03</pdfrwt>
<totfact> 0.46945756E+03</totfact>
</mgrwt>
</event>
<event>
 6    4  0.2271823E-003  0.1680611E+03  0.7818608E-02  0.1179885E+00
         -4   -1    0    0    0  501 -0.00000000000E+00  0.00000000000E+00  0.56040754441E+02  0.56055143014E+02  0.12700000000E+01 0.  1.
          4   -1    0    0  502    0  0.00000000000E+00 -0.00000000000E+00 -0.54576321822E+03  0.54576469587E+03  0.12700000000E+01 0.  1.
         25    2    1    2    0    0  0.10653841541E+03 -0.35627591913E+02 -0.45373359091E+03  0.48385815767E+03  0.12499914386E+03 0.  0.
    9000005    1    3    3    0    0  0.44231410876E+02 -0.52404273550E+01 -0.28228655799E+02  0.52742172834E+02  0.10000000000E+01 0.  0.
    9000005    1    3    3    0    0  0.62307004537E+02 -0.30387164558E+02 -0.42550493511E+03  0.43111598484E+03  0.10000000000E+01 0.  0.
         21    1    1    2  502  501 -0.10653841541E+03  0.35627591913E+02 -0.35988872873E+02  0.11796168121E+03  0.00000000000E+00 0.  1.
<mgrwt>
<rscale>  1 0.16806114E+03</rscale>
<asrwt>0</asrwt>
<pdfrwt beam="2">  1        4 0.83964789E-01 0.16806114E+03</pdfrwt>
<pdfrwt beam="1">  1       -4 0.86228754E-02 0.16806114E+03</pdfrwt>
<totfact> 0.21512321E+02</totfact>
</mgrwt>
</event>
<event>
 6    4  0.2271823E-003  0.1311089E+03  0.7818608E-02  0.1225820E+00
          4   -1    0    0  502    0  0.00000000000E+00  0.00000000000E+00  0.29761254211E+02  0.29788339198E+02  0.12700000000E+01 0. -1.
         -4   -1    0    0    0  501 -0.00000000000E+00 -0.00000000000E+00 -0.27027557481E+03  0.27027855860E+03  0.12700000000E+01 0. -1.
         25    2    1    2    0    0  0.26419590362E+01 -0.39479364701E+02 -0.13882131337E+03  0.19094738578E+03  0.12499578755E+03 0.  0.
    9000005    1    3    3    0    0  0.29240548400E+02  0.36823577865E+02 -0.31513390250E+02  0.56613419986E+02  0.10000000000E+01 0.  0.
    9000005    1    3    3    0    0 -0.26598589364E+02 -0.76302942566E+02 -0.10730792312E+03  0.13433396579E+03  0.10000000000E+01 0.  0.
         21    1    1    2  502  501 -0.26419590362E+01  0.39479364701E+02 -0.10169300723E+03  0.10911951202E+03  0.00000000000E+00 0. -1.
<mgrwt>
<rscale>  1 0.13110891E+03</rscale>
<asrwt>0</asrwt>
<pdfrwt beam="1">  1        4 0.45809677E-02 0.13110891E+03</pdfrwt>
<pdfrwt beam="2">  1       -4 0.41583169E-01 0.13110891E+03</pdfrwt>
<totfact> 0.25231834E+03</totfact>
</mgrwt>
</event>
<event>
 6    4  0.2271823E-003  0.1742748E+03  0.7818608E-02  0.1173462E+00
          4   -1    0    0  502    0  0.00000000000E+00  0.00000000000E+00  0.99835569792E+02  0.99843647247E+02  0.12700000000E+01 0.  1.
         -4   -1    0    0    0  501 -0.00000000000E+00 -0.00000000000E+00 -0.25172639560E+03  0.25172959926E+03  0.12700000000E+01 0.  1.
         25    2    1    2    0    0 -0.12127923732E+03 -0.61496933586E+01 -0.25208493656E+02  0.17608853089E+03  0.12500092170E+03 0.  0.
    9000005    1    3    3    0    0 -0.70104996617E+01 -0.23300798360E+02  0.37426115162E+02  0.44651857810E+02  0.10000000000E+01 0.  0.
    9000005    1    3    3    0    0 -0.11426873766E+03  0.17151105002E+02 -0.62634608818E+02  0.13143667308E+03  0.10000000000E+01 0.  0.
         21    1    1    2  502  501  0.12127923732E+03  0.61496933586E+01 -0.12668233215E+03  0.17548471561E+03  0.00000000000E+00 0.  1.
<mgrwt>
<rscale>  1 0.17427479E+03</rscale>
<asrwt>0</asrwt>
<pdfrwt beam="1">  1        4 0.15360186E-01 0.17427479E+03</pdfrwt>
<pdfrwt beam="2">  1       -4 0.38728005E-01 0.17427479E+03</pdfrwt>
<totfact> 0.40745628E+02</totfact>
</mgrwt>
</event>
<event>
 6    4  0.2271823E-003  0.1327698E+03  0.7818608E-02  0.1223403E+00
          4   -1    0    0  502    0  0.00000000000E+00  0.00000000000E+00  0.14307316778E+03  0.14307880430E+03  0.12700000000E+01 0.  1.
         -4   -1    0    0    0  501 -0.00000000000E+00 -0.00000000000E+00 -0.70525906854E+02  0.70537340733E+02  0.12700000000E+01 0.  1.
         25    2    1    2    0    0  0.33812530653E+02 -0.29215134058E+02  0.95338292637E+02  0.16345398386E+03  0.12502401173E+03 0.  0.
    9000005    1    3    3    0    0 -0.80025053321E+01 -0.63031661514E+02  0.12620825396E+02  0.64786693684E+02  0.10000000000E+01 0.  0.
    9000005    1    3    3    0    0  0.41815035985E+02  0.33816527456E+02  0.82717467242E+02  0.98667290175E+02  0.10000000000E+01 0.  0.
         21    1    1    2  502  501 -0.33812530653E+02  0.29215134058E+02 -0.22791031708E+02  0.50162161172E+02  0.00000000000E+00 0.  1.
<mgrwt>
<rscale>  1 0.13276978E+03</rscale>
<asrwt>0</asrwt>
<pdfrwt beam="1">  1        4 0.22012569E-01 0.13276978E+03</pdfrwt>
<pdfrwt beam="2">  1       -4 0.10851453E-01 0.13276978E+03</pdfrwt>
<totfact> 0.20452606E+03</totfact>
</mgrwt>
</event>
<event>
 6    4  0.2271823E-003  0.1404319E+03  0.7818608E-02  0.1212749E+00
         -4   -1    0    0    0  501 -0.00000000000E+00  0.00000000000E+00  0.94942597273E+01  0.95788239241E+01  0.12700000000E+01 0. -1.
          4   -1    0    0  502    0  0.00000000000E+00 -0.00000000000E+00 -0.11323121602E+04  0.11323128724E+04  0.12700000000E+01 0. -1.
         25    2    1    2    0    0 -0.59529740058E+02  0.23531824081E+02 -0.86002431872E+03  0.87141433443E+03  0.12499430691E+03 0.  0.
    9000005    1    3    3    0    0 -0.19702382980E+02  0.36260362743E+02 -0.78024974258E+03  0.78134093621E+03  0.10000000000E+01 0.  0.
    9000005    1    3    3    0    0 -0.39827357078E+02 -0.12728538663E+02 -0.79774576142E+02  0.90073398220E+02  0.10000000000E+01 0.  0.
         21    1    1    2  502  501  0.59529740058E+02 -0.23531824081E+02 -0.26279358175E+03  0.27047736191E+03  0.00000000000E+00 0. -1.
<mgrwt>
<rscale>  1 0.14043188E+03</rscale>
<asrwt>0</asrwt>
<pdfrwt beam="2">  1        4 0.17420832E+00 0.14043188E+03</pdfrwt>
<pdfrwt beam="1">  1       -4 0.14672160E-02 0.14043188E+03</pdfrwt>
<totfact> 0.58913260E+02</totfact>
</mgrwt>
</event>
<event>
 6    4  0.2271823E-003  0.1362514E+03  0.7818608E-02  0.1218464E+00
         -4   -1    0    0    0  501 -0.00000000000E+00  0.00000000000E+00  0.53670418198E+02  0.53685442064E+02  0.12700000000E+01 0.  1.
          4   -1    0    0  502    0  0.00000000000E+00 -0.00000000000E+00 -0.17209510226E+03  0.17209978826E+03  0.12700000000E+01 0.  1.
         25    2    1    2    0    0 -0.51850743127E+02  0.15810833208E+02 -0.98097719616E+02  0.16789164266E+03  0.12500383623E+03 0.  0.
    9000005    1    3    3    0    0 -0.93625505701E+01 -0.38278730611E+02  0.91604367516E+01  0.40470139262E+02  0.10000000000E+01 0.  0.
    9000005    1    3    3    0    0 -0.42488192557E+02  0.54089563820E+02 -0.10725815637E+03  0.12742150340E+03  0.10000000000E+01 0.  0.
         21    1    1    2  502  501  0.51850743127E+02 -0.15810833208E+02 -0.20326964441E+02  0.57893587667E+02  0.00000000000E+00 0.  1.
<mgrwt>
<rscale>  1 0.13625139E+03</rscale>
<asrwt>0</asrwt>
<pdfrwt beam="2">  1        4 0.26477685E-01 0.13625139E+03</pdfrwt>
<pdfrwt beam="1">  1       -4 0.82585037E-02 0.13625139E+03</pdfrwt>
<totfact> 0.23160141E+03</totfact>
</mgrwt>
</event>
<event>
 6    4  0.2271823E-003  0.1280830E+03  0.7818608E-02  0.1230328E+00
          4   -1    0    0  502    0  0.00000000000E+00  0.00000000000E+00  0.25573419065E+03  0.25573734410E+03  0.12700000000E+01 0.  1.
         -4   -1    0    0    0  501 -0.00000000000E+00 -0.00000000000E+00 -0.37522501880E+02  0.37543988165E+02  0.12700000000E+01 0.  1.
         25    2    1    2    0    0 -0.27667273601E+02 -0.39904279287E+01  0.22974965146E+03  0.26304019924E+03  0.12499537003E+03 0.  0.
    9000005    1    3    3    0    0 -0.21810887164E+02 -0.48708515829E+02  0.20448314588E+03  0.21133525797E+03  0.10000000000E+01 0.  0.
    9000005    1    3    3    0    0 -0.58563864371E+01  0.44718087900E+02  0.25266505578E+02  0.51704941270E+02  0.10000000000E+01 0.  0.
         21    1    1    2  502  501  0.27667273601E+02  0.39904279287E+01 -0.11537962688E+02  0.30241133024E+02  0.00000000000E+00 0.  1.
<mgrwt>
<rscale>  1 0.12808296E+03</rscale>
<asrwt>0</asrwt>
<pdfrwt beam="1">  1        4 0.39345618E-01 0.12808296E+03</pdfrwt>
<pdfrwt beam="2">  1       -4 0.57745879E-02 0.12808296E+03</pdfrwt>
<totfact> 0.19279140E+03</totfact>
</mgrwt>
</event>
<event>
 6    4  0.2271823E-003  0.1351687E+03  0.7818608E-02  0.1219982E+00
         -4   -1    0    0    0  501 -0.00000000000E+00  0.00000000000E+00  0.18419636058E+03  0.18420073873E+03  0.12700000000E+01 0.  1.
          4   -1    0    0  502    0  0.00000000000E+00 -0.00000000000E+00 -0.47247958246E+02  0.47265023626E+02  0.12700000000E+01 0.  1.
         25    2    1    2    0    0  0.19939222091E+01 -0.51396629876E+02  0.98820521416E+02  0.16743979426E+03  0.12499999984E+03 0.  0.
    9000005    1    3    3    0    0  0.14416922381E+02 -0.84272514256E+02  0.30820056586E+02  0.90887734035E+02  0.10000000000E+01 0.  0.
    9000005    1    3    3    0    0 -0.12423000172E+02  0.32875884380E+02  0.68000464830E+02  0.76552060222E+02  0.10000000000E+01 0.  0.
         21    1    1    2  502  501 -0.19939222091E+01  0.51396629876E+02  0.38127880916E+02  0.64025968103E+02  0.00000000000E+00 0.  1.
<mgrwt>
<rscale>  1 0.13516874E+03</rscale>
<asrwt>0</asrwt>
<pdfrwt beam="2">  1        4 0.72705662E-02 0.13516874E+03</pdfrwt>
<pdfrwt beam="1">  1       -4 0.28339551E-01 0.13516874E+03</pdfrwt>
<totfact> 0.25136840E+03</totfact>
</mgrwt>
</event>
<event>
 6    4  0.2271823E-003  0.1393366E+03  0.7818608E-02  0.1214224E+00
          4   -1    0    0  502    0  0.00000000000E+00  0.00000000000E+00  0.15187286483E+03  0.15187817477E+03  0.12700000000E+01 0. -1.
         -4   -1    0    0    0  501 -0.00000000000E+00 -0.00000000000E+00 -0.10089627034E+03  0.10090426288E+03  0.12700000000E+01 0. -1.
         25    2    1    2    0    0 -0.59024616529E+02  0.17495889316E+02  0.10211614070E+03  0.17274954013E+03  0.12499874370E+03 0.  0.
    9000005    1    3    3    0    0  0.23321880042E+02  0.32460652744E+02  0.74604344876E+02  0.84642851675E+02  0.10000000000E+01 0.  0.
    9000005    1    3    3    0    0 -0.82346496571E+02 -0.14964763428E+02  0.27511795819E+02  0.88106688459E+02  0.10000000000E+01 0.  0.
         21    1    1    2  502  501  0.59024616529E+02 -0.17495889316E+02 -0.51139546205E+02  0.80032897520E+02  0.00000000000E+00 0. -1.
<mgrwt>
<rscale>  1 0.13933663E+03</rscale>
<asrwt>0</asrwt>
<pdfrwt beam="1">  1        4 0.23366079E-01 0.13933663E+03</pdfrwt>
<pdfrwt beam="2">  1       -4 0.15523526E-01 0.13933663E+03</pdfrwt>
<totfact> 0.99995123E+02</totfact>
</mgrwt>
</event>
<event>
 6    4  0.2271823E-003  0.1265970E+03  0.7818608E-02  0.1232594E+00
          4   -1    0    0  502    0  0.00000000000E+00  0.00000000000E+00  0.13611619041E+03  0.13612211499E+03  0.12700000000E+01 0. -1.
         -4   -1    0    0    0  501 -0.00000000000E+00 -0.00000000000E+00 -0.40202499581E+02  0.40222554277E+02  0.12700000000E+01 0. -1.
         25    2    1    2    0    0 -0.12344035953E+02 -0.15836509827E+02  0.90279328401E+02  0.15549002214E+03  0.12499447820E+03 0.  0.
    9000005    1    3    3    0    0 -0.66352586276E+01  0.54947942790E+02  0.44104601778E+02  0.70777955410E+02  0.10000000000E+01 0.  0.
    9000005    1    3    3    0    0 -0.57087773251E+01 -0.70784452617E+02  0.46174726622E+02  0.84712066729E+02  0.10000000000E+01 0.  0.
         21    1    1    2  502  501  0.12344035953E+02  0.15836509827E+02  0.56343624248E+01  0.20854647133E+02  0.00000000000E+00 0. -1.
<mgrwt>
<rscale>  1 0.12659696E+03</rscale>
<asrwt>0</asrwt>
<pdfrwt beam="1">  1        4 0.20942951E-01 0.12659696E+03</pdfrwt>
<pdfrwt beam="2">  1       -4 0.61869983E-02 0.12659696E+03</pdfrwt>
<totfact> 0.56194531E+03</totfact>
</mgrwt>
</event>
<event>
 6    4  0.2271823E-003  0.1281994E+03  0.7818608E-02  0.1230152E+00
          4   -1    0    0  502    0  0.00000000000E+00  0.00000000000E+00  0.16845437708E+03  0.16845916437E+03  0.12700000000E+01 0. -1.
         -4   -1    0    0    0  501 -0.00000000000E+00 -0.00000000000E+00 -0.39610324012E+02  0.39630678374E+02  0.12700000000E+01 0. -1.
         25    2    1    2    0    0  0.17631998321E+02 -0.22347689715E+02  0.12554367833E+03  0.17943327152E+03  0.12499910864E+03 0.  0.
    9000005    1    3    3    0    0  0.22989063943E+02 -0.70559904985E+02  0.49433562678E+02  0.89173282834E+02  0.10000000000E+01 0.  0.
    9000005    1    3    3    0    0 -0.53570656220E+01  0.48212215270E+02  0.76110115655E+02  0.90259988690E+02  0.10000000000E+01 0.  0.
         21    1    1    2  502  501 -0.17631998321E+02  0.22347689715E+02  0.33003747385E+01  0.28656571215E+02  0.00000000000E+00 0. -1.
<mgrwt>
<rscale>  1 0.12819939E+03</rscale>
<asrwt>0</asrwt>
<pdfrwt beam="1">  1        4 0.25917992E-01 0.12819939E+03</pdfrwt>
<pdfrwt beam="2">  1       -4 0.60958301E-02 0.12819939E+03</pdfrwt>
<totfact> 0.39111322E+03</totfact>
</mgrwt>
</event>
<event>
 6    4  0.2271823E-003  0.1421041E+03  0.7818608E-02  0.1210525E+00
          4   -1    0    0  502    0  0.00000000000E+00  0.00000000000E+00  0.23169245686E+03  0.23169593752E+03  0.12700000000E+01 0.  1.
         -4   -1    0    0    0  501 -0.00000000000E+00 -0.00000000000E+00 -0.58156726813E+02  0.58170592000E+02  0.12700000000E+01 0.  1.
         25    2    1    2    0    0 -0.63408457045E+02  0.23406621296E+02  0.17084854479E+03  0.22222243658E+03  0.12500033487E+03 0.  0.
    9000005    1    3    3    0    0 -0.69636161488E+02  0.38484045486E+02  0.18450061402E+03  0.20092708458E+03  0.10000000000E+01 0.  0.
    9000005    1    3    3    0    0  0.62277044426E+01 -0.15077424190E+02 -0.13652069226E+02  0.21295352004E+02  0.10000000000E+01 0.  0.
         21    1    1    2  502  501  0.63408457045E+02 -0.23406621296E+02  0.26871852532E+01  0.67644092942E+02  0.00000000000E+00 0.  1.
<mgrwt>
<rscale>  1 0.14210414E+03</rscale>
<asrwt>0</asrwt>
<pdfrwt beam="1">  1        4 0.35646328E-01 0.14210414E+03</pdfrwt>
<pdfrwt beam="2">  1       -4 0.89485229E-02 0.14210414E+03</pdfrwt>
<totfact> 0.11630542E+03</totfact>
</mgrwt>
</event>
<event>
 6    4  0.2271823E-003  0.1272389E+03  0.7818608E-02  0.1231611E+00
          4   -1    0    0  502    0  0.00000000000E+00  0.00000000000E+00  0.28936131983E+04  0.28936134770E+04  0.12700000000E+01 0.  1.
         -4   -1    0    0    0  501 -0.00000000000E+00 -0.00000000000E+00 -0.39509277200E+01  0.41500276925E+01  0.12700000000E+01 0.  1.
         25    2    1    2    0    0  0.20538154638E+02  0.11900876302E+02  0.28386362947E+04  0.28414865390E+04  0.12500516427E+03 0.  0.
    9000005    1    3    3    0    0  0.26372283964E+02  0.39772505943E+02  0.42337863025E+03  0.42606081038E+03  0.10000000000E+01 0.  0.
    9000005    1    3    3    0    0 -0.58341293261E+01 -0.27871629641E+02  0.24152576644E+04  0.24154257286E+04  0.10000000000E+01 0.  0.
         21    1    1    2  502  501 -0.20538154638E+02 -0.11900876302E+02  0.51025975879E+02  0.56276965689E+02  0.00000000000E+00 0.  1.
<mgrwt>
<rscale>  1 0.12723890E+03</rscale>
<asrwt>0</asrwt>
<pdfrwt beam="1">  1        4 0.44518748E+00 0.12723890E+03</pdfrwt>
<pdfrwt beam="2">  1       -4 0.62317062E-03 0.12723890E+03</pdfrwt>
<totfact> 0.45104178E+01</totfact>
</mgrwt>
</event>
<event>
 6    4  0.2271823E-003  0.1356584E+03  0.7818608E-02  0.1219293E+00
          4   -1    0    0  502    0  0.00000000000E+00  0.00000000000E+00  0.13006452991E+03  0.13007073015E+03  0.12700000000E+01 0. -1.
         -4   -1    0    0    0  501 -0.00000000000E+00 -0.00000000000E+00 -0.10615902683E+03  0.10616662318E+03  0.12700000000E+01 0. -1.
         25    2    1    2    0    0  0.40705111696E+02 -0.33492999946E+02  0.81423398942E+02  0.15821815372E+03  0.12499810842E+03 0.  0.
    9000005    1    3    3    0    0 -0.23836269279E+02 -0.37193317812E+02 -0.10895131021E+02  0.45510597699E+02  0.10000000000E+01 0.  0.
    9000005    1    3    3    0    0  0.64541380975E+02  0.37003178662E+01  0.92318529963E+02  0.11270755602E+03  0.10000000000E+01 0.  0.
         21    1    1    2  502  501 -0.40705111696E+02  0.33492999946E+02 -0.57517895858E+02  0.78019199608E+02  0.00000000000E+00 0. -1.
<mgrwt>
<rscale>  1 0.13565845E+03</rscale>
<asrwt>0</asrwt>
<pdfrwt beam="1">  1        4 0.20010989E-01 0.13565845E+03</pdfrwt>
<pdfrwt beam="2">  1       -4 0.16333219E-01 0.13565845E+03</pdfrwt>
<totfact> 0.12050227E+03</totfact>
</mgrwt>
</event>
<event>
 6    4  0.2271823E-003  0.1325792E+03  0.7818608E-02  0.1223678E+00
         -4   -1    0    0    0  501 -0.00000000000E+00  0.00000000000E+00  0.23549899958E+02  0.23584119403E+02  0.12700000000E+01 0. -1.
          4   -1    0    0  502    0  0.00000000000E+00 -0.00000000000E+00 -0.38610993139E+03  0.38611202004E+03  0.12700000000E+01 0. -1.
         25    2    1    2    0    0 -0.22224665958E+02  0.38043753281E+02 -0.32773366120E+03  0.35353441756E+03  0.12504386742E+03 0.  0.
    9000005    1    3    3    0    0 -0.50986172974E+02  0.70152143557E+02 -0.18294487068E+03  0.20246169709E+03  0.10000000000E+01 0.  0.
    9000005    1    3    3    0    0  0.28761507015E+02 -0.32108390276E+02 -0.14478879052E+03  0.15107272047E+03  0.10000000000E+01 0.  0.
         21    1    1    2  502  501  0.22224665958E+02 -0.38043753281E+02 -0.34826370235E+02  0.56161721878E+02  0.00000000000E+00 0.  1.
<mgrwt>
<rscale>  1 0.13257915E+03</rscale>
<asrwt>0</asrwt>
<pdfrwt beam="2">  1        4 0.59404316E-01 0.13257915E+03</pdfrwt>
<pdfrwt beam="1">  1       -4 0.36258547E-02 0.13257915E+03</pdfrwt>
<totfact> 0.17752200E+03</totfact>
</mgrwt>
</event>
<event>
 6    4  0.2271823E-003  0.1282808E+03  0.7818608E-02  0.1230029E+00
         -4   -1    0    0    0  501 -0.00000000000E+00  0.00000000000E+00  0.75814223135E+03  0.75814329507E+03  0.12700000000E+01 0. -1.
          4   -1    0    0  502    0  0.00000000000E+00 -0.00000000000E+00 -0.12057597103E+02  0.12124295769E+02  0.12700000000E+01 0. -1.
         25    2    1    2    0    0  0.17870347750E+02 -0.22610436341E+02  0.34381529629E+03  0.36696720474E+03  0.12500156093E+03 0.  0.
    9000005    1    3    3    0    0 -0.29798866089E+02 -0.45466363607E+02  0.72913211206E+02  0.90953279260E+02  0.10000000000E+01 0.  0.
    9000005    1    3    3    0    0  0.47669213838E+02  0.22855927266E+02  0.27090208508E+03  0.27601392548E+03  0.10000000000E+01 0.  0.
         21    1    1    2  502  501 -0.17870347750E+02  0.22610436341E+02  0.40226933796E+03  0.40330038610E+03  0.00000000000E+00 0. -1.
<mgrwt>
<rscale>  1 0.12828083E+03</rscale>
<asrwt>0</asrwt>
<pdfrwt beam="2">  1        4 0.18602277E-02 0.12828083E+03</pdfrwt>
<pdfrwt beam="1">  1       -4 0.11664246E+00 0.12828083E+03</pdfrwt>
<totfact> 0.11054614E+03</totfact>
</mgrwt>
</event>
<event>
 6    4  0.2271823E-003  0.1276454E+03  0.7818608E-02  0.1230992E+00
          4   -1    0    0  502    0  0.00000000000E+00  0.00000000000E+00  0.33916049415E+03  0.33916287192E+03  0.12700000000E+01 0.  1.
         -4   -1    0    0    0  501 -0.00000000000E+00 -0.00000000000E+00 -0.17368419719E+02  0.17414789793E+02  0.12700000000E+01 0.  1.
         25    2    1    2    0    0  0.97752861344E+01 -0.23942478479E+02  0.26241774851E+03  0.29181572017E+03  0.12499816522E+03 0.  0.
    9000005    1    3    3    0    0  0.56578778491E+02 -0.27157001071E+02  0.21924327150E+03  0.22805103153E+03  0.10000000000E+01 0.  0.
    9000005    1    3    3    0    0 -0.46803492357E+02  0.32145225922E+01  0.43174477009E+02  0.63764688640E+02  0.10000000000E+01 0.  0.
         21    1    1    2  502  501 -0.97752861344E+01  0.23942478479E+02  0.59374325913E+02  0.64761941543E+02  0.00000000000E+00 0. -1.
<mgrwt>
<rscale>  1 0.12764537E+03</rscale>
<asrwt>0</asrwt>
<pdfrwt beam="1">  1        4 0.52182279E-01 0.12764537E+03</pdfrwt>
<pdfrwt beam="2">  1       -4 0.26758148E-02 0.12764537E+03</pdfrwt>
<totfact> 0.37056447E+03</totfact>
</mgrwt>
</event>
<event>
 6    4  0.2271823E-003  0.1272534E+03  0.7818608E-02  0.1231589E+00
          4   -1    0    0  502    0  0.00000000000E+00  0.00000000000E+00  0.16574682840E+03  0.16575169388E+03  0.12700000000E+01 0. -1.
         -4   -1    0    0    0  501 -0.00000000000E+00 -0.00000000000E+00 -0.46093579342E+02  0.46111071952E+02  0.12700000000E+01 0. -1.
         25    2    1    2    0    0 -0.10270272681E+02  0.21522728075E+02  0.13338020211E+03  0.18434666937E+03  0.12499883946E+03 0.  0.
    9000005    1    3    3    0    0  0.36822410535E+01 -0.20205925288E+02 -0.17609989850E+02  0.27073050409E+02  0.10000000000E+01 0.  0.
    9000005    1    3    3    0    0 -0.13952513735E+02  0.41728653363E+02  0.15099019196E+03  0.15727361896E+03  0.10000000000E+01 0.  0.
         21    1    1    2  502  501  0.10270272681E+02 -0.21522728075E+02 -0.13726953053E+02  0.27516096468E+02  0.00000000000E+00 0. -1.
<mgrwt>
<rscale>  1 0.12725335E+03</rscale>
<asrwt>0</asrwt>
<pdfrwt beam="1">  1        4 0.25501232E-01 0.12725335E+03</pdfrwt>
<pdfrwt beam="2">  1       -4 0.70930398E-02 0.12725335E+03</pdfrwt>
<totfact> 0.31412481E+03</totfact>
</mgrwt>
</event>
<event>
 6    4  0.2271823E-003  0.1276115E+03  0.7818608E-02  0.1231043E+00
          4   -1    0    0  502    0  0.00000000000E+00  0.00000000000E+00  0.32863892149E+03  0.32864137539E+03  0.12700000000E+01 0.  1.
         -4   -1    0    0    0  501 -0.00000000000E+00 -0.00000000000E+00 -0.19929461650E+02  0.19969885870E+02  0.12700000000E+01 0.  1.
         25    2    1    2    0    0  0.10374001514E+02 -0.23498888563E+02  0.28999234725E+03  0.31682843611E+03  0.12499951516E+03 0.  0.
    9000005    1    3    3    0    0 -0.98636358313E+01 -0.40147261772E+02  0.20668328082E+02  0.46230657851E+02  0.10000000000E+01 0.  0.
    9000005    1    3    3    0    0  0.20237637345E+02  0.16648373210E+02  0.26932401917E+03  0.27059777826E+03  0.10000000000E+01 0.  0.
         21    1    1    2  502  501 -0.10374001514E+02  0.23498888563E+02  0.18717112592E+02  0.31782825155E+02  0.00000000000E+00 0. -1.
<mgrwt>
<rscale>  1 0.12761151E+03</rscale>
<asrwt>0</asrwt>
<pdfrwt beam="1">  1        4 0.50563130E-01 0.12761151E+03</pdfrwt>
<pdfrwt beam="2">  1       -4 0.30693695E-02 0.12761151E+03</pdfrwt>
<totfact> 0.31898207E+03</totfact>
</mgrwt>
</event>
<event>
 6    4  0.2271823E-003  0.1493475E+03  0.7818608E-02  0.1201277E+00
         -4   -1    0    0    0  501 -0.00000000000E+00  0.00000000000E+00  0.68889415577E+03  0.68889532641E+03  0.12700000000E+01 0.  1.
          4   -1    0    0  502    0  0.00000000000E+00 -0.00000000000E+00 -0.36397610887E+02  0.36419760822E+02  0.12700000000E+01 0.  1.
         25    2    1    2    0    0  0.79942152318E+02 -0.17007590695E+02  0.13473446795E+03  0.20114185807E+03  0.12499865742E+03 0.  0.
    9000005    1    3    3    0    0  0.63237195638E+00 -0.59306732160E+02  0.57831282249E+02  0.82844104077E+02  0.10000000000E+01 0.  0.
    9000005    1    3    3    0    0  0.79309780362E+02  0.42299141465E+02  0.76903185699E+02  0.11829775400E+03  0.10000000000E+01 0.  0.
         21    1    1    2  502  501 -0.79942152318E+02  0.17007590695E+02  0.51776207693E+03  0.52417322916E+03  0.00000000000E+00 0.  1.
<mgrwt>
<rscale>  1 0.14934748E+03</rscale>
<asrwt>0</asrwt>
<pdfrwt beam="2">  1        4 0.56014257E-02 0.14934748E+03</pdfrwt>
<pdfrwt beam="1">  1       -4 0.10598552E+00 0.14934748E+03</pdfrwt>
<totfact> 0.25163312E+02</totfact>
</mgrwt>
</event>
<event>
 6    4  0.2271823E-003  0.1270200E+03  0.7818608E-02  0.1231946E+00
         -4   -1    0    0    0  501 -0.00000000000E+00  0.00000000000E+00  0.29261725098E+01  0.31898880163E+01  0.12700000000E+01 0. -1.
          4   -1    0    0  502    0  0.00000000000E+00 -0.00000000000E+00 -0.19285182106E+04  0.19285186288E+04  0.12700000000E+01 0. -1.
         25    2    1    2    0    0 -0.17142826567E+02  0.14649570264E+02 -0.17615928231E+04  0.17661662898E+04  0.12500240908E+03 0.  0.
    9000005    1    3    3    0    0  0.36990012465E+02  0.11022380745E+02 -0.20359235099E+03  0.20722113619E+03  0.10000000000E+01 0.  0.
    9000005    1    3    3    0    0 -0.54132839032E+02  0.36271895189E+01 -0.15580004721E+04  0.15589451536E+04  0.10000000000E+01 0.  0.
         21    1    1    2  502  501  0.17142826567E+02 -0.14649570264E+02 -0.16399921498E+03  0.16554222701E+03  0.00000000000E+00 0. -1.
<mgrwt>
<rscale>  1 0.12702003E+03</rscale>
<asrwt>0</asrwt>
<pdfrwt beam="2">  1        4 0.29671446E+00 0.12702003E+03</pdfrwt>
<pdfrwt beam="1">  1       -4 0.47049990E-03 0.12702003E+03</pdfrwt>
<totfact> 0.59111409E+02</totfact>
</mgrwt>
</event>
<event>
 6    4  0.2271823E-003  0.1271982E+03  0.7818608E-02  0.1231673E+00
          4   -1    0    0  502    0  0.00000000000E+00  0.00000000000E+00  0.41084394217E+01  0.43002528393E+01  0.12700000000E+01 0.  1.
         -4   -1    0    0    0  501 -0.00000000000E+00 -0.00000000000E+00 -0.13505298298E+04  0.13505304270E+04  0.12700000000E+01 0.  1.
         25    2    1    2    0    0  0.68735562309E+01  0.22448407436E+02 -0.11248168723E+04  0.11319860271E+04  0.12501277006E+03 0.  0.
    9000005    1    3    3    0    0  0.94239798620E+01  0.68066860228E+02 -0.89710663499E+03  0.89973508512E+03  0.10000000000E+01 0.  0.
    9000005    1    3    3    0    0 -0.25504236311E+01 -0.45618452792E+02 -0.22771023727E+03  0.23225094199E+03  0.10000000000E+01 0.  0.
         21    1    1    2  502  501 -0.68735562309E+01 -0.22448407436E+02 -0.22160451815E+03  0.22284465270E+03  0.00000000000E+00 0. -1.
<mgrwt>
<rscale>  1 0.12719815E+03</rscale>
<asrwt>0</asrwt>
<pdfrwt beam="1">  1        4 0.64686949E-03 0.12719815E+03</pdfrwt>
<pdfrwt beam="2">  1       -4 0.20778827E+00 0.12719815E+03</pdfrwt>
<totfact> 0.12117176E+03</totfact>
</mgrwt>
</event>
<event>
 6    4  0.2271823E-003  0.1266490E+03  0.7818608E-02  0.1232514E+00
          4   -1    0    0  502    0  0.00000000000E+00  0.00000000000E+00  0.49080299300E+02  0.49096727787E+02  0.12700000000E+01 0.  1.
         -4   -1    0    0    0  501 -0.00000000000E+00 -0.00000000000E+00 -0.11357453314E+03  0.11358163354E+03  0.12700000000E+01 0.  1.
         25    2    1    2    0    0 -0.87553245578E+01 -0.18328647163E+02 -0.44671470772E+02  0.13429637848E+03  0.12500952746E+03 0.  0.
    9000005    1    3    3    0    0  0.10577330332E+02  0.48909025574E+02 -0.40181441302E+02  0.64183494176E+02  0.10000000000E+01 0.  0.
    9000005    1    3    3    0    0 -0.19332654890E+02 -0.67237672737E+02 -0.44900294708E+01  0.70112884300E+02  0.10000000000E+01 0.  0.
         21    1    1    2  502  501  0.87553245578E+01  0.18328647163E+02 -0.19822763064E+02  0.28381982848E+02  0.00000000000E+00 0. -1.
<mgrwt>
<rscale>  1 0.12664903E+03</rscale>
<asrwt>0</asrwt>
<pdfrwt beam="1">  1        4 0.75526252E-02 0.12664903E+03</pdfrwt>
<pdfrwt beam="2">  1       -4 0.17474815E-01 0.12664903E+03</pdfrwt>
<totfact> 0.56043591E+03</totfact>
</mgrwt>
</event>
<event>
 6    4  0.2271823E-003  0.1306204E+03  0.7818608E-02  0.1226538E+00
         -4   -1    0    0    0  501 -0.00000000000E+00  0.00000000000E+00  0.68402727884E+03  0.68402845781E+03  0.12700000000E+01 0. -1.
          4   -1    0    0  502    0  0.00000000000E+00 -0.00000000000E+00 -0.10487712811E+02  0.10564327712E+02  0.12700000000E+01 0. -1.
         25    2    1    2    0    0  0.33151035105E+02 -0.18389591750E+02  0.48512345095E+03  0.50240069247E+03  0.12499809964E+03 0.  0.
    9000005    1    3    3    0    0  0.72496853704E+02 -0.72547382397E+01  0.41392174471E+03  0.42028637352E+03  0.10000000000E+01 0.  0.
    9000005    1    3    3    0    0 -0.39345818599E+02 -0.11134853510E+02  0.71201706243E+02  0.82114318945E+02  0.10000000000E+01 0.  0.
         21    1    1    2  502  501 -0.33151035105E+02  0.18389591750E+02  0.18841611507E+03  0.19219209305E+03  0.00000000000E+00 0. -1.
<mgrwt>
<rscale>  1 0.13062042E+03</rscale>
<asrwt>0</asrwt>
<pdfrwt beam="2">  1        4 0.16194782E-02 0.13062042E+03</pdfrwt>
<pdfrwt beam="1">  1       -4 0.10524096E+00 0.13062042E+03</pdfrwt>
<totfact> 0.17485256E+03</totfact>
</mgrwt>
</event>
<event>
 6    4  0.2271823E-003  0.1330311E+03  0.7818608E-02  0.1223026E+00
          4   -1    0    0  502    0  0.00000000000E+00  0.00000000000E+00  0.59597302500E+03  0.59597437817E+03  0.12700000000E+01 0. -1.
         -4   -1    0    0    0  501 -0.00000000000E+00 -0.00000000000E+00 -0.13427745419E+02  0.13487670186E+02  0.12700000000E+01 0. -1.
         25    2    1    2    0    0 -0.43391846875E+02  0.13780447152E+02  0.45420291193E+03  0.47328379593E+03  0.12499805271E+03 0.  0.
    9000005    1    3    3    0    0 -0.55213553514E+00  0.36736316026E+02  0.33340447902E+02  0.49623051449E+02  0.10000000000E+01 0.  0.
    9000005    1    3    3    0    0 -0.42839711340E+02 -0.22955868874E+02  0.42086246403E+03  0.42366074448E+03  0.10000000000E+01 0.  0.
         21    1    1    2  502  501  0.43391846875E+02 -0.13780447152E+02  0.12834236765E+03  0.13617825243E+03  0.00000000000E+00 0. -1.
<mgrwt>
<rscale>  1 0.13303107E+03</rscale>
<asrwt>0</asrwt>
<pdfrwt beam="1">  1        4 0.91692871E-01 0.13303107E+03</pdfrwt>
<pdfrwt beam="2">  1       -4 0.20705207E-02 0.13303107E+03</pdfrwt>
<totfact> 0.16537813E+03</totfact>
</mgrwt>
</event>
<event>
 6    4  0.2271823E-003  0.1273127E+03  0.7818608E-02  0.1231499E+00
         -4   -1    0    0    0  501 -0.00000000000E+00  0.00000000000E+00  0.23384527600E+03  0.23384872462E+03  0.12700000000E+01 0. -1.
          4   -1    0    0  502    0  0.00000000000E+00 -0.00000000000E+00 -0.40739361881E+02  0.40759152426E+02  0.12700000000E+01 0. -1.
         25    2    1    2    0    0  0.60589815554E+01  0.23363480070E+02  0.62566519031E+02  0.14185586340E+03  0.12500381281E+03 0.  0.
    9000005    1    3    3    0    0 -0.45084096151E+02 -0.12219942846E+02 -0.83402104021E+01  0.47460107864E+02  0.10000000000E+01 0.  0.
    9000005    1    3    3    0    0  0.51143077707E+02  0.35583422916E+02  0.70906729433E+02  0.94395755533E+02  0.10000000000E+01 0.  0.
         21    1    1    2  502  501 -0.60589815554E+01 -0.23363480070E+02  0.13053939508E+03  0.13275201365E+03  0.00000000000E+00 0. -1.
<mgrwt>
<rscale>  1 0.12731267E+03</rscale>
<asrwt>0</asrwt>
<pdfrwt beam="2">  1        4 0.62693817E-02 0.12731267E+03</pdfrwt>
<pdfrwt beam="1">  1       -4 0.35977984E-01 0.12731267E+03</pdfrwt>
<totfact> 0.20053937E+03</totfact>
</mgrwt>
</event>
<event>
 6    4  0.2271823E-003  0.1267792E+03  0.7818608E-02  0.1232315E+00
          4   -1    0    0  502    0  0.00000000000E+00  0.00000000000E+00  0.72429688042E+01  0.73534683721E+01  0.12700000000E+01 0.  1.
         -4   -1    0    0    0  501 -0.00000000000E+00 -0.00000000000E+00 -0.80907974706E+03  0.80908074381E+03  0.12700000000E+01 0.  1.
         25    2    1    2    0    0  0.17371205476E+02 -0.12076511115E+02 -0.58568032538E+03  0.59924486387E+03  0.12500144973E+03 0.  0.
    9000005    1    3    3    0    0  0.36122737670E+02  0.35584233864E+02 -0.11376663909E+03  0.12455897417E+03  0.10000000000E+01 0.  0.
    9000005    1    3    3    0    0 -0.18751532194E+02 -0.47660744978E+02 -0.47191368629E+03  0.47468588970E+03  0.10000000000E+01 0.  0.
         21    1    1    2  502  501 -0.17371205476E+02  0.12076511115E+02 -0.21615645287E+03  0.21718934831E+03  0.00000000000E+00 0.  1.
<mgrwt>
<rscale>  1 0.12677919E+03</rscale>
<asrwt>0</asrwt>
<pdfrwt beam="1">  1        4 0.11228802E-02 0.12677919E+03</pdfrwt>
<pdfrwt beam="2">  1       -4 0.12448231E+00 0.12677919E+03</pdfrwt>
<totfact> 0.20323514E+03</totfact>
</mgrwt>
</event>
<event>
 6    4  0.2271823E-003  0.1571422E+03  0.7818608E-02  0.1191962E+00
          4   -1    0    0  502    0  0.00000000000E+00  0.00000000000E+00  0.20760690041E+03  0.20761078488E+03  0.12700000000E+01 0. -1.
         -4   -1    0    0    0  501 -0.00000000000E+00 -0.00000000000E+00 -0.87602494651E+02  0.87611699955E+02  0.12700000000E+01 0. -1.
         25    2    1    2    0    0  0.23819366377E+02 -0.92205586616E+02  0.12359326969E+03  0.19992236751E+03  0.12499769718E+03 0.  0.
    9000005    1    3    3    0    0 -0.40042427430E+02  0.25579907587E+01  0.16796238817E+02  0.43509228327E+02  0.10000000000E+01 0.  0.
    9000005    1    3    3    0    0  0.63861793807E+02 -0.94763577375E+02  0.10679703087E+03  0.15641313918E+03  0.10000000000E+01 0.  0.
         21    1    1    2  502  501 -0.23819366377E+02  0.92205586616E+02 -0.35888639323E+01  0.95300117325E+02  0.00000000000E+00 0. -1.
<mgrwt>
<rscale>  1 0.15714215E+03</rscale>
<asrwt>0</asrwt>
<pdfrwt beam="1">  1        4 0.31940530E-01 0.15714215E+03</pdfrwt>
<pdfrwt beam="2">  1       -4 0.13478314E-01 0.15714215E+03</pdfrwt>
<totfact> 0.73014788E+02</totfact>
</mgrwt>
</event>
<event>
 6    4  0.2271823E-003  0.1274974E+03  0.7818608E-02  0.1231217E+00
          4   -1    0    0  502    0  0.00000000000E+00  0.00000000000E+00  0.35108001136E+02  0.35130964173E+02  0.12700000000E+01 0.  1.
         -4   -1    0    0    0  501 -0.00000000000E+00 -0.00000000000E+00 -0.31552605581E+03  0.31552861169E+03  0.12700000000E+01 0.  1.
         25    2    1    2    0    0 -0.92150294596E+01  0.23341812492E+02 -0.84082486268E+02  0.15272672765E+03  0.12500332742E+03 0.  0.
    9000005    1    3    3    0    0 -0.30155167247E+02 -0.26720653376E+02 -0.89526166786E+02  0.98179743165E+02  0.10000000000E+01 0.  0.
    9000005    1    3    3    0    0  0.20940137787E+02  0.50062465868E+02  0.54436805184E+01  0.54546984490E+02  0.10000000000E+01 0.  0.
         21    1    1    2  502  501  0.92150294596E+01 -0.23341812492E+02 -0.19633556841E+03  0.19793284821E+03  0.00000000000E+00 0.  1.
<mgrwt>
<rscale>  1 0.12749741E+03</rscale>
<asrwt>0</asrwt>
<pdfrwt beam="1">  1        4 0.54031941E-02 0.12749741E+03</pdfrwt>
<pdfrwt beam="2">  1       -4 0.48544431E-01 0.12749741E+03</pdfrwt>
<totfact> 0.14109949E+03</totfact>
</mgrwt>
</event>
<event>
 6    4  0.2271823E-003  0.1304669E+03  0.7818608E-02  0.1226765E+00
          4   -1    0    0  502    0  0.00000000000E+00  0.00000000000E+00  0.10301173144E+03  0.10301955986E+03  0.12700000000E+01 0.  1.
         -4   -1    0    0    0  501 -0.00000000000E+00 -0.00000000000E+00 -0.70671473393E+02  0.70682883724E+02  0.12700000000E+01 0.  1.
         25    2    1    2    0    0 -0.34365807382E+02 -0.14713136006E+02  0.38012153084E+02  0.13589165833E+03  0.12499653569E+03 0.  0.
    9000005    1    3    3    0    0 -0.16109222234E+02  0.40936830135E+02  0.59057974993E+02  0.73649002117E+02  0.10000000000E+01 0.  0.
    9000005    1    3    3    0    0 -0.18256585147E+02 -0.55649966141E+02 -0.21045821909E+02  0.62242656214E+02  0.10000000000E+01 0.  0.
         21    1    1    2  502  501  0.34365807382E+02  0.14713136006E+02 -0.56718950402E+01  0.37810785253E+02  0.00000000000E+00 0.  1.
<mgrwt>
<rscale>  1 0.13046693E+03</rscale>
<asrwt>0</asrwt>
<pdfrwt beam="1">  1        4 0.15849439E-01 0.13046693E+03</pdfrwt>
<pdfrwt beam="2">  1       -4 0.10874014E-01 0.13046693E+03</pdfrwt>
<totfact> 0.36477972E+03</totfact>
</mgrwt>
</event>
<event>
 6    4  0.2271823E-003  0.1308748E+03  0.7818608E-02  0.1226164E+00
          4   -1    0    0  502    0  0.00000000000E+00  0.00000000000E+00  0.38830818303E+03  0.38831025985E+03  0.12700000000E+01 0. -1.
         -4   -1    0    0    0  501 -0.00000000000E+00 -0.00000000000E+00 -0.33773856905E+02  0.33797726406E+02  0.12700000000E+01 0. -1.
         25    2    1    2    0    0 -0.29493973257E+00 -0.38759315853E+02  0.35991924408E+03  0.38297527748E+03  0.12500331734E+03 0.  0.
    9000005    1    3    3    0    0 -0.27077181382E+02 -0.71935356491E+02  0.14762289319E+03  0.16643733914E+03  0.10000000000E+01 0.  0.
    9000005    1    3    3    0    0  0.26782241649E+02  0.33176040638E+02  0.21229635090E+03  0.21653793835E+03  0.10000000000E+01 0.  0.
         21    1    1    2  502  501  0.29493973257E+00  0.38759315853E+02 -0.53849179594E+01  0.39132708777E+02  0.00000000000E+00 0. -1.
<mgrwt>
<rscale>  1 0.13087475E+03</rscale>
<asrwt>0</asrwt>
<pdfrwt beam="1">  1        4 0.59741718E-01 0.13087475E+03</pdfrwt>
<pdfrwt beam="2">  1       -4 0.51979737E-02 0.13087475E+03</pdfrwt>
<totfact> 0.98501635E+02</totfact>
</mgrwt>
</event>
<event>
 6    4  0.2271823E-003  0.1271136E+03  0.7818608E-02  0.1231803E+00
         -4   -1    0    0    0  501 -0.00000000000E+00  0.00000000000E+00  0.46810806424E+02  0.46828031115E+02  0.12700000000E+01 0.  1.
          4   -1    0    0  502    0  0.00000000000E+00 -0.00000000000E+00 -0.13710520346E+03  0.13711108531E+03  0.12700000000E+01 0.  1.
         25    2    1    2    0    0 -0.21355585577E+02 -0.87275733817E+01 -0.97020061360E+02  0.15990859140E+03  0.12500253487E+03 0.  0.
    9000005    1    3    3    0    0  0.48352703713E+02 -0.25694750223E+02 -0.34380661165E+02  0.64662462121E+02  0.10000000000E+01 0.  0.
    9000005    1    3    3    0    0 -0.69708289290E+02  0.16967176841E+02 -0.62639400195E+02  0.95246129278E+02  0.10000000000E+01 0.  0.
         21    1    1    2  502  501  0.21355585577E+02  0.87275733817E+01  0.67256643262E+01  0.24030525027E+02  0.00000000000E+00 0.  1.
<mgrwt>
<rscale>  1 0.12711359E+03</rscale>
<asrwt>0</asrwt>
<pdfrwt beam="2">  1        4 0.21094885E-01 0.12711359E+03</pdfrwt>
<pdfrwt beam="1">  1       -4 0.72034400E-02 0.12711359E+03</pdfrwt>
<totfact> 0.43302647E+03</totfact>
</mgrwt>
</event>
<event>
 6    4  0.2271823E-003  0.1266931E+03  0.7818608E-02  0.1232447E+00
          4   -1    0    0  502    0  0.00000000000E+00  0.00000000000E+00  0.30620361475E+02  0.30646687209E+02  0.12700000000E+01 0. -1.
         -4   -1    0    0    0  501 -0.00000000000E+00 -0.00000000000E+00 -0.18825504179E+03  0.18825932556E+03  0.12700000000E+01 0. -1.
         25    2    1    2    0    0 -0.20629712513E+02 -0.39958152277E+00 -0.11313272568E+03  0.16985329959E+03  0.12500154022E+03 0.  0.
    9000005    1    3    3    0    0 -0.99299164843E+01  0.44787242928E+02  0.17680241458E+01  0.45919780921E+02  0.10000000000E+01 0.  0.
    9000005    1    3    3    0    0 -0.10699796029E+02 -0.45186824451E+02 -0.11490074982E+03  0.12393351867E+03  0.10000000000E+01 0.  0.
         21    1    1    2  502  501  0.20629712513E+02  0.39958152277E+00 -0.44501954641E+02  0.49052713183E+02  0.00000000000E+00 0.  1.
<mgrwt>
<rscale>  1 0.12669305E+03</rscale>
<asrwt>0</asrwt>
<pdfrwt beam="1">  1        4 0.47131795E-02 0.12669305E+03</pdfrwt>
<pdfrwt beam="2">  1       -4 0.28964668E-01 0.12669305E+03</pdfrwt>
<totfact> 0.47984437E+03</totfact>
</mgrwt>
</event>
<event>
 6    4  0.2271823E-003  0.1283347E+03  0.7818608E-02  0.1229948E+00
         -4   -1    0    0    0  501 -0.00000000000E+00  0.00000000000E+00  0.10622827892E+04  0.10622835484E+04  0.12700000000E+01 0.  1.
          4   -1    0    0  502    0  0.00000000000E+00 -0.00000000000E+00 -0.99893857413E+01  0.10069792823E+02  0.12700000000E+01 0.  1.
         25    2    1    2    0    0  0.28950924013E+02 -0.26253078057E+01  0.41483594001E+03  0.43423339482E+03  0.12499894325E+03 0.  0.
    9000005    1    3    3    0    0  0.33786101567E+02 -0.45353770915E+02  0.36061168615E+03  0.36502089445E+03  0.10000000000E+01 0.  0.
    9000005    1    3    3    0    0 -0.48351775546E+01  0.42728463110E+02  0.54224253859E+02  0.69212500376E+02  0.10000000000E+01 0.  0.
         21    1    1    2  502  501 -0.28950924013E+02  0.26253078057E+01  0.63745746348E+03  0.63811994639E+03  0.00000000000E+00 0.  1.
<mgrwt>
<rscale>  1 0.12833466E+03</rscale>
<asrwt>0</asrwt>
<pdfrwt beam="2">  1        4 0.15430723E-02 0.12833466E+03</pdfrwt>
<pdfrwt beam="1">  1       -4 0.16343435E+00 0.12833466E+03</pdfrwt>
<totfact> 0.63536551E+02</totfact>
</mgrwt>
</event>
<event>
 6    4  0.2271823E-003  0.1357746E+03  0.7818608E-02  0.1219130E+00
         -4   -1    0    0    0  501 -0.00000000000E+00  0.00000000000E+00  0.31161717322E+03  0.31161976116E+03  0.12700000000E+01 0.  1.
          4   -1    0    0  502    0  0.00000000000E+00 -0.00000000000E+00 -0.29178159563E+02  0.29205785308E+02  0.12700000000E+01 0.  1.
         25    2    1    2    0    0  0.30963704359E+02 -0.43019993917E+02  0.22393834661E+03  0.26188380270E+03  0.12500108867E+03 0.  0.
    9000005    1    3    3    0    0 -0.24386415835E+02  0.27912466343E+02  0.11366247422E+03  0.11955735486E+03  0.10000000000E+01 0.  0.
    9000005    1    3    3    0    0  0.55350120194E+02 -0.70932460260E+02  0.11027587239E+03  0.14232644784E+03  0.10000000000E+01 0.  0.
         21    1    1    2  502  501 -0.30963704359E+02  0.43019993917E+02  0.58500667045E+02  0.78941743767E+02  0.00000000000E+00 0.  1.
<mgrwt>
<rscale>  1 0.13577460E+03</rscale>
<asrwt>0</asrwt>
<pdfrwt beam="2">  1        4 0.44912713E-02 0.13577460E+03</pdfrwt>
<pdfrwt beam="1">  1       -4 0.47943432E-01 0.13577460E+03</pdfrwt>
<totfact> 0.19745687E+03</totfact>
</mgrwt>
</event>
<event>
 6    4  0.2271823E-003  0.1268879E+03  0.7818608E-02  0.1232148E+00
          4   -1    0    0  502    0  0.00000000000E+00  0.00000000000E+00  0.88837026719E+02  0.88846104114E+02  0.12700000000E+01 0.  1.
         -4   -1    0    0    0  501 -0.00000000000E+00 -0.00000000000E+00 -0.71151502980E+02  0.71162836343E+02  0.12700000000E+01 0.  1.
         25    2    1    2    0    0 -0.20691602190E+02  0.64190372930E+01  0.35720759664E+02  0.13182000334E+03  0.12502477422E+03 0.  0.
    9000005    1    3    3    0    0 -0.65073300385E+02  0.22414977246E+02  0.46943809323E+02  0.83316786194E+02  0.10000000000E+01 0.  0.
    9000005    1    3    3    0    0  0.44381698195E+02 -0.15995939953E+02 -0.11223049659E+02  0.48503217144E+02  0.10000000000E+01 0.  0.
         21    1    1    2  502  501  0.20691602190E+02 -0.64190372930E+01 -0.18035235925E+02  0.28188937118E+02  0.00000000000E+00 0.  1.
<mgrwt>
<rscale>  1 0.12688791E+03</rscale>
<asrwt>0</asrwt>
<pdfrwt beam="1">  1        4 0.13668805E-01 0.12688791E+03</pdfrwt>
<pdfrwt beam="2">  1       -4 0.10947955E-01 0.12688791E+03</pdfrwt>
<totfact> 0.46341127E+03</totfact>
</mgrwt>
</event>
<event>
 6    4  0.2271823E-003  0.1268311E+03  0.7818608E-02  0.1232235E+00
         -4   -1    0    0    0  501 -0.00000000000E+00  0.00000000000E+00  0.38167644844E+02  0.38188768152E+02  0.12700000000E+01 0. -1.
          4   -1    0    0  502    0  0.00000000000E+00 -0.00000000000E+00 -0.30602629258E+03  0.30602892780E+03  0.12700000000E+01 0. -1.
         25    2    1    2    0    0 -0.77924134698E+01 -0.20023650458E+02 -0.28804783351E+03  0.31473428524E+03  0.12499779049E+03 0.  0.
    9000005    1    3    3    0    0 -0.41872349456E+02 -0.45657345780E+02 -0.25003863832E+03  0.25760086865E+03  0.10000000000E+01 0.  0.
    9000005    1    3    3    0    0  0.34079935986E+02  0.25633695321E+02 -0.38009195188E+02  0.57133416592E+02  0.10000000000E+01 0.  0.
         21    1    1    2  502  501  0.77924134698E+01  0.20023650458E+02  0.20189185772E+02  0.29483410717E+02  0.00000000000E+00 0. -1.
<mgrwt>
<rscale>  1 0.12683105E+03</rscale>
<asrwt>0</asrwt>
<pdfrwt beam="2">  1        4 0.47082794E-01 0.12683105E+03</pdfrwt>
<pdfrwt beam="1">  1       -4 0.58737731E-02 0.12683105E+03</pdfrwt>
<totfact> 0.13097847E+03</totfact>
</mgrwt>
</event>
<event>
 6    4  0.2271823E-003  0.1308212E+03  0.7818608E-02  0.1226242E+00
          4   -1    0    0  502    0  0.00000000000E+00  0.00000000000E+00  0.32003906712E+02  0.32029095286E+02  0.12700000000E+01 0.  1.
         -4   -1    0    0    0  501 -0.00000000000E+00 -0.00000000000E+00 -0.22682195652E+03  0.22682551192E+03  0.12700000000E+01 0.  1.
         25    2    1    2    0    0 -0.29384667944E+02  0.25021186041E+02 -0.16174529947E+03  0.20802818420E+03  0.12499866023E+03 0.  0.
    9000005    1    3    3    0    0 -0.49867070817E+02  0.22794072434E+02 -0.17507900934E+03  0.18346649286E+03  0.10000000000E+01 0.  0.
    9000005    1    3    3    0    0  0.20482402873E+02  0.22271136077E+01  0.13333709872E+02  0.24561691339E+02  0.10000000000E+01 0.  0.
         21    1    1    2  502  501  0.29384667944E+02 -0.25021186041E+02 -0.33072750335E+02  0.50826423009E+02  0.00000000000E+00 0.  1.
<mgrwt>
<rscale>  1 0.13082119E+03</rscale>
<asrwt>0</asrwt>
<pdfrwt beam="1">  1        4 0.49258892E-02 0.13082119E+03</pdfrwt>
<pdfrwt beam="2">  1       -4 0.34897896E-01 0.13082119E+03</pdfrwt>
<totfact> 0.31609946E+03</totfact>
</mgrwt>
</event>
<event>
 6    4  0.2271823E-003  0.1296256E+03  0.7818608E-02  0.1228012E+00
          4   -1    0    0  502    0  0.00000000000E+00  0.00000000000E+00  0.68538925519E+03  0.68539043182E+03  0.12700000000E+01 0.  1.
         -4   -1    0    0    0  501 -0.00000000000E+00 -0.00000000000E+00 -0.18294640357E+02  0.18338668594E+02  0.12700000000E+01 0.  1.
         25    2    1    2    0    0  0.15955174119E+02  0.30419306002E+02  0.65439033862E+03  0.66710533227E+03  0.12499162897E+03 0.  0.
    9000005    1    3    3    0    0  0.55780352434E+02  0.18826353594E+02  0.15201731999E+03  0.16302191535E+03  0.10000000000E+01 0.  0.
    9000005    1    3    3    0    0 -0.39825178315E+02  0.11592952408E+02  0.50237301862E+03  0.50408341692E+03  0.10000000000E+01 0.  0.
         21    1    1    2  502  501 -0.15955174119E+02 -0.30419306002E+02  0.12704276219E+02  0.36623768144E+02  0.00000000000E+00 0.  1.
<mgrwt>
<rscale>  1 0.12962565E+03</rscale>
<asrwt>0</asrwt>
<pdfrwt beam="1">  1        4 0.10544798E+00 0.12962565E+03</pdfrwt>
<pdfrwt beam="2">  1       -4 0.28180374E-02 0.12962565E+03</pdfrwt>
<totfact> 0.73905292E+02</totfact>
</mgrwt>
</event>
<event>
 6    4  0.2271823E-003  0.1281800E+03  0.7818608E-02  0.1230182E+00
         -4   -1    0    0    0  501 -0.00000000000E+00  0.00000000000E+00  0.11636127173E+03  0.11636820209E+03  0.12700000000E+01 0.  1.
          4   -1    0    0  502    0  0.00000000000E+00 -0.00000000000E+00 -0.53787142918E+02  0.53802134189E+02  0.12700000000E+01 0.  1.
         25    2    1    2    0    0 -0.28095907807E+02 -0.40105902282E+01  0.41191156295E+02  0.13463589689E+03  0.12499859401E+03 0.  0.
    9000005    1    3    3    0    0 -0.25706629145E+02 -0.42694808493E+02  0.70282502954E+02  0.86164422331E+02  0.10000000000E+01 0.  0.
    9000005    1    3    3    0    0 -0.23892786612E+01  0.38684218264E+02 -0.29091346659E+02  0.48471474556E+02  0.10000000000E+01 0.  0.
         21    1    1    2  502  501  0.28095907807E+02  0.40105902282E+01  0.21382972518E+02  0.35534439396E+02  0.00000000000E+00 0.  1.
<mgrwt>
<rscale>  1 0.12818000E+03</rscale>
<asrwt>0</asrwt>
<pdfrwt beam="2">  1        4 0.82766314E-02 0.12818000E+03</pdfrwt>
<pdfrwt beam="1">  1       -4 0.17903420E-01 0.12818000E+03</pdfrwt>
<totfact> 0.46288468E+03</totfact>
</mgrwt>
</event>
<event>
 6    4  0.2271823E-003  0.1267539E+03  0.7818608E-02  0.1232353E+00
         -4   -1    0    0    0  501 -0.00000000000E+00  0.00000000000E+00  0.50392740135E+02  0.50408740892E+02  0.12700000000E+01 0.  1.
          4   -1    0    0  502    0  0.00000000000E+00 -0.00000000000E+00 -0.11927906027E+03  0.11928582112E+03  0.12700000000E+01 0.  1.
         25    2    1    2    0    0 -0.56456549456E+01  0.20188529147E+02 -0.75716708396E+02  0.14764678814E+03  0.12500841567E+03 0.  0.
    9000005    1    3    3    0    0  0.37442525884E+02  0.40653753563E+02  0.32629615356E+01  0.55374338293E+02  0.10000000000E+01 0.  0.
    9000005    1    3    3    0    0 -0.43088180830E+02 -0.20465224416E+02 -0.78979669932E+02  0.92272449844E+02  0.10000000000E+01 0.  0.
         21    1    1    2  502  501  0.56456549456E+01 -0.20188529147E+02  0.68303882597E+01  0.22047773871E+02  0.00000000000E+00 0.  1.
<mgrwt>
<rscale>  1 0.12675391E+03</rscale>
<asrwt>0</asrwt>
<pdfrwt beam="2">  1        4 0.18352375E-01 0.12675391E+03</pdfrwt>
<pdfrwt beam="1">  1       -4 0.77544802E-02 0.12675391E+03</pdfrwt>
<totfact> 0.49199747E+03</totfact>
</mgrwt>
</event>
<event>
 6    4  0.2271823E-003  0.1401715E+03  0.7818608E-02  0.1213098E+00
          4   -1    0    0  502    0  0.00000000000E+00  0.00000000000E+00  0.79112104655E+02  0.79122297761E+02  0.12700000000E+01 0. -1.
         -4   -1    0    0    0  501 -0.00000000000E+00 -0.00000000000E+00 -0.13126982322E+03  0.13127596653E+03  0.12700000000E+01 0. -1.
         25    2    1    2    0    0  0.48195439088E+02 -0.41223716585E+02 -0.31173903980E+02  0.14359620121E+03  0.12500344617E+03 0.  0.
    9000005    1    3    3    0    0 -0.29987314048E+01  0.76024069406E+01  0.41418024745E+02  0.42228447226E+02  0.10000000000E+01 0.  0.
    9000005    1    3    3    0    0  0.51194170492E+02 -0.48826123525E+02 -0.72591928725E+02  0.10136775398E+03  0.10000000000E+01 0.  0.
         21    1    1    2  502  501 -0.48195439088E+02  0.41223716585E+02 -0.20983814587E+02  0.66802063086E+02  0.00000000000E+00 0. -1.
<mgrwt>
<rscale>  1 0.14017153E+03</rscale>
<asrwt>0</asrwt>
<pdfrwt beam="1">  1        4 0.12172350E-01 0.14017153E+03</pdfrwt>
<pdfrwt beam="2">  1       -4 0.20196614E-01 0.14017153E+03</pdfrwt>
<totfact> 0.19887793E+03</totfact>
</mgrwt>
</event>
<event>
 6    4  0.2271823E-003  0.1285700E+03  0.7818608E-02  0.1229593E+00
          4   -1    0    0  502    0  0.00000000000E+00  0.00000000000E+00  0.87275969145E+02  0.87285208886E+02  0.12700000000E+01 0. -1.
         -4   -1    0    0    0  501 -0.00000000000E+00 -0.00000000000E+00 -0.75778527653E+02  0.75789169102E+02  0.12700000000E+01 0. -1.
         25    2    1    2    0    0  0.87848589459E+01  0.28771738839E+02  0.23473376656E+02  0.13069522226E+03  0.12500102003E+03 0.  0.
    9000005    1    3    3    0    0 -0.23341535028E+02  0.67105959350E+02 -0.81338658942E+01  0.71520604109E+02  0.10000000000E+01 0.  0.
    9000005    1    3    3    0    0  0.32126393974E+02 -0.38334220510E+02  0.31607242550E+02  0.59174618152E+02  0.10000000000E+01 0.  0.
         21    1    1    2  502  501 -0.87848589459E+01 -0.28771738839E+02 -0.11975935163E+02  0.32379155727E+02  0.00000000000E+00 0. -1.
<mgrwt>
<rscale>  1 0.12856999E+03</rscale>
<asrwt>0</asrwt>
<pdfrwt beam="1">  1        4 0.13428602E-01 0.12856999E+03</pdfrwt>
<pdfrwt beam="2">  1       -4 0.11659764E-01 0.12856999E+03</pdfrwt>
<totfact> 0.43072622E+03</totfact>
</mgrwt>
</event>
<event>
 6    4  0.2271823E-003  0.1270030E+03  0.7818608E-02  0.1231972E+00
          4   -1    0    0  502    0  0.00000000000E+00  0.00000000000E+00  0.15523710286E+02  0.15575573217E+02  0.12700000000E+01 0. -1.
         -4   -1    0    0    0  501 -0.00000000000E+00 -0.00000000000E+00 -0.39606340871E+03  0.39606544487E+03  0.12700000000E+01 0. -1.
         25    2    1    2    0    0  0.79216227934E+01  0.21008415650E+02 -0.26402607306E+03  0.29298382053E+03  0.12500258478E+03 0.  0.
    9000005    1    3    3    0    0 -0.56579885855E+02  0.15043783860E+02 -0.16061694450E+03  0.17095730980E+03  0.10000000000E+01 0.  0.
    9000005    1    3    3    0    0  0.64501508648E+02  0.59646317899E+01 -0.10340912856E+03  0.12202651073E+03  0.10000000000E+01 0.  0.
         21    1    1    2  502  501 -0.79216227934E+01 -0.21008415650E+02 -0.11651362537E+03  0.11865719756E+03  0.00000000000E+00 0. -1.
<mgrwt>
<rscale>  1 0.12700296E+03</rscale>
<asrwt>0</asrwt>
<pdfrwt beam="1">  1        4 0.23924095E-02 0.12700296E+03</pdfrwt>
<pdfrwt beam="2">  1       -4 0.60936971E-01 0.12700296E+03</pdfrwt>
<totfact> 0.31919202E+03</totfact>
</mgrwt>
</event>
<event>
 6    4  0.2271823E-003  0.1274505E+03  0.7818608E-02  0.1231289E+00
         -4   -1    0    0    0  501 -0.00000000000E+00  0.00000000000E+00  0.26766945812E+02  0.26797057452E+02  0.12700000000E+01 0. -1.
          4   -1    0    0  502    0  0.00000000000E+00 -0.00000000000E+00 -0.25664347813E+03  0.25664662041E+03  0.12700000000E+01 0. -1.
         25    2    1    2    0    0  0.22018399784E+02  0.11650786381E+02 -0.22420051934E+03  0.25789435545E+03  0.12499229955E+03 0.  0.
    9000005    1    3    3    0    0  0.71534771343E+02  0.25620785168E+02 -0.13338269201E+03  0.15351088128E+03  0.10000000000E+01 0.  0.
    9000005    1    3    3    0    0 -0.49516371559E+02 -0.13969998787E+02 -0.90817827334E+02  0.10438347417E+03  0.10000000000E+01 0.  0.
         21    1    1    2  502  501 -0.22018399784E+02 -0.11650786381E+02 -0.56760129779E+01  0.25549322411E+02  0.00000000000E+00 0. -1.
<mgrwt>
<rscale>  1 0.12745048E+03</rscale>
<asrwt>0</asrwt>
<pdfrwt beam="2">  1        4 0.39486168E-01 0.12745048E+03</pdfrwt>
<pdfrwt beam="1">  1       -4 0.41205498E-02 0.12745048E+03</pdfrwt>
<totfact> 0.32853070E+03</totfact>
</mgrwt>
</event>
<event>
 6    4  0.2271823E-003  0.1270350E+03  0.7818608E-02  0.1231923E+00
         -4   -1    0    0    0  501 -0.00000000000E+00  0.00000000000E+00  0.54144516214E+02  0.54159408565E+02  0.12700000000E+01 0. -1.
          4   -1    0    0  502    0  0.00000000000E+00 -0.00000000000E+00 -0.10710779188E+03  0.10711532095E+03  0.12700000000E+01 0. -1.
         25    2    1    2    0    0  0.15193633165E+02  0.16744797605E+02 -0.33342100233E+02  0.13133770793E+03  0.12500665239E+03 0.  0.
    9000005    1    3    3    0    0  0.59330603718E+01  0.68815301527E+02 -0.50976389520E+00  0.69079713295E+02  0.10000000000E+01 0.  0.
    9000005    1    3    3    0    0  0.92605727934E+01 -0.52070503922E+02 -0.32832336338E+02  0.62257994640E+02  0.10000000000E+01 0.  0.
         21    1    1    2  502  501 -0.15193633165E+02 -0.16744797605E+02 -0.19621175438E+02  0.29937021581E+02  0.00000000000E+00 0. -1.
<mgrwt>
<rscale>  1 0.12703503E+03</rscale>
<asrwt>0</asrwt>
<pdfrwt beam="2">  1        4 0.16479847E-01 0.12703503E+03</pdfrwt>
<pdfrwt beam="1">  1       -4 0.83316503E-02 0.12703503E+03</pdfrwt>
<totfact> 0.52882367E+03</totfact>
</mgrwt>
</event>
<event>
 6    4  0.2271823E-003  0.1270149E+03  0.7818608E-02  0.1231954E+00
          4   -1    0    0  502    0  0.00000000000E+00  0.00000000000E+00  0.14971356676E+02  0.15025126313E+02  0.12700000000E+01 0. -1.
         -4   -1    0    0    0  501 -0.00000000000E+00 -0.00000000000E+00 -0.43664770508E+03  0.43664955199E+03  0.12700000000E+01 0. -1.
         25    2    1    2    0    0  0.13705153348E+02 -0.17891010736E+02 -0.27060072136E+03  0.29892729017E+03  0.12499941966E+03 0.  0.
    9000005    1    3    3    0    0 -0.31826511002E+02  0.18670691212E+02 -0.20756893114E+02  0.42348200961E+02  0.10000000000E+01 0.  0.
    9000005    1    3    3    0    0  0.45531664350E+02 -0.36561701948E+02 -0.24984382825E+03  0.25657908921E+03  0.10000000000E+01 0.  0.
         21    1    1    2  502  501 -0.13705153348E+02  0.17891010736E+02 -0.15107562705E+03  0.15274738813E+03  0.00000000000E+00 0.  1.
<mgrwt>
<rscale>  1 0.12701486E+03</rscale>
<asrwt>0</asrwt>
<pdfrwt beam="1">  1        4 0.23075642E-02 0.12701486E+03</pdfrwt>
<pdfrwt beam="2">  1       -4 0.67180839E-01 0.12701486E+03</pdfrwt>
<totfact> 0.27447786E+03</totfact>
</mgrwt>
</event>
<event>
 6    4  0.2271823E-003  0.1706996E+03  0.7818608E-02  0.1177120E+00
         -4   -1    0    0    0  501 -0.00000000000E+00  0.00000000000E+00  0.53261610101E+03  0.53261761513E+03  0.12700000000E+01 0.  1.
          4   -1    0    0  502    0  0.00000000000E+00 -0.00000000000E+00 -0.39731066998E+02  0.39751359534E+02  0.12700000000E+01 0.  1.
         25    2    1    2    0    0  0.88881190995E+01 -0.11590003762E+03  0.24522934069E+03  0.29879054019E+03  0.12500615981E+03 0.  0.
    9000005    1    3    3    0    0 -0.30671529561E+02 -0.99819662855E+02  0.90224231834E+02  0.13800768032E+03  0.10000000000E+01 0.  0.
    9000005    1    3    3    0    0  0.39559648660E+02 -0.16080374760E+02  0.15500510886E+03  0.16078285987E+03  0.10000000000E+01 0.  0.
         21    1    1    2  502  501 -0.88881190995E+01  0.11590003762E+03  0.24765569332E+03  0.27357843448E+03  0.00000000000E+00 0.  1.
<mgrwt>
<rscale>  1 0.17069961E+03</rscale>
<asrwt>0</asrwt>
<pdfrwt beam="2">  1        4 0.61141494E-02 0.17069961E+03</pdfrwt>
<pdfrwt beam="1">  1       -4 0.81942614E-01 0.17069961E+03</pdfrwt>
<totfact> 0.40212515E+02</totfact>
</mgrwt>
</event>
<event>
 6    4  0.2271823E-003  0.1306752E+03  0.7818608E-02  0.1226457E+00
         -4   -1    0    0    0  501 -0.00000000000E+00  0.00000000000E+00  0.19787698789E+04  0.19787702864E+04  0.12700000000E+01 0. -1.
          4   -1    0    0  502    0  0.00000000000E+00 -0.00000000000E+00 -0.10499143909E+02  0.10575675998E+02  0.12700000000E+01 0. -1.
         25    2    1    2    0    0  0.13726606374E+02  0.35537057290E+02  0.40393057623E+03  0.42454200205E+03  0.12499879571E+03 0.  0.
    9000005    1    3    3    0    0  0.95647578628E+01  0.69734370484E+02  0.12473845569E+03  0.14323075560E+03  0.10000000000E+01 0.  0.
    9000005    1    3    3    0    0  0.41618485116E+01 -0.34197313194E+02  0.27919212054E+03  0.28131124646E+03  0.10000000000E+01 0.  0.
         21    1    1    2  502  501 -0.13726606374E+02 -0.35537057290E+02  0.15643401587E+04  0.15648039603E+04  0.00000000000E+00 0. -1.
<mgrwt>
<rscale>  1 0.13067517E+03</rscale>
<asrwt>0</asrwt>
<pdfrwt beam="2">  1        4 0.16211718E-02 0.13067517E+03</pdfrwt>
<pdfrwt beam="1">  1       -4 0.30443197E+00 0.13067517E+03</pdfrwt>
<totfact> 0.83803721E+01</totfact>
</mgrwt>
</event>
<event>
 6    4  0.2271823E-003  0.1267201E+03  0.7818608E-02  0.1232405E+00
          4   -1    0    0  502    0  0.00000000000E+00  0.00000000000E+00  0.36419966067E+02  0.36442102414E+02  0.12700000000E+01 0.  1.
         -4   -1    0    0    0  501 -0.00000000000E+00 -0.00000000000E+00 -0.14971427216E+03  0.14971965866E+03  0.12700000000E+01 0.  1.
         25    2    1    2    0    0  0.20268731188E+02 -0.47149871548E+01 -0.93937501536E+02  0.15774102128E+03  0.12499969212E+03 0.  0.
    9000005    1    3    3    0    0 -0.15261639437E+02 -0.58239475286E+02 -0.60301504558E+02  0.85217519161E+02  0.10000000000E+01 0.  0.
    9000005    1    3    3    0    0  0.35530370624E+02  0.53524488131E+02 -0.33635996978E+02  0.72523502116E+02  0.10000000000E+01 0.  0.
         21    1    1    2  502  501 -0.20268731188E+02  0.47149871548E+01 -0.19356804556E+02  0.28420739794E+02  0.00000000000E+00 0. -1.
<mgrwt>
<rscale>  1 0.12672007E+03</rscale>
<asrwt>0</asrwt>
<pdfrwt beam="1">  1        4 0.56051889E-02 0.12672007E+03</pdfrwt>
<pdfrwt beam="2">  1       -4 0.23035082E-01 0.12672007E+03</pdfrwt>
<totfact> 0.55494096E+03</totfact>
</mgrwt>
</event>
<event>
 6    4  0.2271823E-003  0.1472159E+03  0.7818608E-02  0.1203936E+00
         -4   -1    0    0    0  501 -0.00000000000E+00  0.00000000000E+00  0.25661437504E+02  0.25692844817E+02  0.12700000000E+01 0.  1.
          4   -1    0    0  502    0  0.00000000000E+00 -0.00000000000E+00 -0.49276349506E+03  0.49276513164E+03  0.12700000000E+01 0.  1.
         25    2    1    2    0    0  0.48999084607E+02 -0.60380220345E+02 -0.30558626995E+03  0.33919830183E+03  0.12500335309E+03 0.  0.
    9000005    1    3    3    0    0  0.51977616585E+02 -0.91073514026E+02 -0.16681773618E+03  0.19704114973E+03  0.10000000000E+01 0.  0.
    9000005    1    3    3    0    0 -0.29785319781E+01  0.30693293680E+02 -0.13876853377E+03  0.14215715211E+03  0.10000000000E+01 0.  0.
         21    1    1    2  502  501 -0.48999084607E+02  0.60380220345E+02 -0.16151578761E+03  0.17925967463E+03  0.00000000000E+00 0.  1.
<mgrwt>
<rscale>  1 0.14721589E+03</rscale>
<asrwt>0</asrwt>
<pdfrwt beam="2">  1        4 0.75812303E-01 0.14721589E+03</pdfrwt>
<pdfrwt beam="1">  1       -4 0.39504557E-02 0.14721589E+03</pdfrwt>
<totfact> 0.93925525E+02</totfact>
</mgrwt>
</event>
<event>
 6    4  0.2271823E-003  0.1312525E+03  0.7818608E-02  0.1225609E+00
          4   -1    0    0  502    0  0.00000000000E+00  0.00000000000E+00  0.18060746339E+03  0.18061192855E+03  0.12700000000E+01 0. -1.
         -4   -1    0    0    0  501 -0.00000000000E+00 -0.00000000000E+00 -0.47312545683E+02  0.47329587775E+02  0.12700000000E+01 0. -1.
         25    2    1    2    0    0 -0.31192553957E+02 -0.25055373927E+02  0.13447933880E+03  0.18791464987E+03  0.12500590340E+03 0.  0.
    9000005    1    3    3    0    0 -0.65356832035E+02 -0.55897378934E+01  0.13329422892E+03  0.14856349527E+03  0.10000000000E+01 0.  0.
    9000005    1    3    3    0    0  0.34164278078E+02 -0.19465636033E+02  0.11851098805E+01  0.39351154598E+02  0.10000000000E+01 0.  0.
         21    1    1    2  502  501  0.31192553957E+02  0.25055373927E+02 -0.11844210880E+01  0.40026866456E+02  0.00000000000E+00 0.  1.
<mgrwt>
<rscale>  1 0.13125252E+03</rscale>
<asrwt>0</asrwt>
<pdfrwt beam="1">  1        4 0.27787419E-01 0.13125252E+03</pdfrwt>
<pdfrwt beam="2">  1       -4 0.72805074E-02 0.13125252E+03</pdfrwt>
<totfact> 0.25846787E+03</totfact>
</mgrwt>
</event>
<event>
 6    4  0.2271823E-003  0.1283790E+03  0.7818608E-02  0.1229881E+00
         -4   -1    0    0    0  501 -0.00000000000E+00  0.00000000000E+00  0.10095804283E+02  0.10175370466E+02  0.12700000000E+01 0. -1.
          4   -1    0    0  502    0  0.00000000000E+00 -0.00000000000E+00 -0.72684129460E+03  0.72684240412E+03  0.12700000000E+01 0. -1.
         25    2    1    2    0    0  0.28084619588E+02 -0.81968922046E+01 -0.66753225949E+03  0.67976502804E+03  0.12500096394E+03 0.  0.
    9000005    1    3    3    0    0 -0.31619430853E+02  0.23827337599E+02 -0.45436995306E+03  0.45609273692E+03  0.10000000000E+01 0.  0.
    9000005    1    3    3    0    0  0.59704050441E+02 -0.32024229804E+02 -0.21316230643E+03  0.22367229112E+03  0.10000000000E+01 0.  0.
         21    1    1    2  502  501 -0.28084619588E+02  0.81968922046E+01 -0.49213230825E+02  0.57252746549E+02  0.00000000000E+00 0. -1.
<mgrwt>
<rscale>  1 0.12837903E+03</rscale>
<asrwt>0</asrwt>
<pdfrwt beam="2">  1        4 0.11182790E+00 0.12837903E+03</pdfrwt>
<pdfrwt beam="1">  1       -4 0.15594070E-02 0.12837903E+03</pdfrwt>
<totfact> 0.16000082E+03</totfact>
</mgrwt>
</event>
<event>
 6    4  0.2271823E-003  0.1280103E+03  0.7818608E-02  0.1230438E+00
          4   -1    0    0  502    0  0.00000000000E+00  0.00000000000E+00  0.19584191115E+03  0.19584602897E+03  0.12700000000E+01 0.  1.
         -4   -1    0    0    0  501 -0.00000000000E+00 -0.00000000000E+00 -0.46826313098E+02  0.46843532087E+02  0.12700000000E+01 0.  1.
         25    2    1    2    0    0  0.25543728024E+02 -0.10429263845E+02  0.16650311563E+03  0.21002360237E+03  0.12500149781E+03 0.  0.
    9000005    1    3    3    0    0 -0.28040379266E+01 -0.63523778832E+02  0.11212021922E+03  0.12889948279E+03  0.10000000000E+01 0.  0.
    9000005    1    3    3    0    0  0.28347765951E+02  0.53094514987E+02  0.54382896410E+02  0.81124119583E+02  0.10000000000E+01 0.  0.
         21    1    1    2  502  501 -0.25543728024E+02  0.10429263845E+02 -0.17487517577E+02  0.32665958684E+02  0.00000000000E+00 0.  1.
<mgrwt>
<rscale>  1 0.12801026E+03</rscale>
<asrwt>0</asrwt>
<pdfrwt beam="1">  1        4 0.30131165E-01 0.12801026E+03</pdfrwt>
<pdfrwt beam="2">  1       -4 0.72056896E-02 0.12801026E+03</pdfrwt>
<totfact> 0.22445487E+03</totfact>
</mgrwt>
</event>
<event>
 6    4  0.2271823E-003  0.1268706E+03  0.7818608E-02  0.1232175E+00
         -4   -1    0    0    0  501 -0.00000000000E+00  0.00000000000E+00  0.18782655308E+02  0.18825542234E+02  0.12700000000E+01 0. -1.
          4   -1    0    0  502    0  0.00000000000E+00 -0.00000000000E+00 -0.30040384242E+03  0.30040652696E+03  0.12700000000E+01 0. -1.
         25    2    1    2    0    0  0.21487829113E+02 -0.16137936693E+01 -0.25630659914E+03  0.28598812999E+03  0.12502722344E+03 0.  0.
    9000005    1    3    3    0    0 -0.13105609596E+02 -0.54930239510E+02 -0.16758295917E+03  0.17684495023E+03  0.10000000000E+01 0.  0.
    9000005    1    3    3    0    0  0.34593438709E+02  0.53316445841E+02 -0.88723639966E+02  0.10914317976E+03  0.10000000000E+01 0.  0.
         21    1    1    2  502  501 -0.21487829113E+02  0.16137936693E+01 -0.25314587972E+02  0.33243939210E+02  0.00000000000E+00 0.  1.
<mgrwt>
<rscale>  1 0.12687056E+03</rscale>
<asrwt>0</asrwt>
<pdfrwt beam="2">  1        4 0.46219478E-01 0.12687056E+03</pdfrwt>
<pdfrwt beam="1">  1       -4 0.28931450E-02 0.12687056E+03</pdfrwt>
<totfact> 0.41901974E+03</totfact>
</mgrwt>
</event>
<event>
 6    4  0.2271823E-003  0.1274864E+03  0.7818608E-02  0.1231234E+00
          4   -1    0    0  502    0  0.00000000000E+00  0.00000000000E+00  0.59056453127E+03  0.59056589682E+03  0.12700000000E+01 0. -1.
         -4   -1    0    0    0  501 -0.00000000000E+00 -0.00000000000E+00 -0.10085749572E+02  0.10165394456E+02  0.12700000000E+01 0. -1.
         25    2    1    2    0    0  0.24565875041E+02  0.48629710167E+01  0.51712147380E+03  0.53260435705E+03  0.12500260710E+03 0.  0.
    9000005    1    3    3    0    0  0.63286155581E+02 -0.32430629578E+02  0.34603103588E+03  0.35326386882E+03  0.10000000000E+01 0.  0.
    9000005    1    3    3    0    0 -0.38720280540E+02  0.37293600595E+02  0.17109043793E+03  0.17934048824E+03  0.10000000000E+01 0.  0.
         21    1    1    2  502  501 -0.24565875041E+02 -0.48629710167E+01  0.63357307891E+02  0.68126934224E+02  0.00000000000E+00 0. -1.
<mgrwt>
<rscale>  1 0.12748640E+03</rscale>
<asrwt>0</asrwt>
<pdfrwt beam="1">  1        4 0.90862286E-01 0.12748640E+03</pdfrwt>
<pdfrwt beam="2">  1       -4 0.15578858E-02 0.12748640E+03</pdfrwt>
<totfact> 0.25857314E+03</totfact>
</mgrwt>
</event>
<event>
 6    4  0.2271823E-003  0.1272889E+03  0.7818608E-02  0.1231535E+00
         -4   -1    0    0    0  501 -0.00000000000E+00  0.00000000000E+00  0.34266506635E+02  0.34290033202E+02  0.12700000000E+01 0. -1.
          4   -1    0    0  502    0  0.00000000000E+00 -0.00000000000E+00 -0.16906367570E+03  0.16906844573E+03  0.12700000000E+01 0. -1.
         25    2    1    2    0    0  0.21395424761E+02  0.10902948774E+02 -0.12120953824E+03  0.17576749844E+03  0.12500329139E+03 0.  0.
    9000005    1    3    3    0    0  0.31720314796E+02 -0.53412781149E+02 -0.57948308084E+02  0.84959460749E+02  0.10000000000E+01 0.  0.
    9000005    1    3    3    0    0 -0.10324890035E+02  0.64315729924E+02 -0.63261230151E+02  0.90808037696E+02  0.10000000000E+01 0.  0.
         21    1    1    2  502  501 -0.21395424761E+02 -0.10902948774E+02 -0.13587630830E+02  0.27590980487E+02  0.00000000000E+00 0.  1.
<mgrwt>
<rscale>  1 0.12728889E+03</rscale>
<asrwt>0</asrwt>
<pdfrwt beam="2">  1        4 0.26011972E-01 0.12728889E+03</pdfrwt>
<pdfrwt beam="1">  1       -4 0.52739470E-02 0.12728889E+03</pdfrwt>
<totfact> 0.49017594E+03</totfact>
</mgrwt>
</event>
<event>
 6    4  0.2271823E-003  0.1309184E+03  0.7818608E-02  0.1226099E+00
         -4   -1    0    0    0  501 -0.00000000000E+00  0.00000000000E+00  0.21826657803E+03  0.21827027279E+03  0.12700000000E+01 0. -1.
          4   -1    0    0  502    0  0.00000000000E+00 -0.00000000000E+00 -0.33434918673E+02  0.33459029972E+02  0.12700000000E+01 0. -1.
         25    2    1    2    0    0  0.38847722606E+02  0.20163099916E+01  0.12998075736E+03  0.18448473044E+03  0.12500562956E+03 0.  0.
    9000005    1    3    3    0    0 -0.21869986798E+02 -0.21673937604E+02 -0.80463386134E+01  0.31840217633E+02  0.10000000000E+01 0.  0.
    9000005    1    3    3    0    0  0.60717709404E+02  0.23690247596E+02  0.13802709597E+03  0.15264451281E+03  0.10000000000E+01 0.  0.
         21    1    1    2  502  501 -0.38847722606E+02 -0.20163099916E+01  0.54850901997E+02  0.67244572328E+02  0.00000000000E+00 0. -1.
<mgrwt>
<rscale>  1 0.13091837E+03</rscale>
<asrwt>0</asrwt>
<pdfrwt beam="2">  1        4 0.51459725E-02 0.13091837E+03</pdfrwt>
<pdfrwt beam="1">  1       -4 0.33581613E-01 0.13091837E+03</pdfrwt>
<totfact> 0.31731951E+03</totfact>
</mgrwt>
</event>
<event>
 6    4  0.2271823E-003  0.1303630E+03  0.7818608E-02  0.1226918E+00
          4   -1    0    0  502    0  0.00000000000E+00  0.00000000000E+00  0.30297801342E+03  0.30298067515E+03  0.12700000000E+01 0.  1.
         -4   -1    0    0    0  501 -0.00000000000E+00 -0.00000000000E+00 -0.30690573992E+02  0.30716839550E+02  0.12700000000E+01 0.  1.
         25    2    1    2    0    0 -0.31372067072E+02  0.19634103581E+02  0.26590481624E+03  0.29614165638E+03  0.12499921890E+03 0.  0.
    9000005    1    3    3    0    0  0.45147996699E+02  0.23306538690E+02  0.13783295715E+03  0.14690289455E+03  0.10000000000E+01 0.  0.
    9000005    1    3    3    0    0 -0.76520063771E+02 -0.36724351090E+01  0.12807185909E+03  0.14923876182E+03  0.10000000000E+01 0.  0.
         21    1    1    2  502  501  0.31372067072E+02 -0.19634103581E+02  0.63826231856E+01  0.37555858325E+02  0.00000000000E+00 0. -1.
<mgrwt>
<rscale>  1 0.13036299E+03</rscale>
<asrwt>0</asrwt>
<pdfrwt beam="1">  1        4 0.46614228E-01 0.13036299E+03</pdfrwt>
<pdfrwt beam="2">  1       -4 0.47238519E-02 0.13036299E+03</pdfrwt>
<totfact> 0.19101560E+03</totfact>
</mgrwt>
</event>
<event>
 6    4  0.2271823E-003  0.1269209E+03  0.7818608E-02  0.1232097E+00
         -4   -1    0    0    0  501 -0.00000000000E+00  0.00000000000E+00  0.71338200623E+03  0.71338313669E+03  0.12700000000E+01 0.  1.
          4   -1    0    0  502    0  0.00000000000E+00 -0.00000000000E+00 -0.12940320287E+02  0.13002491651E+02  0.12700000000E+01 0.  1.
         25    2    1    2    0    0 -0.50561319483E+01  0.21416831408E+02  0.30529393673E+03  0.33062561414E+03  0.12499865511E+03 0.  0.
    9000005    1    3    3    0    0  0.54119943384E+02 -0.46962012274E+01  0.19818370400E+03  0.20549647956E+03  0.10000000000E+01 0.  0.
    9000005    1    3    3    0    0 -0.59176075332E+02  0.26113032635E+02  0.10711023273E+03  0.12512913458E+03  0.10000000000E+01 0.  0.
         21    1    1    2  502  501  0.50561319483E+01 -0.21416831408E+02  0.39514774921E+03  0.39576001421E+03  0.00000000000E+00 0.  1.
<mgrwt>
<rscale>  1 0.12692088E+03</rscale>
<asrwt>0</asrwt>
<pdfrwt beam="2">  1        4 0.19956881E-02 0.12692088E+03</pdfrwt>
<pdfrwt beam="1">  1       -4 0.10975594E+00 0.12692088E+03</pdfrwt>
<totfact> 0.11431153E+03</totfact>
</mgrwt>
</event>
<event>
 6    4  0.2271823E-003  0.1271400E+03  0.7818608E-02  0.1231762E+00
          4   -1    0    0  502    0  0.00000000000E+00  0.00000000000E+00  0.16670410665E+03  0.16670894420E+03  0.12700000000E+01 0.  1.
         -4   -1    0    0    0  501 -0.00000000000E+00 -0.00000000000E+00 -0.38697589624E+02  0.38718423814E+02  0.12700000000E+01 0.  1.
         25    2    1    2    0    0 -0.71146301806E+01 -0.22127066508E+02  0.13032514403E+03  0.18206926308E+03  0.12499739341E+03 0.  0.
    9000005    1    3    3    0    0 -0.65209867269E+02 -0.21055931794E+02  0.78471363106E+02  0.10418461441E+03  0.10000000000E+01 0.  0.
    9000005    1    3    3    0    0  0.58095237089E+02 -0.10711347138E+01  0.51853780920E+02  0.77884648665E+02  0.10000000000E+01 0.  0.
         21    1    1    2  502  501  0.71146301806E+01  0.22127066508E+02 -0.23186269959E+01  0.23358104932E+02  0.00000000000E+00 0.  1.
<mgrwt>
<rscale>  1 0.12713998E+03</rscale>
<asrwt>0</asrwt>
<pdfrwt beam="1">  1        4 0.25648760E-01 0.12713998E+03</pdfrwt>
<pdfrwt beam="2">  1       -4 0.59554501E-02 0.12713998E+03</pdfrwt>
<totfact> 0.41326534E+03</totfact>
</mgrwt>
</event>
<event>
 6    4  0.2271823E-003  0.1270785E+03  0.7818608E-02  0.1231856E+00
          4   -1    0    0  502    0  0.00000000000E+00  0.00000000000E+00  0.55015629985E+02  0.55030286594E+02  0.12700000000E+01 0. -1.
         -4   -1    0    0    0  501 -0.00000000000E+00 -0.00000000000E+00 -0.10612695836E+03  0.10613455701E+03  0.12700000000E+01 0. -1.
         25    2    1    2    0    0 -0.18377275571E+02 -0.13687526567E+02 -0.31306856678E+02  0.13087805209E+03  0.12499549033E+03 0.  0.
    9000005    1    3    3    0    0  0.51636405899E+02 -0.26908368588E+01 -0.30407803138E+02  0.59993278864E+02  0.10000000000E+01 0.  0.
    9000005    1    3    3    0    0 -0.70013681471E+02 -0.10996689708E+02 -0.89905353937E+00  0.70884773223E+02  0.10000000000E+01 0.  0.
         21    1    1    2  502  501  0.18377275571E+02  0.13687526567E+02 -0.19804471699E+02  0.30286791514E+02  0.00000000000E+00 0. -1.
<mgrwt>
<rscale>  1 0.12707850E+03</rscale>
<asrwt>0</asrwt>
<pdfrwt beam="1">  1        4 0.84656550E-02 0.12707850E+03</pdfrwt>
<pdfrwt beam="2">  1       -4 0.16328936E-01 0.12707850E+03</pdfrwt>
<totfact> 0.52344683E+03</totfact>
</mgrwt>
</event>
<event>
 6    4  0.2271823E-003  0.1275493E+03  0.7818608E-02  0.1231138E+00
          4   -1    0    0  502    0  0.00000000000E+00  0.00000000000E+00  0.22950550222E+02  0.22985661955E+02  0.12700000000E+01 0.  1.
         -4   -1    0    0    0  501 -0.00000000000E+00 -0.00000000000E+00 -0.27615973564E+03  0.27616265585E+03  0.12700000000E+01 0.  1.
         25    2    1    2    0    0  0.15117815412E+02 -0.20358716806E+02 -0.17240203854E+03  0.21445581118E+03  0.12500322541E+03 0.  0.
    9000005    1    3    3    0    0 -0.22963904151E+02 -0.60825407619E+02 -0.12705159808E+03  0.14272413840E+03  0.10000000000E+01 0.  0.
    9000005    1    3    3    0    0  0.38081719563E+02  0.40466690813E+02 -0.45350440453E+02  0.71731672778E+02  0.10000000000E+01 0.  0.
         21    1    1    2  502  501 -0.15117815412E+02  0.20358716806E+02 -0.80807146880E+02  0.84692506632E+02  0.00000000000E+00 0. -1.
<mgrwt>
<rscale>  1 0.12754933E+03</rscale>
<asrwt>0</asrwt>
<pdfrwt beam="1">  1        4 0.35337796E-02 0.12754933E+03</pdfrwt>
<pdfrwt beam="2">  1       -4 0.42489037E-01 0.12754933E+03</pdfrwt>
<totfact> 0.36261843E+03</totfact>
</mgrwt>
</event>
<event>
 6    4  0.2271823E-003  0.1339485E+03  0.7818608E-02  0.1221712E+00
          4   -1    0    0  502    0  0.00000000000E+00  0.00000000000E+00  0.29076885852E+04  0.29076888626E+04  0.12700000000E+01 0. -1.
         -4   -1    0    0    0  501 -0.00000000000E+00 -0.00000000000E+00 -0.39507110092E+01  0.41498213791E+01  0.12700000000E+01 0. -1.
         25    2    1    2    0    0  0.46992704829E+02  0.10444901300E+02  0.26612334601E+04  0.26646023575E+04  0.12499913594E+03 0.  0.
    9000005    1    3    3    0    0 -0.40355430496E+02  0.19502667015E+02  0.10826691362E+04  0.10835969607E+04  0.10000000000E+01 0.  0.
    9000005    1    3    3    0    0  0.87348135325E+02 -0.90577657156E+01  0.15785643239E+04  0.15810053967E+04  0.10000000000E+01 0.  0.
         21    1    1    2  502  501 -0.46992704829E+02 -0.10444901300E+02  0.24250441412E+03  0.24723632650E+03  0.00000000000E+00 0. -1.
<mgrwt>
<rscale>  1 0.13394848E+03</rscale>
<asrwt>0</asrwt>
<pdfrwt beam="1">  1        4 0.44735353E+00 0.13394848E+03</pdfrwt>
<pdfrwt beam="2">  1       -4 0.62313714E-03 0.13394848E+03</pdfrwt>
<totfact> 0.43690044E+01</totfact>
</mgrwt>
</event>
<event>
 6    4  0.2271823E-003  0.1272363E+03  0.7818608E-02  0.1231615E+00
          4   -1    0    0  502    0  0.00000000000E+00  0.00000000000E+00  0.11932111877E+03  0.11932787723E+03  0.12700000000E+01 0. -1.
         -4   -1    0    0    0  501 -0.00000000000E+00 -0.00000000000E+00 -0.51726117987E+02  0.51741706408E+02  0.12700000000E+01 0. -1.
         25    2    1    2    0    0  0.23515426224E+02 -0.34086538304E+01  0.73015261233E+02  0.14669801383E+03  0.12499793877E+03 0.  0.
    9000005    1    3    3    0    0  0.54835124973E+02 -0.28030433436E+02 -0.21413453082E+01  0.61629388194E+02  0.10000000000E+01 0.  0.
    9000005    1    3    3    0    0 -0.31319698749E+02  0.24621779606E+02  0.75156606541E+02  0.85068625635E+02  0.10000000000E+01 0.  0.
         21    1    1    2  502  501 -0.23515426224E+02  0.34086538304E+01 -0.54202604538E+01  0.24371569806E+02  0.00000000000E+00 0. -1.
<mgrwt>
<rscale>  1 0.12723631E+03</rscale>
<asrwt>0</asrwt>
<pdfrwt beam="1">  1        4 0.18358814E-01 0.12723631E+03</pdfrwt>
<pdfrwt beam="2">  1       -4 0.79595834E-02 0.12723631E+03</pdfrwt>
<totfact> 0.47138424E+03</totfact>
</mgrwt>
</event>
<event>
 6    4  0.2271823E-003  0.1296360E+03  0.7818608E-02  0.1227997E+00
         -4   -1    0    0    0  501 -0.00000000000E+00  0.00000000000E+00  0.85702536391E+02  0.85711945747E+02  0.12700000000E+01 0.  1.
          4   -1    0    0  502    0  0.00000000000E+00 -0.00000000000E+00 -0.31522065093E+03  0.31522320928E+03  0.12700000000E+01 0.  1.
         25    2    1    2    0    0 -0.28275732502E+02 -0.19526050988E+02 -0.29763511902E+03  0.32464157722E+03  0.12499882349E+03 0.  0.
    9000005    1    3    3    0    0 -0.24730571862E+02 -0.64884838097E+02 -0.24692992630E+03  0.25650932128E+03  0.10000000000E+01 0.  0.
    9000005    1    3    3    0    0 -0.35451606407E+01  0.45358787109E+02 -0.50705192716E+02  0.68132255946E+02  0.10000000000E+01 0.  0.
         21    1    1    2  502  501  0.28275732502E+02  0.19526050988E+02  0.68117004479E+02  0.76293577809E+02  0.00000000000E+00 0.  1.
<mgrwt>
<rscale>  1 0.12963599E+03</rscale>
<asrwt>0</asrwt>
<pdfrwt beam="2">  1        4 0.48496405E-01 0.12963599E+03</pdfrwt>
<pdfrwt beam="1">  1       -4 0.13185926E-01 0.12963599E+03</pdfrwt>
<totfact> 0.32164006E+02</totfact>
</mgrwt>
</event>
<event>
 6    4  0.2271823E-003  0.1426668E+03  0.7818608E-02  0.1209785E+00
          4   -1    0    0  502    0  0.00000000000E+00  0.00000000000E+00  0.62463782927E+02  0.62476692274E+02  0.12700000000E+01 0.  1.
         -4   -1    0    0    0  501 -0.00000000000E+00 -0.00000000000E+00 -0.18630206114E+03  0.18630638982E+03  0.12700000000E+01 0.  1.
         25    2    1    2    0    0  0.81350674734E+01 -0.68283600929E+02 -0.59384144585E+02  0.15453253928E+03  0.12499999835E+03 0.  0.
    9000005    1    3    3    0    0 -0.27707225805E+01  0.35033371592E+02 -0.30891509373E+02  0.46800634398E+02  0.10000000000E+01 0.  0.
    9000005    1    3    3    0    0  0.10905790054E+02 -0.10331697252E+03 -0.28492635212E+02  0.10773190488E+03  0.10000000000E+01 0.  0.
         21    1    1    2  502  501 -0.81350674734E+01  0.68283600929E+02 -0.64454133633E+02  0.94250542815E+02  0.00000000000E+00 0.  1.
<mgrwt>
<rscale>  1 0.14266685E+03</rscale>
<asrwt>0</asrwt>
<pdfrwt beam="1">  1        4 0.96111389E-02 0.14266685E+03</pdfrwt>
<pdfrwt beam="2">  1       -4 0.28663181E-01 0.14266685E+03</pdfrwt>
<totfact> 0.15654067E+03</totfact>
</mgrwt>
</event>
<event>
 6    4  0.2271823E-003  0.1321783E+03  0.7818608E-02  0.1224259E+00
         -4   -1    0    0    0  501 -0.00000000000E+00  0.00000000000E+00  0.91132579564E+02  0.91141428330E+02  0.12700000000E+01 0.  1.
          4   -1    0    0  502    0  0.00000000000E+00 -0.00000000000E+00 -0.95642237696E+02  0.95650669268E+02  0.12700000000E+01 0.  1.
         25    2    1    2    0    0  0.62011894217E+01  0.42511621091E+02 -0.31729523195E+02  0.13593333501E+03  0.12500166498E+03 0.  0.
    9000005    1    3    3    0    0  0.25667217474E+02 -0.39867277724E+02 -0.13924249877E+02  0.49427630134E+02  0.10000000000E+01 0.  0.
    9000005    1    3    3    0    0 -0.19466028052E+02  0.82378898815E+02 -0.17805273318E+02  0.86505704876E+02  0.10000000000E+01 0.  0.
         21    1    1    2  502  501 -0.62011894217E+01 -0.42511621091E+02  0.27219865063E+02  0.50858762589E+02  0.00000000000E+00 0.  1.
<mgrwt>
<rscale>  1 0.13217832E+03</rscale>
<asrwt>0</asrwt>
<pdfrwt beam="2">  1        4 0.14715520E-01 0.13217832E+03</pdfrwt>
<pdfrwt beam="1">  1       -4 0.14021726E-01 0.13217832E+03</pdfrwt>
<totfact> 0.26947211E+03</totfact>
</mgrwt>
</event>
<event>
 6    4  0.2271823E-003  0.1271828E+03  0.7818608E-02  0.1231697E+00
         -4   -1    0    0    0  501 -0.00000000000E+00  0.00000000000E+00  0.50296002631E+02  0.50312034153E+02  0.12700000000E+01 0. -1.
          4   -1    0    0  502    0  0.00000000000E+00 -0.00000000000E+00 -0.13147925267E+03  0.13148538620E+03  0.12700000000E+01 0. -1.
         25    2    1    2    0    0 -0.21570387215E+02  0.92237259884E+01 -0.90980360739E+02  0.15637416124E+03  0.12500037415E+03 0.  0.
    9000005    1    3    3    0    0 -0.19205438720E+02 -0.30688176892E+02  0.17887248565E+02  0.40392656989E+02  0.10000000000E+01 0.  0.
    9000005    1    3    3    0    0 -0.23649484949E+01  0.39911902880E+02 -0.10886760930E+03  0.11598150425E+03  0.10000000000E+01 0.  0.
         21    1    1    2  502  501  0.21570387215E+02 -0.92237259884E+01  0.97971106980E+01  0.25423259109E+02  0.00000000000E+00 0. -1.
<mgrwt>
<rscale>  1 0.12718275E+03</rscale>
<asrwt>0</asrwt>
<pdfrwt beam="2">  1        4 0.20229282E-01 0.12718275E+03</pdfrwt>
<pdfrwt beam="1">  1       -4 0.77395516E-02 0.12718275E+03</pdfrwt>
<totfact> 0.41500480E+03</totfact>
</mgrwt>
</event>
<event>
 6    4  0.2271823E-003  0.1371787E+03  0.7818608E-02  0.1217176E+00
          4   -1    0    0  502    0  0.00000000000E+00  0.00000000000E+00  0.22995374550E+02  0.23030417944E+02  0.12700000000E+01 0.  1.
         -4   -1    0    0    0  501 -0.00000000000E+00 -0.00000000000E+00 -0.42606357879E+03  0.42606547158E+03  0.12700000000E+01 0.  1.
         25    2    1    2    0    0 -0.51840952763E+02  0.22496280143E+02 -0.23902983334E+03  0.27559616580E+03  0.12499767348E+03 0.  0.
    9000005    1    3    3    0    0 -0.48510702294E+01  0.12024223937E+02 -0.22509092728E+03  0.22546627328E+03  0.10000000000E+01 0.  0.
    9000005    1    3    3    0    0 -0.46989882533E+02  0.10472056206E+02 -0.13938906055E+02  0.50129892516E+02  0.10000000000E+01 0.  0.
         21    1    1    2  502  501  0.51840952763E+02 -0.22496280143E+02 -0.16403837091E+03  0.17349972373E+03  0.00000000000E+00 0.  1.
<mgrwt>
<rscale>  1 0.13717866E+03</rscale>
<asrwt>0</asrwt>
<pdfrwt beam="1">  1        4 0.35405915E-02 0.13717866E+03</pdfrwt>
<pdfrwt beam="2">  1       -4 0.65551078E-01 0.13717866E+03</pdfrwt>
<totfact> 0.15079272E+03</totfact>
</mgrwt>
</event>
<event>
 6    4  0.2271823E-003  0.1315698E+03  0.7818608E-02  0.1225145E+00
         -4   -1    0    0    0  501 -0.00000000000E+00  0.00000000000E+00  0.19977352506E+02  0.20017680014E+02  0.12700000000E+01 0. -1.
          4   -1    0    0  502    0  0.00000000000E+00 -0.00000000000E+00 -0.37674342923E+03  0.37674556980E+03  0.12700000000E+01 0. -1.
         25    2    1    2    0    0  0.31726312930E+02  0.26086498761E+02 -0.28865461875E+03  0.31722561686E+03  0.12499415473E+03 0.  0.
    9000005    1    3    3    0    0  0.26160527079E+02  0.67999485298E+02 -0.24829441248E+03  0.25876518013E+03  0.10000000000E+01 0.  0.
    9000005    1    3    3    0    0  0.55657858503E+01 -0.41912986537E+02 -0.40360206272E+02  0.58460436732E+02  0.10000000000E+01 0.  0.
         21    1    1    2  502  501 -0.31726312930E+02 -0.26086498761E+02 -0.68111457973E+02  0.79537632961E+02  0.00000000000E+00 0. -1.
<mgrwt>
<rscale>  1 0.13156977E+03</rscale>
<asrwt>0</asrwt>
<pdfrwt beam="2">  1        4 0.57963789E-01 0.13156977E+03</pdfrwt>
<pdfrwt beam="1">  1       -4 0.30767059E-02 0.13156977E+03</pdfrwt>
<totfact> 0.24154495E+03</totfact>
</mgrwt>
</event>
<event>
 6    4  0.2271823E-003  0.1305260E+03  0.7818608E-02  0.1226677E+00
          4   -1    0    0  502    0  0.00000000000E+00  0.00000000000E+00  0.26561969030E+02  0.26592312775E+02  0.12700000000E+01 0. -1.
         -4   -1    0    0    0  501 -0.00000000000E+00 -0.00000000000E+00 -0.28321296547E+03  0.28321581296E+03  0.12700000000E+01 0. -1.
         25    2    1    2    0    0 -0.37566183752E+02 -0.47609957844E+00 -0.16244819472E+03  0.20839011607E+03  0.12500231868E+03 0.  0.
    9000005    1    3    3    0    0 -0.63673258210E+02 -0.38243838910E+02 -0.13711229450E+03  0.15594119510E+03  0.10000000000E+01 0.  0.
    9000005    1    3    3    0    0  0.26107074457E+02  0.37767739332E+02 -0.25335900217E+02  0.52448920969E+02  0.10000000000E+01 0.  0.
         21    1    1    2  502  501  0.37566183752E+02  0.47609957844E+00 -0.94202801721E+02  0.10141800967E+03  0.00000000000E+00 0.  1.
<mgrwt>
<rscale>  1 0.13052595E+03</rscale>
<asrwt>0</asrwt>
<pdfrwt beam="1">  1        4 0.40890101E-02 0.13052595E+03</pdfrwt>
<pdfrwt beam="2">  1       -4 0.43573777E-01 0.13052595E+03</pdfrwt>
<totfact> 0.27530702E+03</totfact>
</mgrwt>
</event>
<event>
 6    4  0.2271823E-003  0.1297505E+03  0.7818608E-02  0.1227826E+00
          4   -1    0    0  502    0  0.00000000000E+00  0.00000000000E+00  0.50000747655E+03  0.50000908942E+03  0.12700000000E+01 0. -1.
         -4   -1    0    0    0  501 -0.00000000000E+00 -0.00000000000E+00 -0.45308499296E+02  0.45326294890E+02  0.12700000000E+01 0. -1.
         25    2    1    2    0    0 -0.34790517287E+02  0.26211841660E+00  0.48322686085E+03  0.50034328565E+03  0.12499902257E+03 0.  0.
    9000005    1    3    3    0    0 -0.27622701220E+02  0.30927643922E+02  0.45832158154E+02  0.61815204459E+02  0.10000000000E+01 0.  0.
    9000005    1    3    3    0    0 -0.71678160668E+01 -0.30665525505E+02  0.43739470270E+03  0.43852808119E+03  0.10000000000E+01 0.  0.
         21    1    1    2  502  501  0.34790517287E+02 -0.26211841660E+00 -0.28527883604E+02  0.44992098662E+02  0.00000000000E+00 0. -1.
<mgrwt>
<rscale>  1 0.12975055E+03</rscale>
<asrwt>0</asrwt>
<pdfrwt beam="1">  1        4 0.76925720E-01 0.12975055E+03</pdfrwt>
<pdfrwt beam="2">  1       -4 0.69720313E-02 0.12975055E+03</pdfrwt>
<totfact> 0.35493429E+02</totfact>
</mgrwt>
</event>
<event>
 6    4  0.2271823E-003  0.1285866E+03  0.7818608E-02  0.1229568E+00
          4   -1    0    0  502    0  0.00000000000E+00  0.00000000000E+00  0.15216529919E+03  0.15217059893E+03  0.12700000000E+01 0.  1.
         -4   -1    0    0    0  501 -0.00000000000E+00 -0.00000000000E+00 -0.41815544354E+02  0.41834825799E+02  0.12700000000E+01 0.  1.
         25    2    1    2    0    0  0.22053375380E+02 -0.20569985939E+02  0.96769756055E+02  0.16093138575E+03  0.12500019818E+03 0.  0.
    9000005    1    3    3    0    0  0.61998753683E+02 -0.29961719359E+02  0.98104867309E+02  0.11986290116E+03  0.10000000000E+01 0.  0.
    9000005    1    3    3    0    0 -0.39945378303E+02  0.93917334202E+01 -0.13351112549E+01  0.41068484589E+02  0.10000000000E+01 0.  0.
         21    1    1    2  502  501 -0.22053375380E+02  0.20569985939E+02  0.13579998781E+02  0.33074038974E+02  0.00000000000E+00 0.  1.
<mgrwt>
<rscale>  1 0.12858664E+03</rscale>
<asrwt>0</asrwt>
<pdfrwt beam="1">  1        4 0.23411937E-01 0.12858664E+03</pdfrwt>
<pdfrwt beam="2">  1       -4 0.64350516E-02 0.12858664E+03</pdfrwt>
<totfact> 0.43214977E+03</totfact>
</mgrwt>
</event>
<event>
 6    4  0.2271823E-003  0.1404536E+03  0.7818608E-02  0.1212720E+00
         -4   -1    0    0    0  501 -0.00000000000E+00  0.00000000000E+00  0.29297815876E+02  0.29325328900E+02  0.12700000000E+01 0.  1.
          4   -1    0    0  502    0  0.00000000000E+00 -0.00000000000E+00 -0.41027715806E+03  0.41027912368E+03  0.12700000000E+01 0.  1.
         25    2    1    2    0    0 -0.62319074001E+02  0.14787764321E+02 -0.32683300188E+03  0.35573448700E+03  0.12499947665E+03 0.  0.
    9000005    1    3    3    0    0 -0.47104819805E+02  0.36104218071E+02 -0.49848675158E+02  0.77513024882E+02  0.10000000000E+01 0.  0.
    9000005    1    3    3    0    0 -0.15214254196E+02 -0.21316453750E+02 -0.27698432672E+03  0.27822146212E+03  0.10000000000E+01 0.  0.
         21    1    1    2  502  501  0.62319074001E+02 -0.14787764321E+02 -0.54146340299E+02  0.83869965576E+02  0.00000000000E+00 0.  1.
<mgrwt>
<rscale>  1 0.14045360E+03</rscale>
<asrwt>0</asrwt>
<pdfrwt beam="2">  1        4 0.63121826E-01 0.14045360E+03</pdfrwt>
<pdfrwt beam="1">  1       -4 0.45096242E-02 0.14045360E+03</pdfrwt>
<totfact> 0.11180372E+03</totfact>
</mgrwt>
</event>
<event>
 6    4  0.2271823E-003  0.1269623E+03  0.7818608E-02  0.1232034E+00
          4   -1    0    0  502    0  0.00000000000E+00  0.00000000000E+00  0.59680597438E+02  0.59694108675E+02  0.12700000000E+01 0.  1.
         -4   -1    0    0    0  501 -0.00000000000E+00 -0.00000000000E+00 -0.11412193262E+03  0.11412899896E+03  0.12700000000E+01 0.  1.
         25    2    1    2    0    0 -0.21064235001E+02  0.71078386258E+01 -0.14075234832E+02  0.12774008014E+03  0.12500076989E+03 0.  0.
    9000005    1    3    3    0    0 -0.73014427548E+02  0.11269204167E+02 -0.15919427523E+02  0.75581279200E+02  0.10000000000E+01 0.  0.
    9000005    1    3    3    0    0  0.51950192547E+02 -0.41613655417E+01  0.18441926915E+01  0.52158800940E+02  0.10000000000E+01 0.  0.
         21    1    1    2  502  501  0.21064235001E+02 -0.71078386258E+01 -0.40366100347E+02  0.46083027497E+02  0.00000000000E+00 0.  1.
<mgrwt>
<rscale>  1 0.12696226E+03</rscale>
<asrwt>0</asrwt>
<pdfrwt beam="1">  1        4 0.91832133E-02 0.12696226E+03</pdfrwt>
<pdfrwt beam="2">  1       -4 0.17558803E-01 0.12696226E+03</pdfrwt>
<totfact> 0.40202335E+03</totfact>
</mgrwt>
</event>
<event>
 6    4  0.2271823E-003  0.1274140E+03  0.7818608E-02  0.1231344E+00
          4   -1    0    0  502    0  0.00000000000E+00  0.00000000000E+00  0.42041339300E+02  0.42060517236E+02  0.12700000000E+01 0. -1.
         -4   -1    0    0    0  501 -0.00000000000E+00 -0.00000000000E+00 -0.19945301699E+03  0.19945706026E+03  0.12700000000E+01 0. -1.
         25    2    1    2    0    0  0.22412545965E+02  0.10114752225E+02 -0.59603591271E+02  0.14066594291E+03  0.12501875449E+03 0.  0.
    9000005    1    3    3    0    0 -0.26626040810E+02 -0.40291126151E+02  0.26272565898E+00  0.48305174883E+02  0.10000000000E+01 0.  0.
    9000005    1    3    3    0    0  0.49038586775E+02  0.50405878376E+02 -0.59866316930E+02  0.92360768027E+02  0.10000000000E+01 0.  0.
         21    1    1    2  502  501 -0.22412545965E+02 -0.10114752225E+02 -0.97808086423E+02  0.10085163459E+03  0.00000000000E+00 0. -1.
<mgrwt>
<rscale>  1 0.12741397E+03</rscale>
<asrwt>0</asrwt>
<pdfrwt beam="1">  1        4 0.64696847E-02 0.12741397E+03</pdfrwt>
<pdfrwt beam="2">  1       -4 0.30686865E-01 0.12741397E+03</pdfrwt>
<totfact> 0.25836413E+03</totfact>
</mgrwt>
</event>
<event>
 6    4  0.2271823E-003  0.1276514E+03  0.7818608E-02  0.1230983E+00
          4   -1    0    0  502    0  0.00000000000E+00  0.00000000000E+00  0.62657967825E+03  0.62658096532E+03  0.12700000000E+01 0.  1.
         -4   -1    0    0    0  501 -0.00000000000E+00 -0.00000000000E+00 -0.10189458279E+02  0.10268298789E+02  0.12700000000E+01 0.  1.
         25    2    1    2    0    0  0.14293300352E+02  0.21576682370E+02  0.56582211601E+03  0.58004270819E+03  0.12500009879E+03 0.  0.
    9000005    1    3    3    0    0 -0.39017170114E+02  0.30004967433E+02  0.10385775969E+03  0.11493507681E+03  0.10000000000E+01 0.  0.
    9000005    1    3    3    0    0  0.53310470467E+02 -0.84282850631E+01  0.46196435632E+03  0.46510763137E+03  0.10000000000E+01 0.  0.
         21    1    1    2  502  501 -0.14293300352E+02 -0.21576682370E+02  0.50568103958E+02  0.56806555915E+02  0.00000000000E+00 0.  1.
<mgrwt>
<rscale>  1 0.12765139E+03</rscale>
<asrwt>0</asrwt>
<pdfrwt beam="1">  1        4 0.96403019E-01 0.12765139E+03</pdfrwt>
<pdfrwt beam="2">  1       -4 0.15737729E-02 0.12765139E+03</pdfrwt>
<totfact> 0.22260308E+03</totfact>
</mgrwt>
</event>
<event>
 6    4  0.2271823E-003  0.1319587E+03  0.7818608E-02  0.1224578E+00
         -4   -1    0    0    0  501 -0.00000000000E+00  0.00000000000E+00  0.16216378890E+02  0.16266033453E+02  0.12700000000E+01 0.  1.
          4   -1    0    0  502    0  0.00000000000E+00 -0.00000000000E+00 -0.48511296918E+03  0.48511463157E+03  0.12700000000E+01 0.  1.
         25    2    1    2    0    0  0.17987919224E+02 -0.38262153638E+02 -0.39217704189E+03  0.41378245303E+03  0.12500211441E+03 0.  0.
    9000005    1    3    3    0    0 -0.29422320352E+02  0.34346300108E+02 -0.13465019405E+03  0.14204582367E+03  0.10000000000E+01 0.  0.
    9000005    1    3    3    0    0  0.47410239576E+02 -0.72608453746E+02 -0.25752684784E+03  0.27173662935E+03  0.10000000000E+01 0.  0.
         21    1    1    2  502  501 -0.17987919224E+02  0.38262153638E+02 -0.76719548393E+02  0.87598211995E+02  0.00000000000E+00 0.  1.
<mgrwt>
<rscale>  1 0.13195865E+03</rscale>
<asrwt>0</asrwt>
<pdfrwt beam="2">  1        4 0.74636701E-01 0.13195865E+03</pdfrwt>
<pdfrwt beam="1">  1       -4 0.24987753E-02 0.13195865E+03</pdfrwt>
<totfact> 0.19501996E+03</totfact>
</mgrwt>
</event>
<event>
 6    4  0.2271823E-003  0.1273994E+03  0.7818608E-02  0.1231366E+00
          4   -1    0    0  502    0  0.00000000000E+00  0.00000000000E+00  0.37365412686E+02  0.37386989250E+02  0.12700000000E+01 0.  1.
         -4   -1    0    0    0  501 -0.00000000000E+00 -0.00000000000E+00 -0.15530875761E+03  0.15531395009E+03  0.12700000000E+01 0.  1.
         25    2    1    2    0    0 -0.16941967672E+02  0.17837729693E+02 -0.93561698722E+02  0.15806454892E+03  0.12500158115E+03 0.  0.
    9000005    1    3    3    0    0  0.48822987386E+01 -0.45639885471E+02 -0.75804604761E+02  0.88623778354E+02  0.10000000000E+01 0.  0.
    9000005    1    3    3    0    0 -0.21824266410E+02  0.63477615165E+02 -0.17757093961E+02  0.69440770569E+02  0.10000000000E+01 0.  0.
         21    1    1    2  502  501  0.16941967672E+02 -0.17837729693E+02 -0.24381646206E+02  0.34636390414E+02  0.00000000000E+00 0.  1.
<mgrwt>
<rscale>  1 0.12739941E+03</rscale>
<asrwt>0</asrwt>
<pdfrwt beam="1">  1        4 0.57505843E-02 0.12739941E+03</pdfrwt>
<pdfrwt beam="2">  1       -4 0.23895714E-01 0.12739941E+03</pdfrwt>
<totfact> 0.49854248E+03</totfact>
</mgrwt>
</event>
<event>
 6    4  0.2271823E-003  0.1296612E+03  0.7818608E-02  0.1227959E+00
         -4   -1    0    0    0  501 -0.00000000000E+00  0.00000000000E+00  0.83148968619E+02  0.83158666911E+02  0.12700000000E+01 0.  1.
          4   -1    0    0  502    0  0.00000000000E+00 -0.00000000000E+00 -0.12933193024E+03  0.12933816560E+03  0.12700000000E+01 0.  1.
         25    2    1    2    0    0 -0.27687612239E+02  0.20519907901E+02 -0.89197716860E+02  0.15737932476E+03  0.12499739469E+03 0.  0.
    9000005    1    3    3    0    0  0.21335890050E+02  0.53570458684E+02 -0.99852388162E+01  0.58529644130E+02  0.10000000000E+01 0.  0.
    9000005    1    3    3    0    0 -0.49023502289E+02 -0.33050550783E+02 -0.79212478044E+02  0.98849680635E+02  0.10000000000E+01 0.  0.
         21    1    1    2  502  501  0.27687612239E+02 -0.20519907901E+02  0.43014755237E+02  0.55117507744E+02  0.00000000000E+00 0.  1.
<mgrwt>
<rscale>  1 0.12966117E+03</rscale>
<asrwt>0</asrwt>
<pdfrwt beam="2">  1        4 0.19898446E-01 0.12966117E+03</pdfrwt>
<pdfrwt beam="1">  1       -4 0.12793375E-01 0.12966117E+03</pdfrwt>
<totfact> 0.18433000E+03</totfact>
</mgrwt>
</event>
<event>
 6    4  0.2271823E-003  0.1296603E+03  0.7818608E-02  0.1227961E+00
          4   -1    0    0  502    0  0.00000000000E+00  0.00000000000E+00  0.78215426840E+02  0.78225736786E+02  0.12700000000E+01 0. -1.
         -4   -1    0    0    0  501 -0.00000000000E+00 -0.00000000000E+00 -0.93119807714E+02  0.93128467660E+02  0.12700000000E+01 0. -1.
         25    2    1    2    0    0 -0.16454257253E+02 -0.30276368061E+02  0.81148983113E+01  0.12991402758E+03  0.12499760774E+03 0.  0.
    9000005    1    3    3    0    0  0.24173200507E+02  0.22026895404E+02 -0.37290190388E+02  0.49609334233E+02  0.10000000000E+01 0.  0.
    9000005    1    3    3    0    0 -0.40627457760E+02 -0.52303263465E+02  0.45405088700E+02  0.80304693343E+02  0.10000000000E+01 0.  0.
         21    1    1    2  502  501  0.16454257253E+02  0.30276368061E+02 -0.23019279186E+02  0.41440176869E+02  0.00000000000E+00 0. -1.
<mgrwt>
<rscale>  1 0.12966034E+03</rscale>
<asrwt>0</asrwt>
<pdfrwt beam="1">  1        4 0.12034602E-01 0.12966034E+03</pdfrwt>
<pdfrwt beam="2">  1       -4 0.14327584E-01 0.12966034E+03</pdfrwt>
<totfact> 0.36553416E+03</totfact>
</mgrwt>
</event>
<event>
 6    4  0.2271823E-003  0.1314720E+03  0.7818608E-02  0.1225288E+00
         -4   -1    0    0    0  501 -0.00000000000E+00  0.00000000000E+00  0.33890962233E+02  0.33914749315E+02  0.12700000000E+01 0. -1.
          4   -1    0    0  502    0  0.00000000000E+00 -0.00000000000E+00 -0.28896537563E+03  0.28896816643E+03  0.12700000000E+01 0. -1.
         25    2    1    2    0    0 -0.18464289735E+02 -0.36316332343E+02 -0.24915478070E+03  0.28171438357E+03  0.12500033269E+03 0.  0.
    9000005    1    3    3    0    0 -0.51698276293E+02 -0.24183619069E+02 -0.23778284672E+03  0.24453883413E+03  0.10000000000E+01 0.  0.
    9000005    1    3    3    0    0  0.33233986558E+02 -0.12132713274E+02 -0.11371933987E+02  0.37175549445E+02  0.10000000000E+01 0.  0.
         21    1    1    2  502  501  0.18464289735E+02  0.36316332343E+02 -0.59196326886E+01  0.41168532175E+02  0.00000000000E+00 0.  1.
<mgrwt>
<rscale>  1 0.13147201E+03</rscale>
<asrwt>0</asrwt>
<pdfrwt beam="2">  1        4 0.44458254E-01 0.13147201E+03</pdfrwt>
<pdfrwt beam="1">  1       -4 0.52160388E-02 0.13147201E+03</pdfrwt>
<totfact> 0.17948832E+03</totfact>
</mgrwt>
</event>
<event>
 6    4  0.2271823E-003  0.1379579E+03  0.7818608E-02  0.1216103E+00
         -4   -1    0    0    0  501 -0.00000000000E+00  0.00000000000E+00  0.16076584529E+03  0.16077086152E+03  0.12700000000E+01 0.  1.
          4   -1    0    0  502    0  0.00000000000E+00 -0.00000000000E+00 -0.64158078573E+02  0.64170647076E+02  0.12700000000E+01 0.  1.
         25    2    1    2    0    0 -0.57455778916E+02  0.10300000457E+02  0.40025322595E+02  0.14364680075E+03  0.12500048150E+03 0.  0.
    9000005    1    3    3    0    0  0.16489232620E+01 -0.12588995855E+01 -0.41899491465E+02  0.41962735386E+02  0.10000000000E+01 0.  0.
    9000005    1    3    3    0    0 -0.59104702178E+02  0.11558900043E+02  0.81924814060E+02  0.10168406536E+03  0.10000000000E+01 0.  0.
         21    1    1    2  502  501  0.57455778916E+02 -0.10300000457E+02  0.56582444124E+02  0.81294707843E+02  0.00000000000E+00 0.  1.
<mgrwt>
<rscale>  1 0.13795788E+03</rscale>
<asrwt>0</asrwt>
<pdfrwt beam="2">  1        4 0.98718262E-02 0.13795788E+03</pdfrwt>
<pdfrwt beam="1">  1       -4 0.24734560E-01 0.13795788E+03</pdfrwt>
<totfact> 0.19549319E+03</totfact>
</mgrwt>
</event>
<event>
 6    4  0.2271823E-003  0.1300973E+03  0.7818608E-02  0.1227311E+00
          4   -1    0    0  502    0  0.00000000000E+00  0.00000000000E+00  0.31509830999E+02  0.31535414213E+02  0.12700000000E+01 0.  1.
         -4   -1    0    0    0  501 -0.00000000000E+00 -0.00000000000E+00 -0.23010741945E+03  0.23011092409E+03  0.12700000000E+01 0.  1.
         25    2    1    2    0    0 -0.34782873602E+02  0.95493532524E+01 -0.17677980076E+03  0.21949121640E+03  0.12499703066E+03 0.  0.
    9000005    1    3    3    0    0 -0.49686643920E+02  0.16183551611E+01 -0.85976754748E+01  0.50460892591E+02  0.10000000000E+01 0.  0.
    9000005    1    3    3    0    0  0.14903770318E+02  0.79309980912E+01 -0.16818212528E+03  0.16903032380E+03  0.10000000000E+01 0.  0.
         21    1    1    2  502  501  0.34782873602E+02 -0.95493532524E+01 -0.21817787695E+02  0.42155121913E+02  0.00000000000E+00 0.  1.
<mgrwt>
<rscale>  1 0.13009726E+03</rscale>
<asrwt>0</asrwt>
<pdfrwt beam="1">  1        4 0.48499040E-02 0.13009726E+03</pdfrwt>
<pdfrwt beam="2">  1       -4 0.35403378E-01 0.13009726E+03</pdfrwt>
<totfact> 0.31479102E+03</totfact>
</mgrwt>
</event>
<event>
 6    4  0.2271823E-003  0.1304163E+03  0.7818608E-02  0.1226839E+00
         -4   -1    0    0    0  501 -0.00000000000E+00  0.00000000000E+00  0.65894072763E+03  0.65894195149E+03  0.12700000000E+01 0.  1.
          4   -1    0    0  502    0  0.00000000000E+00 -0.00000000000E+00 -0.11239865061E+02  0.11311386590E+02  0.12700000000E+01 0.  1.
         25    2    1    2    0    0 -0.27073133906E+02  0.25484539411E+02  0.42800368527E+03  0.44743218548E+03  0.12500395864E+03 0.  0.
    9000005    1    3    3    0    0  0.50320859345E+02  0.12581396812E+02  0.16331214010E+03  0.17135441499E+03  0.10000000000E+01 0.  0.
    9000005    1    3    3    0    0 -0.77393993251E+02  0.12903142599E+02  0.26469154517E+03  0.27607777050E+03  0.10000000000E+01 0.  0.
         21    1    1    2  502  501  0.27073133906E+02 -0.25484539411E+02  0.21969717730E+03  0.22282115259E+03  0.00000000000E+00 0.  1.
<mgrwt>
<rscale>  1 0.13041628E+03</rscale>
<asrwt>0</asrwt>
<pdfrwt beam="2">  1        4 0.17348046E-02 0.13041628E+03</pdfrwt>
<pdfrwt beam="1">  1       -4 0.10138116E+00 0.13041628E+03</pdfrwt>
<totfact> 0.17164970E+03</totfact>
</mgrwt>
</event>
<event>
 6    4  0.2271823E-003  0.1493545E+03  0.7818608E-02  0.1201268E+00
          4   -1    0    0  502    0  0.00000000000E+00  0.00000000000E+00  0.11727386730E+04  0.11727393606E+04  0.12700000000E+01 0.  1.
         -4   -1    0    0    0  501 -0.00000000000E+00 -0.00000000000E+00 -0.23940957480E+02  0.23974618767E+02  0.12700000000E+01 0.  1.
         25    2    1    2    0    0  0.29633834568E+02 -0.76178215966E+02  0.10788278422E+04  0.10891171955E+04  0.12500187066E+03 0.  0.
    9000005    1    3    3    0    0  0.28889524991E+02 -0.81692153450E+02  0.36055915182E+03  0.37082625925E+03  0.10000000000E+01 0.  0.
    9000005    1    3    3    0    0  0.74430957769E+00  0.55139374840E+01  0.71826869039E+03  0.71829093625E+03  0.10000000000E+01 0.  0.
         21    1    1    2  502  501 -0.29633834568E+02  0.76178215966E+02  0.69969873283E+02  0.10759678390E+03  0.00000000000E+00 0.  1.
<mgrwt>
<rscale>  1 0.14935445E+03</rscale>
<asrwt>0</asrwt>
<pdfrwt beam="1">  1        4 0.18042399E+00 0.14935445E+03</pdfrwt>
<pdfrwt beam="2">  1       -4 0.36858662E-02 0.14935445E+03</pdfrwt>
<totfact> 0.12945378E+02</totfact>
</mgrwt>
</event>
<event>
 6    4  0.2271823E-003  0.1297987E+03  0.7818608E-02  0.1227755E+00
          4   -1    0    0  502    0  0.00000000000E+00  0.00000000000E+00  0.85906715706E+01  0.86840392695E+01  0.12700000000E+01 0. -1.
         -4   -1    0    0    0  501 -0.00000000000E+00 -0.00000000000E+00 -0.84514493279E+03  0.84514588700E+03  0.12700000000E+01 0. -1.
         25    2    1    2    0    0  0.57282595107E+01  0.34498605754E+02 -0.54789730144E+03  0.56306230912E+03  0.12499897708E+03 0.  0.
    9000005    1    3    3    0    0  0.35909802417E+02  0.14849756651E+02 -0.47537839330E+02  0.61407453541E+02  0.10000000000E+01 0.  0.
    9000005    1    3    3    0    0 -0.30181542907E+02  0.19648849102E+02 -0.50035946211E+03  0.50165485558E+03  0.10000000000E+01 0.  0.
         21    1    1    2  502  501 -0.57282595107E+01 -0.34498605754E+02 -0.28865695978E+03  0.29076761716E+03  0.00000000000E+00 0. -1.
<mgrwt>
<rscale>  1 0.12979873E+03</rscale>
<asrwt>0</asrwt>
<pdfrwt beam="1">  1        4 0.13288980E-02 0.12979873E+03</pdfrwt>
<pdfrwt beam="2">  1       -4 0.13002949E+00 0.12979873E+03</pdfrwt>
<totfact> 0.14240277E+03</totfact>
</mgrwt>
</event>
<event>
 6    4  0.2271823E-003  0.1288329E+03  0.7818608E-02  0.1229198E+00
         -4   -1    0    0    0  501 -0.00000000000E+00  0.00000000000E+00  0.31937993266E+03  0.31938245770E+03  0.12700000000E+01 0. -1.
          4   -1    0    0  502    0  0.00000000000E+00 -0.00000000000E+00 -0.29993036680E+02  0.30019912546E+02  0.12700000000E+01 0. -1.
         25    2    1    2    0    0  0.29959620156E+02 -0.87176600260E+01  0.11641458503E+03  0.17363833299E+03  0.12499735453E+03 0.  0.
    9000005    1    3    3    0    0  0.83318999133E+01 -0.61468883619E+02  0.27159330887E+02  0.67723507468E+02  0.10000000000E+01 0.  0.
    9000005    1    3    3    0    0  0.21627720242E+02  0.52751223593E+02  0.89255254139E+02  0.10591482552E+03  0.10000000000E+01 0.  0.
         21    1    1    2  502  501 -0.29959620156E+02  0.87176600260E+01  0.17297231096E+03  0.17576403726E+03  0.00000000000E+00 0.  1.
<mgrwt>
<rscale>  1 0.12883290E+03</rscale>
<asrwt>0</asrwt>
<pdfrwt beam="2">  1        4 0.46165752E-02 0.12883290E+03</pdfrwt>
<pdfrwt beam="1">  1       -4 0.49137633E-01 0.12883290E+03</pdfrwt>
<totfact> 0.17765702E+03</totfact>
</mgrwt>
</event>
<event>
 6    4  0.2271823E-003  0.1278529E+03  0.7818608E-02  0.1230677E+00
          4   -1    0    0  502    0  0.00000000000E+00  0.00000000000E+00  0.21825050481E+01  0.25251194595E+01  0.12700000000E+01 0.  1.
         -4   -1    0    0    0  501 -0.00000000000E+00 -0.00000000000E+00 -0.26829743340E+04  0.26829746346E+04  0.12700000000E+01 0.  1.
         25    2    1    2    0    0  0.20663002754E+02 -0.17161408478E+02 -0.19316654834E+04  0.19358920198E+04  0.12499959586E+03 0.  0.
    9000005    1    3    3    0    0 -0.99956419489E+01  0.85456635761E+01 -0.17419947343E+04  0.17420446595E+04  0.10000000000E+01 0.  0.
    9000005    1    3    3    0    0  0.30658644703E+02 -0.25707072054E+02 -0.18967074906E+03  0.19384736030E+03  0.10000000000E+01 0.  0.
         21    1    1    2  502  501 -0.20663002754E+02  0.17161408478E+02 -0.74912634553E+03  0.74960773422E+03  0.00000000000E+00 0.  1.
<mgrwt>
<rscale>  1 0.12785293E+03</rscale>
<asrwt>0</asrwt>
<pdfrwt beam="1">  1        4 0.36215023E-03 0.12785293E+03</pdfrwt>
<pdfrwt beam="2">  1       -4 0.41278921E+00 0.12785293E+03</pdfrwt>
<totfact> 0.16796673E+02</totfact>
</mgrwt>
</event>
<event>
 6    4  0.2271823E-003  0.1618748E+03  0.7818608E-02  0.1186596E+00
          4   -1    0    0  502    0  0.00000000000E+00  0.00000000000E+00  0.17205677693E+03  0.17206146398E+03  0.12700000000E+01 0. -1.
         -4   -1    0    0    0  501 -0.00000000000E+00 -0.00000000000E+00 -0.11052040971E+03  0.11052770631E+03  0.12700000000E+01 0. -1.
         25    2    1    2    0    0  0.47787315472E+02 -0.91083314163E+02  0.75806475038E+02  0.17874585748E+03  0.12499464896E+03 0.  0.
    9000005    1    3    3    0    0 -0.81474428880E+01  0.19953095058E+02  0.46120566657E+02  0.50917712996E+02  0.10000000000E+01 0.  0.
    9000005    1    3    3    0    0  0.55934758360E+02 -0.11103640922E+03  0.29685908381E+02  0.12782814448E+03  0.10000000000E+01 0.  0.
         21    1    1    2  502  501 -0.47787315472E+02  0.91083314163E+02 -0.14270107823E+02  0.10384331281E+03  0.00000000000E+00 0. -1.
<mgrwt>
<rscale>  1 0.16187483E+03</rscale>
<asrwt>0</asrwt>
<pdfrwt beam="1">  1        4 0.26471195E-01 0.16187483E+03</pdfrwt>
<pdfrwt beam="2">  1       -4 0.17004062E-01 0.16187483E+03</pdfrwt>
<totfact> 0.69653191E+02</totfact>
</mgrwt>
</event>
<event>
 6    4  0.2271823E-003  0.1275625E+03  0.7818608E-02  0.1231118E+00
         -4   -1    0    0    0  501 -0.00000000000E+00  0.00000000000E+00  0.76607495153E+02  0.76618021468E+02  0.12700000000E+01 0.  1.
          4   -1    0    0  502    0  0.00000000000E+00 -0.00000000000E+00 -0.79134298543E+02  0.79144488790E+02  0.12700000000E+01 0.  1.
         25    2    1    2    0    0 -0.70764415652E+01 -0.24437952577E+02 -0.13053987381E+02  0.12822869189E+03  0.12499960514E+03 0.  0.
    9000005    1    3    3    0    0 -0.54183643058E+02 -0.46068050124E+02  0.93691607873E+01  0.71741993220E+02  0.10000000000E+01 0.  0.
    9000005    1    3    3    0    0  0.47107201493E+02  0.21630097547E+02 -0.22423148168E+02  0.56486698666E+02  0.10000000000E+01 0.  0.
         21    1    1    2  502  501  0.70764415652E+01  0.24437952577E+02  0.10527183991E+02  0.27533818372E+02  0.00000000000E+00 0. -1.
<mgrwt>
<rscale>  1 0.12756250E+03</rscale>
<asrwt>0</asrwt>
<pdfrwt beam="2">  1        4 0.12176101E-01 0.12756250E+03</pdfrwt>
<pdfrwt beam="1">  1       -4 0.11787362E-01 0.12756250E+03</pdfrwt>
<totfact> 0.49927849E+03</totfact>
</mgrwt>
</event>
<event>
 6    4  0.2271823E-003  0.1278656E+03  0.7818608E-02  0.1230658E+00
         -4   -1    0    0    0  501 -0.00000000000E+00  0.00000000000E+00  0.82008006500E+01  0.82985559768E+01  0.12700000000E+01 0.  1.
          4   -1    0    0  502    0  0.00000000000E+00 -0.00000000000E+00 -0.85188161883E+03  0.85188256549E+03  0.12700000000E+01 0.  1.
         25    2    1    2    0    0  0.91724717464E+01 -0.25308640771E+02 -0.78831731687E+03  0.79861994205E+03  0.12499983287E+03 0.  0.
    9000005    1    3    3    0    0  0.73646024210E+01 -0.41470187014E+02 -0.82688327600E+02  0.92802873345E+02  0.10000000000E+01 0.  0.
    9000005    1    3    3    0    0  0.18078693254E+01  0.16161546243E+02 -0.70562898927E+03  0.70581706870E+03  0.10000000000E+01 0.  0.
         21    1    1    2  502  501 -0.91724717464E+01  0.25308640771E+02 -0.55363501303E+02  0.61561179424E+02  0.00000000000E+00 0.  1.
<mgrwt>
<rscale>  1 0.12786563E+03</rscale>
<asrwt>0</asrwt>
<pdfrwt beam="2">  1        4 0.13106623E+00 0.12786563E+03</pdfrwt>
<pdfrwt beam="1">  1       -4 0.12692548E-02 0.12786563E+03</pdfrwt>
<totfact> 0.14924160E+03</totfact>
</mgrwt>
</event>
<event>
 6    4  0.2271823E-003  0.1297603E+03  0.7818608E-02  0.1227812E+00
         -4   -1    0    0    0  501 -0.00000000000E+00  0.00000000000E+00  0.11579945577E+03  0.11580641975E+03  0.12700000000E+01 0. -1.
          4   -1    0    0  502    0  0.00000000000E+00 -0.00000000000E+00 -0.58600231425E+02  0.58613991700E+02  0.12700000000E+01 0. -1.
         25    2    1    2    0    0  0.32461827452E+02 -0.12620041299E+02  0.41673988689E+02  0.13628815967E+03  0.12499882179E+03 0.  0.
    9000005    1    3    3    0    0  0.30556669002E+02  0.82557604793E+01 -0.40537217749E+02  0.51440583438E+02  0.10000000000E+01 0.  0.
    9000005    1    3    3    0    0  0.19051584504E+01 -0.20875801778E+02  0.82211206438E+02  0.84847576232E+02  0.10000000000E+01 0.  0.
         21    1    1    2  502  501 -0.32461827452E+02  0.12620041299E+02  0.15525235653E+02  0.38132251783E+02  0.00000000000E+00 0. -1.
<mgrwt>
<rscale>  1 0.12976032E+03</rscale>
<asrwt>0</asrwt>
<pdfrwt beam="2">  1        4 0.90170144E-02 0.12976032E+03</pdfrwt>
<pdfrwt beam="1">  1       -4 0.17816895E-01 0.12976032E+03</pdfrwt>
<totfact> 0.40608012E+03</totfact>
</mgrwt>
</event>
<event>
 6    4  0.2271823E-003  0.1311108E+03  0.7818608E-02  0.1225817E+00
         -4   -1    0    0    0  501 -0.00000000000E+00  0.00000000000E+00  0.20383963664E+02  0.20423488308E+02  0.12700000000E+01 0. -1.
          4   -1    0    0  502    0  0.00000000000E+00 -0.00000000000E+00 -0.36283506621E+03  0.36283728884E+03  0.12700000000E+01 0. -1.
         25    2    1    2    0    0 -0.13056895730E+02  0.37355896554E+02 -0.24082388774E+03  0.27420099389E+03  0.12499637840E+03 0.  0.
    9000005    1    3    3    0    0 -0.11674243834E+02  0.75435133341E+02 -0.87089559212E+02  0.11581165155E+03  0.10000000000E+01 0.  0.
    9000005    1    3    3    0    0 -0.13826518955E+01 -0.38079236786E+02 -0.15373432853E+03  0.15838934234E+03  0.10000000000E+01 0.  0.
         21    1    1    2  502  501  0.13056895730E+02 -0.37355896554E+02 -0.10162721481E+03  0.10905978325E+03  0.00000000000E+00 0. -1.
<mgrwt>
<rscale>  1 0.13111079E+03</rscale>
<asrwt>0</asrwt>
<pdfrwt beam="2">  1        4 0.55823986E-01 0.13111079E+03</pdfrwt>
<pdfrwt beam="1">  1       -4 0.31392060E-02 0.13111079E+03</pdfrwt>
<totfact> 0.25288002E+03</totfact>
</mgrwt>
</event>
<event>
 6    4  0.2271823E-003  0.1311826E+03  0.7818608E-02  0.1225711E+00
         -4   -1    0    0    0  501 -0.00000000000E+00  0.00000000000E+00  0.81349893089E+02  0.81359805836E+02  0.12700000000E+01 0. -1.
          4   -1    0    0  502    0  0.00000000000E+00 -0.00000000000E+00 -0.96591939499E+02  0.96600288178E+02  0.12700000000E+01 0. -1.
         25    2    1    2    0    0 -0.32600559920E+02 -0.22850743510E+02  0.87569386879E+01  0.13147456646E+03  0.12499569859E+03 0.  0.
    9000005    1    3    3    0    0 -0.58863241530E+02 -0.53029044196E+02  0.31707371198E+02  0.85342358299E+02  0.10000000000E+01 0.  0.
    9000005    1    3    3    0    0  0.26262681610E+02  0.30178300686E+02 -0.22950432510E+02  0.46132208164E+02  0.10000000000E+01 0.  0.
         21    1    1    2  502  501  0.32600559920E+02  0.22850743510E+02 -0.23998985098E+02  0.46485527552E+02  0.00000000000E+00 0. -1.
<mgrwt>
<rscale>  1 0.13118261E+03</rscale>
<asrwt>0</asrwt>
<pdfrwt beam="2">  1        4 0.14861703E-01 0.13118261E+03</pdfrwt>
<pdfrwt beam="1">  1       -4 0.12516773E-01 0.13118261E+03</pdfrwt>
<totfact> 0.32158115E+03</totfact>
</mgrwt>
</event>
<event>
 6    4  0.2271823E-003  0.1345567E+03  0.7818608E-02  0.1220847E+00
          4   -1    0    0  502    0  0.00000000000E+00  0.00000000000E+00  0.16765349066E+02  0.16813382447E+02  0.12700000000E+01 0.  1.
         -4   -1    0    0    0  501 -0.00000000000E+00 -0.00000000000E+00 -0.51510496564E+03  0.51510653124E+03  0.12700000000E+01 0.  1.
         25    2    1    2    0    0 -0.46037652494E+02 -0.19011818776E+02 -0.33037278308E+03  0.35672353286E+03  0.12499835358E+03 0.  0.
    9000005    1    3    3    0    0  0.10118851707E+02  0.34995415236E+02 -0.32504276268E+02  0.48832348122E+02  0.10000000000E+01 0.  0.
    9000005    1    3    3    0    0 -0.56156504201E+02 -0.54007234012E+02 -0.29786850681E+03  0.30789118474E+03  0.10000000000E+01 0.  0.
         21    1    1    2  502  501  0.46037652494E+02  0.19011818776E+02 -0.16796683349E+03  0.17519638082E+03  0.00000000000E+00 0. -1.
<mgrwt>
<rscale>  1 0.13455669E+03</rscale>
<asrwt>0</asrwt>
<pdfrwt beam="1">  1        4 0.25831002E-02 0.13455669E+03</pdfrwt>
<pdfrwt beam="2">  1       -4 0.79250721E-01 0.13455669E+03</pdfrwt>
<totfact> 0.16307283E+03</totfact>
</mgrwt>
</event>
<event>
 6    4  0.2271823E-003  0.1277166E+03  0.7818608E-02  0.1230884E+00
          4   -1    0    0  502    0  0.00000000000E+00  0.00000000000E+00  0.26961054505E+03  0.26961353620E+03  0.12700000000E+01 0.  1.
         -4   -1    0    0    0  501 -0.00000000000E+00 -0.00000000000E+00 -0.22137840633E+02  0.22174239285E+02  0.12700000000E+01 0.  1.
         25    2    1    2    0    0  0.75158246717E+01 -0.25083438206E+02  0.21499623863E+03  0.25006982583E+03  0.12500347466E+03 0.  0.
    9000005    1    3    3    0    0 -0.22765462620E+02  0.44298591830E+02  0.63492195207E+02  0.80702480622E+02  0.10000000000E+01 0.  0.
    9000005    1    3    3    0    0  0.30281287292E+02 -0.69382030035E+02  0.15150404342E+03  0.16936734521E+03  0.10000000000E+01 0.  0.
         21    1    1    2  502  501 -0.75158246717E+01  0.25083438206E+02  0.32476465791E+02  0.41717949649E+02  0.00000000000E+00 0.  1.
<mgrwt>
<rscale>  1 0.12771662E+03</rscale>
<asrwt>0</asrwt>
<pdfrwt beam="1">  1        4 0.41481574E-01 0.12771662E+03</pdfrwt>
<pdfrwt beam="2">  1       -4 0.34088517E-02 0.12771662E+03</pdfrwt>
<totfact> 0.40257048E+03</totfact>
</mgrwt>
</event>
<event>
 6    4  0.2271823E-003  0.1300624E+03  0.7818608E-02  0.1227363E+00
         -4   -1    0    0    0  501 -0.00000000000E+00  0.00000000000E+00  0.10662003502E+03  0.10662759852E+03  0.12700000000E+01 0.  1.
          4   -1    0    0  502    0  0.00000000000E+00 -0.00000000000E+00 -0.65541804670E+02  0.65554107876E+02  0.12700000000E+01 0.  1.
         25    2    1    2    0    0 -0.58222020433E+01 -0.35408014722E+02  0.23290075725E+02  0.13213118845E+03  0.12501439033E+03 0.  0.
    9000005    1    3    3    0    0 -0.45584722324E+02  0.26504940514E+02 -0.56817875861E+01  0.53044900708E+02  0.10000000000E+01 0.  0.
    9000005    1    3    3    0    0  0.39762520281E+02 -0.61912955236E+02  0.28971863312E+02  0.79086287742E+02  0.10000000000E+01 0.  0.
         21    1    1    2  502  501  0.58222020433E+01  0.35408014722E+02  0.17788154620E+02  0.40050517949E+02  0.00000000000E+00 0.  1.
<mgrwt>
<rscale>  1 0.13006238E+03</rscale>
<asrwt>0</asrwt>
<pdfrwt beam="2">  1        4 0.10084883E-01 0.13006238E+03</pdfrwt>
<pdfrwt beam="1">  1       -4 0.16404610E-01 0.13006238E+03</pdfrwt>
<totfact> 0.38968721E+03</totfact>
</mgrwt>
</event>
<event>
 6    4  0.2271823E-003  0.1286022E+03  0.7818608E-02  0.1229545E+00
         -4   -1    0    0    0  501 -0.00000000000E+00  0.00000000000E+00  0.43956990909E+01  0.45754858210E+01  0.12700000000E+01 0. -1.
          4   -1    0    0  502    0  0.00000000000E+00 -0.00000000000E+00 -0.16982546147E+04  0.16982550896E+04  0.12700000000E+01 0. -1.
         25    2    1    2    0    0  0.27006032184E+02 -0.13557771356E+02 -0.15731118415E+04  0.15783597159E+04  0.12500155279E+03 0.  0.
    9000005    1    3    3    0    0  0.13679794714E+02 -0.39689329175E+02 -0.17602409652E+03  0.18096370406E+03  0.10000000000E+01 0.  0.
    9000005    1    3    3    0    0  0.13326237470E+02  0.26131557818E+02 -0.13970877450E+04  0.13973960119E+04  0.10000000000E+01 0.  0.
         21    1    1    2  502  501 -0.27006032184E+02  0.13557771356E+02 -0.12074707414E+03  0.12447085945E+03  0.00000000000E+00 0. -1.
<mgrwt>
<rscale>  1 0.12860221E+03</rscale>
<asrwt>0</asrwt>
<pdfrwt beam="2">  1        4 0.26128329E+00 0.12860221E+03</pdfrwt>
<pdfrwt beam="1">  1       -4 0.69012903E-03 0.12860221E+03</pdfrwt>
<totfact> 0.53591378E+02</totfact>
</mgrwt>
</event>
<event>
 6    4  0.2271823E-003  0.1348659E+03  0.7818608E-02  0.1220409E+00
          4   -1    0    0  502    0  0.00000000000E+00  0.00000000000E+00  0.17219651512E+04  0.17219656196E+04  0.12700000000E+01 0. -1.
         -4   -1    0    0    0  501 -0.00000000000E+00 -0.00000000000E+00 -0.50961022073E+01  0.52519670322E+01  0.12700000000E+01 0. -1.
         25    2    1    2    0    0 -0.36192667101E+02  0.35363743865E+02  0.10905196916E+04  0.10988275635E+04  0.12501325166E+03 0.  0.
    9000005    1    3    3    0    0 -0.36260022381E+02 -0.37506582559E+02  0.26438107722E+03  0.26948077288E+03  0.10000000000E+01 0.  0.
    9000005    1    3    3    0    0  0.67355280331E-01  0.72870326424E+02  0.82613861437E+03  0.82934679065E+03  0.10000000000E+01 0.  0.
         21    1    1    2  502  501  0.36192667101E+02 -0.35363743865E+02  0.62634935745E+03  0.62839002308E+03  0.00000000000E+00 0.  1.
<mgrwt>
<rscale>  1 0.13486592E+03</rscale>
<asrwt>0</asrwt>
<pdfrwt beam="1">  1        4 0.26492970E+00 0.13486592E+03</pdfrwt>
<pdfrwt beam="2">  1       -4 0.79604148E-03 0.13486592E+03</pdfrwt>
<totfact> 0.41583494E+02</totfact>
</mgrwt>
</event>
<event>
 6    4  0.2271823E-003  0.1399680E+03  0.7818608E-02  0.1213372E+00
         -4   -1    0    0    0  501 -0.00000000000E+00  0.00000000000E+00  0.17057291597E+03  0.17057764379E+03  0.12700000000E+01 0.  1.
          4   -1    0    0  502    0  0.00000000000E+00 -0.00000000000E+00 -0.71611243205E+02  0.71622503819E+02  0.12700000000E+01 0.  1.
         25    2    1    2    0    0 -0.33665534884E+02 -0.53223759856E+02  0.20297317151E+02  0.14143200931E+03  0.12499958129E+03 0.  0.
    9000005    1    3    3    0    0  0.33689008997E+02  0.17778132866E+02 -0.92220360964E+01  0.39205322153E+02  0.10000000000E+01 0.  0.
    9000005    1    3    3    0    0 -0.67354543881E+02 -0.71001892722E+02  0.29519353248E+02  0.10222668716E+03  0.10000000000E+01 0.  0.
         21    1    1    2  502  501  0.33665534884E+02  0.53223759856E+02  0.78664355609E+02  0.10076813830E+03  0.00000000000E+00 0.  1.
<mgrwt>
<rscale>  1 0.13996797E+03</rscale>
<asrwt>0</asrwt>
<pdfrwt beam="2">  1        4 0.11018344E-01 0.13996797E+03</pdfrwt>
<pdfrwt beam="1">  1       -4 0.26243217E-01 0.13996797E+03</pdfrwt>
<totfact> 0.14593836E+03</totfact>
</mgrwt>
</event>
<event>
 6    4  0.2271823E-003  0.1269528E+03  0.7818608E-02  0.1232049E+00
         -4   -1    0    0    0  501 -0.00000000000E+00  0.00000000000E+00  0.67070163098E+03  0.67070283338E+03  0.12700000000E+01 0.  1.
          4   -1    0    0  502    0  0.00000000000E+00 -0.00000000000E+00 -0.84718809055E+01  0.85665434147E+01  0.12700000000E+01 0.  1.
         25    2    1    2    0    0 -0.15262856304E+02 -0.16112795741E+02  0.51730903805E+03  0.53265904379E+03  0.12499775643E+03 0.  0.
    9000005    1    3    3    0    0 -0.26995582460E+02 -0.27947188111E+02  0.51421279375E+03  0.51567974950E+03  0.10000000000E+01 0.  0.
    9000005    1    3    3    0    0  0.11732726156E+02  0.11834392369E+02  0.30962443092E+01  0.16979294291E+02  0.10000000000E+01 0.  0.
         21    1    1    2  502  501  0.15262856304E+02  0.16112795741E+02  0.14492071202E+03  0.14661033300E+03  0.00000000000E+00 0.  1.
<mgrwt>
<rscale>  1 0.12695281E+03</rscale>
<asrwt>0</asrwt>
<pdfrwt beam="2">  1        4 0.13107398E-02 0.12695281E+03</pdfrwt>
<pdfrwt beam="1">  1       -4 0.10319230E+00 0.12695281E+03</pdfrwt>
<totfact> 0.25091749E+03</totfact>
</mgrwt>
</event>
<event>
 6    4  0.2271823E-003  0.1270044E+03  0.7818608E-02  0.1231970E+00
          4   -1    0    0  502    0  0.00000000000E+00  0.00000000000E+00  0.46839387060E+01  0.48530590149E+01  0.12700000000E+01 0.  1.
         -4   -1    0    0    0  501 -0.00000000000E+00 -0.00000000000E+00 -0.12520905437E+04  0.12520911878E+04  0.12700000000E+01 0.  1.
         25    2    1    2    0    0 -0.12330046303E+01  0.22452873783E+02 -0.91421253127E+03  0.92299224036E+03  0.12499788632E+03 0.  0.
    9000005    1    3    3    0    0 -0.59061794652E+02 -0.59027598709E+01 -0.33612583977E+03  0.34132787510E+03  0.10000000000E+01 0.  0.
    9000005    1    3    3    0    0  0.57828790021E+02  0.28355633654E+02 -0.57808669150E+03  0.58166436526E+03  0.10000000000E+01 0.  0.
         21    1    1    2  502  501  0.12330046303E+01 -0.22452873783E+02 -0.33319407376E+03  0.33395200648E+03  0.00000000000E+00 0.  1.
<mgrwt>
<rscale>  1 0.12700442E+03</rscale>
<asrwt>0</asrwt>
<pdfrwt beam="1">  1        4 0.73366575E-03 0.12700442E+03</pdfrwt>
<pdfrwt beam="2">  1       -4 0.19264211E+00 0.12700442E+03</pdfrwt>
<totfact> 0.12464707E+03</totfact>
</mgrwt>
</event>
<event>
 6    4  0.2271823E-003  0.1493177E+03  0.7818608E-02  0.1201314E+00
         -4   -1    0    0    0  501 -0.00000000000E+00  0.00000000000E+00  0.13544248281E+03  0.13544843687E+03  0.12700000000E+01 0. -1.
          4   -1    0    0  502    0  0.00000000000E+00 -0.00000000000E+00 -0.14468150401E+03  0.14468707787E+03  0.12700000000E+01 0. -1.
         25    2    1    2    0    0 -0.75867464766E+02 -0.30235160431E+02 -0.82350646103E+02  0.17052097723E+03  0.12500295047E+03 0.  0.
    9000005    1    3    3    0    0  0.29923195285E+02 -0.10673284580E+02 -0.48021748876E+02  0.57588236515E+02  0.10000000000E+01 0.  0.
    9000005    1    3    3    0    0 -0.10579066005E+03 -0.19561875851E+02 -0.34328897227E+02  0.11293274072E+03  0.10000000000E+01 0.  0.
         21    1    1    2  502  501  0.75867464766E+02  0.30235160431E+02  0.73111624901E+02  0.10961453750E+03  0.00000000000E+00 0. -1.
<mgrwt>
<rscale>  1 0.14931770E+03</rscale>
<asrwt>0</asrwt>
<pdfrwt beam="2">  1        4 0.22259580E-01 0.14931770E+03</pdfrwt>
<pdfrwt beam="1">  1       -4 0.20838192E-01 0.14931770E+03</pdfrwt>
<totfact> 0.65579130E+02</totfact>
</mgrwt>
</event>
<event>
 6    4  0.2271823E-003  0.1304648E+03  0.7818608E-02  0.1226768E+00
         -4   -1    0    0    0  501 -0.00000000000E+00  0.00000000000E+00  0.39458753157E+02  0.39479185664E+02  0.12700000000E+01 0.  1.
          4   -1    0    0  502    0  0.00000000000E+00 -0.00000000000E+00 -0.25410011704E+03  0.25410329077E+03  0.12700000000E+01 0.  1.
         25    2    1    2    0    0 -0.31590100472E+02 -0.19955965153E+02 -0.22005919856E+03  0.25582631236E+03  0.12499950492E+03 0.  0.
    9000005    1    3    3    0    0 -0.90950680862E+01  0.23435198221E+02 -0.20223289882E+03  0.20379174209E+03  0.10000000000E+01 0.  0.
    9000005    1    3    3    0    0 -0.22495032386E+02 -0.43391163374E+02 -0.17826299746E+02  0.52034570274E+02  0.10000000000E+01 0.  0.
         21    1    1    2  502  501  0.31590100472E+02  0.19955965153E+02  0.54178346777E+01  0.37756164074E+02  0.00000000000E+00 0.  1.
<mgrwt>
<rscale>  1 0.13046475E+03</rscale>
<asrwt>0</asrwt>
<pdfrwt beam="2">  1        4 0.39094140E-01 0.13046475E+03</pdfrwt>
<pdfrwt beam="1">  1       -4 0.60723934E-02 0.13046475E+03</pdfrwt>
<totfact> 0.18070383E+03</totfact>
</mgrwt>
</event>
<event>
 6    4  0.2271823E-003  0.1273764E+03  0.7818608E-02  0.1231401E+00
          4   -1    0    0  502    0  0.00000000000E+00  0.00000000000E+00  0.51848169755E+02  0.51863721492E+02  0.12700000000E+01 0.  1.
         -4   -1    0    0    0  501 -0.00000000000E+00 -0.00000000000E+00 -0.11949589176E+03  0.11950264034E+03  0.12700000000E+01 0.  1.
         25    2    1    2    0    0 -0.18460627963E+02 -0.16090530288E+02 -0.38023154657E+02  0.13293050695E+03  0.12500023775E+03 0.  0.
    9000005    1    3    3    0    0  0.23296984661E+02 -0.58873863642E+02 -0.24809931645E+01  0.63372207169E+02  0.10000000000E+01 0.  0.
    9000005    1    3    3    0    0 -0.41757612624E+02  0.42783333354E+02 -0.35542161492E+02  0.69558299782E+02  0.10000000000E+01 0.  0.
         21    1    1    2  502  501  0.18460627963E+02  0.16090530288E+02 -0.29624567351E+02  0.38435854882E+02  0.00000000000E+00 0. -1.
<mgrwt>
<rscale>  1 0.12737645E+03</rscale>
<asrwt>0</asrwt>
<pdfrwt beam="1">  1        4 0.79783569E-02 0.12737645E+03</pdfrwt>
<pdfrwt beam="2">  1       -4 0.18385699E-01 0.12737645E+03</pdfrwt>
<totfact> 0.46845936E+03</totfact>
</mgrwt>
</event>
<event>
 6    4  0.2271823E-003  0.1271646E+03  0.7818608E-02  0.1231725E+00
          4   -1    0    0  502    0  0.00000000000E+00  0.00000000000E+00  0.80937854903E+01  0.81928178036E+01  0.12700000000E+01 0. -1.
         -4   -1    0    0    0  501 -0.00000000000E+00 -0.00000000000E+00 -0.72086859306E+03  0.72086971178E+03  0.12700000000E+01 0. -1.
         25    2    1    2    0    0  0.21912220368E+02  0.82454377594E+01 -0.64332166240E+03  0.65576947385E+03  0.12499083514E+03 0.  0.
    9000005    1    3    3    0    0 -0.23486303530E+02  0.50643475233E+02 -0.18456541623E+03  0.19282572677E+03  0.10000000000E+01 0.  0.
    9000005    1    3    3    0    0  0.45398523898E+02 -0.42398037474E+02 -0.45875624617E+03  0.46294374707E+03  0.10000000000E+01 0.  0.
         21    1    1    2  502  501 -0.21912220368E+02 -0.82454377594E+01 -0.69453145169E+02  0.73293055737E+02  0.00000000000E+00 0.  1.
<mgrwt>
<rscale>  1 0.12716462E+03</rscale>
<asrwt>0</asrwt>
<pdfrwt beam="1">  1        4 0.12529023E-02 0.12716462E+03</pdfrwt>
<pdfrwt beam="2">  1       -4 0.11091051E+00 0.12716462E+03</pdfrwt>
<totfact> 0.22699723E+03</totfact>
</mgrwt>
</event>
<event>
 6    4  0.2271823E-003  0.1293266E+03  0.7818608E-02  0.1228458E+00
         -4   -1    0    0    0  501 -0.00000000000E+00  0.00000000000E+00  0.18409562390E+03  0.18410000445E+03  0.12700000000E+01 0. -1.
          4   -1    0    0  502    0  0.00000000000E+00 -0.00000000000E+00 -0.43513070240E+02  0.43531599806E+02  0.12700000000E+01 0. -1.
         25    2    1    2    0    0 -0.31130401976E+02 -0.11214242247E+02  0.64189146010E+02  0.14438009443E+03  0.12502201424E+03 0.  0.
    9000005    1    3    3    0    0 -0.27480108668E+02 -0.62992658685E+02  0.10211588538E+02  0.69487466215E+02  0.10000000000E+01 0.  0.
    9000005    1    3    3    0    0 -0.36502933076E+01  0.51778416438E+02  0.53977557472E+02  0.74892628213E+02  0.10000000000E+01 0.  0.
         21    1    1    2  502  501  0.31130401976E+02  0.11214242247E+02  0.76393407646E+02  0.83251509825E+02  0.00000000000E+00 0. -1.
<mgrwt>
<rscale>  1 0.12932658E+03</rscale>
<asrwt>0</asrwt>
<pdfrwt beam="2">  1        4 0.66960809E-02 0.12932658E+03</pdfrwt>
<pdfrwt beam="1">  1       -4 0.28324166E-01 0.12932658E+03</pdfrwt>
<totfact> 0.28504799E+03</totfact>
</mgrwt>
</event>
<event>
 6    4  0.2271823E-003  0.1338190E+03  0.7818608E-02  0.1221897E+00
         -4   -1    0    0    0  501 -0.00000000000E+00  0.00000000000E+00  0.10314443103E+03  0.10315224938E+03  0.12700000000E+01 0. -1.
          4   -1    0    0  502    0  0.00000000000E+00 -0.00000000000E+00 -0.80852578373E+02  0.80862552084E+02  0.12700000000E+01 0. -1.
         25    2    1    2    0    0  0.47781842443E+02 -0.66168067623E-01  0.76397081633E+01  0.13403686450E+03  0.12499762821E+03 0.  0.
    9000005    1    3    3    0    0 -0.12811937659E+02 -0.52137797164E+02  0.68440613589E+01  0.54132585525E+02  0.10000000000E+01 0.  0.
    9000005    1    3    3    0    0  0.60593780103E+02  0.52071629097E+02  0.79564680440E+00  0.79904278970E+02  0.10000000000E+01 0.  0.
         21    1    1    2  502  501 -0.47781842443E+02  0.66168067623E-01  0.14652144494E+02  0.49977936970E+02  0.00000000000E+00 0. -1.
<mgrwt>
<rscale>  1 0.13381897E+03</rscale>
<asrwt>0</asrwt>
<pdfrwt beam="2">  1        4 0.12440227E-01 0.13381897E+03</pdfrwt>
<pdfrwt beam="1">  1       -4 0.15869743E-01 0.13381897E+03</pdfrwt>
<totfact> 0.29110025E+03</totfact>
</mgrwt>
</event>
<event>
 6    4  0.2271823E-003  0.1297723E+03  0.7818608E-02  0.1227794E+00
          4   -1    0    0  502    0  0.00000000000E+00  0.00000000000E+00  0.17351542340E+02  0.17397957397E+02  0.12700000000E+01 0.  1.
         -4   -1    0    0    0  501 -0.00000000000E+00 -0.00000000000E+00 -0.56949577216E+03  0.56949718823E+03  0.12700000000E+01 0.  1.
         25    2    1    2    0    0  0.14050394668E+02 -0.31903723322E+02 -0.24024692236E+03  0.27305570969E+03  0.12500230293E+03 0.  0.
    9000005    1    3    3    0    0  0.33799451948E+02 -0.75046887102E+02 -0.15216230066E+03  0.17299943340E+03  0.10000000000E+01 0.  0.
    9000005    1    3    3    0    0 -0.19749057280E+02  0.43143163780E+02 -0.88084621700E+02  0.10005627629E+03  0.10000000000E+01 0.  0.
         21    1    1    2  502  501 -0.14050394668E+02  0.31903723322E+02 -0.31189730745E+03  0.31383943594E+03  0.00000000000E+00 0.  1.
<mgrwt>
<rscale>  1 0.12977225E+03</rscale>
<asrwt>0</asrwt>
<pdfrwt beam="1">  1        4 0.26731478E-02 0.12977225E+03</pdfrwt>
<pdfrwt beam="2">  1       -4 0.87618399E-01 0.12977225E+03</pdfrwt>
<totfact> 0.12267304E+03</totfact>
</mgrwt>
</event>
<event>
 6    4  0.2271823E-003  0.1294186E+03  0.7818608E-02  0.1228321E+00
          4   -1    0    0  502    0  0.00000000000E+00  0.00000000000E+00  0.18746122880E+02  0.18789093194E+02  0.12700000000E+01 0. -1.
         -4   -1    0    0    0  501 -0.00000000000E+00 -0.00000000000E+00 -0.46378171560E+03  0.46378345446E+03  0.12700000000E+01 0. -1.
         25    2    1    2    0    0 -0.22045556666E+02  0.25252299730E+02 -0.22149918926E+03  0.25653669013E+03  0.12500198931E+03 0.  0.
    9000005    1    3    3    0    0 -0.28727261628E+02 -0.14423289645E+02 -0.77129457229E+00  0.32169577867E+02  0.10000000000E+01 0.  0.
    9000005    1    3    3    0    0  0.66817049613E+01  0.39675589376E+02 -0.22072789469E+03  0.22436711226E+03  0.10000000000E+01 0.  0.
         21    1    1    2  502  501  0.22045556666E+02 -0.25252299730E+02 -0.22353640347E+03  0.22603585752E+03  0.00000000000E+00 0. -1.
<mgrwt>
<rscale>  1 0.12941863E+03</rscale>
<asrwt>0</asrwt>
<pdfrwt beam="1">  1        4 0.28874584E-02 0.12941863E+03</pdfrwt>
<pdfrwt beam="2">  1       -4 0.71354464E-01 0.12941863E+03</pdfrwt>
<totfact> 0.17091289E+03</totfact>
</mgrwt>
</event>
<event>
 6    4  0.2271823E-003  0.1290142E+03  0.7818608E-02  0.1228926E+00
          4   -1    0    0  502    0  0.00000000000E+00  0.00000000000E+00  0.23839542239E+03  0.23839880519E+03  0.12700000000E+01 0.  1.
         -4   -1    0    0    0  501 -0.00000000000E+00 -0.00000000000E+00 -0.33907449127E+02  0.33931224650E+02  0.12700000000E+01 0.  1.
         25    2    1    2    0    0  0.18310684391E+02 -0.26140861480E+02  0.20281315956E+03  0.24037019876E+03  0.12500411576E+03 0.  0.
    9000005    1    3    3    0    0  0.28072980795E+02  0.46486994324E+02  0.10419178696E+03  0.11749919728E+03  0.10000000000E+01 0.  0.
    9000005    1    3    3    0    0 -0.97622964041E+01 -0.72627855804E+02  0.98621372600E+02  0.12287100147E+03  0.10000000000E+01 0.  0.
         21    1    1    2  502  501 -0.18310684391E+02  0.26140861480E+02  0.16748136996E+01  0.31959831081E+02  0.00000000000E+00 0.  1.
<mgrwt>
<rscale>  1 0.12901416E+03</rscale>
<asrwt>0</asrwt>
<pdfrwt beam="1">  1        4 0.36678308E-01 0.12901416E+03</pdfrwt>
<pdfrwt beam="2">  1       -4 0.52186197E-02 0.12901416E+03</pdfrwt>
<totfact> 0.26078091E+03</totfact>
</mgrwt>
</event>
<event>
 6    4  0.2271823E-003  0.1425709E+03  0.7818608E-02  0.1209911E+00
          4   -1    0    0  502    0  0.00000000000E+00  0.00000000000E+00  0.97073056186E+01  0.97900297432E+01  0.12700000000E+01 0. -1.
         -4   -1    0    0    0  501 -0.00000000000E+00 -0.00000000000E+00 -0.11443513890E+04  0.11443520937E+04  0.12700000000E+01 0. -1.
         25    2    1    2    0    0  0.38031249095E+02  0.57052208005E+02 -0.78367644934E+03  0.79653953609E+03  0.12500049989E+03 0.  0.
    9000005    1    3    3    0    0 -0.13042870379E+02  0.46611761182E+02 -0.10236485808E+03  0.11323575812E+03  0.10000000000E+01 0.  0.
    9000005    1    3    3    0    0  0.51074119474E+02  0.10440446823E+02 -0.68131159126E+03  0.68330377797E+03  0.10000000000E+01 0.  0.
         21    1    1    2  502  501 -0.38031249095E+02 -0.57052208005E+02 -0.35096763403E+03  0.35760258735E+03  0.00000000000E+00 0. -1.
<mgrwt>
<rscale>  1 0.14257088E+03</rscale>
<asrwt>0</asrwt>
<pdfrwt beam="1">  1        4 0.14998501E-02 0.14257088E+03</pdfrwt>
<pdfrwt beam="2">  1       -4 0.17606037E+00 0.14257088E+03</pdfrwt>
<totfact> 0.55515994E+02</totfact>
</mgrwt>
</event>
<event>
 6    4  0.2271823E-003  0.1274555E+03  0.7818608E-02  0.1231281E+00
          4   -1    0    0  502    0  0.00000000000E+00  0.00000000000E+00  0.65582855986E+02  0.65595151492E+02  0.12700000000E+01 0. -1.
         -4   -1    0    0    0  501 -0.00000000000E+00 -0.00000000000E+00 -0.17577559007E+03  0.17578017796E+03  0.12700000000E+01 0. -1.
         25    2    1    2    0    0  0.16977616718E+02 -0.18220934714E+02  0.96773970354E+00  0.12745916351E+03  0.12499863964E+03 0.  0.
    9000005    1    3    3    0    0  0.51369855153E+02  0.29529803212E+02 -0.23460029825E+02  0.63735737978E+02  0.10000000000E+01 0.  0.
    9000005    1    3    3    0    0 -0.34392238435E+02 -0.47750737926E+02  0.24427769529E+02  0.63723425530E+02  0.10000000000E+01 0.  0.
         21    1    1    2  502  501 -0.16977616718E+02  0.18220934714E+02 -0.11116047379E+03  0.11391616595E+03  0.00000000000E+00 0. -1.
<mgrwt>
<rscale>  1 0.12745549E+03</rscale>
<asrwt>0</asrwt>
<pdfrwt beam="1">  1        4 0.10090969E-01 0.12745549E+03</pdfrwt>
<pdfrwt beam="2">  1       -4 0.27043697E-01 0.12745549E+03</pdfrwt>
<totfact> 0.15688162E+03</totfact>
</mgrwt>
</event>
<event>
 6    4  0.2271823E-003  0.1281848E+03  0.7818608E-02  0.1230174E+00
         -4   -1    0    0    0  501 -0.00000000000E+00  0.00000000000E+00  0.35706376696E+02  0.35728955159E+02  0.12700000000E+01 0. -1.
          4   -1    0    0  502    0  0.00000000000E+00 -0.00000000000E+00 -0.21011138557E+03  0.21011522374E+03  0.12700000000E+01 0. -1.
         25    2    1    2    0    0 -0.16769180310E+02 -0.22898324140E+02 -0.17563289062E+03  0.21743561769E+03  0.12500318761E+03 0.  0.
    9000005    1    3    3    0    0 -0.13927031814E+02 -0.65165487814E+02 -0.45805983668E+02  0.80868356957E+02  0.10000000000E+01 0.  0.
    9000005    1    3    3    0    0 -0.28421484961E+01  0.42267163674E+02 -0.12982690696E+03  0.13656726073E+03  0.10000000000E+01 0.  0.
         21    1    1    2  502  501  0.16769180310E+02  0.22898324140E+02  0.12278817469E+01  0.28408561215E+02  0.00000000000E+00 0. -1.
<mgrwt>
<rscale>  1 0.12818477E+03</rscale>
<asrwt>0</asrwt>
<pdfrwt beam="2">  1        4 0.32326860E-01 0.12818477E+03</pdfrwt>
<pdfrwt beam="1">  1       -4 0.54953209E-02 0.12818477E+03</pdfrwt>
<totfact> 0.30544079E+03</totfact>
</mgrwt>
</event>
<event>
 6    4  0.2271823E-003  0.1268847E+03  0.7818608E-02  0.1232153E+00
          4   -1    0    0  502    0  0.00000000000E+00  0.00000000000E+00  0.54273193958E+01  0.55739300160E+01  0.12700000000E+01 0. -1.
         -4   -1    0    0    0  501 -0.00000000000E+00 -0.00000000000E+00 -0.10421907966E+04  0.10421915704E+04  0.12700000000E+01 0. -1.
         25    2    1    2    0    0  0.15067495651E+02  0.15736143495E+02 -0.79976417855E+03  0.80976692227E+03  0.12500028591E+03 0.  0.
    9000005    1    3    3    0    0 -0.31132784155E+02  0.48226957063E+02 -0.22408110223E+03  0.23131889247E+03  0.10000000000E+01 0.  0.
    9000005    1    3    3    0    0  0.46200279806E+02 -0.32490813569E+02 -0.57568307632E+03  0.57844802980E+03  0.10000000000E+01 0.  0.
         21    1    1    2  502  501 -0.15067495651E+02 -0.15736143495E+02 -0.23699929868E+03  0.23799857818E+03  0.00000000000E+00 0.  1.
<mgrwt>
<rscale>  1 0.12688470E+03</rscale>
<asrwt>0</asrwt>
<pdfrwt beam="1">  1        4 0.84631031E-03 0.12688470E+03</pdfrwt>
<pdfrwt beam="2">  1       -4 0.16034823E+00 0.12688470E+03</pdfrwt>
<totfact> 0.16500816E+03</totfact>
</mgrwt>
</event>
<event>
 6    4  0.2271823E-003  0.1273109E+03  0.7818608E-02  0.1231501E+00
         -4   -1    0    0    0  501 -0.00000000000E+00  0.00000000000E+00  0.28779345958E+02  0.28807354161E+02  0.12700000000E+01 0. -1.
          4   -1    0    0  502    0  0.00000000000E+00 -0.00000000000E+00 -0.21997680037E+03  0.21998046641E+03  0.12700000000E+01 0. -1.
         25    2    1    2    0    0 -0.23804446909E+02 -0.40333268119E+01 -0.18370651072E+03  0.22350870557E+03  0.12500055986E+03 0.  0.
    9000005    1    3    3    0    0 -0.37536545141E+02 -0.56035270172E+02 -0.13512117622E+03  0.15102210430E+03  0.10000000000E+01 0.  0.
    9000005    1    3    3    0    0  0.13732098231E+02  0.52001943360E+02 -0.48585334504E+02  0.72486601271E+02  0.10000000000E+01 0.  0.
         21    1    1    2  502  501  0.23804446909E+02  0.40333268119E+01 -0.74909436928E+01  0.25279115001E+02  0.00000000000E+00 0. -1.
<mgrwt>
<rscale>  1 0.12731088E+03</rscale>
<asrwt>0</asrwt>
<pdfrwt beam="2">  1        4 0.33845020E-01 0.12731088E+03</pdfrwt>
<pdfrwt beam="1">  1       -4 0.44300283E-02 0.12731088E+03</pdfrwt>
<totfact> 0.39468121E+03</totfact>
</mgrwt>
</event>
<event>
 6    4  0.2271823E-003  0.1276117E+03  0.7818608E-02  0.1231043E+00
         -4   -1    0    0    0  501 -0.00000000000E+00  0.00000000000E+00  0.68680184632E+03  0.68680302053E+03  0.12700000000E+01 0.  1.
          4   -1    0    0  502    0  0.00000000000E+00 -0.00000000000E+00 -0.16861795167E+02  0.16909554585E+02  0.12700000000E+01 0.  1.
         25    2    1    2    0    0 -0.22189507304E+02  0.13271561606E+02  0.23013350959E+03  0.26314668607E+03  0.12496494539E+03 0.  0.
    9000005    1    3    3    0    0  0.10406146797E+02  0.45252054131E+02  0.24516305631E+02  0.52517478386E+02  0.10000000000E+01 0.  0.
    9000005    1    3    3    0    0 -0.32595654102E+02 -0.31980492526E+02  0.20561720396E+03  0.21062920769E+03  0.10000000000E+01 0.  0.
         21    1    1    2  502  501  0.22189507304E+02 -0.13271561606E+02  0.43980654157E+03  0.44056588904E+03  0.00000000000E+00 0.  1.
<mgrwt>
<rscale>  1 0.12761170E+03</rscale>
<asrwt>0</asrwt>
<pdfrwt beam="2">  1        4 0.25978868E-02 0.12761170E+03</pdfrwt>
<pdfrwt beam="1">  1       -4 0.10566557E+00 0.12761170E+03</pdfrwt>
<totfact> 0.83210605E+02</totfact>
</mgrwt>
</event>
<event>
 6    4  0.2271823E-003  0.1324724E+03  0.7818608E-02  0.1223833E+00
         -4   -1    0    0    0  501 -0.00000000000E+00  0.00000000000E+00  0.95975723332E+02  0.95984125610E+02  0.12700000000E+01 0.  1.
          4   -1    0    0  502    0  0.00000000000E+00 -0.00000000000E+00 -0.11934392147E+03  0.11935067864E+03  0.12700000000E+01 0.  1.
         25    2    1    2    0    0  0.42863270975E+02 -0.93312127934E+01 -0.71232389213E+02  0.15040936765E+03  0.12499837229E+03 0.  0.
    9000005    1    3    3    0    0  0.79134820959E+01  0.30875129866E+02  0.24926472791E+02  0.40475003260E+02  0.10000000000E+01 0.  0.
    9000005    1    3    3    0    0  0.34949788879E+02 -0.40206342660E+02 -0.96158862004E+02  0.10993436439E+03  0.10000000000E+01 0.  0.
         21    1    1    2  502  501 -0.42863270975E+02  0.93312127934E+01  0.47864191071E+02  0.64925436600E+02  0.00000000000E+00 0.  1.
<mgrwt>
<rscale>  1 0.13247235E+03</rscale>
<asrwt>0</asrwt>
<pdfrwt beam="2">  1        4 0.18361769E-01 0.13247235E+03</pdfrwt>
<pdfrwt beam="1">  1       -4 0.14766662E-01 0.13247235E+03</pdfrwt>
<totfact> 0.16686234E+03</totfact>
</mgrwt>
</event>
<event>
 6    4  0.2271823E-003  0.1269198E+03  0.7818608E-02  0.1232099E+00
         -4   -1    0    0    0  501 -0.00000000000E+00  0.00000000000E+00  0.11132140023E+03  0.11132864433E+03  0.12700000000E+01 0. -1.
          4   -1    0    0  502    0  0.00000000000E+00 -0.00000000000E+00 -0.50060734869E+02  0.50076841709E+02  0.12700000000E+01 0. -1.
         25    2    1    2    0    0  0.18944001541E+02  0.11152432791E+02  0.47763503928E+02  0.13560964688E+03  0.12500148826E+03 0.  0.
    9000005    1    3    3    0    0  0.46075159774E+02  0.25052940796E+02 -0.23961167227E+02  0.57668949406E+02  0.10000000000E+01 0.  0.
    9000005    1    3    3    0    0 -0.27131158233E+02 -0.13900508006E+02  0.71724671155E+02  0.77940697470E+02  0.10000000000E+01 0.  0.
         21    1    1    2  502  501 -0.18944001541E+02 -0.11152432791E+02  0.13497161434E+02  0.25795839166E+02  0.00000000000E+00 0. -1.
<mgrwt>
<rscale>  1 0.12691975E+03</rscale>
<asrwt>0</asrwt>
<pdfrwt beam="2">  1        4 0.77034477E-02 0.12691975E+03</pdfrwt>
<pdfrwt beam="1">  1       -4 0.17128166E-01 0.12691975E+03</pdfrwt>
<totfact> 0.56233103E+03</totfact>
</mgrwt>
</event>
<event>
 6    4  0.2271823E-003  0.1267335E+03  0.7818608E-02  0.1232385E+00
         -4   -1    0    0    0  501 -0.00000000000E+00  0.00000000000E+00  0.48926139081E+01  0.50547572497E+01  0.12700000000E+01 0.  1.
          4   -1    0    0  502    0  0.00000000000E+00 -0.00000000000E+00 -0.10949266239E+04  0.10949273605E+04  0.12700000000E+01 0.  1.
         25    2    1    2    0    0 -0.15613892674E+02  0.13839767924E+02 -0.93888085745E+03  0.94739572136E+03  0.12500422208E+03 0.  0.
    9000005    1    3    3    0    0 -0.27261551919E+02  0.66263259634E+02 -0.46660966598E+03  0.47208006967E+03  0.10000000000E+01 0.  0.
    9000005    1    3    3    0    0  0.11647659245E+02 -0.52423491709E+02 -0.47227119147E+03  0.47531565169E+03  0.10000000000E+01 0.  0.
         21    1    1    2  502  501  0.15613892674E+02 -0.13839767924E+02 -0.15115315257E+03  0.15258639635E+03  0.00000000000E+00 0.  1.
<mgrwt>
<rscale>  1 0.12673353E+03</rscale>
<asrwt>0</asrwt>
<pdfrwt beam="2">  1        4 0.16846259E+00 0.12673353E+03</pdfrwt>
<pdfrwt beam="1">  1       -4 0.76523992E-03 0.12673353E+03</pdfrwt>
<totfact> 0.16847227E+03</totfact>
</mgrwt>
</event>
<event>
 6    4  0.2271823E-003  0.1284432E+03  0.7818608E-02  0.1229784E+00
         -4   -1    0    0    0  501 -0.00000000000E+00  0.00000000000E+00  0.14159080651E+03  0.14159650204E+03  0.12700000000E+01 0. -1.
          4   -1    0    0  502    0  0.00000000000E+00 -0.00000000000E+00 -0.44224203644E+02  0.44242435376E+02  0.12700000000E+01 0. -1.
         25    2    1    2    0    0  0.29049104262E+01 -0.29420774970E+02  0.83379945137E+02  0.15313347764E+03  0.12499450475E+03 0.  0.
    9000005    1    3    3    0    0 -0.25135956498E+01 -0.66022306025E+02  0.47752249420E+01  0.66250025126E+02  0.10000000000E+01 0.  0.
    9000005    1    3    3    0    0  0.54185060759E+01  0.36601531055E+02  0.78604720195E+02  0.86883452513E+02  0.10000000000E+01 0.  0.
         21    1    1    2  502  501 -0.29049104262E+01  0.29420774970E+02  0.13986657732E+02  0.32705459773E+02  0.00000000000E+00 0.  1.
<mgrwt>
<rscale>  1 0.12844317E+03</rscale>
<asrwt>0</asrwt>
<pdfrwt beam="2">  1        4 0.68055643E-02 0.12844317E+03</pdfrwt>
<pdfrwt beam="1">  1       -4 0.21785041E-01 0.12844317E+03</pdfrwt>
<totfact> 0.44955376E+03</totfact>
</mgrwt>
</event>
<event>
 6    4  0.2271823E-003  0.1266214E+03  0.7818608E-02  0.1232557E+00
         -4   -1    0    0    0  501 -0.00000000000E+00  0.00000000000E+00  0.10688065286E+03  0.10688819792E+03  0.12700000000E+01 0.  1.
          4   -1    0    0  502    0  0.00000000000E+00 -0.00000000000E+00 -0.59838428553E+02  0.59851904161E+02  0.12700000000E+01 0.  1.
         25    2    1    2    0    0  0.19606752065E+02 -0.53685984327E+01  0.13260935737E+02  0.12731394284E+03  0.12497896243E+03 0.  0.
    9000005    1    3    3    0    0  0.35686126407E+02 -0.20901698841E+02  0.61510110007E+02  0.74127419120E+02  0.10000000000E+01 0.  0.
    9000005    1    3    3    0    0 -0.16079374343E+02  0.15533100408E+02 -0.48249174270E+02  0.53186523718E+02  0.10000000000E+01 0.  0.
         21    1    1    2  502  501 -0.19606752065E+02  0.53685984327E+01  0.33781288568E+02  0.39426159247E+02  0.00000000000E+00 0. -1.
<mgrwt>
<rscale>  1 0.12662143E+03</rscale>
<asrwt>0</asrwt>
<pdfrwt beam="2">  1        4 0.92075291E-02 0.12662143E+03</pdfrwt>
<pdfrwt beam="1">  1       -4 0.16444794E-01 0.12662143E+03</pdfrwt>
<totfact> 0.44904291E+03</totfact>
</mgrwt>
</event>
<event>
 6    4  0.2271823E-003  0.1280662E+03  0.7818608E-02  0.1230354E+00
          4   -1    0    0  502    0  0.00000000000E+00  0.00000000000E+00  0.10617360234E+04  0.10617367829E+04  0.12700000000E+01 0.  1.
         -4   -1    0    0    0  501 -0.00000000000E+00 -0.00000000000E+00 -0.66708037011E+01  0.67906201498E+01  0.12700000000E+01 0.  1.
         25    2    1    2    0    0  0.24393783757E+02  0.13462315201E+02  0.98225292983E+03  0.99056638610E+03  0.12499862597E+03 0.  0.
    9000005    1    3    3    0    0 -0.42983393450E+01  0.63170503366E+02  0.34746004847E+03  0.35318334261E+03  0.10000000000E+01 0.  0.
    9000005    1    3    3    0    0  0.28692123102E+02 -0.49708188165E+02  0.63479288136E+03  0.63738304349E+03  0.10000000000E+01 0.  0.
         21    1    1    2  502  501 -0.24393783757E+02 -0.13462315201E+02  0.72812289834E+02  0.77961016973E+02  0.00000000000E+00 0.  1.
<mgrwt>
<rscale>  1 0.12806618E+03</rscale>
<asrwt>0</asrwt>
<pdfrwt beam="1">  1        4 0.16335324E+00 0.12806618E+03</pdfrwt>
<pdfrwt beam="2">  1       -4 0.10355528E-02 0.12806618E+03</pdfrwt>
<totfact> 0.11635047E+03</totfact>
</mgrwt>
</event>
<event>
 6    4  0.2271823E-003  0.1274778E+03  0.7818608E-02  0.1231247E+00
          4   -1    0    0  502    0  0.00000000000E+00  0.00000000000E+00  0.24362076776E+03  0.24362407801E+03  0.12700000000E+01 0. -1.
         -4   -1    0    0    0  501 -0.00000000000E+00 -0.00000000000E+00 -0.25747474376E+02  0.25778776867E+02  0.12700000000E+01 0. -1.
         25    2    1    2    0    0  0.22496865897E+02  0.10933091505E+02  0.14879232563E+03  0.19593298642E+03  0.12499975014E+03 0.  0.
    9000005    1    3    3    0    0  0.74340841689E+02  0.36909887499E+01  0.77249363025E+02  0.10727836794E+03  0.10000000000E+01 0.  0.
    9000005    1    3    3    0    0 -0.51843975792E+02  0.72421027547E+01  0.71542962605E+02  0.88654618473E+02  0.10000000000E+01 0.  0.
         21    1    1    2  502  501 -0.22496865897E+02 -0.10933091505E+02  0.69080967755E+02  0.73469868456E+02  0.00000000000E+00 0.  1.
<mgrwt>
<rscale>  1 0.12747776E+03</rscale>
<asrwt>0</asrwt>
<pdfrwt beam="1">  1        4 0.37482779E-01 0.12747776E+03</pdfrwt>
<pdfrwt beam="2">  1       -4 0.39638126E-02 0.12747776E+03</pdfrwt>
<totfact> 0.38681776E+03</totfact>
</mgrwt>
</event>
<event>
 6    4  0.2271823E-003  0.1269398E+03  0.7818608E-02  0.1232069E+00
         -4   -1    0    0    0  501 -0.00000000000E+00  0.00000000000E+00  0.28172429908E+02  0.28201040884E+02  0.12700000000E+01 0.  1.
          4   -1    0    0  502    0  0.00000000000E+00 -0.00000000000E+00 -0.20474795043E+03  0.20475188914E+03  0.12700000000E+01 0.  1.
         25    2    1    2    0    0  0.13467551286E+02 -0.17539468424E+02 -0.16441559269E+03  0.20771661224E+03  0.12499878396E+03 0.  0.
    9000005    1    3    3    0    0  0.92882319936E+00  0.45617599947E+02 -0.20461626556E+02  0.50015060719E+02  0.10000000000E+01 0.  0.
    9000005    1    3    3    0    0  0.12538728087E+02 -0.63157068371E+02 -0.14395396613E+03  0.15770155152E+03  0.10000000000E+01 0.  0.
         21    1    1    2  502  501 -0.13467551286E+02  0.17539468424E+02 -0.12159927838E+02  0.25236317783E+02  0.00000000000E+00 0. -1.
<mgrwt>
<rscale>  1 0.12693976E+03</rscale>
<asrwt>0</asrwt>
<pdfrwt beam="2">  1        4 0.31502188E-01 0.12693976E+03</pdfrwt>
<pdfrwt beam="1">  1       -4 0.43367239E-02 0.12693976E+03</pdfrwt>
<totfact> 0.46788258E+03</totfact>
</mgrwt>
</event>
<event>
 6    4  0.2271823E-003  0.1286761E+03  0.7818608E-02  0.1229434E+00
          4   -1    0    0  502    0  0.00000000000E+00  0.00000000000E+00  0.26306116653E+03  0.26306423215E+03  0.12700000000E+01 0. -1.
         -4   -1    0    0    0  501 -0.00000000000E+00 -0.00000000000E+00 -0.24124888557E+02  0.24158293563E+02  0.12700000000E+01 0. -1.
         25    2    1    2    0    0 -0.11289843631E+02  0.28404731415E+02  0.19786066487E+03  0.23602198540E+03  0.12499298202E+03 0.  0.
    9000005    1    3    3    0    0 -0.67616315675E+02  0.25326266681E+02  0.10793608702E+03  0.12986371630E+03  0.10000000000E+01 0.  0.
    9000005    1    3    3    0    0  0.56326472044E+02  0.30784647344E+01  0.89924577848E+02  0.10615826910E+03  0.10000000000E+01 0.  0.
         21    1    1    2  502  501  0.11289843631E+02 -0.28404731415E+02  0.41075613098E+02  0.51200540303E+02  0.00000000000E+00 0. -1.
<mgrwt>
<rscale>  1 0.12867609E+03</rscale>
<asrwt>0</asrwt>
<pdfrwt beam="1">  1        4 0.40473753E-01 0.12867609E+03</pdfrwt>
<pdfrwt beam="2">  1       -4 0.37143268E-02 0.12867609E+03</pdfrwt>
<totfact> 0.36976719E+03</totfact>
</mgrwt>
</event>
<event>
 6    4  0.2271823E-003  0.1275084E+03  0.7818608E-02  0.1231200E+00
         -4   -1    0    0    0  501 -0.00000000000E+00  0.00000000000E+00  0.39448253784E+03  0.39448458216E+03  0.12700000000E+01 0.  1.
          4   -1    0    0  502    0  0.00000000000E+00 -0.00000000000E+00 -0.26322090895E+02  0.26352710849E+02  0.12700000000E+01 0.  1.
         25    2    1    2    0    0  0.23954256636E+02 -0.78288460424E+01  0.13269882356E+03  0.18403088826E+03  0.12499317109E+03 0.  0.
    9000005    1    3    3    0    0 -0.38450649136E+01  0.52573268565E+02  0.92083686063E+02  0.10610908694E+03  0.10000000000E+01 0.  0.
    9000005    1    3    3    0    0  0.27799321550E+02 -0.60402114607E+02  0.40615137497E+02  0.77921801324E+02  0.10000000000E+01 0.  0.
         21    1    1    2  502  501 -0.23954256636E+02  0.78288460424E+01  0.23546162339E+03  0.23680640475E+03  0.00000000000E+00 0.  1.
<mgrwt>
<rscale>  1 0.12750839E+03</rscale>
<asrwt>0</asrwt>
<pdfrwt beam="2">  1        4 0.40520654E-02 0.12750839E+03</pdfrwt>
<pdfrwt beam="1">  1       -4 0.60692129E-01 0.12750839E+03</pdfrwt>
<totfact> 0.14107374E+03</totfact>
</mgrwt>
</event>
<event>
 6    4  0.2271823E-003  0.1290011E+03  0.7818608E-02  0.1228945E+00
         -4   -1    0    0    0  501 -0.00000000000E+00  0.00000000000E+00  0.18910440760E+02  0.18953038536E+02  0.12700000000E+01 0.  1.
          4   -1    0    0  502    0  0.00000000000E+00 -0.00000000000E+00 -0.38855061666E+03  0.38855269219E+03  0.12700000000E+01 0.  1.
         25    2    1    2    0    0  0.28046645438E+02 -0.15159834588E+02 -0.34123811228E+03  0.36480781365E+03  0.12499942687E+03 0.  0.
    9000005    1    3    3    0    0 -0.49105780776E+02 -0.16401441406E+02 -0.13206923994E+03  0.14185791879E+03  0.10000000000E+01 0.  0.
    9000005    1    3    3    0    0  0.77152426214E+02  0.12416068173E+01 -0.20916887235E+03  0.22294989486E+03  0.10000000000E+01 0.  0.
         21    1    1    2  502  501 -0.28046645438E+02  0.15159834588E+02 -0.28402063616E+02  0.42697917077E+02  0.00000000000E+00 0.  1.
<mgrwt>
<rscale>  1 0.12900113E+03</rscale>
<asrwt>0</asrwt>
<pdfrwt beam="2">  1        4 0.59780448E-01 0.12900113E+03</pdfrwt>
<pdfrwt beam="1">  1       -4 0.29127353E-02 0.12900113E+03</pdfrwt>
<totfact> 0.24557241E+03</totfact>
</mgrwt>
</event>
<event>
 6    4  0.2271823E-003  0.1304687E+03  0.7818608E-02  0.1226762E+00
          4   -1    0    0  502    0  0.00000000000E+00  0.00000000000E+00  0.88452833333E+02  0.88461950152E+02  0.12700000000E+01 0. -1.
         -4   -1    0    0    0  501 -0.00000000000E+00 -0.00000000000E+00 -0.14927933030E+03  0.14928473249E+03  0.12700000000E+01 0. -1.
         25    2    1    2    0    0  0.33795321515E+02 -0.15968982338E+02  0.34837440666E+02  0.13503971542E+03  0.12499978126E+03 0.  0.
    9000005    1    3    3    0    0  0.75408267998E+01 -0.65100410589E+02 -0.62094493978E+01  0.65836804217E+02  0.10000000000E+01 0.  0.
    9000005    1    3    3    0    0  0.26254494716E+02  0.49131428251E+02  0.41046890063E+02  0.69202911201E+02  0.10000000000E+01 0.  0.
         21    1    1    2  502  501 -0.33795321515E+02  0.15968982338E+02 -0.95663937634E+02  0.10270696723E+03  0.00000000000E+00 0. -1.
<mgrwt>
<rscale>  1 0.13046868E+03</rscale>
<asrwt>0</asrwt>
<pdfrwt beam="1">  1        4 0.13609245E-01 0.13046868E+03</pdfrwt>
<pdfrwt beam="2">  1       -4 0.22967168E-01 0.13046868E+03</pdfrwt>
<totfact> 0.12797512E+03</totfact>
</mgrwt>
</event>
<event>
 6    4  0.2271823E-003  0.1272830E+03  0.7818608E-02  0.1231544E+00
         -4   -1    0    0    0  501 -0.00000000000E+00  0.00000000000E+00  0.23500630106E+02  0.23534921189E+02  0.12700000000E+01 0. -1.
          4   -1    0    0  502    0  0.00000000000E+00 -0.00000000000E+00 -0.33321061210E+03  0.33321303233E+03  0.12700000000E+01 0. -1.
         25    2    1    2    0    0 -0.57010578460E+01  0.23322302292E+02 -0.30730125299E+03  0.33261843176E+03  0.12499811684E+03 0.  0.
    9000005    1    3    3    0    0 -0.17551737556E+02  0.73437771459E+02 -0.17207497789E+03  0.18791478863E+03  0.10000000000E+01 0.  0.
    9000005    1    3    3    0    0  0.11850679710E+02 -0.50115469167E+02 -0.13522627510E+03  0.14470364314E+03  0.10000000000E+01 0.  0.
         21    1    1    2  502  501  0.57010578460E+01 -0.23322302292E+02 -0.24087289995E+01  0.24129521755E+02  0.00000000000E+00 0. -1.
<mgrwt>
<rscale>  1 0.12728300E+03</rscale>
<asrwt>0</asrwt>
<pdfrwt beam="2">  1        4 0.51265992E-01 0.12728300E+03</pdfrwt>
<pdfrwt beam="1">  1       -4 0.36183057E-02 0.12728300E+03</pdfrwt>
<totfact> 0.23929235E+03</totfact>
</mgrwt>
</event>
<event>
 6    4  0.2271823E-003  0.1282773E+03  0.7818608E-02  0.1230034E+00
         -4   -1    0    0    0  501 -0.00000000000E+00  0.00000000000E+00  0.31835627577E+03  0.31835880893E+03  0.12700000000E+01 0. -1.
          4   -1    0    0  502    0  0.00000000000E+00 -0.00000000000E+00 -0.20613992810E+02  0.20653077242E+02  0.12700000000E+01 0. -1.
         25    2    1    2    0    0  0.21780606123E+02 -0.18852518704E+02  0.20433035681E+03  0.24125913577E+03  0.12500105444E+03 0.  0.
    9000005    1    3    3    0    0  0.63681698876E+02  0.22015796115E+02  0.13201243982E+03  0.14821719980E+03  0.10000000000E+01 0.  0.
    9000005    1    3    3    0    0 -0.41901092754E+02 -0.40868314818E+02  0.72317916992E+02  0.93041935965E+02  0.10000000000E+01 0.  0.
         21    1    1    2  502  501 -0.21780606123E+02  0.18852518704E+02  0.93411926153E+02  0.97752750407E+02  0.00000000000E+00 0. -1.
<mgrwt>
<rscale>  1 0.12827734E+03</rscale>
<asrwt>0</asrwt>
<pdfrwt beam="2">  1        4 0.31745850E-02 0.12827734E+03</pdfrwt>
<pdfrwt beam="1">  1       -4 0.48981088E-01 0.12827734E+03</pdfrwt>
<totfact> 0.32317305E+03</totfact>
</mgrwt>
</event>
<event>
 6    4  0.2271823E-003  0.1275321E+03  0.7818608E-02  0.1231164E+00
          4   -1    0    0  502    0  0.00000000000E+00  0.00000000000E+00  0.10434523066E+04  0.10434530795E+04  0.12700000000E+01 0. -1.
         -4   -1    0    0    0  501 -0.00000000000E+00 -0.00000000000E+00 -0.62797134618E+01  0.64068479896E+01  0.12700000000E+01 0. -1.
         25    2    1    2    0    0  0.14549179969E+00  0.25300545047E+02  0.96479674747E+03  0.97318919130E+03  0.12499719746E+03 0.  0.
    9000005    1    3    3    0    0  0.45404760330E+02  0.56254785944E+02  0.58597102439E+03  0.59041446004E+03  0.10000000000E+01 0.  0.
    9000005    1    3    3    0    0 -0.45259268530E+02 -0.30954240896E+02  0.37882572309E+03  0.38277473126E+03  0.10000000000E+01 0.  0.
         21    1    1    2  502  501 -0.14549179969E+00 -0.25300545047E+02  0.72375845661E+02  0.76670736156E+02  0.00000000000E+00 0. -1.
<mgrwt>
<rscale>  1 0.12753211E+03</rscale>
<asrwt>0</asrwt>
<pdfrwt beam="1">  1        4 0.16054114E+00 0.12753211E+03</pdfrwt>
<pdfrwt beam="2">  1       -4 0.97594770E-03 0.12753211E+03</pdfrwt>
<totfact> 0.13298442E+03</totfact>
</mgrwt>
</event>
<event>
 6    4  0.2271823E-003  0.1284065E+03  0.7818608E-02  0.1229840E+00
          4   -1    0    0  502    0  0.00000000000E+00  0.00000000000E+00  0.32211461874E+03  0.32211712234E+03  0.12700000000E+01 0.  1.
         -4   -1    0    0    0  501 -0.00000000000E+00 -0.00000000000E+00 -0.19360491402E+02  0.19402101106E+02  0.12700000000E+01 0.  1.
         25    2    1    2    0    0 -0.16993143350E+02 -0.23967451858E+02  0.25354862844E+03  0.28420965364E+03  0.12500005828E+03 0.  0.
    9000005    1    3    3    0    0  0.41166090799E+02 -0.14779176834E+02  0.19962123778E+03  0.20435926618E+03  0.10000000000E+01 0.  0.
    9000005    1    3    3    0    0 -0.58159234149E+02 -0.91882750240E+01  0.53927390655E+02  0.79850387461E+02  0.10000000000E+01 0.  0.
         21    1    1    2  502  501  0.16993143350E+02  0.23967451858E+02  0.49205498901E+02  0.57309569808E+02  0.00000000000E+00 0.  1.
<mgrwt>
<rscale>  1 0.12840646E+03</rscale>
<asrwt>0</asrwt>
<pdfrwt beam="1">  1        4 0.49559485E-01 0.12840646E+03</pdfrwt>
<pdfrwt beam="2">  1       -4 0.29819307E-02 0.12840646E+03</pdfrwt>
<totfact> 0.34816625E+03</totfact>
</mgrwt>
</event>
<event>
 6    4  0.2271823E-003  0.1278584E+03  0.7818608E-02  0.1230669E+00
          4   -1    0    0  502    0  0.00000000000E+00  0.00000000000E+00  0.18215765313E+03  0.18216208028E+03  0.12700000000E+01 0.  1.
         -4   -1    0    0    0  501 -0.00000000000E+00 -0.00000000000E+00 -0.36289791664E+02  0.36312007367E+02  0.12700000000E+01 0.  1.
         25    2    1    2    0    0  0.16022760206E+02  0.21590912829E+02  0.14237834420E+03  0.19136185624E+03  0.12499948306E+03 0.  0.
    9000005    1    3    3    0    0 -0.54262861305E+02  0.17933320053E+02  0.70489074533E+02  0.90751152685E+02  0.10000000000E+01 0.  0.
    9000005    1    3    3    0    0  0.70285621511E+02  0.36575927763E+01  0.71889269669E+02  0.10061070355E+03  0.10000000000E+01 0.  0.
         21    1    1    2  502  501 -0.16022760206E+02 -0.21590912829E+02  0.34895172626E+01  0.27112231412E+02  0.00000000000E+00 0.  1.
<mgrwt>
<rscale>  1 0.12785839E+03</rscale>
<asrwt>0</asrwt>
<pdfrwt beam="1">  1        4 0.28026304E-01 0.12785839E+03</pdfrwt>
<pdfrwt beam="2">  1       -4 0.55850943E-02 0.12785839E+03</pdfrwt>
<totfact> 0.38937939E+03</totfact>
</mgrwt>
</event>
<event>
 6    4  0.2271823E-003  0.1275645E+03  0.7818608E-02  0.1231115E+00
          4   -1    0    0  502    0  0.00000000000E+00  0.00000000000E+00  0.15106295707E+02  0.15159586736E+02  0.12700000000E+01 0.  1.
         -4   -1    0    0    0  501 -0.00000000000E+00 -0.00000000000E+00 -0.39294388057E+03  0.39294593290E+03  0.12700000000E+01 0.  1.
         25    2    1    2    0    0  0.88361963966E+01  0.23852374041E+02 -0.33232539342E+03  0.35596749431E+03  0.12500270309E+03 0.  0.
    9000005    1    3    3    0    0 -0.47233645754E+02  0.23674472136E+02 -0.69955623234E+02  0.87671472807E+02  0.10000000000E+01 0.  0.
    9000005    1    3    3    0    0  0.56069842151E+02  0.17790190425E+00 -0.26236977018E+03  0.26829602150E+03  0.10000000000E+01 0.  0.
         21    1    1    2  502  501 -0.88361963966E+01 -0.23852374041E+02 -0.45512191449E+02  0.52138025324E+02  0.00000000000E+00 0.  1.
<mgrwt>
<rscale>  1 0.12756445E+03</rscale>
<asrwt>0</asrwt>
<pdfrwt beam="1">  1        4 0.23283030E-02 0.12756445E+03</pdfrwt>
<pdfrwt beam="2">  1       -4 0.60457154E-01 0.12756445E+03</pdfrwt>
<totfact> 0.33884088E+03</totfact>
</mgrwt>
</event>
<event>
 6    4  0.2271823E-003  0.1266657E+03  0.7818608E-02  0.1232489E+00
          4   -1    0    0  502    0  0.00000000000E+00  0.00000000000E+00  0.72558521142E+02  0.72569634767E+02  0.12700000000E+01 0. -1.
         -4   -1    0    0    0  501 -0.00000000000E+00 -0.00000000000E+00 -0.74679251469E+02  0.74690049538E+02  0.12700000000E+01 0. -1.
         25    2    1    2    0    0 -0.16891505309E+02  0.11610501425E+02 -0.35239811781E+01  0.12671471393E+03  0.12499629429E+03 0.  0.
    9000005    1    3    3    0    0 -0.33119946877E+02  0.34640818879E+02  0.48091475062E+02  0.67902188384E+02  0.10000000000E+01 0.  0.
    9000005    1    3    3    0    0  0.16228441568E+02 -0.23030317453E+02 -0.51615456240E+02  0.58812525542E+02  0.10000000000E+01 0.  0.
         21    1    1    2  502  501  0.16891505309E+02 -0.11610501425E+02  0.14032508503E+01  0.20544970380E+02  0.00000000000E+00 0. -1.
<mgrwt>
<rscale>  1 0.12666570E+03</rscale>
<asrwt>0</asrwt>
<pdfrwt beam="1">  1        4 0.11164535E-01 0.12666570E+03</pdfrwt>
<pdfrwt beam="2">  1       -4 0.11490801E-01 0.12666570E+03</pdfrwt>
<totfact> 0.60338704E+03</totfact>
</mgrwt>
</event>
<event>
 6    4  0.2271823E-003  0.1284867E+03  0.7818608E-02  0.1229719E+00
         -4   -1    0    0    0  501 -0.00000000000E+00  0.00000000000E+00  0.10698112878E+04  0.10698120416E+04  0.12700000000E+01 0.  1.
          4   -1    0    0  502    0  0.00000000000E+00 -0.00000000000E+00 -0.63369273715E+01  0.64629365239E+01  0.12700000000E+01 0.  1.
         25    2    1    2    0    0 -0.12730664904E+02 -0.26875599217E+02  0.70843592902E+03  0.71999327017E+03  0.12499790359E+03 0.  0.
    9000005    1    3    3    0    0 -0.50435470210E+02  0.69771917536E+01  0.13440569522E+03  0.14372998562E+03  0.10000000000E+01 0.  0.
    9000005    1    3    3    0    0  0.37704805305E+02 -0.33852790971E+02  0.57403023380E+03  0.57626328455E+03  0.10000000000E+01 0.  0.
         21    1    1    2  502  501  0.12730664904E+02  0.26875599217E+02  0.35503843141E+03  0.35628170798E+03  0.00000000000E+00 0.  1.
<mgrwt>
<rscale>  1 0.12848674E+03</rscale>
<asrwt>0</asrwt>
<pdfrwt beam="2">  1        4 0.98466286E-03 0.12848674E+03</pdfrwt>
<pdfrwt beam="1">  1       -4 0.16459611E+00 0.12848674E+03</pdfrwt>
<totfact> 0.12312878E+03</totfact>
</mgrwt>
</event>
<event>
 6    4  0.2271823E-003  0.1324905E+03  0.7818608E-02  0.1223806E+00
         -4   -1    0    0    0  501 -0.00000000000E+00  0.00000000000E+00  0.11183177598E+03  0.11183898703E+03  0.12700000000E+01 0.  1.
          4   -1    0    0  502    0  0.00000000000E+00 -0.00000000000E+00 -0.69552277604E+02  0.69563871513E+02  0.12700000000E+01 0.  1.
         25    2    1    2    0    0  0.35867053943E+02 -0.25332587625E+02  0.31141575427E+02  0.13610121528E+03  0.12500223009E+03 0.  0.
    9000005    1    3    3    0    0  0.63575085602E+02 -0.25336869179E+02  0.63586178403E+02  0.93423500967E+02  0.10000000000E+01 0.  0.
    9000005    1    3    3    0    0 -0.27708031658E+02  0.42815533450E-02 -0.32444602976E+02  0.42677714313E+02  0.10000000000E+01 0.  0.
         21    1    1    2  502  501 -0.35867053943E+02  0.25332587625E+02  0.11137922951E+02  0.45301643260E+02  0.00000000000E+00 0.  1.
<mgrwt>
<rscale>  1 0.13249054E+03</rscale>
<asrwt>0</asrwt>
<pdfrwt beam="2">  1        4 0.10701797E-01 0.13249054E+03</pdfrwt>
<pdfrwt beam="1">  1       -4 0.17206335E-01 0.13249054E+03</pdfrwt>
<totfact> 0.32551005E+03</totfact>
</mgrwt>
</event>
<event>
 6    4  0.2271823E-003  0.1294981E+03  0.7818608E-02  0.1228202E+00
         -4   -1    0    0    0  501 -0.00000000000E+00  0.00000000000E+00  0.12907188699E+03  0.12907813491E+03  0.12700000000E+01 0.  1.
          4   -1    0    0  502    0  0.00000000000E+00 -0.00000000000E+00 -0.67710622224E+02  0.67722531420E+02  0.12700000000E+01 0.  1.
         25    2    1    2    0    0  0.12139605989E+02  0.31580558765E+02  0.32275675325E+01  0.12953828100E+03  0.12500018931E+03 0.  0.
    9000005    1    3    3    0    0 -0.16868295327E+02 -0.17617227455E+02 -0.47331169417E+02  0.53255475670E+02  0.10000000000E+01 0.  0.
    9000005    1    3    3    0    0  0.29007901316E+02  0.49197786219E+02  0.50558736949E+02  0.76282805334E+02  0.10000000000E+01 0.  0.
         21    1    1    2  502  501 -0.12139605989E+02 -0.31580558765E+02  0.58133697234E+02  0.67262385325E+02  0.00000000000E+00 0.  1.
<mgrwt>
<rscale>  1 0.12949807E+03</rscale>
<asrwt>0</asrwt>
<pdfrwt beam="2">  1        4 0.10418416E-01 0.12949807E+03</pdfrwt>
<pdfrwt beam="1">  1       -4 0.19858610E-01 0.12949807E+03</pdfrwt>
<totfact> 0.26238185E+03</totfact>
</mgrwt>
</event>
<event>
 6    4  0.2271823E-003  0.1268878E+03  0.7818608E-02  0.1232148E+00
         -4   -1    0    0    0  501 -0.00000000000E+00  0.00000000000E+00  0.18525250770E+03  0.18525686090E+03  0.12700000000E+01 0. -1.
          4   -1    0    0  502    0  0.00000000000E+00 -0.00000000000E+00 -0.40455486661E+02  0.40475416008E+02  0.12700000000E+01 0. -1.
         25    2    1    2    0    0  0.18122769179E+02 -0.12154496071E+02  0.64143753737E+02  0.14217920357E+03  0.12499735296E+03 0.  0.
    9000005    1    3    3    0    0 -0.36102758245E+02 -0.47778350665E+02  0.17940278430E+02  0.62522264317E+02  0.10000000000E+01 0.  0.
    9000005    1    3    3    0    0  0.54225527424E+02  0.35623854594E+02  0.46203475307E+02  0.79656939252E+02  0.10000000000E+01 0.  0.
         21    1    1    2  502  501 -0.18122769179E+02  0.12154496071E+02  0.80653267303E+02  0.83553073337E+02  0.00000000000E+00 0.  1.
<mgrwt>
<rscale>  1 0.12688776E+03</rscale>
<asrwt>0</asrwt>
<pdfrwt beam="2">  1        4 0.62257889E-02 0.12688776E+03</pdfrwt>
<pdfrwt beam="1">  1       -4 0.28502254E-01 0.12688776E+03</pdfrwt>
<totfact> 0.31579406E+03</totfact>
</mgrwt>
</event>
<event>
 6    4  0.2271823E-003  0.1335222E+03  0.7818608E-02  0.1222321E+00
          4   -1    0    0  502    0  0.00000000000E+00  0.00000000000E+00  0.23431982567E+02  0.23466373964E+02  0.12700000000E+01 0.  1.
         -4   -1    0    0    0  501 -0.00000000000E+00 -0.00000000000E+00 -0.36311994992E+03  0.36312217080E+03  0.12700000000E+01 0.  1.
         25    2    1    2    0    0  0.46321354747E+02 -0.71675077786E+01 -0.28384208737E+03  0.31367898858E+03  0.12502454254E+03 0.  0.
    9000005    1    3    3    0    0 -0.11505039041E+02  0.93596772757E+01  0.71782876162E+01  0.16507492091E+02  0.10000000000E+01 0.  0.
    9000005    1    3    3    0    0  0.57826393788E+02 -0.16527185054E+02 -0.29102037499E+03  0.29717149649E+03  0.10000000000E+01 0.  0.
         21    1    1    2  502  501 -0.46321354747E+02  0.71675077786E+01 -0.55845879975E+02  0.72909556188E+02  0.00000000000E+00 0.  1.
<mgrwt>
<rscale>  1 0.13352220E+03</rscale>
<asrwt>0</asrwt>
<pdfrwt beam="1">  1        4 0.36077370E-02 0.13352220E+03</pdfrwt>
<pdfrwt beam="2">  1       -4 0.55867420E-01 0.13352220E+03</pdfrwt>
<totfact> 0.20367452E+03</totfact>
</mgrwt>
</event>
<event>
 6    4  0.2271823E-003  0.1289004E+03  0.7818608E-02  0.1229097E+00
          4   -1    0    0  502    0  0.00000000000E+00  0.00000000000E+00  0.19191499872E+03  0.19191920080E+03  0.12700000000E+01 0.  1.
         -4   -1    0    0    0  501 -0.00000000000E+00 -0.00000000000E+00 -0.35888208889E+02  0.35910673028E+02  0.12700000000E+01 0.  1.
         25    2    1    2    0    0  0.49043551755E+01  0.31077469069E+02  0.14610960583E+03  0.19484181050E+03  0.12500180966E+03 0.  0.
    9000005    1    3    3    0    0  0.10823434719E+02  0.29310647189E+02 -0.14253059392E+02  0.34357102320E+02  0.10000000000E+01 0.  0.
    9000005    1    3    3    0    0 -0.59190795438E+01  0.17668218791E+01  0.16036266522E+03  0.16048470818E+03  0.10000000000E+01 0.  0.
         21    1    1    2  502  501 -0.49043551755E+01 -0.31077469069E+02  0.99171840030E+01  0.32988063325E+02  0.00000000000E+00 0. -1.
<mgrwt>
<rscale>  1 0.12890040E+03</rscale>
<asrwt>0</asrwt>
<pdfrwt beam="1">  1        4 0.29527436E-01 0.12890040E+03</pdfrwt>
<pdfrwt beam="2">  1       -4 0.55233141E-02 0.12890040E+03</pdfrwt>
<totfact> 0.36016648E+03</totfact>
</mgrwt>
</event>
<event>
 6    4  0.2271823E-003  0.1278982E+03  0.7818608E-02  0.1230608E+00
          4   -1    0    0  502    0  0.00000000000E+00  0.00000000000E+00  0.99138716085E+03  0.99138797430E+03  0.12700000000E+01 0. -1.
         -4   -1    0    0    0  501 -0.00000000000E+00 -0.00000000000E+00 -0.62787015651E+01  0.64058561757E+01  0.12700000000E+01 0. -1.
         25    2    1    2    0    0 -0.15102809923E+02  0.22450274522E+02  0.88060251986E+03  0.88984198441E+03  0.12500339817E+03 0.  0.
    9000005    1    3    3    0    0 -0.36368577690E+02  0.24805277280E+02  0.85636523858E+03  0.85749658721E+03  0.10000000000E+01 0.  0.
    9000005    1    3    3    0    0  0.21265767767E+02 -0.23550027587E+01  0.24237281275E+02  0.32345397204E+02  0.10000000000E+01 0.  0.
         21    1    1    2  502  501  0.15102809923E+02 -0.22450274522E+02  0.10450593943E+03  0.10795184607E+03  0.00000000000E+00 0. -1.
<mgrwt>
<rscale>  1 0.12789824E+03</rscale>
<asrwt>0</asrwt>
<pdfrwt beam="1">  1        4 0.15253088E+00 0.12789824E+03</pdfrwt>
<pdfrwt beam="2">  1       -4 0.97579821E-03 0.12789824E+03</pdfrwt>
<totfact> 0.15187963E+03</totfact>
</mgrwt>
</event>
<event>
 6    4  0.2271823E-003  0.1305940E+03  0.7818608E-02  0.1226577E+00
          4   -1    0    0  502    0  0.00000000000E+00  0.00000000000E+00  0.86288585247E+02  0.86297930705E+02  0.12700000000E+01 0.  1.
         -4   -1    0    0    0  501 -0.00000000000E+00 -0.00000000000E+00 -0.82144410894E+02  0.82154227774E+02  0.12700000000E+01 0.  1.
         25    2    1    2    0    0  0.11395024662E+02  0.36047376121E+02  0.29051437223E+01  0.13062630609E+03  0.12500212826E+03 0.  0.
    9000005    1    3    3    0    0 -0.26794140431E+02  0.32641003127E+02  0.52848064193E+02  0.67655590571E+02  0.10000000000E+01 0.  0.
    9000005    1    3    3    0    0  0.38189165093E+02  0.34063729947E+01 -0.49942920470E+02  0.62970715516E+02  0.10000000000E+01 0.  0.
         21    1    1    2  502  501 -0.11395024662E+02 -0.36047376121E+02  0.12390306304E+01  0.37825852392E+02  0.00000000000E+00 0.  1.
<mgrwt>
<rscale>  1 0.13059400E+03</rscale>
<asrwt>0</asrwt>
<pdfrwt beam="1">  1        4 0.13276641E-01 0.13059400E+03</pdfrwt>
<pdfrwt beam="2">  1       -4 0.12639076E-01 0.13059400E+03</pdfrwt>
<totfact> 0.38414706E+03</totfact>
</mgrwt>
</event>
<event>
 6    4  0.2271823E-003  0.1274731E+03  0.7818608E-02  0.1231254E+00
          4   -1    0    0  502    0  0.00000000000E+00  0.00000000000E+00  0.52000073204E+02  0.52015579524E+02  0.12700000000E+01 0. -1.
         -4   -1    0    0    0  501 -0.00000000000E+00 -0.00000000000E+00 -0.14155434735E+03  0.14156004435E+03  0.12700000000E+01 0. -1.
         25    2    1    2    0    0  0.24925080535E+02 -0.14920861990E+01 -0.32881202123E+02  0.13164563877E+03  0.12500365912E+03 0.  0.
    9000005    1    3    3    0    0 -0.50826531783E+02  0.78085923085E+00 -0.20635326555E+02  0.54870418043E+02  0.10000000000E+01 0.  0.
    9000005    1    3    3    0    0  0.75751612318E+02 -0.22729454298E+01 -0.12245875568E+02  0.76775220730E+02  0.10000000000E+01 0.  0.
         21    1    1    2  502  501 -0.24925080535E+02  0.14920861990E+01 -0.56673072028E+02  0.61929985096E+02  0.00000000000E+00 0. -1.
<mgrwt>
<rscale>  1 0.12747314E+03</rscale>
<asrwt>0</asrwt>
<pdfrwt beam="1">  1        4 0.80016423E-02 0.12747314E+03</pdfrwt>
<pdfrwt beam="2">  1       -4 0.21779223E-01 0.12747314E+03</pdfrwt>
<totfact> 0.34393982E+03</totfact>
</mgrwt>
</event>
<event>
 6    4  0.2271823E-003  0.1268740E+03  0.7818608E-02  0.1232169E+00
         -4   -1    0    0    0  501 -0.00000000000E+00  0.00000000000E+00  0.26716768088E+03  0.26717069938E+03  0.12700000000E+01 0.  1.
          4   -1    0    0  502    0  0.00000000000E+00 -0.00000000000E+00 -0.20781003123E+02  0.20819774033E+02  0.12700000000E+01 0.  1.
         25    2    1    2    0    0 -0.10699443707E+02  0.18924639145E+02  0.20149564795E+03  0.23811237582E+03  0.12499754923E+03 0.  0.
    9000005    1    3    3    0    0 -0.44233137165E+00 -0.41880574514E+02  0.15585744739E+03  0.16138996898E+03  0.10000000000E+01 0.  0.
    9000005    1    3    3    0    0 -0.10257112335E+02  0.60805213659E+02  0.45638200558E+02  0.76722406843E+02  0.10000000000E+01 0.  0.
         21    1    1    2  502  501  0.10699443707E+02 -0.18924639145E+02  0.44891029810E+02  0.49878097596E+02  0.00000000000E+00 0. -1.
<mgrwt>
<rscale>  1 0.12687398E+03</rscale>
<asrwt>0</asrwt>
<pdfrwt beam="2">  1        4 0.32002919E-02 0.12687398E+03</pdfrwt>
<pdfrwt beam="1">  1       -4 0.41105935E-01 0.12687398E+03</pdfrwt>
<totfact> 0.45186936E+03</totfact>
</mgrwt>
</event>
<event>
 6    4  0.2271823E-003  0.1399270E+03  0.7818608E-02  0.1213427E+00
          4   -1    0    0  502    0  0.00000000000E+00  0.00000000000E+00  0.56415370746E+01  0.57827191324E+01  0.12700000000E+01 0. -1.
         -4   -1    0    0    0  501 -0.00000000000E+00 -0.00000000000E+00 -0.18014948709E+04  0.18014953186E+04  0.12700000000E+01 0. -1.
         25    2    1    2    0    0  0.53211015349E+02  0.33583061937E+02 -0.12217637268E+04  0.12297504530E+04  0.12498135173E+03 0.  0.
    9000005    1    3    3    0    0  0.60032086958E+02  0.75704554955E+02 -0.89876061870E+03  0.90393953384E+03  0.10000000000E+01 0.  0.
    9000005    1    3    3    0    0 -0.68210716085E+01 -0.42121493017E+02 -0.32300310809E+03  0.32581091913E+03  0.10000000000E+01 0.  0.
         21    1    1    2  502  501 -0.53211015349E+02 -0.33583061937E+02 -0.57408960708E+03  0.57752758476E+03  0.00000000000E+00 0. -1.
<mgrwt>
<rscale>  1 0.13992703E+03</rscale>
<asrwt>0</asrwt>
<pdfrwt beam="1">  1        4 0.87882481E-03 0.13992703E+03</pdfrwt>
<pdfrwt beam="2">  1       -4 0.27716350E+00 0.13992703E+03</pdfrwt>
<totfact> 0.30664042E+02</totfact>
</mgrwt>
</event>
<event>
 6    4  0.2271823E-003  0.1268017E+03  0.7818608E-02  0.1232280E+00
         -4   -1    0    0    0  501 -0.00000000000E+00  0.00000000000E+00  0.44341668580E+03  0.44341850451E+03  0.12700000000E+01 0. -1.
          4   -1    0    0  502    0  0.00000000000E+00 -0.00000000000E+00 -0.30366184483E+02  0.30392730381E+02  0.12700000000E+01 0. -1.
         25    2    1    2    0    0  0.18020318343E+02 -0.11328169881E+02  0.10391011093E+03  0.16393893817E+03  0.12500241994E+03 0.  0.
    9000005    1    3    3    0    0  0.40195272385E+00  0.39672028949E+02 -0.72756607045E+01  0.40348069169E+02  0.10000000000E+01 0.  0.
    9000005    1    3    3    0    0  0.17618365619E+02 -0.51000198830E+02  0.11118577163E+03  0.12359086900E+03  0.10000000000E+01 0.  0.
         21    1    1    2  502  501 -0.18020318343E+02  0.11328169881E+02  0.30914039039E+03  0.30987229672E+03  0.00000000000E+00 0. -1.
<mgrwt>
<rscale>  1 0.12680167E+03</rscale>
<asrwt>0</asrwt>
<pdfrwt beam="2">  1        4 0.46739031E-02 0.12680167E+03</pdfrwt>
<pdfrwt beam="1">  1       -4 0.68220126E-01 0.12680167E+03</pdfrwt>
<totfact> 0.87566918E+02</totfact>
</mgrwt>
</event>
<event>
 6    4  0.2271823E-003  0.1292890E+03  0.7818608E-02  0.1228515E+00
         -4   -1    0    0    0  501 -0.00000000000E+00  0.00000000000E+00  0.21172460792E+04  0.21172464601E+04  0.12700000000E+01 0. -1.
          4   -1    0    0  502    0  0.00000000000E+00 -0.00000000000E+00 -0.29807480513E+01  0.32400245285E+01  0.12700000000E+01 0. -1.
         25    2    1    2    0    0  0.29556167564E+02  0.14721237766E+02  0.16894427586E+04  0.16943826240E+04  0.12500144032E+03 0.  0.
    9000005    1    3    3    0    0  0.29520081146E+02 -0.27755514211E+01  0.88427352992E+02  0.93271301234E+02  0.10000000000E+01 0.  0.
    9000005    1    3    3    0    0  0.36086417328E-01  0.17496789188E+02  0.16010154056E+04  0.16011113228E+04  0.10000000000E+01 0.  0.
         21    1    1    2  502  501 -0.29556167564E+02 -0.14721237766E+02  0.42482257258E+03  0.42610386065E+03  0.00000000000E+00 0. -1.
<mgrwt>
<rscale>  1 0.12928899E+03</rscale>
<asrwt>0</asrwt>
<pdfrwt beam="2">  1        4 0.47854968E-03 0.12928899E+03</pdfrwt>
<pdfrwt beam="1">  1       -4 0.32575054E+00 0.12928899E+03</pdfrwt>
<totfact> 0.39165218E+02</totfact>
</mgrwt>
</event>
<event>
 6    4  0.2271823E-003  0.1289452E+03  0.7818608E-02  0.1229029E+00
         -4   -1    0    0    0  501 -0.00000000000E+00  0.00000000000E+00  0.55557076219E+02  0.55571590026E+02  0.12700000000E+01 0. -1.
          4   -1    0    0  502    0  0.00000000000E+00 -0.00000000000E+00 -0.16153080079E+03  0.16153579326E+03  0.12700000000E+01 0. -1.
         25    2    1    2    0    0  0.28246835213E+02  0.14303459232E+02 -0.12547726058E+03  0.17992055011E+03  0.12499755511E+03 0.  0.
    9000005    1    3    3    0    0  0.32314078526E+02  0.67325148089E+02 -0.84531671647E+02  0.11279839869E+03  0.10000000000E+01 0.  0.
    9000005    1    3    3    0    0 -0.40672433132E+01 -0.53021688857E+02 -0.40945588933E+02  0.67122151414E+02  0.10000000000E+01 0.  0.
         21    1    1    2  502  501 -0.28246835213E+02 -0.14303459232E+02  0.19503536004E+02  0.37186833183E+02  0.00000000000E+00 0. -1.
<mgrwt>
<rscale>  1 0.12894519E+03</rscale>
<asrwt>0</asrwt>
<pdfrwt beam="2">  1        4 0.24852393E-01 0.12894519E+03</pdfrwt>
<pdfrwt beam="1">  1       -4 0.85487431E-02 0.12894519E+03</pdfrwt>
<totfact> 0.24279516E+03</totfact>
</mgrwt>
</event>
<event>
 6    4  0.2271823E-003  0.1269414E+03  0.7818608E-02  0.1232066E+00
          4   -1    0    0  502    0  0.00000000000E+00  0.00000000000E+00  0.27584666474E+02  0.27613886443E+02  0.12700000000E+01 0.  1.
         -4   -1    0    0    0  501 -0.00000000000E+00 -0.00000000000E+00 -0.20121423376E+03  0.20121824164E+03  0.12700000000E+01 0.  1.
         25    2    1    2    0    0 -0.15844721634E+02  0.15423413340E+02 -0.14777459023E+03  0.19481130032E+03  0.12500070533E+03 0.  0.
    9000005    1    3    3    0    0  0.17192008224E+02  0.63837895707E+02 -0.96204038390E+02  0.11673499509E+03  0.10000000000E+01 0.  0.
    9000005    1    3    3    0    0 -0.33036729858E+02 -0.48414482367E+02 -0.51570551835E+02  0.78076305235E+02  0.10000000000E+01 0.  0.
         21    1    1    2  502  501  0.15844721634E+02 -0.15423413340E+02 -0.25854977066E+02  0.34020827765E+02  0.00000000000E+00 0.  1.
<mgrwt>
<rscale>  1 0.12694138E+03</rscale>
<asrwt>0</asrwt>
<pdfrwt beam="1">  1        4 0.42463510E-02 0.12694138E+03</pdfrwt>
<pdfrwt beam="2">  1       -4 0.30958591E-01 0.12694138E+03</pdfrwt>
<totfact> 0.50008358E+03</totfact>
</mgrwt>
</event>
<event>
 6    4  0.2271823E-003  0.1285805E+03  0.7818608E-02  0.1229577E+00
         -4   -1    0    0    0  501 -0.00000000000E+00  0.00000000000E+00  0.74079900837E+02  0.74090786256E+02  0.12700000000E+01 0.  1.
          4   -1    0    0  502    0  0.00000000000E+00 -0.00000000000E+00 -0.92877896226E+02  0.92886578726E+02  0.12700000000E+01 0.  1.
         25    2    1    2    0    0  0.89950590239E+01  0.28753226499E+02 -0.34326351687E+02  0.13308357543E+03  0.12500112203E+03 0.  0.
    9000005    1    3    3    0    0 -0.29305090285E+02  0.54807088405E+02 -0.54388834654E+02  0.82593889550E+02  0.10000000000E+01 0.  0.
    9000005    1    3    3    0    0  0.38300149308E+02 -0.26053861907E+02  0.20062482966E+02  0.50489685878E+02  0.10000000000E+01 0.  0.
         21    1    1    2  502  501 -0.89950590239E+01 -0.28753226499E+02  0.15528356298E+02  0.33893789553E+02  0.00000000000E+00 0.  1.
<mgrwt>
<rscale>  1 0.12858048E+03</rscale>
<asrwt>0</asrwt>
<pdfrwt beam="2">  1        4 0.14290412E-01 0.12858048E+03</pdfrwt>
<pdfrwt beam="1">  1       -4 0.11398413E-01 0.12858048E+03</pdfrwt>
<totfact> 0.40198599E+03</totfact>
</mgrwt>
</event>
<event>
 6    4  0.2271823E-003  0.1279845E+03  0.7818608E-02  0.1230477E+00
         -4   -1    0    0    0  501 -0.00000000000E+00  0.00000000000E+00  0.35029498572E+03  0.35029728792E+03  0.12700000000E+01 0. -1.
          4   -1    0    0  502    0  0.00000000000E+00 -0.00000000000E+00 -0.98748532848E+02  0.98756699213E+02  0.12700000000E+01 0. -1.
         25    2    1    2    0    0 -0.19024277248E+02 -0.19879500256E+02 -0.56414333968E+02  0.13986640024E+03  0.12499166046E+03 0.  0.
    9000005    1    3    3    0    0  0.31555830367E+02 -0.16049720639E+02  0.25410119194E+02  0.43589426702E+02  0.10000000000E+01 0.  0.
    9000005    1    3    3    0    0 -0.50580107615E+02 -0.38297796171E+01 -0.81824453162E+02  0.96276973537E+02  0.10000000000E+01 0.  0.
         21    1    1    2  502  501  0.19024277248E+02  0.19879500256E+02  0.30796078684E+03  0.30918758689E+03  0.00000000000E+00 0. -1.
<mgrwt>
<rscale>  1 0.12798450E+03</rscale>
<asrwt>0</asrwt>
<pdfrwt beam="2">  1        4 0.15192887E-01 0.12798450E+03</pdfrwt>
<pdfrwt beam="1">  1       -4 0.53892343E-01 0.12798450E+03</pdfrwt>
<totfact> 0.20231286E+02</totfact>
</mgrwt>
</event>
<event>
 6    4  0.2271823E-003  0.1270394E+03  0.7818608E-02  0.1231916E+00
         -4   -1    0    0    0  501 -0.00000000000E+00  0.00000000000E+00  0.13899581384E+04  0.13899587186E+04  0.12700000000E+01 0.  1.
          4   -1    0    0  502    0  0.00000000000E+00 -0.00000000000E+00 -0.41620384628E+01  0.43514898789E+01  0.12700000000E+01 0.  1.
         25    2    1    2    0    0  0.97904060897E+01  0.20446919016E+02  0.10322470390E+04  0.10400350795E+04  0.12500035375E+03 0.  0.
    9000005    1    3    3    0    0  0.50384809492E+02 -0.24360657700E+02  0.29160028057E+03  0.29692388637E+03  0.10000000000E+01 0.  0.
    9000005    1    3    3    0    0 -0.40594403402E+02  0.44807576716E+02  0.74064675847E+03  0.74311119313E+03  0.10000000000E+01 0.  0.
         21    1    1    2  502  501 -0.97904060897E+01 -0.20446919016E+02  0.35354906094E+03  0.35427512901E+03  0.00000000000E+00 0.  1.
<mgrwt>
<rscale>  1 0.12703943E+03</rscale>
<asrwt>0</asrwt>
<pdfrwt beam="2">  1        4 0.65493116E-03 0.12703943E+03</pdfrwt>
<pdfrwt beam="1">  1       -4 0.21385442E+00 0.12703943E+03</pdfrwt>
<totfact> 0.10929932E+03</totfact>
</mgrwt>
</event>
<event>
 6    4  0.2271823E-003  0.1282123E+03  0.7818608E-02  0.1230133E+00
         -4   -1    0    0    0  501 -0.00000000000E+00  0.00000000000E+00  0.22347054303E+03  0.22347415176E+03  0.12700000000E+01 0. -1.
          4   -1    0    0  502    0  0.00000000000E+00 -0.00000000000E+00 -0.36929322213E+02  0.36951153420E+02  0.12700000000E+01 0. -1.
         25    2    1    2    0    0 -0.13605360808E+02  0.25063063204E+02  0.82300490053E+02  0.15235406510E+03  0.12500051004E+03 0.  0.
    9000005    1    3    3    0    0 -0.24068695678E+02  0.76877405784E+01 -0.29425404372E+02  0.38797653142E+02  0.10000000000E+01 0.  0.
    9000005    1    3    3    0    0  0.10463334871E+02  0.17375322625E+02  0.11172589442E+03  0.11355641196E+03  0.10000000000E+01 0.  0.
         21    1    1    2  502  501  0.13605360808E+02 -0.25063063204E+02  0.10424073077E+03  0.10807124007E+03  0.00000000000E+00 0. -1.
<mgrwt>
<rscale>  1 0.12821229E+03</rscale>
<asrwt>0</asrwt>
<pdfrwt beam="2">  1        4 0.56833912E-02 0.12821229E+03</pdfrwt>
<pdfrwt beam="1">  1       -4 0.34382040E-01 0.12821229E+03</pdfrwt>
<totfact> 0.25708536E+03</totfact>
</mgrwt>
</event>
<event>
 6    4  0.2271823E-003  0.1271183E+03  0.7818608E-02  0.1231795E+00
         -4   -1    0    0    0  501 -0.00000000000E+00  0.00000000000E+00  0.23419360305E+03  0.23419704654E+03  0.12700000000E+01 0. -1.
          4   -1    0    0  502    0  0.00000000000E+00 -0.00000000000E+00 -0.26829623789E+02  0.26859665163E+02  0.12700000000E+01 0. -1.
         25    2    1    2    0    0 -0.22396498459E+02  0.57030210267E+01  0.13652290209E+03  0.18654103680E+03  0.12499971209E+03 0.  0.
    9000005    1    3    3    0    0  0.24317010241E+02  0.49106176716E+02  0.97294053178E+02  0.11166855584E+03  0.10000000000E+01 0.  0.
    9000005    1    3    3    0    0 -0.46713508700E+02 -0.43403155689E+02  0.39228848916E+02  0.74872480967E+02  0.10000000000E+01 0.  0.
         21    1    1    2  502  501  0.22396498459E+02 -0.57030210267E+01  0.70841077163E+02  0.74515674899E+02  0.00000000000E+00 0. -1.
<mgrwt>
<rscale>  1 0.12711827E+03</rscale>
<asrwt>0</asrwt>
<pdfrwt beam="2">  1        4 0.41302102E-02 0.12711827E+03</pdfrwt>
<pdfrwt beam="1">  1       -4 0.36032361E-01 0.12711827E+03</pdfrwt>
<totfact> 0.39095335E+03</totfact>
</mgrwt>
</event>
<event>
 6    4  0.2271823E-003  0.1346265E+03  0.7818608E-02  0.1220748E+00
         -4   -1    0    0    0  501 -0.00000000000E+00  0.00000000000E+00  0.64604898739E+03  0.64605023567E+03  0.12700000000E+01 0. -1.
          4   -1    0    0  502    0  0.00000000000E+00 -0.00000000000E+00 -0.14096089764E+02  0.14153185035E+02  0.12700000000E+01 0. -1.
         25    2    1    2    0    0 -0.49089383388E+02 -0.98535324876E+01  0.37538865992E+03  0.39879938911E+03  0.12496978473E+03 0.  0.
    9000005    1    3    3    0    0 -0.72580647766E+02 -0.30532219442E+02  0.13428931800E+03  0.15567526387E+03  0.10000000000E+01 0.  0.
    9000005    1    3    3    0    0  0.23491264378E+02  0.20678686955E+02  0.24109934193E+03  0.24312412524E+03  0.10000000000E+01 0.  0.
         21    1    1    2  502  501  0.49089383388E+02  0.98535324876E+01  0.25656423770E+03  0.26140403159E+03  0.00000000000E+00 0. -1.
<mgrwt>
<rscale>  1 0.13462655E+03</rscale>
<asrwt>0</asrwt>
<pdfrwt beam="2">  1        4 0.21731171E-02 0.13462655E+03</pdfrwt>
<pdfrwt beam="1">  1       -4 0.99396644E-01 0.13462655E+03</pdfrwt>
<totfact> 0.12795659E+03</totfact>
</mgrwt>
</event>
<event>
 6    4  0.2271823E-003  0.1277658E+03  0.7818608E-02  0.1230809E+00
          4   -1    0    0  502    0  0.00000000000E+00  0.00000000000E+00  0.13839244534E+04  0.13839250361E+04  0.12700000000E+01 0.  1.
         -4   -1    0    0    0  501 -0.00000000000E+00 -0.00000000000E+00 -0.43542611006E+01  0.45356906566E+01  0.12700000000E+01 0.  1.
         25    2    1    2    0    0  0.14682500181E+02  0.21984699121E+02  0.12251301407E+04  0.12317743128E+04  0.12500077228E+03 0.  0.
    9000005    1    3    3    0    0 -0.45700210987E+02  0.42716661707E+02  0.69580186332E+03  0.69860894316E+03  0.10000000000E+01 0.  0.
    9000005    1    3    3    0    0  0.60382711168E+02 -0.20731962586E+02  0.52932827742E+03  0.53316536962E+03  0.10000000000E+01 0.  0.
         21    1    1    2  502  501 -0.14682500181E+02 -0.21984699121E+02  0.15444005151E+03  0.15668641395E+03  0.00000000000E+00 0.  1.
<mgrwt>
<rscale>  1 0.12776579E+03</rscale>
<asrwt>0</asrwt>
<pdfrwt beam="1">  1        4 0.21292561E+00 0.12776579E+03</pdfrwt>
<pdfrwt beam="2">  1       -4 0.68388677E-03 0.12776579E+03</pdfrwt>
<totfact> 0.10392990E+03</totfact>
</mgrwt>
</event>
<event>
 6    4  0.2271823E-003  0.1298797E+03  0.7818608E-02  0.1227634E+00
         -4   -1    0    0    0  501 -0.00000000000E+00  0.00000000000E+00  0.24402927844E+01  0.27509868908E+01  0.12700000000E+01 0.  1.
          4   -1    0    0  502    0  0.00000000000E+00 -0.00000000000E+00 -0.28930594016E+04  0.28930596804E+04  0.12700000000E+01 0.  1.
         25    2    1    2    0    0  0.33969091581E+02  0.94648127673E+01 -0.25653445548E+04  0.25686302624E+04  0.12500103160E+03 0.  0.
    9000005    1    3    3    0    0  0.51292440748E+02 -0.23761339568E+02 -0.54244356444E+03  0.54538200955E+03  0.10000000000E+01 0.  0.
    9000005    1    3    3    0    0 -0.17323349167E+02  0.33226152335E+02 -0.20229009904E+04  0.20232482528E+04  0.10000000000E+01 0.  0.
         21    1    1    2  502  501 -0.33969091581E+02 -0.94648127673E+01 -0.32527455401E+03  0.32718040490E+03  0.00000000000E+00 0.  1.
<mgrwt>
<rscale>  1 0.12987971E+03</rscale>
<asrwt>0</asrwt>
<pdfrwt beam="2">  1        4 0.44510740E+00 0.12987971E+03</pdfrwt>
<pdfrwt beam="1">  1       -4 0.39935296E-03 0.12987971E+03</pdfrwt>
<totfact> 0.87273160E+01</totfact>
</mgrwt>
</event>
<event>
 6    4  0.2271823E-003  0.1267556E+03  0.7818608E-02  0.1232351E+00
          4   -1    0    0  502    0  0.00000000000E+00  0.00000000000E+00  0.95326436643E+02  0.95334896146E+02  0.12700000000E+01 0.  1.
         -4   -1    0    0    0  501 -0.00000000000E+00 -0.00000000000E+00 -0.13939827453E+03  0.13940405963E+03  0.12700000000E+01 0.  1.
         25    2    1    2    0    0  0.36352377702E+01 -0.20686599181E+02  0.51550355418E+02  0.13683719792E+03  0.12500331696E+03 0.  0.
    9000005    1    3    3    0    0  0.52348452307E+02  0.21102517466E+02  0.45233088597E+02  0.72337466132E+02  0.10000000000E+01 0.  0.
    9000005    1    3    3    0    0 -0.48713214536E+02 -0.41789116647E+02  0.63172668207E+01  0.64499731788E+02  0.10000000000E+01 0.  0.
         21    1    1    2  502  501 -0.36352377702E+01  0.20686599181E+02 -0.95622193301E+02  0.97901757855E+02  0.00000000000E+00 0.  1.
<mgrwt>
<rscale>  1 0.12675559E+03</rscale>
<asrwt>0</asrwt>
<pdfrwt beam="1">  1        4 0.14666701E-01 0.12675559E+03</pdfrwt>
<pdfrwt beam="2">  1       -4 0.21446984E-01 0.12675559E+03</pdfrwt>
<totfact> 0.12648802E+03</totfact>
</mgrwt>
</event>
<event>
 6    4  0.2271823E-003  0.1285227E+03  0.7818608E-02  0.1229664E+00
          4   -1    0    0  502    0  0.00000000000E+00  0.00000000000E+00  0.78836359852E+02  0.78846588605E+02  0.12700000000E+01 0. -1.
         -4   -1    0    0    0  501 -0.00000000000E+00 -0.00000000000E+00 -0.82215738358E+02  0.82225546722E+02  0.12700000000E+01 0. -1.
         25    2    1    2    0    0 -0.23999112831E+02 -0.17813048639E+02  0.87431698346E+01  0.12881971996E+03  0.12499926046E+03 0.  0.
    9000005    1    3    3    0    0  0.17725630034E+02 -0.63807433339E+02  0.10766052219E+01  0.66240060298E+02  0.10000000000E+01 0.  0.
    9000005    1    3    3    0    0 -0.41724742864E+02  0.45994384700E+02  0.76665646127E+01  0.62579659667E+02  0.10000000000E+01 0.  0.
         21    1    1    2  502  501  0.23999112831E+02  0.17813048639E+02 -0.12122548341E+02  0.32252415363E+02  0.00000000000E+00 0. -1.
<mgrwt>
<rscale>  1 0.12852267E+03</rscale>
<asrwt>0</asrwt>
<pdfrwt beam="1">  1        4 0.12130212E-01 0.12852267E+03</pdfrwt>
<pdfrwt beam="2">  1       -4 0.12650116E-01 0.12852267E+03</pdfrwt>
<totfact> 0.44614700E+03</totfact>
</mgrwt>
</event>
<event>
 6    4  0.2271823E-003  0.1268461E+03  0.7818608E-02  0.1232212E+00
          4   -1    0    0  502    0  0.00000000000E+00  0.00000000000E+00  0.96389133527E+01  0.97222194288E+01  0.12700000000E+01 0.  1.
         -4   -1    0    0    0  501 -0.00000000000E+00 -0.00000000000E+00 -0.57306775362E+03  0.57306916087E+03  0.12700000000E+01 0.  1.
         25    2    1    2    0    0  0.21552046845E+02 -0.69301448326E+00 -0.46208925797E+03  0.47918307015E+03  0.12499984556E+03 0.  0.
    9000005    1    3    3    0    0  0.14806761586E+02 -0.50120376602E+02 -0.92554391216E+02  0.10629490897E+03  0.10000000000E+01 0.  0.
    9000005    1    3    3    0    0  0.67452852595E+01  0.49427362118E+02 -0.36953486676E+03  0.37288816118E+03  0.10000000000E+01 0.  0.
         21    1    1    2  502  501 -0.21552046845E+02  0.69301448326E+00 -0.10133958230E+03  0.10360831015E+03  0.00000000000E+00 0. -1.
<mgrwt>
<rscale>  1 0.12684610E+03</rscale>
<asrwt>0</asrwt>
<pdfrwt beam="1">  1        4 0.14894266E-02 0.12684610E+03</pdfrwt>
<pdfrwt beam="2">  1       -4 0.88170760E-01 0.12684610E+03</pdfrwt>
<totfact> 0.29596016E+03</totfact>
</mgrwt>
</event>
<event>
 6    4  0.2271823E-003  0.1271244E+03  0.7818608E-02  0.1231786E+00
          4   -1    0    0  502    0  0.00000000000E+00  0.00000000000E+00  0.50359929897E+02  0.50375941075E+02  0.12700000000E+01 0. -1.
         -4   -1    0    0    0  501 -0.00000000000E+00 -0.00000000000E+00 -0.11422981041E+03  0.11423687009E+03  0.12700000000E+01 0. -1.
         25    2    1    2    0    0  0.11796296818E+02  0.19898338300E+02 -0.45318574485E+02  0.13496070430E+03  0.12500208809E+03 0.  0.
    9000005    1    3    3    0    0 -0.17328248837E+01 -0.24838158900E+02  0.34441355392E+02  0.42510513768E+02  0.10000000000E+01 0.  0.
    9000005    1    3    3    0    0  0.13529121702E+02  0.44736497199E+02 -0.79759929878E+02  0.92450190534E+02  0.10000000000E+01 0.  0.
         21    1    1    2  502  501 -0.11796296818E+02 -0.19898338300E+02 -0.18551306033E+02  0.29652106860E+02  0.00000000000E+00 0. -1.
<mgrwt>
<rscale>  1 0.12712442E+03</rscale>
<asrwt>0</asrwt>
<pdfrwt beam="1">  1        4 0.77494562E-02 0.12712442E+03</pdfrwt>
<pdfrwt beam="2">  1       -4 0.17575592E-01 0.12712442E+03</pdfrwt>
<totfact> 0.53222061E+03</totfact>
</mgrwt>
</event>
<event>
 6    4  0.2271823E-003  0.1268426E+03  0.7818608E-02  0.1232217E+00
          4   -1    0    0  502    0  0.00000000000E+00  0.00000000000E+00  0.17413684301E+03  0.17414147408E+03  0.12700000000E+01 0.  1.
         -4   -1    0    0    0  501 -0.00000000000E+00 -0.00000000000E+00 -0.73932497102E+02  0.73943404221E+02  0.12700000000E+01 0.  1.
         25    2    1    2    0    0 -0.11899379270E+02 -0.17955326715E+02  0.14844344748E+03  0.19525496343E+03  0.12500021865E+03 0.  0.
    9000005    1    3    3    0    0 -0.67554198753E+02  0.19727078373E+01  0.74783736432E+02  0.10080212587E+03  0.10000000000E+01 0.  0.
    9000005    1    3    3    0    0  0.55654819483E+02 -0.19928034553E+02  0.73659711043E+02  0.94452837564E+02  0.10000000000E+01 0.  0.
         21    1    1    2  502  501  0.11899379270E+02  0.17955326715E+02 -0.48239101567E+02  0.52829914863E+02  0.00000000000E+00 0. -1.
<mgrwt>
<rscale>  1 0.12684259E+03</rscale>
<asrwt>0</asrwt>
<pdfrwt beam="1">  1        4 0.26791478E-01 0.12684259E+03</pdfrwt>
<pdfrwt beam="2">  1       -4 0.11375426E-01 0.12684259E+03</pdfrwt>
<totfact> 0.13020552E+03</totfact>
</mgrwt>
</event>
<event>
 6    4  0.2271823E-003  0.1302697E+03  0.7818608E-02  0.1227056E+00
          4   -1    0    0  502    0  0.00000000000E+00  0.00000000000E+00  0.13355822137E+02  0.13416068163E+02  0.12700000000E+01 0.  1.
         -4   -1    0    0    0  501 -0.00000000000E+00 -0.00000000000E+00 -0.57201946795E+03  0.57202087777E+03  0.12700000000E+01 0.  1.
         25    2    1    2    0    0 -0.10546468838E+02 -0.35150445888E+02 -0.34764494092E+03  0.37125086874E+03  0.12499368281E+03 0.  0.
    9000005    1    3    3    0    0 -0.17550538292E+02  0.45370375504E+02 -0.11147236278E+03  0.12162886183E+03  0.10000000000E+01 0.  0.
    9000005    1    3    3    0    0  0.70040694546E+01 -0.80520821392E+02 -0.23617257814E+03  0.24962200691E+03  0.10000000000E+01 0.  0.
         21    1    1    2  502  501  0.10546468838E+02  0.35150445888E+02 -0.21101870489E+03  0.21418607720E+03  0.00000000000E+00 0.  1.
<mgrwt>
<rscale>  1 0.13026973E+03</rscale>
<asrwt>0</asrwt>
<pdfrwt beam="1">  1        4 0.20594851E-02 0.13026973E+03</pdfrwt>
<pdfrwt beam="2">  1       -4 0.88007719E-01 0.13026973E+03</pdfrwt>
<totfact> 0.18206296E+03</totfact>
</mgrwt>
</event>
<event>
 6    4  0.2271823E-003  0.1272739E+03  0.7818608E-02  0.1231558E+00
         -4   -1    0    0    0  501 -0.00000000000E+00  0.00000000000E+00  0.58718329648E+02  0.58732062254E+02  0.12700000000E+01 0. -1.
          4   -1    0    0  502    0  0.00000000000E+00 -0.00000000000E+00 -0.10951991658E+03  0.10952727983E+03  0.12700000000E+01 0. -1.
         25    2    1    2    0    0 -0.14030554868E+00 -0.23943789122E+02 -0.62292729802E+02  0.14170051893E+03  0.12500131261E+03 0.  0.
    9000005    1    3    3    0    0 -0.13480267075E+02 -0.72322842524E+02 -0.20480555308E+02  0.76372536273E+02  0.10000000000E+01 0.  0.
    9000005    1    3    3    0    0  0.13339961526E+02  0.48379053402E+02 -0.41812174493E+02  0.65327982652E+02  0.10000000000E+01 0.  0.
         21    1    1    2  502  501  0.14030554868E+00  0.23943789122E+02  0.11491142871E+02  0.26558823160E+02  0.00000000000E+00 0. -1.
<mgrwt>
<rscale>  1 0.12727393E+03</rscale>
<asrwt>0</asrwt>
<pdfrwt beam="2">  1        4 0.16850841E-01 0.12727393E+03</pdfrwt>
<pdfrwt beam="1">  1       -4 0.90352120E-02 0.12727393E+03</pdfrwt>
<totfact> 0.44452229E+03</totfact>
</mgrwt>
</event>
<event>
 6    4  0.2271823E-003  0.1275308E+03  0.7818608E-02  0.1231166E+00
         -4   -1    0    0    0  501 -0.00000000000E+00  0.00000000000E+00  0.11177372044E+02  0.11249290902E+02  0.12700000000E+01 0. -1.
          4   -1    0    0  502    0  0.00000000000E+00 -0.00000000000E+00 -0.58746645581E+03  0.58746782857E+03  0.12700000000E+01 0. -1.
         25    2    1    2    0    0  0.10025757229E+02  0.23285980870E+02 -0.53716923545E+03  0.55210043527E+03  0.12498540076E+03 0.  0.
    9000005    1    3    3    0    0  0.17977248806E+02  0.39418498935E+02 -0.53143114519E+03  0.53319514403E+03  0.10000000000E+01 0.  0.
    9000005    1    3    3    0    0 -0.79514915763E+01 -0.16132518064E+02 -0.57380902584E+01  0.18905291249E+02  0.10000000000E+01 0.  0.
         21    1    1    2  502  501 -0.10025757229E+02 -0.23285980870E+02 -0.39119848319E+02  0.46616684198E+02  0.00000000000E+00 0. -1.
<mgrwt>
<rscale>  1 0.12753079E+03</rscale>
<asrwt>0</asrwt>
<pdfrwt beam="2">  1        4 0.90385069E-01 0.12753079E+03</pdfrwt>
<pdfrwt beam="1">  1       -4 0.17252340E-02 0.12753079E+03</pdfrwt>
<totfact> 0.22392421E+03</totfact>
</mgrwt>
</event>
<event>
 6    4  0.2271823E-003  0.1266501E+03  0.7818608E-02  0.1232513E+00
         -4   -1    0    0    0  501 -0.00000000000E+00  0.00000000000E+00  0.97860755246E+02  0.97868995689E+02  0.12700000000E+01 0.  1.
          4   -1    0    0  502    0  0.00000000000E+00 -0.00000000000E+00 -0.61150352653E+02  0.61163539217E+02  0.12700000000E+01 0.  1.
         25    2    1    2    0    0 -0.20386522231E+02 -0.63791598852E+00  0.12335163578E+02  0.12724937108E+03  0.12499691578E+03 0.  0.
    9000005    1    3    3    0    0  0.38089018226E+02  0.36476613426E+02  0.22303200176E+02  0.57269096156E+02  0.10000000000E+01 0.  0.
    9000005    1    3    3    0    0 -0.58475540457E+02 -0.37114529415E+02 -0.99680365981E+01  0.69980274928E+02  0.10000000000E+01 0.  0.
         21    1    1    2  502  501  0.20386522231E+02  0.63791598852E+00  0.24375239015E+02  0.31783163821E+02  0.00000000000E+00 0.  1.
<mgrwt>
<rscale>  1 0.12665009E+03</rscale>
<asrwt>0</asrwt>
<pdfrwt beam="2">  1        4 0.94093949E-02 0.12665009E+03</pdfrwt>
<pdfrwt beam="1">  1       -4 0.15057149E-01 0.12665009E+03</pdfrwt>
<totfact> 0.50537713E+03</totfact>
</mgrwt>
</event>
<event>
 6    4  0.2271823E-003  0.1477865E+03  0.7818608E-02  0.1203220E+00
         -4   -1    0    0    0  501 -0.00000000000E+00  0.00000000000E+00  0.11714169399E+03  0.11714857819E+03  0.12700000000E+01 0.  1.
          4   -1    0    0  502    0  0.00000000000E+00 -0.00000000000E+00 -0.19019116709E+03  0.19019540725E+03  0.12700000000E+01 0.  1.
         25    2    1    2    0    0 -0.23533989358E+02 -0.75247519787E+02 -0.14025495460E+03  0.20374565227E+03  0.12499920256E+03 0.  0.
    9000005    1    3    3    0    0 -0.34535428888E+02 -0.94909423071E+01  0.11792402410E+02  0.37720479702E+02  0.10000000000E+01 0.  0.
    9000005    1    3    3    0    0  0.11001439531E+02 -0.65756577480E+02 -0.15204735701E+03  0.16602517257E+03  0.10000000000E+01 0.  0.
         21    1    1    2  502  501  0.23533989358E+02  0.75247519787E+02  0.67205481508E+02  0.10359833316E+03  0.00000000000E+00 0.  1.
<mgrwt>
<rscale>  1 0.14778646E+03</rscale>
<asrwt>0</asrwt>
<pdfrwt beam="2">  1        4 0.29261035E-01 0.14778646E+03</pdfrwt>
<pdfrwt beam="1">  1       -4 0.18022655E-01 0.14778646E+03</pdfrwt>
<totfact> 0.51148856E+02</totfact>
</mgrwt>
</event>
<event>
 6    4  0.2271823E-003  0.1271862E+03  0.7818608E-02  0.1231692E+00
          4   -1    0    0  502    0  0.00000000000E+00  0.00000000000E+00  0.63547109492E+02  0.63559798811E+02  0.12700000000E+01 0.  1.
         -4   -1    0    0    0  501 -0.00000000000E+00 -0.00000000000E+00 -0.20228074617E+03  0.20228473291E+03  0.12700000000E+01 0.  1.
         25    2    1    2    0    0 -0.22928739110E+02  0.52188919118E+01 -0.21014103521E+01  0.12720352343E+03  0.12499342598E+03 0.  0.
    9000005    1    3    3    0    0 -0.43996215301E+02  0.56364496417E+02  0.35118744713E+01  0.71595786744E+02  0.10000000000E+01 0.  0.
    9000005    1    3    3    0    0  0.21067476190E+02 -0.51145604505E+02 -0.56132848234E+01  0.55607736690E+02  0.10000000000E+01 0.  0.
         21    1    1    2  502  501  0.22928739110E+02 -0.52188919118E+01 -0.13663222632E+03  0.13864100829E+03  0.00000000000E+00 0.  1.
<mgrwt>
<rscale>  1 0.12718616E+03</rscale>
<asrwt>0</asrwt>
<pdfrwt beam="1">  1        4 0.97777613E-02 0.12718616E+03</pdfrwt>
<pdfrwt beam="2">  1       -4 0.31121397E-01 0.12718616E+03</pdfrwt>
<totfact> 0.12699278E+03</totfact>
</mgrwt>
</event>
<event>
 6    4  0.2271823E-003  0.1284275E+03  0.7818608E-02  0.1229808E+00
          4   -1    0    0  502    0  0.00000000000E+00  0.00000000000E+00  0.12963909217E+04  0.12963915438E+04  0.12700000000E+01 0. -1.
         -4   -1    0    0    0  501 -0.00000000000E+00 -0.00000000000E+00 -0.48392218638E+01  0.50030958663E+01  0.12700000000E+01 0. -1.
         25    2    1    2    0    0  0.21205625488E+02 -0.20451932276E+02  0.96325745626E+03  0.97178112285E+03  0.12500265436E+03 0.  0.
    9000005    1    3    3    0    0 -0.35244195757E+02 -0.52518308468E+02  0.50517731331E+03  0.50912222888E+03  0.10000000000E+01 0.  0.
    9000005    1    3    3    0    0  0.56449821245E+02  0.32066376192E+02  0.45808014295E+03  0.46265889397E+03  0.10000000000E+01 0.  0.
         21    1    1    2  502  501 -0.21205625488E+02  0.20451932276E+02  0.32829424360E+03  0.32961351682E+03  0.00000000000E+00 0. -1.
<mgrwt>
<rscale>  1 0.12842750E+03</rscale>
<asrwt>0</asrwt>
<pdfrwt beam="1">  1        4 0.19945742E+00 0.12842750E+03</pdfrwt>
<pdfrwt beam="2">  1       -4 0.75714919E-03 0.12842750E+03</pdfrwt>
<totfact> 0.10803608E+03</totfact>
</mgrwt>
</event>
<event>
 6    4  0.2271823E-003  0.1284653E+03  0.7818608E-02  0.1229751E+00
          4   -1    0    0  502    0  0.00000000000E+00  0.00000000000E+00  0.53015375050E+03  0.53015527166E+03  0.12700000000E+01 0.  1.
         -4   -1    0    0    0  501 -0.00000000000E+00 -0.00000000000E+00 -0.12530124484E+02  0.12594320926E+02  0.12700000000E+01 0.  1.
         25    2    1    2    0    0 -0.28757376556E+02  0.72511609945E+01  0.46417535145E+03  0.48162444149E+03  0.12499511873E+03 0.  0.
    9000005    1    3    3    0    0 -0.18063259637E+02  0.18554288418E+02  0.10952765784E+02  0.28133717240E+02  0.10000000000E+01 0.  0.
    9000005    1    3    3    0    0 -0.10694116920E+02 -0.11303127423E+02  0.45322258566E+03  0.45349072425E+03  0.10000000000E+01 0.  0.
         21    1    1    2  502  501  0.28757376556E+02 -0.72511609945E+01  0.53448274569E+02  0.61125151097E+02  0.00000000000E+00 0.  1.
<mgrwt>
<rscale>  1 0.12846535E+03</rscale>
<asrwt>0</asrwt>
<pdfrwt beam="1">  1        4 0.81567144E-01 0.12846535E+03</pdfrwt>
<pdfrwt beam="2">  1       -4 0.19327673E-02 0.12846535E+03</pdfrwt>
<totfact> 0.23708644E+03</totfact>
</mgrwt>
</event>
<event>
 6    4  0.2271823E-003  0.1280374E+03  0.7818608E-02  0.1230397E+00
         -4   -1    0    0    0  501 -0.00000000000E+00  0.00000000000E+00  0.11991523742E+03  0.11992196240E+03  0.12700000000E+01 0. -1.
          4   -1    0    0  502    0  0.00000000000E+00 -0.00000000000E+00 -0.60516230650E+02  0.60529555360E+02  0.12700000000E+01 0. -1.
         25    2    1    2    0    0  0.12918590341E+02  0.24535699752E+02  0.16115309111E+02  0.12904753910E+03  0.12499869448E+03 0.  0.
    9000005    1    3    3    0    0 -0.21736599552E+02 -0.38450104463E+02 -0.20107943565E+02  0.48540907364E+02  0.10000000000E+01 0.  0.
    9000005    1    3    3    0    0  0.34655189894E+02  0.62985804215E+02  0.36223252676E+02  0.80506631737E+02  0.10000000000E+01 0.  0.
         21    1    1    2  502  501 -0.12918590341E+02 -0.24535699752E+02  0.43283697659E+02  0.51403978657E+02  0.00000000000E+00 0.  1.
<mgrwt>
<rscale>  1 0.12803735E+03</rscale>
<asrwt>0</asrwt>
<pdfrwt beam="2">  1        4 0.93117316E-02 0.12803735E+03</pdfrwt>
<pdfrwt beam="1">  1       -4 0.18450040E-01 0.12803735E+03</pdfrwt>
<totfact> 0.36047395E+03</totfact>
</mgrwt>
</event>
<event>
 6    4  0.2271823E-003  0.1275220E+03  0.7818608E-02  0.1231180E+00
         -4   -1    0    0    0  501 -0.00000000000E+00  0.00000000000E+00  0.33301707371E+02  0.33325915049E+02  0.12700000000E+01 0. -1.
          4   -1    0    0  502    0  0.00000000000E+00 -0.00000000000E+00 -0.18581042896E+03  0.18581476908E+03  0.12700000000E+01 0. -1.
         25    2    1    2    0    0 -0.23967752824E+02  0.78575395648E+01 -0.10434366234E+03  0.16477095878E+03  0.12500269950E+03 0.  0.
    9000005    1    3    3    0    0 -0.44427823029E+02 -0.45148826683E+02 -0.82207331495E+02  0.10378484167E+03  0.10000000000E+01 0.  0.
    9000005    1    3    3    0    0  0.20460070205E+02  0.53006366248E+02 -0.22136330849E+02  0.60986117101E+02  0.10000000000E+01 0.  0.
         21    1    1    2  502  501  0.23967752824E+02 -0.78575395648E+01 -0.48165059244E+02  0.54369725358E+02  0.00000000000E+00 0. -1.
<mgrwt>
<rscale>  1 0.12752203E+03</rscale>
<asrwt>0</asrwt>
<pdfrwt beam="2">  1        4 0.28588415E-01 0.12752203E+03</pdfrwt>
<pdfrwt beam="1">  1       -4 0.51255357E-02 0.12752203E+03</pdfrwt>
<totfact> 0.43056976E+03</totfact>
</mgrwt>
</event>
<event>
 6    4  0.2271823E-003  0.1707481E+03  0.7818608E-02  0.1177070E+00
         -4   -1    0    0    0  501 -0.00000000000E+00  0.00000000000E+00  0.17037127425E+03  0.17037600767E+03  0.12700000000E+01 0. -1.
          4   -1    0    0  502    0  0.00000000000E+00 -0.00000000000E+00 -0.12884045172E+03  0.12884671086E+03  0.12700000000E+01 0. -1.
         25    2    1    2    0    0  0.53363139650E+02 -0.10335495640E+03 -0.12018122612E+02  0.17117053693E+03  0.12500018302E+03 0.  0.
    9000005    1    3    3    0    0  0.88039616439E+02 -0.83777351046E+02 -0.33291882885E+02  0.12601177753E+03  0.10000000000E+01 0.  0.
    9000005    1    3    3    0    0 -0.34676476789E+02 -0.19577605358E+02  0.21273760273E+02  0.45158759396E+02  0.10000000000E+01 0.  0.
         21    1    1    2  502  501 -0.53363139650E+02  0.10335495640E+03  0.53548945143E+02  0.12805218160E+03  0.00000000000E+00 0. -1.
<mgrwt>
<rscale>  1 0.17074811E+03</rscale>
<asrwt>0</asrwt>
<pdfrwt beam="2">  1        4 0.19822454E-01 0.17074811E+03</pdfrwt>
<pdfrwt beam="1">  1       -4 0.26211811E-01 0.17074811E+03</pdfrwt>
<totfact> 0.54438393E+02</totfact>
</mgrwt>
</event>
<event>
 6    4  0.2271823E-003  0.1350962E+03  0.7818608E-02  0.1220084E+00
         -4   -1    0    0    0  501 -0.00000000000E+00  0.00000000000E+00  0.14046687545E+02  0.14103982806E+02  0.12700000000E+01 0. -1.
          4   -1    0    0  502    0  0.00000000000E+00 -0.00000000000E+00 -0.62133775966E+03  0.62133905758E+03  0.12700000000E+01 0. -1.
         25    2    1    2    0    0  0.38489794778E+02 -0.33842482032E+02 -0.46372218858E+03  0.48300025699E+03  0.12499680866E+03 0.  0.
    9000005    1    3    3    0    0 -0.41535498903E+01 -0.63071536355E+02 -0.12217392590E+03  0.13755994637E+03  0.10000000000E+01 0.  0.
    9000005    1    3    3    0    0  0.42643344668E+02  0.29229054323E+02 -0.34154826268E+03  0.34544031062E+03  0.10000000000E+01 0.  0.
         21    1    1    2  502  501 -0.38489794778E+02  0.33842482032E+02 -0.14356888353E+03  0.15244278340E+03  0.00000000000E+00 0. -1.
<mgrwt>
<rscale>  1 0.13509619E+03</rscale>
<asrwt>0</asrwt>
<pdfrwt beam="2">  1        4 0.95594910E-01 0.13509619E+03</pdfrwt>
<pdfrwt beam="1">  1       -4 0.21655365E-02 0.13509619E+03</pdfrwt>
<totfact> 0.14080488E+03</totfact>
</mgrwt>
</event>
<event>
 6    4  0.2271823E-003  0.1268060E+03  0.7818608E-02  0.1232274E+00
          4   -1    0    0  502    0  0.00000000000E+00  0.00000000000E+00  0.27216098855E+02  0.27245714102E+02  0.12700000000E+01 0. -1.
         -4   -1    0    0    0  501 -0.00000000000E+00 -0.00000000000E+00 -0.20718898321E+03  0.20719287552E+03  0.12700000000E+01 0. -1.
         25    2    1    2    0    0  0.61277455417E+01 -0.20432177089E+02 -0.13837085167E+03  0.18768656025E+03  0.12499891672E+03 0.  0.
    9000005    1    3    3    0    0  0.28050366649E+02  0.26869345583E+02 -0.12897695505E+03  0.13470278295E+03  0.10000000000E+01 0.  0.
    9000005    1    3    3    0    0 -0.21922621107E+02 -0.47301522671E+02 -0.93938966181E+01  0.52983777300E+02  0.10000000000E+01 0.  0.
         21    1    1    2  502  501 -0.61277455417E+01  0.20432177089E+02 -0.41602032693E+02  0.46752029370E+02  0.00000000000E+00 0.  1.
<mgrwt>
<rscale>  1 0.12680596E+03</rscale>
<asrwt>0</asrwt>
<pdfrwt beam="1">  1        4 0.41896698E-02 0.12680596E+03</pdfrwt>
<pdfrwt beam="2">  1       -4 0.31877805E-01 0.12680596E+03</pdfrwt>
<totfact> 0.48314613E+03</totfact>
</mgrwt>
</event>
<event>
 6    4  0.2271823E-003  0.1288593E+03  0.7818608E-02  0.1229158E+00
          4   -1    0    0  502    0  0.00000000000E+00  0.00000000000E+00  0.16852624077E+02  0.16900409412E+02  0.12700000000E+01 0. -1.
         -4   -1    0    0    0  501 -0.00000000000E+00 -0.00000000000E+00 -0.47791148749E+03  0.47791317494E+03  0.12700000000E+01 0. -1.
         25    2    1    2    0    0 -0.28497394741E+02 -0.13026355709E+02 -0.24816027238E+03  0.27962158284E+03  0.12499168512E+03 0.  0.
    9000005    1    3    3    0    0  0.23581250556E+02  0.33660981079E+02 -0.16925007147E+03  0.17417153532E+03  0.10000000000E+01 0.  0.
    9000005    1    3    3    0    0 -0.52078645297E+02 -0.46687336788E+02 -0.78910200914E+02  0.10545004751E+03  0.10000000000E+01 0.  0.
         21    1    1    2  502  501  0.28497394741E+02  0.13026355709E+02 -0.21289859103E+03  0.21519200151E+03  0.00000000000E+00 0. -1.
<mgrwt>
<rscale>  1 0.12885926E+03</rscale>
<asrwt>0</asrwt>
<pdfrwt beam="1">  1        4 0.25965174E-02 0.12885926E+03</pdfrwt>
<pdfrwt beam="2">  1       -4 0.73528640E-01 0.12885926E+03</pdfrwt>
<totfact> 0.18878045E+03</totfact>
</mgrwt>
</event>
<event>
 6    4  0.2271823E-003  0.1310387E+03  0.7818608E-02  0.1225923E+00
          4   -1    0    0  502    0  0.00000000000E+00  0.00000000000E+00  0.11143080178E+02  0.11215218939E+02  0.12700000000E+01 0.  1.
         -4   -1    0    0    0  501 -0.00000000000E+00 -0.00000000000E+00 -0.66127408292E+03  0.66127530246E+03  0.12700000000E+01 0.  1.
         25    2    1    2    0    0 -0.32930183891E+02 -0.21484307875E+02 -0.45797458387E+03  0.47635265710E+03  0.12500064785E+03 0.  0.
    9000005    1    3    3    0    0  0.22976388186E+02  0.41069594934E+02 -0.15738750785E+03  0.16427554191E+03  0.10000000000E+01 0.  0.
    9000005    1    3    3    0    0 -0.55906572077E+02 -0.62553902809E+02 -0.30058707602E+03  0.31207711520E+03  0.10000000000E+01 0.  0.
         21    1    1    2  502  501  0.32930183891E+02  0.21484307875E+02 -0.19215641888E+03  0.19613786430E+03  0.00000000000E+00 0.  1.
<mgrwt>
<rscale>  1 0.13103868E+03</rscale>
<asrwt>0</asrwt>
<pdfrwt beam="1">  1        4 0.17199635E-02 0.13103868E+03</pdfrwt>
<pdfrwt beam="2">  1       -4 0.10174009E+00 0.13103868E+03</pdfrwt>
<totfact> 0.17268552E+03</totfact>
</mgrwt>
</event>
<event>
 6    4  0.2271823E-003  0.1271648E+03  0.7818608E-02  0.1231724E+00
         -4   -1    0    0    0  501 -0.00000000000E+00  0.00000000000E+00  0.99182532235E+03  0.99182613545E+03  0.12700000000E+01 0.  1.
          4   -1    0    0  502    0  0.00000000000E+00 -0.00000000000E+00 -0.57692311084E+01  0.59073621509E+01  0.12700000000E+01 0.  1.
         25    2    1    2    0    0 -0.19063483759E+02 -0.13119116827E+02  0.76849154935E+03  0.77894168439E+03  0.12504142759E+03 0.  0.
    9000005    1    3    3    0    0 -0.14665743328E+02 -0.22154581482E+02  0.76838273547E+03  0.76884259617E+03  0.10000000000E+01 0.  0.
    9000005    1    3    3    0    0 -0.43977404306E+01  0.90354646554E+01  0.10881387788E+00  0.10099088221E+02  0.10000000000E+01 0.  0.
         21    1    1    2  502  501  0.19063483759E+02  0.13119116827E+02  0.21756454189E+03  0.21879181321E+03  0.00000000000E+00 0.  1.
<mgrwt>
<rscale>  1 0.12716480E+03</rscale>
<asrwt>0</asrwt>
<pdfrwt beam="2">  1        4 0.89826304E-03 0.12716480E+03</pdfrwt>
<pdfrwt beam="1">  1       -4 0.15259903E+00 0.12716480E+03</pdfrwt>
<totfact> 0.17156504E+03</totfact>
</mgrwt>
</event>
<event>
 6    4  0.2271823E-003  0.1310677E+03  0.7818608E-02  0.1225880E+00
          4   -1    0    0  502    0  0.00000000000E+00  0.00000000000E+00  0.42026702813E+02  0.42045887425E+02  0.12700000000E+01 0.  1.
         -4   -1    0    0    0  501 -0.00000000000E+00 -0.00000000000E+00 -0.18432768366E+03  0.18433205870E+03  0.12700000000E+01 0.  1.
         25    2    1    2    0    0 -0.33365534260E+02 -0.20980697722E+02 -0.82879878771E+02  0.15507355688E+03  0.12500114073E+03 0.  0.
    9000005    1    3    3    0    0 -0.65222821569E+02  0.29118738423E+02 -0.40438270330E+02  0.82086363594E+02  0.10000000000E+01 0.  0.
    9000005    1    3    3    0    0  0.31857287309E+02 -0.50099436145E+02 -0.42441608441E+02  0.72987193286E+02  0.10000000000E+01 0.  0.
         21    1    1    2  502  501  0.33365534260E+02  0.20980697722E+02 -0.59421102075E+02  0.71304389242E+02  0.00000000000E+00 0.  1.
<mgrwt>
<rscale>  1 0.13106767E+03</rscale>
<asrwt>0</asrwt>
<pdfrwt beam="1">  1        4 0.64674589E-02 0.13106767E+03</pdfrwt>
<pdfrwt beam="2">  1       -4 0.28359917E-01 0.13106767E+03</pdfrwt>
<totfact> 0.30194712E+03</totfact>
</mgrwt>
</event>
<event>
 6    4  0.2271823E-003  0.1270535E+03  0.7818608E-02  0.1231894E+00
         -4   -1    0    0    0  501 -0.00000000000E+00  0.00000000000E+00  0.32682419391E+02  0.32707085429E+02  0.12700000000E+01 0. -1.
          4   -1    0    0  502    0  0.00000000000E+00 -0.00000000000E+00 -0.17176935613E+03  0.17177405102E+03  0.12700000000E+01 0. -1.
         25    2    1    2    0    0  0.21286446709E+02  0.80088551078E+01 -0.11530372659E+03  0.17157375645E+03  0.12500139984E+03 0.  0.
    9000005    1    3    3    0    0  0.46610384976E+02  0.24612945822E+02 -0.12822146020E+03  0.13863645966E+03  0.10000000000E+01 0.  0.
    9000005    1    3    3    0    0 -0.25323938266E+02 -0.16604090714E+02  0.12917733619E+02  0.32937296787E+02  0.10000000000E+01 0.  0.
         21    1    1    2  502  501 -0.21286446709E+02 -0.80088551078E+01 -0.23783210150E+02  0.32907380003E+02  0.00000000000E+00 0. -1.
<mgrwt>
<rscale>  1 0.12705355E+03</rscale>
<asrwt>0</asrwt>
<pdfrwt beam="2">  1        4 0.26428313E-01 0.12705355E+03</pdfrwt>
<pdfrwt beam="1">  1       -4 0.50303232E-02 0.12705355E+03</pdfrwt>
<totfact> 0.51332597E+03</totfact>
</mgrwt>
</event>
<event>
 6    4  0.2271823E-003  0.1269862E+03  0.7818608E-02  0.1231997E+00
         -4   -1    0    0    0  501 -0.00000000000E+00  0.00000000000E+00  0.26812596523E+02  0.26842656953E+02  0.12700000000E+01 0.  1.
          4   -1    0    0  502    0  0.00000000000E+00 -0.00000000000E+00 -0.22869886140E+03  0.22870238763E+03  0.12700000000E+01 0.  1.
         25    2    1    2    0    0 -0.18760279082E+02  0.12367551964E+02 -0.19373217984E+03  0.23164120565E+03  0.12498234369E+03 0.  0.
    9000005    1    3    3    0    0  0.22542597864E+02 -0.21783606057E+02 -0.77111202556E+00  0.31373377648E+02  0.10000000000E+01 0.  0.
    9000005    1    3    3    0    0 -0.41302876946E+02  0.34151158021E+02 -0.19296106782E+03  0.20026782800E+03  0.10000000000E+01 0.  0.
         21    1    1    2  502  501  0.18760279082E+02 -0.12367551964E+02 -0.81540850327E+01  0.23903838929E+02  0.00000000000E+00 0. -1.
<mgrwt>
<rscale>  1 0.12698618E+03</rscale>
<asrwt>0</asrwt>
<pdfrwt beam="2">  1        4 0.35187023E-01 0.12698618E+03</pdfrwt>
<pdfrwt beam="1">  1       -4 0.41275986E-02 0.12698618E+03</pdfrwt>
<totfact> 0.40960831E+03</totfact>
</mgrwt>
</event>
<event>
 6    4  0.2271823E-003  0.1334459E+03  0.7818608E-02  0.1222430E+00
          4   -1    0    0  502    0  0.00000000000E+00  0.00000000000E+00  0.47998604031E+03  0.47998772046E+03  0.12700000000E+01 0. -1.
         -4   -1    0    0    0  501 -0.00000000000E+00 -0.00000000000E+00 -0.24242679223E+02  0.24275922143E+02  0.12700000000E+01 0. -1.
         25    2    1    2    0    0 -0.45834753425E+02 -0.90469842308E+01  0.43142972254E+03  0.45159652227E+03  0.12500056354E+03 0.  0.
    9000005    1    3    3    0    0 -0.51661241464E+02 -0.14159499616E+02  0.43807416853E+03  0.44133813843E+03  0.10000000000E+01 0.  0.
    9000005    1    3    3    0    0  0.58264880385E+01  0.51125153854E+01 -0.66444459892E+01  0.10258383836E+02  0.10000000000E+01 0.  0.
         21    1    1    2  502  501  0.45834753425E+02  0.90469842308E+01  0.24313638545E+02  0.52667120336E+02  0.00000000000E+00 0. -1.
<mgrwt>
<rscale>  1 0.13344592E+03</rscale>
<asrwt>0</asrwt>
<pdfrwt beam="1">  1        4 0.73846699E-01 0.13344592E+03</pdfrwt>
<pdfrwt beam="2">  1       -4 0.37323290E-02 0.13344592E+03</pdfrwt>
<totfact> 0.10668925E+03</totfact>
</mgrwt>
</event>
<event>
 6    4  0.2271823E-003  0.1289973E+03  0.7818608E-02  0.1228951E+00
         -4   -1    0    0    0  501 -0.00000000000E+00  0.00000000000E+00  0.34726728659E+03  0.34726960886E+03  0.12700000000E+01 0. -1.
          4   -1    0    0  502    0  0.00000000000E+00 -0.00000000000E+00 -0.42900403917E+02  0.42919197992E+02  0.12700000000E+01 0. -1.
         25    2    1    2    0    0 -0.23224302778E+02 -0.21821083563E+02  0.57429355507E+02  0.14120352566E+03  0.12499910742E+03 0.  0.
    9000005    1    3    3    0    0  0.83341287675E+01  0.45065570201E+01  0.88913184415E+02  0.89422151178E+02  0.10000000000E+01 0.  0.
    9000005    1    3    3    0    0 -0.31558431545E+02 -0.26327640583E+02 -0.31483828908E+02  0.51781374479E+02  0.10000000000E+01 0.  0.
         21    1    1    2  502  501  0.23224302778E+02  0.21821083563E+02  0.24693752717E+03  0.24898528119E+03  0.00000000000E+00 0.  1.
<mgrwt>
<rscale>  1 0.12899731E+03</rscale>
<asrwt>0</asrwt>
<pdfrwt beam="2">  1        4 0.66016866E-02 0.12899731E+03</pdfrwt>
<pdfrwt beam="1">  1       -4 0.53427360E-01 0.12899731E+03</pdfrwt>
<totfact> 0.84042674E+02</totfact>
</mgrwt>
</event>
<event>
 6    4  0.2271823E-003  0.1273362E+03  0.7818608E-02  0.1231463E+00
         -4   -1    0    0    0  501 -0.00000000000E+00  0.00000000000E+00  0.48716882132E+01  0.50345055414E+01  0.12700000000E+01 0.  1.
          4   -1    0    0  502    0  0.00000000000E+00 -0.00000000000E+00 -0.11711504010E+04  0.11711510896E+04  0.12700000000E+01 0.  1.
         25    2    1    2    0    0  0.16775799085E+02 -0.17493351355E+02 -0.10191092296E+04  0.10270336540E+04  0.12500823863E+03 0.  0.
    9000005    1    3    3    0    0  0.40621151634E+02  0.40588761908E+02 -0.65832805443E+03  0.66082853510E+03  0.10000000000E+01 0.  0.
    9000005    1    3    3    0    0 -0.23845352549E+02 -0.58082113263E+02 -0.36078117518E+03  0.36620511886E+03  0.10000000000E+01 0.  0.
         21    1    1    2  502  501 -0.16775799085E+02  0.17493351355E+02 -0.14716948315E+03  0.14915194114E+03  0.00000000000E+00 0.  1.
<mgrwt>
<rscale>  1 0.12733619E+03</rscale>
<asrwt>0</asrwt>
<pdfrwt beam="2">  1        4 0.18018934E+00 0.12733619E+03</pdfrwt>
<pdfrwt beam="1">  1       -4 0.76206880E-03 0.12733619E+03</pdfrwt>
<totfact> 0.14168035E+03</totfact>
</mgrwt>
</event>
<event>
 6    4  0.2271823E-003  0.1270401E+03  0.7818608E-02  0.1231915E+00
         -4   -1    0    0    0  501 -0.00000000000E+00  0.00000000000E+00  0.29360293491E+03  0.29360568164E+03  0.12700000000E+01 0. -1.
          4   -1    0    0  502    0  0.00000000000E+00 -0.00000000000E+00 -0.20244595288E+02  0.20284391497E+02  0.12700000000E+01 0. -1.
         25    2    1    2    0    0 -0.22515372669E+02 -0.27923464685E+01  0.19852744703E+03  0.23569543334E+03  0.12499780346E+03 0.  0.
    9000005    1    3    3    0    0  0.35964295529E+02 -0.30678599680E+02  0.14214679204E+03  0.14980426402E+03  0.10000000000E+01 0.  0.
    9000005    1    3    3    0    0 -0.58479668198E+02  0.27886253211E+02  0.56380654986E+02  0.85891169321E+02  0.10000000000E+01 0.  0.
         21    1    1    2  502  501  0.22515372669E+02  0.27923464685E+01  0.74830892596E+02  0.78194639791E+02  0.00000000000E+00 0.  1.
<mgrwt>
<rscale>  1 0.12704011E+03</rscale>
<asrwt>0</asrwt>
<pdfrwt beam="2">  1        4 0.31178257E-02 0.12704011E+03</pdfrwt>
<pdfrwt beam="1">  1       -4 0.45172954E-01 0.12704011E+03</pdfrwt>
<totfact> 0.39039741E+03</totfact>
</mgrwt>
</event>
<event>
 6    4  0.2271823E-003  0.1278933E+03  0.7818608E-02  0.1230616E+00
          4   -1    0    0  502    0  0.00000000000E+00  0.00000000000E+00  0.12242971239E+02  0.12308665434E+02  0.12700000000E+01 0. -1.
         -4   -1    0    0    0  501 -0.00000000000E+00 -0.00000000000E+00 -0.48909012650E+03  0.48909177537E+03  0.12700000000E+01 0. -1.
         25    2    1    2    0    0  0.16663210493E+02 -0.21290452610E+02 -0.38860369979E+03  0.40910822343E+03  0.12500302807E+03 0.  0.
    9000005    1    3    3    0    0 -0.44005726184E+02 -0.43843113592E+02 -0.21632512638E+03  0.22506950671E+03  0.10000000000E+01 0.  0.
    9000005    1    3    3    0    0  0.60668936677E+02  0.22552660982E+02 -0.17227857341E+03  0.18403871672E+03  0.10000000000E+01 0.  0.
         21    1    1    2  502  501 -0.16663210493E+02  0.21290452610E+02 -0.88243455465E+02  0.92292217378E+02  0.00000000000E+00 0. -1.
<mgrwt>
<rscale>  1 0.12789333E+03</rscale>
<asrwt>0</asrwt>
<pdfrwt beam="1">  1        4 0.18887147E-02 0.12789333E+03</pdfrwt>
<pdfrwt beam="2">  1       -4 0.75249800E-01 0.12789333E+03</pdfrwt>
<totfact> 0.29297791E+03</totfact>
</mgrwt>
</event>
<event>
 6    4  0.2271823E-003  0.1271500E+03  0.7818608E-02  0.1231747E+00
         -4   -1    0    0    0  501 -0.00000000000E+00  0.00000000000E+00  0.33943852279E+03  0.33944089861E+03  0.12700000000E+01 0. -1.
          4   -1    0    0  502    0  0.00000000000E+00 -0.00000000000E+00 -0.41825540722E+02  0.41844817561E+02  0.12700000000E+01 0. -1.
         25    2    1    2    0    0 -0.18867803376E+02  0.13645519153E+02  0.56647673417E+02  0.13919797553E+03  0.12499969317E+03 0.  0.
    9000005    1    3    3    0    0  0.99701309713E+01  0.19621490683E+02  0.91178656696E+02  0.93802739006E+02  0.10000000000E+01 0.  0.
    9000005    1    3    3    0    0 -0.28837934347E+02 -0.59759715303E+01 -0.34530983279E+02  0.45395236527E+02  0.10000000000E+01 0.  0.
         21    1    1    2  502  501  0.18867803376E+02 -0.13645519153E+02  0.24096530865E+03  0.24208774064E+03  0.00000000000E+00 0. -1.
<mgrwt>
<rscale>  1 0.12714998E+03</rscale>
<asrwt>0</asrwt>
<pdfrwt beam="2">  1        4 0.64363641E-02 0.12714998E+03</pdfrwt>
<pdfrwt beam="1">  1       -4 0.52222977E-01 0.12714998E+03</pdfrwt>
<totfact> 0.91507213E+02</totfact>
</mgrwt>
</event>
<event>
 6    4  0.2271823E-003  0.1270205E+03  0.7818608E-02  0.1231945E+00
          4   -1    0    0  502    0  0.00000000000E+00  0.00000000000E+00  0.33199889540E+02  0.33224171404E+02  0.12700000000E+01 0.  1.
         -4   -1    0    0    0  501 -0.00000000000E+00 -0.00000000000E+00 -0.19994230020E+03  0.19994633357E+03  0.12700000000E+01 0.  1.
         25    2    1    2    0    0  0.42310850383E+01 -0.22119674474E+02 -0.96826986451E+02  0.15971746813E+03  0.12500808871E+03 0.  0.
    9000005    1    3    3    0    0  0.58645421055E+02 -0.31907005378E+02 -0.74609290923E+02  0.10012436614E+03  0.10000000000E+01 0.  0.
    9000005    1    3    3    0    0 -0.54414336017E+02  0.97873309044E+01 -0.22217695527E+02  0.59593101991E+02  0.10000000000E+01 0.  0.
         21    1    1    2  502  501 -0.42310850383E+01  0.22119674474E+02 -0.69915424206E+02  0.73453036842E+02  0.00000000000E+00 0.  1.
<mgrwt>
<rscale>  1 0.12702049E+03</rscale>
<asrwt>0</asrwt>
<pdfrwt beam="1">  1        4 0.51098535E-02 0.12702049E+03</pdfrwt>
<pdfrwt beam="2">  1       -4 0.30762531E-01 0.12702049E+03</pdfrwt>
<totfact> 0.37650601E+03</totfact>
</mgrwt>
</event>
<event>
 6    4  0.2271823E-003  0.1281742E+03  0.7818608E-02  0.1230190E+00
          4   -1    0    0  502    0  0.00000000000E+00  0.00000000000E+00  0.91671818617E+02  0.91680615337E+02  0.12700000000E+01 0.  1.
         -4   -1    0    0    0  501 -0.00000000000E+00 -0.00000000000E+00 -0.72087665853E+02  0.72098852058E+02  0.12700000000E+01 0.  1.
         25    2    1    2    0    0  0.21970522391E+02 -0.17903769111E+02  0.33101291954E+02  0.13237943787E+03  0.12500148494E+03 0.  0.
    9000005    1    3    3    0    0 -0.15487424119E+02  0.42606443640E+02 -0.13494466809E+02  0.47310358062E+02  0.10000000000E+01 0.  0.
    9000005    1    3    3    0    0  0.37457946510E+02 -0.60510212751E+02  0.46595758763E+02  0.85069079804E+02  0.10000000000E+01 0.  0.
         21    1    1    2  502  501 -0.21970522391E+02  0.17903769111E+02 -0.13517139190E+02  0.31400029529E+02  0.00000000000E+00 0.  1.
<mgrwt>
<rscale>  1 0.12817418E+03</rscale>
<asrwt>0</asrwt>
<pdfrwt beam="1">  1        4 0.14104894E-01 0.12817418E+03</pdfrwt>
<pdfrwt beam="2">  1       -4 0.11091947E-01 0.12817418E+03</pdfrwt>
<totfact> 0.43035421E+03</totfact>
</mgrwt>
</event>
<event>
 6    4  0.2271823E-003  0.1309694E+03  0.7818608E-02  0.1226024E+00
          4   -1    0    0  502    0  0.00000000000E+00  0.00000000000E+00  0.73176190304E+02  0.73187210136E+02  0.12700000000E+01 0. -1.
         -4   -1    0    0    0  501 -0.00000000000E+00 -0.00000000000E+00 -0.10189262230E+03  0.10190053670E+03  0.12700000000E+01 0. -1.
         25    2    1    2    0    0  0.32463240234E+02 -0.21700110458E+02 -0.34932339090E+02  0.13554796609E+03  0.12501290348E+03 0.  0.
    9000005    1    3    3    0    0  0.44433887468E+02  0.44957664386E+02 -0.15694553184E+02  0.65137400487E+02  0.10000000000E+01 0.  0.
    9000005    1    3    3    0    0 -0.11970647233E+02 -0.66657774844E+02 -0.19237785906E+02  0.70410565605E+02  0.10000000000E+01 0.  0.
         21    1    1    2  502  501 -0.32463240234E+02  0.21700110458E+02  0.62159070900E+01  0.39539780745E+02  0.00000000000E+00 0. -1.
<mgrwt>
<rscale>  1 0.13096940E+03</rscale>
<asrwt>0</asrwt>
<pdfrwt beam="1">  1        4 0.11259332E-01 0.13096940E+03</pdfrwt>
<pdfrwt beam="2">  1       -4 0.15677245E-01 0.13096940E+03</pdfrwt>
<totfact> 0.35082116E+03</totfact>
</mgrwt>
</event>
<event>
 6    4  0.2271823E-003  0.1267874E+03  0.7818608E-02  0.1232302E+00
         -4   -1    0    0    0  501 -0.00000000000E+00  0.00000000000E+00  0.97780006981E+03  0.97780089457E+03  0.12700000000E+01 0. -1.
          4   -1    0    0  502    0  0.00000000000E+00 -0.00000000000E+00 -0.66142263067E+01  0.67350493418E+01  0.12700000000E+01 0. -1.
         25    2    1    2    0    0  0.10318317346E+02  0.18651054239E+02  0.62699211188E+03  0.63968285289E+03  0.12498285653E+03 0.  0.
    9000005    1    3    3    0    0  0.36323962483E+02  0.47930564932E+02  0.15806289944E+03  0.16912022199E+03  0.10000000000E+01 0.  0.
    9000005    1    3    3    0    0 -0.26005645137E+02 -0.29279510692E+02  0.46892921243E+03  0.47056263090E+03  0.10000000000E+01 0.  0.
         21    1    1    2  502  501 -0.10318317346E+02 -0.18651054239E+02  0.34419373163E+03  0.34485309102E+03  0.00000000000E+00 0.  1.
<mgrwt>
<rscale>  1 0.12678740E+03</rscale>
<asrwt>0</asrwt>
<pdfrwt beam="2">  1        4 0.10269319E-02 0.12678740E+03</pdfrwt>
<pdfrwt beam="1">  1       -4 0.15043998E+00 0.12678740E+03</pdfrwt>
<totfact> 0.14540910E+03</totfact>
</mgrwt>
</event>
<event>
 6    4  0.2271823E-003  0.1332659E+03  0.7818608E-02  0.1222689E+00
         -4   -1    0    0    0  501 -0.00000000000E+00  0.00000000000E+00  0.70079616824E+02  0.70091123505E+02  0.12700000000E+01 0. -1.
          4   -1    0    0  502    0  0.00000000000E+00 -0.00000000000E+00 -0.12652004018E+03  0.12652641411E+03  0.12700000000E+01 0. -1.
         25    2    1    2    0    0 -0.36675000471E+02  0.28089652775E+02 -0.67103311533E+02  0.14920676419E+03  0.12500287920E+03 0.  0.
    9000005    1    3    3    0    0 -0.49265073392E+01 -0.26959430621E+02 -0.79812362926E+02  0.84392503516E+02  0.10000000000E+01 0.  0.
    9000005    1    3    3    0    0 -0.31748493132E+02  0.55049083397E+02  0.12709051392E+02  0.64814260670E+02  0.10000000000E+01 0.  0.
         21    1    1    2  502  501  0.36675000471E+02 -0.28089652775E+02  0.10662888178E+02  0.47410773426E+02  0.00000000000E+00 0. -1.
<mgrwt>
<rscale>  1 0.13326591E+03</rscale>
<asrwt>0</asrwt>
<pdfrwt beam="2">  1        4 0.19465997E-01 0.13326591E+03</pdfrwt>
<pdfrwt beam="1">  1       -4 0.10782855E-01 0.13326591E+03</pdfrwt>
<totfact> 0.25832590E+03</totfact>
</mgrwt>
</event>
<event>
 6    4  0.2271823E-003  0.1301967E+03  0.7818608E-02  0.1227164E+00
          4   -1    0    0  502    0  0.00000000000E+00  0.00000000000E+00  0.29989640320E+03  0.29989909228E+03  0.12700000000E+01 0.  1.
         -4   -1    0    0    0  501 -0.00000000000E+00 -0.00000000000E+00 -0.26258609629E+02  0.26289303521E+02  0.12700000000E+01 0.  1.
         25    2    1    2    0    0 -0.70329333471E+01  0.35727554228E+02  0.25248478275E+03  0.28407699415E+03  0.12500101120E+03 0.  0.
    9000005    1    3    3    0    0  0.56360729800E+02  0.99991008534E+00  0.89455954293E+02  0.10573977228E+03  0.10000000000E+01 0.  0.
    9000005    1    3    3    0    0 -0.63393663147E+02  0.34727644142E+02  0.16302882846E+03  0.17833722187E+03  0.10000000000E+01 0.  0.
         21    1    1    2  502  501  0.70329333471E+01 -0.35727554228E+02  0.21153010819E+02  0.42111401654E+02  0.00000000000E+00 0.  1.
<mgrwt>
<rscale>  1 0.13019667E+03</rscale>
<asrwt>0</asrwt>
<pdfrwt beam="1">  1        4 0.46140478E-01 0.13019667E+03</pdfrwt>
<pdfrwt beam="2">  1       -4 0.40423539E-02 0.13019667E+03</pdfrwt>
<totfact> 0.24988765E+03</totfact>
</mgrwt>
</event>
<event>
 6    4  0.2271823E-003  0.1310280E+03  0.7818608E-02  0.1225938E+00
          4   -1    0    0  502    0  0.00000000000E+00  0.00000000000E+00  0.70847158040E+02  0.70858540081E+02  0.12700000000E+01 0. -1.
         -4   -1    0    0    0  501 -0.00000000000E+00 -0.00000000000E+00 -0.11491168265E+03  0.11491870043E+03  0.12700000000E+01 0. -1.
         25    2    1    2    0    0  0.88356280693E+01 -0.38280924424E+02 -0.59062502082E+02  0.14372445432E+03  0.12499936847E+03 0.  0.
    9000005    1    3    3    0    0  0.46478696878E+02 -0.34200853309E+01  0.18973076804E+02  0.50328360698E+02  0.10000000000E+01 0.  0.
    9000005    1    3    3    0    0 -0.37643068809E+02 -0.34860839093E+02 -0.78035578886E+02  0.93396093621E+02  0.10000000000E+01 0.  0.
         21    1    1    2  502  501 -0.88356280693E+01  0.38280924424E+02  0.14997977476E+02  0.42052786192E+02  0.00000000000E+00 0. -1.
<mgrwt>
<rscale>  1 0.13102801E+03</rscale>
<asrwt>0</asrwt>
<pdfrwt beam="1">  1        4 0.10900978E-01 0.13102801E+03</pdfrwt>
<pdfrwt beam="2">  1       -4 0.17680136E-01 0.13102801E+03</pdfrwt>
<totfact> 0.29987242E+03</totfact>
</mgrwt>
</event>
<event>
 6    4  0.2271823E-003  0.1669689E+03  0.7818608E-02  0.1181046E+00
          4   -1    0    0  502    0  0.00000000000E+00  0.00000000000E+00  0.90824991475E+02  0.90833870205E+02  0.12700000000E+01 0.  1.
         -4   -1    0    0    0  501 -0.00000000000E+00 -0.00000000000E+00 -0.24912069019E+03  0.24912392735E+03  0.12700000000E+01 0.  1.
         25    2    1    2    0    0 -0.40849794620E+02  0.10288127122E+03 -0.28523212024E+02  0.16938769470E+03  0.12500142321E+03 0.  0.
    9000005    1    3    3    0    0 -0.12411320195E+02  0.71435256157E+02  0.44402247377E+02  0.85027032544E+02  0.10000000000E+01 0.  0.
    9000005    1    3    3    0    0 -0.28438474425E+02  0.31446015059E+02 -0.72925459401E+02  0.84360662157E+02  0.10000000000E+01 0.  0.
         21    1    1    2  502  501  0.40849794620E+02 -0.10288127122E+03 -0.12977248669E+03  0.17057010286E+03  0.00000000000E+00 0.  1.
<mgrwt>
<rscale>  1 0.16696891E+03</rscale>
<asrwt>0</asrwt>
<pdfrwt beam="1">  1        4 0.13974008E-01 0.16696891E+03</pdfrwt>
<pdfrwt beam="2">  1       -4 0.38327192E-01 0.16696891E+03</pdfrwt>
<totfact> 0.48711442E+02</totfact>
</mgrwt>
</event>
<event>
 6    4  0.2271823E-003  0.1271977E+03  0.7818608E-02  0.1231674E+00
          4   -1    0    0  502    0  0.00000000000E+00  0.00000000000E+00  0.33928299908E+03  0.33928537600E+03  0.12700000000E+01 0.  1.
         -4   -1    0    0    0  501 -0.00000000000E+00 -0.00000000000E+00 -0.16741871683E+02  0.16789972229E+02  0.12700000000E+01 0.  1.
         25    2    1    2    0    0  0.23456400977E+02  0.21020188277E+01  0.27683924197E+03  0.30466247473E+03  0.12499854552E+03 0.  0.
    9000005    1    3    3    0    0  0.26968093691E+02  0.13869651889E+02  0.29377771244E+01  0.30484026231E+02  0.10000000000E+01 0.  0.
    9000005    1    3    3    0    0 -0.35116927143E+01 -0.11767633061E+02  0.27390146485E+03  0.27417844850E+03  0.10000000000E+01 0.  0.
         21    1    1    2  502  501 -0.23456400977E+02 -0.21020188277E+01  0.45701885430E+02  0.51412873503E+02  0.00000000000E+00 0.  1.
<mgrwt>
<rscale>  1 0.12719771E+03</rscale>
<asrwt>0</asrwt>
<pdfrwt beam="1">  1        4 0.52201263E-01 0.12719771E+03</pdfrwt>
<pdfrwt beam="2">  1       -4 0.25795557E-02 0.12719771E+03</pdfrwt>
<totfact> 0.39166133E+03</totfact>
</mgrwt>
</event>
<event>
 6    4  0.2271823E-003  0.1279177E+03  0.7818608E-02  0.1230579E+00
         -4   -1    0    0    0  501 -0.00000000000E+00  0.00000000000E+00  0.16606728847E+02  0.16655219692E+02  0.12700000000E+01 0.  1.
          4   -1    0    0  502    0  0.00000000000E+00 -0.00000000000E+00 -0.37244441984E+03  0.37244658512E+03  0.12700000000E+01 0.  1.
         25    2    1    2    0    0 -0.27006920277E+02  0.30741906438E+01 -0.31565483019E+03  0.34058905708E+03  0.12499643829E+03 0.  0.
    9000005    1    3    3    0    0 -0.86358731938E+01 -0.60812894509E+02 -0.15276661805E+03  0.16465547678E+03  0.10000000000E+01 0.  0.
    9000005    1    3    3    0    0 -0.18371047083E+02  0.63887085152E+02 -0.16288821214E+03  0.17593358029E+03  0.10000000000E+01 0.  0.
         21    1    1    2  502  501  0.27006920277E+02 -0.30741906438E+01 -0.40182860800E+02  0.48512747737E+02  0.00000000000E+00 0.  1.
<mgrwt>
<rscale>  1 0.12791768E+03</rscale>
<asrwt>0</asrwt>
<pdfrwt beam="2">  1        4 0.57303032E-01 0.12791768E+03</pdfrwt>
<pdfrwt beam="1">  1       -4 0.25587783E-02 0.12791768E+03</pdfrwt>
<totfact> 0.32761405E+03</totfact>
</mgrwt>
</event>
<event>
 6    4  0.2271823E-003  0.1278758E+03  0.7818608E-02  0.1230642E+00
         -4   -1    0    0    0  501 -0.00000000000E+00  0.00000000000E+00  0.10377137748E+02  0.10454563016E+02  0.12700000000E+01 0.  1.
          4   -1    0    0  502    0  0.00000000000E+00 -0.00000000000E+00 -0.64594075050E+03  0.64594199899E+03  0.12700000000E+01 0.  1.
         25    2    1    2    0    0 -0.26511854135E+02  0.47955173091E+01 -0.58788825873E+03  0.60163512688E+03  0.12500538286E+03 0.  0.
    9000005    1    3    3    0    0 -0.12209242675E+02  0.15809832480E+02 -0.58239625046E+03  0.58273957216E+03  0.10000000000E+01 0.  0.
    9000005    1    3    3    0    0 -0.14302611460E+02 -0.11014315171E+02 -0.54920082684E+01  0.18895554717E+02  0.10000000000E+01 0.  0.
         21    1    1    2  502  501  0.26511854135E+02 -0.47955173091E+01 -0.47675354021E+02  0.54761435125E+02  0.00000000000E+00 0.  1.
<mgrwt>
<rscale>  1 0.12787580E+03</rscale>
<asrwt>0</asrwt>
<pdfrwt beam="2">  1        4 0.99381520E-01 0.12787580E+03</pdfrwt>
<pdfrwt beam="1">  1       -4 0.16025351E-02 0.12787580E+03</pdfrwt>
<totfact> 0.20201097E+03</totfact>
</mgrwt>
</event>
<event>
 6    4  0.2271823E-003  0.1270541E+03  0.7818608E-02  0.1231893E+00
          4   -1    0    0  502    0  0.00000000000E+00  0.00000000000E+00  0.38380654126E+03  0.38380864245E+03  0.12700000000E+01 0. -1.
         -4   -1    0    0    0  501 -0.00000000000E+00 -0.00000000000E+00 -0.14701234958E+02  0.14755988930E+02  0.12700000000E+01 0. -1.
         25    2    1    2    0    0 -0.22665902592E+02  0.20201742827E+01  0.32458319984E+03  0.34856420929E+03  0.12499972055E+03 0.  0.
    9000005    1    3    3    0    0  0.47536131371E+02 -0.88566500382E+01  0.76482881091E+02  0.90491740704E+02  0.10000000000E+01 0.  0.
    9000005    1    3    3    0    0 -0.70202033963E+02  0.10876824321E+02  0.24810031875E+03  0.25807246859E+03  0.10000000000E+01 0.  0.
         21    1    1    2  502  501  0.22665902592E+02 -0.20201742827E+01  0.44522106466E+02  0.50000422085E+02  0.00000000000E+00 0. -1.
<mgrwt>
<rscale>  1 0.12705414E+03</rscale>
<asrwt>0</asrwt>
<pdfrwt beam="1">  1        4 0.59051523E-01 0.12705414E+03</pdfrwt>
<pdfrwt beam="2">  1       -4 0.22661023E-02 0.12705414E+03</pdfrwt>
<totfact> 0.37082503E+03</totfact>
</mgrwt>
</event>
<event>
 6    4  0.2271823E-003  0.1267756E+03  0.7818608E-02  0.1232320E+00
         -4   -1    0    0    0  501 -0.00000000000E+00  0.00000000000E+00  0.13518999022E+02  0.13578521074E+02  0.12700000000E+01 0. -1.
          4   -1    0    0  502    0  0.00000000000E+00 -0.00000000000E+00 -0.40510178214E+03  0.40510377287E+03  0.12700000000E+01 0. -1.
         25    2    1    2    0    0 -0.97073171823E+01  0.18789892915E+02 -0.32647421865E+03  0.35022488200E+03  0.12499904179E+03 0.  0.
    9000005    1    3    3    0    0  0.21381386785E+02 -0.45288292240E+02 -0.87088475924E+02  0.10046688884E+03  0.10000000000E+01 0.  0.
    9000005    1    3    3    0    0 -0.31088703968E+02  0.64078185155E+02 -0.23938574272E+03  0.24975799316E+03  0.10000000000E+01 0.  0.
         21    1    1    2  502  501  0.97073171823E+01 -0.18789892915E+02 -0.65108564471E+02  0.68457411945E+02  0.00000000000E+00 0. -1.
<mgrwt>
<rscale>  1 0.12677560E+03</rscale>
<asrwt>0</asrwt>
<pdfrwt beam="2">  1        4 0.62328074E-01 0.12677560E+03</pdfrwt>
<pdfrwt beam="1">  1       -4 0.20845781E-02 0.12677560E+03</pdfrwt>
<totfact> 0.37638152E+03</totfact>
</mgrwt>
</event>
<event>
 6    4  0.2271823E-003  0.1280454E+03  0.7818608E-02  0.1230385E+00
         -4   -1    0    0    0  501 -0.00000000000E+00  0.00000000000E+00  0.19926125739E+03  0.19926530455E+03  0.12700000000E+01 0. -1.
          4   -1    0    0  502    0  0.00000000000E+00 -0.00000000000E+00 -0.30833602033E+02  0.30859745856E+02  0.12700000000E+01 0. -1.
         25    2    1    2    0    0  0.18923632050E+02 -0.20306703239E+02  0.12771168946E+03  0.18084771357E+03  0.12500061533E+03 0.  0.
    9000005    1    3    3    0    0  0.85389334888E+00  0.50462237047E+02  0.76438863360E+02  0.91602763787E+02  0.10000000000E+01 0.  0.
    9000005    1    3    3    0    0  0.18069738701E+02 -0.70768940286E+02  0.51272826103E+02  0.89244949787E+02  0.10000000000E+01 0.  0.
         21    1    1    2  502  501 -0.18923632050E+02  0.20306703239E+02  0.40715965893E+02  0.49277336829E+02  0.00000000000E+00 0. -1.
<mgrwt>
<rscale>  1 0.12804538E+03</rscale>
<asrwt>0</asrwt>
<pdfrwt beam="2">  1        4 0.47459538E-02 0.12804538E+03</pdfrwt>
<pdfrwt beam="1">  1       -4 0.30657898E-01 0.12804538E+03</pdfrwt>
<totfact> 0.42747325E+03</totfact>
</mgrwt>
</event>
<event>
 6    4  0.2271823E-003  0.1283310E+03  0.7818608E-02  0.1229953E+00
         -4   -1    0    0    0  501 -0.00000000000E+00  0.00000000000E+00  0.33649257308E+02  0.33673215133E+02  0.12700000000E+01 0.  1.
          4   -1    0    0  502    0  0.00000000000E+00 -0.00000000000E+00 -0.20247982711E+03  0.20248380994E+03  0.12700000000E+01 0.  1.
         25    2    1    2    0    0 -0.13010727418E+02  0.25977535102E+02 -0.16133893773E+03  0.20615309351E+03  0.12499893511E+03 0.  0.
    9000005    1    3    3    0    0  0.53122892471E+02  0.62770723986E+01 -0.40905778825E+02  0.67347799397E+02  0.10000000000E+01 0.  0.
    9000005    1    3    3    0    0 -0.66133619890E+02  0.19700462703E+02 -0.12043315891E+03  0.13880529412E+03  0.10000000000E+01 0.  0.
         21    1    1    2  502  501  0.13010727418E+02 -0.25977535102E+02 -0.74916320738E+01  0.30003931560E+02  0.00000000000E+00 0.  1.
<mgrwt>
<rscale>  1 0.12833100E+03</rscale>
<asrwt>0</asrwt>
<pdfrwt beam="2">  1        4 0.31152891E-01 0.12833100E+03</pdfrwt>
<pdfrwt beam="1">  1       -4 0.51789582E-02 0.12833100E+03</pdfrwt>
<totfact> 0.36066593E+03</totfact>
</mgrwt>
</event>
<event>
 6    4  0.2271823E-003  0.1302968E+03  0.7818608E-02  0.1227016E+00
         -4   -1    0    0    0  501 -0.00000000000E+00  0.00000000000E+00  0.24091515077E+02  0.24124966295E+02  0.12700000000E+01 0. -1.
          4   -1    0    0  502    0  0.00000000000E+00 -0.00000000000E+00 -0.29246117267E+03  0.29246393012E+03  0.12700000000E+01 0. -1.
         25    2    1    2    0    0 -0.31954680434E+02  0.18208885085E+02 -0.22189449263E+03  0.25732165372E+03  0.12499841006E+03 0.  0.
    9000005    1    3    3    0    0 -0.27898824774E+02  0.70463755559E+02 -0.15307082671E+03  0.17080738644E+03  0.10000000000E+01 0.  0.
    9000005    1    3    3    0    0 -0.40558556593E+01 -0.52254870474E+02 -0.68823665914E+02  0.86514267281E+02  0.10000000000E+01 0.  0.
         21    1    1    2  502  501  0.31954680434E+02 -0.18208885085E+02 -0.46475164966E+02  0.59267242692E+02  0.00000000000E+00 0. -1.
<mgrwt>
<rscale>  1 0.13029684E+03</rscale>
<asrwt>0</asrwt>
<pdfrwt beam="2">  1        4 0.44996809E-01 0.13029684E+03</pdfrwt>
<pdfrwt beam="1">  1       -4 0.37091724E-02 0.13029684E+03</pdfrwt>
<totfact> 0.30120887E+03</totfact>
</mgrwt>
</event>
<event>
 6    4  0.2271823E-003  0.1491528E+03  0.7818608E-02  0.1201518E+00
          4   -1    0    0  502    0  0.00000000000E+00  0.00000000000E+00  0.78567283757E+03  0.78567386401E+03  0.12700000000E+01 0. -1.
         -4   -1    0    0    0  501 -0.00000000000E+00 -0.00000000000E+00 -0.19507769862E+02  0.19549066090E+02  0.12700000000E+01 0. -1.
         25    2    1    2    0    0  0.80572458517E+02  0.11379806474E+02  0.62244404592E+03  0.64006496580E+03  0.12500059634E+03 0.  0.
    9000005    1    3    3    0    0  0.24476799051E+02  0.66276141076E+02  0.29519965410E+03  0.30353826175E+03  0.10000000000E+01 0.  0.
    9000005    1    3    3    0    0  0.56095659466E+02 -0.54896334602E+02  0.32724439182E+03  0.33652670405E+03  0.10000000000E+01 0.  0.
         21    1    1    2  502  501 -0.80572458517E+02 -0.11379806474E+02  0.14372102179E+03  0.16515796430E+03  0.00000000000E+00 0. -1.
<mgrwt>
<rscale>  1 0.14915284E+03</rscale>
<asrwt>0</asrwt>
<pdfrwt beam="1">  1        4 0.12087600E+00 0.14915284E+03</pdfrwt>
<pdfrwt beam="2">  1       -4 0.30044510E-02 0.14915284E+03</pdfrwt>
<totfact> 0.49695754E+02</totfact>
</mgrwt>
</event>
<event>
 6    4  0.2271823E-003  0.1293270E+03  0.7818608E-02  0.1228458E+00
          4   -1    0    0  502    0  0.00000000000E+00  0.00000000000E+00  0.12556316064E+02  0.12620379277E+02  0.12700000000E+01 0. -1.
         -4   -1    0    0    0  501 -0.00000000000E+00 -0.00000000000E+00 -0.53153915868E+03  0.53154067588E+03  0.12700000000E+01 0. -1.
         25    2    1    2    0    0  0.17791243386E+02 -0.27993799324E+02 -0.38532491908E+03  0.40644895813E+03  0.12500112464E+03 0.  0.
    9000005    1    3    3    0    0 -0.52271336553E+02 -0.10791737526E+02 -0.11718100964E+03  0.12876778807E+03  0.10000000000E+01 0.  0.
    9000005    1    3    3    0    0  0.70062579939E+02 -0.17202061798E+02 -0.26814390943E+03  0.27768117006E+03  0.10000000000E+01 0.  0.
         21    1    1    2  502  501 -0.17791243386E+02  0.27993799324E+02 -0.13365792354E+03  0.13771209703E+03  0.00000000000E+00 0. -1.
<mgrwt>
<rscale>  1 0.12932696E+03</rscale>
<asrwt>0</asrwt>
<pdfrwt beam="1">  1        4 0.19367860E-02 0.12932696E+03</pdfrwt>
<pdfrwt beam="2">  1       -4 0.81780282E-01 0.12932696E+03</pdfrwt>
<totfact> 0.23533579E+03</totfact>
</mgrwt>
</event>
<event>
 6    4  0.2271823E-003  0.1270416E+03  0.7818608E-02  0.1231913E+00
         -4   -1    0    0    0  501 -0.00000000000E+00  0.00000000000E+00  0.14293784312E+03  0.14294348497E+03  0.12700000000E+01 0. -1.
          4   -1    0    0  502    0  0.00000000000E+00 -0.00000000000E+00 -0.58464474562E+02  0.58478266782E+02  0.12700000000E+01 0. -1.
         25    2    1    2    0    0 -0.19789747391E+02 -0.11099931252E+02  0.14505873000E+02  0.12786705775E+03  0.12499888611E+03 0.  0.
    9000005    1    3    3    0    0  0.21204378659E+02  0.44788954084E+02 -0.16069389264E+02  0.52104715272E+02  0.10000000000E+01 0.  0.
    9000005    1    3    3    0    0 -0.40994126050E+02 -0.55888885336E+02  0.30575262264E+02  0.75762342475E+02  0.10000000000E+01 0.  0.
         21    1    1    2  502  501  0.19789747391E+02  0.11099931252E+02  0.69967495554E+02  0.73554694002E+02  0.00000000000E+00 0. -1.
<mgrwt>
<rscale>  1 0.12704158E+03</rscale>
<asrwt>0</asrwt>
<pdfrwt beam="2">  1        4 0.89960296E-02 0.12704158E+03</pdfrwt>
<pdfrwt beam="1">  1       -4 0.21991932E-01 0.12704158E+03</pdfrwt>
<totfact> 0.27793696E+03</totfact>
</mgrwt>
</event>
<event>
 6    4  0.2271823E-003  0.1278668E+03  0.7818608E-02  0.1230656E+00
          4   -1    0    0  502    0  0.00000000000E+00  0.00000000000E+00  0.25014412898E+02  0.25046631563E+02  0.12700000000E+01 0.  1.
         -4   -1    0    0    0  501 -0.00000000000E+00 -0.00000000000E+00 -0.24061450909E+03  0.24061786070E+03  0.12700000000E+01 0.  1.
         25    2    1    2    0    0 -0.12248130199E+02 -0.23971268323E+02 -0.18527748098E+03  0.22511699675E+03  0.12500111548E+03 0.  0.
    9000005    1    3    3    0    0 -0.41841513347E+02  0.30273548086E+02 -0.34366997689E+02  0.62042650516E+02  0.10000000000E+01 0.  0.
    9000005    1    3    3    0    0  0.29593383148E+02 -0.54244816409E+02 -0.15091048329E+03  0.16307434624E+03  0.10000000000E+01 0.  0.
         21    1    1    2  502  501  0.12248130199E+02  0.23971268323E+02 -0.30322615213E+02  0.40547495505E+02  0.00000000000E+00 0. -1.
<mgrwt>
<rscale>  1 0.12786680E+03</rscale>
<asrwt>0</asrwt>
<pdfrwt beam="1">  1        4 0.38511076E-02 0.12786680E+03</pdfrwt>
<pdfrwt beam="2">  1       -4 0.37020351E-01 0.12786680E+03</pdfrwt>
<totfact> 0.41511161E+03</totfact>
</mgrwt>
</event>
<event>
 6    4  0.2271823E-003  0.1448523E+03  0.7818608E-02  0.1206945E+00
         -4   -1    0    0    0  501 -0.00000000000E+00  0.00000000000E+00  0.50174955110E+02  0.50191025296E+02  0.12700000000E+01 0. -1.
          4   -1    0    0  502    0  0.00000000000E+00 -0.00000000000E+00 -0.31353101320E+03  0.31353358534E+03  0.12700000000E+01 0. -1.
         25    2    1    2    0    0  0.71110166276E+02 -0.17231404633E+02 -0.25060101676E+03  0.28945302702E+03  0.12501443196E+03 0.  0.
    9000005    1    3    3    0    0  0.45136053901E+02 -0.71478255535E+02 -0.15301597898E+03  0.17481788867E+03  0.10000000000E+01 0.  0.
    9000005    1    3    3    0    0  0.25974112374E+02  0.54246850902E+02 -0.97585037777E+02  0.11463513835E+03  0.10000000000E+01 0.  0.
         21    1    1    2  502  501 -0.71110166276E+02  0.17231404633E+02 -0.12755041330E+02  0.74271583615E+02  0.00000000000E+00 0. -1.
<mgrwt>
<rscale>  1 0.14485229E+03</rscale>
<asrwt>0</asrwt>
<pdfrwt beam="2">  1        4 0.48236973E-01 0.14485229E+03</pdfrwt>
<pdfrwt beam="1">  1       -4 0.77206581E-02 0.14485229E+03</pdfrwt>
<totfact> 0.81964532E+02</totfact>
</mgrwt>
</event>
<event>
 6    4  0.2271823E-003  0.1379445E+03  0.7818608E-02  0.1216122E+00
         -4   -1    0    0    0  501 -0.00000000000E+00  0.00000000000E+00  0.44931837724E+02  0.44949782438E+02  0.12700000000E+01 0. -1.
          4   -1    0    0  502    0  0.00000000000E+00 -0.00000000000E+00 -0.23569306422E+03  0.23569648580E+03  0.12700000000E+01 0. -1.
         25    2    1    2    0    0 -0.32336165905E+02 -0.48547550084E+02 -0.16955350535E+03  0.21857969366E+03  0.12500479614E+03 0.  0.
    9000005    1    3    3    0    0 -0.66772966145E+02 -0.53808538760E+02 -0.62840132534E+02  0.10631966003E+03  0.10000000000E+01 0.  0.
    9000005    1    3    3    0    0  0.34436800239E+02  0.52609886755E+01 -0.10671337282E+03  0.11226003363E+03  0.10000000000E+01 0.  0.
         21    1    1    2  502  501  0.32336165905E+02  0.48547550084E+02 -0.21207721141E+02  0.62066574584E+02  0.00000000000E+00 0. -1.
<mgrwt>
<rscale>  1 0.13794452E+03</rscale>
<asrwt>0</asrwt>
<pdfrwt beam="2">  1        4 0.36262114E-01 0.13794452E+03</pdfrwt>
<pdfrwt beam="1">  1       -4 0.69142341E-02 0.13794452E+03</pdfrwt>
<totfact> 0.17136452E+03</totfact>
</mgrwt>
</event>
<event>
 6    4  0.2271823E-003  0.1277476E+03  0.7818608E-02  0.1230837E+00
          4   -1    0    0  502    0  0.00000000000E+00  0.00000000000E+00  0.84183844250E+03  0.84183940046E+03  0.12700000000E+01 0.  1.
         -4   -1    0    0    0  501 -0.00000000000E+00 -0.00000000000E+00 -0.71989071912E+01  0.73100728278E+01  0.12700000000E+01 0.  1.
         25    2    1    2    0    0 -0.23593321630E+02 -0.11715876288E+02  0.73844190956E+03  0.74941036470E+03  0.12500213735E+03 0.  0.
    9000005    1    3    3    0    0 -0.63030053799E+02 -0.43835892230E+02  0.45814741560E+03  0.46453678816E+03  0.10000000000E+01 0.  0.
    9000005    1    3    3    0    0  0.39436732169E+02  0.32120015942E+02  0.28029449396E+03  0.28487357654E+03  0.10000000000E+01 0.  0.
         21    1    1    2  502  501  0.23593321630E+02  0.11715876288E+02  0.96197625744E+02  0.99739108586E+02  0.00000000000E+00 0.  1.
<mgrwt>
<rscale>  1 0.12774757E+03</rscale>
<asrwt>0</asrwt>
<pdfrwt beam="1">  1        4 0.12952219E+00 0.12774757E+03</pdfrwt>
<pdfrwt beam="2">  1       -4 0.11161494E-02 0.12774757E+03</pdfrwt>
<totfact> 0.18653794E+03</totfact>
</mgrwt>
</event>
<event>
 6    4  0.2271823E-003  0.1273757E+03  0.7818608E-02  0.1231402E+00
         -4   -1    0    0    0  501 -0.00000000000E+00  0.00000000000E+00  0.18000209408E+02  0.18044956047E+02  0.12700000000E+01 0.  1.
          4   -1    0    0  502    0  0.00000000000E+00 -0.00000000000E+00 -0.32346375287E+03  0.32346624603E+03  0.12700000000E+01 0.  1.
         25    2    1    2    0    0 -0.16993434399E+02 -0.17623153234E+02 -0.26841390347E+03  0.29710367832E+03  0.12500087901E+03 0.  0.
    9000005    1    3    3    0    0 -0.23381732531E+02  0.73423725280E+01 -0.27014511972E+03  0.27125633920E+03  0.10000000000E+01 0.  0.
    9000005    1    3    3    0    0  0.63882981324E+01 -0.24965525762E+02  0.17312162503E+01  0.25847339115E+02  0.10000000000E+01 0.  0.
         21    1    1    2  502  501  0.16993434399E+02  0.17623153234E+02 -0.37049639991E+02  0.44407523755E+02  0.00000000000E+00 0.  1.
<mgrwt>
<rscale>  1 0.12737571E+03</rscale>
<asrwt>0</asrwt>
<pdfrwt beam="2">  1        4 0.49767284E-01 0.12737571E+03</pdfrwt>
<pdfrwt beam="1">  1       -4 0.27728971E-02 0.12737571E+03</pdfrwt>
<totfact> 0.38594259E+03</totfact>
</mgrwt>
</event>
<event>
 6    4  0.2271823E-003  0.1270414E+03  0.7818608E-02  0.1231913E+00
         -4   -1    0    0    0  501 -0.00000000000E+00  0.00000000000E+00  0.17374009185E+02  0.17420364381E+02  0.12700000000E+01 0. -1.
          4   -1    0    0  502    0  0.00000000000E+00 -0.00000000000E+00 -0.47717377435E+03  0.47717546440E+03  0.12700000000E+01 0. -1.
         25    2    1    2    0    0  0.22595539032E+02  0.19657327521E+01 -0.45364031483E+03  0.47109346044E+03  0.12500036296E+03 0.  0.
    9000005    1    3    3    0    0  0.67533313573E+02  0.13519868182E+02 -0.36060743142E+03  0.36712702825E+03  0.10000000000E+01 0.  0.
    9000005    1    3    3    0    0 -0.44937774541E+02 -0.11554135430E+02 -0.93032883409E+02  0.10396643219E+03  0.10000000000E+01 0.  0.
         21    1    1    2  502  501 -0.22595539032E+02 -0.19657327521E+01 -0.61594503378E+01  0.23502368346E+02  0.00000000000E+00 0.  1.
<mgrwt>
<rscale>  1 0.12704138E+03</rscale>
<asrwt>0</asrwt>
<pdfrwt beam="2">  1        4 0.73415036E-01 0.12704138E+03</pdfrwt>
<pdfrwt beam="1">  1       -4 0.26766206E-02 0.12704138E+03</pdfrwt>
<totfact> 0.18008219E+03</totfact>
</mgrwt>
</event>
<event>
 6    4  0.2271823E-003  0.1322076E+03  0.7818608E-02  0.1224216E+00
         -4   -1    0    0    0  501 -0.00000000000E+00  0.00000000000E+00  0.52187938929E+02  0.52203389446E+02  0.12700000000E+01 0. -1.
          4   -1    0    0  502    0  0.00000000000E+00 -0.00000000000E+00 -0.20322749215E+03  0.20323146033E+03  0.12700000000E+01 0. -1.
         25    2    1    2    0    0  0.13529611093E+02 -0.40863305979E+02 -0.16383829450E+03  0.21052752376E+03  0.12500396539E+03 0.  0.
    9000005    1    3    3    0    0  0.21599510129E+02 -0.56312722938E+01 -0.17201182953E+03  0.17345696747E+03  0.10000000000E+01 0.  0.
    9000005    1    3    3    0    0 -0.80698990360E+01 -0.35232033685E+02  0.81735350345E+01  0.37070556282E+02  0.10000000000E+01 0.  0.
         21    1    1    2  502  501 -0.13529611093E+02  0.40863305979E+02  0.12798741275E+02  0.44907326018E+02  0.00000000000E+00 0. -1.
<mgrwt>
<rscale>  1 0.13220761E+03</rscale>
<asrwt>0</asrwt>
<pdfrwt beam="2">  1        4 0.31267261E-01 0.13220761E+03</pdfrwt>
<pdfrwt beam="1">  1       -4 0.80304076E-02 0.13220761E+03</pdfrwt>
<totfact> 0.17632461E+03</totfact>
</mgrwt>
</event>
<event>
 6    4  0.2271823E-003  0.1270541E+03  0.7818608E-02  0.1231894E+00
          4   -1    0    0  502    0  0.00000000000E+00  0.00000000000E+00  0.25347179870E+03  0.25347498029E+03  0.12700000000E+01 0.  1.
         -4   -1    0    0    0  501 -0.00000000000E+00 -0.00000000000E+00 -0.27119665297E+02  0.27149385736E+02  0.12700000000E+01 0.  1.
         25    2    1    2    0    0 -0.73515529102E+01  0.21538692799E+02  0.22428469383E+03  0.25777190612E+03  0.12499908431E+03 0.  0.
    9000005    1    3    3    0    0  0.13983216773E+02  0.38869709653E+02  0.11052627714E+02  0.42773183880E+02  0.10000000000E+01 0.  0.
    9000005    1    3    3    0    0 -0.21334769683E+02 -0.17331016855E+02  0.21323206612E+03  0.21499872224E+03  0.10000000000E+01 0.  0.
         21    1    1    2  502  501  0.73515529102E+01 -0.21538692799E+02  0.20674395680E+01  0.22852459912E+02  0.00000000000E+00 0.  1.
<mgrwt>
<rscale>  1 0.12705405E+03</rscale>
<asrwt>0</asrwt>
<pdfrwt beam="1">  1        4 0.38998193E-01 0.12705405E+03</pdfrwt>
<pdfrwt beam="2">  1       -4 0.41747870E-02 0.12705405E+03</pdfrwt>
<totfact> 0.32946114E+03</totfact>
</mgrwt>
</event>
<event>
 6    4  0.2271823E-003  0.1270620E+03  0.7818608E-02  0.1231882E+00
         -4   -1    0    0    0  501 -0.00000000000E+00  0.00000000000E+00  0.14811303085E+03  0.14811847558E+03  0.12700000000E+01 0.  1.
          4   -1    0    0  502    0  0.00000000000E+00 -0.00000000000E+00 -0.38946709169E+02  0.38967410166E+02  0.12700000000E+01 0.  1.
         25    2    1    2    0    0 -0.19510341486E+02 -0.11739932518E+02  0.80257465218E+02  0.15028640990E+03  0.12500505924E+03 0.  0.
    9000005    1    3    3    0    0  0.22776513764E+02  0.46058272553E+02  0.15368439029E+02  0.53640683888E+02  0.10000000000E+01 0.  0.
    9000005    1    3    3    0    0 -0.42286855251E+02 -0.57798205071E+02  0.64889026189E+02  0.96645726011E+02  0.10000000000E+01 0.  0.
         21    1    1    2  502  501  0.19510341486E+02  0.11739932518E+02  0.28908856461E+02  0.36799475843E+02  0.00000000000E+00 0. -1.
<mgrwt>
<rscale>  1 0.12706197E+03</rscale>
<asrwt>0</asrwt>
<pdfrwt beam="2">  1        4 0.59938126E-02 0.12706197E+03</pdfrwt>
<pdfrwt beam="1">  1       -4 0.22788631E-01 0.12706197E+03</pdfrwt>
<totfact> 0.50806947E+03</totfact>
</mgrwt>
</event>
<event>
 6    4  0.2271823E-003  0.1272743E+03  0.7818608E-02  0.1231557E+00
         -4   -1    0    0    0  501 -0.00000000000E+00  0.00000000000E+00  0.30917128930E+03  0.30917389772E+03  0.12700000000E+01 0. -1.
          4   -1    0    0  502    0  0.00000000000E+00 -0.00000000000E+00 -0.18599337104E+02  0.18642645754E+02  0.12700000000E+01 0. -1.
         25    2    1    2    0    0 -0.21673994880E+02 -0.10200568349E+02  0.23379595364E+03  0.26619408279E+03  0.12499971249E+03 0.  0.
    9000005    1    3    3    0    0 -0.33175476829E+02 -0.46410241377E+02  0.21746979399E+03  0.22483023387E+03  0.10000000000E+01 0.  0.
    9000005    1    3    3    0    0  0.11501481948E+02  0.36209673028E+02  0.16326159658E+02  0.41363848914E+02  0.10000000000E+01 0.  0.
         21    1    1    2  502  501  0.21673994880E+02  0.10200568349E+02  0.56775998555E+02  0.61622460683E+02  0.00000000000E+00 0.  1.
<mgrwt>
<rscale>  1 0.12727428E+03</rscale>
<asrwt>0</asrwt>
<pdfrwt beam="2">  1        4 0.28649685E-02 0.12727428E+03</pdfrwt>
<pdfrwt beam="1">  1       -4 0.47568348E-01 0.12727428E+03</pdfrwt>
<totfact> 0.40184484E+03</totfact>
</mgrwt>
</event>
<event>
 6    4  0.2271823E-003  0.1613633E+03  0.7818608E-02  0.1187166E+00
         -4   -1    0    0    0  501 -0.00000000000E+00  0.00000000000E+00  0.14689360811E+03  0.14689909804E+03  0.12700000000E+01 0. -1.
          4   -1    0    0  502    0  0.00000000000E+00 -0.00000000000E+00 -0.16345692942E+03  0.16346186306E+03  0.12700000000E+01 0. -1.
         25    2    1    2    0    0  0.10159166260E+03  0.96262423476E+01 -0.89880599435E+02  0.18470685762E+03  0.12499828257E+03 0.  0.
    9000005    1    3    3    0    0  0.94062772169E+02 -0.43510278843E+02 -0.38972787203E+02  0.11072862148E+03  0.10000000000E+01 0.  0.
    9000005    1    3    3    0    0  0.75288904262E+01  0.53136521190E+02 -0.50907812232E+02  0.73978236134E+02  0.10000000000E+01 0.  0.
         21    1    1    2  502  501 -0.10159166260E+03 -0.96262423476E+01  0.73317278125E+02  0.12565410348E+03  0.00000000000E+00 0. -1.
<mgrwt>
<rscale>  1 0.16136326E+03</rscale>
<asrwt>0</asrwt>
<pdfrwt beam="2">  1        4 0.25148022E-01 0.16136326E+03</pdfrwt>
<pdfrwt beam="1">  1       -4 0.22599818E-01 0.16136326E+03</pdfrwt>
<totfact> 0.45867008E+02</totfact>
</mgrwt>
</event>
<event>
 6    4  0.2271823E-003  0.1280501E+03  0.7818608E-02  0.1230378E+00
          4   -1    0    0  502    0  0.00000000000E+00  0.00000000000E+00  0.27737544334E+02  0.27766603424E+02  0.12700000000E+01 0. -1.
         -4   -1    0    0    0  501 -0.00000000000E+00 -0.00000000000E+00 -0.23208199777E+03  0.23208547260E+03  0.12700000000E+01 0. -1.
         25    2    1    2    0    0 -0.27278288778E+02 -0.47541743780E+01 -0.13959045860E+03  0.18942632036E+03  0.12502050832E+03 0.  0.
    9000005    1    3    3    0    0 -0.25447849162E+02  0.42491094760E+02 -0.13268794010E+03  0.14163394935E+03  0.10000000000E+01 0.  0.
    9000005    1    3    3    0    0 -0.18304396158E+01 -0.47245269138E+02 -0.69025185013E+01  0.47792371010E+02  0.10000000000E+01 0.  0.
         21    1    1    2  502  501  0.27278288778E+02  0.47541743780E+01 -0.64753994836E+02  0.70425755657E+02  0.00000000000E+00 0. -1.
<mgrwt>
<rscale>  1 0.12805013E+03</rscale>
<asrwt>0</asrwt>
<pdfrwt beam="1">  1        4 0.42698173E-02 0.12805013E+03</pdfrwt>
<pdfrwt beam="2">  1       -4 0.35707424E-01 0.12805013E+03</pdfrwt>
<totfact> 0.37805778E+03</totfact>
</mgrwt>
</event>
<event>
 6    4  0.2271823E-003  0.1352838E+03  0.7818608E-02  0.1219820E+00
          4   -1    0    0  502    0  0.00000000000E+00  0.00000000000E+00  0.20904435833E+02  0.20942978238E+02  0.12700000000E+01 0. -1.
         -4   -1    0    0    0  501 -0.00000000000E+00 -0.00000000000E+00 -0.92470717355E+03  0.92470804566E+03  0.12700000000E+01 0. -1.
         25    2    1    2    0    0  0.41182912894E+02 -0.31305939234E+02 -0.20924163302E+03  0.24916611932E+03  0.12500239951E+03 0.  0.
    9000005    1    3    3    0    0 -0.44588251597E+02 -0.33459136767E+01 -0.61213328768E+02  0.75811469697E+02  0.10000000000E+01 0.  0.
    9000005    1    3    3    0    0  0.85771164491E+02 -0.27960025557E+02 -0.14802830425E+03  0.17335464963E+03  0.10000000000E+01 0.  0.
         21    1    1    2  502  501 -0.41182912894E+02  0.31305939234E+02 -0.69456110469E+03  0.69648490457E+03  0.00000000000E+00 0. -1.
<mgrwt>
<rscale>  1 0.13528375E+03</rscale>
<asrwt>0</asrwt>
<pdfrwt beam="1">  1        4 0.32190997E-02 0.13528375E+03</pdfrwt>
<pdfrwt beam="2">  1       -4 0.14226564E+00 0.13528375E+03</pdfrwt>
<totfact> 0.29351785E+02</totfact>
</mgrwt>
</event>
<event>
 6    4  0.2271823E-003  0.1363472E+03  0.7818608E-02  0.1218330E+00
          4   -1    0    0  502    0  0.00000000000E+00  0.00000000000E+00  0.38803531010E+03  0.38803738838E+03  0.12700000000E+01 0. -1.
         -4   -1    0    0    0  501 -0.00000000000E+00 -0.00000000000E+00 -0.25566492109E+02  0.25598015914E+02  0.12700000000E+01 0. -1.
         25    2    1    2    0    0  0.46860152512E+02  0.27723263123E+02  0.30696978367E+03  0.33588840421E+03  0.12500447507E+03 0.  0.
    9000005    1    3    3    0    0  0.32104194803E+02  0.58195235676E+02  0.70081436193E+02  0.96590747374E+02  0.10000000000E+01 0.  0.
    9000005    1    3    3    0    0  0.14755957709E+02 -0.30471972553E+02  0.23688834747E+03  0.23929765684E+03  0.10000000000E+01 0.  0.
         21    1    1    2  502  501 -0.46860152512E+02 -0.27723263123E+02  0.55499034325E+02  0.77747000087E+02  0.00000000000E+00 0. -1.
<mgrwt>
<rscale>  1 0.13634725E+03</rscale>
<asrwt>0</asrwt>
<pdfrwt beam="1">  1        4 0.59700321E-01 0.13634725E+03</pdfrwt>
<pdfrwt beam="2">  1       -4 0.39358915E-02 0.13634725E+03</pdfrwt>
<totfact> 0.15521892E+03</totfact>
</mgrwt>
</event>
<event>
 6    4  0.2271823E-003  0.1318624E+03  0.7818608E-02  0.1224718E+00
         -4   -1    0    0    0  501 -0.00000000000E+00  0.00000000000E+00  0.18027777328E+03  0.18028224660E+03  0.12700000000E+01 0. -1.
          4   -1    0    0  502    0  0.00000000000E+00 -0.00000000000E+00 -0.58979997772E+02  0.58993669468E+02  0.12700000000E+01 0. -1.
         25    2    1    2    0    0  0.35101601820E+02 -0.23023796649E+02  0.24980004990E+02  0.13420769737E+03  0.12500195087E+03 0.  0.
    9000005    1    3    3    0    0  0.14114907238E+02  0.28078010738E+02  0.60738003609E+02  0.68393789015E+02  0.10000000000E+01 0.  0.
    9000005    1    3    3    0    0  0.20986694582E+02 -0.51101807387E+02 -0.35757998620E+02  0.65813908355E+02  0.10000000000E+01 0.  0.
         21    1    1    2  502  501 -0.35101601820E+02  0.23023796649E+02  0.96317770518E+02  0.10506821870E+03  0.00000000000E+00 0. -1.
<mgrwt>
<rscale>  1 0.13186245E+03</rscale>
<asrwt>0</asrwt>
<pdfrwt beam="2">  1        4 0.90752417E-02 0.13186245E+03</pdfrwt>
<pdfrwt beam="1">  1       -4 0.27736438E-01 0.13186245E+03</pdfrwt>
<totfact> 0.18019534E+03</totfact>
</mgrwt>
</event>
<event>
 6    4  0.2271823E-003  0.1335914E+03  0.7818608E-02  0.1222222E+00
         -4   -1    0    0    0  501 -0.00000000000E+00  0.00000000000E+00  0.83370972714E+03  0.83371069444E+03  0.12700000000E+01 0. -1.
          4   -1    0    0  502    0  0.00000000000E+00 -0.00000000000E+00 -0.97619056504E+01  0.98441709619E+01  0.12700000000E+01 0. -1.
         25    2    1    2    0    0 -0.69887228104E+01  0.46613575332E+02  0.62061455103E+03  0.63482995906E+03  0.12499995329E+03 0.  0.
    9000005    1    3    3    0    0  0.38679309272E-01 -0.39761291479E+02  0.30315818557E+03  0.30575618927E+03  0.10000000000E+01 0.  0.
    9000005    1    3    3    0    0 -0.70274021197E+01  0.86374866811E+02  0.31745636545E+03  0.32907376979E+03  0.10000000000E+01 0.  0.
         21    1    1    2  502  501  0.69887228104E+01 -0.46613575332E+02  0.20333327046E+03  0.20872490635E+03  0.00000000000E+00 0.  1.
<mgrwt>
<rscale>  1 0.13359138E+03</rscale>
<asrwt>0</asrwt>
<pdfrwt beam="2">  1        4 0.15082335E-02 0.13359138E+03</pdfrwt>
<pdfrwt beam="1">  1       -4 0.12826949E+00 0.13359138E+03</pdfrwt>
<totfact> 0.12218843E+03</totfact>
</mgrwt>
</event>
<event>
 6    4  0.2271823E-003  0.1371326E+03  0.7818608E-02  0.1217240E+00
         -4   -1    0    0    0  501 -0.00000000000E+00  0.00000000000E+00  0.11858543388E+03  0.11859223426E+03  0.12700000000E+01 0.  1.
          4   -1    0    0  502    0  0.00000000000E+00 -0.00000000000E+00 -0.79985548343E+02  0.79995630153E+02  0.12700000000E+01 0.  1.
         25    2    1    2    0    0  0.43734443950E+02 -0.35595486718E+02  0.37583450659E+02  0.14218951868E+03  0.12500241276E+03 0.  0.
    9000005    1    3    3    0    0 -0.23308303594E+01 -0.31960316614E+02  0.75745632813E+02  0.82251416392E+02  0.10000000000E+01 0.  0.
    9000005    1    3    3    0    0  0.46065274309E+02 -0.36351701041E+01 -0.38162182154E+02  0.59938102286E+02  0.10000000000E+01 0.  0.
         21    1    1    2  502  501 -0.43734443950E+02  0.35595486718E+02  0.10164348752E+01  0.56398345740E+02  0.00000000000E+00 0.  1.
<mgrwt>
<rscale>  1 0.13713258E+03</rscale>
<asrwt>0</asrwt>
<pdfrwt beam="2">  1        4 0.12306768E-01 0.13713258E+03</pdfrwt>
<pdfrwt beam="1">  1       -4 0.18245211E-01 0.13713258E+03</pdfrwt>
<totfact> 0.23300984E+03</totfact>
</mgrwt>
</event>
<event>
 6    4  0.2271823E-003  0.1368661E+03  0.7818608E-02  0.1217609E+00
          4   -1    0    0  502    0  0.00000000000E+00  0.00000000000E+00  0.33195142262E+03  0.33195385203E+03  0.12700000000E+01 0.  1.
         -4   -1    0    0    0  501 -0.00000000000E+00 -0.00000000000E+00 -0.33925725847E+02  0.33949488571E+02  0.12700000000E+01 0.  1.
         25    2    1    2    0    0  0.19910320716E+02  0.52069013313E+02  0.27176083306E+03  0.30427991905E+03  0.12499886292E+03 0.  0.
    9000005    1    3    3    0    0 -0.29020690509E+02  0.61737112763E+02  0.22776654459E+03  0.23776515810E+03  0.10000000000E+01 0.  0.
    9000005    1    3    3    0    0  0.48931011225E+02 -0.96680994498E+01  0.43994288467E+02  0.66514760950E+02  0.10000000000E+01 0.  0.
         21    1    1    2  502  501 -0.19910320716E+02 -0.52069013313E+02  0.26264863717E+02  0.61623421558E+02  0.00000000000E+00 0.  1.
<mgrwt>
<rscale>  1 0.13686606E+03</rscale>
<asrwt>0</asrwt>
<pdfrwt beam="1">  1        4 0.51071462E-01 0.13686606E+03</pdfrwt>
<pdfrwt beam="2">  1       -4 0.52213575E-02 0.13686606E+03</pdfrwt>
<totfact> 0.13658578E+03</totfact>
</mgrwt>
</event>
<event>
 6    4  0.2271823E-003  0.1281154E+03  0.7818608E-02  0.1230279E+00
          4   -1    0    0  502    0  0.00000000000E+00  0.00000000000E+00  0.14698445388E+02  0.14753209712E+02  0.12700000000E+01 0. -1.
         -4   -1    0    0    0  501 -0.00000000000E+00 -0.00000000000E+00 -0.48131858406E+03  0.48132025956E+03  0.12700000000E+01 0. -1.
         25    2    1    2    0    0 -0.55682023577E+01 -0.27522727789E+02 -0.43641777812E+03  0.45483407057E+03  0.12500019707E+03 0.  0.
    9000005    1    3    3    0    0  0.49999724422E+02 -0.47568648097E+02 -0.23179466913E+03  0.24185226350E+03  0.10000000000E+01 0.  0.
    9000005    1    3    3    0    0 -0.55567926780E+02  0.20045920308E+02 -0.20462310899E+03  0.21298180706E+03  0.10000000000E+01 0.  0.
         21    1    1    2  502  501  0.55682023577E+01  0.27522727789E+02 -0.30202360547E+02  0.41239398699E+02  0.00000000000E+00 0. -1.
<mgrwt>
<rscale>  1 0.12811540E+03</rscale>
<asrwt>0</asrwt>
<pdfrwt beam="1">  1        4 0.22656412E-02 0.12811540E+03</pdfrwt>
<pdfrwt beam="2">  1       -4 0.74053342E-01 0.12811540E+03</pdfrwt>
<totfact> 0.22931942E+03</totfact>
</mgrwt>
</event>
<event>
 6    4  0.2271823E-003  0.1313991E+03  0.7818608E-02  0.1225394E+00
         -4   -1    0    0    0  501 -0.00000000000E+00  0.00000000000E+00  0.15665920099E+02  0.15717313783E+02  0.12700000000E+01 0.  1.
          4   -1    0    0  502    0  0.00000000000E+00 -0.00000000000E+00 -0.48975810803E+03  0.48975975466E+03  0.12700000000E+01 0.  1.
         25    2    1    2    0    0 -0.30083422289E+02  0.27143598154E+02 -0.39999810834E+03  0.42102755779E+03  0.12499572206E+03 0.  0.
    9000005    1    3    3    0    0 -0.16175089673E+02  0.29660647700E+02 -0.17120749226E+02  0.37888093142E+02  0.10000000000E+01 0.  0.
    9000005    1    3    3    0    0 -0.13908332616E+02 -0.25170495457E+01 -0.38287735911E+03  0.38313946465E+03  0.10000000000E+01 0.  0.
         21    1    1    2  502  501  0.30083422289E+02 -0.27143598154E+02 -0.74094079600E+02  0.84449510650E+02  0.00000000000E+00 0.  1.
<mgrwt>
<rscale>  1 0.13139908E+03</rscale>
<asrwt>0</asrwt>
<pdfrwt beam="2">  1        4 0.75351470E-01 0.13139908E+03</pdfrwt>
<pdfrwt beam="1">  1       -4 0.24142219E-02 0.13139908E+03</pdfrwt>
<totfact> 0.20128867E+03</totfact>
</mgrwt>
</event>
<event>
 6    4  0.2271823E-003  0.1266771E+03  0.7818608E-02  0.1232471E+00
          4   -1    0    0  502    0  0.00000000000E+00  0.00000000000E+00  0.73473674254E+03  0.73473784014E+03  0.12700000000E+01 0. -1.
         -4   -1    0    0    0  501 -0.00000000000E+00 -0.00000000000E+00 -0.74019969787E+01  0.75101570737E+01  0.12700000000E+01 0. -1.
         25    2    1    2    0    0  0.19692718445E+01 -0.20453835930E+02  0.65006615656E+03  0.66229380857E+03  0.12499937412E+03 0.  0.
    9000005    1    3    3    0    0  0.30511454893E+02 -0.33516107347E+02  0.84815928359E+02  0.96171825577E+02  0.10000000000E+01 0.  0.
    9000005    1    3    3    0    0 -0.28542183048E+02  0.13062271417E+02  0.56525022820E+03  0.56612198299E+03  0.10000000000E+01 0.  0.
         21    1    1    2  502  501 -0.19692718445E+01  0.20453835930E+02  0.77268589002E+02  0.79954188647E+02  0.00000000000E+00 0. -1.
<mgrwt>
<rscale>  1 0.12667707E+03</rscale>
<asrwt>0</asrwt>
<pdfrwt beam="1">  1        4 0.11304476E+00 0.12667707E+03</pdfrwt>
<pdfrwt beam="2">  1       -4 0.11471739E-02 0.12667707E+03</pdfrwt>
<totfact> 0.24773708E+03</totfact>
</mgrwt>
</event>
<event>
 6    4  0.2271823E-003  0.1273110E+03  0.7818608E-02  0.1231501E+00
         -4   -1    0    0    0  501 -0.00000000000E+00  0.00000000000E+00  0.10449500164E+03  0.10450271895E+03  0.12700000000E+01 0. -1.
          4   -1    0    0  502    0  0.00000000000E+00 -0.00000000000E+00 -0.61704707992E+02  0.61717776114E+02  0.12700000000E+01 0. -1.
         25    2    1    2    0    0 -0.73596511058E+01 -0.23056633810E+02  0.13201015045E+02  0.12799356430E+03  0.12498925105E+03 0.  0.
    9000005    1    3    3    0    0 -0.15908215450E+02 -0.69775484300E+02 -0.14464369873E+02  0.73019911832E+02  0.10000000000E+01 0.  0.
    9000005    1    3    3    0    0  0.85485643444E+01  0.46718850490E+02  0.27665384918E+02  0.54973652472E+02  0.10000000000E+01 0.  0.
         21    1    1    2  502  501  0.73596511058E+01  0.23056633810E+02  0.29589278605E+02  0.38226930761E+02  0.00000000000E+00 0. -1.
<mgrwt>
<rscale>  1 0.12731098E+03</rscale>
<asrwt>0</asrwt>
<pdfrwt beam="2">  1        4 0.94946309E-02 0.12731098E+03</pdfrwt>
<pdfrwt beam="1">  1       -4 0.16077753E-01 0.12731098E+03</pdfrwt>
<totfact> 0.44441109E+03</totfact>
</mgrwt>
</event>
<event>
 6    4  0.2271823E-003  0.1300442E+03  0.7818608E-02  0.1227390E+00
          4   -1    0    0  502    0  0.00000000000E+00  0.00000000000E+00  0.45800449865E+02  0.45818054387E+02  0.12700000000E+01 0. -1.
         -4   -1    0    0    0  501 -0.00000000000E+00 -0.00000000000E+00 -0.15033963626E+03  0.15034500036E+03  0.12700000000E+01 0. -1.
         25    2    1    2    0    0 -0.35441402048E+02 -0.54866958554E+01 -0.79427333874E+02  0.15238175796E+03  0.12500120793E+03 0.  0.
    9000005    1    3    3    0    0  0.22571722842E+01 -0.22614891095E+02 -0.10248324712E+03  0.10497782654E+03  0.10000000000E+01 0.  0.
    9000005    1    3    3    0    0 -0.37698574333E+02  0.17128195239E+02  0.23055913241E+02  0.47403931422E+02  0.10000000000E+01 0.  0.
         21    1    1    2  502  501  0.35441402048E+02  0.54866958554E+01 -0.25111852525E+02  0.43781296781E+02  0.00000000000E+00 0. -1.
<mgrwt>
<rscale>  1 0.13004422E+03</rscale>
<asrwt>0</asrwt>
<pdfrwt beam="1">  1        4 0.70479899E-02 0.13004422E+03</pdfrwt>
<pdfrwt beam="2">  1       -4 0.23130941E-01 0.13004422E+03</pdfrwt>
<totfact> 0.38176790E+03</totfact>
</mgrwt>
</event>
<event>
 6    4  0.2271823E-003  0.1370763E+03  0.7818608E-02  0.1217318E+00
         -4   -1    0    0    0  501 -0.00000000000E+00  0.00000000000E+00  0.12874188402E+02  0.12936677588E+02  0.12700000000E+01 0.  1.
          4   -1    0    0  502    0  0.00000000000E+00 -0.00000000000E+00 -0.72646596423E+03  0.72646707433E+03  0.12700000000E+01 0.  1.
         25    2    1    2    0    0 -0.14480224915E+02  0.54361506881E+02 -0.52498654306E+03  0.54258712617E+03  0.12500027498E+03 0.  0.
    9000005    1    3    3    0    0  0.10682013983E+02  0.33038561708E+02 -0.28299678088E+02  0.44805398808E+02  0.10000000000E+01 0.  0.
    9000005    1    3    3    0    0 -0.25162238897E+02  0.21322945173E+02 -0.49668686497E+03  0.49778172736E+03  0.10000000000E+01 0.  0.
         21    1    1    2  502  501  0.14480224915E+02 -0.54361506881E+02 -0.18860523277E+03  0.19681662575E+03  0.00000000000E+00 0.  1.
<mgrwt>
<rscale>  1 0.13707633E+03</rscale>
<asrwt>0</asrwt>
<pdfrwt beam="2">  1        4 0.11176886E+00 0.13707633E+03</pdfrwt>
<pdfrwt beam="1">  1       -4 0.19855372E-02 0.13707633E+03</pdfrwt>
<totfact> 0.11219448E+03</totfact>
</mgrwt>
</event>
<event>
 6    4  0.2271823E-003  0.1269970E+03  0.7818608E-02  0.1231981E+00
         -4   -1    0    0    0  501 -0.00000000000E+00  0.00000000000E+00  0.46577553720E+02  0.46594864637E+02  0.12700000000E+01 0.  1.
          4   -1    0    0  502    0  0.00000000000E+00 -0.00000000000E+00 -0.12197357883E+03  0.12198019033E+03  0.12700000000E+01 0.  1.
         25    2    1    2    0    0  0.10602285071E+02  0.19771649901E+02 -0.55522661364E+02  0.13860378247E+03  0.12499966400E+03 0.  0.
    9000005    1    3    3    0    0  0.30425227260E+02 -0.11134880473E+02 -0.85343354664E+02  0.91291665568E+02  0.10000000000E+01 0.  0.
    9000005    1    3    3    0    0 -0.19822942189E+02  0.30906530374E+02  0.29820693299E+02  0.47312116901E+02  0.10000000000E+01 0.  0.
         21    1    1    2  502  501 -0.10602285071E+02 -0.19771649901E+02 -0.19873363750E+02  0.29971272500E+02  0.00000000000E+00 0.  1.
<mgrwt>
<rscale>  1 0.12699702E+03</rscale>
<asrwt>0</asrwt>
<pdfrwt beam="2">  1        4 0.18767006E-01 0.12699702E+03</pdfrwt>
<pdfrwt beam="1">  1       -4 0.71676177E-02 0.12699702E+03</pdfrwt>
<totfact> 0.53845865E+03</totfact>
</mgrwt>
</event>
<event>
 6    4  0.2271823E-003  0.1296251E+03  0.7818608E-02  0.1228013E+00
         -4   -1    0    0    0  501 -0.00000000000E+00  0.00000000000E+00  0.10059901615E+03  0.10060703231E+03  0.12700000000E+01 0. -1.
          4   -1    0    0  502    0  0.00000000000E+00 -0.00000000000E+00 -0.81049172531E+02  0.81059122053E+02  0.12700000000E+01 0. -1.
         25    2    1    2    0    0 -0.11569463249E+02  0.32244587219E+02 -0.17964115454E+02  0.13086395943E+03  0.12501640112E+03 0.  0.
    9000005    1    3    3    0    0 -0.10949606256E+02  0.14717244965E+02 -0.71863321846E+02  0.74174309590E+02  0.10000000000E+01 0.  0.
    9000005    1    3    3    0    0 -0.61985699301E+00  0.17527342255E+02  0.53899206392E+02  0.56689649839E+02  0.10000000000E+01 0.  0.
         21    1    1    2  502  501  0.11569463249E+02 -0.32244587219E+02  0.37513959072E+02  0.50802194933E+02  0.00000000000E+00 0. -1.
<mgrwt>
<rscale>  1 0.12962510E+03</rscale>
<asrwt>0</asrwt>
<pdfrwt beam="2">  1        4 0.12470485E-01 0.12962510E+03</pdfrwt>
<pdfrwt beam="1">  1       -4 0.15478154E-01 0.12962510E+03</pdfrwt>
<totfact> 0.30058871E+03</totfact>
</mgrwt>
</event>
<event>
 6    4  0.2271823E-003  0.1268671E+03  0.7818608E-02  0.1232180E+00
          4   -1    0    0  502    0  0.00000000000E+00  0.00000000000E+00  0.56636733690E+02  0.56650970893E+02  0.12700000000E+01 0.  1.
         -4   -1    0    0    0  501 -0.00000000000E+00 -0.00000000000E+00 -0.10463575155E+03  0.10464345848E+03  0.12700000000E+01 0.  1.
         25    2    1    2    0    0  0.32867508647E+01  0.21434643149E+02 -0.24303543511E+02  0.12917399720E+03  0.12500005067E+03 0.  0.
    9000005    1    3    3    0    0 -0.31463855030E+02  0.57904762994E+02 -0.39134336789E+02  0.76651367024E+02  0.10000000000E+01 0.  0.
    9000005    1    3    3    0    0  0.34750605895E+02 -0.36470119845E+02  0.14830793278E+02  0.52522630178E+02  0.10000000000E+01 0.  0.
         21    1    1    2  502  501 -0.32867508647E+01 -0.21434643149E+02 -0.23695474351E+02  0.32120432171E+02  0.00000000000E+00 0.  1.
<mgrwt>
<rscale>  1 0.12686709E+03</rscale>
<asrwt>0</asrwt>
<pdfrwt beam="1">  1        4 0.87150317E-02 0.12686709E+03</pdfrwt>
<pdfrwt beam="2">  1       -4 0.16099496E-01 0.12686709E+03</pdfrwt>
<totfact> 0.51111885E+03</totfact>
</mgrwt>
</event>
<event>
 6    4  0.2271823E-003  0.1664940E+03  0.7818608E-02  0.1181554E+00
         -4   -1    0    0    0  501 -0.00000000000E+00  0.00000000000E+00  0.16559601818E+02  0.16608230260E+02  0.12700000000E+01 0. -1.
          4   -1    0    0  502    0  0.00000000000E+00 -0.00000000000E+00 -0.12808264283E+04  0.12808270579E+04  0.12700000000E+01 0. -1.
         25    2    1    2    0    0 -0.23033931139E+02  0.10753880893E+03 -0.95003343980E+03  0.96451220591E+03  0.12500040481E+03 0.  0.
    9000005    1    3    3    0    0 -0.65673321698E+02  0.10347510797E+03 -0.65261346011E+03  0.66402214683E+03  0.10000000000E+01 0.  0.
    9000005    1    3    3    0    0  0.42639390559E+02  0.40637009576E+01 -0.29741997969E+03  0.30049005909E+03  0.10000000000E+01 0.  0.
         21    1    1    2  502  501  0.23033931139E+02 -0.10753880893E+03 -0.31423338666E+03  0.33292308226E+03  0.00000000000E+00 0. -1.
<mgrwt>
<rscale>  1 0.16649402E+03</rscale>
<asrwt>0</asrwt>
<pdfrwt beam="2">  1        4 0.19705393E+00 0.16649402E+03</pdfrwt>
<pdfrwt beam="1">  1       -4 0.25514211E-02 0.16649402E+03</pdfrwt>
<totfact> 0.18330586E+02</totfact>
</mgrwt>
</event>
<event>
 6    4  0.2271823E-003  0.1276477E+03  0.7818608E-02  0.1230988E+00
         -4   -1    0    0    0  501 -0.00000000000E+00  0.00000000000E+00  0.30030959086E+03  0.30031227625E+03  0.12700000000E+01 0. -1.
          4   -1    0    0  502    0  0.00000000000E+00 -0.00000000000E+00 -0.26942930009E+03  0.26943229325E+03  0.12700000000E+01 0. -1.
         25    2    1    2    0    0  0.23754102764E+01 -0.25744213075E+02 -0.25369442101E+03  0.28399787455E+03  0.12500210565E+03 0.  0.
    9000005    1    3    3    0    0  0.23430956029E+01  0.47618283489E+02 -0.58522080340E+02  0.75490561706E+02  0.10000000000E+01 0.  0.
    9000005    1    3    3    0    0  0.32314673520E-01 -0.73362496563E+02 -0.19517234067E+03  0.20850731284E+03  0.10000000000E+01 0.  0.
         21    1    1    2  502  501 -0.23754102764E+01  0.25744213075E+02  0.28457471179E+03  0.28574669494E+03  0.00000000000E+00 0. -1.
<mgrwt>
<rscale>  1 0.12764769E+03</rscale>
<asrwt>0</asrwt>
<pdfrwt beam="2">  1        4 0.41451098E-01 0.12764769E+03</pdfrwt>
<pdfrwt beam="1">  1       -4 0.46201912E-01 0.12764769E+03</pdfrwt>
<totfact> 0.43188059E+01</totfact>
</mgrwt>
</event>
<event>
 6    4  0.2271823E-003  0.1276618E+03  0.7818608E-02  0.1230967E+00
         -4   -1    0    0    0  501 -0.00000000000E+00  0.00000000000E+00  0.79269140695E+02  0.79279313610E+02  0.12700000000E+01 0.  1.
          4   -1    0    0  502    0  0.00000000000E+00 -0.00000000000E+00 -0.83866029141E+02  0.83875644522E+02  0.12700000000E+01 0.  1.
         25    2    1    2    0    0 -0.21009980947E+01  0.25858090584E+02 -0.25077756464E+02  0.13010165275E+03  0.12499796454E+03 0.  0.
    9000005    1    3    3    0    0 -0.51984698126E+01  0.10126789195E+02  0.51041872619E+02  0.52305341106E+02  0.10000000000E+01 0.  0.
    9000005    1    3    3    0    0  0.30974717178E+01  0.15731301390E+02 -0.76119629082E+02  0.77796311648E+02  0.10000000000E+01 0.  0.
         21    1    1    2  502  501  0.21009980947E+01 -0.25858090584E+02  0.20480868017E+02  0.33053305378E+02  0.00000000000E+00 0.  1.
<mgrwt>
<rscale>  1 0.12766184E+03</rscale>
<asrwt>0</asrwt>
<pdfrwt beam="2">  1        4 0.12903988E-01 0.12766184E+03</pdfrwt>
<pdfrwt beam="1">  1       -4 0.12196775E-01 0.12766184E+03</pdfrwt>
<totfact> 0.42644516E+03</totfact>
</mgrwt>
</event>
<event>
 6    4  0.2271823E-003  0.1269835E+03  0.7818608E-02  0.1232002E+00
         -4   -1    0    0    0  501 -0.00000000000E+00  0.00000000000E+00  0.41386556353E+02  0.41406037564E+02  0.12700000000E+01 0.  1.
          4   -1    0    0  502    0  0.00000000000E+00 -0.00000000000E+00 -0.21022300717E+03  0.21022684330E+03  0.12700000000E+01 0.  1.
         25    2    1    2    0    0 -0.16700925682E+02 -0.14837076420E+02 -0.18476651742E+03  0.22419519186E+03  0.12500303332E+03 0.  0.
    9000005    1    3    3    0    0 -0.50919144206E+02 -0.48713443291E+02 -0.68200622505E+02  0.98071829360E+02  0.10000000000E+01 0.  0.
    9000005    1    3    3    0    0  0.34218218525E+02  0.33876366871E+02 -0.11656589492E+03  0.12612336251E+03  0.10000000000E+01 0.  0.
         21    1    1    2  502  501  0.16700925682E+02  0.14837076420E+02  0.15930066608E+02  0.27437688996E+02  0.00000000000E+00 0.  1.
<mgrwt>
<rscale>  1 0.12698353E+03</rscale>
<asrwt>0</asrwt>
<pdfrwt beam="2">  1        4 0.32343794E-01 0.12698353E+03</pdfrwt>
<pdfrwt beam="1">  1       -4 0.63689563E-02 0.12698353E+03</pdfrwt>
<totfact> 0.23966604E+03</totfact>
</mgrwt>
</event>
<event>
 6    4  0.2271823E-003  0.1304779E+03  0.7818608E-02  0.1226748E+00
         -4   -1    0    0    0  501 -0.00000000000E+00  0.00000000000E+00  0.23018588894E+04  0.23018592398E+04  0.12700000000E+01 0.  1.
          4   -1    0    0  502    0  0.00000000000E+00 -0.00000000000E+00 -0.63008316583E+01  0.64275484896E+01  0.12700000000E+01 0.  1.
         25    2    1    2    0    0  0.36716075029E+02  0.63583205484E+01  0.68604711528E+03  0.69834456185E+03  0.12504392937E+03 0.  0.
    9000005    1    3    3    0    0  0.27892855898E+02 -0.52268784657E+02  0.19707165522E+03  0.20578696399E+03  0.10000000000E+01 0.  0.
    9000005    1    3    3    0    0  0.88232191315E+01  0.58627105206E+02  0.48897546007E+03  0.49255759786E+03  0.10000000000E+01 0.  0.
         21    1    1    2  502  501 -0.36716075029E+02 -0.63583205484E+01  0.16095109425E+04  0.16099422264E+04  0.00000000000E+00 0.  1.
<mgrwt>
<rscale>  1 0.13047790E+03</rscale>
<asrwt>0</asrwt>
<pdfrwt beam="2">  1        4 0.97913269E-03 0.13047790E+03</pdfrwt>
<pdfrwt beam="1">  1       -4 0.35414206E+00 0.13047790E+03</pdfrwt>
<totfact> 0.91210611E+01</totfact>
</mgrwt>
</event>
<event>
 6    4  0.2271823E-003  0.1276177E+03  0.7818608E-02  0.1231034E+00
         -4   -1    0    0    0  501 -0.00000000000E+00  0.00000000000E+00  0.98789351304E+02  0.98797514296E+02  0.12700000000E+01 0. -1.
          4   -1    0    0  502    0  0.00000000000E+00 -0.00000000000E+00 -0.91638109934E+02  0.91646909890E+02  0.12700000000E+01 0. -1.
         25    2    1    2    0    0 -0.58894119323E+01 -0.25077327483E+02 -0.42500242581E+02  0.13450850205E+03  0.12499083558E+03 0.  0.
    9000005    1    3    3    0    0  0.21215369857E+02 -0.14234917753E+02  0.39728972018E+02  0.47245275099E+02  0.10000000000E+01 0.  0.
    9000005    1    3    3    0    0 -0.27104781790E+02 -0.10842409729E+02 -0.82229214598E+02  0.87263226952E+02  0.10000000000E+01 0.  0.
         21    1    1    2  502  501  0.58894119323E+01  0.25077327483E+02  0.49651483950E+02  0.55935922134E+02  0.00000000000E+00 0. -1.
<mgrwt>
<rscale>  1 0.12761766E+03</rscale>
<asrwt>0</asrwt>
<pdfrwt beam="2">  1        4 0.14099476E-01 0.12761766E+03</pdfrwt>
<pdfrwt beam="1">  1       -4 0.15199667E-01 0.12761766E+03</pdfrwt>
<totfact> 0.25015508E+03</totfact>
</mgrwt>
</event>
<event>
 6    4  0.2271823E-003  0.1882675E+03  0.7818608E-02  0.1160033E+00
          4   -1    0    0  502    0  0.00000000000E+00  0.00000000000E+00  0.30105234113E+03  0.30105501989E+03  0.12700000000E+01 0.  1.
         -4   -1    0    0    0  501 -0.00000000000E+00 -0.00000000000E+00 -0.93477867524E+02  0.93486494301E+02  0.12700000000E+01 0.  1.
         25    2    1    2    0    0 -0.10171069125E+03 -0.97339113726E+02  0.80019691696E+02  0.20456733130E+03  0.12499869679E+03 0.  0.
    9000005    1    3    3    0    0 -0.50905067588E+02  0.23501378575E+02  0.14034197837E+02  0.57806568918E+02  0.10000000000E+01 0.  0.
    9000005    1    3    3    0    0 -0.50805623666E+02 -0.12084049230E+03  0.65985493859E+02  0.14676076238E+03  0.10000000000E+01 0.  0.
         21    1    1    2  502  501  0.10171069125E+03  0.97339113726E+02  0.12755478191E+03  0.18997418289E+03  0.00000000000E+00 0.  1.
<mgrwt>
<rscale>  1 0.18826747E+03</rscale>
<asrwt>0</asrwt>
<pdfrwt beam="1">  1        4 0.46316613E-01 0.18826747E+03</pdfrwt>
<pdfrwt beam="2">  1       -4 0.14382081E-01 0.18826747E+03</pdfrwt>
<totfact> 0.32412114E+02</totfact>
</mgrwt>
</event>
<event>
 6    4  0.2271823E-003  0.1280597E+03  0.7818608E-02  0.1230363E+00
          4   -1    0    0  502    0  0.00000000000E+00  0.00000000000E+00  0.64484221065E+02  0.64496726013E+02  0.12700000000E+01 0.  1.
         -4   -1    0    0    0  501 -0.00000000000E+00 -0.00000000000E+00 -0.12107302809E+03  0.12107968877E+03  0.12700000000E+01 0.  1.
         25    2    1    2    0    0  0.14843430607E+02 -0.23539401508E+02 -0.64374186712E+01  0.12822144455E+03  0.12499947051E+03 0.  0.
    9000005    1    3    3    0    0  0.64850542962E+02  0.69524835136E+01 -0.19739986097E+02  0.68151280257E+02  0.10000000000E+01 0.  0.
    9000005    1    3    3    0    0 -0.50007112355E+02 -0.30491885022E+02  0.13302567426E+02  0.60070164295E+02  0.10000000000E+01 0.  0.
         21    1    1    2  502  501 -0.14843430607E+02  0.23539401508E+02 -0.50151388358E+02  0.57354970228E+02  0.00000000000E+00 0.  1.
<mgrwt>
<rscale>  1 0.12805975E+03</rscale>
<asrwt>0</asrwt>
<pdfrwt beam="1">  1        4 0.99221237E-02 0.12805975E+03</pdfrwt>
<pdfrwt beam="2">  1       -4 0.18628094E-01 0.12805975E+03</pdfrwt>
<totfact> 0.31856680E+03</totfact>
</mgrwt>
</event>
<event>
 6    4  0.2271823E-003  0.1280965E+03  0.7818608E-02  0.1230308E+00
          4   -1    0    0  502    0  0.00000000000E+00  0.00000000000E+00  0.69703232561E+02  0.69714801365E+02  0.12700000000E+01 0.  1.
         -4   -1    0    0    0  501 -0.00000000000E+00 -0.00000000000E+00 -0.10968690904E+03  0.10969426108E+03  0.12700000000E+01 0.  1.
         25    2    1    2    0    0 -0.11353452264E+02 -0.25592319641E+02  0.29763716805E+01  0.12813106092E+03  0.12499936912E+03 0.  0.
    9000005    1    3    3    0    0 -0.28283890868E+02 -0.16912643726E+02 -0.56644050773E+02  0.65540556058E+02  0.10000000000E+01 0.  0.
    9000005    1    3    3    0    0  0.16930438604E+02 -0.86796759147E+01  0.59620422453E+02  0.62590504861E+02  0.10000000000E+01 0.  0.
         21    1    1    2  502  501  0.11353452264E+02  0.25592319641E+02 -0.42960048155E+02  0.51278001525E+02  0.00000000000E+00 0.  1.
<mgrwt>
<rscale>  1 0.12809649E+03</rscale>
<asrwt>0</asrwt>
<pdfrwt beam="1">  1        4 0.10725030E-01 0.12809649E+03</pdfrwt>
<pdfrwt beam="2">  1       -4 0.16876365E-01 0.12809649E+03</pdfrwt>
<totfact> 0.33286892E+03</totfact>
</mgrwt>
</event>
<event>
 6    4  0.2271823E-003  0.1301497E+03  0.7818608E-02  0.1227234E+00
          4   -1    0    0  502    0  0.00000000000E+00  0.00000000000E+00  0.81653242428E+02  0.81663118353E+02  0.12700000000E+01 0.  1.
         -4   -1    0    0    0  501 -0.00000000000E+00 -0.00000000000E+00 -0.98227345028E+02  0.98235554720E+02  0.12700000000E+01 0.  1.
         25    2    1    2    0    0  0.18241313269E+02 -0.31336975795E+02  0.16033849774E+02  0.13113362289E+03  0.12499676456E+03 0.  0.
    9000005    1    3    3    0    0  0.50773030846E+02 -0.18323255624E+02 -0.38497899121E+02  0.66307847158E+02  0.10000000000E+01 0.  0.
    9000005    1    3    3    0    0 -0.32531717577E+02 -0.13013720171E+02  0.54531748895E+02  0.64825775728E+02  0.10000000000E+01 0.  0.
         21    1    1    2  502  501 -0.18241313269E+02  0.31336975795E+02 -0.32607952373E+02  0.48765050187E+02  0.00000000000E+00 0.  1.
<mgrwt>
<rscale>  1 0.13014969E+03</rscale>
<asrwt>0</asrwt>
<pdfrwt beam="1">  1        4 0.12563428E-01 0.13014969E+03</pdfrwt>
<pdfrwt beam="2">  1       -4 0.15113290E-01 0.13014969E+03</pdfrwt>
<totfact> 0.30972122E+03</totfact>
</mgrwt>
</event>
<event>
 6    4  0.2271823E-003  0.1271802E+03  0.7818608E-02  0.1231701E+00
         -4   -1    0    0    0  501 -0.00000000000E+00  0.00000000000E+00  0.11649634973E+04  0.11649641895E+04  0.12700000000E+01 0. -1.
          4   -1    0    0  502    0  0.00000000000E+00 -0.00000000000E+00 -0.62381568080E+02  0.62394494437E+02  0.12700000000E+01 0. -1.
         25    2    1    2    0    0  0.22536329161E+01 -0.23367551752E+02  0.26822518053E+01  0.12720850255E+03  0.12499474913E+03 0.  0.
    9000005    1    3    3    0    0  0.23152841425E+01  0.14782270185E+02 -0.55575904762E+02  0.57563506170E+02  0.10000000000E+01 0.  0.
    9000005    1    3    3    0    0 -0.61651226434E-01 -0.38149821936E+02  0.58258156568E+02  0.69644996384E+02  0.10000000000E+01 0.  0.
         21    1    1    2  502  501 -0.22536329161E+01  0.23367551752E+02  0.10998996774E+04  0.11001501814E+04  0.00000000000E+00 0. -1.
<mgrwt>
<rscale>  1 0.12718022E+03</rscale>
<asrwt>0</asrwt>
<pdfrwt beam="2">  1        4 0.95982126E-02 0.12718022E+03</pdfrwt>
<pdfrwt beam="1">  1       -4 0.17922619E+00 0.12718022E+03</pdfrwt>
<totfact> 0.27188054E+01</totfact>
</mgrwt>
</event>
<event>
 6    4  0.2271823E-003  0.1274814E+03  0.7818608E-02  0.1231241E+00
         -4   -1    0    0    0  501 -0.00000000000E+00  0.00000000000E+00  0.21627645471E+04  0.21627649200E+04  0.12700000000E+01 0. -1.
          4   -1    0    0  502    0  0.00000000000E+00 -0.00000000000E+00 -0.32293293617E+01  0.34700818616E+01  0.12700000000E+01 0. -1.
         25    2    1    2    0    0 -0.77813265010E+01  0.23785785469E+02  0.12775208457E+04  0.12838656545E+04  0.12500077996E+03 0.  0.
    9000005    1    3    3    0    0 -0.66476678362E+02  0.11764498621E+02  0.66030309665E+03  0.66374598427E+03  0.10000000000E+01 0.  0.
    9000005    1    3    3    0    0  0.58695351861E+02  0.12021286848E+02  0.61721774900E+03  0.62011967019E+03  0.10000000000E+01 0.  0.
         21    1    1    2  502  501  0.77813265010E+01 -0.23785785469E+02  0.88201437212E+03  0.88236934742E+03  0.00000000000E+00 0. -1.
<mgrwt>
<rscale>  1 0.12748140E+03</rscale>
<asrwt>0</asrwt>
<pdfrwt beam="2">  1        4 0.51536855E-03 0.12748140E+03</pdfrwt>
<pdfrwt beam="1">  1       -4 0.33275121E+00 0.12748140E+03</pdfrwt>
<totfact> 0.31849391E+02</totfact>
</mgrwt>
</event>
<event>
 6    4  0.2271823E-003  0.1286032E+03  0.7818608E-02  0.1229543E+00
         -4   -1    0    0    0  501 -0.00000000000E+00  0.00000000000E+00  0.81206598348E+03  0.81206697657E+03  0.12700000000E+01 0.  1.
          4   -1    0    0  502    0  0.00000000000E+00 -0.00000000000E+00 -0.78330313068E+01  0.79353184847E+01  0.12700000000E+01 0.  1.
         25    2    1    2    0    0  0.22967075871E+02 -0.19653179855E+02  0.68711286454E+03  0.69904424869E+03  0.12500015581E+03 0.  0.
    9000005    1    3    3    0    0  0.35253222746E+02 -0.42872150531E+02  0.13057692703E+03  0.14188778974E+03  0.10000000000E+01 0.  0.
    9000005    1    3    3    0    0 -0.12286146874E+02  0.23218970676E+02  0.55653593751E+03  0.55715645895E+03  0.10000000000E+01 0.  0.
         21    1    1    2  502  501 -0.22967075871E+02  0.19653179855E+02  0.11712008763E+03  0.12095804636E+03  0.00000000000E+00 0.  1.
<mgrwt>
<rscale>  1 0.12860316E+03</rscale>
<asrwt>0</asrwt>
<pdfrwt beam="2">  1        4 0.12130268E-02 0.12860316E+03</pdfrwt>
<pdfrwt beam="1">  1       -4 0.12494113E+00 0.12860316E+03</pdfrwt>
<totfact> 0.17982975E+03</totfact>
</mgrwt>
</event>
<event>
 6    4  0.2271823E-003  0.1314247E+03  0.7818608E-02  0.1225357E+00
         -4   -1    0    0    0  501 -0.00000000000E+00  0.00000000000E+00  0.17317211429E+03  0.17317677116E+03  0.12700000000E+01 0. -1.
          4   -1    0    0  502    0  0.00000000000E+00 -0.00000000000E+00 -0.11779523241E+03  0.11780207842E+03  0.12700000000E+01 0. -1.
         25    2    1    2    0    0  0.34308484013E+02 -0.21694201906E+02 -0.77135403379E+02  0.15238874814E+03  0.12499899853E+03 0.  0.
    9000005    1    3    3    0    0  0.71819275106E+02  0.20669049196E+02 -0.46702021464E+02  0.88132268099E+02  0.10000000000E+01 0.  0.
    9000005    1    3    3    0    0 -0.37510791093E+02 -0.42363251102E+02 -0.30433381914E+02  0.64256480040E+02  0.10000000000E+01 0.  0.
         21    1    1    2  502  501 -0.34308484013E+02  0.21694201906E+02  0.13251228526E+03  0.13859010144E+03  0.00000000000E+00 0. -1.
<mgrwt>
<rscale>  1 0.13142473E+03</rscale>
<asrwt>0</asrwt>
<pdfrwt beam="2">  1        4 0.18123228E-01 0.13142473E+03</pdfrwt>
<pdfrwt beam="1">  1       -4 0.26642748E-01 0.13142473E+03</pdfrwt>
<totfact> 0.59015042E+02</totfact>
</mgrwt>
</event>
<event>
 6    4  0.2271823E-003  0.1276338E+03  0.7818608E-02  0.1231010E+00
          4   -1    0    0  502    0  0.00000000000E+00  0.00000000000E+00  0.52438673491E+02  0.52454050154E+02  0.12700000000E+01 0. -1.
         -4   -1    0    0    0  501 -0.00000000000E+00 -0.00000000000E+00 -0.11311939390E+03  0.11312652287E+03  0.12700000000E+01 0. -1.
         25    2    1    2    0    0 -0.25747192400E+02  0.41068842907E+00 -0.44502765233E+02  0.13516983783E+03  0.12500920912E+03 0.  0.
    9000005    1    3    3    0    0 -0.59806310039E+02 -0.49005848669E+01 -0.70056875405E+02  0.92248448464E+02  0.10000000000E+01 0.  0.
    9000005    1    3    3    0    0  0.34059117638E+02  0.53112732960E+01  0.25554110172E+02  0.42921389365E+02  0.10000000000E+01 0.  0.
         21    1    1    2  502  501  0.25747192400E+02 -0.41068842907E+00 -0.16177955181E+02  0.30410735199E+02  0.00000000000E+00 0.  1.
<mgrwt>
<rscale>  1 0.12763381E+03</rscale>
<asrwt>0</asrwt>
<pdfrwt beam="1">  1        4 0.80692195E-02 0.12763381E+03</pdfrwt>
<pdfrwt beam="2">  1       -4 0.17404715E-01 0.12763381E+03</pdfrwt>
<totfact> 0.50700901E+03</totfact>
</mgrwt>
</event>
<event>
 6    4  0.2271823E-003  0.1303824E+03  0.7818608E-02  0.1226889E+00
         -4   -1    0    0    0  501 -0.00000000000E+00  0.00000000000E+00  0.10548889856E+03  0.10549654316E+03  0.12700000000E+01 0.  1.
          4   -1    0    0  502    0  0.00000000000E+00 -0.00000000000E+00 -0.22465102000E+03  0.22465460976E+03  0.12700000000E+01 0.  1.
         25    2    1    2    0    0 -0.32920451180E+02 -0.17006641133E+02 -0.20141783621E+03  0.23993483200E+03  0.12500638750E+03 0.  0.
    9000005    1    3    3    0    0 -0.18926811594E+02 -0.71104338729E+02 -0.10028111823E+03  0.12438389709E+03  0.10000000000E+01 0.  0.
    9000005    1    3    3    0    0 -0.13993639587E+02  0.54097697595E+02 -0.10113671798E+03  0.11555093491E+03  0.10000000000E+01 0.  0.
         21    1    1    2  502  501  0.32920451180E+02  0.17006641133E+02  0.82255714766E+02  0.90216320919E+02  0.00000000000E+00 0.  1.
<mgrwt>
<rscale>  1 0.13038243E+03</rscale>
<asrwt>0</asrwt>
<pdfrwt beam="2">  1        4 0.34562560E-01 0.13038243E+03</pdfrwt>
<pdfrwt beam="1">  1       -4 0.16229926E-01 0.13038243E+03</pdfrwt>
<totfact> 0.43769851E+02</totfact>
</mgrwt>
</event>
<event>
 6    4  0.2271823E-003  0.1268681E+03  0.7818608E-02  0.1232178E+00
          4   -1    0    0  502    0  0.00000000000E+00  0.00000000000E+00  0.12382626485E+02  0.12447583648E+02  0.12700000000E+01 0. -1.
         -4   -1    0    0    0  501 -0.00000000000E+00 -0.00000000000E+00 -0.52174447940E+03  0.52174602508E+03  0.12700000000E+01 0. -1.
         25    2    1    2    0    0  0.18508964669E+02 -0.11412687402E+02 -0.33048263395E+03  0.35399758717E+03  0.12499075635E+03 0.  0.
    9000005    1    3    3    0    0 -0.33454378962E+01  0.26286390540E+02 -0.67755978049E+01  0.27369234698E+02  0.10000000000E+01 0.  0.
    9000005    1    3    3    0    0  0.21854402565E+02 -0.37699077942E+02 -0.32370703615E+03  0.32662835247E+03  0.10000000000E+01 0.  0.
         21    1    1    2  502  501 -0.18508964669E+02  0.11412687402E+02 -0.17887921897E+03  0.18019602156E+03  0.00000000000E+00 0.  1.
<mgrwt>
<rscale>  1 0.12686812E+03</rscale>
<asrwt>0</asrwt>
<pdfrwt beam="1">  1        4 0.19101355E-02 0.12686812E+03</pdfrwt>
<pdfrwt beam="2">  1       -4 0.80273480E-01 0.12686812E+03</pdfrwt>
<totfact> 0.24937222E+03</totfact>
</mgrwt>
</event>
<event>
 6    4  0.2271823E-003  0.1372528E+03  0.7818608E-02  0.1217074E+00
         -4   -1    0    0    0  501 -0.00000000000E+00  0.00000000000E+00  0.67725289849E+03  0.67725408925E+03  0.12700000000E+01 0.  1.
          4   -1    0    0  502    0  0.00000000000E+00 -0.00000000000E+00 -0.55303043593E+02  0.55317624051E+02  0.12700000000E+01 0.  1.
         25    2    1    2    0    0 -0.29848301207E+02 -0.48194735681E+02  0.33347638204E+02  0.14124589523E+03  0.12499873724E+03 0.  0.
    9000005    1    3    3    0    0 -0.53505125039E+02  0.10230491564E+02 -0.20624974136E+02  0.58256767171E+02  0.10000000000E+01 0.  0.
    9000005    1    3    3    0    0  0.23656823833E+02 -0.58425227246E+02  0.53972612340E+02  0.82989128055E+02  0.10000000000E+01 0.  0.
         21    1    1    2  502  501  0.29848301207E+02  0.48194735681E+02  0.58860221669E+03  0.59132581808E+03  0.00000000000E+00 0.  1.
<mgrwt>
<rscale>  1 0.13725282E+03</rscale>
<asrwt>0</asrwt>
<pdfrwt beam="2">  1        4 0.85093743E-02 0.13725282E+03</pdfrwt>
<pdfrwt beam="1">  1       -4 0.10419396E+00 0.13725282E+03</pdfrwt>
<totfact> 0.12995304E+02</totfact>
</mgrwt>
</event>
<event>
 6    4  0.2271823E-003  0.1305701E+03  0.7818608E-02  0.1226612E+00
          4   -1    0    0  502    0  0.00000000000E+00  0.00000000000E+00  0.41192529670E+03  0.41192725445E+03  0.12700000000E+01 0. -1.
         -4   -1    0    0    0  501 -0.00000000000E+00 -0.00000000000E+00 -0.17666732582E+02  0.17712321703E+02  0.12700000000E+01 0. -1.
         25    2    1    2    0    0  0.34213187577E+02 -0.15907324394E+02  0.33312772319E+03  0.35780250434E+03  0.12499986795E+03 0.  0.
    9000005    1    3    3    0    0  0.47527927396E+02  0.30985124386E+02  0.28000484232E+03  0.28569685602E+03  0.10000000000E+01 0.  0.
    9000005    1    3    3    0    0 -0.13314739819E+02 -0.46892448780E+02  0.53122880865E+02  0.72105648325E+02  0.10000000000E+01 0.  0.
         21    1    1    2  502  501 -0.34213187577E+02  0.15907324394E+02  0.61130840934E+02  0.71837071814E+02  0.00000000000E+00 0.  1.
<mgrwt>
<rscale>  1 0.13057010E+03</rscale>
<asrwt>0</asrwt>
<pdfrwt beam="1">  1        4 0.63376780E-01 0.13057010E+03</pdfrwt>
<pdfrwt beam="2">  1       -4 0.27216163E-02 0.13057010E+03</pdfrwt>
<totfact> 0.24207478E+03</totfact>
</mgrwt>
</event>
<event>
 6    4  0.2271823E-003  0.1352841E+03  0.7818608E-02  0.1219819E+00
          4   -1    0    0  502    0  0.00000000000E+00  0.00000000000E+00  0.95933304771E+02  0.95941710763E+02  0.12700000000E+01 0. -1.
         -4   -1    0    0    0  501 -0.00000000000E+00 -0.00000000000E+00 -0.18218654000E+03  0.18219096646E+03  0.12700000000E+01 0. -1.
         25    2    1    2    0    0  0.50826980639E+02 -0.96769485887E+01  0.40508097523E+02  0.14121861375E+03  0.12499906243E+03 0.  0.
    9000005    1    3    3    0    0 -0.40592737396E+02  0.68397431101E+01  0.39008897618E+01  0.41361447702E+02  0.10000000000E+01 0.  0.
    9000005    1    3    3    0    0  0.91419718035E+02 -0.16516691699E+02  0.36607207761E+02  0.99857166044E+02  0.10000000000E+01 0.  0.
         21    1    1    2  502  501 -0.50826980639E+02  0.96769485887E+01 -0.12676133276E+03  0.13691406347E+03  0.00000000000E+00 0. -1.
<mgrwt>
<rscale>  1 0.13528411E+03</rscale>
<asrwt>0</asrwt>
<pdfrwt beam="1">  1        4 0.14759957E-01 0.13528411E+03</pdfrwt>
<pdfrwt beam="2">  1       -4 0.28029685E-01 0.13528411E+03</pdfrwt>
<totfact> 0.77498871E+02</totfact>
</mgrwt>
</event>
<event>
 6    4  0.2271823E-003  0.1289746E+03  0.7818608E-02  0.1228985E+00
         -4   -1    0    0    0  501 -0.00000000000E+00  0.00000000000E+00  0.17737407256E+03  0.17737861911E+03  0.12700000000E+01 0. -1.
          4   -1    0    0  502    0  0.00000000000E+00 -0.00000000000E+00 -0.15620649997E+03  0.15621166260E+03  0.12700000000E+01 0. -1.
         25    2    1    2    0    0 -0.51026633434E+01  0.31347603761E+02 -0.12762498374E+03  0.18144582977E+03  0.12500297289E+03 0.  0.
    9000005    1    3    3    0    0  0.27945754425E+02 -0.39171269300E+02 -0.30621431113E+02  0.57044066934E+02  0.10000000000E+01 0.  0.
    9000005    1    3    3    0    0 -0.33048417768E+02  0.70518873061E+02 -0.97003552630E+02  0.12440176284E+03  0.10000000000E+01 0.  0.
         21    1    1    2  502  501  0.51026633434E+01 -0.31347603761E+02  0.14879255634E+03  0.15214445194E+03  0.00000000000E+00 0. -1.
<mgrwt>
<rscale>  1 0.12897462E+03</rscale>
<asrwt>0</asrwt>
<pdfrwt beam="2">  1        4 0.24032516E-01 0.12897462E+03</pdfrwt>
<pdfrwt beam="1">  1       -4 0.27289066E-01 0.12897462E+03</pdfrwt>
<totfact> 0.33772157E+02</totfact>
</mgrwt>
</event>
<event>
 6    4  0.2271823E-003  0.1271452E+03  0.7818608E-02  0.1231754E+00
         -4   -1    0    0    0  501 -0.00000000000E+00  0.00000000000E+00  0.14906394096E+04  0.14906399506E+04  0.12700000000E+01 0.  1.
          4   -1    0    0  502    0  0.00000000000E+00 -0.00000000000E+00 -0.37964467755E+01  0.40032372050E+01  0.12700000000E+01 0.  1.
         25    2    1    2    0    0 -0.22583149577E+02  0.55888029024E+01  0.11526083891E+04  0.11595999315E+04  0.12499867612E+03 0.  0.
    9000005    1    3    3    0    0 -0.42917550701E+02  0.47431580399E+01  0.13401642753E+03  0.14080417804E+03  0.10000000000E+01 0.  0.
    9000005    1    3    3    0    0  0.20334401125E+02  0.84564486253E+00  0.10185919616E+04  0.10187957534E+04  0.10000000000E+01 0.  0.
         21    1    1    2  502  501  0.22583149577E+02 -0.55888029024E+01  0.33423457368E+03  0.33504325632E+03  0.00000000000E+00 0.  1.
<mgrwt>
<rscale>  1 0.12714520E+03</rscale>
<asrwt>0</asrwt>
<pdfrwt beam="2">  1        4 0.60001687E-03 0.12714520E+03</pdfrwt>
<pdfrwt beam="1">  1       -4 0.22934526E+00 0.12714520E+03</pdfrwt>
<totfact> 0.10075208E+03</totfact>
</mgrwt>
</event>
<event>
 6    4  0.2271823E-003  0.1313561E+03  0.7818608E-02  0.1225457E+00
          4   -1    0    0  502    0  0.00000000000E+00  0.00000000000E+00  0.64758286346E+01  0.65991860486E+01  0.12700000000E+01 0. -1.
         -4   -1    0    0    0  501 -0.00000000000E+00 -0.00000000000E+00 -0.12998943095E+04  0.12998949299E+04  0.12700000000E+01 0. -1.
         25    2    1    2    0    0 -0.55941226802E+00  0.40362338174E+02 -0.73707739545E+03  0.74869053527E+03  0.12499999778E+03 0.  0.
    9000005    1    3    3    0    0  0.43384602212E+02  0.50460660826E+02 -0.61424359111E+03  0.61783872590E+03  0.10000000000E+01 0.  0.
    9000005    1    3    3    0    0 -0.43944014480E+02 -0.10098322653E+02 -0.12283380434E+03  0.13085180938E+03  0.10000000000E+01 0.  0.
         21    1    1    2  502  501  0.55941226802E+00 -0.40362338174E+02 -0.55634108547E+03  0.55780358072E+03  0.00000000000E+00 0. -1.
<mgrwt>
<rscale>  1 0.13135612E+03</rscale>
<asrwt>0</asrwt>
<pdfrwt beam="1">  1        4 0.10058191E-02 0.13135612E+03</pdfrwt>
<pdfrwt beam="2">  1       -4 0.19999307E+00 0.13135612E+03</pdfrwt>
<totfact> 0.70355833E+02</totfact>
</mgrwt>
</event>
<event>
 6    4  0.2271823E-003  0.1266553E+03  0.7818608E-02  0.1232505E+00
          4   -1    0    0  502    0  0.00000000000E+00  0.00000000000E+00  0.14447347508E+02  0.14503060022E+02  0.12700000000E+01 0. -1.
         -4   -1    0    0    0  501 -0.00000000000E+00 -0.00000000000E+00 -0.38857010261E+03  0.38857217804E+03  0.12700000000E+01 0. -1.
         25    2    1    2    0    0 -0.75378183583E+01  0.18937551980E+02 -0.28880914301E+03  0.31536057572E+03  0.12500448813E+03 0.  0.
    9000005    1    3    3    0    0  0.70978931356E+01  0.68500274841E+02 -0.21092711528E+03  0.22188716885E+03  0.10000000000E+01 0.  0.
    9000005    1    3    3    0    0 -0.14635711494E+02 -0.49562722862E+02 -0.77882027732E+02  0.93473406871E+02  0.10000000000E+01 0.  0.
         21    1    1    2  502  501  0.75378183583E+01 -0.18937551980E+02 -0.85313612094E+02  0.87714662339E+02  0.00000000000E+00 0. -1.
<mgrwt>
<rscale>  1 0.12665533E+03</rscale>
<asrwt>0</asrwt>
<pdfrwt beam="1">  1        4 0.22271144E-02 0.12665533E+03</pdfrwt>
<pdfrwt beam="2">  1       -4 0.59784453E-01 0.12665533E+03</pdfrwt>
<totfact> 0.37090848E+03</totfact>
</mgrwt>
</event>
<event>
 6    4  0.2271823E-003  0.1309500E+03  0.7818608E-02  0.1226053E+00
         -4   -1    0    0    0  501 -0.00000000000E+00  0.00000000000E+00  0.47538961610E+02  0.47555922564E+02  0.12700000000E+01 0. -1.
          4   -1    0    0  502    0  0.00000000000E+00 -0.00000000000E+00 -0.15879271034E+03  0.15879778889E+03  0.12700000000E+01 0. -1.
         25    2    1    2    0    0 -0.38307456893E+02  0.74608976641E+01 -0.10265370187E+03  0.16639013988E+03  0.12499907957E+03 0.  0.
    9000005    1    3    3    0    0  0.85334063514E+01  0.52416376688E+02 -0.83015987341E+02  0.98554298350E+02  0.10000000000E+01 0.  0.
    9000005    1    3    3    0    0 -0.46840863244E+02 -0.44955479024E+02 -0.19637714534E+02  0.67835841528E+02  0.10000000000E+01 0.  0.
         21    1    1    2  502  501  0.38307456893E+02 -0.74608976641E+01 -0.86000468566E+01  0.39963571580E+02  0.00000000000E+00 0. -1.
<mgrwt>
<rscale>  1 0.13094998E+03</rscale>
<asrwt>0</asrwt>
<pdfrwt beam="2">  1        4 0.24431343E-01 0.13094998E+03</pdfrwt>
<pdfrwt beam="1">  1       -4 0.73153818E-02 0.13094998E+03</pdfrwt>
<totfact> 0.32539608E+03</totfact>
</mgrwt>
</event>
<event>
 6    4  0.2271823E-003  0.1267301E+03  0.7818608E-02  0.1232390E+00
          4   -1    0    0  502    0  0.00000000000E+00  0.00000000000E+00  0.57396155551E+03  0.57396296057E+03  0.12700000000E+01 0. -1.
         -4   -1    0    0    0  501 -0.00000000000E+00 -0.00000000000E+00 -0.29357668493E+02  0.29385125478E+02  0.12700000000E+01 0. -1.
         25    2    1    2    0    0  0.17112202309E+02 -0.11926386574E+02  0.56204706017E+03  0.57615745431E+03  0.12500179256E+03 0.  0.
    9000005    1    3    3    0    0 -0.11043311528E+02 -0.62689450274E+02  0.37308663462E+03  0.37847927134E+03  0.10000000000E+01 0.  0.
    9000005    1    3    3    0    0  0.28155513837E+02  0.50763063700E+02  0.18896042555E+03  0.19767818297E+03  0.10000000000E+01 0.  0.
         21    1    1    2  502  501 -0.17112202309E+02  0.11926386574E+02 -0.17443173153E+02  0.27190631737E+02  0.00000000000E+00 0. -1.
<mgrwt>
<rscale>  1 0.12673008E+03</rscale>
<asrwt>0</asrwt>
<pdfrwt beam="1">  1        4 0.88303996E-01 0.12673008E+03</pdfrwt>
<pdfrwt beam="2">  1       -4 0.45187846E-02 0.12673008E+03</pdfrwt>
<totfact> 0.52442185E+02</totfact>
</mgrwt>
</event>
<event>
 6    4  0.2271823E-003  0.1268796E+03  0.7818608E-02  0.1232161E+00
          4   -1    0    0  502    0  0.00000000000E+00  0.00000000000E+00  0.12839551901E+03  0.12840179984E+03  0.12700000000E+01 0.  1.
         -4   -1    0    0    0  501 -0.00000000000E+00 -0.00000000000E+00 -0.51170005716E+02  0.51185763499E+02  0.12700000000E+01 0.  1.
         25    2    1    2    0    0  0.21112348513E+02 -0.51944404281E+01  0.88885494884E+02  0.15491635255E+03  0.12500292643E+03 0.  0.
    9000005    1    3    3    0    0 -0.74856065272E+01  0.31679787436E+02 -0.18762113032E+02  0.37585371123E+02  0.10000000000E+01 0.  0.
    9000005    1    3    3    0    0  0.28597955040E+02 -0.36874227864E+02  0.10764760792E+03  0.11733098143E+03  0.10000000000E+01 0.  0.
         21    1    1    2  502  501 -0.21112348513E+02  0.51944404281E+01 -0.11659981589E+02  0.24671210788E+02  0.00000000000E+00 0.  1.
<mgrwt>
<rscale>  1 0.12687965E+03</rscale>
<asrwt>0</asrwt>
<pdfrwt beam="1">  1        4 0.19754852E-01 0.12687965E+03</pdfrwt>
<pdfrwt beam="2">  1       -4 0.78740040E-02 0.12687965E+03</pdfrwt>
<totfact> 0.42068615E+03</totfact>
</mgrwt>
</event>
<event>
 6    4  0.2271823E-003  0.1355503E+03  0.7818608E-02  0.1219445E+00
          4   -1    0    0  502    0  0.00000000000E+00  0.00000000000E+00  0.31453988729E+03  0.31454245118E+03  0.12700000000E+01 0. -1.
         -4   -1    0    0    0  501 -0.00000000000E+00 -0.00000000000E+00 -0.28497554506E+02  0.28525839388E+02  0.12700000000E+01 0. -1.
         25    2    1    2    0    0  0.51837820893E+02  0.78462729786E+01  0.22421714778E+03  0.26200610965E+03  0.12500059384E+03 0.  0.
    9000005    1    3    3    0    0  0.90969352246E+02 -0.10181117927E+02  0.13774261509E+03  0.16538774508E+03  0.10000000000E+01 0.  0.
    9000005    1    3    3    0    0 -0.39131531352E+02  0.18027390905E+02  0.86474532694E+02  0.96618364577E+02  0.10000000000E+01 0.  0.
         21    1    1    2  502  501 -0.51837820893E+02 -0.78462729786E+01  0.61825184998E+02  0.81062180915E+02  0.00000000000E+00 0. -1.
<mgrwt>
<rscale>  1 0.13555026E+03</rscale>
<asrwt>0</asrwt>
<pdfrwt beam="1">  1        4 0.48393127E-01 0.13555026E+03</pdfrwt>
<pdfrwt beam="2">  1       -4 0.43866119E-02 0.13555026E+03</pdfrwt>
<totfact> 0.20112205E+03</totfact>
</mgrwt>
</event>
<event>
 6    4  0.2271823E-003  0.1269464E+03  0.7818608E-02  0.1232058E+00
          4   -1    0    0  502    0  0.00000000000E+00  0.00000000000E+00  0.69757541983E+03  0.69757657590E+03  0.12700000000E+01 0. -1.
         -4   -1    0    0    0  501 -0.00000000000E+00 -0.00000000000E+00 -0.21756515957E+02  0.21793551491E+02  0.12700000000E+01 0. -1.
         25    2    1    2    0    0 -0.19023503963E+02 -0.11309885441E+02  0.68407084373E+03  0.69575018406E+03  0.12500236864E+03 0.  0.
    9000005    1    3    3    0    0 -0.44239592455E+01  0.56815145087E+02  0.33056264315E+03  0.33544029748E+03  0.10000000000E+01 0.  0.
    9000005    1    3    3    0    0 -0.14599544718E+02 -0.68125030529E+02  0.35350820057E+03  0.36030988657E+03  0.10000000000E+01 0.  0.
         21    1    1    2  502  501  0.19023503963E+02  0.11309885441E+02 -0.82519398576E+01  0.23619943335E+02  0.00000000000E+00 0.  1.
<mgrwt>
<rscale>  1 0.12694644E+03</rscale>
<asrwt>0</asrwt>
<pdfrwt beam="1">  1        4 0.10732222E+00 0.12694644E+03</pdfrwt>
<pdfrwt beam="2">  1       -4 0.33500946E-02 0.12694644E+03</pdfrwt>
<totfact> 0.53858247E+02</totfact>
</mgrwt>
</event>
<event>
 6    4  0.2271823E-003  0.1281762E+03  0.7818608E-02  0.1230187E+00
          4   -1    0    0  502    0  0.00000000000E+00  0.00000000000E+00  0.30589971702E+03  0.30590235333E+03  0.12700000000E+01 0. -1.
         -4   -1    0    0    0  501 -0.00000000000E+00 -0.00000000000E+00 -0.21161259083E+02  0.21199334564E+02  0.12700000000E+01 0. -1.
         25    2    1    2    0    0 -0.48307846181E+01 -0.27943041148E+02  0.25819362421E+03  0.28825869334E+03  0.12499990669E+03 0.  0.
    9000005    1    3    3    0    0 -0.18400303673E+02  0.37092739831E+02  0.31520221958E+02  0.52047736893E+02  0.10000000000E+01 0.  0.
    9000005    1    3    3    0    0  0.13569519055E+02 -0.65035780979E+02  0.22667340225E+03  0.23621095644E+03  0.10000000000E+01 0.  0.
         21    1    1    2  502  501  0.48307846181E+01  0.27943041148E+02  0.26544833724E+02  0.38842994556E+02  0.00000000000E+00 0. -1.
<mgrwt>
<rscale>  1 0.12817615E+03</rscale>
<asrwt>0</asrwt>
<pdfrwt beam="1">  1        4 0.47064628E-01 0.12817615E+03</pdfrwt>
<pdfrwt beam="2">  1       -4 0.32587099E-02 0.12817615E+03</pdfrwt>
<totfact> 0.33617132E+03</totfact>
</mgrwt>
</event>
<event>
 6    4  0.2271823E-003  0.1289945E+03  0.7818608E-02  0.1228955E+00
          4   -1    0    0  502    0  0.00000000000E+00  0.00000000000E+00  0.26617099519E+02  0.26647380487E+02  0.12700000000E+01 0.  1.
         -4   -1    0    0    0  501 -0.00000000000E+00 -0.00000000000E+00 -0.24286072336E+03  0.24286404396E+03  0.12700000000E+01 0.  1.
         25    2    1    2    0    0  0.31580442497E+02 -0.42152082806E+01 -0.17400019170E+03  0.21660017907E+03  0.12499791411E+03 0.  0.
    9000005    1    3    3    0    0  0.74507419662E+02  0.17490440122E+02 -0.78349088973E+02  0.10953013660E+03  0.10000000000E+01 0.  0.
    9000005    1    3    3    0    0 -0.42926977165E+02 -0.21705648403E+02 -0.95651102728E+02  0.10707004247E+03  0.10000000000E+01 0.  0.
         21    1    1    2  502  501 -0.31580442497E+02  0.42152082806E+01 -0.42243432138E+02  0.52911245383E+02  0.00000000000E+00 0. -1.
<mgrwt>
<rscale>  1 0.12899446E+03</rscale>
<asrwt>0</asrwt>
<pdfrwt beam="1">  1        4 0.40975233E-02 0.12899446E+03</pdfrwt>
<pdfrwt beam="2">  1       -4 0.37365771E-01 0.12899446E+03</pdfrwt>
<totfact> 0.37029493E+03</totfact>
</mgrwt>
</event>
<event>
 6    4  0.2271823E-003  0.1280404E+03  0.7818608E-02  0.1230393E+00
          4   -1    0    0  502    0  0.00000000000E+00  0.00000000000E+00  0.76203279511E+03  0.76203385340E+03  0.12700000000E+01 0. -1.
         -4   -1    0    0    0  501 -0.00000000000E+00 -0.00000000000E+00 -0.94796326462E+01  0.95643261711E+01  0.12700000000E+01 0. -1.
         25    2    1    2    0    0 -0.17792477253E+02 -0.21273779550E+02  0.70513120070E+03  0.71666195836E+03  0.12500082566E+03 0.  0.
    9000005    1    3    3    0    0 -0.79065414911E+01 -0.39108671823E+02  0.69023797140E+03  0.69139095942E+03  0.10000000000E+01 0.  0.
    9000005    1    3    3    0    0 -0.98859357622E+01  0.17834892273E+02  0.14893229301E+02  0.25270998937E+02  0.10000000000E+01 0.  0.
         21    1    1    2  502  501  0.17792477253E+02  0.21273779550E+02  0.47421961764E+02  0.54936221209E+02  0.00000000000E+00 0.  1.
<mgrwt>
<rscale>  1 0.12804043E+03</rscale>
<asrwt>0</asrwt>
<pdfrwt beam="1">  1        4 0.11724245E+00 0.12804043E+03</pdfrwt>
<pdfrwt beam="2">  1       -4 0.14650008E-02 0.12804043E+03</pdfrwt>
<totfact> 0.15724301E+03</totfact>
</mgrwt>
</event>
<event>
 6    4  0.2271823E-003  0.1275641E+03  0.7818608E-02  0.1231116E+00
         -4   -1    0    0    0  501 -0.00000000000E+00  0.00000000000E+00  0.35647114569E+02  0.35669730545E+02  0.12700000000E+01 0.  1.
          4   -1    0    0  502    0  0.00000000000E+00 -0.00000000000E+00 -0.24836707056E+03  0.24837031754E+03  0.12700000000E+01 0.  1.
         25    2    1    2    0    0  0.16377574108E+02 -0.19480680028E+02 -0.22274492038E+03  0.25668640593E+03  0.12499955844E+03 0.  0.
    9000005    1    3    3    0    0 -0.46133570133E+02 -0.26003592963E+02 -0.15714734108E+03  0.16583359113E+03  0.10000000000E+01 0.  0.
    9000005    1    3    3    0    0  0.62511144241E+02  0.65229129351E+01 -0.65597579296E+02  0.90852814799E+02  0.10000000000E+01 0.  0.
         21    1    1    2  502  501 -0.16377574108E+02  0.19480680028E+02  0.10024964390E+02  0.27353642153E+02  0.00000000000E+00 0.  1.
<mgrwt>
<rscale>  1 0.12756415E+03</rscale>
<asrwt>0</asrwt>
<pdfrwt beam="2">  1        4 0.38212307E-01 0.12756415E+03</pdfrwt>
<pdfrwt beam="1">  1       -4 0.54861611E-02 0.12756415E+03</pdfrwt>
<totfact> 0.22155488E+03</totfact>
</mgrwt>
</event>
<event>
 6    4  0.2271823E-003  0.1278277E+03  0.7818608E-02  0.1230715E+00
         -4   -1    0    0    0  501 -0.00000000000E+00  0.00000000000E+00  0.10855321406E+03  0.10856064289E+03  0.12700000000E+01 0.  1.
          4   -1    0    0  502    0  0.00000000000E+00 -0.00000000000E+00 -0.59262103639E+02  0.59275710268E+02  0.12700000000E+01 0.  1.
         25    2    1    2    0    0  0.20856706604E+02  0.16759594748E+02  0.22165310999E+02  0.12973523478E+03  0.12499617557E+03 0.  0.
    9000005    1    3    3    0    0  0.65910950675E+02  0.94454465754E+01  0.43293935281E+02  0.79428173288E+02  0.10000000000E+01 0.  0.
    9000005    1    3    3    0    0 -0.45054244071E+02  0.73141481726E+01 -0.21128624282E+02  0.50307061496E+02  0.10000000000E+01 0.  0.
         21    1    1    2  502  501 -0.20856706604E+02 -0.16759594748E+02  0.27125799426E+02  0.38101118369E+02  0.00000000000E+00 0. -1.
<mgrwt>
<rscale>  1 0.12782774E+03</rscale>
<asrwt>0</asrwt>
<pdfrwt beam="2">  1        4 0.91188649E-02 0.12782774E+03</pdfrwt>
<pdfrwt beam="1">  1       -4 0.16702112E-01 0.12782774E+03</pdfrwt>
<totfact> 0.44511031E+03</totfact>
</mgrwt>
</event>
<event>
 6    4  0.2271823E-003  0.1353458E+03  0.7818608E-02  0.1219732E+00
          4   -1    0    0  502    0  0.00000000000E+00  0.00000000000E+00  0.20608288718E+03  0.20608680038E+03  0.12700000000E+01 0. -1.
         -4   -1    0    0    0  501 -0.00000000000E+00 -0.00000000000E+00 -0.69571402173E+02  0.69582992895E+02  0.12700000000E+01 0. -1.
         25    2    1    2    0    0  0.15029538587E+02 -0.49670761334E+02  0.16740607222E+03  0.21527486732E+03  0.12500161567E+03 0.  0.
    9000005    1    3    3    0    0  0.64422395527E+01 -0.67227935548E+02  0.25768821077E+02  0.72291976790E+02  0.10000000000E+01 0.  0.
    9000005    1    3    3    0    0  0.85872990343E+01  0.17557174214E+02  0.14163725115E+03  0.14298289053E+03  0.10000000000E+01 0.  0.
         21    1    1    2  502  501 -0.15029538587E+02  0.49670761334E+02 -0.30894587216E+02  0.60394925953E+02  0.00000000000E+00 0. -1.
<mgrwt>
<rscale>  1 0.13534576E+03</rscale>
<asrwt>0</asrwt>
<pdfrwt beam="1">  1        4 0.31706251E-01 0.13534576E+03</pdfrwt>
<pdfrwt beam="2">  1       -4 0.10704486E-01 0.13534576E+03</pdfrwt>
<totfact> 0.10664295E+03</totfact>
</mgrwt>
</event>
<event>
 6    4  0.2271823E-003  0.1266998E+03  0.7818608E-02  0.1232436E+00
          4   -1    0    0  502    0  0.00000000000E+00  0.00000000000E+00  0.64283729352E+02  0.64296273293E+02  0.12700000000E+01 0. -1.
         -4   -1    0    0    0  501 -0.00000000000E+00 -0.00000000000E+00 -0.21678594462E+03  0.21678966462E+03  0.12700000000E+01 0. -1.
         25    2    1    2    0    0 -0.13010692302E+02  0.16059343213E+02  0.49317129217E+00  0.12670080609E+03  0.12500268168E+03 0.  0.
    9000005    1    3    3    0    0 -0.24321006899E+02 -0.34211765189E+02  0.42848962782E+02  0.59991581622E+02  0.10000000000E+01 0.  0.
    9000005    1    3    3    0    0  0.11310314597E+02  0.50271108402E+02 -0.42355791490E+02  0.66709224467E+02  0.10000000000E+01 0.  0.
         21    1    1    2  502  501  0.13010692302E+02 -0.16059343213E+02 -0.15299538656E+03  0.15438513182E+03  0.00000000000E+00 0. -1.
<mgrwt>
<rscale>  1 0.12669985E+03</rscale>
<asrwt>0</asrwt>
<pdfrwt beam="1">  1        4 0.98910557E-02 0.12669985E+03</pdfrwt>
<pdfrwt beam="2">  1       -4 0.33352935E-01 0.12669985E+03</pdfrwt>
<totfact> 0.10906848E+03</totfact>
</mgrwt>
</event>
<event>
 6    4  0.2271823E-003  0.1280305E+03  0.7818608E-02  0.1230408E+00
         -4   -1    0    0    0  501 -0.00000000000E+00  0.00000000000E+00  0.64356699357E+02  0.64369229078E+02  0.12700000000E+01 0.  1.
          4   -1    0    0  502    0  0.00000000000E+00 -0.00000000000E+00 -0.15110652475E+03  0.15111186162E+03  0.12700000000E+01 0.  1.
         25    2    1    2    0    0 -0.24509693702E+02  0.12868168263E+02 -0.11773238118E+03  0.17393312321E+03  0.12500201172E+03 0.  0.
    9000005    1    3    3    0    0  0.13988340565E+02 -0.49888816957E+02 -0.31933723013E+02  0.60871425107E+02  0.10000000000E+01 0.  0.
    9000005    1    3    3    0    0 -0.38498034267E+02  0.62756985220E+02 -0.85798658163E+02  0.11306169811E+03  0.10000000000E+01 0.  0.
         21    1    1    2  502  501  0.24509693702E+02 -0.12868168263E+02  0.30982555778E+02  0.41547967488E+02  0.00000000000E+00 0.  1.
<mgrwt>
<rscale>  1 0.12803053E+03</rscale>
<asrwt>0</asrwt>
<pdfrwt beam="2">  1        4 0.23248532E-01 0.12803053E+03</pdfrwt>
<pdfrwt beam="1">  1       -4 0.99024051E-02 0.12803053E+03</pdfrwt>
<totfact> 0.21425988E+03</totfact>
</mgrwt>
</event>
<event>
 6    4  0.2271823E-003  0.1266937E+03  0.7818608E-02  0.1232446E+00
          4   -1    0    0  502    0  0.00000000000E+00  0.00000000000E+00  0.70870586833E+02  0.70881965111E+02  0.12700000000E+01 0.  1.
         -4   -1    0    0    0  501 -0.00000000000E+00 -0.00000000000E+00 -0.10166752593E+03  0.10167545785E+03  0.12700000000E+01 0.  1.
         25    2    1    2    0    0 -0.40898429984E+01  0.20237390159E+02  0.97378268522E+01  0.12706735782E+03  0.12500003750E+03 0.  0.
    9000005    1    3    3    0    0  0.59416804680E+02  0.48167303801E+01 -0.57529032276E+01  0.59897023845E+02  0.10000000000E+01 0.  0.
    9000005    1    3    3    0    0 -0.63506647679E+02  0.15420659779E+02  0.15490730080E+02  0.67170333971E+02  0.10000000000E+01 0.  0.
         21    1    1    2  502  501  0.40898429984E+01 -0.20237390159E+02 -0.40534765951E+02  0.45490065145E+02  0.00000000000E+00 0.  1.
<mgrwt>
<rscale>  1 0.12669368E+03</rscale>
<asrwt>0</asrwt>
<pdfrwt beam="1">  1        4 0.10904653E-01 0.12669368E+03</pdfrwt>
<pdfrwt beam="2">  1       -4 0.15642643E-01 0.12669368E+03</pdfrwt>
<totfact> 0.36883082E+03</totfact>
</mgrwt>
</event>
<event>
 6    4  0.2271823E-003  0.1269182E+03  0.7818608E-02  0.1232102E+00
         -4   -1    0    0    0  501 -0.00000000000E+00  0.00000000000E+00  0.19594634789E+03  0.19595046352E+03  0.12700000000E+01 0. -1.
          4   -1    0    0  502    0  0.00000000000E+00 -0.00000000000E+00 -0.28411358150E+02  0.28439728760E+02  0.12700000000E+01 0. -1.
         25    2    1    2    0    0 -0.19053239683E+02 -0.10955313336E+02  0.14818430335E+03  0.19510719556E+03  0.12500074067E+03 0.  0.
    9000005    1    3    3    0    0 -0.41102745425E+02 -0.47677817679E+02  0.13708032262E+03  0.15084636167E+03  0.10000000000E+01 0.  0.
    9000005    1    3    3    0    0  0.22049505742E+02  0.36722504343E+02  0.11103980732E+02  0.44260833892E+02  0.10000000000E+01 0.  0.
         21    1    1    2  502  501  0.19053239683E+02  0.10955313336E+02  0.19350686388E+02  0.29282996711E+02  0.00000000000E+00 0. -1.
<mgrwt>
<rscale>  1 0.12691820E+03</rscale>
<asrwt>0</asrwt>
<pdfrwt beam="2">  1        4 0.43734770E-02 0.12691820E+03</pdfrwt>
<pdfrwt beam="1">  1       -4 0.30148092E-01 0.12691820E+03</pdfrwt>
<totfact> 0.50166928E+03</totfact>
</mgrwt>
</event>
<event>
 6    4  0.2271823E-003  0.1284588E+03  0.7818608E-02  0.1229761E+00
         -4   -1    0    0    0  501 -0.00000000000E+00  0.00000000000E+00  0.17118473223E+02  0.17165518503E+02  0.12700000000E+01 0. -1.
          4   -1    0    0  502    0  0.00000000000E+00 -0.00000000000E+00 -0.40565730379E+03  0.40565929179E+03  0.12700000000E+01 0. -1.
         25    2    1    2    0    0  0.18794153109E+02  0.22873074669E+02 -0.35774235070E+03  0.38010688773E+03  0.12500103552E+03 0.  0.
    9000005    1    3    3    0    0  0.20068223469E+02  0.64943007828E+02 -0.30569950260E+03  0.31316691037E+03  0.10000000000E+01 0.  0.
    9000005    1    3    3    0    0 -0.12740703595E+01 -0.42069933159E+02 -0.52042848097E+02  0.66939977363E+02  0.10000000000E+01 0.  0.
         21    1    1    2  502  501 -0.18794153109E+02 -0.22873074669E+02 -0.30796479865E+02  0.42717922561E+02  0.00000000000E+00 0.  1.
<mgrwt>
<rscale>  1 0.12845877E+03</rscale>
<asrwt>0</asrwt>
<pdfrwt beam="2">  1        4 0.62412581E-01 0.12845877E+03</pdfrwt>
<pdfrwt beam="1">  1       -4 0.26373834E-02 0.12845877E+03</pdfrwt>
<totfact> 0.26158729E+03</totfact>
</mgrwt>
</event>
<event>
 6    4  0.2271823E-003  0.1271759E+03  0.7818608E-02  0.1231707E+00
          4   -1    0    0  502    0  0.00000000000E+00  0.00000000000E+00  0.37495139717E+02  0.37516641673E+02  0.12700000000E+01 0.  1.
         -4   -1    0    0    0  501 -0.00000000000E+00 -0.00000000000E+00 -0.15113510267E+03  0.15114043853E+03  0.12700000000E+01 0.  1.
         25    2    1    2    0    0 -0.23404913021E+02  0.27218738080E+00 -0.96674089047E+02  0.15974851889E+03  0.12500338298E+03 0.  0.
    9000005    1    3    3    0    0 -0.14048768907E+01  0.61675402087E+02 -0.51933055808E+02  0.80646581994E+02  0.10000000000E+01 0.  0.
    9000005    1    3    3    0    0 -0.22000036130E+02 -0.61403214707E+02 -0.44741033240E+02  0.79101936900E+02  0.10000000000E+01 0.  0.
         21    1    1    2  502  501  0.23404913021E+02 -0.27218738080E+00 -0.16965873902E+02  0.28908561305E+02  0.00000000000E+00 0. -1.
<mgrwt>
<rscale>  1 0.12717590E+03</rscale>
<asrwt>0</asrwt>
<pdfrwt beam="1">  1        4 0.57705475E-02 0.12717590E+03</pdfrwt>
<pdfrwt beam="2">  1       -4 0.23253618E-01 0.12717590E+03</pdfrwt>
<totfact> 0.52086925E+03</totfact>
</mgrwt>
</event>
<event>
 6    4  0.2271823E-003  0.1281822E+03  0.7818608E-02  0.1230178E+00
         -4   -1    0    0    0  501 -0.00000000000E+00  0.00000000000E+00  0.10547428433E+04  0.10547436079E+04  0.12700000000E+01 0.  1.
          4   -1    0    0  502    0  0.00000000000E+00 -0.00000000000E+00 -0.59537166749E+01  0.60876631186E+01  0.12700000000E+01 0.  1.
         25    2    1    2    0    0 -0.27269175988E+02 -0.79175801158E+01  0.76959064811E+03  0.78019255943E+03  0.12499747236E+03 0.  0.
    9000005    1    3    3    0    0  0.16096988064E+02  0.51665649873E+02  0.29743599950E+03  0.30232040322E+03  0.10000000000E+01 0.  0.
    9000005    1    3    3    0    0 -0.43366164052E+02 -0.59583229989E+02  0.47215464861E+03  0.47787215621E+03  0.10000000000E+01 0.  0.
         21    1    1    2  502  501  0.27269175988E+02  0.79175801158E+01  0.27919847849E+03  0.28063871155E+03  0.00000000000E+00 0. -1.
<mgrwt>
<rscale>  1 0.12818215E+03</rscale>
<asrwt>0</asrwt>
<pdfrwt beam="2">  1        4 0.92631877E-03 0.12818215E+03</pdfrwt>
<pdfrwt beam="1">  1       -4 0.16227850E+00 0.12818215E+03</pdfrwt>
<totfact> 0.13999508E+03</totfact>
</mgrwt>
</event>
<event>
 6    4  0.2271823E-003  0.1268833E+03  0.7818608E-02  0.1232155E+00
          4   -1    0    0  502    0  0.00000000000E+00  0.00000000000E+00  0.22265463588E+02  0.22301653947E+02  0.12700000000E+01 0.  1.
         -4   -1    0    0    0  501 -0.00000000000E+00 -0.00000000000E+00 -0.26157931292E+03  0.26158239591E+03  0.12700000000E+01 0.  1.
         25    2    1    2    0    0 -0.21359483704E+02 -0.42876961251E+01 -0.17631114852E+03  0.21722107518E+03  0.12499905011E+03 0.  0.
    9000005    1    3    3    0    0 -0.38822212388E+02 -0.27294763670E+02 -0.10118309987E+02  0.48533993196E+02  0.10000000000E+01 0.  0.
    9000005    1    3    3    0    0  0.17462728685E+02  0.23007067545E+02 -0.16619283853E+03  0.16868708199E+03  0.10000000000E+01 0.  0.
         21    1    1    2  502  501  0.21359483704E+02  0.42876961251E+01 -0.63002700816E+02  0.66662974673E+02  0.00000000000E+00 0. -1.
<mgrwt>
<rscale>  1 0.12688331E+03</rscale>
<asrwt>0</asrwt>
<pdfrwt beam="1">  1        4 0.34284772E-02 0.12688331E+03</pdfrwt>
<pdfrwt beam="2">  1       -4 0.40245990E-01 0.12688331E+03</pdfrwt>
<totfact> 0.42276829E+03</totfact>
</mgrwt>
</event>
<event>
 6    4  0.2271823E-003  0.1327611E+03  0.7818608E-02  0.1223415E+00
         -4   -1    0    0    0  501 -0.00000000000E+00  0.00000000000E+00  0.60556554588E+02  0.60569870427E+02  0.12700000000E+01 0. -1.
          4   -1    0    0  502    0  0.00000000000E+00 -0.00000000000E+00 -0.14647347968E+03  0.14647898535E+03  0.12700000000E+01 0. -1.
         25    2    1    2    0    0 -0.24248843124E+02  0.37582414091E+02 -0.92545752761E+02  0.16183397329E+03  0.12500029726E+03 0.  0.
    9000005    1    3    3    0    0 -0.56459583416E+02 -0.35133021866E+01 -0.11731709362E+01  0.56589788671E+02  0.10000000000E+01 0.  0.
    9000005    1    3    3    0    0  0.32210740292E+02  0.41095716278E+02 -0.91372581825E+02  0.10524418462E+03  0.10000000000E+01 0.  0.
         21    1    1    2  502  501  0.24248843124E+02 -0.37582414091E+02  0.66288276741E+01  0.45214882485E+02  0.00000000000E+00 0. -1.
<mgrwt>
<rscale>  1 0.13276113E+03</rscale>
<asrwt>0</asrwt>
<pdfrwt beam="2">  1        4 0.22535829E-01 0.13276113E+03</pdfrwt>
<pdfrwt beam="1">  1       -4 0.93178409E-02 0.13276113E+03</pdfrwt>
<totfact> 0.25332036E+03</totfact>
</mgrwt>
</event>
<event>
 6    4  0.2271823E-003  0.1344282E+03  0.7818608E-02  0.1221029E+00
          4   -1    0    0  502    0  0.00000000000E+00  0.00000000000E+00  0.50381115525E+02  0.50397119972E+02  0.12700000000E+01 0. -1.
         -4   -1    0    0    0  501 -0.00000000000E+00 -0.00000000000E+00 -0.19427062811E+03  0.19427477924E+03  0.12700000000E+01 0. -1.
         25    2    1    2    0    0  0.40069907129E-01  0.49457340488E+02 -0.59827875159E+02  0.14714042213E+03  0.12499959618E+03 0.  0.
    9000005    1    3    3    0    0 -0.21360959991E+02 -0.30475947657E+02 -0.52087082336E+02  0.64024512053E+02  0.10000000000E+01 0.  0.
    9000005    1    3    3    0    0  0.21401029898E+02  0.79933288145E+02 -0.77407928223E+01  0.83115910077E+02  0.10000000000E+01 0.  0.
         21    1    1    2  502  501 -0.40069907129E-01 -0.49457340488E+02 -0.84061637430E+02  0.97531477079E+02  0.00000000000E+00 0. -1.
<mgrwt>
<rscale>  1 0.13442816E+03</rscale>
<asrwt>0</asrwt>
<pdfrwt beam="1">  1        4 0.77524914E-02 0.13442816E+03</pdfrwt>
<pdfrwt beam="2">  1       -4 0.29889339E-01 0.13442816E+03</pdfrwt>
<totfact> 0.20431079E+03</totfact>
</mgrwt>
</event>
<event>
 6    4  0.2271823E-003  0.1311024E+03  0.7818608E-02  0.1225829E+00
          4   -1    0    0  502    0  0.00000000000E+00  0.00000000000E+00  0.10118412795E+02  0.10197802582E+02  0.12700000000E+01 0.  1.
         -4   -1    0    0    0  501 -0.00000000000E+00 -0.00000000000E+00 -0.71655328422E+03  0.71655440968E+03  0.12700000000E+01 0.  1.
         25    2    1    2    0    0 -0.27656005211E+02  0.28234370014E+02 -0.53848696726E+03  0.55421661365E+03  0.12500322660E+03 0.  0.
    9000005    1    3    3    0    0  0.26344118927E+02  0.52137320580E+02 -0.39103983391E+03  0.39538015189E+03  0.10000000000E+01 0.  0.
    9000005    1    3    3    0    0 -0.54000124138E+02 -0.23902950566E+02 -0.14744713335E+03  0.15883646176E+03  0.10000000000E+01 0.  0.
         21    1    1    2  502  501  0.27656005211E+02 -0.28234370014E+02 -0.16794790416E+03  0.17253559861E+03  0.00000000000E+00 0. -1.
<mgrwt>
<rscale>  1 0.13110241E+03</rscale>
<asrwt>0</asrwt>
<pdfrwt beam="1">  1        4 0.15628729E-02 0.13110241E+03</pdfrwt>
<pdfrwt beam="2">  1       -4 0.11024512E+00 0.13110241E+03</pdfrwt>
<totfact> 0.16568384E+03</totfact>
</mgrwt>
</event>
<event>
 6    4  0.2271823E-003  0.1426748E+03  0.7818608E-02  0.1209775E+00
         -4   -1    0    0    0  501 -0.00000000000E+00  0.00000000000E+00  0.13115723939E+04  0.13115730088E+04  0.12700000000E+01 0.  1.
          4   -1    0    0  502    0  0.00000000000E+00 -0.00000000000E+00 -0.85080899488E+01  0.86023540137E+01  0.12700000000E+01 0.  1.
         25    2    1    2    0    0 -0.16972044786E+02 -0.66652840847E+02  0.83988672275E+03  0.85191889115E+03  0.12500175422E+03 0.  0.
    9000005    1    3    3    0    0 -0.25174927736E+01 -0.13941935443E+02  0.47220920387E+01  0.14967080109E+02  0.10000000000E+01 0.  0.
    9000005    1    3    3    0    0 -0.14454552013E+02 -0.52710905403E+02  0.83516463071E+03  0.83695181104E+03  0.10000000000E+01 0.  0.
         21    1    1    2  502  501  0.16972044786E+02  0.66652840847E+02  0.46317758124E+03  0.46825647167E+03  0.00000000000E+00 0.  1.
<mgrwt>
<rscale>  1 0.14267477E+03</rscale>
<asrwt>0</asrwt>
<pdfrwt beam="2">  1        4 0.13162340E-02 0.14267477E+03</pdfrwt>
<pdfrwt beam="1">  1       -4 0.20178787E+00 0.14267477E+03</pdfrwt>
<totfact> 0.46325780E+02</totfact>
</mgrwt>
</event>
<event>
 6    4  0.2271823E-003  0.1284274E+03  0.7818608E-02  0.1229808E+00
          4   -1    0    0  502    0  0.00000000000E+00  0.00000000000E+00  0.34452309443E+03  0.34452543519E+03  0.12700000000E+01 0.  1.
         -4   -1    0    0    0  501 -0.00000000000E+00 -0.00000000000E+00 -0.39999856422E+02  0.40020012666E+02  0.12700000000E+01 0.  1.
         25    2    1    2    0    0  0.28156377169E+02  0.86928201610E+01  0.32446972641E+03  0.34896161590E+03  0.12500103726E+03 0.  0.
    9000005    1    3    3    0    0  0.72476042961E+02  0.20953873769E+02  0.14219091204E+03  0.16096924270E+03  0.10000000000E+01 0.  0.
    9000005    1    3    3    0    0 -0.44319665791E+02 -0.12261053608E+02  0.18227881437E+03  0.18799237319E+03  0.10000000000E+01 0.  0.
         21    1    1    2  502  501 -0.28156377169E+02 -0.86928201610E+01 -0.19946488401E+02  0.35583831963E+02  0.00000000000E+00 0.  1.
<mgrwt>
<rscale>  1 0.12842743E+03</rscale>
<asrwt>0</asrwt>
<pdfrwt beam="1">  1        4 0.53005283E-01 0.12842743E+03</pdfrwt>
<pdfrwt beam="2">  1       -4 0.61555547E-02 0.12842743E+03</pdfrwt>
<totfact> 0.95651717E+02</totfact>
</mgrwt>
</event>
<event>
 6    4  0.2271823E-003  0.1271407E+03  0.7818608E-02  0.1231761E+00
          4   -1    0    0  502    0  0.00000000000E+00  0.00000000000E+00  0.11424418946E+02  0.11494792224E+02  0.12700000000E+01 0.  1.
         -4   -1    0    0    0  501 -0.00000000000E+00 -0.00000000000E+00 -0.71720193512E+03  0.71720305956E+03  0.12700000000E+01 0.  1.
         25    2    1    2    0    0 -0.22889934519E+02  0.41912930811E+01 -0.35378471403E+03  0.37593667364E+03  0.12499297048E+03 0.  0.
    9000005    1    3    3    0    0  0.49963743060E+02  0.11434588811E+01 -0.19333209624E+03  0.19968971570E+03  0.10000000000E+01 0.  0.
    9000005    1    3    3    0    0 -0.72853677578E+02  0.30478342000E+01 -0.16045261779E+03  0.17624695795E+03  0.10000000000E+01 0.  0.
         21    1    1    2  502  501  0.22889934519E+02 -0.41912930811E+01 -0.35199280215E+03  0.35276117814E+03  0.00000000000E+00 0. -1.
<mgrwt>
<rscale>  1 0.12714070E+03</rscale>
<asrwt>0</asrwt>
<pdfrwt beam="1">  1        4 0.17631033E-02 0.12714070E+03</pdfrwt>
<pdfrwt beam="2">  1       -4 0.11034422E+00 0.12714070E+03</pdfrwt>
<totfact> 0.13657692E+03</totfact>
</mgrwt>
</event>
<event>
 6    4  0.2271823E-003  0.1283814E+03  0.7818608E-02  0.1229877E+00
          4   -1    0    0  502    0  0.00000000000E+00  0.00000000000E+00  0.51275731107E+02  0.51291456409E+02  0.12700000000E+01 0.  1.
         -4   -1    0    0    0  501 -0.00000000000E+00 -0.00000000000E+00 -0.12674611597E+03  0.12675247853E+03  0.12700000000E+01 0.  1.
         25    2    1    2    0    0  0.12568563916E+02 -0.26423585018E+02 -0.45624715288E+02  0.13624753992E+03  0.12500241136E+03 0.  0.
    9000005    1    3    3    0    0  0.24681194954E+02  0.39609606004E+01 -0.82930890552E+02  0.86622071096E+02  0.10000000000E+01 0.  0.
    9000005    1    3    3    0    0 -0.12112631039E+02 -0.30384545619E+02  0.37306175264E+02  0.49625468824E+02  0.10000000000E+01 0.  0.
         21    1    1    2  502  501 -0.12568563916E+02  0.26423585018E+02 -0.29845669573E+02  0.41796395017E+02  0.00000000000E+00 0.  1.
<mgrwt>
<rscale>  1 0.12838138E+03</rscale>
<asrwt>0</asrwt>
<pdfrwt beam="1">  1        4 0.78902731E-02 0.12838138E+03</pdfrwt>
<pdfrwt beam="2">  1       -4 0.19501101E-01 0.12838138E+03</pdfrwt>
<totfact> 0.43034327E+03</totfact>
</mgrwt>
</event>
<event>
 6    4  0.2271823E-003  0.1666747E+03  0.7818608E-02  0.1181361E+00
         -4   -1    0    0    0  501 -0.00000000000E+00  0.00000000000E+00  0.27048633263E+03  0.27048931410E+03  0.12700000000E+01 0. -1.
          4   -1    0    0  502    0  0.00000000000E+00 -0.00000000000E+00 -0.70927191017E+02  0.70938560217E+02  0.12700000000E+01 0. -1.
         25    2    1    2    0    0 -0.73430210656E+01 -0.11000652992E+03  0.11537783320E+03  0.20271288137E+03  0.12500044518E+03 0.  0.
    9000005    1    3    3    0    0  0.16607295655E+02 -0.59216406126E+02 -0.12749756958E+02  0.62816728074E+02  0.10000000000E+01 0.  0.
    9000005    1    3    3    0    0 -0.23950316720E+02 -0.50790123790E+02  0.12812759016E+03  0.13989615329E+03  0.10000000000E+01 0.  0.
         21    1    1    2  502  501  0.73430210656E+01  0.11000652992E+03  0.84181308415E+02  0.13871499295E+03  0.00000000000E+00 0. -1.
<mgrwt>
<rscale>  1 0.16667474E+03</rscale>
<asrwt>0</asrwt>
<pdfrwt beam="2">  1        4 0.10912980E-01 0.16667474E+03</pdfrwt>
<pdfrwt beam="1">  1       -4 0.41614385E-01 0.16667474E+03</pdfrwt>
<totfact> 0.63363117E+02</totfact>
</mgrwt>
</event>
<event>
 6    4  0.2271823E-003  0.1380521E+03  0.7818608E-02  0.1215974E+00
         -4   -1    0    0    0  501 -0.00000000000E+00  0.00000000000E+00  0.10081345158E+03  0.10082145069E+03  0.12700000000E+01 0. -1.
          4   -1    0    0  502    0  0.00000000000E+00 -0.00000000000E+00 -0.97454966956E+02  0.97463241709E+02  0.12700000000E+01 0. -1.
         25    2    1    2    0    0 -0.46603846405E+02  0.35486517276E+02 -0.92677805426E+01  0.13836279340E+03  0.12500863743E+03 0.  0.
    9000005    1    3    3    0    0  0.17313476284E+02 -0.36707606616E+02 -0.10472188817E+02  0.41926979180E+02  0.10000000000E+01 0.  0.
    9000005    1    3    3    0    0 -0.63917322689E+02  0.72194123891E+02  0.12044082748E+01  0.96435814216E+02  0.10000000000E+01 0.  0.
         21    1    1    2  502  501  0.46603846405E+02 -0.35486517276E+02  0.12626265166E+02  0.59921899003E+02  0.00000000000E+00 0. -1.
<mgrwt>
<rscale>  1 0.13805206E+03</rscale>
<asrwt>0</asrwt>
<pdfrwt beam="2">  1        4 0.14994324E-01 0.13805206E+03</pdfrwt>
<pdfrwt beam="1">  1       -4 0.15511014E-01 0.13805206E+03</pdfrwt>
<totfact> 0.22086814E+03</totfact>
</mgrwt>
</event>
<event>
 6    4  0.2271823E-003  0.1268987E+03  0.7818608E-02  0.1232131E+00
         -4   -1    0    0    0  501 -0.00000000000E+00  0.00000000000E+00  0.19428069615E+02  0.19469534893E+02  0.12700000000E+01 0.  1.
          4   -1    0    0  502    0  0.00000000000E+00 -0.00000000000E+00 -0.32445796494E+03  0.32446045046E+03  0.12700000000E+01 0.  1.
         25    2    1    2    0    0  0.18210732327E+02 -0.12110017369E+02 -0.29222190158E+03  0.31858579477E+03  0.12499994229E+03 0.  0.
    9000005    1    3    3    0    0  0.20927665354E+02 -0.59689324226E+02 -0.23858307979E+03  0.24682720386E+03  0.10000000000E+01 0.  0.
    9000005    1    3    3    0    0 -0.27169330275E+01  0.47579306857E+02 -0.53638821786E+02  0.71758590905E+02  0.10000000000E+01 0.  0.
         21    1    1    2  502  501 -0.18210732327E+02  0.12110017369E+02 -0.12807993744E+02  0.25344190583E+02  0.00000000000E+00 0.  1.
<mgrwt>
<rscale>  1 0.12689866E+03</rscale>
<asrwt>0</asrwt>
<pdfrwt beam="2">  1        4 0.49919987E-01 0.12689866E+03</pdfrwt>
<pdfrwt beam="1">  1       -4 0.29923149E-02 0.12689866E+03</pdfrwt>
<totfact> 0.34023241E+03</totfact>
</mgrwt>
</event>
<event>
 6    4  0.2271823E-003  0.1274186E+03  0.7818608E-02  0.1231337E+00
         -4   -1    0    0    0  501 -0.00000000000E+00  0.00000000000E+00  0.30722346354E+02  0.30748584772E+02  0.12700000000E+01 0. -1.
          4   -1    0    0  502    0  0.00000000000E+00 -0.00000000000E+00 -0.26899591168E+03  0.26899890966E+03  0.12700000000E+01 0. -1.
         25    2    1    2    0    0  0.22886357804E+02  0.92934328241E+01 -0.24320222174E+03  0.27455930432E+03  0.12500135064E+03 0.  0.
    9000005    1    3    3    0    0  0.64283100931E+02 -0.15777685269E+02 -0.19628161363E+03  0.20714421128E+03  0.10000000000E+01 0.  0.
    9000005    1    3    3    0    0 -0.41396743127E+02  0.25071118093E+02 -0.46920608107E+02  0.67415093036E+02  0.10000000000E+01 0.  0.
         21    1    1    2  502  501 -0.22886357804E+02 -0.92934328241E+01  0.49286564154E+01  0.25188190115E+02  0.00000000000E+00 0. -1.
<mgrwt>
<rscale>  1 0.12741857E+03</rscale>
<asrwt>0</asrwt>
<pdfrwt beam="2">  1        4 0.41386234E-01 0.12741857E+03</pdfrwt>
<pdfrwt beam="1">  1       -4 0.47287640E-02 0.12741857E+03</pdfrwt>
<totfact> 0.24045295E+03</totfact>
</mgrwt>
</event>
<event>
 6    4  0.2271823E-003  0.1273242E+03  0.7818608E-02  0.1231481E+00
         -4   -1    0    0    0  501 -0.00000000000E+00  0.00000000000E+00  0.46739848912E+02  0.46757099742E+02  0.12700000000E+01 0. -1.
          4   -1    0    0  502    0  0.00000000000E+00 -0.00000000000E+00 -0.15519729959E+03  0.15520249579E+03  0.12700000000E+01 0. -1.
         25    2    1    2    0    0 -0.23441357090E+02 -0.60966898328E+01 -0.12014963512E+03  0.17506398202E+03  0.12499918454E+03 0.  0.
    9000005    1    3    3    0    0 -0.27826030574E+02  0.56363292271E+02 -0.75002609820E+02  0.97864703407E+02  0.10000000000E+01 0.  0.
    9000005    1    3    3    0    0  0.43846734845E+01 -0.62459982104E+02 -0.45147025296E+02  0.77199278617E+02  0.10000000000E+01 0.  0.
         21    1    1    2  502  501  0.23441357090E+02  0.60966898328E+01  0.11692184438E+02  0.26895613510E+02  0.00000000000E+00 0.  1.
<mgrwt>
<rscale>  1 0.12732424E+03</rscale>
<asrwt>0</asrwt>
<pdfrwt beam="2">  1        4 0.23878234E-01 0.12732424E+03</pdfrwt>
<pdfrwt beam="1">  1       -4 0.71924728E-02 0.12732424E+03</pdfrwt>
<totfact> 0.34658187E+03</totfact>
</mgrwt>
</event>
<event>
 6    4  0.2271823E-003  0.1358680E+03  0.7818608E-02  0.1219000E+00
         -4   -1    0    0    0  501 -0.00000000000E+00  0.00000000000E+00  0.34393575303E+02  0.34417015009E+02  0.12700000000E+01 0. -1.
          4   -1    0    0  502    0  0.00000000000E+00 -0.00000000000E+00 -0.31589765370E+03  0.31590020657E+03  0.12700000000E+01 0. -1.
         25    2    1    2    0    0 -0.87007546836E+01 -0.52528252159E+02 -0.25907782983E+03  0.29254303157E+03  0.12500073200E+03 0.  0.
    9000005    1    3    3    0    0 -0.18397065344E+02  0.39068016615E+02 -0.95467907671E+02  0.10478493847E+03  0.10000000000E+01 0.  0.
    9000005    1    3    3    0    0  0.96963106603E+01 -0.91596268773E+02 -0.16360992216E+03  0.18775809310E+03  0.10000000000E+01 0.  0.
         21    1    1    2  502  501  0.87007546836E+01  0.52528252159E+02 -0.22426248562E+02  0.57774190012E+02  0.00000000000E+00 0. -1.
<mgrwt>
<rscale>  1 0.13586796E+03</rscale>
<asrwt>0</asrwt>
<pdfrwt beam="2">  1        4 0.48601636E-01 0.13586796E+03</pdfrwt>
<pdfrwt beam="1">  1       -4 0.52933189E-02 0.13586796E+03</pdfrwt>
<totfact> 0.14756185E+03</totfact>
</mgrwt>
</event>
<event>
 6    4  0.2271823E-003  0.1304818E+03  0.7818608E-02  0.1226743E+00
          4   -1    0    0  502    0  0.00000000000E+00  0.00000000000E+00  0.12526690668E+03  0.12527334437E+03  0.12700000000E+01 0. -1.
         -4   -1    0    0    0  501 -0.00000000000E+00 -0.00000000000E+00 -0.68672346963E+02  0.68684089405E+02  0.12700000000E+01 0. -1.
         25    2    1    2    0    0  0.26043669629E+02  0.26880759258E+02  0.76818248084E+02  0.15141515461E+03  0.12499863143E+03 0.  0.
    9000005    1    3    3    0    0  0.30135732733E+02  0.59326132374E+02  0.93440967405E+02  0.11471689832E+03  0.10000000000E+01 0.  0.
    9000005    1    3    3    0    0 -0.40920631040E+01 -0.32445373116E+02 -0.16622719321E+02  0.36698256290E+02  0.10000000000E+01 0.  0.
         21    1    1    2  502  501 -0.26043669629E+02 -0.26880759258E+02 -0.20223688363E+02  0.42542279170E+02  0.00000000000E+00 0. -1.
<mgrwt>
<rscale>  1 0.13048182E+03</rscale>
<asrwt>0</asrwt>
<pdfrwt beam="1">  1        4 0.19273230E-01 0.13048182E+03</pdfrwt>
<pdfrwt beam="2">  1       -4 0.10566375E-01 0.13048182E+03</pdfrwt>
<totfact> 0.27081142E+03</totfact>
</mgrwt>
</event>
<event>
 6    4  0.2271823E-003  0.1270334E+03  0.7818608E-02  0.1231925E+00
         -4   -1    0    0    0  501 -0.00000000000E+00  0.00000000000E+00  0.58510054047E+02  0.58523835525E+02  0.12700000000E+01 0.  1.
          4   -1    0    0  502    0  0.00000000000E+00 -0.00000000000E+00 -0.10132443185E+03  0.10133239063E+03  0.12700000000E+01 0.  1.
         25    2    1    2    0    0 -0.16008706122E+02  0.16009506422E+02 -0.49364070005E+02  0.13628757249E+03  0.12499963216E+03 0.  0.
    9000005    1    3    3    0    0 -0.11315907052E+02 -0.43209233195E+02  0.16462333305E+02  0.47614031582E+02  0.10000000000E+01 0.  0.
    9000005    1    3    3    0    0 -0.46927990697E+01  0.59218739617E+02 -0.65826403309E+02  0.88673540910E+02  0.10000000000E+01 0.  0.
         21    1    1    2  502  501  0.16008706122E+02 -0.16009506422E+02  0.65496921969E+01  0.23568653662E+02  0.00000000000E+00 0. -1.
<mgrwt>
<rscale>  1 0.12703342E+03</rscale>
<asrwt>0</asrwt>
<pdfrwt beam="2">  1        4 0.15590046E-01 0.12703342E+03</pdfrwt>
<pdfrwt beam="1">  1       -4 0.90032191E-02 0.12703342E+03</pdfrwt>
<totfact> 0.51238420E+03</totfact>
</mgrwt>
</event>
<event>
 6    4  0.2271823E-003  0.1281808E+03  0.7818608E-02  0.1230180E+00
          4   -1    0    0  502    0  0.00000000000E+00  0.00000000000E+00  0.16648585131E+04  0.16648589975E+04  0.12700000000E+01 0.  1.
         -4   -1    0    0    0  501 -0.00000000000E+00 -0.00000000000E+00 -0.24301981210E+02  0.24335143121E+02  0.12700000000E+01 0.  1.
         25    2    1    2    0    0 -0.20058188891E+02  0.20073729192E+02  0.16531754880E+04  0.16581373603E+04  0.12500010371E+03 0.  0.
    9000005    1    3    3    0    0 -0.71835903795E+02  0.28223293374E+01  0.80351489290E+03  0.80672519840E+03  0.10000000000E+01 0.  0.
    9000005    1    3    3    0    0  0.51777714903E+02  0.17251399854E+02  0.84966059514E+03  0.85141216193E+03  0.10000000000E+01 0.  0.
         21    1    1    2  502  501  0.20058188891E+02 -0.20073729192E+02 -0.12618956173E+02  0.31056780261E+02  0.00000000000E+00 0.  1.
<mgrwt>
<rscale>  1 0.12818078E+03</rscale>
<asrwt>0</asrwt>
<pdfrwt beam="1">  1        4 0.25613480E+00 0.12818078E+03</pdfrwt>
<pdfrwt beam="2">  1       -4 0.37413526E-02 0.12818078E+03</pdfrwt>
<totfact> 0.43223400E+01</totfact>
</mgrwt>
</event>
<event>
 6    4  0.2271823E-003  0.1328259E+03  0.7818608E-02  0.1223322E+00
         -4   -1    0    0    0  501 -0.00000000000E+00  0.00000000000E+00  0.73513174820E+03  0.73513284521E+03  0.12700000000E+01 0. -1.
          4   -1    0    0  502    0  0.00000000000E+00 -0.00000000000E+00 -0.15236357892E+02  0.15289195591E+02  0.12700000000E+01 0. -1.
         25    2    1    2    0    0 -0.25577011522E+02  0.36935440852E+02  0.29949414813E+03  0.32762703760E+03  0.12499728275E+03 0.  0.
    9000005    1    3    3    0    0 -0.70966477222E+02 -0.42176799755E+01  0.17423306518E+03  0.18818127090E+03  0.10000000000E+01 0.  0.
    9000005    1    3    3    0    0  0.45389465701E+02  0.41153120827E+02  0.12526108295E+03  0.13944576670E+03  0.10000000000E+01 0.  0.
         21    1    1    2  502  501  0.25577011522E+02 -0.36935440852E+02  0.42040124217E+03  0.42279500320E+03  0.00000000000E+00 0. -1.
<mgrwt>
<rscale>  1 0.13282594E+03</rscale>
<asrwt>0</asrwt>
<pdfrwt beam="2">  1        4 0.23482032E-02 0.13282594E+03</pdfrwt>
<pdfrwt beam="1">  1       -4 0.11310137E+00 0.13282594E+03</pdfrwt>
<totfact> 0.83652429E+02</totfact>
</mgrwt>
</event>
<event>
 6    4  0.2271823E-003  0.1266576E+03  0.7818608E-02  0.1232501E+00
          4   -1    0    0  502    0  0.00000000000E+00  0.00000000000E+00  0.16764904133E+03  0.16765385161E+03  0.12700000000E+01 0.  1.
         -4   -1    0    0    0  501 -0.00000000000E+00 -0.00000000000E+00 -0.69663070349E+02  0.69674645822E+02  0.12700000000E+01 0.  1.
         25    2    1    2    0    0  0.22369162787E+01  0.20304743269E+02  0.14110699468E+03  0.18961362472E+03  0.12499942536E+03 0.  0.
    9000005    1    3    3    0    0  0.60150383286E+02 -0.88877367814E+01  0.56530445358E+02  0.83028619927E+02  0.10000000000E+01 0.  0.
    9000005    1    3    3    0    0 -0.57913467008E+02  0.29192480051E+02  0.84576549320E+02  0.10658500480E+03  0.10000000000E+01 0.  0.
         21    1    1    2  502  501 -0.22369162787E+01 -0.20304743269E+02 -0.43121023692E+02  0.47714872712E+02  0.00000000000E+00 0.  1.
<mgrwt>
<rscale>  1 0.12665758E+03</rscale>
<asrwt>0</asrwt>
<pdfrwt beam="1">  1        4 0.25793420E-01 0.12665758E+03</pdfrwt>
<pdfrwt beam="2">  1       -4 0.10718656E-01 0.12665758E+03</pdfrwt>
<totfact> 0.15448018E+03</totfact>
</mgrwt>
</event>
<event>
 6    4  0.2271823E-003  0.1342994E+03  0.7818608E-02  0.1221212E+00
         -4   -1    0    0    0  501 -0.00000000000E+00  0.00000000000E+00  0.70181320310E+02  0.70192810319E+02  0.12700000000E+01 0. -1.
          4   -1    0    0  502    0  0.00000000000E+00 -0.00000000000E+00 -0.15871000779E+03  0.15871508899E+03  0.12700000000E+01 0. -1.
         25    2    1    2    0    0  0.49100931721E+02  0.33804569444E+00 -0.11163694118E+03  0.17463997914E+03  0.12500119962E+03 0.  0.
    9000005    1    3    3    0    0  0.35548602196E+02  0.45634562458E+02 -0.51010943378E+01  0.58079579650E+02  0.10000000000E+01 0.  0.
    9000005    1    3    3    0    0  0.13552329525E+02 -0.45296516764E+02 -0.10653584684E+03  0.11656039949E+03  0.10000000000E+01 0.  0.
         21    1    1    2  502  501 -0.49100931721E+02 -0.33804569444E+00  0.23108253698E+02  0.54267920171E+02  0.00000000000E+00 0. -1.
<mgrwt>
<rscale>  1 0.13429935E+03</rscale>
<asrwt>0</asrwt>
<pdfrwt beam="2">  1        4 0.24418199E-01 0.13429935E+03</pdfrwt>
<pdfrwt beam="1">  1       -4 0.10798401E-01 0.13429935E+03</pdfrwt>
<totfact> 0.17102686E+03</totfact>
</mgrwt>
</event>
<event>
 6    4  0.2271823E-003  0.1299665E+03  0.7818608E-02  0.1227505E+00
          4   -1    0    0  502    0  0.00000000000E+00  0.00000000000E+00  0.11225956975E+02  0.11297566552E+02  0.12700000000E+01 0. -1.
         -4   -1    0    0    0  501 -0.00000000000E+00 -0.00000000000E+00 -0.61267453295E+03  0.61267584923E+03  0.12700000000E+01 0. -1.
         25    2    1    2    0    0 -0.35561906938E+02 -0.12115909154E+01 -0.44932523360E+03  0.46774400602E+03  0.12500068977E+03 0.  0.
    9000005    1    3    3    0    0  0.36320493295E+02 -0.88944288019E+01 -0.52958357274E+02  0.64837309491E+02  0.10000000000E+01 0.  0.
    9000005    1    3    3    0    0 -0.71882400233E+02  0.76828378865E+01 -0.39636687632E+03  0.40290669653E+03  0.10000000000E+01 0.  0.
         21    1    1    2  502  501  0.35561906938E+02  0.12115909154E+01 -0.15212334238E+03  0.15622940976E+03  0.00000000000E+00 0.  1.
<mgrwt>
<rscale>  1 0.12996649E+03</rscale>
<asrwt>0</asrwt>
<pdfrwt beam="1">  1        4 0.17326805E-02 0.12996649E+03</pdfrwt>
<pdfrwt beam="2">  1       -4 0.94263204E-01 0.12996649E+03</pdfrwt>
<totfact> 0.20311926E+03</totfact>
</mgrwt>
</event>
<event>
 6    4  0.2271823E-003  0.1365949E+03  0.7818608E-02  0.1217986E+00
         -4   -1    0    0    0  501 -0.00000000000E+00  0.00000000000E+00  0.26773312891E+02  0.26803417378E+02  0.12700000000E+01 0. -1.
          4   -1    0    0  502    0  0.00000000000E+00 -0.00000000000E+00 -0.48624184382E+03  0.48624350235E+03  0.12700000000E+01 0. -1.
         25    2    1    2    0    0 -0.33987964100E+02 -0.43300909407E+02 -0.42880577266E+03  0.45003616506E+03  0.12501203438E+03 0.  0.
    9000005    1    3    3    0    0 -0.25423235963E+02  0.30288608486E+02 -0.48528237078E+02  0.62607751315E+02  0.10000000000E+01 0.  0.
    9000005    1    3    3    0    0 -0.85647281367E+01 -0.73589517892E+02 -0.38027753558E+03  0.38742841375E+03  0.10000000000E+01 0.  0.
         21    1    1    2  502  501  0.33987964100E+02  0.43300909407E+02 -0.30662758268E+02  0.63010754667E+02  0.00000000000E+00 0. -1.
<mgrwt>
<rscale>  1 0.13659487E+03</rscale>
<asrwt>0</asrwt>
<pdfrwt beam="2">  1        4 0.74808874E-01 0.13659487E+03</pdfrwt>
<pdfrwt beam="1">  1       -4 0.41214149E-02 0.13659487E+03</pdfrwt>
<totfact> 0.89045766E+02</totfact>
</mgrwt>
</event>
<event>
 6    4  0.2271823E-003  0.1284794E+03  0.7818608E-02  0.1229730E+00
          4   -1    0    0  502    0  0.00000000000E+00  0.00000000000E+00  0.45878716371E+03  0.45878892149E+03  0.12700000000E+01 0. -1.
         -4   -1    0    0    0  501 -0.00000000000E+00 -0.00000000000E+00 -0.20905921635E+02  0.20944461307E+02  0.12700000000E+01 0. -1.
         25    2    1    2    0    0 -0.28814675931E+02 -0.71430358295E+01  0.43033161665E+03  0.44910161246E+03  0.12500259803E+03 0.  0.
    9000005    1    3    3    0    0 -0.48388771324E+02  0.18392685732E+02  0.40457646745E+03  0.40787606217E+03  0.10000000000E+01 0.  0.
    9000005    1    3    3    0    0  0.19574095394E+02 -0.25535721562E+02  0.25755149203E+02  0.41225550289E+02  0.10000000000E+01 0.  0.
         21    1    1    2  502  501  0.28814675931E+02  0.71430358295E+01  0.75496254166E+01  0.30631770334E+02  0.00000000000E+00 0.  1.
<mgrwt>
<rscale>  1 0.12847941E+03</rscale>
<asrwt>0</asrwt>
<pdfrwt beam="1">  1        4 0.70585743E-01 0.12847941E+03</pdfrwt>
<pdfrwt beam="2">  1       -4 0.32193953E-02 0.12847941E+03</pdfrwt>
<totfact> 0.14730313E+03</totfact>
</mgrwt>
</event>
<event>
 6    4  0.2271823E-003  0.1273036E+03  0.7818608E-02  0.1231512E+00
          4   -1    0    0  502    0  0.00000000000E+00  0.00000000000E+00  0.13082839481E+03  0.13083455885E+03  0.12700000000E+01 0. -1.
         -4   -1    0    0    0  501 -0.00000000000E+00 -0.00000000000E+00 -0.44121754413E+02  0.44140028460E+02  0.12700000000E+01 0. -1.
         25    2    1    2    0    0 -0.34795289199E+00 -0.24070712900E+02  0.66966564667E+02  0.14384275664E+03  0.12500679007E+03 0.  0.
    9000005    1    3    3    0    0 -0.35187449040E+02 -0.51795608126E+02  0.75919198483E+02  0.98415782725E+02  0.10000000000E+01 0.  0.
    9000005    1    3    3    0    0  0.34839496148E+02  0.27724895226E+02 -0.89526338163E+01  0.45426973918E+02  0.10000000000E+01 0.  0.
         21    1    1    2  502  501  0.34795289199E+00  0.24070712900E+02  0.19740075734E+02  0.31131830667E+02  0.00000000000E+00 0. -1.
<mgrwt>
<rscale>  1 0.12730364E+03</rscale>
<asrwt>0</asrwt>
<pdfrwt beam="1">  1        4 0.20129325E-01 0.12730364E+03</pdfrwt>
<pdfrwt beam="2">  1       -4 0.67898421E-02 0.12730364E+03</pdfrwt>
<totfact> 0.51933978E+03</totfact>
</mgrwt>
</event>
<event>
 6    4  0.2271823E-003  0.1305640E+03  0.7818608E-02  0.1226621E+00
          4   -1    0    0  502    0  0.00000000000E+00  0.00000000000E+00  0.11501092685E+03  0.11501793858E+03  0.12700000000E+01 0. -1.
         -4   -1    0    0    0  501 -0.00000000000E+00 -0.00000000000E+00 -0.62044808702E+02  0.62057805205E+02  0.12700000000E+01 0. -1.
         25    2    1    2    0    0  0.34423913044E+01  0.37557830831E+02  0.34300975837E+02  0.13499453358E+03  0.12499810574E+03 0.  0.
    9000005    1    3    3    0    0  0.63945005987E+02  0.23245406251E+02  0.13076355234E+02  0.69291440804E+02  0.10000000000E+01 0.  0.
    9000005    1    3    3    0    0 -0.60502614683E+02  0.14312424580E+02  0.21224620603E+02  0.65703092778E+02  0.10000000000E+01 0.  0.
         21    1    1    2  502  501 -0.34423913044E+01 -0.37557830831E+02  0.18665142312E+02  0.42081210203E+02  0.00000000000E+00 0.  1.
<mgrwt>
<rscale>  1 0.13056403E+03</rscale>
<asrwt>0</asrwt>
<pdfrwt beam="1">  1        4 0.17695528E-01 0.13056403E+03</pdfrwt>
<pdfrwt beam="2">  1       -4 0.95468945E-02 0.13056403E+03</pdfrwt>
<totfact> 0.37413751E+03</totfact>
</mgrwt>
</event>
<event>
 6    4  0.2271823E-003  0.1266888E+03  0.7818608E-02  0.1232453E+00
          4   -1    0    0  502    0  0.00000000000E+00  0.00000000000E+00  0.93476134457E+01  0.94334923083E+01  0.12700000000E+01 0. -1.
         -4   -1    0    0    0  501 -0.00000000000E+00 -0.00000000000E+00 -0.70854431298E+03  0.70854545115E+03  0.12700000000E+01 0. -1.
         25    2    1    2    0    0  0.48872648426E+01 -0.19999605383E+02 -0.43750179641E+03  0.45547543512E+03  0.12500472216E+03 0.  0.
    9000005    1    3    3    0    0 -0.29142584993E+02  0.19833475196E+02 -0.36117806318E+03  0.36289564660E+03  0.10000000000E+01 0.  0.
    9000005    1    3    3    0    0  0.34029849836E+02 -0.39833080579E+02 -0.76323733233E+02  0.92579788523E+02  0.10000000000E+01 0.  0.
         21    1    1    2  502  501 -0.48872648426E+01  0.19999605383E+02 -0.26169490312E+03  0.26250350834E+03  0.00000000000E+00 0. -1.
<mgrwt>
<rscale>  1 0.12668879E+03</rscale>
<asrwt>0</asrwt>
<pdfrwt beam="1">  1        4 0.14447886E-02 0.12668879E+03</pdfrwt>
<pdfrwt beam="2">  1       -4 0.10901347E+00 0.12668879E+03</pdfrwt>
<totfact> 0.19027149E+03</totfact>
</mgrwt>
</event>
<event>
 6    4  0.2271823E-003  0.1269753E+03  0.7818608E-02  0.1232014E+00
         -4   -1    0    0    0  501 -0.00000000000E+00  0.00000000000E+00  0.19849120874E+03  0.19849527160E+03  0.12700000000E+01 0. -1.
          4   -1    0    0  502    0  0.00000000000E+00 -0.00000000000E+00 -0.28461651052E+02  0.28489971579E+02  0.12700000000E+01 0. -1.
         25    2    1    2    0    0 -0.18790513783E+02 -0.11861007922E+02  0.13360457330E+03  0.18431738168E+03  0.12501579206E+03 0.  0.
    9000005    1    3    3    0    0  0.32698838157E+02 -0.21312284469E+02 -0.18578425587E+01  0.39088093649E+02  0.10000000000E+01 0.  0.
    9000005    1    3    3    0    0 -0.51489351940E+02  0.94512765466E+01  0.13546241586E+03  0.14522928803E+03  0.10000000000E+01 0.  0.
         21    1    1    2  502  501  0.18790513783E+02  0.11861007922E+02  0.36424984386E+02  0.42667861496E+02  0.00000000000E+00 0.  1.
<mgrwt>
<rscale>  1 0.12697525E+03</rscale>
<asrwt>0</asrwt>
<pdfrwt beam="2">  1        4 0.43812067E-02 0.12697525E+03</pdfrwt>
<pdfrwt beam="1">  1       -4 0.30539599E-01 0.12697525E+03</pdfrwt>
<totfact> 0.48826252E+03</totfact>
</mgrwt>
</event>
<event>
 6    4  0.2271823E-003  0.1311423E+03  0.7818608E-02  0.1225771E+00
         -4   -1    0    0    0  501 -0.00000000000E+00  0.00000000000E+00  0.91757581734E+02  0.91766370233E+02  0.12700000000E+01 0.  1.
          4   -1    0    0  502    0  0.00000000000E+00 -0.00000000000E+00 -0.79832306526E+02  0.79842407687E+02  0.12700000000E+01 0.  1.
         25    2    1    2    0    0  0.38197477024E+02  0.10694421352E+02  0.42781728089E+01  0.13121204446E+03  0.12499951980E+03 0.  0.
    9000005    1    3    3    0    0  0.15237568197E+02 -0.56627487916E+02 -0.74281519673E+01  0.59118806770E+02  0.10000000000E+01 0.  0.
    9000005    1    3    3    0    0  0.22959908827E+02  0.67321909269E+02  0.11706324776E+02  0.72093237691E+02  0.10000000000E+01 0.  0.
         21    1    1    2  502  501 -0.38197477024E+02 -0.10694421352E+02  0.76471023990E+01  0.40396733459E+02  0.00000000000E+00 0. -1.
<mgrwt>
<rscale>  1 0.13114228E+03</rscale>
<asrwt>0</asrwt>
<pdfrwt beam="2">  1        4 0.12283346E-01 0.13114228E+03</pdfrwt>
<pdfrwt beam="1">  1       -4 0.14118004E-01 0.13114228E+03</pdfrwt>
<totfact> 0.36311404E+03</totfact>
</mgrwt>
</event>
<event>
 6    4  0.2271823E-003  0.1346105E+03  0.7818608E-02  0.1220771E+00
          4   -1    0    0  502    0  0.00000000000E+00  0.00000000000E+00  0.35905162623E+03  0.35905387228E+03  0.12700000000E+01 0. -1.
         -4   -1    0    0    0  501 -0.00000000000E+00 -0.00000000000E+00 -0.84039721094E+02  0.84049316604E+02  0.12700000000E+01 0. -1.
         25    2    1    2    0    0  0.20946289052E+02 -0.45328335232E+02  0.33735991512E+03  0.36322403423E+03  0.12500632669E+03 0.  0.
    9000005    1    3    3    0    0 -0.89545083821E+01  0.39406794508E+02  0.66244146675E+02  0.77603902237E+02  0.10000000000E+01 0.  0.
    9000005    1    3    3    0    0  0.29900797434E+02 -0.84735129740E+02  0.27111576845E+03  0.28562013199E+03  0.10000000000E+01 0.  0.
         21    1    1    2  502  501 -0.20946289052E+02  0.45328335232E+02 -0.62348009982E+02  0.79879154657E+02  0.00000000000E+00 0. -1.
<mgrwt>
<rscale>  1 0.13461050E+03</rscale>
<asrwt>0</asrwt>
<pdfrwt beam="1">  1        4 0.55239623E-01 0.13461050E+03</pdfrwt>
<pdfrwt beam="2">  1       -4 0.12930099E-01 0.13461050E+03</pdfrwt>
<totfact> 0.25663028E+02</totfact>
</mgrwt>
</event>
<event>
 6    4  0.2271823E-003  0.1271073E+03  0.7818608E-02  0.1231812E+00
          4   -1    0    0  502    0  0.00000000000E+00  0.00000000000E+00  0.12735855186E+03  0.12736488383E+03  0.12700000000E+01 0. -1.
         -4   -1    0    0    0  501 -0.00000000000E+00 -0.00000000000E+00 -0.44270559619E+02  0.44288772268E+02  0.12700000000E+01 0. -1.
         25    2    1    2    0    0 -0.22391369921E+02  0.55364514667E+01  0.69047616378E+02  0.14465073225E+03  0.12499694105E+03 0.  0.
    9000005    1    3    3    0    0  0.26417742025E+02  0.10057010851E+02 -0.25541377326E+02  0.38110399062E+02  0.10000000000E+01 0.  0.
    9000005    1    3    3    0    0 -0.48809111945E+02 -0.45205593839E+01  0.94588993705E+02  0.10654033319E+03  0.10000000000E+01 0.  0.
         21    1    1    2  502  501  0.22391369921E+02 -0.55364514667E+01  0.14040375867E+02  0.27002923846E+02  0.00000000000E+00 0. -1.
<mgrwt>
<rscale>  1 0.12710728E+03</rscale>
<asrwt>0</asrwt>
<pdfrwt beam="1">  1        4 0.19595512E-01 0.12710728E+03</pdfrwt>
<pdfrwt beam="2">  1       -4 0.68127433E-02 0.12710728E+03</pdfrwt>
<totfact> 0.54180555E+03</totfact>
</mgrwt>
</event>
<event>
 6    4  0.2271823E-003  0.1284926E+03  0.7818608E-02  0.1229710E+00
         -4   -1    0    0    0  501 -0.00000000000E+00  0.00000000000E+00  0.63651745289E+01  0.64906353143E+01  0.12700000000E+01 0. -1.
          4   -1    0    0  502    0  0.00000000000E+00 -0.00000000000E+00 -0.10882912501E+04  0.10882919912E+04  0.12700000000E+01 0. -1.
         25    2    1    2    0    0  0.22794905967E+02 -0.19131569073E+02 -0.98625275198E+03  0.99458776868E+03  0.12499885663E+03 0.  0.
    9000005    1    3    3    0    0 -0.46479189265E+02  0.11958325295E+02 -0.51777301857E+03  0.51999347625E+03  0.10000000000E+01 0.  0.
    9000005    1    3    3    0    0  0.69274095232E+02 -0.31089894368E+02 -0.46847973341E+03  0.47459429244E+03  0.10000000000E+01 0.  0.
         21    1    1    2  502  501 -0.22794905967E+02  0.19131569073E+02 -0.95673323633E+02  0.10019485779E+03  0.00000000000E+00 0. -1.
<mgrwt>
<rscale>  1 0.12849256E+03</rscale>
<asrwt>0</asrwt>
<pdfrwt beam="2">  1        4 0.16743898E+00 0.12849256E+03</pdfrwt>
<pdfrwt beam="1">  1       -4 0.98896632E-03 0.12849256E+03</pdfrwt>
<totfact> 0.11693440E+03</totfact>
</mgrwt>
</event>
<event>
 6    4  0.2271823E-003  0.1303125E+03  0.7818608E-02  0.1226993E+00
         -4   -1    0    0    0  501 -0.00000000000E+00  0.00000000000E+00  0.21101907204E+02  0.21140089585E+02  0.12700000000E+01 0.  1.
          4   -1    0    0  502    0  0.00000000000E+00 -0.00000000000E+00 -0.36162124672E+03  0.36162347681E+03  0.12700000000E+01 0.  1.
         25    2    1    2    0    0  0.36813024786E+02 -0.48662776397E-01 -0.30471661996E+03  0.33141148864E+03  0.12500462056E+03 0.  0.
    9000005    1    3    3    0    0  0.66557878217E+02 -0.23409648555E+02 -0.27321259405E+03  0.28217739872E+03  0.10000000000E+01 0.  0.
    9000005    1    3    3    0    0 -0.29744853431E+02  0.23360985779E+02 -0.31504025907E+02  0.49234089923E+02  0.10000000000E+01 0.  0.
         21    1    1    2  502  501 -0.36813024786E+02  0.48662776397E-01 -0.35802719560E+02  0.51352077756E+02  0.00000000000E+00 0.  1.
<mgrwt>
<rscale>  1 0.13031253E+03</rscale>
<asrwt>0</asrwt>
<pdfrwt beam="2">  1        4 0.55637142E-01 0.13031253E+03</pdfrwt>
<pdfrwt beam="1">  1       -4 0.32495562E-02 0.13031253E+03</pdfrwt>
<totfact> 0.24085289E+03</totfact>
</mgrwt>
</event>
<event>
 6    4  0.2271823E-003  0.1295652E+03  0.7818608E-02  0.1228102E+00
         -4   -1    0    0    0  501 -0.00000000000E+00  0.00000000000E+00  0.55662944706E+01  0.57093374513E+01  0.12700000000E+01 0.  1.
          4   -1    0    0  502    0  0.00000000000E+00 -0.00000000000E+00 -0.13181623690E+04  0.13181629808E+04  0.12700000000E+01 0.  1.
         25    2    1    2    0    0  0.33749805177E+02 -0.47366970062E+01 -0.11748515924E+04  0.11819743690E+04  0.12500263648E+03 0.  0.
    9000005    1    3    3    0    0  0.43247819690E+02 -0.99669057083E+01 -0.11685512180E+04  0.11693941433E+04  0.10000000000E+01 0.  0.
    9000005    1    3    3    0    0 -0.94980145134E+01  0.52302087022E+01 -0.63003744092E+01  0.12580225771E+02  0.10000000000E+01 0.  0.
         21    1    1    2  502  501 -0.33749805177E+02  0.47366970062E+01 -0.13774448211E+03  0.14189794925E+03  0.00000000000E+00 0.  1.
<mgrwt>
<rscale>  1 0.12956521E+03</rscale>
<asrwt>0</asrwt>
<pdfrwt beam="2">  1        4 0.20280502E+00 0.12956521E+03</pdfrwt>
<pdfrwt beam="1">  1       -4 0.86740441E-03 0.12956521E+03</pdfrwt>
<totfact> 0.84205568E+02</totfact>
</mgrwt>
</event>
<event>
 6    4  0.2271823E-003  0.1295381E+03  0.7818608E-02  0.1228143E+00
          4   -1    0    0  502    0  0.00000000000E+00  0.00000000000E+00  0.82743871846E+02  0.82753617613E+02  0.12700000000E+01 0. -1.
         -4   -1    0    0    0  501 -0.00000000000E+00 -0.00000000000E+00 -0.11536586368E+03  0.11537285384E+03  0.12700000000E+01 0. -1.
         25    2    1    2    0    0  0.33646920683E+02  0.45512909392E+01  0.24347525549E+02  0.13180637320E+03  0.12500915365E+03 0.  0.
    9000005    1    3    3    0    0  0.72531171742E+02  0.23501714856E+01  0.47261646121E+02  0.86608067605E+02  0.10000000000E+01 0.  0.
    9000005    1    3    3    0    0 -0.38884251059E+02  0.22011194535E+01 -0.22914120571E+02  0.45198305597E+02  0.10000000000E+01 0.  0.
         21    1    1    2  502  501 -0.33646920683E+02 -0.45512909392E+01 -0.56969517384E+02  0.66320098248E+02  0.00000000000E+00 0. -1.
<mgrwt>
<rscale>  1 0.12953809E+03</rscale>
<asrwt>0</asrwt>
<pdfrwt beam="1">  1        4 0.12731114E-01 0.12953809E+03</pdfrwt>
<pdfrwt beam="2">  1       -4 0.17749882E-01 0.12953809E+03</pdfrwt>
<totfact> 0.22788521E+03</totfact>
</mgrwt>
</event>
<event>
 6    4  0.2271823E-003  0.1311699E+03  0.7818608E-02  0.1225730E+00
          4   -1    0    0  502    0  0.00000000000E+00  0.00000000000E+00  0.23383318539E+02  0.23417781404E+02  0.12700000000E+01 0. -1.
         -4   -1    0    0    0  501 -0.00000000000E+00 -0.00000000000E+00 -0.47194602639E+03  0.47194773516E+03  0.12700000000E+01 0. -1.
         25    2    1    2    0    0  0.34822559095E+02  0.19185553102E+02 -0.17380894494E+03  0.21775008777E+03  0.12499942126E+03 0.  0.
    9000005    1    3    3    0    0  0.11170146738E+01 -0.45108101347E+02 -0.23632922700E+02  0.50946084877E+02  0.10000000000E+01 0.  0.
    9000005    1    3    3    0    0  0.33705544421E+02  0.64293654449E+02 -0.15017602224E+03  0.16680400290E+03  0.10000000000E+01 0.  0.
         21    1    1    2  502  501 -0.34822559095E+02 -0.19185553102E+02 -0.27475376291E+03  0.27761542879E+03  0.00000000000E+00 0. -1.
<mgrwt>
<rscale>  1 0.13116993E+03</rscale>
<asrwt>0</asrwt>
<pdfrwt beam="1">  1        4 0.36002164E-02 0.13116993E+03</pdfrwt>
<pdfrwt beam="2">  1       -4 0.72609856E-01 0.13116993E+03</pdfrwt>
<totfact> 0.11673516E+03</totfact>
</mgrwt>
</event>
<event>
 6    4  0.2271823E-003  0.1292020E+03  0.7818608E-02  0.1228645E+00
         -4   -1    0    0    0  501 -0.00000000000E+00  0.00000000000E+00  0.43531625754E+02  0.43550147426E+02  0.12700000000E+01 0. -1.
          4   -1    0    0  502    0  0.00000000000E+00 -0.00000000000E+00 -0.16127622606E+03  0.16128122641E+03  0.12700000000E+01 0. -1.
         25    2    1    2    0    0 -0.15831696072E+02 -0.28571633981E+02 -0.11334309893E+03  0.17187148786E+03  0.12500467750E+03 0.  0.
    9000005    1    3    3    0    0 -0.35581783293E+02 -0.67116444707E+02 -0.37961147935E+02  0.84927788179E+02  0.10000000000E+01 0.  0.
    9000005    1    3    3    0    0  0.19750087221E+02  0.38544810727E+02 -0.75381950991E+02  0.86943699682E+02  0.10000000000E+01 0.  0.
         21    1    1    2  502  501  0.15831696072E+02  0.28571633981E+02 -0.44015013761E+01  0.32959885971E+02  0.00000000000E+00 0. -1.
<mgrwt>
<rscale>  1 0.12920197E+03</rscale>
<asrwt>0</asrwt>
<pdfrwt beam="2">  1        4 0.24813536E-01 0.12920197E+03</pdfrwt>
<pdfrwt beam="1">  1       -4 0.66989827E-02 0.12920197E+03</pdfrwt>
<totfact> 0.36414850E+03</totfact>
</mgrwt>
</event>
<event>
 6    4  0.2271823E-003  0.1267027E+03  0.7818608E-02  0.1232432E+00
         -4   -1    0    0    0  501 -0.00000000000E+00  0.00000000000E+00  0.40347166668E+02  0.40367149492E+02  0.12700000000E+01 0.  1.
          4   -1    0    0  502    0  0.00000000000E+00 -0.00000000000E+00 -0.15030543683E+03  0.15031080214E+03  0.12700000000E+01 0.  1.
         25    2    1    2    0    0  0.26803538730E+01  0.20520815029E+02 -0.11298560932E+03  0.16976257622E+03  0.12500118490E+03 0.  0.
    9000005    1    3    3    0    0 -0.34755205558E+01 -0.12921742556E+02  0.24606491646E+02  0.28027309984E+02  0.10000000000E+01 0.  0.
    9000005    1    3    3    0    0  0.61558744289E+01  0.33442557586E+02 -0.13759210096E+03  0.14173526624E+03  0.10000000000E+01 0.  0.
         21    1    1    2  502  501 -0.26803538730E+01 -0.20520815029E+02  0.30273391536E+01  0.20915375414E+02  0.00000000000E+00 0. -1.
<mgrwt>
<rscale>  1 0.12670274E+03</rscale>
<asrwt>0</asrwt>
<pdfrwt beam="2">  1        4 0.23125863E-01 0.12670274E+03</pdfrwt>
<pdfrwt beam="1">  1       -4 0.62092064E-02 0.12670274E+03</pdfrwt>
<totfact> 0.46672659E+03</totfact>
</mgrwt>
</event>
<event>
 6    4  0.2271823E-003  0.1306262E+03  0.7818608E-02  0.1226529E+00
         -4   -1    0    0    0  501 -0.00000000000E+00  0.00000000000E+00  0.14245990131E+03  0.14246556209E+03  0.12700000000E+01 0. -1.
          4   -1    0    0  502    0  0.00000000000E+00 -0.00000000000E+00 -0.57090513698E+02  0.57104637765E+02  0.12700000000E+01 0. -1.
         25    2    1    2    0    0 -0.17014862261E+02  0.33889271403E+02  0.32677324141E+02  0.13465146753E+03  0.12500088776E+03 0.  0.
    9000005    1    3    3    0    0 -0.49062826770E+02  0.41031918988E+01  0.64058639836E+02  0.80799173833E+02  0.10000000000E+01 0.  0.
    9000005    1    3    3    0    0  0.32047964509E+02  0.29786079504E+02 -0.31381315694E+02  0.53852293694E+02  0.10000000000E+01 0.  0.
         21    1    1    2  502  501  0.17014862261E+02 -0.33889271403E+02  0.52692063468E+02  0.64918732323E+02  0.00000000000E+00 0.  1.
<mgrwt>
<rscale>  1 0.13062622E+03</rscale>
<asrwt>0</asrwt>
<pdfrwt beam="2">  1        4 0.87846779E-02 0.13062622E+03</pdfrwt>
<pdfrwt beam="1">  1       -4 0.21918430E-01 0.13062622E+03</pdfrwt>
<totfact> 0.29289034E+03</totfact>
</mgrwt>
</event>
<event>
 6    4  0.2271823E-003  0.1397334E+03  0.7818608E-02  0.1213688E+00
          4   -1    0    0  502    0  0.00000000000E+00  0.00000000000E+00  0.54801836980E+02  0.54816550752E+02  0.12700000000E+01 0.  1.
         -4   -1    0    0    0  501 -0.00000000000E+00 -0.00000000000E+00 -0.23557229672E+03  0.23557572006E+03  0.12700000000E+01 0.  1.
         25    2    1    2    0    0 -0.46227819278E+02 -0.41976230203E+02 -0.55366883059E+02  0.15030275578E+03  0.12500564579E+03 0.  0.
    9000005    1    3    3    0    0 -0.83985012124E+02 -0.40844631642E+02 -0.61773005342E+02  0.11197620455E+03  0.10000000000E+01 0.  0.
    9000005    1    3    3    0    0  0.37757192846E+02 -0.11315985613E+01  0.64061222830E+01  0.38326551236E+02  0.10000000000E+01 0.  0.
         21    1    1    2  502  501  0.46227819278E+02  0.41976230203E+02 -0.12540357668E+03  0.14008951503E+03  0.00000000000E+00 0.  1.
<mgrwt>
<rscale>  1 0.13973341E+03</rscale>
<asrwt>0</asrwt>
<pdfrwt beam="1">  1        4 0.84324472E-02 0.13973341E+03</pdfrwt>
<pdfrwt beam="2">  1       -4 0.36243286E-01 0.13973341E+03</pdfrwt>
<totfact> 0.12391382E+03</totfact>
</mgrwt>
</event>
<event>
 6    4  0.2271823E-003  0.1277300E+03  0.7818608E-02  0.1230863E+00
          4   -1    0    0  502    0  0.00000000000E+00  0.00000000000E+00  0.10652148210E+03  0.10652905261E+03  0.12700000000E+01 0. -1.
         -4   -1    0    0    0  501 -0.00000000000E+00 -0.00000000000E+00 -0.90640540461E+02  0.90649437257E+02  0.12700000000E+01 0. -1.
         25    2    1    2    0    0  0.29449459463E+01  0.26095130344E+02  0.63617064642E+02  0.14269577726E+03  0.12500130159E+03 0.  0.
    9000005    1    3    3    0    0 -0.48737540011E+02 -0.24284669920E+02  0.36629357608E+02  0.65633854361E+02  0.10000000000E+01 0.  0.
    9000005    1    3    3    0    0  0.51682485957E+02  0.50379800264E+02  0.26987707034E+02  0.77061922895E+02  0.10000000000E+01 0.  0.
         21    1    1    2  502  501 -0.29449459463E+01 -0.26095130344E+02 -0.47736122999E+02  0.54482712609E+02  0.00000000000E+00 0.  1.
<mgrwt>
<rscale>  1 0.12773000E+03</rscale>
<asrwt>0</asrwt>
<pdfrwt beam="1">  1        4 0.16389187E-01 0.12773000E+03</pdfrwt>
<pdfrwt beam="2">  1       -4 0.13945965E-01 0.12773000E+03</pdfrwt>
<totfact> 0.22345616E+03</totfact>
</mgrwt>
</event>
<event>
 6    4  0.2271823E-003  0.1329727E+03  0.7818608E-02  0.1223110E+00
         -4   -1    0    0    0  501 -0.00000000000E+00  0.00000000000E+00  0.80147442409E+03  0.80147543029E+03  0.12700000000E+01 0.  1.
          4   -1    0    0  502    0  0.00000000000E+00 -0.00000000000E+00 -0.43087820852E+02  0.43106533215E+02  0.12700000000E+01 0.  1.
         25    2    1    2    0    0  0.44922928498E+02  0.62330310986E+01  0.61993793450E+02  0.14671387733E+03  0.12499924478E+03 0.  0.
    9000005    1    3    3    0    0  0.32252941875E+02 -0.58599790253E+02  0.30336028444E+02  0.73453810650E+02  0.10000000000E+01 0.  0.
    9000005    1    3    3    0    0  0.12669986622E+02  0.64832821351E+02  0.31657765006E+02  0.73260066684E+02  0.10000000000E+01 0.  0.
         21    1    1    2  502  501 -0.44922928498E+02 -0.62330310986E+01  0.69639280978E+03  0.69786808617E+03  0.00000000000E+00 0.  1.
<mgrwt>
<rscale>  1 0.13297267E+03</rscale>
<asrwt>0</asrwt>
<pdfrwt beam="2">  1        4 0.66304127E-02 0.13297267E+03</pdfrwt>
<pdfrwt beam="1">  1       -4 0.12330527E+00 0.13297267E+03</pdfrwt>
<totfact> 0.13085571E+02</totfact>
</mgrwt>
</event>
<event>
 6    4  0.2271823E-003  0.1386239E+03  0.7818608E-02  0.1215193E+00
          4   -1    0    0  502    0  0.00000000000E+00  0.00000000000E+00  0.84917724485E+03  0.84917819453E+03  0.12700000000E+01 0.  1.
         -4   -1    0    0    0  501 -0.00000000000E+00 -0.00000000000E+00 -0.14226734244E+02  0.14283307294E+02  0.12700000000E+01 0.  1.
         25    2    1    2    0    0 -0.57857504908E+02  0.15643363798E+02  0.72597583454E+03  0.73909235080E+03  0.12499753981E+03 0.  0.
    9000005    1    3    3    0    0 -0.61959858323E+01  0.29499980368E+02  0.61657257693E+03  0.61730979395E+03  0.10000000000E+01 0.  0.
    9000005    1    3    3    0    0 -0.51661519076E+02 -0.13856616570E+02  0.10940325761E+03  0.12178255685E+03  0.10000000000E+01 0.  0.
         21    1    1    2  502  501  0.57857504908E+02 -0.15643363798E+02  0.10897467606E+03  0.12436915103E+03  0.00000000000E+00 0.  1.
<mgrwt>
<rscale>  1 0.13862392E+03</rscale>
<asrwt>0</asrwt>
<pdfrwt beam="1">  1        4 0.13064711E+00 0.13862392E+03</pdfrwt>
<pdfrwt beam="2">  1       -4 0.21931527E-02 0.13862392E+03</pdfrwt>
<totfact> 0.66233729E+02</totfact>
</mgrwt>
</event>
<event>
 6    4  0.2271823E-003  0.1283551E+03  0.7818608E-02  0.1229917E+00
          4   -1    0    0  502    0  0.00000000000E+00  0.00000000000E+00  0.29843847356E+03  0.29844117578E+03  0.12700000000E+01 0. -1.
         -4   -1    0    0    0  501 -0.00000000000E+00 -0.00000000000E+00 -0.20760585094E+02  0.20799394065E+02  0.12700000000E+01 0. -1.
         25    2    1    2    0    0  0.26909614692E+02 -0.11210857380E+02  0.22714694578E+03  0.26090373024E+03  0.12500084316E+03 0.  0.
    9000005    1    3    3    0    0  0.36426137208E+02  0.16501078190E+02  0.92683987676E+01  0.41061566812E+02  0.10000000000E+01 0.  0.
    9000005    1    3    3    0    0 -0.95165225165E+01 -0.27711935570E+02  0.21787854701E+03  0.21984216343E+03  0.10000000000E+01 0.  0.
         21    1    1    2  502  501 -0.26909614692E+02  0.11210857380E+02  0.50530942693E+02  0.58336839608E+02  0.00000000000E+00 0. -1.
<mgrwt>
<rscale>  1 0.12835506E+03</rscale>
<asrwt>0</asrwt>
<pdfrwt beam="1">  1        4 0.45916803E-01 0.12835506E+03</pdfrwt>
<pdfrwt beam="2">  1       -4 0.31971294E-02 0.12835506E+03</pdfrwt>
<totfact> 0.36415113E+03</totfact>
</mgrwt>
</event>
<event>
 6    4  0.2271823E-003  0.1290388E+03  0.7818608E-02  0.1228889E+00
         -4   -1    0    0    0  501 -0.00000000000E+00  0.00000000000E+00  0.54394355401E+02  0.54409179368E+02  0.12700000000E+01 0.  1.
          4   -1    0    0  502    0  0.00000000000E+00 -0.00000000000E+00 -0.12126993854E+03  0.12127658840E+03  0.12700000000E+01 0.  1.
         25    2    1    2    0    0  0.18615461330E+02  0.26034245441E+02 -0.62516917537E+02  0.14338537610E+03  0.12500673488E+03 0.  0.
    9000005    1    3    3    0    0  0.49888238321E+02  0.20717939125E+02  0.17912772765E+02  0.56920442308E+02  0.10000000000E+01 0.  0.
    9000005    1    3    3    0    0 -0.31272776991E+02  0.53163063152E+01 -0.80429690302E+02  0.86464933792E+02  0.10000000000E+01 0.  0.
         21    1    1    2  502  501 -0.18615461330E+02 -0.26034245441E+02 -0.43586656065E+01  0.32300391670E+02  0.00000000000E+00 0. -1.
<mgrwt>
<rscale>  1 0.12903876E+03</rscale>
<asrwt>0</asrwt>
<pdfrwt beam="2">  1        4 0.18658565E-01 0.12903876E+03</pdfrwt>
<pdfrwt beam="1">  1       -4 0.83700143E-02 0.12903876E+03</pdfrwt>
<totfact> 0.42285410E+03</totfact>
</mgrwt>
</event>
<event>
 6    4  0.2271823E-003  0.1505990E+03  0.7818608E-02  0.1199739E+00
         -4   -1    0    0    0  501 -0.00000000000E+00  0.00000000000E+00  0.22344996752E+03  0.22345357658E+03  0.12700000000E+01 0. -1.
          4   -1    0    0  502    0  0.00000000000E+00 -0.00000000000E+00 -0.64594389867E+02  0.64606873491E+02  0.12700000000E+01 0. -1.
         25    2    1    2    0    0  0.81468671934E+02 -0.20429502177E+02  0.70934835976E+02  0.16646864984E+03  0.12500220541E+03 0.  0.
    9000005    1    3    3    0    0  0.91000555805E+02 -0.44734477613E+01 -0.20588299770E+01  0.91139188457E+02  0.10000000000E+01 0.  0.
    9000005    1    3    3    0    0 -0.95318838715E+01 -0.15956054416E+02  0.72993665953E+02  0.75329461381E+02  0.10000000000E+01 0.  0.
         21    1    1    2  502  501 -0.81468671934E+02  0.20429502177E+02  0.87920741676E+02  0.12159180023E+03  0.00000000000E+00 0. -1.
<mgrwt>
<rscale>  1 0.15059901E+03</rscale>
<asrwt>0</asrwt>
<pdfrwt beam="2">  1        4 0.99388363E-02 0.15059901E+03</pdfrwt>
<pdfrwt beam="1">  1       -4 0.34378156E-01 0.15059901E+03</pdfrwt>
<totfact> 0.10583272E+03</totfact>
</mgrwt>
</event>
<event>
 6    4  0.2271823E-003  0.1271040E+03  0.7818608E-02  0.1231817E+00
         -4   -1    0    0    0  501 -0.00000000000E+00  0.00000000000E+00  0.21875903440E+03  0.21876272085E+03  0.12700000000E+01 0. -1.
          4   -1    0    0  502    0  0.00000000000E+00 -0.00000000000E+00 -0.35107587828E+02  0.35130551136E+02  0.12700000000E+01 0. -1.
         25    2    1    2    0    0 -0.18200650888E+02  0.14129756423E+02  0.19124706374E+03  0.22963204552E+03  0.12499809291E+03 0.  0.
    9000005    1    3    3    0    0 -0.49814875007E+02  0.55323248454E+01  0.17927406706E+02  0.53240213198E+02  0.10000000000E+01 0.  0.
    9000005    1    3    3    0    0  0.31614224119E+02  0.85974315780E+01  0.17331965703E+03  0.17639183232E+03  0.10000000000E+01 0.  0.
         21    1    1    2  502  501  0.18200650888E+02 -0.14129756423E+02 -0.75956171642E+01  0.24261226462E+02  0.00000000000E+00 0. -1.
<mgrwt>
<rscale>  1 0.12710404E+03</rscale>
<asrwt>0</asrwt>
<pdfrwt beam="2">  1        4 0.54032173E-02 0.12710404E+03</pdfrwt>
<pdfrwt beam="1">  1       -4 0.33657287E-01 0.12710404E+03</pdfrwt>
<totfact> 0.29000157E+03</totfact>
</mgrwt>
</event>
<event>
 6    4  0.2271823E-003  0.1322237E+03  0.7818608E-02  0.1224193E+00
          4   -1    0    0  502    0  0.00000000000E+00  0.00000000000E+00  0.16134610317E+02  0.16184515751E+02  0.12700000000E+01 0. -1.
         -4   -1    0    0    0  501 -0.00000000000E+00 -0.00000000000E+00 -0.48947995337E+03  0.48948160093E+03  0.12700000000E+01 0. -1.
         25    2    1    2    0    0  0.43092408666E+02  0.12981615122E+01 -0.31663715044E+03  0.34313581631E+03  0.12499784993E+03 0.  0.
    9000005    1    3    3    0    0  0.35504150147E+02  0.97120486107E+01 -0.12647779645E+02  0.38933724402E+02  0.10000000000E+01 0.  0.
    9000005    1    3    3    0    0  0.75882585194E+01 -0.84138870985E+01 -0.30398937080E+03  0.30420209191E+03  0.10000000000E+01 0.  0.
         21    1    1    2  502  501 -0.43092408666E+02 -0.12981615122E+01 -0.15670819261E+03  0.16253030037E+03  0.00000000000E+00 0.  1.
<mgrwt>
<rscale>  1 0.13222369E+03</rscale>
<asrwt>0</asrwt>
<pdfrwt beam="1">  1        4 0.24862137E-02 0.13222369E+03</pdfrwt>
<pdfrwt beam="2">  1       -4 0.75308563E-01 0.13222369E+03</pdfrwt>
<totfact> 0.19283284E+03</totfact>
</mgrwt>
</event>
<event>
 6    4  0.2271823E-003  0.1280218E+03  0.7818608E-02  0.1230421E+00
         -4   -1    0    0    0  501 -0.00000000000E+00  0.00000000000E+00  0.31884691266E+02  0.31909973944E+02  0.12700000000E+01 0.  1.
          4   -1    0    0  502    0  0.00000000000E+00 -0.00000000000E+00 -0.19846061659E+03  0.19846468007E+03  0.12700000000E+01 0.  1.
         25    2    1    2    0    0 -0.20800104744E+02 -0.18243579512E+02 -0.15318338751E+03  0.19963652428E+03  0.12499647621E+03 0.  0.
    9000005    1    3    3    0    0  0.58644286189E+01  0.43951301666E+02 -0.16878836387E+02  0.47455279569E+02  0.10000000000E+01 0.  0.
    9000005    1    3    3    0    0 -0.26664533363E+02 -0.62194881179E+02 -0.13630455112E+03  0.15218124471E+03  0.10000000000E+01 0.  0.
         21    1    1    2  502  501  0.20800104744E+02  0.18243579512E+02 -0.13392537812E+02  0.30738129739E+02  0.00000000000E+00 0.  1.
<mgrwt>
<rscale>  1 0.12802184E+03</rscale>
<asrwt>0</asrwt>
<pdfrwt beam="2">  1        4 0.30534659E-01 0.12802184E+03</pdfrwt>
<pdfrwt beam="1">  1       -4 0.49075946E-02 0.12802184E+03</pdfrwt>
<totfact> 0.40821618E+03</totfact>
</mgrwt>
</event>
<event>
 6    4  0.2271823E-003  0.1274644E+03  0.7818608E-02  0.1231267E+00
         -4   -1    0    0    0  501 -0.00000000000E+00  0.00000000000E+00  0.15470846372E+03  0.15471367634E+03  0.12700000000E+01 0.  1.
          4   -1    0    0  502    0  0.00000000000E+00 -0.00000000000E+00 -0.37999120171E+02  0.38020337108E+02  0.12700000000E+01 0.  1.
         25    2    1    2    0    0  0.15469004392E+02 -0.19604050186E+02  0.89170503900E+02  0.15555879899E+03  0.12499420906E+03 0.  0.
    9000005    1    3    3    0    0  0.33509526670E+02 -0.44491302292E+02 -0.55375907507E+01  0.55982401419E+02  0.10000000000E+01 0.  0.
    9000005    1    3    3    0    0 -0.18040522278E+02  0.24887252106E+02  0.94708094651E+02  0.99576397574E+02  0.10000000000E+01 0.  0.
         21    1    1    2  502  501 -0.15469004392E+02  0.19604050186E+02  0.27538839648E+02  0.37175214454E+02  0.00000000000E+00 0. -1.
<mgrwt>
<rscale>  1 0.12746435E+03</rscale>
<asrwt>0</asrwt>
<pdfrwt beam="2">  1        4 0.58480516E-02 0.12746435E+03</pdfrwt>
<pdfrwt beam="1">  1       -4 0.23803335E-01 0.12746435E+03</pdfrwt>
<totfact> 0.48867557E+03</totfact>
</mgrwt>
</event>
<event>
 6    4  0.2271823E-003  0.1266350E+03  0.7818608E-02  0.1232536E+00
          4   -1    0    0  502    0  0.00000000000E+00  0.00000000000E+00  0.17119908592E+02  0.17166949939E+02  0.12700000000E+01 0.  1.
         -4   -1    0    0    0  501 -0.00000000000E+00 -0.00000000000E+00 -0.33961627270E+03  0.33961864729E+03  0.12700000000E+01 0.  1.
         25    2    1    2    0    0 -0.83580552257E+00  0.20235656309E+02 -0.23470800852E+03  0.26669133695E+03  0.12500495824E+03 0.  0.
    9000005    1    3    3    0    0  0.98168521740E+00  0.72623348224E+02 -0.15650894703E+03  0.17254322622E+03  0.10000000000E+01 0.  0.
    9000005    1    3    3    0    0 -0.18174907400E+01 -0.52387691915E+02 -0.78199061488E+02  0.94148110731E+02  0.10000000000E+01 0.  0.
         21    1    1    2  502  501  0.83580552257E+00 -0.20235656309E+02 -0.87788355589E+02  0.90094260273E+02  0.00000000000E+00 0.  1.
<mgrwt>
<rscale>  1 0.12663499E+03</rscale>
<asrwt>0</asrwt>
<pdfrwt beam="1">  1        4 0.26376336E-02 0.12663499E+03</pdfrwt>
<pdfrwt beam="2">  1       -4 0.52252454E-01 0.12663499E+03</pdfrwt>
<totfact> 0.37716502E+03</totfact>
</mgrwt>
</event>
<event>
 6    4  0.2271823E-003  0.1498709E+03  0.7818608E-02  0.1200632E+00
         -4   -1    0    0    0  501 -0.00000000000E+00  0.00000000000E+00  0.19948107223E+02  0.19988493735E+02  0.12700000000E+01 0.  1.
          4   -1    0    0  502    0  0.00000000000E+00 -0.00000000000E+00 -0.10001346155E+04  0.10001354219E+04  0.12700000000E+01 0.  1.
         25    2    1    2    0    0  0.14442056566E+02  0.81410778147E+02 -0.30435991747E+03  0.33925838653E+03  0.12500002270E+03 0.  0.
    9000005    1    3    3    0    0  0.48674365606E+02  0.92029777445E+02 -0.16293035506E+03  0.19335453034E+03  0.10000000000E+01 0.  0.
    9000005    1    3    3    0    0 -0.34232309040E+02 -0.10618999298E+02 -0.14142956240E+03  0.14590385619E+03  0.10000000000E+01 0.  0.
         21    1    1    2  502  501 -0.14442056566E+02 -0.81410778147E+02 -0.67582659085E+03  0.68086552909E+03  0.00000000000E+00 0.  1.
<mgrwt>
<rscale>  1 0.14987092E+03</rscale>
<asrwt>0</asrwt>
<pdfrwt beam="2">  1        4 0.15386999E+00 0.14987092E+03</pdfrwt>
<pdfrwt beam="1">  1       -4 0.30721090E-02 0.14987092E+03</pdfrwt>
<totfact> 0.26337100E+02</totfact>
</mgrwt>
</event>
<event>
 6    4  0.2271823E-003  0.1287378E+03  0.7818608E-02  0.1229341E+00
         -4   -1    0    0    0  501 -0.00000000000E+00  0.00000000000E+00  0.32095894484E+01  0.34517190539E+01  0.12700000000E+01 0.  1.
          4   -1    0    0  502    0  0.00000000000E+00 -0.00000000000E+00 -0.19222653134E+04  0.19222657329E+04  0.12700000000E+01 0.  1.
         25    2    1    2    0    0  0.22660568304E+02  0.20836291951E+02 -0.16061451650E+04  0.16112962849E+04  0.12500309679E+03 0.  0.
    9000005    1    3    3    0    0 -0.16089296053E+02  0.54621906509E+02 -0.12665999888E+04  0.12678797063E+04  0.10000000000E+01 0.  0.
    9000005    1    3    3    0    0  0.38749864357E+02 -0.33785614558E+02 -0.33954517625E+03  0.34341657859E+03  0.10000000000E+01 0.  0.
         21    1    1    2  502  501 -0.22660568304E+02 -0.20836291951E+02 -0.31291055892E+03  0.31442116707E+03  0.00000000000E+00 0.  1.
<mgrwt>
<rscale>  1 0.12873782E+03</rscale>
<asrwt>0</asrwt>
<pdfrwt beam="2">  1        4 0.29575090E+00 0.12873782E+03</pdfrwt>
<pdfrwt beam="1">  1       -4 0.51244215E-03 0.12873782E+03</pdfrwt>
<totfact> 0.52889331E+02</totfact>
</mgrwt>
</event>
<event>
 6    4  0.2271823E-003  0.1324259E+03  0.7818608E-02  0.1223900E+00
         -4   -1    0    0    0  501 -0.00000000000E+00  0.00000000000E+00  0.33537305234E+03  0.33537545697E+03  0.12700000000E+01 0. -1.
          4   -1    0    0  502    0  0.00000000000E+00 -0.00000000000E+00 -0.23113010773E+02  0.23147876080E+02  0.12700000000E+01 0. -1.
         25    2    1    2    0    0 -0.35380867158E+02 -0.25699199118E+02  0.23597944806E+03  0.27059732130E+03  0.12499742314E+03 0.  0.
    9000005    1    3    3    0    0 -0.30056328144E+02 -0.76003970279E+02  0.15064218781E+03  0.17138860846E+03  0.10000000000E+01 0.  0.
    9000005    1    3    3    0    0 -0.53245390141E+01  0.50304771161E+02  0.85337260243E+02  0.99208712839E+02  0.10000000000E+01 0.  0.
         21    1    1    2  502  501  0.35380867158E+02  0.25699199118E+02  0.76280593507E+02  0.87926011749E+02  0.00000000000E+00 0. -1.
<mgrwt>
<rscale>  1 0.13242587E+03</rscale>
<asrwt>0</asrwt>
<pdfrwt beam="2">  1        4 0.35587149E-02 0.13242587E+03</pdfrwt>
<pdfrwt beam="1">  1       -4 0.51598719E-01 0.13242587E+03</pdfrwt>
<totfact> 0.24469442E+03</totfact>
</mgrwt>
</event>
<event>
 6    4  0.2271823E-003  0.1278346E+03  0.7818608E-02  0.1230705E+00
          4   -1    0    0  502    0  0.00000000000E+00  0.00000000000E+00  0.28283424211E+02  0.28311923020E+02  0.12700000000E+01 0. -1.
         -4   -1    0    0    0  501 -0.00000000000E+00 -0.00000000000E+00 -0.21593093385E+03  0.21593466858E+03  0.12700000000E+01 0. -1.
         25    2    1    2    0    0 -0.34989303844E+00  0.26762710640E+02 -0.16769358944E+03  0.21086210362E+03  0.12500128679E+03 0.  0.
    9000005    1    3    3    0    0 -0.40034402557E+02  0.29518066149E+02 -0.16343847313E+03  0.17084262968E+03  0.10000000000E+01 0.  0.
    9000005    1    3    3    0    0  0.39684509519E+02 -0.27553555082E+01 -0.42551163077E+01  0.40019473941E+02  0.10000000000E+01 0.  0.
         21    1    1    2  502  501  0.34989303844E+00 -0.26762710640E+02 -0.19953920202E+02  0.33384487975E+02  0.00000000000E+00 0. -1.
<mgrwt>
<rscale>  1 0.12783461E+03</rscale>
<asrwt>0</asrwt>
<pdfrwt beam="1">  1        4 0.43537757E-02 0.12783461E+03</pdfrwt>
<pdfrwt beam="2">  1       -4 0.33222622E-01 0.12783461E+03</pdfrwt>
<totfact> 0.42087608E+03</totfact>
</mgrwt>
</event>
<event>
 6    4  0.2271823E-003  0.1305926E+03  0.7818608E-02  0.1226579E+00
         -4   -1    0    0    0  501 -0.00000000000E+00  0.00000000000E+00  0.43757574452E+02  0.43776000524E+02  0.12700000000E+01 0. -1.
          4   -1    0    0  502    0  0.00000000000E+00 -0.00000000000E+00 -0.19960381482E+03  0.19960785503E+03  0.12700000000E+01 0. -1.
         25    2    1    2    0    0  0.34348879964E+02  0.15778209638E+02 -0.15864431635E+03  0.20548099704E+03  0.12500249429E+03 0.  0.
    9000005    1    3    3    0    0 -0.25482442791E+02 -0.26599039653E+02 -0.76653736950E+01  0.37638036013E+02  0.10000000000E+01 0.  0.
    9000005    1    3    3    0    0  0.59831322756E+02  0.42377249291E+02 -0.15097894266E+03  0.16784296103E+03  0.10000000000E+01 0.  0.
         21    1    1    2  502  501 -0.34348879964E+02 -0.15778209638E+02  0.27980759885E+01  0.37902858513E+02  0.00000000000E+00 0. -1.
<mgrwt>
<rscale>  1 0.13059258E+03</rscale>
<asrwt>0</asrwt>
<pdfrwt beam="2">  1        4 0.30710007E-01 0.13059258E+03</pdfrwt>
<pdfrwt beam="1">  1       -4 0.67336628E-02 0.13059258E+03</pdfrwt>
<totfact> 0.24309619E+03</totfact>
</mgrwt>
</event>
<event>
 6    4  0.2271823E-003  0.1287567E+03  0.7818608E-02  0.1229312E+00
         -4   -1    0    0    0  501 -0.00000000000E+00  0.00000000000E+00  0.10437635921E+02  0.10514615714E+02  0.12700000000E+01 0. -1.
          4   -1    0    0  502    0  0.00000000000E+00 -0.00000000000E+00 -0.13165526734E+04  0.13165532860E+04  0.12700000000E+01 0. -1.
         25    2    1    2    0    0  0.29892598085E+02  0.77579429812E+01 -0.12804648221E+04  0.12869220844E+04  0.12499814968E+03 0.  0.
    9000005    1    3    3    0    0  0.38577600169E+02  0.26831681247E+02 -0.12437271161E+04  0.12446149242E+04  0.10000000000E+01 0.  0.
    9000005    1    3    3    0    0 -0.86850020840E+01 -0.19073738265E+02 -0.36737706032E+02  0.42307160116E+02  0.10000000000E+01 0.  0.
         21    1    1    2  502  501 -0.29892598085E+02 -0.77579429812E+01 -0.25650215382E+02  0.40145817325E+02  0.00000000000E+00 0. -1.
<mgrwt>
<rscale>  1 0.12875671E+03</rscale>
<asrwt>0</asrwt>
<pdfrwt beam="2">  1        4 0.20255240E+00 0.12875671E+03</pdfrwt>
<pdfrwt beam="1">  1       -4 0.16117598E-02 0.12875671E+03</pdfrwt>
<totfact> 0.33080499E+02</totfact>
</mgrwt>
</event>
<event>
 6    4  0.2271823E-003  0.1267414E+03  0.7818608E-02  0.1232373E+00
          4   -1    0    0  502    0  0.00000000000E+00  0.00000000000E+00  0.20961619989E+02  0.21000057442E+02  0.12700000000E+01 0.  1.
         -4   -1    0    0    0  501 -0.00000000000E+00 -0.00000000000E+00 -0.30133767276E+03  0.30134034898E+03  0.12700000000E+01 0.  1.
         25    2    1    2    0    0 -0.20156572019E+02  0.56388889780E+01 -0.18212613660E+03  0.22188578736E+03  0.12500115413E+03 0.  0.
    9000005    1    3    3    0    0 -0.92247606513E+01 -0.59379071465E+02 -0.75230440567E+02  0.96289093490E+02  0.10000000000E+01 0.  0.
    9000005    1    3    3    0    0 -0.10931811368E+02  0.65017960443E+02 -0.10689569603E+03  0.12559669387E+03  0.10000000000E+01 0.  0.
         21    1    1    2  502  501  0.20156572019E+02 -0.56388889780E+01 -0.98249916168E+02  0.10045461907E+03  0.00000000000E+00 0.  1.
<mgrwt>
<rscale>  1 0.12674136E+03</rscale>
<asrwt>0</asrwt>
<pdfrwt beam="1">  1        4 0.32280274E-02 0.12674136E+03</pdfrwt>
<pdfrwt beam="2">  1       -4 0.46362801E-01 0.12674136E+03</pdfrwt>
<totfact> 0.35071089E+03</totfact>
</mgrwt>
</event>
<event>
 6    4  0.2271823E-003  0.1276582E+03  0.7818608E-02  0.1230972E+00
         -4   -1    0    0    0  501 -0.00000000000E+00  0.00000000000E+00  0.30860183707E+03  0.30860445030E+03  0.12700000000E+01 0. -1.
          4   -1    0    0  502    0  0.00000000000E+00 -0.00000000000E+00 -0.35382339933E+02  0.35405125040E+02  0.12700000000E+01 0. -1.
         25    2    1    2    0    0  0.10345239204E+02  0.23757498518E+02  0.83528645023E+02  0.15255706925E+03  0.12500072852E+03 0.  0.
    9000005    1    3    3    0    0 -0.16167549648E+02 -0.23304281150E+02 -0.20720929931E+02  0.35140235041E+02  0.10000000000E+01 0.  0.
    9000005    1    3    3    0    0  0.26512788852E+02  0.47061779668E+02  0.10424957495E+03  0.11741683421E+03  0.10000000000E+01 0.  0.
         21    1    1    2  502  501 -0.10345239204E+02 -0.23757498518E+02  0.18969085212E+03  0.19145250609E+03  0.00000000000E+00 0.  1.
<mgrwt>
<rscale>  1 0.12765823E+03</rscale>
<asrwt>0</asrwt>
<pdfrwt beam="2">  1        4 0.54453909E-02 0.12765823E+03</pdfrwt>
<pdfrwt beam="1">  1       -4 0.47479157E-01 0.12765823E+03</pdfrwt>
<totfact> 0.14577249E+03</totfact>
</mgrwt>
</event>
<event>
 6    4  0.2271823E-003  0.1273216E+03  0.7818608E-02  0.1231485E+00
         -4   -1    0    0    0  501 -0.00000000000E+00  0.00000000000E+00  0.31570178982E+02  0.31595713332E+02  0.12700000000E+01 0.  1.
          4   -1    0    0  502    0  0.00000000000E+00 -0.00000000000E+00 -0.18642870084E+03  0.18643302657E+03  0.12700000000E+01 0.  1.
         25    2    1    2    0    0  0.17321509791E+02 -0.16909767642E+02 -0.14161721560E+03  0.19043694521E+03  0.12499927761E+03 0.  0.
    9000005    1    3    3    0    0  0.24842761010E+02  0.20436526217E+02 -0.14829484802E+03  0.15174708013E+03  0.10000000000E+01 0.  0.
    9000005    1    3    3    0    0 -0.75212512192E+01 -0.37346293859E+02  0.66776324238E+01  0.38689865077E+02  0.10000000000E+01 0.  0.
         21    1    1    2  502  501 -0.17321509791E+02  0.16909767642E+02 -0.13241306260E+02  0.27591794697E+02  0.00000000000E+00 0. -1.
<mgrwt>
<rscale>  1 0.12732162E+03</rscale>
<asrwt>0</asrwt>
<pdfrwt beam="2">  1        4 0.28683635E-01 0.12732162E+03</pdfrwt>
<pdfrwt beam="1">  1       -4 0.48592477E-02 0.12732162E+03</pdfrwt>
<totfact> 0.46597360E+03</totfact>
</mgrwt>
</event>
<event>
 6    4  0.2271823E-003  0.1302033E+03  0.7818608E-02  0.1227154E+00
         -4   -1    0    0    0  501 -0.00000000000E+00  0.00000000000E+00  0.85614865584E+02  0.85624284575E+02  0.12700000000E+01 0. -1.
          4   -1    0    0  502    0  0.00000000000E+00 -0.00000000000E+00 -0.88756490678E+02  0.88765576309E+02  0.12700000000E+01 0. -1.
         25    2    1    2    0    0 -0.22691710005E+02 -0.28513669751E+02 -0.24007077861E+02  0.13239807377E+03  0.12499986834E+03 0.  0.
    9000005    1    3    3    0    0 -0.49764141319E+02 -0.48215560961E+02  0.24454459024E+02  0.73486261615E+02  0.10000000000E+01 0.  0.
    9000005    1    3    3    0    0  0.27072431314E+02  0.19701891210E+02 -0.48461536885E+02  0.58911812158E+02  0.10000000000E+01 0.  0.
         21    1    1    2  502  501  0.22691710005E+02  0.28513669751E+02  0.20865452767E+02  0.41991787111E+02  0.00000000000E+00 0. -1.
<mgrwt>
<rscale>  1 0.13020334E+03</rscale>
<asrwt>0</asrwt>
<pdfrwt beam="2">  1        4 0.13656268E-01 0.13020334E+03</pdfrwt>
<pdfrwt beam="1">  1       -4 0.13172941E-01 0.13020334E+03</pdfrwt>
<totfact> 0.34050834E+03</totfact>
</mgrwt>
</event>
<event>
 6    4  0.2271823E-003  0.1274567E+03  0.7818608E-02  0.1231279E+00
          4   -1    0    0  502    0  0.00000000000E+00  0.00000000000E+00  0.17349681373E+03  0.17350146188E+03  0.12700000000E+01 0. -1.
         -4   -1    0    0    0  501 -0.00000000000E+00 -0.00000000000E+00 -0.33490603418E+02  0.33514674656E+02  0.12700000000E+01 0. -1.
         25    2    1    2    0    0 -0.21502983315E+02 -0.12564057868E+02  0.11386309674E+03  0.17090940269E+03  0.12499994115E+03 0.  0.
    9000005    1    3    3    0    0 -0.53956225340E+02 -0.38452958508E+01  0.12441842966E+03  0.13567242237E+03  0.10000000000E+01 0.  0.
    9000005    1    3    3    0    0  0.32453242025E+02 -0.87187620177E+01 -0.10555332921E+02  0.35236980321E+02  0.10000000000E+01 0.  0.
         21    1    1    2  502  501  0.21502983315E+02  0.12564057868E+02  0.26143113575E+02  0.36106733845E+02  0.00000000000E+00 0. -1.
<mgrwt>
<rscale>  1 0.12745673E+03</rscale>
<asrwt>0</asrwt>
<pdfrwt beam="1">  1        4 0.26694026E-01 0.12745673E+03</pdfrwt>
<pdfrwt beam="2">  1       -4 0.51546099E-02 0.12745673E+03</pdfrwt>
<totfact> 0.48488023E+03</totfact>
</mgrwt>
</event>
<event>
 6    4  0.2271823E-003  0.1274220E+03  0.7818608E-02  0.1231332E+00
         -4   -1    0    0    0  501 -0.00000000000E+00  0.00000000000E+00  0.12808155573E+03  0.12808785196E+03  0.12700000000E+01 0.  1.
          4   -1    0    0  502    0  0.00000000000E+00 -0.00000000000E+00 -0.12006453881E+03  0.12007125543E+03  0.12700000000E+01 0.  1.
         25    2    1    2    0    0 -0.23578929099E+02 -0.74482059192E+01 -0.84170897968E+02  0.15271250807E+03  0.12499971355E+03 0.  0.
    9000005    1    3    3    0    0  0.13542959317E+02  0.31216664501E+02  0.17123411049E+02  0.38106470521E+02  0.10000000000E+01 0.  0.
    9000005    1    3    3    0    0 -0.37121888416E+02 -0.38664870420E+02 -0.10129430902E+03  0.11460603755E+03  0.10000000000E+01 0.  0.
         21    1    1    2  502  501  0.23578929099E+02  0.74482059192E+01  0.92187914886E+02  0.95446599311E+02  0.00000000000E+00 0.  1.
<mgrwt>
<rscale>  1 0.12742202E+03</rscale>
<asrwt>0</asrwt>
<pdfrwt beam="2">  1        4 0.18472469E-01 0.12742202E+03</pdfrwt>
<pdfrwt beam="1">  1       -4 0.19705856E-01 0.12742202E+03</pdfrwt>
<totfact> 0.98287753E+02</totfact>
</mgrwt>
</event>
<event>
 6    4  0.2271823E-003  0.1270892E+03  0.7818608E-02  0.1231840E+00
         -4   -1    0    0    0  501 -0.00000000000E+00  0.00000000000E+00  0.12234860389E+03  0.12235519512E+03  0.12700000000E+01 0. -1.
          4   -1    0    0  502    0  0.00000000000E+00 -0.00000000000E+00 -0.51145879087E+02  0.51161644301E+02  0.12700000000E+01 0. -1.
         25    2    1    2    0    0 -0.22574433058E+02  0.39711347474E+01  0.37039235657E+02  0.13237660450E+03  0.12500514190E+03 0.  0.
    9000005    1    3    3    0    0  0.51941896293E+02  0.55836505217E+01  0.10819530093E+02  0.53359160180E+02  0.10000000000E+01 0.  0.
    9000005    1    3    3    0    0 -0.74516329351E+02 -0.16125157742E+01  0.26219705563E+02  0.79017444320E+02  0.10000000000E+01 0.  0.
         21    1    1    2  502  501  0.22574433058E+02 -0.39711347474E+01  0.34163489142E+02  0.41140234922E+02  0.00000000000E+00 0. -1.
<mgrwt>
<rscale>  1 0.12708918E+03</rscale>
<asrwt>0</asrwt>
<pdfrwt beam="2">  1        4 0.78703166E-02 0.12708918E+03</pdfrwt>
<pdfrwt beam="1">  1       -4 0.18824582E-01 0.12708918E+03</pdfrwt>
<totfact> 0.45915327E+03</totfact>
</mgrwt>
</event>
<event>
 6    4  0.2271823E-003  0.1271251E+03  0.7818608E-02  0.1231785E+00
         -4   -1    0    0    0  501 -0.00000000000E+00  0.00000000000E+00  0.10481251055E+04  0.10481258749E+04  0.12700000000E+01 0.  1.
          4   -1    0    0  502    0  0.00000000000E+00 -0.00000000000E+00 -0.60382193789E+01  0.61703316984E+01  0.12700000000E+01 0.  1.
         25    2    1    2    0    0  0.60874701706E-01 -0.23154258388E+02  0.70168327414E+03  0.71310602148E+03  0.12499862908E+03 0.  0.
    9000005    1    3    3    0    0 -0.46630304977E+02 -0.44253657041E+02  0.53148729209E+03  0.53536203934E+03  0.10000000000E+01 0.  0.
    9000005    1    3    3    0    0  0.46691179679E+02  0.21099398653E+02  0.17019598204E+03  0.17774398214E+03  0.10000000000E+01 0.  0.
         21    1    1    2  502  501 -0.60874701706E-01  0.23154258388E+02  0.34040361194E+03  0.34119018510E+03  0.00000000000E+00 0. -1.
<mgrwt>
<rscale>  1 0.12712506E+03</rscale>
<asrwt>0</asrwt>
<pdfrwt beam="2">  1        4 0.93917888E-03 0.12712506E+03</pdfrwt>
<pdfrwt beam="1">  1       -4 0.16126017E+00 0.12712506E+03</pdfrwt>
<totfact> 0.13915488E+03</totfact>
</mgrwt>
</event>
<event>
 6    4  0.2271823E-003  0.1270429E+03  0.7818608E-02  0.1231911E+00
          4   -1    0    0  502    0  0.00000000000E+00  0.00000000000E+00  0.16473538749E+02  0.16522420492E+02  0.12700000000E+01 0. -1.
         -4   -1    0    0    0  501 -0.00000000000E+00 -0.00000000000E+00 -0.34845376343E+03  0.34845607779E+03  0.12700000000E+01 0. -1.
         25    2    1    2    0    0  0.22668482951E+02  0.10649195059E+01 -0.29974498634E+03  0.32555636283E+03  0.12499957747E+03 0.  0.
    9000005    1    3    3    0    0  0.62230618695E+02 -0.30750379454E+02 -0.22281800986E+03  0.23338187860E+03  0.10000000000E+01 0.  0.
    9000005    1    3    3    0    0 -0.39562135744E+02  0.31815298959E+02 -0.76926976478E+02  0.92174484228E+02  0.10000000000E+01 0.  0.
         21    1    1    2  502  501 -0.22668482951E+02 -0.10649195059E+01 -0.32235238339E+02  0.39422135453E+02  0.00000000000E+00 0. -1.
<mgrwt>
<rscale>  1 0.12704286E+03</rscale>
<asrwt>0</asrwt>
<pdfrwt beam="1">  1        4 0.25383290E-02 0.12704286E+03</pdfrwt>
<pdfrwt beam="2">  1       -4 0.53612204E-01 0.12704286E+03</pdfrwt>
<totfact> 0.38007680E+03</totfact>
</mgrwt>
</event>
<event>
 6    4  0.2271823E-003  0.1268000E+03  0.7818608E-02  0.1232283E+00
          4   -1    0    0  502    0  0.00000000000E+00  0.00000000000E+00  0.16486094817E+03  0.16486583980E+03  0.12700000000E+01 0. -1.
         -4   -1    0    0    0  501 -0.00000000000E+00 -0.00000000000E+00 -0.36449849509E+02  0.36471967719E+02  0.12700000000E+01 0. -1.
         25    2    1    2    0    0  0.14336469214E+02  0.15761210837E+02  0.12778850726E+03  0.18002260785E+03  0.12499714650E+03 0.  0.
    9000005    1    3    3    0    0  0.50709983141E+02 -0.22043562118E+02  0.11251819340E+03  0.12537449847E+03  0.10000000000E+01 0.  0.
    9000005    1    3    3    0    0 -0.36373513927E+02  0.37804772955E+02  0.15270313866E+02  0.54648109384E+02  0.10000000000E+01 0.  0.
         21    1    1    2  502  501 -0.14336469214E+02 -0.15761210837E+02  0.62259139703E+00  0.21315199661E+02  0.00000000000E+00 0. -1.
<mgrwt>
<rscale>  1 0.12679999E+03</rscale>
<asrwt>0</asrwt>
<pdfrwt beam="1">  1        4 0.25365300E-01 0.12679999E+03</pdfrwt>
<pdfrwt beam="2">  1       -4 0.56097469E-02 0.12679999E+03</pdfrwt>
<totfact> 0.46441640E+03</totfact>
</mgrwt>
</event>
<event>
 6    4  0.2271823E-003  0.1268958E+03  0.7818608E-02  0.1232136E+00
          4   -1    0    0  502    0  0.00000000000E+00  0.00000000000E+00  0.37690283290E+03  0.37690497257E+03  0.12700000000E+01 0.  1.
         -4   -1    0    0    0  501 -0.00000000000E+00 -0.00000000000E+00 -0.22814226497E+02  0.22849547712E+02  0.12700000000E+01 0.  1.
         25    2    1    2    0    0  0.53736458236E+00 -0.21821275492E+02  0.35590578787E+03  0.37785111933E+03  0.12500432679E+03 0.  0.
    9000005    1    3    3    0    0 -0.15931428102E+02  0.28992382222E+02  0.29493097311E+03  0.29678215500E+03  0.10000000000E+01 0.  0.
    9000005    1    3    3    0    0  0.16468792684E+02 -0.50813657713E+02  0.60974814760E+02  0.81068964331E+02  0.10000000000E+01 0.  0.
         21    1    1    2  502  501 -0.53736458236E+00  0.21821275492E+02 -0.18171814634E+01  0.21903400952E+02  0.00000000000E+00 0. -1.
<mgrwt>
<rscale>  1 0.12689578E+03</rscale>
<asrwt>0</asrwt>
<pdfrwt beam="1">  1        4 0.57987934E-01 0.12689578E+03</pdfrwt>
<pdfrwt beam="2">  1       -4 0.35127625E-02 0.12689578E+03</pdfrwt>
<totfact> 0.19430718E+03</totfact>
</mgrwt>
</event>
<event>
 6    4  0.2271823E-003  0.1298783E+03  0.7818608E-02  0.1227636E+00
          4   -1    0    0  502    0  0.00000000000E+00  0.00000000000E+00  0.50673555339E+02  0.50689467453E+02  0.12700000000E+01 0.  1.
         -4   -1    0    0    0  501 -0.00000000000E+00 -0.00000000000E+00 -0.14541390912E+03  0.14541945491E+03  0.12700000000E+01 0.  1.
         25    2    1    2    0    0 -0.80285373145E+01  0.34324720708E+02 -0.94903805939E+02  0.16085738935E+03  0.12500289382E+03 0.  0.
    9000005    1    3    3    0    0 -0.40733382962E+02 -0.34444842217E+02 -0.33192827992E+02  0.62836450194E+02  0.10000000000E+01 0.  0.
    9000005    1    3    3    0    0  0.32704845647E+02  0.68769562925E+02 -0.61710977947E+02  0.98020939155E+02  0.10000000000E+01 0.  0.
         21    1    1    2  502  501  0.80285373145E+01 -0.34324720708E+02  0.16345215793E+00  0.35251533012E+02  0.00000000000E+00 0.  1.
<mgrwt>
<rscale>  1 0.12987828E+03</rscale>
<asrwt>0</asrwt>
<pdfrwt beam="1">  1        4 0.77975823E-02 0.12987828E+03</pdfrwt>
<pdfrwt beam="2">  1       -4 0.22373021E-01 0.12987828E+03</pdfrwt>
<totfact> 0.34338644E+03</totfact>
</mgrwt>
</event>
<event>
 6    4  0.2271823E-003  0.1764522E+03  0.7818608E-02  0.1171281E+00
          4   -1    0    0  502    0  0.00000000000E+00  0.00000000000E+00  0.11596301615E+04  0.11596308569E+04  0.12700000000E+01 0. -1.
         -4   -1    0    0    0  501 -0.00000000000E+00 -0.00000000000E+00 -0.21171227492E+02  0.21209285078E+02  0.12700000000E+01 0. -1.
         25    2    1    2    0    0  0.11671247477E+03  0.43477259499E+02  0.82260970739E+03  0.84132164795E+03  0.12499324281E+03 0.  0.
    9000005    1    3    3    0    0 -0.12439261931E+02  0.34903291625E+02  0.32674987385E+03  0.32884564018E+03  0.10000000000E+01 0.  0.
    9000005    1    3    3    0    0  0.12915173670E+03  0.85739678740E+01  0.49585983354E+03  0.51247600777E+03  0.10000000000E+01 0.  0.
         21    1    1    2  502  501 -0.11671247477E+03 -0.43477259499E+02  0.31584922660E+03  0.33951849405E+03  0.00000000000E+00 0. -1.
<mgrwt>
<rscale>  1 0.17645222E+03</rscale>
<asrwt>0</asrwt>
<pdfrwt beam="1">  1        4 0.17840763E+00 0.17645222E+03</pdfrwt>
<pdfrwt beam="2">  1       -4 0.32600928E-02 0.17645222E+03</pdfrwt>
<totfact> 0.16601815E+02</totfact>
</mgrwt>
</event>
<event>
 6    4  0.2271823E-003  0.1270977E+03  0.7818608E-02  0.1231827E+00
         -4   -1    0    0    0  501 -0.00000000000E+00  0.00000000000E+00  0.41658948920E+02  0.41678302809E+02  0.12700000000E+01 0. -1.
          4   -1    0    0  502    0  0.00000000000E+00 -0.00000000000E+00 -0.31199758520E+03  0.31200016998E+03  0.12700000000E+01 0. -1.
         25    2    1    2    0    0 -0.39822848601E+01  0.22655277642E+02 -0.29423358803E+03  0.32051088444E+03  0.12499881008E+03 0.  0.
    9000005    1    3    3    0    0 -0.15730594402E+02  0.28666481669E+02 -0.30291922231E+03  0.30468060985E+03  0.10000000000E+01 0.  0.
    9000005    1    3    3    0    0  0.11748309542E+02 -0.60112040268E+01  0.86856342789E+01  0.15830274596E+02  0.10000000000E+01 0.  0.
         21    1    1    2  502  501  0.39822848601E+01 -0.22655277642E+02  0.23894951752E+02  0.33167588351E+02  0.00000000000E+00 0. -1.
<mgrwt>
<rscale>  1 0.12709769E+03</rscale>
<asrwt>0</asrwt>
<pdfrwt beam="2">  1        4 0.48001314E-01 0.12709769E+03</pdfrwt>
<pdfrwt beam="1">  1       -4 0.64107569E-02 0.12709769E+03</pdfrwt>
<totfact> 0.10932634E+03</totfact>
</mgrwt>
</event>
<event>
 6    4  0.2271823E-003  0.1270321E+03  0.7818608E-02  0.1231927E+00
          4   -1    0    0  502    0  0.00000000000E+00  0.00000000000E+00  0.28802624617E+02  0.28830610206E+02  0.12700000000E+01 0. -1.
         -4   -1    0    0    0  501 -0.00000000000E+00 -0.00000000000E+00 -0.20774098837E+03  0.20774487033E+03  0.12700000000E+01 0. -1.
         25    2    1    2    0    0 -0.13639796763E+02 -0.18077776729E+02 -0.17002191449E+03  0.21223717462E+03  0.12499726724E+03 0.  0.
    9000005    1    3    3    0    0  0.24059571513E+02 -0.49920744999E+01 -0.17055136835E+03  0.17231527221E+03  0.10000000000E+01 0.  0.
    9000005    1    3    3    0    0 -0.37699368276E+02 -0.13085702229E+02  0.52945385850E+00  0.39921902418E+02  0.10000000000E+01 0.  0.
         21    1    1    2  502  501  0.13639796763E+02  0.18077776729E+02 -0.89164492587E+01  0.24338305911E+02  0.00000000000E+00 0. -1.
<mgrwt>
<rscale>  1 0.12703215E+03</rscale>
<asrwt>0</asrwt>
<pdfrwt beam="1">  1        4 0.44336245E-02 0.12703215E+03</pdfrwt>
<pdfrwt beam="2">  1       -4 0.31962602E-01 0.12703215E+03</pdfrwt>
<totfact> 0.43947768E+03</totfact>
</mgrwt>
</event>
<event>
 6    4  0.2271823E-003  0.1335953E+03  0.7818608E-02  0.1222216E+00
         -4   -1    0    0    0  501 -0.00000000000E+00  0.00000000000E+00  0.65735982543E+03  0.65736105223E+03  0.12700000000E+01 0.  1.
          4   -1    0    0  502    0  0.00000000000E+00 -0.00000000000E+00 -0.23563453896E+02  0.23597653686E+02  0.12700000000E+01 0.  1.
         25    2    1    2    0    0 -0.30297429334E+02  0.36131122257E+02  0.17711773078E+03  0.22185221158E+03  0.12499728400E+03 0.  0.
    9000005    1    3    3    0    0  0.19817680540E+02  0.54560822989E+02  0.30019042949E+02  0.65358754630E+02  0.10000000000E+01 0.  0.
    9000005    1    3    3    0    0 -0.50115109874E+02 -0.18429700732E+02  0.14709868783E+03  0.15649345695E+03  0.10000000000E+01 0.  0.
         21    1    1    2  502  501  0.30297429334E+02 -0.36131122257E+02  0.45667864075E+03  0.45910649434E+03  0.00000000000E+00 0.  1.
<mgrwt>
<rscale>  1 0.13359533E+03</rscale>
<asrwt>0</asrwt>
<pdfrwt beam="2">  1        4 0.36278717E-02 0.13359533E+03</pdfrwt>
<pdfrwt beam="1">  1       -4 0.10113501E+00 0.13359533E+03</pdfrwt>
<totfact> 0.55123847E+02</totfact>
</mgrwt>
</event>
<event>
 6    4  0.2271823E-003  0.1354319E+03  0.7818608E-02  0.1219611E+00
         -4   -1    0    0    0  501 -0.00000000000E+00  0.00000000000E+00  0.40200540899E+03  0.40200741505E+03  0.12700000000E+01 0. -1.
          4   -1    0    0  502    0  0.00000000000E+00 -0.00000000000E+00 -0.28366801312E+02  0.28395216440E+02  0.12700000000E+01 0. -1.
         25    2    1    2    0    0  0.30511833650E+02  0.42256952435E+02  0.15589045566E+03  0.20650336903E+03  0.12500074094E+03 0.  0.
    9000005    1    3    3    0    0  0.79279804176E+02  0.22897229448E+02  0.10316353365E+03  0.13211088199E+03  0.10000000000E+01 0.  0.
    9000005    1    3    3    0    0 -0.48767970526E+02  0.19359722987E+02  0.52726922011E+02  0.74392487041E+02  0.10000000000E+01 0.  0.
         21    1    1    2  502  501 -0.30511833650E+02 -0.42256952435E+02  0.21774815202E+03  0.22389926246E+03  0.00000000000E+00 0. -1.
<mgrwt>
<rscale>  1 0.13543193E+03</rscale>
<asrwt>0</asrwt>
<pdfrwt beam="2">  1        4 0.43664636E-02 0.13543193E+03</pdfrwt>
<pdfrwt beam="1">  1       -4 0.61849323E-01 0.13543193E+03</pdfrwt>
<totfact> 0.12197070E+03</totfact>
</mgrwt>
</event>
<event>
 6    4  0.2271823E-003  0.1276082E+03  0.7818608E-02  0.1231049E+00
         -4   -1    0    0    0  501 -0.00000000000E+00  0.00000000000E+00  0.33339566998E+02  0.33363747206E+02  0.12700000000E+01 0. -1.
          4   -1    0    0  502    0  0.00000000000E+00 -0.00000000000E+00 -0.17857199192E+03  0.17857650797E+03  0.12700000000E+01 0. -1.
         25    2    1    2    0    0 -0.25523999160E+02  0.28200932874E+01 -0.12958894648E+03  0.18187123662E+03  0.12499769678E+03 0.  0.
    9000005    1    3    3    0    0 -0.84751699606E+01  0.63142185895E+02 -0.77744572229E+02  0.10051856871E+03  0.10000000000E+01 0.  0.
    9000005    1    3    3    0    0 -0.17048829199E+02 -0.60322092607E+02 -0.51844374252E+02  0.81352667904E+02  0.10000000000E+01 0.  0.
         21    1    1    2  502  501  0.25523999160E+02 -0.28200932874E+01 -0.15643478443E+02  0.30069018558E+02  0.00000000000E+00 0. -1.
<mgrwt>
<rscale>  1 0.12760820E+03</rscale>
<asrwt>0</asrwt>
<pdfrwt beam="2">  1        4 0.27474821E-01 0.12760820E+03</pdfrwt>
<pdfrwt beam="1">  1       -4 0.51313717E-02 0.12760820E+03</pdfrwt>
<totfact> 0.46302320E+03</totfact>
</mgrwt>
</event>
<event>
 6    4  0.2271823E-003  0.1297368E+03  0.7818608E-02  0.1227847E+00
          4   -1    0    0  502    0  0.00000000000E+00  0.00000000000E+00  0.18454413206E+02  0.18498061163E+02  0.12700000000E+01 0. -1.
         -4   -1    0    0    0  501 -0.00000000000E+00 -0.00000000000E+00 -0.40660176862E+03  0.40660375200E+03  0.12700000000E+01 0. -1.
         25    2    1    2    0    0 -0.34664926896E+02 -0.34462878811E+01 -0.23902208325E+03  0.27196174378E+03  0.12497239590E+03 0.  0.
    9000005    1    3    3    0    0 -0.58435014488E+02  0.10130443256E+02 -0.41123336630E+02  0.72176212247E+02  0.10000000000E+01 0.  0.
    9000005    1    3    3    0    0  0.23770087592E+02 -0.13576731137E+02 -0.19789874662E+03  0.19978553153E+03  0.10000000000E+01 0.  0.
         21    1    1    2  502  501  0.34664926896E+02  0.34462878811E+01 -0.14912527216E+03  0.15314006939E+03  0.00000000000E+00 0. -1.
<mgrwt>
<rscale>  1 0.12973679E+03</rscale>
<asrwt>0</asrwt>
<pdfrwt beam="1">  1        4 0.28426509E-02 0.12973679E+03</pdfrwt>
<pdfrwt beam="2">  1       -4 0.62557622E-01 0.12973679E+03</pdfrwt>
<totfact> 0.23215382E+03</totfact>
</mgrwt>
</event>
<event>
 6    4  0.2271823E-003  0.1475115E+03  0.7818608E-02  0.1203565E+00
          4   -1    0    0  502    0  0.00000000000E+00  0.00000000000E+00  0.93382162632E+02  0.93390798251E+02  0.12700000000E+01 0. -1.
         -4   -1    0    0    0  501 -0.00000000000E+00 -0.00000000000E+00 -0.17499007627E+03  0.17499468476E+03  0.12700000000E+01 0. -1.
         25    2    1    2    0    0 -0.60519246149E+02 -0.49693280753E+02  0.10023920431E+02  0.14785169388E+03  0.12501057194E+03 0.  0.
    9000005    1    3    3    0    0 -0.22479789553E+02  0.19496017983E+02  0.50875621937E+02  0.58947133628E+02  0.10000000000E+01 0.  0.
    9000005    1    3    3    0    0 -0.38039456597E+02 -0.69189298736E+02 -0.40851701506E+02  0.88904560253E+02  0.10000000000E+01 0.  0.
         21    1    1    2  502  501  0.60519246149E+02  0.49693280753E+02 -0.91631834072E+02  0.12053378913E+03  0.00000000000E+00 0. -1.
<mgrwt>
<rscale>  1 0.14751151E+03</rscale>
<asrwt>0</asrwt>
<pdfrwt beam="1">  1        4 0.14367505E-01 0.14751151E+03</pdfrwt>
<pdfrwt beam="2">  1       -4 0.26922569E-01 0.14751151E+03</pdfrwt>
<totfact> 0.89115475E+02</totfact>
</mgrwt>
</event>
<event>
 6    4  0.2271823E-003  0.1277219E+03  0.7818608E-02  0.1230876E+00
         -4   -1    0    0    0  501 -0.00000000000E+00  0.00000000000E+00  0.21546067096E+02  0.21583463747E+02  0.12700000000E+01 0. -1.
          4   -1    0    0  502    0  0.00000000000E+00 -0.00000000000E+00 -0.38007526574E+03  0.38007738755E+03  0.12700000000E+01 0. -1.
         25    2    1    2    0    0  0.15958097515E+02  0.20810195451E+02 -0.35225648611E+03  0.37469657801E+03  0.12500067384E+03 0.  0.
    9000005    1    3    3    0    0  0.57838412035E+02 -0.18903489817E+02 -0.11056318568E+03  0.12620555401E+03  0.10000000000E+01 0.  0.
    9000005    1    3    3    0    0 -0.41880314520E+02  0.39713685268E+02 -0.24169330042E+03  0.24849102400E+03  0.10000000000E+01 0.  0.
         21    1    1    2  502  501 -0.15958097515E+02 -0.20810195451E+02 -0.62727125338E+01  0.26964273280E+02  0.00000000000E+00 0. -1.
<mgrwt>
<rscale>  1 0.12772194E+03</rscale>
<asrwt>0</asrwt>
<pdfrwt beam="2">  1        4 0.58476153E-01 0.12772194E+03</pdfrwt>
<pdfrwt beam="1">  1       -4 0.33178197E-02 0.12772194E+03</pdfrwt>
<totfact> 0.20920522E+03</totfact>
</mgrwt>
</event>
<event>
 6    4  0.2271823E-003  0.1310222E+03  0.7818608E-02  0.1225947E+00
         -4   -1    0    0    0  501 -0.00000000000E+00  0.00000000000E+00  0.37603645739E+02  0.37625085686E+02  0.12700000000E+01 0.  1.
          4   -1    0    0  502    0  0.00000000000E+00 -0.00000000000E+00 -0.21332283742E+03  0.21332661781E+03  0.12700000000E+01 0.  1.
         25    2    1    2    0    0 -0.38227535527E+02  0.89627665231E+01 -0.97124560010E+02  0.16309504874E+03  0.12500055645E+03 0.  0.
    9000005    1    3    3    0    0 -0.32923745081E+02 -0.53661529198E+02 -0.25852289059E+02  0.68065215460E+02  0.10000000000E+01 0.  0.
    9000005    1    3    3    0    0 -0.53037904455E+01  0.62624295721E+02 -0.71272270951E+02  0.95029833285E+02  0.10000000000E+01 0.  0.
         21    1    1    2  502  501  0.38227535527E+02 -0.89627665231E+01 -0.78594631673E+02  0.87856654751E+02  0.00000000000E+00 0.  1.
<mgrwt>
<rscale>  1 0.13102219E+03</rscale>
<asrwt>0</asrwt>
<pdfrwt beam="2">  1        4 0.32820837E-01 0.13102219E+03</pdfrwt>
<pdfrwt beam="1">  1       -4 0.57871164E-02 0.13102219E+03</pdfrwt>
<totfact> 0.27434342E+03</totfact>
</mgrwt>
</event>
<event>
 6    4  0.2271823E-003  0.1475585E+03  0.7818608E-02  0.1203506E+00
          4   -1    0    0  502    0  0.00000000000E+00  0.00000000000E+00  0.13271500621E+03  0.13272108262E+03  0.12700000000E+01 0.  1.
         -4   -1    0    0    0  501 -0.00000000000E+00 -0.00000000000E+00 -0.13210598465E+03  0.13211208907E+03  0.12700000000E+01 0.  1.
         25    2    1    2    0    0  0.71414686585E+02 -0.32398735684E+02  0.67024872034E+02  0.16206741510E+03  0.12499511204E+03 0.  0.
    9000005    1    3    3    0    0  0.47276072179E+02 -0.73031237063E+02  0.93642158697E+01  0.87505869097E+02  0.10000000000E+01 0.  0.
    9000005    1    3    3    0    0  0.24138614406E+02  0.40632501379E+02  0.57660656164E+02  0.74561546007E+02  0.10000000000E+01 0.  0.
         21    1    1    2  502  501 -0.71414686585E+02  0.32398735684E+02 -0.66415850472E+02  0.10276575659E+03  0.00000000000E+00 0.  1.
<mgrwt>
<rscale>  1 0.14755851E+03</rscale>
<asrwt>0</asrwt>
<pdfrwt beam="1">  1        4 0.20418630E-01 0.14755851E+03</pdfrwt>
<pdfrwt beam="2">  1       -4 0.20324935E-01 0.14755851E+03</pdfrwt>
<totfact> 0.80056619E+02</totfact>
</mgrwt>
</event>
<event>
 6    4  0.2271823E-003  0.1292074E+03  0.7818608E-02  0.1228636E+00
         -4   -1    0    0    0  501 -0.00000000000E+00  0.00000000000E+00  0.35622286314E+02  0.35644918042E+02  0.12700000000E+01 0.  1.
          4   -1    0    0  502    0  0.00000000000E+00 -0.00000000000E+00 -0.18834328179E+03  0.18834756355E+03  0.12700000000E+01 0.  1.
         25    2    1    2    0    0  0.21077368405E+02 -0.25023663849E+02 -0.13465394455E+03  0.18661792419E+03  0.12499650250E+03 0.  0.
    9000005    1    3    3    0    0 -0.54814247241E+01  0.43362041328E+02 -0.14922788020E+02  0.46195262175E+02  0.10000000000E+01 0.  0.
    9000005    1    3    3    0    0  0.26558793130E+02 -0.68385705177E+02 -0.11973115653E+03  0.14042266202E+03  0.10000000000E+01 0.  0.
         21    1    1    2  502  501 -0.21077368405E+02  0.25023663849E+02 -0.18067050927E+02  0.37374557396E+02  0.00000000000E+00 0.  1.
<mgrwt>
<rscale>  1 0.12920745E+03</rscale>
<asrwt>0</asrwt>
<pdfrwt beam="2">  1        4 0.28977959E-01 0.12920745E+03</pdfrwt>
<pdfrwt beam="1">  1       -4 0.54824221E-02 0.12920745E+03</pdfrwt>
<totfact> 0.37784937E+03</totfact>
</mgrwt>
</event>
<event>
 6    4  0.2271823E-003  0.1383346E+03  0.7818608E-02  0.1215588E+00
         -4   -1    0    0    0  501 -0.00000000000E+00  0.00000000000E+00  0.39450908613E+03  0.39451113031E+03  0.12700000000E+01 0.  1.
          4   -1    0    0  502    0  0.00000000000E+00 -0.00000000000E+00 -0.25097746064E+02  0.25129857888E+02  0.12700000000E+01 0.  1.
         25    2    1    2    0    0  0.59132300585E+02  0.37019675612E+01  0.23393748509E+03  0.27177787949E+03  0.12500454116E+03 0.  0.
    9000005    1    3    3    0    0  0.81999453004E+02  0.42652058078E+02  0.14368049892E+03  0.17084552708E+03  0.10000000000E+01 0.  0.
    9000005    1    3    3    0    0 -0.22867152419E+02 -0.38950090517E+02  0.90256986170E+02  0.10093235241E+03  0.10000000000E+01 0.  0.
         21    1    1    2  502  501 -0.59132300585E+02 -0.37019675612E+01  0.13547385497E+03  0.14786310871E+03  0.00000000000E+00 0.  1.
<mgrwt>
<rscale>  1 0.13833463E+03</rscale>
<asrwt>0</asrwt>
<pdfrwt beam="2">  1        4 0.38638195E-02 0.13833463E+03</pdfrwt>
<pdfrwt beam="1">  1       -4 0.60696327E-01 0.13833463E+03</pdfrwt>
<totfact> 0.15485515E+03</totfact>
</mgrwt>
</event>
<event>
 6    4  0.2271823E-003  0.1273055E+03  0.7818608E-02  0.1231510E+00
          4   -1    0    0  502    0  0.00000000000E+00  0.00000000000E+00  0.33975684658E+03  0.33975922018E+03  0.12700000000E+01 0.  1.
         -4   -1    0    0    0  501 -0.00000000000E+00 -0.00000000000E+00 -0.22172319997E+02  0.22208662140E+02  0.12700000000E+01 0.  1.
         25    2    1    2    0    0 -0.31448280837E+01  0.23911233679E+02  0.31233919926E+03  0.33728690790E+03  0.12500018323E+03 0.  0.
    9000005    1    3    3    0    0 -0.83103288129E+01  0.73207859215E+02  0.22621031099E+03  0.23790871571E+03  0.10000000000E+01 0.  0.
    9000005    1    3    3    0    0  0.51655007293E+01 -0.49296625535E+02  0.86128888269E+02  0.99378192182E+02  0.10000000000E+01 0.  0.
         21    1    1    2  502  501  0.31448280837E+01 -0.23911233679E+02  0.52453273245E+01  0.24680974423E+02  0.00000000000E+00 0.  1.
<mgrwt>
<rscale>  1 0.12730547E+03</rscale>
<asrwt>0</asrwt>
<pdfrwt beam="1">  1        4 0.52273264E-01 0.12730547E+03</pdfrwt>
<pdfrwt beam="2">  1       -4 0.34141042E-02 0.12730547E+03</pdfrwt>
<totfact> 0.25201135E+03</totfact>
</mgrwt>
</event>
<event>
 6    4  0.2271823E-003  0.1272950E+03  0.7818608E-02  0.1231526E+00
          4   -1    0    0  502    0  0.00000000000E+00  0.00000000000E+00  0.22722818422E+02  0.22758281505E+02  0.12700000000E+01 0. -1.
         -4   -1    0    0    0  501 -0.00000000000E+00 -0.00000000000E+00 -0.30316607990E+03  0.30316873998E+03  0.12700000000E+01 0. -1.
         25    2    1    2    0    0 -0.23625116508E+02  0.45631741494E+01 -0.16712769810E+03  0.21008494972E+03  0.12500019975E+03 0.  0.
    9000005    1    3    3    0    0  0.16311635837E+02  0.26960452938E+02 -0.16078705780E+03  0.16384875173E+03  0.10000000000E+01 0.  0.
    9000005    1    3    3    0    0 -0.39936752345E+02 -0.22397278788E+02 -0.63406402985E+01  0.46236197988E+02  0.10000000000E+01 0.  0.
         21    1    1    2  502  501  0.23625116508E+02 -0.45631741494E+01 -0.11331556337E+03  0.11584207176E+03  0.00000000000E+00 0. -1.
<mgrwt>
<rscale>  1 0.12729501E+03</rscale>
<asrwt>0</asrwt>
<pdfrwt beam="1">  1        4 0.34987510E-02 0.12729501E+03</pdfrwt>
<pdfrwt beam="2">  1       -4 0.46643865E-01 0.12729501E+03</pdfrwt>
<totfact> 0.30558260E+03</totfact>
</mgrwt>
</event>
<event>
 6    4  0.2271823E-003  0.1325407E+03  0.7818608E-02  0.1223734E+00
         -4   -1    0    0    0  501 -0.00000000000E+00  0.00000000000E+00  0.16022487897E+03  0.16022991213E+03  0.12700000000E+01 0. -1.
          4   -1    0    0  502    0  0.00000000000E+00 -0.00000000000E+00 -0.50716166231E+02  0.50732064980E+02  0.12700000000E+01 0. -1.
         25    2    1    2    0    0  0.38771387668E+02  0.20941021046E+02  0.62527625571E+02  0.14654948286E+03  0.12500120040E+03 0.  0.
    9000005    1    3    3    0    0  0.15285007389E+02  0.70483943836E+02  0.14323731820E+02  0.73537657583E+02  0.10000000000E+01 0.  0.
    9000005    1    3    3    0    0  0.23486380280E+02 -0.49542922790E+02  0.48203893751E+02  0.73011825275E+02  0.10000000000E+01 0.  0.
         21    1    1    2  502  501 -0.38771387668E+02 -0.20941021046E+02  0.46981087168E+02  0.64412494251E+02  0.00000000000E+00 0. -1.
<mgrwt>
<rscale>  1 0.13254074E+03</rscale>
<asrwt>0</asrwt>
<pdfrwt beam="2">  1        4 0.78040972E-02 0.13254074E+03</pdfrwt>
<pdfrwt beam="1">  1       -4 0.24651592E-01 0.13254074E+03</pdfrwt>
<totfact> 0.28852643E+03</totfact>
</mgrwt>
</event>
<event>
 6    4  0.2271823E-003  0.1379863E+03  0.7818608E-02  0.1216065E+00
         -4   -1    0    0    0  501 -0.00000000000E+00  0.00000000000E+00  0.23920461456E+02  0.23954151545E+02  0.12700000000E+01 0. -1.
          4   -1    0    0  502    0  0.00000000000E+00 -0.00000000000E+00 -0.46724026199E+03  0.46724198797E+03  0.12700000000E+01 0. -1.
         25    2    1    2    0    0 -0.26725940844E+02 -0.51972147375E+02 -0.38349247294E+03  0.40756188132E+03  0.12499932115E+03 0.  0.
    9000005    1    3    3    0    0  0.30376517996E+02 -0.44936840382E+02 -0.30745927379E+03  0.31220867622E+03  0.10000000000E+01 0.  0.
    9000005    1    3    3    0    0 -0.57102458839E+02 -0.70353069931E+01 -0.76033199150E+02  0.95353205101E+02  0.10000000000E+01 0.  0.
         21    1    1    2  502  501  0.26725940844E+02  0.51972147375E+02 -0.59827327597E+02  0.83634258197E+02  0.00000000000E+00 0. -1.
<mgrwt>
<rscale>  1 0.13798627E+03</rscale>
<asrwt>0</asrwt>
<pdfrwt beam="2">  1        4 0.71885835E-01 0.13798627E+03</pdfrwt>
<pdfrwt beam="1">  1       -4 0.36827957E-02 0.13798627E+03</pdfrwt>
<totfact> 0.11633764E+03</totfact>
</mgrwt>
</event>
<event>
 6    4  0.2271823E-003  0.1274170E+03  0.7818608E-02  0.1231340E+00
         -4   -1    0    0    0  501 -0.00000000000E+00  0.00000000000E+00  0.26752963792E+02  0.26783091152E+02  0.12700000000E+01 0. -1.
          4   -1    0    0  502    0  0.00000000000E+00 -0.00000000000E+00 -0.21638487523E+03  0.21638860213E+03  0.12700000000E+01 0. -1.
         25    2    1    2    0    0 -0.12179916582E+02 -0.21503877620E+02 -0.15560178917E+03  0.20111439495E+03  0.12499726374E+03 0.  0.
    9000005    1    3    3    0    0 -0.59926525711E+02  0.20159374667E+02 -0.66420815245E+02  0.91707761768E+02  0.10000000000E+01 0.  0.
    9000005    1    3    3    0    0  0.47746609129E+02 -0.41663252287E+02 -0.89180973923E+02  0.10940663318E+03  0.10000000000E+01 0.  0.
         21    1    1    2  502  501  0.12179916582E+02  0.21503877620E+02 -0.34030122274E+02  0.42057298328E+02  0.00000000000E+00 0. -1.
<mgrwt>
<rscale>  1 0.12741697E+03</rscale>
<asrwt>0</asrwt>
<pdfrwt beam="2">  1        4 0.33292584E-01 0.12741697E+03</pdfrwt>
<pdfrwt beam="1">  1       -4 0.41184449E-02 0.12741697E+03</pdfrwt>
<totfact> 0.45755872E+03</totfact>
</mgrwt>
</event>
<event>
 6    4  0.2271823E-003  0.1266076E+03  0.7818608E-02  0.1232578E+00
          4   -1    0    0  502    0  0.00000000000E+00  0.00000000000E+00  0.33467250948E+02  0.33491338970E+02  0.12700000000E+01 0.  1.
         -4   -1    0    0    0  501 -0.00000000000E+00 -0.00000000000E+00 -0.16457241719E+03  0.16457731740E+03  0.12700000000E+01 0.  1.
         25    2    1    2    0    0 -0.19474405372E+02 -0.47870278692E+01 -0.10130324040E+03  0.16214759173E+03  0.12500930721E+03 0.  0.
    9000005    1    3    3    0    0  0.24996587470E+02  0.12368723653E+02 -0.11017395158E+03  0.11365348352E+03  0.10000000000E+01 0.  0.
    9000005    1    3    3    0    0 -0.44470992842E+02 -0.17155751522E+02  0.88707111746E+01  0.48494108213E+02  0.10000000000E+01 0.  0.
         21    1    1    2  502  501  0.19474405372E+02  0.47870278692E+01 -0.29801925842E+02  0.35921064632E+02  0.00000000000E+00 0. -1.
<mgrwt>
<rscale>  1 0.12660764E+03</rscale>
<asrwt>0</asrwt>
<pdfrwt beam="1">  1        4 0.51510378E-02 0.12660764E+03</pdfrwt>
<pdfrwt beam="2">  1       -4 0.25321063E-01 0.12660764E+03</pdfrwt>
<totfact> 0.53439857E+03</totfact>
</mgrwt>
</event>
<event>
 6    4  0.2271823E-003  0.1278502E+03  0.7818608E-02  0.1230681E+00
         -4   -1    0    0    0  501 -0.00000000000E+00  0.00000000000E+00  0.61033120865E+02  0.61046332752E+02  0.12700000000E+01 0.  1.
          4   -1    0    0  502    0  0.00000000000E+00 -0.00000000000E+00 -0.10475375837E+03  0.10476145662E+03  0.12700000000E+01 0.  1.
         25    2    1    2    0    0 -0.26600076360E+02  0.36490603922E+01 -0.51532655554E+02  0.13784518344E+03  0.12499920122E+03 0.  0.
    9000005    1    3    3    0    0 -0.70640212281E+02 -0.25399095299E+02 -0.31074292108E+02  0.81251247764E+02  0.10000000000E+01 0.  0.
    9000005    1    3    3    0    0  0.44040135921E+02  0.29048155692E+02 -0.20458363445E+02  0.56593935681E+02  0.10000000000E+01 0.  0.
         21    1    1    2  502  501  0.26600076360E+02 -0.36490603922E+01  0.78120180486E+01  0.27962605924E+02  0.00000000000E+00 0.  1.
<mgrwt>
<rscale>  1 0.12785022E+03</rscale>
<asrwt>0</asrwt>
<pdfrwt beam="2">  1        4 0.16117571E-01 0.12785022E+03</pdfrwt>
<pdfrwt beam="1">  1       -4 0.93913194E-02 0.12785022E+03</pdfrwt>
<totfact> 0.45114627E+03</totfact>
</mgrwt>
</event>
<event>
 6    4  0.2271823E-003  0.1272318E+03  0.7818608E-02  0.1231622E+00
         -4   -1    0    0    0  501 -0.00000000000E+00  0.00000000000E+00  0.37785654164E+03  0.37785867591E+03  0.12700000000E+01 0. -1.
          4   -1    0    0  502    0  0.00000000000E+00 -0.00000000000E+00 -0.15139634828E+02  0.15192808915E+02  0.12700000000E+01 0. -1.
         25    2    1    2    0    0  0.17636745421E+02  0.15904396659E+02  0.29411799772E+03  0.32045799372E+03  0.12499569806E+03 0.  0.
    9000005    1    3    3    0    0 -0.41296692153E+02 -0.21341675911E+02  0.18664443638E+03  0.19234871860E+03  0.10000000000E+01 0.  0.
    9000005    1    3    3    0    0  0.58933437574E+02  0.37246072570E+02  0.10747356134E+03  0.12810927513E+03  0.10000000000E+01 0.  0.
         21    1    1    2  502  501 -0.17636745421E+02 -0.15904396659E+02  0.68598909091E+02  0.72593491103E+02  0.00000000000E+00 0. -1.
<mgrwt>
<rscale>  1 0.12723179E+03</rscale>
<asrwt>0</asrwt>
<pdfrwt beam="2">  1        4 0.23334293E-02 0.12723179E+03</pdfrwt>
<pdfrwt beam="1">  1       -4 0.58136025E-01 0.12723179E+03</pdfrwt>
<totfact> 0.36628718E+03</totfact>
</mgrwt>
</event>
<event>
 6    4  0.2271823E-003  0.1267644E+03  0.7818608E-02  0.1232337E+00
         -4   -1    0    0    0  501 -0.00000000000E+00  0.00000000000E+00  0.39183450052E+02  0.39204026043E+02  0.12700000000E+01 0.  1.
          4   -1    0    0  502    0  0.00000000000E+00 -0.00000000000E+00 -0.14103779160E+03  0.14104350945E+03  0.12700000000E+01 0.  1.
         25    2    1    2    0    0  0.19096504436E+02  0.89394895988E+01 -0.93721302205E+02  0.15764803805E+03  0.12499852182E+03 0.  0.
    9000005    1    3    3    0    0  0.83767433990E+01  0.53195048862E+02 -0.46301669205E+00  0.53861836562E+02  0.10000000000E+01 0.  0.
    9000005    1    3    3    0    0  0.10719761037E+02 -0.44255559263E+02 -0.93258285513E+02  0.10378620149E+03  0.10000000000E+01 0.  0.
         21    1    1    2  502  501 -0.19096504436E+02 -0.89394895988E+01 -0.81330393430E+01  0.22599497448E+02  0.00000000000E+00 0.  1.
<mgrwt>
<rscale>  1 0.12676443E+03</rscale>
<asrwt>0</asrwt>
<pdfrwt beam="2">  1        4 0.21700144E-01 0.12676443E+03</pdfrwt>
<pdfrwt beam="1">  1       -4 0.60302458E-02 0.12676443E+03</pdfrwt>
<totfact> 0.54958994E+03</totfact>
</mgrwt>
</event>
<event>
 6    4  0.2271823E-003  0.1309388E+03  0.7818608E-02  0.1226069E+00
         -4   -1    0    0    0  501 -0.00000000000E+00  0.00000000000E+00  0.17710997270E+03  0.17711452603E+03  0.12700000000E+01 0. -1.
          4   -1    0    0  502    0  0.00000000000E+00 -0.00000000000E+00 -0.45475458994E+02  0.45493189278E+02  0.12700000000E+01 0. -1.
         25    2    1    2    0    0 -0.38711715101E+02 -0.44261529025E+01  0.66869873231E+02  0.14702566471E+03  0.12500711349E+03 0.  0.
    9000005    1    3    3    0    0  0.10351653316E+02  0.34649751057E+01  0.91081206288E+02  0.91738481117E+02  0.10000000000E+01 0.  0.
    9000005    1    3    3    0    0 -0.49063368417E+02 -0.78911280082E+01 -0.24211333057E+02  0.55287183597E+02  0.10000000000E+01 0.  0.
         21    1    1    2  502  501  0.38711715101E+02  0.44261529025E+01  0.64764640473E+02  0.75582050589E+02  0.00000000000E+00 0. -1.
<mgrwt>
<rscale>  1 0.13093879E+03</rscale>
<asrwt>0</asrwt>
<pdfrwt beam="2">  1        4 0.69979386E-02 0.13093879E+03</pdfrwt>
<pdfrwt beam="1">  1       -4 0.27249402E-01 0.13093879E+03</pdfrwt>
<totfact> 0.28592565E+03</totfact>
</mgrwt>
</event>
<event>
 6    4  0.2271823E-003  0.1275189E+03  0.7818608E-02  0.1231184E+00
          4   -1    0    0  502    0  0.00000000000E+00  0.00000000000E+00  0.33826305603E+02  0.33850138120E+02  0.12700000000E+01 0. -1.
         -4   -1    0    0    0  501 -0.00000000000E+00 -0.00000000000E+00 -0.40642520250E+03  0.40642718675E+03  0.12700000000E+01 0. -1.
         25    2    1    2    0    0  0.19619466698E+01  0.25180996715E+02 -0.88881903134E+02  0.15543831002E+03  0.12499257453E+03 0.  0.
    9000005    1    3    3    0    0  0.62858430289E+02  0.85280062410E+01 -0.53946636726E+02  0.83277540567E+02  0.10000000000E+01 0.  0.
    9000005    1    3    3    0    0 -0.60896483619E+02  0.16652990473E+02 -0.34935266408E+02  0.72160769452E+02  0.10000000000E+01 0.  0.
         21    1    1    2  502  501 -0.19619466698E+01 -0.25180996715E+02 -0.28371699377E+03  0.28483901485E+03  0.00000000000E+00 0. -1.
<mgrwt>
<rscale>  1 0.12751892E+03</rscale>
<asrwt>0</asrwt>
<pdfrwt beam="1">  1        4 0.52060332E-02 0.12751892E+03</pdfrwt>
<pdfrwt beam="2">  1       -4 0.62528937E-01 0.12751892E+03</pdfrwt>
<totfact> 0.88767243E+02</totfact>
</mgrwt>
</event>
<event>
 6    4  0.2271823E-003  0.1267815E+03  0.7818608E-02  0.1232311E+00
          4   -1    0    0  502    0  0.00000000000E+00  0.00000000000E+00  0.25983915234E+03  0.25984225597E+03  0.12700000000E+01 0. -1.
         -4   -1    0    0    0  501 -0.00000000000E+00 -0.00000000000E+00 -0.22215508410E+02  0.22251780017E+02  0.12700000000E+01 0. -1.
         25    2    1    2    0    0  0.21171477562E+02  0.26926123209E+00  0.22246069115E+03  0.25605139594E+03  0.12500101716E+03 0.  0.
    9000005    1    3    3    0    0 -0.22584279826E+02  0.40754362475E+02  0.32143917930E+02  0.56614478854E+02  0.10000000000E+01 0.  0.
    9000005    1    3    3    0    0  0.43755757388E+02 -0.40485101243E+02  0.19031677322E+03  0.19943691709E+03  0.10000000000E+01 0.  0.
         21    1    1    2  502  501 -0.21171477562E+02 -0.26926123209E+00  0.15162952776E+02  0.26042640047E+02  0.00000000000E+00 0. -1.
<mgrwt>
<rscale>  1 0.12678154E+03</rscale>
<asrwt>0</asrwt>
<pdfrwt beam="1">  1        4 0.39978283E-01 0.12678154E+03</pdfrwt>
<pdfrwt beam="2">  1       -4 0.34207994E-02 0.12678154E+03</pdfrwt>
<totfact> 0.42977981E+03</totfact>
</mgrwt>
</event>
<event>
 6    4  0.2271823E-003  0.1274097E+03  0.7818608E-02  0.1231351E+00
          4   -1    0    0  502    0  0.00000000000E+00  0.00000000000E+00  0.39340652888E+02  0.39361146702E+02  0.12700000000E+01 0. -1.
         -4   -1    0    0    0  501 -0.00000000000E+00 -0.00000000000E+00 -0.14830979488E+03  0.14831523238E+03  0.12700000000E+01 0. -1.
         25    2    1    2    0    0  0.24563811734E+02  0.21198197765E+01 -0.97757033761E+02  0.16059158900E+03  0.12500138530E+03 0.  0.
    9000005    1    3    3    0    0 -0.22494005752E+02 -0.35524020610E+02  0.40799837142E+01  0.42256154607E+02  0.10000000000E+01 0.  0.
    9000005    1    3    3    0    0  0.47057817486E+02  0.37643840386E+02 -0.10183701748E+03  0.11833543440E+03  0.10000000000E+01 0.  0.
         21    1    1    2  502  501 -0.24563811734E+02 -0.21198197765E+01 -0.11212108228E+02  0.27084790080E+02  0.00000000000E+00 0.  1.
<mgrwt>
<rscale>  1 0.12740966E+03</rscale>
<asrwt>0</asrwt>
<pdfrwt beam="1">  1        4 0.60544029E-02 0.12740966E+03</pdfrwt>
<pdfrwt beam="2">  1       -4 0.22818886E-01 0.12740966E+03</pdfrwt>
<totfact> 0.49897811E+03</totfact>
</mgrwt>
</event>
<event>
 6    4  0.2271823E-003  0.2771750E+03  0.7818608E-02  0.1097242E+00
         -4   -1    0    0    0  501 -0.00000000000E+00  0.00000000000E+00  0.31185502249E+03  0.31185760846E+03  0.12700000000E+01 0.  1.
          4   -1    0    0  502    0  0.00000000000E+00 -0.00000000000E+00 -0.45263177315E+03  0.45263355484E+03  0.12700000000E+01 0.  1.
         25    2    1    2    0    0 -0.92228185090E+02  0.22955244606E+03 -0.34581045544E+03  0.44318261422E+03  0.12500237933E+03 0.  0.
    9000005    1    3    3    0    0 -0.98207420242E+02  0.11605803008E+03 -0.13334541833E+03  0.20222800085E+03  0.10000000000E+01 0.  0.
    9000005    1    3    3    0    0  0.59792351517E+01  0.11349441597E+03 -0.21246503711E+03  0.24095461337E+03  0.10000000000E+01 0.  0.
         21    1    1    2  502  501  0.92228185090E+02 -0.22955244606E+03  0.20503370478E+03  0.32130854908E+03  0.00000000000E+00 0.  1.
<mgrwt>
<rscale>  1 0.27717496E+03</rscale>
<asrwt>0</asrwt>
<pdfrwt beam="2">  1        4 0.69635994E-01 0.27717496E+03</pdfrwt>
<pdfrwt beam="1">  1       -4 0.47978032E-01 0.27717496E+03</pdfrwt>
<totfact> 0.14864661E+01</totfact>
</mgrwt>
</event>
<event>
 6    4  0.2271823E-003  0.1270393E+03  0.7818608E-02  0.1231916E+00
          4   -1    0    0  502    0  0.00000000000E+00  0.00000000000E+00  0.10953004233E+03  0.10953740490E+03  0.12700000000E+01 0. -1.
         -4   -1    0    0    0  501 -0.00000000000E+00 -0.00000000000E+00 -0.53981139526E+02  0.53996076937E+02  0.12700000000E+01 0. -1.
         25    2    1    2    0    0 -0.59683283632E+01 -0.21839667793E+02  0.59941959084E+02  0.14047072016E+03  0.12500557079E+03 0.  0.
    9000005    1    3    3    0    0  0.18027201902E+01 -0.60204549617E+02  0.76996225108E+02  0.97761220714E+02  0.10000000000E+01 0.  0.
    9000005    1    3    3    0    0 -0.77710485534E+01  0.38364881824E+02 -0.17054266024E+02  0.42709499442E+02  0.10000000000E+01 0.  0.
         21    1    1    2  502  501  0.59683283632E+01  0.21839667793E+02 -0.43930562838E+01  0.23062761679E+02  0.00000000000E+00 0. -1.
<mgrwt>
<rscale>  1 0.12703930E+03</rscale>
<asrwt>0</asrwt>
<pdfrwt beam="1">  1        4 0.16852491E-01 0.12703930E+03</pdfrwt>
<pdfrwt beam="2">  1       -4 0.83065061E-02 0.12703930E+03</pdfrwt>
<totfact> 0.51095688E+03</totfact>
</mgrwt>
</event>
<event>
 6    4  0.2271823E-003  0.1414280E+03  0.7818608E-02  0.1211420E+00
         -4   -1    0    0    0  501 -0.00000000000E+00  0.00000000000E+00  0.25315211557E+02  0.25347047879E+02  0.12700000000E+01 0. -1.
          4   -1    0    0  502    0  0.00000000000E+00 -0.00000000000E+00 -0.43525049994E+03  0.43525235278E+03  0.12700000000E+01 0. -1.
         25    2    1    2    0    0 -0.64357389965E+02 -0.15316643786E+02 -0.31018613669E+03  0.34090660019E+03  0.12500158974E+03 0.  0.
    9000005    1    3    3    0    0 -0.12932649023E+00 -0.48750405146E+02 -0.21952034220E+03  0.22487062806E+03  0.10000000000E+01 0.  0.
    9000005    1    3    3    0    0 -0.64228063475E+02  0.33433761359E+02 -0.90665794493E+02  0.11603597213E+03  0.10000000000E+01 0.  0.
         21    1    1    2  502  501  0.64357389965E+02  0.15316643786E+02 -0.99749151693E+02  0.11969280047E+03  0.00000000000E+00 0. -1.
<mgrwt>
<rscale>  1 0.14142797E+03</rscale>
<asrwt>0</asrwt>
<pdfrwt beam="2">  1        4 0.66964201E-01 0.14142797E+03</pdfrwt>
<pdfrwt beam="1">  1       -4 0.38972397E-02 0.14142797E+03</pdfrwt>
<totfact> 0.12456306E+03</totfact>
</mgrwt>
</event>
<event>
 6    4  0.2271823E-003  0.1279809E+03  0.7818608E-02  0.1230483E+00
         -4   -1    0    0    0  501 -0.00000000000E+00  0.00000000000E+00  0.56193828243E+01  0.57611078210E+01  0.12700000000E+01 0.  1.
          4   -1    0    0  502    0  0.00000000000E+00 -0.00000000000E+00 -0.10641476988E+04  0.10641484566E+04  0.12700000000E+01 0.  1.
         25    2    1    2    0    0 -0.12028539579E+02  0.24673284428E+02 -0.84938332047E+03  0.85897098128E+03  0.12500265939E+03 0.  0.
    9000005    1    3    3    0    0 -0.61862797468E+02 -0.58278398743E+01 -0.58015294873E+03  0.58347186166E+03  0.10000000000E+01 0.  0.
    9000005    1    3    3    0    0  0.49834257889E+02  0.30501124302E+02 -0.26923037174E+03  0.27549911962E+03  0.10000000000E+01 0.  0.
         21    1    1    2  502  501  0.12028539579E+02 -0.24673284428E+02 -0.20914499551E+03  0.21093858318E+03  0.00000000000E+00 0. -1.
<mgrwt>
<rscale>  1 0.12798094E+03</rscale>
<asrwt>0</asrwt>
<pdfrwt beam="2">  1        4 0.16372583E+00 0.12798094E+03</pdfrwt>
<pdfrwt beam="1">  1       -4 0.87548150E-03 0.12798094E+03</pdfrwt>
<totfact> 0.14881028E+03</totfact>
</mgrwt>
</event>
<event>
 6    4  0.2271823E-003  0.1320161E+03  0.7818608E-02  0.1224494E+00
         -4   -1    0    0    0  501 -0.00000000000E+00  0.00000000000E+00  0.33227906174E+02  0.33252167579E+02  0.12700000000E+01 0. -1.
          4   -1    0    0  502    0  0.00000000000E+00 -0.00000000000E+00 -0.23848200380E+03  0.23848538537E+03  0.12700000000E+01 0. -1.
         25    2    1    2    0    0  0.13816141501E+02 -0.40167185305E+02 -0.12974005223E+03  0.18509657192E+03  0.12499588491E+03 0.  0.
    9000005    1    3    3    0    0 -0.39497100448E+02  0.14827756571E+02 -0.10693184542E+02  0.43534210735E+02  0.10000000000E+01 0.  0.
    9000005    1    3    3    0    0  0.53313241948E+02 -0.54994941876E+02 -0.11904686769E+03  0.14156236119E+03  0.10000000000E+01 0.  0.
         21    1    1    2  502  501 -0.13816141501E+02  0.40167185305E+02 -0.75514045392E+02  0.86640981023E+02  0.00000000000E+00 0. -1.
<mgrwt>
<rscale>  1 0.13201613E+03</rscale>
<asrwt>0</asrwt>
<pdfrwt beam="2">  1        4 0.36691664E-01 0.13201613E+03</pdfrwt>
<pdfrwt beam="1">  1       -4 0.51141121E-02 0.13201613E+03</pdfrwt>
<totfact> 0.27069735E+03</totfact>
</mgrwt>
</event>
<event>
 6    4  0.2271823E-003  0.1268687E+03  0.7818608E-02  0.1232177E+00
          4   -1    0    0  502    0  0.00000000000E+00  0.00000000000E+00  0.22270110687E+02  0.22306293507E+02  0.12700000000E+01 0.  1.
         -4   -1    0    0    0  501 -0.00000000000E+00 -0.00000000000E+00 -0.25081442131E+03  0.25081763661E+03  0.12700000000E+01 0.  1.
         25    2    1    2    0    0 -0.18397840098E+02 -0.11481162869E+02 -0.20527163725E+03  0.24131331951E+03  0.12500150198E+03 0.  0.
    9000005    1    3    3    0    0 -0.39779819096E+02  0.46150895264E+02 -0.13389809080E+03  0.14711233076E+03  0.10000000000E+01 0.  0.
    9000005    1    3    3    0    0  0.21381978998E+02 -0.57632058132E+02 -0.71373546443E+02  0.94200988755E+02  0.10000000000E+01 0.  0.
         21    1    1    2  502  501  0.18397840098E+02  0.11481162869E+02 -0.23272673372E+02  0.31810610603E+02  0.00000000000E+00 0. -1.
<mgrwt>
<rscale>  1 0.12686872E+03</rscale>
<asrwt>0</asrwt>
<pdfrwt beam="1">  1        4 0.34292017E-02 0.12686872E+03</pdfrwt>
<pdfrwt beam="2">  1       -4 0.38589863E-01 0.12686872E+03</pdfrwt>
<totfact> 0.45890711E+03</totfact>
</mgrwt>
</event>
<event>
 6    4  0.2271823E-003  0.1266666E+03  0.7818608E-02  0.1232487E+00
         -4   -1    0    0    0  501 -0.00000000000E+00  0.00000000000E+00  0.43442852987E+02  0.43461412490E+02  0.12700000000E+01 0. -1.
          4   -1    0    0  502    0  0.00000000000E+00 -0.00000000000E+00 -0.24729238495E+03  0.24729564605E+03  0.12700000000E+01 0. -1.
         25    2    1    2    0    0  0.18028718554E+02  0.96846351719E+01 -0.22694375788E+03  0.25989980458E+03  0.12500244928E+03 0.  0.
    9000005    1    3    3    0    0 -0.13589408559E+02  0.30052363234E+02 -0.33546846516E+01  0.33167310262E+02  0.10000000000E+01 0.  0.
    9000005    1    3    3    0    0  0.31618127113E+02 -0.20367728062E+02 -0.22358907323E+03  0.22673249431E+03  0.10000000000E+01 0.  0.
         21    1    1    2  502  501 -0.18028718554E+02 -0.96846351719E+01  0.23094225922E+02  0.30857253961E+02  0.00000000000E+00 0.  1.
<mgrwt>
<rscale>  1 0.12666665E+03</rscale>
<asrwt>0</asrwt>
<pdfrwt beam="2">  1        4 0.38046660E-01 0.12666665E+03</pdfrwt>
<pdfrwt beam="1">  1       -4 0.66851945E-02 0.12666665E+03</pdfrwt>
<totfact> 0.16182250E+03</totfact>
</mgrwt>
</event>
<event>
 6    4  0.2271823E-003  0.1266193E+03  0.7818608E-02  0.1232560E+00
         -4   -1    0    0    0  501 -0.00000000000E+00  0.00000000000E+00  0.71202122736E+02  0.71213448043E+02  0.12700000000E+01 0. -1.
          4   -1    0    0  502    0  0.00000000000E+00 -0.00000000000E+00 -0.88535837627E+02  0.88544945899E+02  0.12700000000E+01 0. -1.
         25    2    1    2    0    0 -0.17768683471E+01 -0.20102011555E+02 -0.36656778242E+02  0.13181865688E+03  0.12500076312E+03 0.  0.
    9000005    1    3    3    0    0  0.52085120628E+02  0.12787469311E+01 -0.50136270171E+02  0.72312796731E+02  0.10000000000E+01 0.  0.
    9000005    1    3    3    0    0 -0.53861988975E+02 -0.21380758486E+02  0.13479491928E+02  0.59505860152E+02  0.10000000000E+01 0.  0.
         21    1    1    2  502  501  0.17768683471E+01  0.20102011555E+02  0.19323063351E+02  0.27939737059E+02  0.00000000000E+00 0. -1.
<mgrwt>
<rscale>  1 0.12661927E+03</rscale>
<asrwt>0</asrwt>
<pdfrwt beam="2">  1        4 0.13622470E-01 0.12661927E+03</pdfrwt>
<pdfrwt beam="1">  1       -4 0.10955745E-01 0.12661927E+03</pdfrwt>
<totfact> 0.46532942E+03</totfact>
</mgrwt>
</event>
<event>
 6    4  0.2271823E-003  0.1273029E+03  0.7818608E-02  0.1231514E+00
         -4   -1    0    0    0  501 -0.00000000000E+00  0.00000000000E+00  0.25610536697E+04  0.25610539846E+04  0.12700000000E+01 0. -1.
          4   -1    0    0  502    0  0.00000000000E+00 -0.00000000000E+00 -0.22473311798E+01  0.25813557352E+01  0.12700000000E+01 0. -1.
         25    2    1    2    0    0  0.80201669941E+01 -0.22732517393E+02  0.18257716519E+04  0.18302044014E+04  0.12499974197E+03 0.  0.
    9000005    1    3    3    0    0 -0.24930306298E+02  0.41660303051E+02  0.10324338638E+04  0.10335752436E+04  0.10000000000E+01 0.  0.
    9000005    1    3    3    0    0  0.32950473292E+02 -0.64392820444E+02  0.79333778807E+03  0.79662915776E+03  0.10000000000E+01 0.  0.
         21    1    1    2  502  501 -0.80201669941E+01  0.22732517393E+02  0.73303468662E+03  0.73343093895E+03  0.00000000000E+00 0. -1.
<mgrwt>
<rscale>  1 0.12730289E+03</rscale>
<asrwt>0</asrwt>
<pdfrwt beam="2">  1        4 0.37146411E-03 0.12730289E+03</pdfrwt>
<pdfrwt beam="1">  1       -4 0.39403139E+00 0.12730289E+03</pdfrwt>
<totfact> 0.21506025E+02</totfact>
</mgrwt>
</event>
<event>
 6    4  0.2271823E-003  0.1573962E+03  0.7818608E-02  0.1191668E+00
         -4   -1    0    0    0  501 -0.00000000000E+00  0.00000000000E+00  0.25264745059E+02  0.25296644895E+02  0.12700000000E+01 0.  1.
          4   -1    0    0  502    0  0.00000000000E+00 -0.00000000000E+00 -0.81008819946E+03  0.81008919497E+03  0.12700000000E+01 0.  1.
         25    2    1    2    0    0 -0.45772876308E+02 -0.83970915935E+02 -0.65789543996E+03  0.67646135535E+03  0.12500913739E+03 0.  0.
    9000005    1    3    3    0    0  0.19661154636E+02 -0.29062114628E+00 -0.35375303901E+03  0.35430051944E+03  0.10000000000E+01 0.  0.
    9000005    1    3    3    0    0 -0.65434030943E+02 -0.83680294789E+02 -0.30414240095E+03  0.32216083592E+03  0.10000000000E+01 0.  0.
         21    1    1    2  502  501  0.45772876308E+02  0.83970915935E+02 -0.12692801444E+03  0.15892448452E+03  0.00000000000E+00 0.  1.
<mgrwt>
<rscale>  1 0.15739617E+03</rscale>
<asrwt>0</asrwt>
<pdfrwt beam="2">  1        4 0.12463146E+00 0.15739617E+03</pdfrwt>
<pdfrwt beam="1">  1       -4 0.38894149E-02 0.15739617E+03</pdfrwt>
<totfact> 0.30978760E+02</totfact>
</mgrwt>
</event>
<event>
 6    4  0.2271823E-003  0.1273552E+03  0.7818608E-02  0.1231434E+00
          4   -1    0    0  502    0  0.00000000000E+00  0.00000000000E+00  0.10082646618E+03  0.10083446426E+03  0.12700000000E+01 0.  1.
         -4   -1    0    0    0  501 -0.00000000000E+00 -0.00000000000E+00 -0.74263146631E+02  0.74274005194E+02  0.12700000000E+01 0.  1.
         25    2    1    2    0    0  0.14491222193E+02 -0.19620551432E+02  0.54058316898E+02  0.13835338221E+03  0.12499758071E+03 0.  0.
    9000005    1    3    3    0    0  0.66776622943E+02 -0.90901373560E+01  0.51720729722E+02  0.84957529694E+02  0.10000000000E+01 0.  0.
    9000005    1    3    3    0    0 -0.52285400749E+02 -0.10530414076E+02  0.23375871762E+01  0.53395852516E+02  0.10000000000E+01 0.  0.
         21    1    1    2  502  501 -0.14491222193E+02  0.19620551432E+02 -0.27494997348E+02  0.36755087244E+02  0.00000000000E+00 0. -1.
<mgrwt>
<rscale>  1 0.12735524E+03</rscale>
<asrwt>0</asrwt>
<pdfrwt beam="1">  1        4 0.15513215E-01 0.12735524E+03</pdfrwt>
<pdfrwt beam="2">  1       -4 0.11426550E-01 0.12735524E+03</pdfrwt>
<totfact> 0.34612211E+03</totfact>
</mgrwt>
</event>
<event>
 6    4  0.2271823E-003  0.1887632E+03  0.7818608E-02  0.1159582E+00
          4   -1    0    0  502    0  0.00000000000E+00  0.00000000000E+00  0.46148136896E+03  0.46148311648E+03  0.12700000000E+01 0. -1.
         -4   -1    0    0    0  501 -0.00000000000E+00 -0.00000000000E+00 -0.66967286289E+02  0.66979327654E+02  0.12700000000E+01 0. -1.
         25    2    1    2    0    0 -0.11962925247E+03 -0.75461027263E+02  0.13222362013E+03  0.23046611627E+03  0.12500408131E+03 0.  0.
    9000005    1    3    3    0    0 -0.54969342248E+02 -0.92104973364E+02  0.35610440595E+02  0.11302237913E+03  0.10000000000E+01 0.  0.
    9000005    1    3    3    0    0 -0.64659910224E+02  0.16643946101E+02  0.96613179534E+02  0.11744373713E+03  0.10000000000E+01 0.  0.
         21    1    1    2  502  501  0.11962925247E+03  0.75461027263E+02  0.26229046254E+03  0.29799632787E+03  0.00000000000E+00 0. -1.
<mgrwt>
<rscale>  1 0.18876320E+03</rscale>
<asrwt>0</asrwt>
<pdfrwt beam="1">  1        4 0.70998195E-01 0.18876320E+03</pdfrwt>
<pdfrwt beam="2">  1       -4 0.10303720E-01 0.18876320E+03</pdfrwt>
<totfact> 0.23507957E+02</totfact>
</mgrwt>
</event>
<event>
 6    4  0.2271823E-003  0.1293088E+03  0.7818608E-02  0.1228485E+00
          4   -1    0    0  502    0  0.00000000000E+00  0.00000000000E+00  0.46409417972E+02  0.46426791581E+02  0.12700000000E+01 0. -1.
         -4   -1    0    0    0  501 -0.00000000000E+00 -0.00000000000E+00 -0.37749929880E+03  0.37750143509E+03  0.12700000000E+01 0. -1.
         25    2    1    2    0    0 -0.46530681604E+01 -0.32800121830E+02 -0.46498322670E+02  0.13741495645E+03  0.12499310865E+03 0.  0.
    9000005    1    3    3    0    0 -0.13738622724E+02  0.19409246453E+02  0.33716292598E+02  0.41270534147E+02  0.10000000000E+01 0.  0.
    9000005    1    3    3    0    0  0.90855545638E+01 -0.52209368283E+02 -0.80214615267E+02  0.96144422307E+02  0.10000000000E+01 0.  0.
         21    1    1    2  502  501  0.46530681604E+01  0.32800121830E+02 -0.28459155815E+03  0.28651327021E+03  0.00000000000E+00 0. -1.
<mgrwt>
<rscale>  1 0.12930884E+03</rscale>
<asrwt>0</asrwt>
<pdfrwt beam="1">  1        4 0.71414115E-02 0.12930884E+03</pdfrwt>
<pdfrwt beam="2">  1       -4 0.58078314E-01 0.12930884E+03</pdfrwt>
<totfact> 0.62192232E+02</totfact>
</mgrwt>
</event>
<event>
 6    4  0.2271823E-003  0.1274624E+03  0.7818608E-02  0.1231270E+00
         -4   -1    0    0    0  501 -0.00000000000E+00  0.00000000000E+00  0.57083789914E+03  0.57083931189E+03  0.12700000000E+01 0.  1.
          4   -1    0    0  502    0  0.00000000000E+00 -0.00000000000E+00 -0.26032269197E+02  0.26063229646E+02  0.12700000000E+01 0.  1.
         25    2    1    2    0    0  0.19890582381E+02 -0.15041766428E+02  0.13254411759E+03  0.18388747574E+03  0.12499908248E+03 0.  0.
    9000005    1    3    3    0    0 -0.78438256552E+01  0.47395107518E+02  0.19620955670E+02  0.51901866238E+02  0.10000000000E+01 0.  0.
    9000005    1    3    3    0    0  0.27734408036E+02 -0.62436873946E+02  0.11292316192E+03  0.13198560950E+03  0.10000000000E+01 0.  0.
         21    1    1    2  502  501 -0.19890582381E+02  0.15041766428E+02  0.41226151236E+03  0.41301506580E+03  0.00000000000E+00 0. -1.
<mgrwt>
<rscale>  1 0.12746239E+03</rscale>
<asrwt>0</asrwt>
<pdfrwt beam="2">  1        4 0.40074548E-02 0.12746239E+03</pdfrwt>
<pdfrwt beam="1">  1       -4 0.87823703E-01 0.12746239E+03</pdfrwt>
<totfact> 0.64343904E+02</totfact>
</mgrwt>
</event>
<event>
 6    4  0.2271823E-003  0.2002541E+03  0.7818608E-02  0.1149525E+00
         -4   -1    0    0    0  501 -0.00000000000E+00  0.00000000000E+00  0.15909133575E+03  0.15909640477E+03  0.12700000000E+01 0.  1.
          4   -1    0    0  502    0  0.00000000000E+00 -0.00000000000E+00 -0.20992630737E+03  0.20993014892E+03  0.12700000000E+01 0.  1.
         25    2    1    2    0    0 -0.92697187615E+02 -0.12603171863E+03 -0.68353189889E+02  0.21159831397E+03  0.12499970086E+03 0.  0.
    9000005    1    3    3    0    0 -0.11077531545E+03 -0.92877861048E+02 -0.13768861217E+02  0.14521724803E+03  0.10000000000E+01 0.  0.
    9000005    1    3    3    0    0  0.18078127838E+02 -0.33153857578E+02 -0.54584328672E+02  0.66381065937E+02  0.10000000000E+01 0.  0.
         21    1    1    2  502  501  0.92697187615E+02  0.12603171863E+03  0.17518218272E+02  0.15742823972E+03  0.00000000000E+00 0.  1.
<mgrwt>
<rscale>  1 0.20025406E+03</rscale>
<asrwt>0</asrwt>
<pdfrwt beam="2">  1        4 0.32297040E-01 0.20025406E+03</pdfrwt>
<pdfrwt beam="1">  1       -4 0.24476276E-01 0.20025406E+03</pdfrwt>
<totfact> 0.25588040E+02</totfact>
</mgrwt>
</event>
<event>
 6    4  0.2271823E-003  0.1513258E+03  0.7818608E-02  0.1198853E+00
         -4   -1    0    0    0  501 -0.00000000000E+00  0.00000000000E+00  0.31013466762E+03  0.31013726793E+03  0.12700000000E+01 0. -1.
          4   -1    0    0  502    0  0.00000000000E+00 -0.00000000000E+00 -0.45195246484E+02  0.45213086653E+02  0.12700000000E+01 0. -1.
         25    2    1    2    0    0 -0.84927878551E+02 -0.77879323934E+01  0.16229650368E+03  0.22190012060E+03  0.12500444780E+03 0.  0.
    9000005    1    3    3    0    0 -0.75908658335E+01 -0.94271603084E+01 -0.20264197384E+02  0.23624781294E+02  0.10000000000E+01 0.  0.
    9000005    1    3    3    0    0 -0.77337012717E+02  0.16392279150E+01  0.18256070107E+03  0.19827533931E+03  0.10000000000E+01 0.  0.
         21    1    1    2  502  501  0.84927878551E+02  0.77879323934E+01  0.10264291745E+03  0.13345023398E+03  0.00000000000E+00 0. -1.
<mgrwt>
<rscale>  1 0.15132584E+03</rscale>
<asrwt>0</asrwt>
<pdfrwt beam="2">  1        4 0.69546870E-02 0.15132584E+03</pdfrwt>
<pdfrwt beam="1">  1       -4 0.47714600E-01 0.15132584E+03</pdfrwt>
<totfact> 0.10043597E+03</totfact>
</mgrwt>
</event>
<event>
 6    4  0.2271823E-003  0.1297699E+03  0.7818608E-02  0.1227798E+00
         -4   -1    0    0    0  501 -0.00000000000E+00  0.00000000000E+00  0.27078887677E+03  0.27079185491E+03  0.12700000000E+01 0.  1.
          4   -1    0    0  502    0  0.00000000000E+00 -0.00000000000E+00 -0.25985561511E+02  0.26016577543E+02  0.12700000000E+01 0.  1.
         25    2    1    2    0    0  0.34109856813E+02 -0.72315938459E+01  0.16654478793E+03  0.21113360895E+03  0.12499782462E+03 0.  0.
    9000005    1    3    3    0    0  0.70518026970E+01 -0.18563820082E+02  0.17838025121E+03  0.17948497809E+03  0.10000000000E+01 0.  0.
    9000005    1    3    3    0    0  0.27058054116E+02  0.11332226236E+02 -0.11835463285E+02  0.31648630859E+02  0.10000000000E+01 0.  0.
         21    1    1    2  502  501 -0.34109856813E+02  0.72315938459E+01  0.78258527338E+02  0.85674823504E+02  0.00000000000E+00 0.  1.
<mgrwt>
<rscale>  1 0.12976993E+03</rscale>
<asrwt>0</asrwt>
<pdfrwt beam="2">  1        4 0.40003938E-02 0.12976993E+03</pdfrwt>
<pdfrwt beam="1">  1       -4 0.41662441E-01 0.12976993E+03</pdfrwt>
<totfact> 0.31116109E+03</totfact>
</mgrwt>
</event>
<event>
 6    4  0.2271823E-003  0.1280979E+03  0.7818608E-02  0.1230306E+00
         -4   -1    0    0    0  501 -0.00000000000E+00  0.00000000000E+00  0.12213848125E+02  0.12279698124E+02  0.12700000000E+01 0. -1.
          4   -1    0    0  502    0  0.00000000000E+00 -0.00000000000E+00 -0.93169522289E+03  0.93169608846E+03  0.12700000000E+01 0. -1.
         25    2    1    2    0    0  0.26521834783E+02  0.89852734127E+01 -0.90181247690E+03  0.91086486980E+03  0.12499969876E+03 0.  0.
    9000005    1    3    3    0    0  0.19453242816E+02 -0.54160137941E+02 -0.57923270786E+03  0.58208528503E+03  0.10000000000E+01 0.  0.
    9000005    1    3    3    0    0  0.70685919666E+01  0.63145411353E+02 -0.32257976904E+03  0.32877958477E+03  0.10000000000E+01 0.  0.
         21    1    1    2  502  501 -0.26521834783E+02 -0.89852734127E+01 -0.17668897868E+02  0.33110916786E+02  0.00000000000E+00 0. -1.
<mgrwt>
<rscale>  1 0.12809788E+03</rscale>
<asrwt>0</asrwt>
<pdfrwt beam="2">  1        4 0.14334280E+00 0.12809788E+03</pdfrwt>
<pdfrwt beam="1">  1       -4 0.18841863E-02 0.12809788E+03</pdfrwt>
<totfact> 0.65476625E+02</totfact>
</mgrwt>
</event>
<event>
 6    4  0.2271823E-003  0.1302908E+03  0.7818608E-02  0.1227025E+00
         -4   -1    0    0    0  501 -0.00000000000E+00  0.00000000000E+00  0.33906505006E+03  0.33906742850E+03  0.12700000000E+01 0.  1.
          4   -1    0    0  502    0  0.00000000000E+00 -0.00000000000E+00 -0.54358403400E+02  0.54373237169E+02  0.12700000000E+01 0.  1.
         25    2    1    2    0    0  0.13862118845E+02 -0.34020411602E+02  0.26911375530E+02  0.13304107166E+03  0.12500463140E+03 0.  0.
    9000005    1    3    3    0    0  0.35774278032E+02  0.26011866211E+02 -0.24896547915E+02  0.50766664757E+02  0.10000000000E+01 0.  0.
    9000005    1    3    3    0    0 -0.21912159187E+02 -0.60032277813E+02  0.51807923445E+02  0.82274406904E+02  0.10000000000E+01 0.  0.
         21    1    1    2  502  501 -0.13862118845E+02  0.34020411602E+02  0.25779527113E+03  0.26039959401E+03  0.00000000000E+00 0.  1.
<mgrwt>
<rscale>  1 0.13029085E+03</rscale>
<asrwt>0</asrwt>
<pdfrwt beam="2">  1        4 0.83641551E-02 0.13029085E+03</pdfrwt>
<pdfrwt beam="1">  1       -4 0.52165179E-01 0.13029085E+03</pdfrwt>
<totfact> 0.59910033E+02</totfact>
</mgrwt>
</event>
<event>
 6    4  0.2271823E-003  0.1276897E+03  0.7818608E-02  0.1230925E+00
          4   -1    0    0  502    0  0.00000000000E+00  0.00000000000E+00  0.13605724613E+03  0.13606317328E+03  0.12700000000E+01 0.  1.
         -4   -1    0    0    0  501 -0.00000000000E+00 -0.00000000000E+00 -0.53811962738E+02  0.53826947097E+02  0.12700000000E+01 0.  1.
         25    2    1    2    0    0  0.15383532655E+02 -0.21089527078E+02  0.96587418405E+02  0.16010559309E+03  0.12499300106E+03 0.  0.
    9000005    1    3    3    0    0  0.45675744921E+02  0.21285403621E+02  0.43833581438E-01  0.50401825392E+02  0.10000000000E+01 0.  0.
    9000005    1    3    3    0    0 -0.30292212266E+02 -0.42374930698E+02  0.96543584823E+02  0.10970376769E+03  0.10000000000E+01 0.  0.
         21    1    1    2  502  501 -0.15383532655E+02  0.21089527078E+02 -0.14342135016E+02  0.29784527294E+02  0.00000000000E+00 0.  1.
<mgrwt>
<rscale>  1 0.12768975E+03</rscale>
<asrwt>0</asrwt>
<pdfrwt beam="1">  1        4 0.20933493E-01 0.12768975E+03</pdfrwt>
<pdfrwt beam="2">  1       -4 0.82803721E-02 0.12768975E+03</pdfrwt>
<totfact> 0.34926969E+03</totfact>
</mgrwt>
</event>
<event>
 6    4  0.2271823E-003  0.1282284E+03  0.7818608E-02  0.1230108E+00
         -4   -1    0    0    0  501 -0.00000000000E+00  0.00000000000E+00  0.37739220700E+02  0.37760583669E+02  0.12700000000E+01 0. -1.
          4   -1    0    0  502    0  0.00000000000E+00 -0.00000000000E+00 -0.22683927283E+03  0.22684282796E+03  0.12700000000E+01 0. -1.
         25    2    1    2    0    0 -0.27756751495E+02 -0.68489714602E+01 -0.19689690178E+03  0.23497004314E+03  0.12500074232E+03 0.  0.
    9000005    1    3    3    0    0 -0.66411794547E+02 -0.39531229931E+02 -0.12680183963E+03  0.14850236068E+03  0.10000000000E+01 0.  0.
    9000005    1    3    3    0    0  0.38655043052E+02  0.32682258471E+02 -0.70095062147E+02  0.86467682457E+02  0.10000000000E+01 0.  0.
         21    1    1    2  502  501  0.27756751495E+02  0.68489714602E+01  0.77968496485E+01  0.29633368490E+02  0.00000000000E+00 0.  1.
<mgrwt>
<rscale>  1 0.12822843E+03</rscale>
<asrwt>0</asrwt>
<pdfrwt beam="2">  1        4 0.34900266E-01 0.12822843E+03</pdfrwt>
<pdfrwt beam="1">  1       -4 0.58079509E-02 0.12822843E+03</pdfrwt>
<totfact> 0.24118058E+03</totfact>
</mgrwt>
</event>
<event>
 6    4  0.2271823E-003  0.1371043E+03  0.7818608E-02  0.1217279E+00
          4   -1    0    0  502    0  0.00000000000E+00  0.00000000000E+00  0.40811182347E+03  0.40811379952E+03  0.12700000000E+01 0.  1.
         -4   -1    0    0    0  501 -0.00000000000E+00 -0.00000000000E+00 -0.32949984478E+02  0.32974450368E+02  0.12700000000E+01 0.  1.
         25    2    1    2    0    0 -0.47722196111E+02 -0.29923742323E+02  0.35616588866E+03  0.38164344788E+03  0.12499897084E+03 0.  0.
    9000005    1    3    3    0    0 -0.30736811755E+02 -0.76954303461E+02  0.17384456764E+03  0.19258673400E+03  0.10000000000E+01 0.  0.
    9000005    1    3    3    0    0 -0.16985384356E+02  0.47030561139E+02  0.18232132102E+03  0.18905671388E+03  0.10000000000E+01 0.  0.
         21    1    1    2  502  501  0.47722196111E+02  0.29923742323E+02  0.18995950337E+02  0.59444802006E+02  0.00000000000E+00 0.  1.
<mgrwt>
<rscale>  1 0.13710427E+03</rscale>
<asrwt>0</asrwt>
<pdfrwt beam="1">  1        4 0.62788468E-01 0.13710427E+03</pdfrwt>
<pdfrwt beam="2">  1       -4 0.50712624E-02 0.13710427E+03</pdfrwt>
<totfact> 0.93193297E+02</totfact>
</mgrwt>
</event>
<event>
 6    4  0.2271823E-003  0.1354452E+03  0.7818608E-02  0.1219593E+00
          4   -1    0    0  502    0  0.00000000000E+00  0.00000000000E+00  0.55015786623E+02  0.55030443191E+02  0.12700000000E+01 0. -1.
         -4   -1    0    0    0  501 -0.00000000000E+00 -0.00000000000E+00 -0.18686223747E+03  0.18686655316E+03  0.12700000000E+01 0. -1.
         25    2    1    2    0    0  0.19207110197E+02 -0.48494270818E+02 -0.13285787824E+03  0.18972774900E+03  0.12499918218E+03 0.  0.
    9000005    1    3    3    0    0  0.24733395287E+02  0.39005490893E+02 -0.32616737976E+02  0.56551045600E+02  0.10000000000E+01 0.  0.
    9000005    1    3    3    0    0 -0.55262850902E+01 -0.87499761711E+02 -0.10024114026E+03  0.13317670340E+03  0.10000000000E+01 0.  0.
         21    1    1    2  502  501 -0.19207110197E+02  0.48494270818E+02  0.10114273977E+01  0.52169247356E+02  0.00000000000E+00 0. -1.
<mgrwt>
<rscale>  1 0.13544520E+03</rscale>
<asrwt>0</asrwt>
<pdfrwt beam="1">  1        4 0.84654266E-02 0.13544520E+03</pdfrwt>
<pdfrwt beam="2">  1       -4 0.28749496E-01 0.13544520E+03</pdfrwt>
<totfact> 0.19031788E+03</totfact>
</mgrwt>
</event>
<event>
 6    4  0.2271823E-003  0.1269420E+03  0.7818608E-02  0.1232065E+00
          4   -1    0    0  502    0  0.00000000000E+00  0.00000000000E+00  0.78586114433E+02  0.78596375754E+02  0.12700000000E+01 0.  1.
         -4   -1    0    0    0  501 -0.00000000000E+00 -0.00000000000E+00 -0.78196568820E+02  0.78206881252E+02  0.12700000000E+01 0.  1.
         25    2    1    2    0    0  0.79241447756E+01 -0.20661981072E+02  0.18403152089E+02  0.12826907486E+03  0.12499828010E+03 0.  0.
    9000005    1    3    3    0    0 -0.51592931325E+02 -0.14994139332E+01 -0.19454619389E+02  0.55168478504E+02  0.10000000000E+01 0.  0.
    9000005    1    3    3    0    0  0.59517076101E+02 -0.19162567139E+02  0.37857771478E+02  0.73100596360E+02  0.10000000000E+01 0.  0.
         21    1    1    2  502  501 -0.79241447756E+01  0.20661981072E+02 -0.18013606476E+02  0.28534182142E+02  0.00000000000E+00 0.  1.
<mgrwt>
<rscale>  1 0.12694203E+03</rscale>
<asrwt>0</asrwt>
<pdfrwt beam="1">  1        4 0.12091754E-01 0.12694203E+03</pdfrwt>
<pdfrwt beam="2">  1       -4 0.12031824E-01 0.12694203E+03</pdfrwt>
<totfact> 0.48725169E+03</totfact>
</mgrwt>
</event>
<event>
 6    4  0.2271823E-003  0.1306273E+03  0.7818608E-02  0.1226528E+00
         -4   -1    0    0    0  501 -0.00000000000E+00  0.00000000000E+00  0.19119428266E+03  0.19119850057E+03  0.12700000000E+01 0. -1.
          4   -1    0    0  502    0  0.00000000000E+00 -0.00000000000E+00 -0.42237295436E+02  0.42256384437E+02  0.12700000000E+01 0. -1.
         25    2    1    2    0    0 -0.37628680556E+02  0.47125284821E+01  0.75732452530E+02  0.15099302712E+03  0.12500145739E+03 0.  0.
    9000005    1    3    3    0    0 -0.70964887219E+02 -0.27090691466E+02  0.72151403129E+02  0.10476996590E+03  0.10000000000E+01 0.  0.
    9000005    1    3    3    0    0  0.33336206662E+02  0.31803219948E+02  0.35810494010E+01  0.46223061219E+02  0.10000000000E+01 0.  0.
         21    1    1    2  502  501  0.37628680556E+02 -0.47125284821E+01  0.73224534689E+02  0.82461857883E+02  0.00000000000E+00 0. -1.
<mgrwt>
<rscale>  1 0.13062729E+03</rscale>
<asrwt>0</asrwt>
<pdfrwt beam="2">  1        4 0.64998382E-02 0.13062729E+03</pdfrwt>
<pdfrwt beam="1">  1       -4 0.29416298E-01 0.13062729E+03</pdfrwt>
<totfact> 0.27937971E+03</totfact>
</mgrwt>
</event>
<event>
 6    4  0.2271823E-003  0.1325391E+03  0.7818608E-02  0.1223736E+00
         -4   -1    0    0    0  501 -0.00000000000E+00  0.00000000000E+00  0.32561800975E+02  0.32586558314E+02  0.12700000000E+01 0.  1.
          4   -1    0    0  502    0  0.00000000000E+00 -0.00000000000E+00 -0.25668441219E+03  0.25668755396E+03  0.12700000000E+01 0.  1.
         25    2    1    2    0    0 -0.28132002593E+02 -0.33919876591E+02 -0.19730219078E+03  0.23768629831E+03  0.12499861727E+03 0.  0.
    9000005    1    3    3    0    0  0.40851532307E+02 -0.40982704563E+02 -0.12363862068E+03  0.13651350955E+03  0.10000000000E+01 0.  0.
    9000005    1    3    3    0    0 -0.68983534899E+02  0.70628279723E+01 -0.73663570100E+02  0.10117278876E+03  0.10000000000E+01 0.  0.
         21    1    1    2  502  501  0.28132002593E+02  0.33919876591E+02 -0.26820420430E+02  0.51587813966E+02  0.00000000000E+00 0.  1.
<mgrwt>
<rscale>  1 0.13253913E+03</rscale>
<asrwt>0</asrwt>
<pdfrwt beam="2">  1        4 0.39492054E-01 0.13253913E+03</pdfrwt>
<pdfrwt beam="1">  1       -4 0.50116541E-02 0.13253913E+03</pdfrwt>
<totfact> 0.24247244E+03</totfact>
</mgrwt>
</event>
<event>
 6    4  0.2271823E-003  0.1285647E+03  0.7818608E-02  0.1229601E+00
          4   -1    0    0  502    0  0.00000000000E+00  0.00000000000E+00  0.14873816890E+02  0.14927937865E+02  0.12700000000E+01 0. -1.
         -4   -1    0    0    0  501 -0.00000000000E+00 -0.00000000000E+00 -0.42214570467E+03  0.42214761503E+03  0.12700000000E+01 0. -1.
         25    2    1    2    0    0  0.29492037138E+02  0.58345143732E+01 -0.32866120618E+03  0.35291225284E+03  0.12500019180E+03 0.  0.
    9000005    1    3    3    0    0  0.36951880672E+02 -0.41486728297E+02 -0.67676609619E+02  0.87565481781E+02  0.10000000000E+01 0.  0.
    9000005    1    3    3    0    0 -0.74598435342E+01  0.47321242670E+02 -0.26098459656E+03  0.26534677106E+03  0.10000000000E+01 0.  0.
         21    1    1    2  502  501 -0.29492037138E+02 -0.58345143732E+01 -0.78610681608E+02  0.84163300050E+02  0.00000000000E+00 0.  1.
<mgrwt>
<rscale>  1 0.12856465E+03</rscale>
<asrwt>0</asrwt>
<pdfrwt beam="1">  1        4 0.22925899E-02 0.12856465E+03</pdfrwt>
<pdfrwt beam="2">  1       -4 0.64949794E-01 0.12856465E+03</pdfrwt>
<totfact> 0.29882882E+03</totfact>
</mgrwt>
</event>
<event>
 6    4  0.2271823E-003  0.1317847E+03  0.7818608E-02  0.1224831E+00
          4   -1    0    0  502    0  0.00000000000E+00  0.00000000000E+00  0.62094693019E+03  0.62094822893E+03  0.12700000000E+01 0.  1.
         -4   -1    0    0    0  501 -0.00000000000E+00 -0.00000000000E+00 -0.14490233931E+02  0.14545782185E+02  0.12700000000E+01 0.  1.
         25    2    1    2    0    0 -0.18367025575E+02  0.37485553924E+02  0.54824936830E+03  0.56386575266E+03  0.12499881118E+03 0.  0.
    9000005    1    3    3    0    0  0.42050892725E+02 -0.57897036183E+01  0.88626967077E+02  0.98272771103E+02  0.10000000000E+01 0.  0.
    9000005    1    3    3    0    0 -0.60417918301E+02  0.43275257543E+02  0.45962240122E+03  0.46559298156E+03  0.10000000000E+01 0.  0.
         21    1    1    2  502  501  0.18367025575E+02 -0.37485553924E+02  0.58207327957E+02  0.71628258456E+02  0.00000000000E+00 0.  1.
<mgrwt>
<rscale>  1 0.13178474E+03</rscale>
<asrwt>0</asrwt>
<pdfrwt beam="1">  1        4 0.95534659E-01 0.13178474E+03</pdfrwt>
<pdfrwt beam="2">  1       -4 0.22336399E-02 0.13178474E+03</pdfrwt>
<totfact> 0.13370726E+03</totfact>
</mgrwt>
</event>
<event>
 6    4  0.2271823E-003  0.1335075E+03  0.7818608E-02  0.1222342E+00
          4   -1    0    0  502    0  0.00000000000E+00  0.00000000000E+00  0.11992719761E+03  0.11993392192E+03  0.12700000000E+01 0. -1.
         -4   -1    0    0    0  501 -0.00000000000E+00 -0.00000000000E+00 -0.75999389063E+02  0.76009999592E+02  0.12700000000E+01 0. -1.
         25    2    1    2    0    0 -0.17170083355E+02  0.43631561410E+02  0.60009727463E+02  0.14637424298E+03  0.12500290679E+03 0.  0.
    9000005    1    3    3    0    0 -0.23896463544E+02 -0.28337413794E+02 -0.16963507187E+02  0.40777574309E+02  0.10000000000E+01 0.  0.
    9000005    1    3    3    0    0  0.67263801887E+01  0.71968975203E+02  0.76973234650E+02  0.10559666867E+03  0.10000000000E+01 0.  0.
         21    1    1    2  502  501  0.17170083355E+02 -0.43631561410E+02 -0.16081918915E+02  0.49569678529E+02  0.00000000000E+00 0.  1.
<mgrwt>
<rscale>  1 0.13350750E+03</rscale>
<asrwt>0</asrwt>
<pdfrwt beam="1">  1        4 0.18451672E-01 0.13350750E+03</pdfrwt>
<pdfrwt beam="2">  1       -4 0.11693547E-01 0.13350750E+03</pdfrwt>
<totfact> 0.24775610E+03</totfact>
</mgrwt>
</event>
<event>
 6    4  0.2271823E-003  0.1318052E+03  0.7818608E-02  0.1224802E+00
          4   -1    0    0  502    0  0.00000000000E+00  0.00000000000E+00  0.45272885279E+03  0.45273063409E+03  0.12700000000E+01 0.  1.
         -4   -1    0    0    0  501 -0.00000000000E+00 -0.00000000000E+00 -0.18000297101E+02  0.18045043522E+02  0.12700000000E+01 0.  1.
         25    2    1    2    0    0  0.20664774917E+02  0.36343579318E+02  0.37789260787E+03  0.40021922047E+03  0.12499885069E+03 0.  0.
    9000005    1    3    3    0    0  0.32267958691E+02 -0.40064526671E+02  0.19481702099E+03  0.20149704495E+03  0.10000000000E+01 0.  0.
    9000005    1    3    3    0    0 -0.11603183774E+02  0.76408105989E+02  0.18307558688E+03  0.19872217552E+03  0.10000000000E+01 0.  0.
         21    1    1    2  502  501 -0.20664774917E+02 -0.36343579318E+02  0.56835947819E+02  0.70556457142E+02  0.00000000000E+00 0.  1.
<mgrwt>
<rscale>  1 0.13180516E+03</rscale>
<asrwt>0</asrwt>
<pdfrwt beam="1">  1        4 0.69654167E-01 0.13180516E+03</pdfrwt>
<pdfrwt beam="2">  1       -4 0.27728557E-02 0.13180516E+03</pdfrwt>
<totfact> 0.19259967E+03</totfact>
</mgrwt>
</event>
<event>
 6    4  0.2271823E-003  0.1286457E+03  0.7818608E-02  0.1229479E+00
          4   -1    0    0  502    0  0.00000000000E+00  0.00000000000E+00  0.38237770475E+02  0.38258855065E+02  0.12700000000E+01 0. -1.
         -4   -1    0    0    0  501 -0.00000000000E+00 -0.00000000000E+00 -0.34229098356E+03  0.34229333959E+03  0.12700000000E+01 0. -1.
         25    2    1    2    0    0 -0.28787767815E+02  0.97998301440E+01 -0.73823268169E+02  0.14832256738E+03  0.12499974730E+03 0.  0.
    9000005    1    3    3    0    0  0.49503171919E+02  0.42836716857E+01 -0.34760169152E+02  0.60648027443E+02  0.10000000000E+01 0.  0.
    9000005    1    3    3    0    0 -0.78290939734E+02  0.55161584583E+01 -0.39063099016E+02  0.87674539938E+02  0.10000000000E+01 0.  0.
         21    1    1    2  502  501  0.28787767815E+02 -0.97998301440E+01 -0.23022994492E+03  0.23222962728E+03  0.00000000000E+00 0. -1.
<mgrwt>
<rscale>  1 0.12864567E+03</rscale>
<asrwt>0</asrwt>
<pdfrwt beam="1">  1        4 0.58845373E-02 0.12864567E+03</pdfrwt>
<pdfrwt beam="2">  1       -4 0.52661952E-01 0.12864567E+03</pdfrwt>
<totfact> 0.10432657E+03</totfact>
</mgrwt>
</event>
<event>
 6    4  0.2271823E-003  0.1333882E+03  0.7818608E-02  0.1222513E+00
          4   -1    0    0  502    0  0.00000000000E+00  0.00000000000E+00  0.10744390100E+03  0.10745140652E+03  0.12700000000E+01 0.  1.
         -4   -1    0    0    0  501 -0.00000000000E+00 -0.00000000000E+00 -0.98156783106E+02  0.98164998700E+02  0.12700000000E+01 0.  1.
         25    2    1    2    0    0 -0.45538447602E+02 -0.96779444211E+01 -0.38567603300E+02  0.13885198985E+03  0.12500000897E+03 0.  0.
    9000005    1    3    3    0    0 -0.27216380645E+02  0.31361257679E+02  0.33872428164E+02  0.53596653332E+02  0.10000000000E+01 0.  0.
    9000005    1    3    3    0    0 -0.18322066957E+02 -0.41039202100E+02 -0.72440031465E+02  0.85255336521E+02  0.10000000000E+01 0.  0.
         21    1    1    2  502  501  0.45538447602E+02  0.96779444211E+01  0.47854721198E+02  0.66764415366E+02  0.00000000000E+00 0.  1.
<mgrwt>
<rscale>  1 0.13338821E+03</rscale>
<asrwt>0</asrwt>
<pdfrwt beam="1">  1        4 0.16531040E-01 0.13338821E+03</pdfrwt>
<pdfrwt beam="2">  1       -4 0.15102253E-01 0.13338821E+03</pdfrwt>
<totfact> 0.19355016E+03</totfact>
</mgrwt>
</event>
<event>
 6    4  0.2271823E-003  0.1281044E+03  0.7818608E-02  0.1230296E+00
          4   -1    0    0  502    0  0.00000000000E+00  0.00000000000E+00  0.64278815017E+02  0.64291359917E+02  0.12700000000E+01 0. -1.
         -4   -1    0    0    0  501 -0.00000000000E+00 -0.00000000000E+00 -0.11274157380E+03  0.11274872666E+03  0.12700000000E+01 0. -1.
         25    2    1    2    0    0 -0.24928344065E+02 -0.12930892304E+02 -0.87521488558E+01  0.12840303430E+03  0.12498843464E+03 0.  0.
    9000005    1    3    3    0    0  0.11237429093E+02 -0.58955780980E+02 -0.28728130326E+02  0.66545994587E+02  0.10000000000E+01 0.  0.
    9000005    1    3    3    0    0 -0.36165773158E+02  0.46024888676E+02  0.19975981470E+02  0.61857039708E+02  0.10000000000E+01 0.  0.
         21    1    1    2  502  501  0.24928344065E+02  0.12930892304E+02 -0.39710609927E+02  0.48637052279E+02  0.00000000000E+00 0.  1.
<mgrwt>
<rscale>  1 0.12810441E+03</rscale>
<asrwt>0</asrwt>
<pdfrwt beam="1">  1        4 0.98905637E-02 0.12810441E+03</pdfrwt>
<pdfrwt beam="2">  1       -4 0.17346373E-01 0.12810441E+03</pdfrwt>
<totfact> 0.36353147E+03</totfact>
</mgrwt>
</event>
<event>
 6    4  0.2271823E-003  0.1283129E+03  0.7818608E-02  0.1229981E+00
         -4   -1    0    0    0  501 -0.00000000000E+00  0.00000000000E+00  0.67888878828E+02  0.67900756760E+02  0.12700000000E+01 0.  1.
          4   -1    0    0  502    0  0.00000000000E+00 -0.00000000000E+00 -0.99379009561E+02  0.99387124123E+02  0.12700000000E+01 0.  1.
         25    2    1    2    0    0 -0.21774061900E+02 -0.19107600177E+02 -0.44118602850E+02  0.13568584829E+03  0.12499995261E+03 0.  0.
    9000005    1    3    3    0    0 -0.48848040655E+02 -0.34567739683E+02  0.21043815997E+02  0.63442114516E+02  0.10000000000E+01 0.  0.
    9000005    1    3    3    0    0  0.27073978755E+02  0.15460139506E+02 -0.65162418847E+02  0.72243733771E+02  0.10000000000E+01 0.  0.
         21    1    1    2  502  501  0.21774061900E+02  0.19107600177E+02  0.12628472117E+02  0.31602032595E+02  0.00000000000E+00 0.  1.
<mgrwt>
<rscale>  1 0.12831289E+03</rscale>
<asrwt>0</asrwt>
<pdfrwt beam="2">  1        4 0.15290616E-01 0.12831289E+03</pdfrwt>
<pdfrwt beam="1">  1       -4 0.10445981E-01 0.12831289E+03</pdfrwt>
<totfact> 0.41404297E+03</totfact>
</mgrwt>
</event>
<event>
 6    4  0.2271823E-003  0.1270125E+03  0.7818608E-02  0.1231957E+00
         -4   -1    0    0    0  501 -0.00000000000E+00  0.00000000000E+00  0.83126227450E+02  0.83135928394E+02  0.12700000000E+01 0. -1.
          4   -1    0    0  502    0  0.00000000000E+00 -0.00000000000E+00 -0.81786136439E+02  0.81795996318E+02  0.12700000000E+01 0. -1.
         25    2    1    2    0    0 -0.42859701704E+01  0.22121992298E+02 -0.25852039499E+02  0.12961671488E+03  0.12499765097E+03 0.  0.
    9000005    1    3    3    0    0  0.40301136280E+02 -0.19881754987E+02  0.23705757789E+02  0.50817602454E+02  0.10000000000E+01 0.  0.
    9000005    1    3    3    0    0 -0.44587106451E+02  0.42003747286E+02 -0.49557797288E+02  0.78799112430E+02  0.10000000000E+01 0.  0.
         21    1    1    2  502  501  0.42859701704E+01 -0.22121992298E+02  0.27192130510E+02  0.35315209828E+02  0.00000000000E+00 0. -1.
<mgrwt>
<rscale>  1 0.12701246E+03</rscale>
<asrwt>0</asrwt>
<pdfrwt beam="2">  1        4 0.12583987E-01 0.12701246E+03</pdfrwt>
<pdfrwt beam="1">  1       -4 0.12790155E-01 0.12701246E+03</pdfrwt>
<totfact> 0.40989867E+03</totfact>
</mgrwt>
</event>
<event>
 6    4  0.2271823E-003  0.1285492E+03  0.7818608E-02  0.1229624E+00
         -4   -1    0    0    0  501 -0.00000000000E+00  0.00000000000E+00  0.13785670604E+03  0.13786255583E+03  0.12700000000E+01 0. -1.
          4   -1    0    0  502    0  0.00000000000E+00 -0.00000000000E+00 -0.50486906040E+02  0.50502876962E+02  0.12700000000E+01 0. -1.
         25    2    1    2    0    0 -0.26631334665E+02 -0.13804901277E+02  0.44480762607E+02  0.13602737003E+03  0.12500041548E+03 0.  0.
    9000005    1    3    3    0    0 -0.52626600710E+02  0.17691299085E+02  0.68855975844E+02  0.88457258464E+02  0.10000000000E+01 0.  0.
    9000005    1    3    3    0    0  0.25995266045E+02 -0.31496200362E+02 -0.24375213237E+02  0.47570111566E+02  0.10000000000E+01 0.  0.
         21    1    1    2  502  501  0.26631334665E+02  0.13804901277E+02  0.42889037397E+02  0.52338062767E+02  0.00000000000E+00 0. -1.
<mgrwt>
<rscale>  1 0.12854924E+03</rscale>
<asrwt>0</asrwt>
<pdfrwt beam="2">  1        4 0.77688949E-02 0.12854924E+03</pdfrwt>
<pdfrwt beam="1">  1       -4 0.21210402E-01 0.12854924E+03</pdfrwt>
<totfact> 0.37965234E+03</totfact>
</mgrwt>
</event>
<event>
 6    4  0.2271823E-003  0.1271896E+03  0.7818608E-02  0.1231686E+00
          4   -1    0    0  502    0  0.00000000000E+00  0.00000000000E+00  0.28633771460E+02  0.28661921918E+02  0.12700000000E+01 0.  1.
         -4   -1    0    0    0  501 -0.00000000000E+00 -0.00000000000E+00 -0.20585240521E+03  0.20585632278E+03  0.12700000000E+01 0.  1.
         25    2    1    2    0    0  0.22846817366E+02  0.55486603620E+01 -0.13056719914E+03  0.18227725460E+03  0.12499775741E+03 0.  0.
    9000005    1    3    3    0    0 -0.46134395533E+02 -0.16293856751E+02 -0.80757168206E+02  0.94427710105E+02  0.10000000000E+01 0.  0.
    9000005    1    3    3    0    0  0.68981212899E+02  0.21842517113E+02 -0.49810030937E+02  0.87849544499E+02  0.10000000000E+01 0.  0.
         21    1    1    2  502  501 -0.22846817366E+02 -0.55486603620E+01 -0.46651434603E+02  0.52240990095E+02  0.00000000000E+00 0. -1.
<mgrwt>
<rscale>  1 0.12718964E+03</rscale>
<asrwt>0</asrwt>
<pdfrwt beam="1">  1        4 0.44076625E-02 0.12718964E+03</pdfrwt>
<pdfrwt beam="2">  1       -4 0.31672067E-01 0.12718964E+03</pdfrwt>
<totfact> 0.45152529E+03</totfact>
</mgrwt>
</event>
<event>
 6    4  0.2271823E-003  0.1265972E+03  0.7818608E-02  0.1232594E+00
         -4   -1    0    0    0  501 -0.00000000000E+00  0.00000000000E+00  0.22922115194E+03  0.22922467013E+03  0.12700000000E+01 0.  1.
          4   -1    0    0  502    0  0.00000000000E+00 -0.00000000000E+00 -0.25523220196E+02  0.25554797380E+02  0.12700000000E+01 0.  1.
         25    2    1    2    0    0  0.17912396363E+02  0.90480624305E+01  0.14368396889E+03  0.19149916161E+03  0.12499649837E+03 0.  0.
    9000005    1    3    3    0    0  0.23763858530E+01  0.35244478123E+02 -0.84568859255E+01  0.36336474340E+02  0.10000000000E+01 0.  0.
    9000005    1    3    3    0    0  0.15536010510E+02 -0.26196415693E+02  0.15214085481E+03  0.15516268727E+03  0.10000000000E+01 0.  0.
         21    1    1    2  502  501 -0.17912396363E+02 -0.90480624305E+01  0.60013962858E+02  0.63280305903E+02  0.00000000000E+00 0. -1.
<mgrwt>
<rscale>  1 0.12659718E+03</rscale>
<asrwt>0</asrwt>
<pdfrwt beam="2">  1        4 0.39293491E-02 0.12659718E+03</pdfrwt>
<pdfrwt beam="1">  1       -4 0.35267490E-01 0.12659718E+03</pdfrwt>
<totfact> 0.44059274E+03</totfact>
</mgrwt>
</event>
<event>
 6    4  0.2271823E-003  0.1269360E+03  0.7818608E-02  0.1232074E+00
          4   -1    0    0  502    0  0.00000000000E+00  0.00000000000E+00  0.54025642973E+02  0.54040568082E+02  0.12700000000E+01 0.  1.
         -4   -1    0    0    0  501 -0.00000000000E+00 -0.00000000000E+00 -0.10505185672E+03  0.10505953312E+03  0.12700000000E+01 0.  1.
         25    2    1    2    0    0 -0.84083354510E+01 -0.20391411104E+02 -0.34505997405E+02  0.13154239267E+03  0.12500490974E+03 0.  0.
    9000005    1    3    3    0    0  0.57401379120E+02 -0.17584435684E+02 -0.24762774372E+02  0.64948638922E+02  0.10000000000E+01 0.  0.
    9000005    1    3    3    0    0 -0.65809714571E+02 -0.28069754201E+01 -0.97432230324E+01  0.66593753746E+02  0.10000000000E+01 0.  0.
         21    1    1    2  502  501  0.84083354510E+01  0.20391411104E+02 -0.16520216338E+02  0.27557708535E+02  0.00000000000E+00 0. -1.
<mgrwt>
<rscale>  1 0.12693596E+03</rscale>
<asrwt>0</asrwt>
<pdfrwt beam="1">  1        4 0.83133760E-02 0.12693596E+03</pdfrwt>
<pdfrwt beam="2">  1       -4 0.16163563E-01 0.12693596E+03</pdfrwt>
<totfact> 0.54903800E+03</totfact>
</mgrwt>
</event>
<event>
 6    4  0.2271823E-003  0.1287200E+03  0.7818608E-02  0.1229368E+00
          4   -1    0    0  502    0  0.00000000000E+00  0.00000000000E+00  0.45284672020E+03  0.45284850104E+03  0.12700000000E+01 0.  1.
         -4   -1    0    0    0  501 -0.00000000000E+00 -0.00000000000E+00 -0.26415582491E+02  0.26446094198E+02  0.12700000000E+01 0.  1.
         25    2    1    2    0    0 -0.18341362577E+02 -0.24623428316E+02  0.42956053036E+03  0.44843180370E+03  0.12500445803E+03 0.  0.
    9000005    1    3    3    0    0  0.29459580500E+02  0.31905710583E+02  0.79158296266E+02  0.90293283907E+02  0.10000000000E+01 0.  0.
    9000005    1    3    3    0    0 -0.47800943078E+02 -0.56529138899E+02  0.35040223409E+03  0.35813851980E+03  0.10000000000E+01 0.  0.
         21    1    1    2  502  501  0.18341362577E+02  0.24623428316E+02 -0.31293926480E+01  0.30862791539E+02  0.00000000000E+00 0.  1.
<mgrwt>
<rscale>  1 0.12871998E+03</rscale>
<asrwt>0</asrwt>
<pdfrwt beam="1">  1        4 0.69671213E-01 0.12871998E+03</pdfrwt>
<pdfrwt beam="2">  1       -4 0.40664196E-02 0.12871998E+03</pdfrwt>
<totfact> 0.10482617E+03</totfact>
</mgrwt>
</event>
<event>
 6    4  0.2271823E-003  0.1275748E+03  0.7818608E-02  0.1231099E+00
         -4   -1    0    0    0  501 -0.00000000000E+00  0.00000000000E+00  0.10966437391E+03  0.10967172746E+03  0.12700000000E+01 0. -1.
          4   -1    0    0  502    0  0.00000000000E+00 -0.00000000000E+00 -0.99524878340E+02  0.99532981009E+02  0.12700000000E+01 0. -1.
         25    2    1    2    0    0 -0.11564126367E+02 -0.22730060755E+02 -0.55244902971E+02  0.13902277167E+03  0.12499978823E+03 0.  0.
    9000005    1    3    3    0    0 -0.58249282103E+02 -0.30496115961E+01 -0.65084159796E+02  0.87402670742E+02  0.10000000000E+01 0.  0.
    9000005    1    3    3    0    0  0.46685155736E+02 -0.19680449159E+02  0.98392568255E+01  0.51620100931E+02  0.10000000000E+01 0.  0.
         21    1    1    2  502  501  0.11564126367E+02  0.22730060755E+02  0.65384398538E+02  0.70181936798E+02  0.00000000000E+00 0. -1.
<mgrwt>
<rscale>  1 0.12757481E+03</rscale>
<asrwt>0</asrwt>
<pdfrwt beam="2">  1        4 0.15312709E-01 0.12757481E+03</pdfrwt>
<pdfrwt beam="1">  1       -4 0.16872631E-01 0.12757481E+03</pdfrwt>
<totfact> 0.18038532E+03</totfact>
</mgrwt>
</event>
<event>
 6    4  0.2271823E-003  0.1269161E+03  0.7818608E-02  0.1232105E+00
          4   -1    0    0  502    0  0.00000000000E+00  0.00000000000E+00  0.56523142149E+02  0.56537407956E+02  0.12700000000E+01 0. -1.
         -4   -1    0    0    0  501 -0.00000000000E+00 -0.00000000000E+00 -0.35493266434E+03  0.35493493646E+03  0.12700000000E+01 0. -1.
         25    2    1    2    0    0  0.21901048648E+02 -0.16616517695E+01 -0.15668673988E+02  0.12787967127E+03  0.12500114383E+03 0.  0.
    9000005    1    3    3    0    0  0.52435039401E+02  0.37809003406E+02  0.18671811415E+02  0.67294803938E+02  0.10000000000E+01 0.  0.
    9000005    1    3    3    0    0 -0.30533990752E+02 -0.39470655176E+02 -0.34340485404E+02  0.60584867327E+02  0.10000000000E+01 0.  0.
         21    1    1    2  502  501 -0.21901048648E+02  0.16616517695E+01 -0.28274084820E+03  0.28359267315E+03  0.00000000000E+00 0. -1.
<mgrwt>
<rscale>  1 0.12691613E+03</rscale>
<asrwt>0</asrwt>
<pdfrwt beam="1">  1        4 0.86971403E-02 0.12691613E+03</pdfrwt>
<pdfrwt beam="2">  1       -4 0.54606296E-01 0.12691613E+03</pdfrwt>
<totfact> 0.50831708E+02</totfact>
</mgrwt>
</event>
<event>
 6    4  0.2271823E-003  0.1323294E+03  0.7818608E-02  0.1224040E+00
          4   -1    0    0  502    0  0.00000000000E+00  0.00000000000E+00  0.58482040908E+02  0.58495828986E+02  0.12700000000E+01 0.  1.
         -4   -1    0    0    0  501 -0.00000000000E+00 -0.00000000000E+00 -0.17842786792E+03  0.17843238762E+03  0.12700000000E+01 0.  1.
         25    2    1    2    0    0 -0.41712880877E+02  0.12067239186E+02 -0.28021404194E+02  0.13526365934E+03  0.12500190300E+03 0.  0.
    9000005    1    3    3    0    0  0.36935410241E+02  0.34281299072E+02 -0.71301345406E+01  0.50904526462E+02  0.10000000000E+01 0.  0.
    9000005    1    3    3    0    0 -0.78648291118E+02 -0.22214059885E+02 -0.20891269653E+02  0.84359132879E+02  0.10000000000E+01 0.  0.
         21    1    1    2  502  501  0.41712880877E+02 -0.12067239186E+02 -0.91924422822E+02  0.10166455726E+03  0.00000000000E+00 0.  1.
<mgrwt>
<rscale>  1 0.13232936E+03</rscale>
<asrwt>0</asrwt>
<pdfrwt beam="1">  1        4 0.89986455E-02 0.13232936E+03</pdfrwt>
<pdfrwt beam="2">  1       -4 0.27451849E-01 0.13232936E+03</pdfrwt>
<totfact> 0.18647286E+03</totfact>
</mgrwt>
</event>
<event>
 6    4  0.2271823E-003  0.1278605E+03  0.7818608E-02  0.1230665E+00
          4   -1    0    0  502    0  0.00000000000E+00  0.00000000000E+00  0.69300747817E+02  0.69312383799E+02  0.12700000000E+01 0.  1.
         -4   -1    0    0    0  501 -0.00000000000E+00 -0.00000000000E+00 -0.13565403574E+03  0.13565998051E+03  0.12700000000E+01 0.  1.
         25    2    1    2    0    0  0.13987904733E+01  0.26835320298E+02  0.57854121948E+01  0.12799130765E+03  0.12500485114E+03 0.  0.
    9000005    1    3    3    0    0 -0.47194073662E+02  0.43958792800E+02  0.29900656246E+02  0.71096450666E+02  0.10000000000E+01 0.  0.
    9000005    1    3    3    0    0  0.48592864136E+02 -0.17123472502E+02 -0.24115244051E+02  0.56894856983E+02  0.10000000000E+01 0.  0.
         21    1    1    2  502  501 -0.13987904733E+01 -0.26835320298E+02 -0.72138700119E+02  0.76981056664E+02  0.00000000000E+00 0. -1.
<mgrwt>
<rscale>  1 0.12786049E+03</rscale>
<asrwt>0</asrwt>
<pdfrwt beam="1">  1        4 0.10663006E-01 0.12786049E+03</pdfrwt>
<pdfrwt beam="2">  1       -4 0.20871204E-01 0.12786049E+03</pdfrwt>
<totfact> 0.22998651E+03</totfact>
</mgrwt>
</event>
<event>
 6    4  0.2271823E-003  0.1354702E+03  0.7818608E-02  0.1219558E+00
         -4   -1    0    0    0  501 -0.00000000000E+00  0.00000000000E+00  0.21252350305E+02  0.21290262880E+02  0.12700000000E+01 0.  1.
          4   -1    0    0  502    0  0.00000000000E+00 -0.00000000000E+00 -0.96422553804E+03  0.96422637441E+03  0.12700000000E+01 0.  1.
         25    2    1    2    0    0 -0.48660833454E+02  0.18951764572E+02 -0.91743937982E+03  0.92738728636E+03  0.12500046869E+03 0.  0.
    9000005    1    3    3    0    0 -0.28623491570E+02  0.62023952677E+02 -0.28134785857E+03  0.28952356121E+03  0.10000000000E+01 0.  0.
    9000005    1    3    3    0    0 -0.20037341884E+02 -0.43072188105E+02 -0.63609152124E+03  0.63786372515E+03  0.10000000000E+01 0.  0.
         21    1    1    2  502  501  0.48660833454E+02 -0.18951764572E+02 -0.25533807920E+02  0.58129350931E+02  0.00000000000E+00 0.  1.
<mgrwt>
<rscale>  1 0.13547016E+03</rscale>
<asrwt>0</asrwt>
<pdfrwt beam="2">  1        4 0.14834534E+00 0.13547016E+03</pdfrwt>
<pdfrwt beam="1">  1       -4 0.32725738E-02 0.13547016E+03</pdfrwt>
<totfact> 0.25739703E+02</totfact>
</mgrwt>
</event>
<event>
 6    4  0.2271823E-003  0.1270349E+03  0.7818608E-02  0.1231923E+00
         -4   -1    0    0    0  501 -0.00000000000E+00  0.00000000000E+00  0.22285174625E+03  0.22285536500E+03  0.12700000000E+01 0. -1.
          4   -1    0    0  502    0  0.00000000000E+00 -0.00000000000E+00 -0.25135031354E+02  0.25167095605E+02  0.12700000000E+01 0. -1.
         25    2    1    2    0    0 -0.19060076338E+02 -0.12249728569E+02  0.17008475709E+03  0.21228917846E+03  0.12499811334E+03 0.  0.
    9000005    1    3    3    0    0 -0.20709657939E+02 -0.43907695349E+02  0.17370729205E+03  0.18036629107E+03  0.10000000000E+01 0.  0.
    9000005    1    3    3    0    0  0.16495816012E+01  0.31657966780E+02 -0.36225349595E+01  0.31922887395E+02  0.10000000000E+01 0.  0.
         21    1    1    2  502  501  0.19060076338E+02  0.12249728569E+02  0.27631957809E+02  0.35733282138E+02  0.00000000000E+00 0. -1.
<mgrwt>
<rscale>  1 0.12703492E+03</rscale>
<asrwt>0</asrwt>
<pdfrwt beam="2">  1        4 0.38696727E-02 0.12703492E+03</pdfrwt>
<pdfrwt beam="1">  1       -4 0.34287629E-01 0.12703492E+03</pdfrwt>
<totfact> 0.47698239E+03</totfact>
</mgrwt>
</event>
<event>
 6    4  0.2271823E-003  0.1265960E+03  0.7818608E-02  0.1232596E+00
         -4   -1    0    0    0  501 -0.00000000000E+00  0.00000000000E+00  0.27894806755E+03  0.27895095858E+03  0.12700000000E+01 0.  1.
          4   -1    0    0  502    0  0.00000000000E+00 -0.00000000000E+00 -0.20429169060E+02  0.20468606413E+02  0.12700000000E+01 0.  1.
         25    2    1    2    0    0 -0.11069737295E+02  0.16871857848E+02  0.19259512692E+03  0.23047652815E+03  0.12497739172E+03 0.  0.
    9000005    1    3    3    0    0  0.50442535534E+02  0.12981420398E+02  0.14022897754E+03  0.14959322448E+03  0.10000000000E+01 0.  0.
    9000005    1    3    3    0    0 -0.61512272829E+02  0.38904374497E+01  0.52366149382E+02  0.80883303674E+02  0.10000000000E+01 0.  0.
         21    1    1    2  502  501  0.11069737295E+02 -0.16871857848E+02  0.65923771567E+02  0.68943036840E+02  0.00000000000E+00 0.  1.
<mgrwt>
<rscale>  1 0.12659600E+03</rscale>
<asrwt>0</asrwt>
<pdfrwt beam="2">  1        4 0.31462054E-02 0.12659600E+03</pdfrwt>
<pdfrwt beam="1">  1       -4 0.42918340E-01 0.12659600E+03</pdfrwt>
<totfact> 0.42588652E+03</totfact>
</mgrwt>
</event>
<event>
 6    4  0.2271823E-003  0.1269918E+03  0.7818608E-02  0.1231989E+00
          4   -1    0    0  502    0  0.00000000000E+00  0.00000000000E+00  0.18942036347E+03  0.18942462088E+03  0.12700000000E+01 0. -1.
         -4   -1    0    0    0  501 -0.00000000000E+00 -0.00000000000E+00 -0.30397545537E+02  0.30424064072E+02  0.12700000000E+01 0. -1.
         25    2    1    2    0    0 -0.22348585340E+02  0.10344795671E+01  0.14765589647E+03  0.19475413737E+03  0.12500552327E+03 0.  0.
    9000005    1    3    3    0    0 -0.30900256764E+02 -0.24665075003E+01 -0.13144661835E+02  0.33685184608E+02  0.10000000000E+01 0.  0.
    9000005    1    3    3    0    0  0.85516714240E+01  0.35009870674E+01  0.16080055830E+03  0.16106895277E+03  0.10000000000E+01 0.  0.
         21    1    1    2  502  501  0.22348585340E+02 -0.10344795671E+01  0.11366921462E+02  0.25094547579E+02  0.00000000000E+00 0. -1.
<mgrwt>
<rscale>  1 0.12699177E+03</rscale>
<asrwt>0</asrwt>
<pdfrwt beam="1">  1        4 0.29143962E-01 0.12699177E+03</pdfrwt>
<pdfrwt beam="2">  1       -4 0.46789128E-02 0.12699177E+03</pdfrwt>
<totfact> 0.48016555E+03</totfact>
</mgrwt>
</event>
<event>
 6    4  0.2271823E-003  0.1284092E+03  0.7818608E-02  0.1229835E+00
          4   -1    0    0  502    0  0.00000000000E+00  0.00000000000E+00  0.72956311683E+02  0.72967364722E+02  0.12700000000E+01 0. -1.
         -4   -1    0    0    0  501 -0.00000000000E+00 -0.00000000000E+00 -0.10164507072E+03  0.10165300439E+03  0.12700000000E+01 0. -1.
         25    2    1    2    0    0  0.27425013838E+02  0.10598445259E+02 -0.50530406554E+02  0.13799365766E+03  0.12499787655E+03 0.  0.
    9000005    1    3    3    0    0  0.44558569144E+02 -0.46598444697E+02 -0.43685070296E+02  0.77886240757E+02  0.10000000000E+01 0.  0.
    9000005    1    3    3    0    0 -0.17133555306E+02  0.57196889956E+02 -0.68453362581E+01  0.60107416902E+02  0.10000000000E+01 0.  0.
         21    1    1    2  502  501 -0.27425013838E+02 -0.10598445259E+02  0.21841647515E+02  0.36626711457E+02  0.00000000000E+00 0. -1.
<mgrwt>
<rscale>  1 0.12840922E+03</rscale>
<asrwt>0</asrwt>
<pdfrwt beam="1">  1        4 0.11225508E-01 0.12840922E+03</pdfrwt>
<pdfrwt beam="2">  1       -4 0.15639164E-01 0.12840922E+03</pdfrwt>
<totfact> 0.35242195E+03</totfact>
</mgrwt>
</event>
<event>
 6    4  0.2271823E-003  0.1299713E+03  0.7818608E-02  0.1227498E+00
          4   -1    0    0  502    0  0.00000000000E+00  0.00000000000E+00  0.23522171115E+03  0.23522513959E+03  0.12700000000E+01 0. -1.
         -4   -1    0    0    0  501 -0.00000000000E+00 -0.00000000000E+00 -0.36420551555E+02  0.36442687546E+02  0.12700000000E+01 0. -1.
         25    2    1    2    0    0  0.49150031179E+01  0.35260263268E+02  0.19701194156E+03  0.23602172324E+03  0.12500042121E+03 0.  0.
    9000005    1    3    3    0    0 -0.48050276999E+02 -0.21208506720E+02  0.78098699984E+02  0.94122456492E+02  0.10000000000E+01 0.  0.
    9000005    1    3    3    0    0  0.52965280117E+02  0.56468769988E+02  0.11891324158E+03  0.14189926675E+03  0.10000000000E+01 0.  0.
         21    1    1    2  502  501 -0.49150031179E+01 -0.35260263268E+02  0.17892180274E+01  0.35646103890E+02  0.00000000000E+00 0. -1.
<mgrwt>
<rscale>  1 0.12997134E+03</rscale>
<asrwt>0</asrwt>
<pdfrwt beam="1">  1        4 0.36189922E-01 0.12997134E+03</pdfrwt>
<pdfrwt beam="2">  1       -4 0.56051282E-02 0.12997134E+03</pdfrwt>
<totfact> 0.23892524E+03</totfact>
</mgrwt>
</event>
<event>
 6    4  0.2271823E-003  0.1316301E+03  0.7818608E-02  0.1225057E+00
          4   -1    0    0  502    0  0.00000000000E+00  0.00000000000E+00  0.43726269836E+02  0.43744709095E+02  0.12700000000E+01 0. -1.
         -4   -1    0    0    0  501 -0.00000000000E+00 -0.00000000000E+00 -0.65522316860E+03  0.65522439940E+03  0.12700000000E+01 0. -1.
         25    2    1    2    0    0 -0.39302372167E+02  0.12498149573E+02 -0.57838484751E+02  0.14377678181E+03  0.12500236985E+03 0.  0.
    9000005    1    3    3    0    0 -0.15138371906E+02  0.68143688259E+02 -0.40343925938E+02  0.80631041874E+02  0.10000000000E+01 0.  0.
    9000005    1    3    3    0    0 -0.24164000261E+02 -0.55645538686E+02 -0.17494558812E+02  0.63145739938E+02  0.10000000000E+01 0.  0.
         21    1    1    2  502  501  0.39302372167E+02 -0.12498149573E+02 -0.55365841401E+03  0.55519232668E+03  0.00000000000E+00 0. -1.
<mgrwt>
<rscale>  1 0.13163006E+03</rscale>
<asrwt>0</asrwt>
<pdfrwt beam="1">  1        4 0.67286320E-02 0.13163006E+03</pdfrwt>
<pdfrwt beam="2">  1       -4 0.10080507E+00 0.13163006E+03</pdfrwt>
<totfact> 0.20532347E+02</totfact>
</mgrwt>
</event>
<event>
 6    4  0.2271823E-003  0.1276138E+03  0.7818608E-02  0.1231040E+00
         -4   -1    0    0    0  501 -0.00000000000E+00  0.00000000000E+00  0.50329124282E+02  0.50345145258E+02  0.12700000000E+01 0. -1.
          4   -1    0    0  502    0  0.00000000000E+00 -0.00000000000E+00 -0.24263654890E+03  0.24263987257E+03  0.12700000000E+01 0. -1.
         25    2    1    2    0    0  0.14352484973E+02 -0.21298920297E+02 -0.22055109437E+03  0.25480985952E+03  0.12500256578E+03 0.  0.
    9000005    1    3    3    0    0  0.87010418043E+01 -0.53315296072E+01  0.15262360021E+02  0.18386760722E+02  0.10000000000E+01 0.  0.
    9000005    1    3    3    0    0  0.56514431689E+01 -0.15967390690E+02 -0.23581345439E+03  0.23642309880E+03  0.10000000000E+01 0.  0.
         21    1    1    2  502  501 -0.14352484973E+02  0.21298920297E+02  0.28243669751E+02  0.38175158307E+02  0.00000000000E+00 0. -1.
<mgrwt>
<rscale>  1 0.12761379E+03</rscale>
<asrwt>0</asrwt>
<pdfrwt beam="2">  1        4 0.37330187E-01 0.12761379E+03</pdfrwt>
<pdfrwt beam="1">  1       -4 0.77444304E-02 0.12761379E+03</pdfrwt>
<totfact> 0.13211290E+03</totfact>
</mgrwt>
</event>
<event>
 6    4  0.2271823E-003  0.1278205E+03  0.7818608E-02  0.1230726E+00
         -4   -1    0    0    0  501 -0.00000000000E+00  0.00000000000E+00  0.54919289559E+02  0.54933971873E+02  0.12700000000E+01 0. -1.
          4   -1    0    0  502    0  0.00000000000E+00 -0.00000000000E+00 -0.10861093203E+03  0.10861835691E+03  0.12700000000E+01 0. -1.
         25    2    1    2    0    0  0.24857928634E+02 -0.93612124088E+01 -0.42148480988E+02  0.13459039703E+03  0.12503012280E+03 0.  0.
    9000005    1    3    3    0    0  0.53518057837E+02 -0.51080169704E+02 -0.10102950572E+02  0.74675537239E+02  0.10000000000E+01 0.  0.
    9000005    1    3    3    0    0 -0.28660129203E+02  0.41718957295E+02 -0.32045530416E+02  0.59914859788E+02  0.10000000000E+01 0.  0.
         21    1    1    2  502  501 -0.24857928634E+02  0.93612124088E+01 -0.11543161484E+02  0.28961931752E+02  0.00000000000E+00 0.  1.
<mgrwt>
<rscale>  1 0.12782050E+03</rscale>
<asrwt>0</asrwt>
<pdfrwt beam="2">  1        4 0.16711075E-01 0.12782050E+03</pdfrwt>
<pdfrwt beam="1">  1       -4 0.84508220E-02 0.12782050E+03</pdfrwt>
<totfact> 0.50476872E+03</totfact>
</mgrwt>
</event>
<event>
 6    4  0.2271823E-003  0.1266330E+03  0.7818608E-02  0.1232539E+00
         -4   -1    0    0    0  501 -0.00000000000E+00  0.00000000000E+00  0.24570463344E+04  0.24570466626E+04  0.12700000000E+01 0. -1.
          4   -1    0    0  502    0  0.00000000000E+00 -0.00000000000E+00 -0.21851410736E+01  0.25273981704E+01  0.12700000000E+01 0. -1.
         25    2    1    2    0    0 -0.20255173465E+02  0.18265377203E+01  0.18268722440E+04  0.18312558860E+04  0.12498926285E+03 0.  0.
    9000005    1    3    3    0    0 -0.27459458773E+02 -0.12110799503E+02  0.10240068527E+03  0.10671266881E+03  0.10000000000E+01 0.  0.
    9000005    1    3    3    0    0  0.72042853082E+01  0.13937337224E+02  0.17244715587E+04  0.17245432172E+04  0.10000000000E+01 0.  0.
         21    1    1    2  502  501  0.20255173465E+02 -0.18265377203E+01  0.62798894926E+03  0.62831817472E+03  0.00000000000E+00 0. -1.
<mgrwt>
<rscale>  1 0.12663303E+03</rscale>
<asrwt>0</asrwt>
<pdfrwt beam="2">  1        4 0.36252923E-03 0.12663303E+03</pdfrwt>
<pdfrwt beam="1">  1       -4 0.37803248E+00 0.12663303E+03</pdfrwt>
<totfact> 0.28205727E+02</totfact>
</mgrwt>
</event>
<event>
 6    4  0.2271823E-003  0.1436493E+03  0.7818608E-02  0.1208501E+00
         -4   -1    0    0    0  501 -0.00000000000E+00  0.00000000000E+00  0.55581411670E+02  0.55595919124E+02  0.12700000000E+01 0.  1.
          4   -1    0    0  502    0  0.00000000000E+00 -0.00000000000E+00 -0.21048373617E+03  0.21048756755E+03  0.12700000000E+01 0.  1.
         25    2    1    2    0    0  0.70740392607E+02 -0.24125401532E+01 -0.11993876720E+03  0.18713746818E+03  0.12500040249E+03 0.  0.
    9000005    1    3    3    0    0 -0.86519329474E+01 -0.81475212898E+01  0.21642598029E+02  0.24711133045E+02  0.10000000000E+01 0.  0.
    9000005    1    3    3    0    0  0.79392325554E+02  0.57349811366E+01 -0.14158136523E+03  0.16242633514E+03  0.10000000000E+01 0.  0.
         21    1    1    2  502  501 -0.70740392607E+02  0.24125401532E+01 -0.34963557295E+02  0.78946018487E+02  0.00000000000E+00 0.  1.
<mgrwt>
<rscale>  1 0.14364931E+03</rscale>
<asrwt>0</asrwt>
<pdfrwt beam="2">  1        4 0.32383524E-01 0.14364931E+03</pdfrwt>
<pdfrwt beam="1">  1       -4 0.85523972E-02 0.14364931E+03</pdfrwt>
<totfact> 0.15122654E+03</totfact>
</mgrwt>
</event>
<event>
 6    4  0.2271823E-003  0.1298776E+03  0.7818608E-02  0.1227637E+00
         -4   -1    0    0    0  501 -0.00000000000E+00  0.00000000000E+00  0.29451909737E+02  0.29479278945E+02  0.12700000000E+01 0. -1.
          4   -1    0    0  502    0  0.00000000000E+00 -0.00000000000E+00 -0.39023116105E+03  0.39023322764E+03  0.12700000000E+01 0. -1.
         25    2    1    2    0    0  0.20964236850E+02 -0.28353067321E+02 -0.36183153880E+03  0.38443499304E+03  0.12499922299E+03 0.  0.
    9000005    1    3    3    0    0  0.72519985233E+02 -0.48806838692E+01 -0.18594026138E+03  0.19964405860E+03  0.10000000000E+01 0.  0.
    9000005    1    3    3    0    0 -0.51555748384E+02 -0.23472383452E+02 -0.17589127742E+03  0.18479093444E+03  0.10000000000E+01 0.  0.
         21    1    1    2  502  501 -0.20964236850E+02  0.28353067321E+02  0.10522874877E+01  0.35277513549E+02  0.00000000000E+00 0. -1.
<mgrwt>
<rscale>  1 0.12987764E+03</rscale>
<asrwt>0</asrwt>
<pdfrwt beam="2">  1        4 0.60037824E-01 0.12987764E+03</pdfrwt>
<pdfrwt beam="1">  1       -4 0.45333276E-02 0.12987764E+03</pdfrwt>
<totfact> 0.12119960E+03</totfact>
</mgrwt>
</event>
<event>
 6    4  0.2271823E-003  0.1276648E+03  0.7818608E-02  0.1230963E+00
          4   -1    0    0  502    0  0.00000000000E+00  0.00000000000E+00  0.71585935410E+02  0.71597200005E+02  0.12700000000E+01 0.  1.
         -4   -1    0    0    0  501 -0.00000000000E+00 -0.00000000000E+00 -0.89813266410E+02  0.89822245147E+02  0.12700000000E+01 0.  1.
         25    2    1    2    0    0 -0.87142385547E+01  0.24490759469E+02  0.32405301782E+01  0.12770588235E+03  0.12499022401E+03 0.  0.
    9000005    1    3    3    0    0  0.74957864836E+01  0.20176417015E+02 -0.59223289035E+02  0.63021207404E+02  0.10000000000E+01 0.  0.
    9000005    1    3    3    0    0 -0.16210025038E+02  0.43143424547E+01  0.62463819213E+02  0.64684674949E+02  0.10000000000E+01 0.  0.
         21    1    1    2  502  501  0.87142385547E+01 -0.24490759469E+02 -0.21467861178E+02  0.33713562798E+02  0.00000000000E+00 0.  1.
<mgrwt>
<rscale>  1 0.12766476E+03</rscale>
<asrwt>0</asrwt>
<pdfrwt beam="1">  1        4 0.11014778E-01 0.12766476E+03</pdfrwt>
<pdfrwt beam="2">  1       -4 0.13818983E-01 0.12766476E+03</pdfrwt>
<totfact> 0.45075770E+03</totfact>
</mgrwt>
</event>
<event>
 6    4  0.2271823E-003  0.1267205E+03  0.7818608E-02  0.1232405E+00
         -4   -1    0    0    0  501 -0.00000000000E+00  0.00000000000E+00  0.90704186582E+02  0.90713077136E+02  0.12700000000E+01 0.  1.
          4   -1    0    0  502    0  0.00000000000E+00 -0.00000000000E+00 -0.67551934492E+02  0.67563871660E+02  0.12700000000E+01 0.  1.
         25    2    1    2    0    0  0.11081986664E+02 -0.17616556856E+02 -0.56640407974E+00  0.12672178829E+03  0.12499974924E+03 0.  0.
    9000005    1    3    3    0    0 -0.12616133731E+02 -0.73766956811E+01 -0.60081302563E+02  0.61841291927E+02  0.10000000000E+01 0.  0.
    9000005    1    3    3    0    0  0.23698120395E+02 -0.10239861175E+02  0.59514898484E+02  0.64880496366E+02  0.10000000000E+01 0.  0.
         21    1    1    2  502  501 -0.11081986664E+02  0.17616556856E+02  0.23718656169E+02  0.31555160503E+02  0.00000000000E+00 0.  1.
<mgrwt>
<rscale>  1 0.12672052E+03</rscale>
<asrwt>0</asrwt>
<pdfrwt beam="2">  1        4 0.10394208E-01 0.12672052E+03</pdfrwt>
<pdfrwt beam="1">  1       -4 0.13956092E-01 0.12672052E+03</pdfrwt>
<totfact> 0.48788549E+03</totfact>
</mgrwt>
</event>
<event>
 6    4  0.2271823E-003  0.1310227E+03  0.7818608E-02  0.1225946E+00
         -4   -1    0    0    0  501 -0.00000000000E+00  0.00000000000E+00  0.18518510806E+04  0.18518515161E+04  0.12700000000E+01 0.  1.
          4   -1    0    0  502    0  0.00000000000E+00 -0.00000000000E+00 -0.97990340780E+01  0.98809902774E+01  0.12700000000E+01 0.  1.
         25    2    1    2    0    0 -0.16826807801E+02 -0.35513849106E+02  0.43912289054E+03  0.45825304743E+03  0.12499026979E+03 0.  0.
    9000005    1    3    3    0    0  0.20653578435E+02 -0.43044441641E+02  0.57611165642E+02  0.74829410428E+02  0.10000000000E+01 0.  0.
    9000005    1    3    3    0    0 -0.37480386236E+02  0.75305925351E+01  0.38151172490E+03  0.38342363700E+03  0.10000000000E+01 0.  0.
         21    1    1    2  502  501  0.16826807801E+02  0.35513849106E+02  0.14029291560E+04  0.14034794589E+04  0.00000000000E+00 0.  1.
<mgrwt>
<rscale>  1 0.13102268E+03</rscale>
<asrwt>0</asrwt>
<pdfrwt beam="2">  1        4 0.15138815E-02 0.13102268E+03</pdfrwt>
<pdfrwt beam="1">  1       -4 0.28490651E+00 0.13102268E+03</pdfrwt>
<totfact> 0.12058258E+02</totfact>
</mgrwt>
</event>
<event>
 6    4  0.2271823E-003  0.1268957E+03  0.7818608E-02  0.1232136E+00
         -4   -1    0    0    0  501 -0.00000000000E+00  0.00000000000E+00  0.48202527422E+02  0.48219254971E+02  0.12700000000E+01 0.  1.
          4   -1    0    0  502    0  0.00000000000E+00 -0.00000000000E+00 -0.11475260414E+03  0.11475963165E+03  0.12700000000E+01 0.  1.
         25    2    1    2    0    0 -0.17725894165E+02  0.12776732883E+02 -0.57842681656E+02  0.13945717419E+03  0.12500030154E+03 0.  0.
    9000005    1    3    3    0    0  0.81143473713E+01  0.16135659431E+02  0.36951643210E+02  0.41141537094E+02  0.10000000000E+01 0.  0.
    9000005    1    3    3    0    0 -0.25840241537E+02 -0.33589265482E+01 -0.94794324866E+02  0.98315637093E+02  0.10000000000E+01 0.  0.
         21    1    1    2  502  501  0.17725894165E+02 -0.12776732883E+02 -0.87073950609E+01  0.23521712435E+02  0.00000000000E+00 0. -1.
<mgrwt>
<rscale>  1 0.12689574E+03</rscale>
<asrwt>0</asrwt>
<pdfrwt beam="2">  1        4 0.17656074E-01 0.12689574E+03</pdfrwt>
<pdfrwt beam="1">  1       -4 0.74176008E-02 0.12689574E+03</pdfrwt>
<totfact> 0.56715848E+03</totfact>
</mgrwt>
</event>
<event>
 6    4  0.2271823E-003  0.1294808E+03  0.7818608E-02  0.1228228E+00
         -4   -1    0    0    0  501 -0.00000000000E+00  0.00000000000E+00  0.24723197216E+03  0.24723523406E+03  0.12700000000E+01 0.  1.
          4   -1    0    0  502    0  0.00000000000E+00 -0.00000000000E+00 -0.30820973603E+02  0.30847128129E+02  0.12700000000E+01 0.  1.
         25    2    1    2    0    0  0.29098756014E+02 -0.17113828625E+02  0.12233308167E+03  0.17813099812E+03  0.12500259553E+03 0.  0.
    9000005    1    3    3    0    0 -0.40644899825E+02  0.20149877109E+02  0.22141151590E+02  0.50490157685E+02  0.10000000000E+01 0.  0.
    9000005    1    3    3    0    0  0.69743655839E+02 -0.37263705734E+02  0.10019193008E+03  0.12764084044E+03  0.10000000000E+01 0.  0.
         21    1    1    2  502  501 -0.29098756014E+02  0.17113828625E+02  0.94077916890E+02  0.99951364063E+02  0.00000000000E+00 0.  1.
<mgrwt>
<rscale>  1 0.12948077E+03</rscale>
<asrwt>0</asrwt>
<pdfrwt beam="2">  1        4 0.47439510E-02 0.12948077E+03</pdfrwt>
<pdfrwt beam="1">  1       -4 0.38037951E-01 0.12948077E+03</pdfrwt>
<totfact> 0.28339125E+03</totfact>
</mgrwt>
</event>
<event>
 6    4  0.2271823E-003  0.1304292E+03  0.7818608E-02  0.1226820E+00
          4   -1    0    0  502    0  0.00000000000E+00  0.00000000000E+00  0.46051460775E+02  0.46068969378E+02  0.12700000000E+01 0. -1.
         -4   -1    0    0    0  501 -0.00000000000E+00 -0.00000000000E+00 -0.22466385361E+03  0.22466744317E+03  0.12700000000E+01 0. -1.
         25    2    1    2    0    0  0.29903333165E+02  0.22212413659E+02 -0.54856108003E+02  0.14149547982E+03  0.12499671024E+03 0.  0.
    9000005    1    3    3    0    0  0.15490699534E+02  0.55307423223E+02 -0.79277386482E+02  0.97901873542E+02  0.10000000000E+01 0.  0.
    9000005    1    3    3    0    0  0.14412633631E+02 -0.33095009564E+02  0.24421278479E+02  0.43593606283E+02  0.10000000000E+01 0.  0.
         21    1    1    2  502  501 -0.29903333165E+02 -0.22212413659E+02 -0.12375628483E+03  0.12924093272E+03  0.00000000000E+00 0. -1.
<mgrwt>
<rscale>  1 0.13042921E+03</rscale>
<asrwt>0</asrwt>
<pdfrwt beam="1">  1        4 0.70864632E-02 0.13042921E+03</pdfrwt>
<pdfrwt beam="2">  1       -4 0.34565292E-01 0.13042921E+03</pdfrwt>
<totfact> 0.17833465E+03</totfact>
</mgrwt>
</event>
<event>
 6    4  0.2271823E-003  0.1280096E+03  0.7818608E-02  0.1230439E+00
          4   -1    0    0  502    0  0.00000000000E+00  0.00000000000E+00  0.81733203532E+01  0.82714004616E+01  0.12700000000E+01 0.  1.
         -4   -1    0    0    0  501 -0.00000000000E+00 -0.00000000000E+00 -0.10914944443E+04  0.10914951832E+04  0.12700000000E+01 0.  1.
         25    2    1    2    0    0  0.26317791132E+02 -0.80443238009E+01 -0.51119282512E+03  0.52697680752E+03  0.12501645466E+03 0.  0.
    9000005    1    3    3    0    0  0.51142792529E+02 -0.33577207231E+02 -0.46310570738E+03  0.46713050669E+03  0.10000000000E+01 0.  0.
    9000005    1    3    3    0    0 -0.24825001397E+02  0.25532883430E+02 -0.48087117746E+02  0.59846300835E+02  0.10000000000E+01 0.  0.
         21    1    1    2  502  501 -0.26317791132E+02  0.80443238009E+01 -0.57212829886E+03  0.57278977613E+03  0.00000000000E+00 0. -1.
<mgrwt>
<rscale>  1 0.12800957E+03</rscale>
<asrwt>0</asrwt>
<pdfrwt beam="1">  1        4 0.12650362E-02 0.12800957E+03</pdfrwt>
<pdfrwt beam="2">  1       -4 0.16792971E+00 0.12800957E+03</pdfrwt>
<totfact> 0.79967895E+02</totfact>
</mgrwt>
</event>
<event>
 6    4  0.2271823E-003  0.1305102E+03  0.7818608E-02  0.1226701E+00
         -4   -1    0    0    0  501 -0.00000000000E+00  0.00000000000E+00  0.83624082613E+03  0.83624179051E+03  0.12700000000E+01 0. -1.
          4   -1    0    0  502    0  0.00000000000E+00 -0.00000000000E+00 -0.87782760388E+01  0.88696691152E+01  0.12700000000E+01 0. -1.
         25    2    1    2    0    0  0.32216311954E+02  0.19260556381E+02  0.55872003893E+03  0.57376040086E+03  0.12499622354E+03 0.  0.
    9000005    1    3    3    0    0  0.58099787400E+02  0.18457583483E+02  0.12311101313E+03  0.13738118225E+03  0.10000000000E+01 0.  0.
    9000005    1    3    3    0    0 -0.25883475446E+02  0.80297289764E+00  0.43560902581E+03  0.43637921861E+03  0.10000000000E+01 0.  0.
         21    1    1    2  502  501 -0.32216311954E+02 -0.19260556381E+02  0.26874251116E+03  0.27135105876E+03  0.00000000000E+00 0.  1.
<mgrwt>
<rscale>  1 0.13051021E+03</rscale>
<asrwt>0</asrwt>
<pdfrwt beam="2">  1        4 0.13576079E-02 0.13051021E+03</pdfrwt>
<pdfrwt beam="1">  1       -4 0.12865959E+00 0.13051021E+03</pdfrwt>
<totfact> 0.14163748E+03</totfact>
</mgrwt>
</event>
<event>
 6    4  0.2271823E-003  0.1281479E+03  0.7818608E-02  0.1230230E+00
          4   -1    0    0  502    0  0.00000000000E+00  0.00000000000E+00  0.40336651314E+02  0.40356639345E+02  0.12700000000E+01 0.  1.
         -4   -1    0    0    0  501 -0.00000000000E+00 -0.00000000000E+00 -0.24443018271E+03  0.24443348200E+03  0.12700000000E+01 0.  1.
         25    2    1    2    0    0  0.28160257001E+02 -0.20002929900E+01 -0.66586309059E+02  0.14441477649E+03  0.12499955947E+03 0.  0.
    9000005    1    3    3    0    0  0.49075127856E+02 -0.11724559483E+02  0.20387735823E+02  0.54428790554E+02  0.10000000000E+01 0.  0.
    9000005    1    3    3    0    0 -0.20914870855E+02  0.97242664930E+01 -0.86974044882E+02  0.89985985935E+02  0.10000000000E+01 0.  0.
         21    1    1    2  502  501 -0.28160257001E+02  0.20002929900E+01 -0.13750722234E+03  0.14037534485E+03  0.00000000000E+00 0.  1.
<mgrwt>
<rscale>  1 0.12814793E+03</rscale>
<asrwt>0</asrwt>
<pdfrwt beam="1">  1        4 0.62074302E-02 0.12814793E+03</pdfrwt>
<pdfrwt beam="2">  1       -4 0.37606434E-01 0.12814793E+03</pdfrwt>
<totfact> 0.18730828E+03</totfact>
</mgrwt>
</event>
<event>
 6    4  0.2271823E-003  0.1271387E+03  0.7818608E-02  0.1231764E+00
          4   -1    0    0  502    0  0.00000000000E+00  0.00000000000E+00  0.12859538600E+04  0.12859544871E+04  0.12700000000E+01 0. -1.
         -4   -1    0    0    0  501 -0.00000000000E+00 -0.00000000000E+00 -0.71586738560E+01  0.72704546884E+01  0.12700000000E+01 0. -1.
         25    2    1    2    0    0 -0.18339069060E+02  0.14234846818E+02  0.12489951037E+04  0.12554493249E+04  0.12500114418E+03 0.  0.
    9000005    1    3    3    0    0 -0.44129417752E+02  0.51926361270E+02  0.44816129027E+03  0.45331368235E+03  0.10000000000E+01 0.  0.
    9000005    1    3    3    0    0  0.25790348692E+02 -0.37691514453E+02  0.80083381344E+03  0.80213564257E+03  0.10000000000E+01 0.  0.
         21    1    1    2  502  501  0.18339069060E+02 -0.14234846818E+02  0.29800082432E+02  0.37775616883E+02  0.00000000000E+00 0.  1.
<mgrwt>
<rscale>  1 0.12713866E+03</rscale>
<asrwt>0</asrwt>
<pdfrwt beam="1">  1        4 0.19784761E+00 0.12713866E+03</pdfrwt>
<pdfrwt beam="2">  1       -4 0.11099817E-02 0.12713866E+03</pdfrwt>
<totfact> 0.62158976E+02</totfact>
</mgrwt>
</event>
<event>
 6    4  0.2271823E-003  0.1270895E+03  0.7818608E-02  0.1231839E+00
         -4   -1    0    0    0  501 -0.00000000000E+00  0.00000000000E+00  0.51258866210E+02  0.51274596684E+02  0.12700000000E+01 0.  1.
          4   -1    0    0  502    0  0.00000000000E+00 -0.00000000000E+00 -0.20001576216E+03  0.20001979405E+03  0.12700000000E+01 0.  1.
         25    2    1    2    0    0  0.18820410306E+02 -0.13176695693E+02 -0.17508720351E+03  0.21634988831E+03  0.12499564866E+03 0.  0.
    9000005    1    3    3    0    0 -0.16540374881E+02 -0.62262484885E+02 -0.11002921097E+03  0.12750540495E+03  0.10000000000E+01 0.  0.
    9000005    1    3    3    0    0  0.35360785187E+02  0.49085789191E+02 -0.65057992540E+02  0.88844483357E+02  0.10000000000E+01 0.  0.
         21    1    1    2  502  501 -0.18820410306E+02  0.13176695693E+02  0.26330307562E+02  0.34944502425E+02  0.00000000000E+00 0.  1.
<mgrwt>
<rscale>  1 0.12708952E+03</rscale>
<asrwt>0</asrwt>
<pdfrwt beam="2">  1        4 0.30773175E-01 0.12708952E+03</pdfrwt>
<pdfrwt beam="1">  1       -4 0.78874997E-02 0.12708952E+03</pdfrwt>
<totfact> 0.18551937E+03</totfact>
</mgrwt>
</event>
<event>
 6    4  0.2271823E-003  0.1346173E+03  0.7818608E-02  0.1220761E+00
          4   -1    0    0  502    0  0.00000000000E+00  0.00000000000E+00  0.91028467674E+01  0.91910129622E+01  0.12700000000E+01 0.  1.
         -4   -1    0    0    0  501 -0.00000000000E+00 -0.00000000000E+00 -0.11631610425E+04  0.11631617359E+04  0.12700000000E+01 0.  1.
         25    2    1    2    0    0  0.49640193757E+02 -0.57762231190E+01 -0.55015702004E+03  0.56638728476E+03  0.12499718417E+03 0.  0.
    9000005    1    3    3    0    0  0.10764825950E+02 -0.52559194799E+02 -0.41133825714E+03  0.41482347115E+03  0.10000000000E+01 0.  0.
    9000005    1    3    3    0    0  0.38875367807E+02  0.46782971680E+02 -0.13881876290E+03  0.15156381360E+03  0.10000000000E+01 0.  0.
         21    1    1    2  502  501 -0.49640193757E+02  0.57762231190E+01 -0.60390117574E+03  0.60596546407E+03  0.00000000000E+00 0.  1.
<mgrwt>
<rscale>  1 0.13461727E+03</rscale>
<asrwt>0</asrwt>
<pdfrwt beam="1">  1        4 0.14072742E-02 0.13461727E+03</pdfrwt>
<pdfrwt beam="2">  1       -4 0.17895457E+00 0.13461727E+03</pdfrwt>
<totfact> 0.57930328E+02</totfact>
</mgrwt>
</event>
<event>
 6    4  0.2271823E-003  0.1278553E+03  0.7818608E-02  0.1230673E+00
          4   -1    0    0  502    0  0.00000000000E+00  0.00000000000E+00  0.52738228625E+02  0.52753517972E+02  0.12700000000E+01 0.  1.
         -4   -1    0    0    0  501 -0.00000000000E+00 -0.00000000000E+00 -0.18869668048E+03  0.18870095422E+03  0.12700000000E+01 0.  1.
         25    2    1    2    0    0  0.14699023845E+02 -0.22491719100E+02 -0.28906671675E+02  0.13108227293E+03  0.12500011152E+03 0.  0.
    9000005    1    3    3    0    0 -0.96698349952E+01 -0.42966858132E+02 -0.67775537002E+02  0.80834275048E+02  0.10000000000E+01 0.  0.
    9000005    1    3    3    0    0  0.24368858840E+02  0.20475139032E+02  0.38868865327E+02  0.50247997884E+02  0.10000000000E+01 0.  0.
         21    1    1    2  502  501 -0.14699023845E+02  0.22491719100E+02 -0.10705178018E+03  0.11037219926E+03  0.00000000000E+00 0.  1.
<mgrwt>
<rscale>  1 0.12785526E+03</rscale>
<asrwt>0</asrwt>
<pdfrwt beam="1">  1        4 0.81150786E-02 0.12785526E+03</pdfrwt>
<pdfrwt beam="2">  1       -4 0.29031763E-01 0.12785526E+03</pdfrwt>
<totfact> 0.19782567E+03</totfact>
</mgrwt>
</event>
<event>
 6    4  0.2271823E-003  0.1477897E+03  0.7818608E-02  0.1203216E+00
          4   -1    0    0  502    0  0.00000000000E+00  0.00000000000E+00  0.54249600912E+02  0.54264464423E+02  0.12700000000E+01 0. -1.
         -4   -1    0    0    0  501 -0.00000000000E+00 -0.00000000000E+00 -0.26260423567E+03  0.26260730662E+03  0.12700000000E+01 0. -1.
         25    2    1    2    0    0  0.62813852394E+02 -0.47656777749E+02 -0.85054263222E+02  0.17051696197E+03  0.12500023244E+03 0.  0.
    9000005    1    3    3    0    0  0.27631886071E+02 -0.78504303466E+02 -0.12481159442E+02  0.84161904277E+02  0.10000000000E+01 0.  0.
    9000005    1    3    3    0    0  0.35181966322E+02  0.30847525717E+02 -0.72573103781E+02  0.86355057695E+02  0.10000000000E+01 0.  0.
         21    1    1    2  502  501 -0.62813852394E+02  0.47656777749E+02 -0.12330037153E+03  0.14635480907E+03  0.00000000000E+00 0. -1.
<mgrwt>
<rscale>  1 0.14778974E+03</rscale>
<asrwt>0</asrwt>
<pdfrwt beam="1">  1        4 0.83474722E-02 0.14778974E+03</pdfrwt>
<pdfrwt beam="2">  1       -4 0.40402031E-01 0.14778974E+03</pdfrwt>
<totfact> 0.10307084E+03</totfact>
</mgrwt>
</event>
<event>
 6    4  0.2271823E-003  0.1365052E+03  0.7818608E-02  0.1218110E+00
          4   -1    0    0  502    0  0.00000000000E+00  0.00000000000E+00  0.22449017441E+03  0.22449376674E+03  0.12700000000E+01 0. -1.
         -4   -1    0    0    0  501 -0.00000000000E+00 -0.00000000000E+00 -0.71458100968E+02  0.71469385712E+02  0.12700000000E+01 0. -1.
         25    2    1    2    0    0 -0.54413852555E+02 -0.69103652758E+01  0.18694275329E+03  0.23147629560E+03  0.12500024768E+03 0.  0.
    9000005    1    3    3    0    0 -0.35578840810E+02 -0.63223231683E+02  0.13172429616E+03  0.15038391249E+03  0.10000000000E+01 0.  0.
    9000005    1    3    3    0    0 -0.18835011745E+02  0.56312866407E+02  0.55218457133E+02  0.81092383111E+02  0.10000000000E+01 0.  0.
         21    1    1    2  502  501  0.54413852555E+02  0.69103652758E+01 -0.33910679854E+02  0.64486856849E+02  0.00000000000E+00 0. -1.
<mgrwt>
<rscale>  1 0.13650525E+03</rscale>
<asrwt>0</asrwt>
<pdfrwt beam="1">  1        4 0.34538094E-01 0.13650525E+03</pdfrwt>
<pdfrwt beam="2">  1       -4 0.10994698E-01 0.13650525E+03</pdfrwt>
<totfact> 0.86662709E+02</totfact>
</mgrwt>
</event>
<event>
 6    4  0.2271823E-003  0.1268215E+03  0.7818608E-02  0.1232250E+00
          4   -1    0    0  502    0  0.00000000000E+00  0.00000000000E+00  0.27554715959E+02  0.27583967655E+02  0.12700000000E+01 0. -1.
         -4   -1    0    0    0  501 -0.00000000000E+00 -0.00000000000E+00 -0.20054578583E+03  0.20054980706E+03  0.12700000000E+01 0. -1.
         25    2    1    2    0    0  0.49224209250E+00  0.21412397599E+02 -0.14109947015E+03  0.18971753850E+03  0.12499980345E+03 0.  0.
    9000005    1    3    3    0    0  0.47341988576E+02 -0.29412858577E+02 -0.46753492735E+02  0.72754856985E+02  0.10000000000E+01 0.  0.
    9000005    1    3    3    0    0 -0.46849746484E+02  0.50825256176E+02 -0.94345977419E+02  0.11696268151E+03  0.10000000000E+01 0.  0.
         21    1    1    2  502  501 -0.49224209250E+00 -0.21412397599E+02 -0.31891599716E+02  0.38416236224E+02  0.00000000000E+00 0. -1.
<mgrwt>
<rscale>  1 0.12682146E+03</rscale>
<asrwt>0</asrwt>
<pdfrwt beam="1">  1        4 0.42417467E-02 0.12682146E+03</pdfrwt>
<pdfrwt beam="2">  1       -4 0.30855756E-01 0.12682146E+03</pdfrwt>
<totfact> 0.50399531E+03</totfact>
</mgrwt>
</event>
<event>
 6    4  0.2271823E-003  0.1280471E+03  0.7818608E-02  0.1230383E+00
         -4   -1    0    0    0  501 -0.00000000000E+00  0.00000000000E+00  0.82123457771E+03  0.82123555970E+03  0.12700000000E+01 0. -1.
          4   -1    0    0  502    0  0.00000000000E+00 -0.00000000000E+00 -0.73967333716E+01  0.75049693251E+01  0.12700000000E+01 0. -1.
         25    2    1    2    0    0 -0.25260674549E+02  0.11535229386E+02  0.69539994338E+03  0.70709062324E+03  0.12499962010E+03 0.  0.
    9000005    1    3    3    0    0  0.90041779815E+01 -0.53250870267E+02  0.25825186979E+03  0.26384040376E+03  0.10000000000E+01 0.  0.
    9000005    1    3    3    0    0 -0.34264852531E+02  0.64786099653E+02  0.43714807359E+03  0.44325021948E+03  0.10000000000E+01 0.  0.
         21    1    1    2  502  501  0.25260674549E+02 -0.11535229386E+02  0.11843790096E+03  0.12164990579E+03  0.00000000000E+00 0. -1.
<mgrwt>
<rscale>  1 0.12804713E+03</rscale>
<asrwt>0</asrwt>
<pdfrwt beam="2">  1        4 0.11463609E-02 0.12804713E+03</pdfrwt>
<pdfrwt beam="1">  1       -4 0.12635213E+00 0.12804713E+03</pdfrwt>
<totfact> 0.19041454E+03</totfact>
</mgrwt>
</event>
<event>
 6    4  0.2271823E-003  0.1289298E+03  0.7818608E-02  0.1229052E+00
         -4   -1    0    0    0  501 -0.00000000000E+00  0.00000000000E+00  0.61939142845E+02  0.61952161515E+02  0.12700000000E+01 0. -1.
          4   -1    0    0  502    0  0.00000000000E+00 -0.00000000000E+00 -0.10413434991E+03  0.10414209395E+03  0.12700000000E+01 0. -1.
         25    2    1    2    0    0  0.22144079934E+02  0.22539572506E+02 -0.31339343627E+02  0.13268404181E+03  0.12499803154E+03 0.  0.
    9000005    1    3    3    0    0  0.62111071090E+02 -0.14118070428E+02  0.10002379470E+02  0.64483739498E+02  0.10000000000E+01 0.  0.
    9000005    1    3    3    0    0 -0.39966991156E+02  0.36657642934E+02 -0.41341723097E+02  0.68200302317E+02  0.10000000000E+01 0.  0.
         21    1    1    2  502  501 -0.22144079934E+02 -0.22539572506E+02 -0.10855863440E+02  0.33410213647E+02  0.00000000000E+00 0. -1.
<mgrwt>
<rscale>  1 0.12892983E+03</rscale>
<asrwt>0</asrwt>
<pdfrwt beam="2">  1        4 0.16022266E-01 0.12892983E+03</pdfrwt>
<pdfrwt beam="1">  1       -4 0.95306960E-02 0.12892983E+03</pdfrwt>
<totfact> 0.44568714E+03</totfact>
</mgrwt>
</event>
<event>
 6    4  0.2271823E-003  0.1283380E+03  0.7818608E-02  0.1229943E+00
          4   -1    0    0  502    0  0.00000000000E+00  0.00000000000E+00  0.20195877038E+02  0.20235769057E+02  0.12700000000E+01 0.  1.
         -4   -1    0    0    0  501 -0.00000000000E+00 -0.00000000000E+00 -0.31644771865E+03  0.31645026709E+03  0.12700000000E+01 0.  1.
         25    2    1    2    0    0  0.20818596778E+02 -0.20304725039E+02 -0.21505040630E+03  0.25043425977E+03  0.12499978155E+03 0.  0.
    9000005    1    3    3    0    0 -0.19917797672E+02  0.36776061029E+02 -0.14652823605E+03  0.15238346790E+03  0.10000000000E+01 0.  0.
    9000005    1    3    3    0    0  0.40736394451E+02 -0.57080786068E+02 -0.68522170249E+02  0.98050791871E+02  0.10000000000E+01 0.  0.
         21    1    1    2  502  501 -0.20818596778E+02  0.20304725039E+02 -0.81201435318E+02  0.86251776379E+02  0.00000000000E+00 0.  1.
<mgrwt>
<rscale>  1 0.12833800E+03</rscale>
<asrwt>0</asrwt>
<pdfrwt beam="1">  1        4 0.31103229E-02 0.12833800E+03</pdfrwt>
<pdfrwt beam="2">  1       -4 0.48687526E-01 0.12833800E+03</pdfrwt>
<totfact> 0.33783389E+03</totfact>
</mgrwt>
</event>
<event>
 6    4  0.2271823E-003  0.1340697E+03  0.7818608E-02  0.1221539E+00
          4   -1    0    0  502    0  0.00000000000E+00  0.00000000000E+00  0.12053844985E+02  0.12120564298E+02  0.12700000000E+01 0.  1.
         -4   -1    0    0    0  501 -0.00000000000E+00 -0.00000000000E+00 -0.84643473621E+03  0.84643568897E+03  0.12700000000E+01 0.  1.
         25    2    1    2    0    0  0.48334893104E+02 -0.37659606562E+01 -0.40881250188E+03  0.43023523072E+03  0.12499699078E+03 0.  0.
    9000005    1    3    3    0    0  0.30460286286E-01 -0.41234407426E+02 -0.43903104516E+02  0.60239188821E+02  0.10000000000E+01 0.  0.
    9000005    1    3    3    0    0  0.48304432818E+02  0.37468446770E+02 -0.36490939737E+03  0.36999604190E+03  0.10000000000E+01 0.  0.
         21    1    1    2  502  501 -0.48334893104E+02  0.37659606562E+01 -0.42556838934E+03  0.42832102255E+03  0.00000000000E+00 0. -1.
<mgrwt>
<rscale>  1 0.13406973E+03</rscale>
<asrwt>0</asrwt>
<pdfrwt beam="1">  1        4 0.18596439E-02 0.13406973E+03</pdfrwt>
<pdfrwt beam="2">  1       -4 0.13022589E+00 0.13406973E+03</pdfrwt>
<totfact> 0.85526187E+02</totfact>
</mgrwt>
</event>
<event>
 6    4  0.2271823E-003  0.1316320E+03  0.7818608E-02  0.1225054E+00
          4   -1    0    0  502    0  0.00000000000E+00  0.00000000000E+00  0.32297368119E+02  0.32322328001E+02  0.12700000000E+01 0.  1.
         -4   -1    0    0    0  501 -0.00000000000E+00 -0.00000000000E+00 -0.36979031150E+03  0.36979249232E+03  0.12700000000E+01 0.  1.
         25    2    1    2    0    0 -0.23359125872E+02 -0.34002854451E+02 -0.11185971782E+03  0.17274133592E+03  0.12500051916E+03 0.  0.
    9000005    1    3    3    0    0  0.43393325301E+02 -0.28672944624E+02 -0.13496035673E+02  0.53742547512E+02  0.10000000000E+01 0.  0.
    9000005    1    3    3    0    0 -0.66752451174E+02 -0.53299098267E+01 -0.98363682146E+02  0.11899878840E+03  0.10000000000E+01 0.  0.
         21    1    1    2  502  501  0.23359125872E+02  0.34002854451E+02 -0.22563322556E+03  0.22937348441E+03  0.00000000000E+00 0. -1.
<mgrwt>
<rscale>  1 0.13163196E+03</rscale>
<asrwt>0</asrwt>
<pdfrwt beam="1">  1        4 0.49709139E-02 0.13163196E+03</pdfrwt>
<pdfrwt beam="2">  1       -4 0.56892902E-01 0.13163196E+03</pdfrwt>
<totfact> 0.11735243E+03</totfact>
</mgrwt>
</event>
<event>
 6    4  0.2271823E-003  0.1291847E+03  0.7818608E-02  0.1228670E+00
         -4   -1    0    0    0  501 -0.00000000000E+00  0.00000000000E+00  0.14211543444E+03  0.14212110894E+03  0.12700000000E+01 0. -1.
          4   -1    0    0  502    0  0.00000000000E+00 -0.00000000000E+00 -0.64573035402E+02  0.64585523153E+02  0.12700000000E+01 0. -1.
         25    2    1    2    0    0  0.32480242762E+02  0.27434995064E+01  0.74425641847E+01  0.12939893645E+03  0.12500480004E+03 0.  0.
    9000005    1    3    3    0    0  0.56048335625E+02 -0.47163115076E+02  0.11019394457E+02  0.74082402797E+02  0.10000000000E+01 0.  0.
    9000005    1    3    3    0    0 -0.23568092863E+02  0.49906614582E+02 -0.35768302727E+01  0.55316533650E+02  0.10000000000E+01 0.  0.
         21    1    1    2  502  501 -0.32480242762E+02 -0.27434995064E+01  0.70099834852E+02  0.77307695644E+02  0.00000000000E+00 0. -1.
<mgrwt>
<rscale>  1 0.12918472E+03</rscale>
<asrwt>0</asrwt>
<pdfrwt beam="2">  1        4 0.99357102E-02 0.12918472E+03</pdfrwt>
<pdfrwt beam="1">  1       -4 0.21865310E-01 0.12918472E+03</pdfrwt>
<totfact> 0.23874261E+03</totfact>
</mgrwt>
</event>
<event>
 6    4  0.2271823E-003  0.1270065E+03  0.7818608E-02  0.1231966E+00
         -4   -1    0    0    0  501 -0.00000000000E+00  0.00000000000E+00  0.14057168514E+03  0.14057742195E+03  0.12700000000E+01 0.  1.
          4   -1    0    0  502    0  0.00000000000E+00 -0.00000000000E+00 -0.44316514736E+02  0.44334708506E+02  0.12700000000E+01 0.  1.
         25    2    1    2    0    0 -0.83108826741E+01 -0.20886794257E+02  0.55997316514E+02  0.13880330544E+03  0.12500131679E+03 0.  0.
    9000005    1    3    3    0    0  0.53028844855E+02 -0.33574401422E+02  0.38968511697E+02  0.73883988261E+02  0.10000000000E+01 0.  0.
    9000005    1    3    3    0    0 -0.61339727529E+02  0.12687607165E+02  0.17028804817E+02  0.64919317175E+02  0.10000000000E+01 0.  0.
         21    1    1    2  502  501  0.83108826741E+01  0.20886794257E+02  0.40257853890E+02  0.46108825023E+02  0.00000000000E+00 0.  1.
<mgrwt>
<rscale>  1 0.12700653E+03</rscale>
<asrwt>0</asrwt>
<pdfrwt beam="2">  1        4 0.68197662E-02 0.12700653E+03</pdfrwt>
<pdfrwt beam="1">  1       -4 0.21628254E-01 0.12700653E+03</pdfrwt>
<totfact> 0.45265472E+03</totfact>
</mgrwt>
</event>
<event>
 6    4  0.2271823E-003  0.1270696E+03  0.7818608E-02  0.1231870E+00
          4   -1    0    0  502    0  0.00000000000E+00  0.00000000000E+00  0.27205464907E+04  0.27205467872E+04  0.12700000000E+01 0.  1.
         -4   -1    0    0    0  501 -0.00000000000E+00 -0.00000000000E+00 -0.19451484022E+01  0.23230373020E+01  0.12700000000E+01 0.  1.
         25    2    1    2    0    0  0.22389433849E+02 -0.42179378124E+01  0.24547445583E+04  0.24580312316E+04  0.12501044627E+03 0.  0.
    9000005    1    3    3    0    0 -0.98591923460E+01 -0.13541802194E+02  0.22814855527E+04  0.22815472625E+04  0.10000000000E+01 0.  0.
    9000005    1    3    3    0    0  0.32248626195E+02  0.93238643819E+01  0.17325900557E+03  0.17648396910E+03  0.10000000000E+01 0.  0.
         21    1    1    2  502  501 -0.22389433849E+02  0.42179378124E+01  0.26385678408E+03  0.26483859283E+03  0.00000000000E+00 0. -1.
<mgrwt>
<rscale>  1 0.12706962E+03</rscale>
<asrwt>0</asrwt>
<pdfrwt beam="1">  1        4 0.41857465E+00 0.12706962E+03</pdfrwt>
<pdfrwt beam="2">  1       -4 0.32834482E-03 0.12706962E+03</pdfrwt>
<totfact> 0.17714481E+02</totfact>
</mgrwt>
</event>
<event>
 6    4  0.2271823E-003  0.1510157E+03  0.7818608E-02  0.1199230E+00
         -4   -1    0    0    0  501 -0.00000000000E+00  0.00000000000E+00  0.12061973214E+03  0.12062641784E+03  0.12700000000E+01 0.  1.
          4   -1    0    0  502    0  0.00000000000E+00 -0.00000000000E+00 -0.14870405755E+03  0.14870948064E+03  0.12700000000E+01 0.  1.
         25    2    1    2    0    0 -0.29317652243E+02 -0.79506163136E+02 -0.79046573738E+02  0.17045260634E+03  0.12499990192E+03 0.  0.
    9000005    1    3    3    0    0  0.10677100121E+02 -0.44020529969E+02  0.26243942749E+02  0.52359832475E+02  0.10000000000E+01 0.  0.
    9000005    1    3    3    0    0 -0.39994752364E+02 -0.35485633167E+02 -0.10529051649E+03  0.11809277387E+03  0.10000000000E+01 0.  0.
         21    1    1    2  502  501  0.29317652243E+02  0.79506163136E+02  0.50962248328E+02  0.98883292140E+02  0.00000000000E+00 0.  1.
<mgrwt>
<rscale>  1 0.15101566E+03</rscale>
<asrwt>0</asrwt>
<pdfrwt beam="2">  1        4 0.22878479E-01 0.15101566E+03</pdfrwt>
<pdfrwt beam="1">  1       -4 0.18557813E-01 0.15101566E+03</pdfrwt>
<totfact> 0.77007964E+02</totfact>
</mgrwt>
</event>
<event>
 6    4  0.2271823E-003  0.1271903E+03  0.7818608E-02  0.1231685E+00
         -4   -1    0    0    0  501 -0.00000000000E+00  0.00000000000E+00  0.67297236902E+03  0.67297356736E+03  0.12700000000E+01 0. -1.
          4   -1    0    0  502    0  0.00000000000E+00 -0.00000000000E+00 -0.86655253121E+01  0.87580950517E+01  0.12700000000E+01 0. -1.
         25    2    1    2    0    0 -0.20624960132E+02  0.11303396803E+02  0.50881925220E+03  0.52447535293E+03  0.12499683459E+03 0.  0.
    9000005    1    3    3    0    0  0.42578425857E+01 -0.55339913559E+02  0.24708959679E+03  0.25324870009E+03  0.10000000000E+01 0.  0.
    9000005    1    3    3    0    0 -0.24882802718E+02  0.66643310362E+02  0.26172965541E+03  0.27122665283E+03  0.10000000000E+01 0.  0.
         21    1    1    2  502  501  0.20624960132E+02 -0.11303396803E+02  0.15548759151E+03  0.15725630949E+03  0.00000000000E+00 0. -1.
<mgrwt>
<rscale>  1 0.12719027E+03</rscale>
<asrwt>0</asrwt>
<pdfrwt beam="2">  1        4 0.13403705E-02 0.12719027E+03</pdfrwt>
<pdfrwt beam="1">  1       -4 0.10354144E+00 0.12719027E+03</pdfrwt>
<totfact> 0.24075860E+03</totfact>
</mgrwt>
</event>
<event>
 6    4  0.2271823E-003  0.1275361E+03  0.7818608E-02  0.1231158E+00
          4   -1    0    0  502    0  0.00000000000E+00  0.00000000000E+00  0.11060405724E+03  0.11061134832E+03  0.12700000000E+01 0. -1.
         -4   -1    0    0    0  501 -0.00000000000E+00 -0.00000000000E+00 -0.52952837639E+02  0.52968065040E+02  0.12700000000E+01 0. -1.
         25    2    1    2    0    0 -0.10248596004E+02 -0.23113166720E+02  0.51619664070E+02  0.13758649398E+03  0.12500480555E+03 0.  0.
    9000005    1    3    3    0    0  0.31955800932E+02 -0.16854188712E+02 -0.29019307746E+02  0.46350373380E+02  0.10000000000E+01 0.  0.
    9000005    1    3    3    0    0 -0.42204396936E+02 -0.62589780083E+01  0.80638971816E+02  0.91236120599E+02  0.10000000000E+01 0.  0.
         21    1    1    2  502  501  0.10248596004E+02  0.23113166720E+02  0.60315555274E+01  0.25992919381E+02  0.00000000000E+00 0. -1.
<mgrwt>
<rscale>  1 0.12753609E+03</rscale>
<asrwt>0</asrwt>
<pdfrwt beam="1">  1        4 0.17017741E-01 0.12753609E+03</pdfrwt>
<pdfrwt beam="2">  1       -4 0.81483226E-02 0.12753609E+03</pdfrwt>
<totfact> 0.51901095E+03</totfact>
</mgrwt>
</event>
<event>
 6    4  0.2271823E-003  0.1276506E+03  0.7818608E-02  0.1230984E+00
         -4   -1    0    0    0  501 -0.00000000000E+00  0.00000000000E+00  0.26606487321E+04  0.26606490352E+04  0.12700000000E+01 0.  1.
          4   -1    0    0  502    0  0.00000000000E+00 -0.00000000000E+00 -0.20427924210E+01  0.24053899632E+01  0.12700000000E+01 0.  1.
         25    2    1    2    0    0  0.59771960760E+01 -0.25164983252E+02  0.21398173828E+04  0.21436214940E+04  0.12500269778E+03 0.  0.
    9000005    1    3    3    0    0 -0.59291272985E+02 -0.12298136080E+02  0.11199838447E+04  0.11216200389E+04  0.10000000000E+01 0.  0.
    9000005    1    3    3    0    0  0.65268469061E+02 -0.12866847173E+02  0.10198335381E+04  0.10220014552E+04  0.10000000000E+01 0.  0.
         21    1    1    2  502  501 -0.59771960760E+01  0.25164983252E+02  0.51878855689E+03  0.51943293120E+03  0.00000000000E+00 0. -1.
<mgrwt>
<rscale>  1 0.12765061E+03</rscale>
<asrwt>0</asrwt>
<pdfrwt beam="2">  1        4 0.34219116E-03 0.12765061E+03</pdfrwt>
<pdfrwt beam="1">  1       -4 0.40935853E+00 0.12765061E+03</pdfrwt>
<totfact> 0.19236950E+02</totfact>
</mgrwt>
</event>
<event>
 6    4  0.2271823E-003  0.1494101E+03  0.7818608E-02  0.1201200E+00
          4   -1    0    0  502    0  0.00000000000E+00  0.00000000000E+00  0.43892861424E+02  0.43911230727E+02  0.12700000000E+01 0. -1.
         -4   -1    0    0    0  501 -0.00000000000E+00 -0.00000000000E+00 -0.39071244762E+03  0.39071451167E+03  0.12700000000E+01 0. -1.
         25    2    1    2    0    0 -0.18496108530E+02 -0.79725843111E+02 -0.11428149838E+03  0.18810540169E+03  0.12500026074E+03 0.  0.
    9000005    1    3    3    0    0  0.56535284978E+01  0.17724598382E+02 -0.79800213978E+02  0.81946311224E+02  0.10000000000E+01 0.  0.
    9000005    1    3    3    0    0 -0.24149637028E+02 -0.97450441493E+02 -0.34481284398E+02  0.10615909047E+03  0.10000000000E+01 0.  0.
         21    1    1    2  502  501  0.18496108530E+02  0.79725843111E+02 -0.23253808782E+03  0.24652034070E+03  0.00000000000E+00 0. -1.
<mgrwt>
<rscale>  1 0.14941011E+03</rscale>
<asrwt>0</asrwt>
<pdfrwt beam="1">  1        4 0.67543200E-02 0.14941011E+03</pdfrwt>
<pdfrwt beam="2">  1       -4 0.60111177E-01 0.14941011E+03</pdfrwt>
<totfact> 0.65243294E+02</totfact>
</mgrwt>
</event>
<event>
 6    4  0.2271823E-003  0.1281956E+03  0.7818608E-02  0.1230158E+00
          4   -1    0    0  502    0  0.00000000000E+00  0.00000000000E+00  0.33622275593E+02  0.33646252631E+02  0.12700000000E+01 0.  1.
         -4   -1    0    0    0  501 -0.00000000000E+00 -0.00000000000E+00 -0.19054006893E+03  0.19054430133E+03  0.12700000000E+01 0.  1.
         25    2    1    2    0    0 -0.27253465903E+02 -0.81833700271E+01 -0.10812049569E+03  0.16770254455E+03  0.12499753163E+03 0.  0.
    9000005    1    3    3    0    0 -0.37973989074E+02  0.43931310137E+02 -0.14254341862E+02  0.59801087937E+02  0.10000000000E+01 0.  0.
    9000005    1    3    3    0    0  0.10720523171E+02 -0.52114680164E+02 -0.93866153827E+02  0.10790145662E+03  0.10000000000E+01 0.  0.
         21    1    1    2  502  501  0.27253465903E+02  0.81833700271E+01 -0.48797297651E+02  0.56488009407E+02  0.00000000000E+00 0.  1.
<mgrwt>
<rscale>  1 0.12819556E+03</rscale>
<asrwt>0</asrwt>
<pdfrwt beam="1">  1        4 0.51748278E-02 0.12819556E+03</pdfrwt>
<pdfrwt beam="2">  1       -4 0.29316026E-01 0.12819556E+03</pdfrwt>
<totfact> 0.40496705E+03</totfact>
</mgrwt>
</event>
<event>
 6    4  0.2271823E-003  0.1306649E+03  0.7818608E-02  0.1226472E+00
          4   -1    0    0  502    0  0.00000000000E+00  0.00000000000E+00  0.28253825124E+03  0.28254110553E+03  0.12700000000E+01 0. -1.
         -4   -1    0    0    0  501 -0.00000000000E+00 -0.00000000000E+00 -0.25200510032E+02  0.25232491075E+02  0.12700000000E+01 0. -1.
         25    2    1    2    0    0 -0.22371996467E+02  0.30792858117E+02  0.19481651561E+03  0.23457790010E+03  0.12499844048E+03 0.  0.
    9000005    1    3    3    0    0 -0.62753519761E+02  0.47775082558E+02  0.83091337090E+02  0.11456715522E+03  0.10000000000E+01 0.  0.
    9000005    1    3    3    0    0  0.40381523294E+02 -0.16982224441E+02  0.11172517852E+03  0.12001074488E+03  0.10000000000E+01 0.  0.
         21    1    1    2  502  501  0.22371996467E+02 -0.30792858117E+02  0.62521225592E+02  0.73195696503E+02  0.00000000000E+00 0. -1.
<mgrwt>
<rscale>  1 0.13066490E+03</rscale>
<asrwt>0</asrwt>
<pdfrwt beam="1">  1        4 0.43470102E-01 0.13066490E+03</pdfrwt>
<pdfrwt beam="2">  1       -4 0.38796813E-02 0.13066490E+03</pdfrwt>
<totfact> 0.30074401E+03</totfact>
</mgrwt>
</event>
<event>
 6    4  0.2271823E-003  0.1309453E+03  0.7818608E-02  0.1226060E+00
          4   -1    0    0  502    0  0.00000000000E+00  0.00000000000E+00  0.24570203434E+02  0.24603003816E+02  0.12700000000E+01 0.  1.
         -4   -1    0    0    0  501 -0.00000000000E+00 -0.00000000000E+00 -0.31723726498E+03  0.31723980707E+03  0.12700000000E+01 0.  1.
         25    2    1    2    0    0 -0.34705565262E+02 -0.17820559816E+02 -0.25937724009E+03  0.29055674236E+03  0.12499847696E+03 0.  0.
    9000005    1    3    3    0    0 -0.11094531736E+02 -0.71440088946E+02 -0.13944838333E+03  0.15707840894E+03  0.10000000000E+01 0.  0.
    9000005    1    3    3    0    0 -0.23611033526E+02  0.53619529130E+02 -0.11992885676E+03  0.13347833342E+03  0.10000000000E+01 0.  0.
         21    1    1    2  502  501  0.34705565262E+02  0.17820559816E+02 -0.33289821456E+02  0.51286068526E+02  0.00000000000E+00 0.  1.
<mgrwt>
<rscale>  1 0.13094529E+03</rscale>
<asrwt>0</asrwt>
<pdfrwt beam="1">  1        4 0.37827502E-02 0.13094529E+03</pdfrwt>
<pdfrwt beam="2">  1       -4 0.48808449E-01 0.13094529E+03</pdfrwt>
<totfact> 0.24817028E+03</totfact>
</mgrwt>
</event>
<event>
 6    4  0.2271823E-003  0.1283549E+03  0.7818608E-02  0.1229917E+00
          4   -1    0    0  502    0  0.00000000000E+00  0.00000000000E+00  0.16720930273E+02  0.16769090888E+02  0.12700000000E+01 0. -1.
         -4   -1    0    0    0  501 -0.00000000000E+00 -0.00000000000E+00 -0.40921653017E+03  0.40921850089E+03  0.12700000000E+01 0. -1.
         25    2    1    2    0    0 -0.23073614847E+02  0.17836375283E+02 -0.25557748291E+03  0.28599795378E+03  0.12499780722E+03 0.  0.
    9000005    1    3    3    0    0 -0.33768642284E+02  0.49266706561E+02 -0.50425635200E+02  0.78174639509E+02  0.10000000000E+01 0.  0.
    9000005    1    3    3    0    0  0.10695027437E+02 -0.31430331278E+02 -0.20515184771E+03  0.20782331427E+03  0.10000000000E+01 0.  0.
         21    1    1    2  502  501  0.23073614847E+02 -0.17836375283E+02 -0.13691811699E+03  0.13998963799E+03  0.00000000000E+00 0. -1.
<mgrwt>
<rscale>  1 0.12835490E+03</rscale>
<asrwt>0</asrwt>
<pdfrwt beam="1">  1        4 0.25763074E-02 0.12835490E+03</pdfrwt>
<pdfrwt beam="2">  1       -4 0.62960238E-01 0.12835490E+03</pdfrwt>
<totfact> 0.26627950E+03</totfact>
</mgrwt>
</event>
<event>
 6    4  0.2271823E-003  0.1533116E+03  0.7818608E-02  0.1196462E+00
          4   -1    0    0  502    0  0.00000000000E+00  0.00000000000E+00  0.71317912002E+02  0.71329218924E+02  0.12700000000E+01 0.  1.
         -4   -1    0    0    0  501 -0.00000000000E+00 -0.00000000000E+00 -0.21630054895E+03  0.21630427729E+03  0.12700000000E+01 0.  1.
         25    2    1    2    0    0  0.74496213022E+02 -0.48282089146E+02 -0.12200793923E+03  0.19593462696E+03  0.12499437956E+03 0.  0.
    9000005    1    3    3    0    0  0.10580795157E+03 -0.56927549455E+02 -0.10317443117E+03  0.15837307773E+03  0.10000000000E+01 0.  0.
    9000005    1    3    3    0    0 -0.31311738550E+02  0.86454603094E+01 -0.18833508062E+02  0.37561549234E+02  0.10000000000E+01 0.  0.
         21    1    1    2  502  501 -0.74496213022E+02  0.48282089146E+02 -0.22974697716E+02  0.91698869252E+02  0.00000000000E+00 0. -1.
<mgrwt>
<rscale>  1 0.15331158E+03</rscale>
<asrwt>0</asrwt>
<pdfrwt beam="1">  1        4 0.10973143E-01 0.15331158E+03</pdfrwt>
<pdfrwt beam="2">  1       -4 0.33278164E-01 0.15331158E+03</pdfrwt>
<totfact> 0.95612457E+02</totfact>
</mgrwt>
</event>
<event>
 6    4  0.2271823E-003  0.1292102E+03  0.7818608E-02  0.1228632E+00
          4   -1    0    0  502    0  0.00000000000E+00  0.00000000000E+00  0.78332284955E+03  0.78332387908E+03  0.12700000000E+01 0.  1.
         -4   -1    0    0    0  501 -0.00000000000E+00 -0.00000000000E+00 -0.18368717800E+02  0.18412568904E+02  0.12700000000E+01 0.  1.
         25    2    1    2    0    0 -0.11938032062E+02 -0.30446868106E+02  0.75717464599E+03  0.76812024972E+03  0.12500298040E+03 0.  0.
    9000005    1    3    3    0    0 -0.13553222354E+02  0.28868787357E+02  0.56107285807E+02  0.64545520683E+02  0.10000000000E+01 0.  0.
    9000005    1    3    3    0    0  0.16151902919E+01 -0.59315655463E+02  0.70106736018E+03  0.70357472903E+03  0.10000000000E+01 0.  0.
         21    1    1    2  502  501  0.11938032062E+02  0.30446868106E+02  0.77794857651E+01  0.33616198265E+02  0.00000000000E+00 0. -1.
<mgrwt>
<rscale>  1 0.12921019E+03</rscale>
<asrwt>0</asrwt>
<pdfrwt beam="1">  1        4 0.12051464E+00 0.12921019E+03</pdfrwt>
<pdfrwt beam="2">  1       -4 0.28294094E-02 0.12921019E+03</pdfrwt>
<totfact> 0.53515066E+02</totfact>
</mgrwt>
</event>
<event>
 6    4  0.2271823E-003  0.1270917E+03  0.7818608E-02  0.1231836E+00
          4   -1    0    0  502    0  0.00000000000E+00  0.00000000000E+00  0.84676743136E+03  0.84676838375E+03  0.12700000000E+01 0.  1.
         -4   -1    0    0    0  501 -0.00000000000E+00 -0.00000000000E+00 -0.65878702544E+01  0.67091679432E+01  0.12700000000E+01 0.  1.
         25    2    1    2    0    0 -0.22459040825E+02  0.48704883864E+01  0.71023540299E+03  0.72151689695E+03  0.12499669894E+03 0.  0.
    9000005    1    3    3    0    0  0.43724529671E+02  0.29957361048E+02  0.22594216485E+03  0.23207787450E+03  0.10000000000E+01 0.  0.
    9000005    1    3    3    0    0 -0.66183570496E+02 -0.25086872662E+02  0.48429323815E+03  0.48943902245E+03  0.10000000000E+01 0.  0.
         21    1    1    2  502  501  0.22459040825E+02 -0.48704883864E+01  0.12994415811E+03  0.13196065474E+03  0.00000000000E+00 0.  1.
<mgrwt>
<rscale>  1 0.12709172E+03</rscale>
<asrwt>0</asrwt>
<pdfrwt beam="1">  1        4 0.13028129E+00 0.12709172E+03</pdfrwt>
<pdfrwt beam="2">  1       -4 0.10229226E-02 0.12709172E+03</pdfrwt>
<totfact> 0.20947749E+03</totfact>
</mgrwt>
</event>
<event>
 6    4  0.2271823E-003  0.1266982E+03  0.7818608E-02  0.1232439E+00
         -4   -1    0    0    0  501 -0.00000000000E+00  0.00000000000E+00  0.42455236210E+03  0.42455426162E+03  0.12700000000E+01 0.  1.
          4   -1    0    0  502    0  0.00000000000E+00 -0.00000000000E+00 -0.22652888694E+02  0.22688461080E+02  0.12700000000E+01 0.  1.
         25    2    1    2    0    0  0.18968160995E+02  0.82198012306E+01  0.15826114155E+03  0.20272893371E+03  0.12500030149E+03 0.  0.
    9000005    1    3    3    0    0 -0.16402400480E+02  0.29219552597E+02 -0.54168238110E+01  0.33958253425E+02  0.10000000000E+01 0.  0.
    9000005    1    3    3    0    0  0.35370561475E+02 -0.20999751366E+02  0.16367796537E+03  0.16877068028E+03  0.10000000000E+01 0.  0.
         21    1    1    2  502  501 -0.18968160995E+02 -0.82198012306E+01  0.24363833185E+03  0.24451378899E+03  0.00000000000E+00 0. -1.
<mgrwt>
<rscale>  1 0.12669819E+03</rscale>
<asrwt>0</asrwt>
<pdfrwt beam="2">  1        4 0.34879425E-02 0.12669819E+03</pdfrwt>
<pdfrwt beam="1">  1       -4 0.65318625E-01 0.12669819E+03</pdfrwt>
<totfact> 0.15286279E+03</totfact>
</mgrwt>
</event>
<event>
 6    4  0.2271823E-003  0.1336410E+03  0.7818608E-02  0.1222151E+00
         -4   -1    0    0    0  501 -0.00000000000E+00  0.00000000000E+00  0.78248003062E+02  0.78258308716E+02  0.12700000000E+01 0.  1.
          4   -1    0    0  502    0  0.00000000000E+00 -0.00000000000E+00 -0.15708713470E+03  0.15709226839E+03  0.12700000000E+01 0.  1.
         25    2    1    2    0    0  0.19044552484E+02 -0.43280391321E+02 -0.11461349766E+03  0.17605730164E+03  0.12499612938E+03 0.  0.
    9000005    1    3    3    0    0  0.14487117796E+02 -0.30381892441E+02  0.21043580767E+02  0.39708541421E+02  0.10000000000E+01 0.  0.
    9000005    1    3    3    0    0  0.45574346872E+01 -0.12898498880E+02 -0.13565707843E+03  0.13634876021E+03  0.10000000000E+01 0.  0.
         21    1    1    2  502  501 -0.19044552484E+02  0.43280391321E+02  0.35774366021E+02  0.59293275474E+02  0.00000000000E+00 0.  1.
<mgrwt>
<rscale>  1 0.13364101E+03</rscale>
<asrwt>0</asrwt>
<pdfrwt beam="2">  1        4 0.24168439E-01 0.13364101E+03</pdfrwt>
<pdfrwt beam="1">  1       -4 0.12039342E-01 0.13364101E+03</pdfrwt>
<totfact> 0.14467100E+03</totfact>
</mgrwt>
</event>
<event>
 6    4  0.2271823E-003  0.1350608E+03  0.7818608E-02  0.1220134E+00
          4   -1    0    0  502    0  0.00000000000E+00  0.00000000000E+00  0.60345060198E+03  0.60345193838E+03  0.12700000000E+01 0. -1.
         -4   -1    0    0    0  501 -0.00000000000E+00 -0.00000000000E+00 -0.14335815330E+02  0.14391959602E+02  0.12700000000E+01 0. -1.
         25    2    1    2    0    0 -0.10357151088E+02  0.50074373826E+02  0.42359832454E+03  0.44460876089E+03  0.12500678467E+03 0.  0.
    9000005    1    3    3    0    0  0.14077929306E+02  0.66655247648E+02  0.40268870371E+03  0.40841192713E+03  0.10000000000E+01 0.  0.
    9000005    1    3    3    0    0 -0.24435080394E+02 -0.16580873822E+02  0.20909620835E+02  0.36196833757E+02  0.10000000000E+01 0.  0.
         21    1    1    2  502  501  0.10357151088E+02 -0.50074373826E+02  0.16551646211E+03  0.17323513709E+03  0.00000000000E+00 0. -1.
<mgrwt>
<rscale>  1 0.13506076E+03</rscale>
<asrwt>0</asrwt>
<pdfrwt beam="1">  1        4 0.92842973E-01 0.13506076E+03</pdfrwt>
<pdfrwt beam="2">  1       -4 0.22099317E-02 0.13506076E+03</pdfrwt>
<totfact> 0.14584736E+03</totfact>
</mgrwt>
</event>
<event>
 6    4  0.2271823E-003  0.1342322E+03  0.7818608E-02  0.1221308E+00
         -4   -1    0    0    0  501 -0.00000000000E+00  0.00000000000E+00  0.71533175184E+02  0.71544448086E+02  0.12700000000E+01 0.  1.
          4   -1    0    0  502    0  0.00000000000E+00 -0.00000000000E+00 -0.12852766385E+03  0.12853393822E+03  0.12700000000E+01 0.  1.
         25    2    1    2    0    0  0.41675151414E+02 -0.25806503660E+02 -0.67038798336E+02  0.15004157952E+03  0.12496191911E+03 0.  0.
    9000005    1    3    3    0    0 -0.26759974289E+02 -0.33839359250E+02 -0.68677612896E+02  0.81109882083E+02  0.10000000000E+01 0.  0.
    9000005    1    3    3    0    0  0.68435125704E+02  0.80328555899E+01  0.16388145598E+01  0.68931697442E+02  0.10000000000E+01 0.  0.
         21    1    1    2  502  501 -0.41675151414E+02  0.25806503660E+02  0.10044309668E+02  0.50036806785E+02  0.00000000000E+00 0. -1.
<mgrwt>
<rscale>  1 0.13423217E+03</rscale>
<asrwt>0</asrwt>
<pdfrwt beam="2">  1        4 0.19774837E-01 0.13423217E+03</pdfrwt>
<pdfrwt beam="1">  1       -4 0.11006454E-01 0.13423217E+03</pdfrwt>
<totfact> 0.24293369E+03</totfact>
</mgrwt>
</event>
<event>
 6    4  0.2271823E-003  0.1307017E+03  0.7818608E-02  0.1226418E+00
          4   -1    0    0  502    0  0.00000000000E+00  0.00000000000E+00  0.66150025076E+02  0.66162215180E+02  0.12700000000E+01 0. -1.
         -4   -1    0    0    0  501 -0.00000000000E+00 -0.00000000000E+00 -0.41770402877E+03  0.41770595944E+03  0.12700000000E+01 0. -1.
         25    2    1    2    0    0 -0.38171683516E+02 -0.64998494256E+00 -0.45787530975E+00  0.13070250348E+03  0.12500173944E+03 0.  0.
    9000005    1    3    3    0    0  0.22972007493E+02  0.43030402485E+02 -0.20508240779E+02  0.52923686627E+02  0.10000000000E+01 0.  0.
    9000005    1    3    3    0    0 -0.61143691009E+02 -0.43680387428E+02  0.20050365469E+02  0.77778816856E+02  0.10000000000E+01 0.  0.
         21    1    1    2  502  501  0.38171683516E+02  0.64998494256E+00 -0.35109612839E+03  0.35316567114E+03  0.00000000000E+00 0. -1.
<mgrwt>
<rscale>  1 0.13070170E+03</rscale>
<asrwt>0</asrwt>
<pdfrwt beam="1">  1        4 0.10178013E-01 0.13070170E+03</pdfrwt>
<pdfrwt beam="2">  1       -4 0.64263243E-01 0.13070170E+03</pdfrwt>
<totfact> 0.27940415E+02</totfact>
</mgrwt>
</event>
<event>
 6    4  0.2271823E-003  0.1275331E+03  0.7818608E-02  0.1231163E+00
          4   -1    0    0  502    0  0.00000000000E+00  0.00000000000E+00  0.24915368224E+03  0.24915691898E+03  0.12700000000E+01 0. -1.
         -4   -1    0    0    0  501 -0.00000000000E+00 -0.00000000000E+00 -0.23658815475E+02  0.23692877615E+02  0.12700000000E+01 0. -1.
         25    2    1    2    0    0 -0.73781658050E+01  0.24198137069E+02  0.19770246981E+03  0.23526782622E+03  0.12499878527E+03 0.  0.
    9000005    1    3    3    0    0  0.66870885341E+01  0.43137766064E+01 -0.17204846258E+02  0.18982427569E+02  0.10000000000E+01 0.  0.
    9000005    1    3    3    0    0 -0.14065254339E+02  0.19884360463E+02  0.21490731607E+03  0.21628539866E+03  0.10000000000E+01 0.  0.
         21    1    1    2  502  501  0.73781658050E+01 -0.24198137069E+02  0.27792396950E+02  0.37581970365E+02  0.00000000000E+00 0. -1.
<mgrwt>
<rscale>  1 0.12753307E+03</rscale>
<asrwt>0</asrwt>
<pdfrwt beam="1">  1        4 0.38334205E-01 0.12753307E+03</pdfrwt>
<pdfrwt beam="2">  1       -4 0.36426869E-02 0.12753307E+03</pdfrwt>
<totfact> 0.42323661E+03</totfact>
</mgrwt>
</event>
<event>
 6    4  0.2271823E-003  0.1284823E+03  0.7818608E-02  0.1229725E+00
         -4   -1    0    0    0  501 -0.00000000000E+00  0.00000000000E+00  0.32511086976E+02  0.32535882905E+02  0.12700000000E+01 0.  1.
          4   -1    0    0  502    0  0.00000000000E+00 -0.00000000000E+00 -0.26658436292E+03  0.26658738802E+03  0.12700000000E+01 0.  1.
         25    2    1    2    0    0 -0.25100300731E+02  0.15831444684E+02 -0.23670918599E+03  0.26933052417E+03  0.12500813084E+03 0.  0.
    9000005    1    3    3    0    0  0.10527928735E+02  0.20126991053E+02 -0.23201315985E+03  0.23312451479E+03  0.10000000000E+01 0.  0.
    9000005    1    3    3    0    0 -0.35628229465E+02 -0.42955463691E+01 -0.46960261437E+01  0.36206009377E+02  0.10000000000E+01 0.  0.
         21    1    1    2  502  501  0.25100300731E+02 -0.15831444684E+02  0.26359100546E+01  0.29792746758E+02  0.00000000000E+00 0.  1.
<mgrwt>
<rscale>  1 0.12848227E+03</rscale>
<asrwt>0</asrwt>
<pdfrwt beam="2">  1        4 0.41015118E-01 0.12848227E+03</pdfrwt>
<pdfrwt beam="1">  1       -4 0.50038459E-02 0.12848227E+03</pdfrwt>
<totfact> 0.22399267E+03</totfact>
</mgrwt>
</event>
<event>
 6    4  0.2271823E-003  0.1357476E+03  0.7818608E-02  0.1219168E+00
         -4   -1    0    0    0  501 -0.00000000000E+00  0.00000000000E+00  0.22760745901E+02  0.22796149981E+02  0.12700000000E+01 0.  1.
          4   -1    0    0  502    0  0.00000000000E+00 -0.00000000000E+00 -0.39340256047E+03  0.39340461040E+03  0.12700000000E+01 0.  1.
         25    2    1    2    0    0  0.27750760733E+02  0.45092583624E+02 -0.28146341610E+03  0.31248850184E+03  0.12499585336E+03 0.  0.
    9000005    1    3    3    0    0  0.85968170725E+01 -0.24023056916E+02 -0.20891012972E+03  0.21046485414E+03  0.10000000000E+01 0.  0.
    9000005    1    3    3    0    0  0.19153943661E+02  0.69115640540E+02 -0.72553286379E+02  0.10202364770E+03  0.10000000000E+01 0.  0.
         21    1    1    2  502  501 -0.27750760733E+02 -0.45092583624E+02 -0.89178398467E+02  0.10371225854E+03  0.00000000000E+00 0.  1.
<mgrwt>
<rscale>  1 0.13574759E+03</rscale>
<asrwt>0</asrwt>
<pdfrwt beam="2">  1        4 0.60526347E-01 0.13574759E+03</pdfrwt>
<pdfrwt beam="1">  1       -4 0.35045346E-02 0.13574759E+03</pdfrwt>
<totfact> 0.18103745E+03</totfact>
</mgrwt>
</event>
<event>
 6    4  0.2271823E-003  0.1272172E+03  0.7818608E-02  0.1231644E+00
          4   -1    0    0  502    0  0.00000000000E+00  0.00000000000E+00  0.11754412306E+02  0.11822821519E+02  0.12700000000E+01 0.  1.
         -4   -1    0    0    0  501 -0.00000000000E+00 -0.00000000000E+00 -0.49551634368E+03  0.49551797117E+03  0.12700000000E+01 0.  1.
         25    2    1    2    0    0  0.10702114710E+02 -0.21068850913E+02 -0.37337977214E+03  0.39445743335E+03  0.12500312295E+03 0.  0.
    9000005    1    3    3    0    0 -0.13478231628E+02 -0.62591003396E+02 -0.11481445330E+03  0.13146351250E+03  0.10000000000E+01 0.  0.
    9000005    1    3    3    0    0  0.24180346337E+02  0.41522152483E+02 -0.25856531884E+03  0.26299392085E+03  0.10000000000E+01 0.  0.
         21    1    1    2  502  501 -0.10702114710E+02  0.21068850913E+02 -0.11038215924E+03  0.11288335934E+03  0.00000000000E+00 0.  1.
<mgrwt>
<rscale>  1 0.12721719E+03</rscale>
<asrwt>0</asrwt>
<pdfrwt beam="1">  1        4 0.18137589E-02 0.12721719E+03</pdfrwt>
<pdfrwt beam="2">  1       -4 0.76238655E-01 0.12721719E+03</pdfrwt>
<totfact> 0.30259912E+03</totfact>
</mgrwt>
</event>
<event>
 6    4  0.2271823E-003  0.1284396E+03  0.7818608E-02  0.1229790E+00
         -4   -1    0    0    0  501 -0.00000000000E+00  0.00000000000E+00  0.71606653236E+01  0.72724155462E+01  0.12700000000E+01 0. -1.
          4   -1    0    0  502    0  0.00000000000E+00 -0.00000000000E+00 -0.88502658103E+03  0.88502749225E+03  0.12700000000E+01 0. -1.
         25    2    1    2    0    0  0.29160499799E+02 -0.41768116449E+01 -0.76194414518E+03  0.77269373158E+03  0.12501576684E+03 0.  0.
    9000005    1    3    3    0    0 -0.23221317480E+02 -0.43735837915E+02 -0.16846620808E+03  0.17559588938E+03  0.10000000000E+01 0.  0.
    9000005    1    3    3    0    0  0.52381817278E+02  0.39559026270E+02 -0.59347793710E+03  0.59709784220E+03  0.10000000000E+01 0.  0.
         21    1    1    2  502  501 -0.29160499799E+02  0.41768116449E+01 -0.11592177054E+03  0.11960617621E+03  0.00000000000E+00 0. -1.
<mgrwt>
<rscale>  1 0.12843957E+03</rscale>
<asrwt>0</asrwt>
<pdfrwt beam="2">  1        4 0.13616652E+00 0.12843957E+03</pdfrwt>
<pdfrwt beam="1">  1       -4 0.11103078E-02 0.12843957E+03</pdfrwt>
<totfact> 0.16650366E+03</totfact>
</mgrwt>
</event>
<event>
 6    4  0.2271823E-003  0.1282134E+03  0.7818608E-02  0.1230131E+00
         -4   -1    0    0    0  501 -0.00000000000E+00  0.00000000000E+00  0.72934345366E+02  0.72945401733E+02  0.12700000000E+01 0. -1.
          4   -1    0    0  502    0  0.00000000000E+00 -0.00000000000E+00 -0.19930114153E+03  0.19930518788E+03  0.12700000000E+01 0. -1.
         25    2    1    2    0    0  0.24593936189E+02  0.14447683351E+02 -0.17435715015E+03  0.21642343378E+03  0.12500035852E+03 0.  0.
    9000005    1    3    3    0    0 -0.31071011226E+01  0.58732538043E+02 -0.37065139903E+02  0.69526899100E+02  0.10000000000E+01 0.  0.
    9000005    1    3    3    0    0  0.27701037311E+02 -0.44284854692E+02 -0.13729201025E+03  0.14689653468E+03  0.10000000000E+01 0.  0.
         21    1    1    2  502  501 -0.24593936189E+02 -0.14447683351E+02  0.47990353991E+02  0.55827155827E+02  0.00000000000E+00 0. -1.
<mgrwt>
<rscale>  1 0.12821344E+03</rscale>
<asrwt>0</asrwt>
<pdfrwt beam="2">  1        4 0.30662876E-01 0.12821344E+03</pdfrwt>
<pdfrwt beam="1">  1       -4 0.11221830E-01 0.12821344E+03</pdfrwt>
<totfact> 0.10368553E+03</totfact>
</mgrwt>
</event>
<event>
 6    4  0.2271823E-003  0.1269556E+03  0.7818608E-02  0.1232044E+00
          4   -1    0    0  502    0  0.00000000000E+00  0.00000000000E+00  0.29155556749E+02  0.29183203891E+02  0.12700000000E+01 0.  1.
         -4   -1    0    0    0  501 -0.00000000000E+00 -0.00000000000E+00 -0.22752345398E+03  0.22752699842E+03  0.12700000000E+01 0.  1.
         25    2    1    2    0    0 -0.31510131802E+01  0.21958376115E+02 -0.11795948745E+03  0.17329790388E+03  0.12500249456E+03 0.  0.
    9000005    1    3    3    0    0 -0.60951033957E+02  0.23073897767E+02 -0.40866352712E+02  0.76931736511E+02  0.10000000000E+01 0.  0.
    9000005    1    3    3    0    0  0.57800020777E+02 -0.11155216528E+01 -0.77093134734E+02  0.96366167370E+02  0.10000000000E+01 0.  0.
         21    1    1    2  502  501  0.31510131802E+01 -0.21958376115E+02 -0.80408409786E+02  0.83412298434E+02  0.00000000000E+00 0. -1.
<mgrwt>
<rscale>  1 0.12695559E+03</rscale>
<asrwt>0</asrwt>
<pdfrwt beam="1">  1        4 0.44878698E-02 0.12695559E+03</pdfrwt>
<pdfrwt beam="2">  1       -4 0.35006006E-01 0.12695559E+03</pdfrwt>
<totfact> 0.36207117E+03</totfact>
</mgrwt>
</event>
<event>
 6    4  0.2271823E-003  0.1270907E+03  0.7818608E-02  0.1231838E+00
          4   -1    0    0  502    0  0.00000000000E+00  0.00000000000E+00  0.94408515935E+02  0.94417057681E+02  0.12700000000E+01 0. -1.
         -4   -1    0    0    0  501 -0.00000000000E+00 -0.00000000000E+00 -0.69404722220E+02  0.69416340774E+02  0.12700000000E+01 0. -1.
         25    2    1    2    0    0  0.16235957437E+02 -0.16225672323E+02  0.43527057568E+02  0.13433780455E+03  0.12500064893E+03 0.  0.
    9000005    1    3    3    0    0  0.24780206760E+02  0.51900625965E+02  0.27825129789E+02  0.63898133544E+02  0.10000000000E+01 0.  0.
    9000005    1    3    3    0    0 -0.85442493228E+01 -0.68126298289E+02  0.15701927780E+02  0.70439671003E+02  0.10000000000E+01 0.  0.
         21    1    1    2  502  501 -0.16235957437E+02  0.16225672323E+02 -0.18523263853E+02  0.29495593908E+02  0.00000000000E+00 0. -1.
<mgrwt>
<rscale>  1 0.12709068E+03</rscale>
<asrwt>0</asrwt>
<pdfrwt beam="1">  1        4 0.14525938E-01 0.12709068E+03</pdfrwt>
<pdfrwt beam="2">  1       -4 0.10679200E-01 0.12709068E+03</pdfrwt>
<totfact> 0.43514420E+03</totfact>
</mgrwt>
</event>
<event>
 6    4  0.2271823E-003  0.1379185E+03  0.7818608E-02  0.1216157E+00
          4   -1    0    0  502    0  0.00000000000E+00  0.00000000000E+00  0.95444468510E+02  0.95452917552E+02  0.12700000000E+01 0.  1.
         -4   -1    0    0    0  501 -0.00000000000E+00 -0.00000000000E+00 -0.16863304222E+03  0.16863782443E+03  0.12700000000E+01 0.  1.
         25    2    1    2    0    0 -0.55744300631E+02 -0.16982926902E+02  0.34034036001E+02  0.14205576793E+03  0.12500271492E+03 0.  0.
    9000005    1    3    3    0    0 -0.32210041905E+02  0.14332968946E+00  0.80785113205E+02  0.86975524480E+02  0.10000000000E+01 0.  0.
    9000005    1    3    3    0    0 -0.23534258726E+02 -0.17126256591E+02 -0.46751077205E+02  0.55080243449E+02  0.10000000000E+01 0.  0.
         21    1    1    2  502  501  0.55744300631E+02  0.16982926902E+02 -0.10722260971E+03  0.12203497406E+03  0.00000000000E+00 0.  1.
<mgrwt>
<rscale>  1 0.13791855E+03</rscale>
<asrwt>0</asrwt>
<pdfrwt beam="1">  1        4 0.14684782E-01 0.13791855E+03</pdfrwt>
<pdfrwt beam="2">  1       -4 0.25944563E-01 0.13791855E+03</pdfrwt>
<totfact> 0.90662528E+02</totfact>
</mgrwt>
</event>
<event>
 6    4  0.2271823E-003  0.1268354E+03  0.7818608E-02  0.1232228E+00
          4   -1    0    0  502    0  0.00000000000E+00  0.00000000000E+00  0.19977364651E+03  0.19977768329E+03  0.12700000000E+01 0. -1.
         -4   -1    0    0    0  501 -0.00000000000E+00 -0.00000000000E+00 -0.63854585370E+02  0.63867213598E+02  0.12700000000E+01 0. -1.
         25    2    1    2    0    0 -0.11209908247E+02  0.18410014423E+02  0.17670548861E+03  0.21751330967E+03  0.12499047765E+03 0.  0.
    9000005    1    3    3    0    0  0.42974151038E+02  0.41636581305E+02  0.12701040823E+03  0.14040308529E+03  0.10000000000E+01 0.  0.
    9000005    1    3    3    0    0 -0.54184059284E+02 -0.23226566882E+02  0.49695080383E+02  0.77110224380E+02  0.10000000000E+01 0.  0.
         21    1    1    2  502  501  0.11209908247E+02 -0.18410014423E+02 -0.40786427468E+02  0.46131587221E+02  0.00000000000E+00 0. -1.
<mgrwt>
<rscale>  1 0.12683537E+03</rscale>
<asrwt>0</asrwt>
<pdfrwt beam="1">  1        4 0.30735689E-01 0.12683537E+03</pdfrwt>
<pdfrwt beam="2">  1       -4 0.98250643E-02 0.12683537E+03</pdfrwt>
<totfact> 0.12890008E+03</totfact>
</mgrwt>
</event>
<event>
 6    4  0.2271823E-003  0.1629488E+03  0.7818608E-02  0.1185407E+00
         -4   -1    0    0    0  501 -0.00000000000E+00  0.00000000000E+00  0.26146567069E+02  0.26177392336E+02  0.12700000000E+01 0. -1.
          4   -1    0    0  502    0  0.00000000000E+00 -0.00000000000E+00 -0.89914677229E+03  0.89914766920E+03  0.12700000000E+01 0. -1.
         25    2    1    2    0    0 -0.10378196282E+03 -0.12536699362E+02 -0.73131912265E+03  0.74925293484E+03  0.12499774631E+03 0.  0.
    9000005    1    3    3    0    0 -0.43641768273E+02  0.44560783001E+02 -0.49268616918E+03  0.49661950085E+03  0.10000000000E+01 0.  0.
    9000005    1    3    3    0    0 -0.60140194546E+02 -0.57097482363E+02 -0.23863295346E+03  0.25263343399E+03  0.10000000000E+01 0.  0.
         21    1    1    2  502  501  0.10378196282E+03  0.12536699362E+02 -0.14168108257E+03  0.17607212669E+03  0.00000000000E+00 0. -1.
<mgrwt>
<rscale>  1 0.16294877E+03</rscale>
<asrwt>0</asrwt>
<pdfrwt beam="2">  1        4 0.13833269E+00 0.16294877E+03</pdfrwt>
<pdfrwt beam="1">  1       -4 0.40249896E-02 0.16294877E+03</pdfrwt>
<totfact> 0.22811200E+02</totfact>
</mgrwt>
</event>
<event>
 6    4  0.2271823E-003  0.1271420E+03  0.7818608E-02  0.1231759E+00
          4   -1    0    0  502    0  0.00000000000E+00  0.00000000000E+00  0.29149442283E+02  0.29177095219E+02  0.12700000000E+01 0. -1.
         -4   -1    0    0    0  501 -0.00000000000E+00 -0.00000000000E+00 -0.19544519950E+03  0.19544932568E+03  0.12700000000E+01 0. -1.
         25    2    1    2    0    0 -0.39956943124E+01 -0.22865023249E+02 -0.13256261795E+03  0.18367889904E+03  0.12500526155E+03 0.  0.
    9000005    1    3    3    0    0  0.48874824653E+02  0.14797054679E+02 -0.22317036125E+02  0.55738240135E+02  0.10000000000E+01 0.  0.
    9000005    1    3    3    0    0 -0.52870518965E+02 -0.37662077928E+02 -0.11024558183E+03  0.12794065891E+03  0.10000000000E+01 0.  0.
         21    1    1    2  502  501  0.39956943124E+01  0.22865023249E+02 -0.33733139270E+02  0.40947521857E+02  0.00000000000E+00 0. -1.
<mgrwt>
<rscale>  1 0.12714201E+03</rscale>
<asrwt>0</asrwt>
<pdfrwt beam="1">  1        4 0.44869743E-02 0.12714201E+03</pdfrwt>
<pdfrwt beam="2">  1       -4 0.30070936E-01 0.12714201E+03</pdfrwt>
<totfact> 0.48413490E+03</totfact>
</mgrwt>
</event>
<event>
 6    4  0.2271823E-003  0.1343350E+03  0.7818608E-02  0.1221162E+00
         -4   -1    0    0    0  501 -0.00000000000E+00  0.00000000000E+00  0.89578839584E+02  0.89587841815E+02  0.12700000000E+01 0.  1.
          4   -1    0    0  502    0  0.00000000000E+00 -0.00000000000E+00 -0.94031348457E+02  0.94039924461E+02  0.12700000000E+01 0.  1.
         25    2    1    2    0    0  0.49055833486E+02  0.40396527297E+01 -0.21533626793E+01  0.13435221791E+03  0.12499235134E+03 0.  0.
    9000005    1    3    3    0    0  0.69448971361E+02 -0.43761708031E+02 -0.54099306728E+01  0.82270979469E+02  0.10000000000E+01 0.  0.
    9000005    1    3    3    0    0 -0.20393137875E+02  0.47801360761E+02  0.32565679935E+01  0.52081238446E+02  0.10000000000E+01 0.  0.
         21    1    1    2  502  501 -0.49055833486E+02 -0.40396527297E+01 -0.22991461944E+01  0.49275548362E+02  0.00000000000E+00 0.  1.
<mgrwt>
<rscale>  1 0.13433496E+03</rscale>
<asrwt>0</asrwt>
<pdfrwt beam="2">  1        4 0.14467713E-01 0.13433496E+03</pdfrwt>
<pdfrwt beam="1">  1       -4 0.13782712E-01 0.13433496E+03</pdfrwt>
<totfact> 0.28701609E+03</totfact>
</mgrwt>
</event>
<event>
 6    4  0.2271823E-003  0.1384674E+03  0.7818608E-02  0.1215406E+00
         -4   -1    0    0    0  501 -0.00000000000E+00  0.00000000000E+00  0.12606981766E+04  0.12606988163E+04  0.12700000000E+01 0. -1.
          4   -1    0    0  502    0  0.00000000000E+00 -0.00000000000E+00 -0.78122399960E+01  0.79147958758E+01  0.12700000000E+01 0. -1.
         25    2    1    2    0    0 -0.40341664078E+02 -0.43856854005E+02  0.93393214388E+03  0.94414112427E+03  0.12498935821E+03 0.  0.
    9000005    1    3    3    0    0 -0.37019658421E+02 -0.45048334797E+02  0.93732922862E+03  0.93914157101E+03  0.10000000000E+01 0.  0.
    9000005    1    3    3    0    0 -0.33220056565E+01  0.11914807920E+01 -0.33970847407E+01  0.49995532596E+01  0.10000000000E+01 0.  0.
         21    1    1    2  502  501  0.40341664078E+02  0.43856854005E+02  0.31895379275E+03  0.32447248791E+03  0.00000000000E+00 0.  1.
<mgrwt>
<rscale>  1 0.13846737E+03</rscale>
<asrwt>0</asrwt>
<pdfrwt beam="2">  1        4 0.12098219E-02 0.13846737E+03</pdfrwt>
<pdfrwt beam="1">  1       -4 0.19396139E+00 0.13846737E+03</pdfrwt>
<totfact> 0.58623711E+02</totfact>
</mgrwt>
</event>
<event>
 6    4  0.2271823E-003  0.1297364E+03  0.7818608E-02  0.1227847E+00
         -4   -1    0    0    0  501 -0.00000000000E+00  0.00000000000E+00  0.64616231293E+03  0.64616356099E+03  0.12700000000E+01 0. -1.
          4   -1    0    0  502    0  0.00000000000E+00 -0.00000000000E+00 -0.10958231964E+02  0.11031579568E+02  0.12700000000E+01 0. -1.
         25    2    1    2    0    0  0.17715275165E+02 -0.29890082500E+02  0.55173605704E+03  0.56678408469E+03  0.12499709600E+03 0.  0.
    9000005    1    3    3    0    0  0.71023984191E+02 -0.77333051012E+01  0.27905092523E+03  0.28805317080E+03  0.10000000000E+01 0.  0.
    9000005    1    3    3    0    0 -0.53308709026E+02 -0.22156777399E+02  0.27268513182E+03  0.27873091389E+03  0.10000000000E+01 0.  0.
         21    1    1    2  502  501 -0.17715275165E+02  0.29890082500E+02  0.83468023927E+02  0.90411055874E+02  0.00000000000E+00 0. -1.
<mgrwt>
<rscale>  1 0.12973636E+03</rscale>
<asrwt>0</asrwt>
<pdfrwt beam="2">  1        4 0.16916200E-02 0.12973636E+03</pdfrwt>
<pdfrwt beam="1">  1       -4 0.99415321E-01 0.12973636E+03</pdfrwt>
<totfact> 0.18645286E+03</totfact>
</mgrwt>
</event>
<event>
 6    4  0.2271823E-003  0.1271853E+03  0.7818608E-02  0.1231693E+00
         -4   -1    0    0    0  501 -0.00000000000E+00  0.00000000000E+00  0.12707004461E+03  0.12707639095E+03  0.12700000000E+01 0.  1.
          4   -1    0    0  502    0  0.00000000000E+00 -0.00000000000E+00 -0.58306429197E+02  0.58320258793E+02  0.12700000000E+01 0.  1.
         25    2    1    2    0    0  0.10749211078E+02  0.20878952781E+02  0.16693779927E+02  0.12827621579E+03  0.12499851615E+03 0.  0.
    9000005    1    3    3    0    0  0.13911544495E+02 -0.47846229742E+02 -0.15665188239E+02  0.52241658600E+02  0.10000000000E+01 0.  0.
    9000005    1    3    3    0    0 -0.31623334171E+01  0.68725182523E+02  0.32358968166E+02  0.76034557185E+02  0.10000000000E+01 0.  0.
         21    1    1    2  502  501 -0.10749211078E+02 -0.20878952781E+02  0.52069835483E+02  0.57120433956E+02  0.00000000000E+00 0.  1.
<mgrwt>
<rscale>  1 0.12718532E+03</rscale>
<asrwt>0</asrwt>
<pdfrwt beam="2">  1        4 0.89717720E-02 0.12718532E+03</pdfrwt>
<pdfrwt beam="1">  1       -4 0.19550789E-01 0.12718532E+03</pdfrwt>
<totfact> 0.34529980E+03</totfact>
</mgrwt>
</event>
<event>
 6    4  0.2271823E-003  0.1493885E+03  0.7818608E-02  0.1201226E+00
         -4   -1    0    0    0  501 -0.00000000000E+00  0.00000000000E+00  0.41664383211E+03  0.41664576769E+03  0.12700000000E+01 0. -1.
          4   -1    0    0  502    0  0.00000000000E+00 -0.00000000000E+00 -0.33131483377E+02  0.33155815338E+02  0.12700000000E+01 0. -1.
         25    2    1    2    0    0 -0.74936812879E+02 -0.32816979157E+02  0.20723951063E+03  0.25547043911E+03  0.12499780176E+03 0.  0.
    9000005    1    3    3    0    0 -0.96172455985E+02 -0.61146458403E+02  0.15808124434E+03  0.19488127277E+03  0.10000000000E+01 0.  0.
    9000005    1    3    3    0    0  0.21235643106E+02  0.28329479246E+02  0.49158266293E+02  0.60589166337E+02  0.10000000000E+01 0.  0.
         21    1    1    2  502  501  0.74936812879E+02  0.32816979157E+02  0.17627283809E+03  0.19433114391E+03  0.00000000000E+00 0. -1.
<mgrwt>
<rscale>  1 0.14938852E+03</rscale>
<asrwt>0</asrwt>
<pdfrwt beam="2">  1        4 0.50991717E-02 0.14938852E+03</pdfrwt>
<pdfrwt beam="1">  1       -4 0.64101073E-01 0.14938852E+03</pdfrwt>
<totfact> 0.89951226E+02</totfact>
</mgrwt>
</event>
<event>
 6    4  0.2271823E-003  0.1315105E+03  0.7818608E-02  0.1225232E+00
         -4   -1    0    0    0  501 -0.00000000000E+00  0.00000000000E+00  0.41497395678E+03  0.41497590015E+03  0.12700000000E+01 0. -1.
          4   -1    0    0  502    0  0.00000000000E+00 -0.00000000000E+00 -0.18427880808E+02  0.18471591460E+02  0.12700000000E+01 0. -1.
         25    2    1    2    0    0  0.18325362848E+02 -0.36531987656E+02  0.26741683004E+03  0.29800463576E+03  0.12499838760E+03 0.  0.
    9000005    1    3    3    0    0  0.39437139739E+02  0.13942454531E+02  0.23425632694E+02  0.47952479563E+02  0.10000000000E+01 0.  0.
    9000005    1    3    3    0    0 -0.21111776891E+02 -0.50474442187E+02  0.24399119735E+03  0.25005215620E+03  0.10000000000E+01 0.  0.
         21    1    1    2  502  501 -0.18325362848E+02  0.36531987656E+02  0.12912924593E+03  0.13544285585E+03  0.00000000000E+00 0. -1.
<mgrwt>
<rscale>  1 0.13151046E+03</rscale>
<asrwt>0</asrwt>
<pdfrwt beam="2">  1        4 0.28385706E-02 0.13151046E+03</pdfrwt>
<pdfrwt beam="1">  1       -4 0.63845656E-01 0.13151046E+03</pdfrwt>
<totfact> 0.22355834E+03</totfact>
</mgrwt>
</event>
<event>
 6    4  0.2271823E-003  0.1590109E+03  0.7818608E-02  0.1189818E+00
          4   -1    0    0  502    0  0.00000000000E+00  0.00000000000E+00  0.64172454990E+02  0.64185020678E+02  0.12700000000E+01 0. -1.
         -4   -1    0    0    0  501 -0.00000000000E+00 -0.00000000000E+00 -0.26307856661E+03  0.26308163203E+03  0.12700000000E+01 0. -1.
         25    2    1    2    0    0  0.52737243775E+02 -0.82941488344E+02 -0.10007268917E+03  0.18788030917E+03  0.12499584028E+03 0.  0.
    9000005    1    3    3    0    0 -0.15795130204E+02 -0.64712809007E+02 -0.95986714450E+02  0.11684041740E+03  0.10000000000E+01 0.  0.
    9000005    1    3    3    0    0  0.68532373979E+02 -0.18228679337E+02 -0.40859747182E+01  0.71039891772E+02  0.10000000000E+01 0.  0.
         21    1    1    2  502  501 -0.52737243775E+02  0.82941488344E+02 -0.98833422456E+02  0.13938634353E+03  0.00000000000E+00 0. -1.
<mgrwt>
<rscale>  1 0.15901090E+03</rscale>
<asrwt>0</asrwt>
<pdfrwt beam="1">  1        4 0.98738879E-02 0.15901090E+03</pdfrwt>
<pdfrwt beam="2">  1       -4 0.40474827E-01 0.15901090E+03</pdfrwt>
<totfact> 0.78645677E+02</totfact>
</mgrwt>
</event>
<event>
 6    4  0.2271823E-003  0.1285678E+03  0.7818608E-02  0.1229597E+00
         -4   -1    0    0    0  501 -0.00000000000E+00  0.00000000000E+00  0.52317240696E+01  0.53836638770E+01  0.12700000000E+01 0. -1.
          4   -1    0    0  502    0  0.00000000000E+00 -0.00000000000E+00 -0.12713884826E+04  0.12713891169E+04  0.12700000000E+01 0. -1.
         25    2    1    2    0    0 -0.26936564669E+02 -0.13353280404E+02 -0.11326033036E+04  0.11398771493E+04  0.12500313357E+03 0.  0.
    9000005    1    3    3    0    0 -0.72452591433E+02  0.18394430142E+01 -0.47203994646E+03  0.47757247891E+03  0.10000000000E+01 0.  0.
    9000005    1    3    3    0    0  0.45516026764E+02 -0.15192723418E+02 -0.66056335717E+03  0.66230467035E+03  0.10000000000E+01 0.  0.
         21    1    1    2  502  501  0.26936564669E+02  0.13353280404E+02 -0.13355345488E+03  0.13689563150E+03  0.00000000000E+00 0. -1.
<mgrwt>
<rscale>  1 0.12856777E+03</rscale>
<asrwt>0</asrwt>
<pdfrwt beam="2">  1        4 0.19560972E+00 0.12856777E+03</pdfrwt>
<pdfrwt beam="1">  1       -4 0.81661811E-03 0.12856777E+03</pdfrwt>
<totfact> 0.10200063E+03</totfact>
</mgrwt>
</event>
<event>
 6    4  0.2271823E-003  0.1490377E+03  0.7818608E-02  0.1201660E+00
          4   -1    0    0  502    0  0.00000000000E+00  0.00000000000E+00  0.57578990976E+03  0.57579131035E+03  0.12700000000E+01 0. -1.
         -4   -1    0    0    0  501 -0.00000000000E+00 -0.00000000000E+00 -0.53980744151E+02  0.53995681670E+02  0.12700000000E+01 0. -1.
         25    2    1    2    0    0  0.38931505017E+02  0.71211073438E+02  0.52777012006E+03  0.54841001714E+03  0.12500227282E+03 0.  0.
    9000005    1    3    3    0    0  0.35272256599E+02  0.80430069971E+02  0.17791985597E+03  0.19841774968E+03  0.10000000000E+01 0.  0.
    9000005    1    3    3    0    0  0.36592484174E+01 -0.92189965328E+01  0.34985026409E+03  0.34999226746E+03  0.10000000000E+01 0.  0.
         21    1    1    2  502  501 -0.38931505017E+02 -0.71211073438E+02 -0.59609544535E+01  0.81376974883E+02  0.00000000000E+00 0. -1.
<mgrwt>
<rscale>  1 0.14903774E+03</rscale>
<asrwt>0</asrwt>
<pdfrwt beam="1">  1        4 0.88584319E-01 0.14903774E+03</pdfrwt>
<pdfrwt beam="2">  1       -4 0.83059867E-02 0.14903774E+03</pdfrwt>
<totfact> 0.19903673E+02</totfact>
</mgrwt>
</event>
<event>
 6    4  0.2271823E-003  0.1337817E+03  0.7818608E-02  0.1221950E+00
          4   -1    0    0  502    0  0.00000000000E+00  0.00000000000E+00  0.81179751179E+02  0.81189684699E+02  0.12700000000E+01 0. -1.
         -4   -1    0    0    0  501 -0.00000000000E+00 -0.00000000000E+00 -0.10171950015E+03  0.10172742802E+03  0.12700000000E+01 0. -1.
         25    2    1    2    0    0  0.15182518585E+02 -0.45206069369E+02 -0.10570272951E+02  0.13419865594E+03  0.12499380388E+03 0.  0.
    9000005    1    3    3    0    0 -0.51174444960E+02 -0.21705170935E+02  0.17679652126E+02  0.58339595144E+02  0.10000000000E+01 0.  0.
    9000005    1    3    3    0    0  0.66356963545E+02 -0.23500898434E+02 -0.28249925077E+02  0.75859060797E+02  0.10000000000E+01 0.  0.
         21    1    1    2  502  501 -0.15182518585E+02  0.45206069369E+02 -0.99694760212E+01  0.48718456775E+02  0.00000000000E+00 0. -1.
<mgrwt>
<rscale>  1 0.13378172E+03</rscale>
<asrwt>0</asrwt>
<pdfrwt beam="1">  1        4 0.12490566E-01 0.13378172E+03</pdfrwt>
<pdfrwt beam="2">  1       -4 0.15650528E-01 0.13378172E+03</pdfrwt>
<totfact> 0.29621104E+03</totfact>
</mgrwt>
</event>
<event>
 6    4  0.2271823E-003  0.1281507E+03  0.7818608E-02  0.1230226E+00
          4   -1    0    0  502    0  0.00000000000E+00  0.00000000000E+00  0.32427280977E+02  0.32452140939E+02  0.12700000000E+01 0. -1.
         -4   -1    0    0    0  501 -0.00000000000E+00 -0.00000000000E+00 -0.20402518516E+03  0.20402913782E+03  0.12700000000E+01 0. -1.
         25    2    1    2    0    0  0.90514214399E+01 -0.26746483087E+02 -0.11065075544E+03  0.16931091678E+03  0.12500117710E+03 0.  0.
    9000005    1    3    3    0    0 -0.34194712866E+02 -0.30650866442E+02  0.45862352808E+01  0.46160454457E+02  0.10000000000E+01 0.  0.
    9000005    1    3    3    0    0  0.43246134306E+02  0.39043833548E+01 -0.11523699072E+03  0.12315046233E+03  0.10000000000E+01 0.  0.
         21    1    1    2  502  501 -0.90514214399E+01  0.26746483087E+02 -0.60947148751E+02  0.67170361980E+02  0.00000000000E+00 0.  1.
<mgrwt>
<rscale>  1 0.12815068E+03</rscale>
<asrwt>0</asrwt>
<pdfrwt beam="1">  1        4 0.49910289E-02 0.12815068E+03</pdfrwt>
<pdfrwt beam="2">  1       -4 0.31390706E-01 0.12815068E+03</pdfrwt>
<totfact> 0.37712663E+03</totfact>
</mgrwt>
</event>
<event>
 6    4  0.2271823E-003  0.1283228E+03  0.7818608E-02  0.1229966E+00
         -4   -1    0    0    0  501 -0.00000000000E+00  0.00000000000E+00  0.14938034807E+03  0.14938574660E+03  0.12700000000E+01 0.  1.
          4   -1    0    0  502    0  0.00000000000E+00 -0.00000000000E+00 -0.41807319275E+02  0.41826604512E+02  0.12700000000E+01 0.  1.
         25    2    1    2    0    0  0.23811029826E+02  0.16579473753E+02  0.80200127800E+02  0.15132350806E+03  0.12499959801E+03 0.  0.
    9000005    1    3    3    0    0  0.13947339997E+02  0.51473657588E+02  0.97498246954E+02  0.11113493545E+03  0.10000000000E+01 0.  0.
    9000005    1    3    3    0    0  0.98636898296E+01 -0.34894183835E+02 -0.17298119153E+02  0.40188572615E+02  0.10000000000E+01 0.  0.
         21    1    1    2  502  501 -0.23811029826E+02 -0.16579473753E+02  0.27372900991E+02  0.39888843051E+02  0.00000000000E+00 0. -1.
<mgrwt>
<rscale>  1 0.12832281E+03</rscale>
<asrwt>0</asrwt>
<pdfrwt beam="2">  1        4 0.64337940E-02 0.12832281E+03</pdfrwt>
<pdfrwt beam="1">  1       -4 0.22983491E-01 0.12832281E+03</pdfrwt>
<totfact> 0.44689938E+03</totfact>
</mgrwt>
</event>
<event>
 6    4  0.2271823E-003  0.1295649E+03  0.7818608E-02  0.1228103E+00
          4   -1    0    0  502    0  0.00000000000E+00  0.00000000000E+00  0.10547407989E+02  0.10623592391E+02  0.12700000000E+01 0.  1.
         -4   -1    0    0    0  501 -0.00000000000E+00 -0.00000000000E+00 -0.69502493173E+03  0.69502609205E+03  0.12700000000E+01 0.  1.
         25    2    1    2    0    0  0.10659744222E+02  0.32393504674E+02 -0.43603421094E+03  0.45487678126E+03  0.12499633486E+03 0.  0.
    9000005    1    3    3    0    0  0.89907302695E+01  0.80684177114E+02 -0.27910737031E+03  0.29067626981E+03  0.10000000000E+01 0.  0.
    9000005    1    3    3    0    0  0.16690139523E+01 -0.48290672439E+02 -0.15692684063E+03  0.16420051145E+03  0.10000000000E+01 0.  0.
         21    1    1    2  502  501 -0.10659744222E+02 -0.32393504674E+02 -0.24844331280E+03  0.25077290317E+03  0.00000000000E+00 0.  1.
<mgrwt>
<rscale>  1 0.12956486E+03</rscale>
<asrwt>0</asrwt>
<pdfrwt beam="1">  1        4 0.16286283E-02 0.12956486E+03</pdfrwt>
<pdfrwt beam="2">  1       -4 0.10693283E+00 0.12956486E+03</pdfrwt>
<totfact> 0.16669792E+03</totfact>
</mgrwt>
</event>
<event>
 6    4  0.2271823E-003  0.1325279E+03  0.7818608E-02  0.1223752E+00
          4   -1    0    0  502    0  0.00000000000E+00  0.00000000000E+00  0.75362792446E+02  0.75373492591E+02  0.12700000000E+01 0. -1.
         -4   -1    0    0    0  501 -0.00000000000E+00 -0.00000000000E+00 -0.37050839749E+03  0.37051057409E+03  0.12700000000E+01 0. -1.
         25    2    1    2    0    0  0.20959352400E+02  0.38724256062E+02  0.14322011751E+02  0.13329956881E+03  0.12499917026E+03 0.  0.
    9000005    1    3    3    0    0 -0.25548607008E+02  0.57088509172E+02 -0.27283471478E+02  0.68243805693E+02  0.10000000000E+01 0.  0.
    9000005    1    3    3    0    0  0.46507959408E+02 -0.18364253110E+02  0.41605483228E+02  0.65055763121E+02  0.10000000000E+01 0.  0.
         21    1    1    2  502  501 -0.20959352400E+02 -0.38724256062E+02 -0.30946761680E+03  0.31258449787E+03  0.00000000000E+00 0. -1.
<mgrwt>
<rscale>  1 0.13252794E+03</rscale>
<asrwt>0</asrwt>
<pdfrwt beam="1">  1        4 0.11595266E-01 0.13252794E+03</pdfrwt>
<pdfrwt beam="2">  1       -4 0.57002282E-01 0.13252794E+03</pdfrwt>
<totfact> 0.28896243E+02</totfact>
</mgrwt>
</event>
<event>
 6    4  0.2271823E-003  0.1282077E+03  0.7818608E-02  0.1230140E+00
         -4   -1    0    0    0  501 -0.00000000000E+00  0.00000000000E+00  0.11406235355E+04  0.11406242425E+04  0.12700000000E+01 0. -1.
          4   -1    0    0  502    0  0.00000000000E+00 -0.00000000000E+00 -0.63118072543E+01  0.64383080709E+01  0.12700000000E+01 0. -1.
         25    2    1    2    0    0  0.27994096640E+02 -0.53307450971E+01  0.68811614345E+03  0.69995788033E+03  0.12500048423E+03 0.  0.
    9000005    1    3    3    0    0  0.14152334746E+02 -0.61631371333E+02  0.24360343482E+03  0.25167905747E+03  0.10000000000E+01 0.  0.
    9000005    1    3    3    0    0  0.13841761895E+02  0.56300626236E+02  0.44451270863E+03  0.44827882286E+03  0.10000000000E+01 0.  0.
         21    1    1    2  502  501 -0.27994096640E+02  0.53307450971E+01  0.44619558474E+03  0.44710467022E+03  0.00000000000E+00 0.  1.
<mgrwt>
<rscale>  1 0.12820767E+03</rscale>
<asrwt>0</asrwt>
<pdfrwt beam="2">  1        4 0.98083351E-03 0.12820767E+03</pdfrwt>
<pdfrwt beam="1">  1       -4 0.17549015E+00 0.12820767E+03</pdfrwt>
<totfact> 0.10442966E+03</totfact>
</mgrwt>
</event>
<event>
 6    4  0.2271823E-003  0.1382863E+03  0.7818608E-02  0.1215654E+00
         -4   -1    0    0    0  501 -0.00000000000E+00  0.00000000000E+00  0.11335999158E+03  0.11336710542E+03  0.12700000000E+01 0. -1.
          4   -1    0    0  502    0  0.00000000000E+00 -0.00000000000E+00 -0.55985451071E+03  0.55985595117E+03  0.12700000000E+01 0. -1.
         25    2    1    2    0    0  0.30787659203E+02  0.50497164016E+02 -0.54283780442E+03  0.56017495996E+03  0.12500104126E+03 0.  0.
    9000005    1    3    3    0    0  0.71691702900E+02  0.59646962266E+02 -0.42463386202E+03  0.43475553722E+03  0.10000000000E+01 0.  0.
    9000005    1    3    3    0    0 -0.40904043697E+02 -0.91497982501E+01 -0.11820394240E+03  0.12541942273E+03  0.10000000000E+01 0.  0.
         21    1    1    2  502  501 -0.30787659203E+02 -0.50497164016E+02  0.96343285292E+02  0.11304809664E+03  0.00000000000E+00 0. -1.
<mgrwt>
<rscale>  1 0.13828631E+03</rscale>
<asrwt>0</asrwt>
<pdfrwt beam="2">  1        4 0.86132120E-01 0.13828631E+03</pdfrwt>
<pdfrwt beam="1">  1       -4 0.17440657E-01 0.13828631E+03</pdfrwt>
<totfact> 0.58713546E+01</totfact>
</mgrwt>
</event>
<event>
 6    4  0.2271823E-003  0.1266424E+03  0.7818608E-02  0.1232525E+00
          4   -1    0    0  502    0  0.00000000000E+00  0.00000000000E+00  0.69120942911E+03  0.69121059583E+03  0.12700000000E+01 0. -1.
         -4   -1    0    0    0  501 -0.00000000000E+00 -0.00000000000E+00 -0.89476469717E+01  0.90373273887E+01  0.12700000000E+01 0. -1.
         25    2    1    2    0    0 -0.15038781376E+02 -0.13688485858E+02  0.64916668081E+03  0.66140432243E+03  0.12499903466E+03 0.  0.
    9000005    1    3    3    0    0 -0.22549781332E+02  0.47339837316E+02  0.44768350600E+03  0.45074502147E+03  0.10000000000E+01 0.  0.
    9000005    1    3    3    0    0  0.75109999565E+01 -0.61028323174E+02  0.20148317481E+03  0.21065930096E+03  0.10000000000E+01 0.  0.
         21    1    1    2  502  501  0.15038781376E+02  0.13688485858E+02  0.33095101323E+02  0.38843600785E+02  0.00000000000E+00 0. -1.
<mgrwt>
<rscale>  1 0.12664240E+03</rscale>
<asrwt>0</asrwt>
<pdfrwt beam="1">  1        4 0.10634693E+00 0.12664240E+03</pdfrwt>
<pdfrwt beam="2">  1       -4 0.13835490E-02 0.12664240E+03</pdfrwt>
<totfact> 0.21534673E+03</totfact>
</mgrwt>
</event>
<event>
 6    4  0.2271823E-003  0.1300860E+03  0.7818608E-02  0.1227328E+00
          4   -1    0    0  502    0  0.00000000000E+00  0.00000000000E+00  0.73231105740E+02  0.73242117309E+02  0.12700000000E+01 0. -1.
         -4   -1    0    0    0  501 -0.00000000000E+00 -0.00000000000E+00 -0.29030405186E+03  0.29030682980E+03  0.12700000000E+01 0. -1.
         25    2    1    2    0    0  0.29480786841E+02 -0.20606011146E+02  0.12951711051E+02  0.13072912966E+03  0.12501453529E+03 0.  0.
    9000005    1    3    3    0    0 -0.62344046591E+01  0.38541419559E+02  0.40569332841E+02  0.56313227489E+02  0.10000000000E+01 0.  0.
    9000005    1    3    3    0    0  0.35715191500E+02 -0.59147430705E+02 -0.27617621790E+02  0.74415902173E+02  0.10000000000E+01 0.  0.
         21    1    1    2  502  501 -0.29480786841E+02  0.20606011146E+02 -0.23002465717E+03  0.23281981745E+03  0.00000000000E+00 0. -1.
<mgrwt>
<rscale>  1 0.13008597E+03</rscale>
<asrwt>0</asrwt>
<pdfrwt beam="1">  1        4 0.11267385E-01 0.13008597E+03</pdfrwt>
<pdfrwt beam="2">  1       -4 0.44663222E-01 0.13008597E+03</pdfrwt>
<totfact> 0.49713762E+02</totfact>
</mgrwt>
</event>
<event>
 6    4  0.2271823E-003  0.1267837E+03  0.7818608E-02  0.1232308E+00
         -4   -1    0    0    0  501 -0.00000000000E+00  0.00000000000E+00  0.82232121142E+02  0.82241927553E+02  0.12700000000E+01 0.  1.
          4   -1    0    0  502    0  0.00000000000E+00 -0.00000000000E+00 -0.11748519980E+03  0.11749206387E+03  0.12700000000E+01 0.  1.
         25    2    1    2    0    0  0.20345827791E+02  0.59880204193E+01 -0.80209775049E+02  0.15002570593E+03  0.12499718128E+03 0.  0.
    9000005    1    3    3    0    0  0.46002667739E+02  0.93881363674E+01  0.16601571211E+02  0.49809584521E+02  0.10000000000E+01 0.  0.
    9000005    1    3    3    0    0 -0.25656839948E+02 -0.34001159481E+01 -0.96811346260E+02  0.10021612140E+03  0.10000000000E+01 0.  0.
         21    1    1    2  502  501 -0.20345827791E+02 -0.59880204193E+01  0.44956696389E+02  0.49708285499E+02  0.00000000000E+00 0.  1.
<mgrwt>
<rscale>  1 0.12678369E+03</rscale>
<asrwt>0</asrwt>
<pdfrwt beam="2">  1        4 0.18075929E-01 0.12678369E+03</pdfrwt>
<pdfrwt beam="1">  1       -4 0.12652378E-01 0.12678369E+03</pdfrwt>
<totfact> 0.22187837E+03</totfact>
</mgrwt>
</event>
<event>
 6    4  0.2271823E-003  0.1527279E+03  0.7818608E-02  0.1197160E+00
         -4   -1    0    0    0  501 -0.00000000000E+00  0.00000000000E+00  0.42675075102E+03  0.42675264076E+03  0.12700000000E+01 0. -1.
          4   -1    0    0  502    0  0.00000000000E+00 -0.00000000000E+00 -0.48697889169E+02  0.48714446620E+02  0.12700000000E+01 0. -1.
         25    2    1    2    0    0 -0.44095829858E+02 -0.75867777657E+02  0.96747069249E+02  0.18079216336E+03  0.12500179609E+03 0.  0.
    9000005    1    3    3    0    0 -0.30668451154E+02 -0.64933679092E+02 -0.10118563480E+02  0.72528076657E+02  0.10000000000E+01 0.  0.
    9000005    1    3    3    0    0 -0.13427378704E+02 -0.10934098564E+02  0.10686563273E+03  0.10826408670E+03  0.10000000000E+01 0.  0.
         21    1    1    2  502  501  0.44095829858E+02  0.75867777657E+02  0.28130579261E+03  0.29467492403E+03  0.00000000000E+00 0. -1.
<mgrwt>
<rscale>  1 0.15272790E+03</rscale>
<asrwt>0</asrwt>
<pdfrwt beam="2">  1        4 0.74934018E-02 0.15272790E+03</pdfrwt>
<pdfrwt beam="1">  1       -4 0.65655382E-01 0.15272790E+03</pdfrwt>
<totfact> 0.45791298E+02</totfact>
</mgrwt>
</event>
<event>
 6    4  0.2271823E-003  0.1274012E+03  0.7818608E-02  0.1231364E+00
          4   -1    0    0  502    0  0.00000000000E+00  0.00000000000E+00  0.19877766402E+02  0.19918295537E+02  0.12700000000E+01 0. -1.
         -4   -1    0    0    0  501 -0.00000000000E+00 -0.00000000000E+00 -0.29217295956E+03  0.29217571972E+03  0.12700000000E+01 0. -1.
         25    2    1    2    0    0  0.11038534248E+02 -0.22011758090E+02 -0.23675120693E+03  0.26885350544E+03  0.12499882669E+03 0.  0.
    9000005    1    3    3    0    0  0.74251009542E+01 -0.60337713901E+02 -0.51616224304E+02  0.79755917990E+02  0.10000000000E+01 0.  0.
    9000005    1    3    3    0    0  0.36134332941E+01  0.38325955811E+02 -0.18513498262E+03  0.18909758745E+03  0.10000000000E+01 0.  0.
         21    1    1    2  502  501 -0.11038534248E+02  0.22011758090E+02 -0.35543986230E+02  0.43240509822E+02  0.00000000000E+00 0. -1.
<mgrwt>
<rscale>  1 0.12740123E+03</rscale>
<asrwt>0</asrwt>
<pdfrwt beam="1">  1        4 0.30614481E-02 0.12740123E+03</pdfrwt>
<pdfrwt beam="2">  1       -4 0.44953013E-01 0.12740123E+03</pdfrwt>
<totfact> 0.40594582E+03</totfact>
</mgrwt>
</event>
<event>
 6    4  0.2271823E-003  0.1514101E+03  0.7818608E-02  0.1198751E+00
          4   -1    0    0  502    0  0.00000000000E+00  0.00000000000E+00  0.25684083487E+03  0.25684397473E+03  0.12700000000E+01 0. -1.
         -4   -1    0    0    0  501 -0.00000000000E+00 -0.00000000000E+00 -0.58063544800E+02  0.58077432232E+02  0.12700000000E+01 0. -1.
         25    2    1    2    0    0 -0.36048754534E+02  0.77463978221E+02  0.16247463821E+03  0.22208788308E+03  0.12499935649E+03 0.  0.
    9000005    1    3    3    0    0 -0.81345324662E+02  0.32699992256E+02  0.96659924745E+02  0.13050092869E+03  0.10000000000E+01 0.  0.
    9000005    1    3    3    0    0  0.45296570128E+02  0.44763985965E+02  0.65814713465E+02  0.91586954383E+02  0.10000000000E+01 0.  0.
         21    1    1    2  502  501  0.36048754534E+02 -0.77463978221E+02  0.36302651858E+02  0.92833523886E+02  0.00000000000E+00 0. -1.
<mgrwt>
<rscale>  1 0.15141010E+03</rscale>
<asrwt>0</asrwt>
<pdfrwt beam="1">  1        4 0.39515284E-01 0.15141010E+03</pdfrwt>
<pdfrwt beam="2">  1       -4 0.89341629E-02 0.15141010E+03</pdfrwt>
<totfact> 0.96612136E+02</totfact>
</mgrwt>
</event>
<event>
 6    4  0.2271823E-003  0.1268478E+03  0.7818608E-02  0.1232209E+00
         -4   -1    0    0    0  501 -0.00000000000E+00  0.00000000000E+00  0.74109906825E+03  0.74110015643E+03  0.12700000000E+01 0. -1.
          4   -1    0    0  502    0  0.00000000000E+00 -0.00000000000E+00 -0.78341371975E+01  0.79364101223E+01  0.12700000000E+01 0. -1.
         25    2    1    2    0    0  0.15428238377E+02 -0.15056616827E+02  0.54632377019E+03  0.56085652012E+03  0.12500256813E+03 0.  0.
    9000005    1    3    3    0    0  0.50847019943E+02  0.24650818429E+02  0.13868433310E+03  0.14975789306E+03  0.10000000000E+01 0.  0.
    9000005    1    3    3    0    0 -0.35418781567E+02 -0.39707435255E+02  0.40763943709E+03  0.41109862706E+03  0.10000000000E+01 0.  0.
         21    1    1    2  502  501 -0.15428238377E+02  0.15056616827E+02  0.18694116087E+03  0.18818004643E+03  0.00000000000E+00 0. -1.
<mgrwt>
<rscale>  1 0.12684784E+03</rscale>
<asrwt>0</asrwt>
<pdfrwt beam="2">  1        4 0.12132023E-02 0.12684784E+03</pdfrwt>
<pdfrwt beam="1">  1       -4 0.11402323E+00 0.12684784E+03</pdfrwt>
<totfact> 0.22313017E+03</totfact>
</mgrwt>
</event>
<event>
 6    4  0.2271823E-003  0.1283908E+03  0.7818608E-02  0.1229863E+00
          4   -1    0    0  502    0  0.00000000000E+00  0.00000000000E+00  0.13857424700E+03  0.13858006650E+03  0.12700000000E+01 0.  1.
         -4   -1    0    0    0  501 -0.00000000000E+00 -0.00000000000E+00 -0.54163222420E+02  0.54178109629E+02  0.12700000000E+01 0.  1.
         25    2    1    2    0    0  0.26130904132E+02  0.13339140912E+02  0.96918690054E+02  0.16086462621E+03  0.12499375446E+03 0.  0.
    9000005    1    3    3    0    0 -0.42029845017E+02 -0.12018488207E+02  0.55416019477E+01  0.44075631397E+02  0.10000000000E+01 0.  0.
    9000005    1    3    3    0    0  0.68160749149E+02  0.25357629119E+02  0.91377088106E+02  0.11678899481E+03  0.10000000000E+01 0.  0.
         21    1    1    2  502  501 -0.26130904132E+02 -0.13339140912E+02 -0.12507665471E+02  0.31893549921E+02  0.00000000000E+00 0.  1.
<mgrwt>
<rscale>  1 0.12839079E+03</rscale>
<asrwt>0</asrwt>
<pdfrwt beam="1">  1        4 0.21320707E-01 0.12839079E+03</pdfrwt>
<pdfrwt beam="2">  1       -4 0.83343964E-02 0.12839079E+03</pdfrwt>
<totfact> 0.33470735E+03</totfact>
</mgrwt>
</event>
<event>
 6    4  0.2271823E-003  0.1327363E+03  0.7818608E-02  0.1223451E+00
          4   -1    0    0  502    0  0.00000000000E+00  0.00000000000E+00  0.13522336115E+03  0.13522932485E+03  0.12700000000E+01 0. -1.
         -4   -1    0    0    0  501 -0.00000000000E+00 -0.00000000000E+00 -0.72123934026E+02  0.72135114607E+02  0.12700000000E+01 0. -1.
         25    2    1    2    0    0 -0.20332260225E+02 -0.39773232261E+02  0.84996004498E+02  0.15761737009E+03  0.12499441493E+03 0.  0.
    9000005    1    3    3    0    0  0.49905183416E+02 -0.37345549442E+02  0.36750462611E+02  0.72365833769E+02  0.10000000000E+01 0.  0.
    9000005    1    3    3    0    0 -0.70237443641E+02 -0.24276828186E+01  0.48245541887E+02  0.85251536321E+02  0.10000000000E+01 0.  0.
         21    1    1    2  502  501  0.20332260225E+02  0.39773232261E+02 -0.21896577375E+02  0.49747069372E+02  0.00000000000E+00 0. -1.
<mgrwt>
<rscale>  1 0.13273626E+03</rscale>
<asrwt>0</asrwt>
<pdfrwt beam="1">  1        4 0.20804913E-01 0.13273626E+03</pdfrwt>
<pdfrwt beam="2">  1       -4 0.11097309E-01 0.13273626E+03</pdfrwt>
<totfact> 0.21807946E+03</totfact>
</mgrwt>
</event>
<event>
 6    4  0.2271823E-003  0.1268129E+03  0.7818608E-02  0.1232263E+00
         -4   -1    0    0    0  501 -0.00000000000E+00  0.00000000000E+00  0.47667324428E+01  0.49330151208E+01  0.12700000000E+01 0. -1.
          4   -1    0    0  502    0  0.00000000000E+00 -0.00000000000E+00 -0.11318377059E+04  0.11318384184E+04  0.12700000000E+01 0. -1.
         25    2    1    2    0    0  0.14509589017E+02 -0.15687775789E+02 -0.96028212033E+03  0.96861925243E+03  0.12499948428E+03 0.  0.
    9000005    1    3    3    0    0  0.52237121477E+02 -0.52454331798E+02 -0.54304388291E+03  0.54806736132E+03  0.10000000000E+01 0.  0.
    9000005    1    3    3    0    0 -0.37727532460E+02  0.36766556010E+02 -0.41723823742E+03  0.42055189111E+03  0.10000000000E+01 0.  0.
         21    1    1    2  502  501 -0.14509589017E+02  0.15687775789E+02 -0.16678885315E+03  0.16815218113E+03  0.00000000000E+00 0. -1.
<mgrwt>
<rscale>  1 0.12681288E+03</rscale>
<asrwt>0</asrwt>
<pdfrwt beam="2">  1        4 0.17414151E+00 0.12681288E+03</pdfrwt>
<pdfrwt beam="1">  1       -4 0.74619014E-03 0.12681288E+03</pdfrwt>
<totfact> 0.16018631E+03</totfact>
</mgrwt>
</event>
<event>
 6    4  0.2271823E-003  0.1316612E+03  0.7818608E-02  0.1225011E+00
         -4   -1    0    0    0  501 -0.00000000000E+00  0.00000000000E+00  0.68085689276E+02  0.68097532879E+02  0.12700000000E+01 0.  1.
          4   -1    0    0  502    0  0.00000000000E+00 -0.00000000000E+00 -0.13007745221E+03  0.13008365183E+03  0.12700000000E+01 0.  1.
         25    2    1    2    0    0 -0.41029532744E+02  0.51250481540E+01 -0.78919025780E+02  0.15350209672E+03  0.12499996956E+03 0.  0.
    9000005    1    3    3    0    0 -0.68025567610E+01  0.38308332599E+02 -0.95414321830E+02  0.10304705690E+03  0.10000000000E+01 0.  0.
    9000005    1    3    3    0    0 -0.34226975983E+02 -0.33183284445E+02  0.16495296050E+02  0.50455039820E+02  0.10000000000E+01 0.  0.
         21    1    1    2  502  501  0.41029532744E+02 -0.51250481540E+01  0.16927262850E+02  0.44679087987E+02  0.00000000000E+00 0.  1.
<mgrwt>
<rscale>  1 0.13166124E+03</rscale>
<asrwt>0</asrwt>
<pdfrwt beam="2">  1        4 0.20013304E-01 0.13166124E+03</pdfrwt>
<pdfrwt beam="1">  1       -4 0.10476109E-01 0.13166124E+03</pdfrwt>
<totfact> 0.25735639E+03</totfact>
</mgrwt>
</event>
<event>
 6    4  0.2271823E-003  0.1358420E+03  0.7818608E-02  0.1219036E+00
          4   -1    0    0  502    0  0.00000000000E+00  0.00000000000E+00  0.58800271262E+03  0.58800408412E+03  0.12700000000E+01 0. -1.
         -4   -1    0    0    0  501 -0.00000000000E+00 -0.00000000000E+00 -0.15168495237E+02  0.15221568505E+02  0.12700000000E+01 0. -1.
         25    2    1    2    0    0  0.46758265803E+02  0.25391378227E+02  0.40939300457E+03  0.43134171634E+03  0.12498794564E+03 0.  0.
    9000005    1    3    3    0    0 -0.83604015305E+01  0.65894321410E+02  0.22791718296E+03  0.23740092712E+03  0.10000000000E+01 0.  0.
    9000005    1    3    3    0    0  0.55118667334E+02 -0.40502943184E+02  0.18147582161E+03  0.19394078922E+03  0.10000000000E+01 0.  0.
         21    1    1    2  502  501 -0.46758265803E+02 -0.25391378227E+02  0.16344121281E+03  0.17188393628E+03  0.00000000000E+00 0. -1.
<mgrwt>
<rscale>  1 0.13584198E+03</rscale>
<asrwt>0</asrwt>
<pdfrwt beam="1">  1        4 0.90466127E-01 0.13584198E+03</pdfrwt>
<pdfrwt beam="2">  1       -4 0.23378031E-02 0.13584198E+03</pdfrwt>
<totfact> 0.14195626E+03</totfact>
</mgrwt>
</event>
<event>
 6    4  0.2271823E-003  0.1281528E+03  0.7818608E-02  0.1230223E+00
          4   -1    0    0  502    0  0.00000000000E+00  0.00000000000E+00  0.11661120503E+02  0.11730073801E+02  0.12700000000E+01 0. -1.
         -4   -1    0    0    0  501 -0.00000000000E+00 -0.00000000000E+00 -0.68188997329E+03  0.68189115596E+03  0.12700000000E+01 0. -1.
         25    2    1    2    0    0  0.26773660364E+02 -0.90462900556E+01 -0.36040812240E+03  0.38251425582E+03  0.12499790784E+03 0.  0.
    9000005    1    3    3    0    0 -0.42313799398E+01  0.55215202814E+02 -0.12992589175E+03  0.14123866519E+03  0.10000000000E+01 0.  0.
    9000005    1    3    3    0    0  0.31005040304E+02 -0.64261492870E+02 -0.23048223065E+03  0.24127559063E+03  0.10000000000E+01 0.  0.
         21    1    1    2  502  501 -0.26773660364E+02  0.90462900556E+01 -0.30982073039E+03  0.31110697394E+03  0.00000000000E+00 0. -1.
<mgrwt>
<rscale>  1 0.12815280E+03</rscale>
<asrwt>0</asrwt>
<pdfrwt beam="1">  1        4 0.17994141E-02 0.12815280E+03</pdfrwt>
<pdfrwt beam="2">  1       -4 0.10491151E+00 0.12815280E+03</pdfrwt>
<totfact> 0.14927542E+03</totfact>
</mgrwt>
</event>
<event>
 6    4  0.2271823E-003  0.1286003E+03  0.7818608E-02  0.1229547E+00
          4   -1    0    0  502    0  0.00000000000E+00  0.00000000000E+00  0.17960447879E+02  0.18005293334E+02  0.12700000000E+01 0. -1.
         -4   -1    0    0    0  501 -0.00000000000E+00 -0.00000000000E+00 -0.35879424880E+03  0.35879649646E+03  0.12700000000E+01 0. -1.
         25    2    1    2    0    0 -0.14755422019E+02 -0.26339383650E+02 -0.25093414850E+03  0.28196807682E+03  0.12500625526E+03 0.  0.
    9000005    1    3    3    0    0 -0.66707850727E+02 -0.33913949298E+02 -0.16634189553E+03  0.18240263023E+03  0.10000000000E+01 0.  0.
    9000005    1    3    3    0    0  0.51952428708E+02  0.75745656482E+01 -0.84592252969E+02  0.99565446596E+02  0.10000000000E+01 0.  0.
         21    1    1    2  502  501  0.14755422019E+02  0.26339383650E+02 -0.89899652420E+02  0.94833712968E+02  0.00000000000E+00 0.  1.
<mgrwt>
<rscale>  1 0.12860035E+03</rscale>
<asrwt>0</asrwt>
<pdfrwt beam="1">  1        4 0.27667686E-02 0.12860035E+03</pdfrwt>
<pdfrwt beam="2">  1       -4 0.55202732E-01 0.12860035E+03</pdfrwt>
<totfact> 0.31386362E+03</totfact>
</mgrwt>
</event>
<event>
 6    4  0.2271823E-003  0.1298256E+03  0.7818608E-02  0.1227715E+00
          4   -1    0    0  502    0  0.00000000000E+00  0.00000000000E+00  0.64699173486E+02  0.64711636896E+02  0.12700000000E+01 0.  1.
         -4   -1    0    0    0  501 -0.00000000000E+00 -0.00000000000E+00 -0.10507005730E+03  0.10507773238E+03  0.12700000000E+01 0.  1.
         25    2    1    2    0    0  0.13286403244E+02 -0.32456303019E+02 -0.30597853929E+02  0.13338260850E+03  0.12499900587E+03 0.  0.
    9000005    1    3    3    0    0  0.60304341013E+02 -0.36040038654E+02  0.10230140829E+02  0.71001082475E+02  0.10000000000E+01 0.  0.
    9000005    1    3    3    0    0 -0.47017937769E+02  0.35837356353E+01 -0.40827994758E+02  0.62381526025E+02  0.10000000000E+01 0.  0.
         21    1    1    2  502  501 -0.13286403244E+02  0.32456303019E+02 -0.97730298858E+01  0.36406760773E+02  0.00000000000E+00 0. -1.
<mgrwt>
<rscale>  1 0.12982562E+03</rscale>
<asrwt>0</asrwt>
<pdfrwt beam="1">  1        4 0.99552681E-02 0.12982562E+03</pdfrwt>
<pdfrwt beam="2">  1       -4 0.16166173E-01 0.12982562E+03</pdfrwt>
<totfact> 0.40847102E+03</totfact>
</mgrwt>
</event>
<event>
 6    4  0.2271823E-003  0.1270740E+03  0.7818608E-02  0.1231863E+00
         -4   -1    0    0    0  501 -0.00000000000E+00  0.00000000000E+00  0.87243383423E+03  0.87243475860E+03  0.12700000000E+01 0. -1.
          4   -1    0    0  502    0  0.00000000000E+00 -0.00000000000E+00 -0.64787561530E+01  0.66020588676E+01  0.12700000000E+01 0. -1.
         25    2    1    2    0    0 -0.22685583918E+02  0.31252803505E+01  0.69072684648E+03  0.70231857776E+03  0.12499362035E+03 0.  0.
    9000005    1    3    3    0    0 -0.24807197416E+02 -0.54173150728E+02  0.21356617292E+03  0.22172423756E+03  0.10000000000E+01 0.  0.
    9000005    1    3    3    0    0  0.21216134985E+01  0.57298431078E+02  0.47716067355E+03  0.48059434020E+03  0.10000000000E+01 0.  0.
         21    1    1    2  502  501  0.22685583918E+02 -0.31252803505E+01  0.17522823160E+03  0.17671823971E+03  0.00000000000E+00 0. -1.
<mgrwt>
<rscale>  1 0.12707403E+03</rscale>
<asrwt>0</asrwt>
<pdfrwt beam="2">  1        4 0.10062881E-02 0.12707403E+03</pdfrwt>
<pdfrwt beam="1">  1       -4 0.13423009E+00 0.12707403E+03</pdfrwt>
<totfact> 0.19955179E+03</totfact>
</mgrwt>
</event>
<event>
 6    4  0.2271823E-003  0.1306975E+03  0.7818608E-02  0.1226424E+00
         -4   -1    0    0    0  501 -0.00000000000E+00  0.00000000000E+00  0.17478952294E+02  0.17525029908E+02  0.12700000000E+01 0.  1.
          4   -1    0    0  502    0  0.00000000000E+00 -0.00000000000E+00 -0.45264474635E+03  0.45264652799E+03  0.12700000000E+01 0.  1.
         25    2    1    2    0    0  0.20092185575E+02 -0.32573851958E+02 -0.38805889591E+03  0.40947714625E+03  0.12496829538E+03 0.  0.
    9000005    1    3    3    0    0  0.64158911213E+02  0.49292026640E+01 -0.27543736837E+03  0.28285580571E+03  0.10000000000E+01 0.  0.
    9000005    1    3    3    0    0 -0.44066725637E+02 -0.37503054622E+02 -0.11262152754E+03  0.12662134054E+03  0.10000000000E+01 0.  0.
         21    1    1    2  502  501 -0.20092185575E+02  0.32573851958E+02 -0.47106898144E+02  0.60694411648E+02  0.00000000000E+00 0. -1.
<mgrwt>
<rscale>  1 0.13069746E+03</rscale>
<asrwt>0</asrwt>
<pdfrwt beam="2">  1        4 0.69641326E-01 0.13069746E+03</pdfrwt>
<pdfrwt beam="1">  1       -4 0.26927514E-02 0.13069746E+03</pdfrwt>
<totfact> 0.20129279E+03</totfact>
</mgrwt>
</event>
<event>
 6    4  0.2271823E-003  0.1474738E+03  0.7818608E-02  0.1203612E+00
         -4   -1    0    0    0  501 -0.00000000000E+00  0.00000000000E+00  0.30253915413E+03  0.30254181972E+03  0.12700000000E+01 0.  1.
          4   -1    0    0  502    0  0.00000000000E+00 -0.00000000000E+00 -0.58236708366E+02  0.58250554515E+02  0.12700000000E+01 0.  1.
         25    2    1    2    0    0 -0.70013324269E+02  0.34949184259E+02  0.57544378976E+02  0.15830314844E+03  0.12500088079E+03 0.  0.
    9000005    1    3    3    0    0 -0.93213485807E+02  0.57331751429E+01  0.72362943285E+02  0.11814829154E+03  0.10000000000E+01 0.  0.
    9000005    1    3    3    0    0  0.23200161538E+02  0.29216009116E+02 -0.14818564309E+02  0.40154856895E+02  0.10000000000E+01 0.  0.
         21    1    1    2  502  501  0.70013324269E+02 -0.34949184259E+02  0.18675806679E+03  0.20248922580E+03  0.00000000000E+00 0.  1.
<mgrwt>
<rscale>  1 0.14747383E+03</rscale>
<asrwt>0</asrwt>
<pdfrwt beam="2">  1        4 0.89607640E-02 0.14747383E+03</pdfrwt>
<pdfrwt beam="1">  1       -4 0.46545754E-01 0.14747383E+03</pdfrwt>
<totfact> 0.69004966E+02</totfact>
</mgrwt>
</event>
<event>
 6    4  0.2271823E-003  0.1272539E+03  0.7818608E-02  0.1231588E+00
         -4   -1    0    0    0  501 -0.00000000000E+00  0.00000000000E+00  0.26420324120E+02  0.26450830357E+02  0.12700000000E+01 0. -1.
          4   -1    0    0  502    0  0.00000000000E+00 -0.00000000000E+00 -0.18623865155E+04  0.18623869485E+04  0.12700000000E+01 0. -1.
         25    2    1    2    0    0  0.23280231725E+02 -0.51553207600E+01 -0.18543613254E+04  0.18587225422E+04  0.12500006933E+03 0.  0.
    9000005    1    3    3    0    0 -0.46806152334E+02 -0.20314453308E+02 -0.53998695785E+03  0.54239322226E+03  0.10000000000E+01 0.  0.
    9000005    1    3    3    0    0  0.70086384059E+02  0.15159132548E+02 -0.13143743675E+04  0.13163293199E+04  0.10000000000E+01 0.  0.
         21    1    1    2  502  501 -0.23280231725E+02  0.51553207600E+01  0.18395134034E+02  0.30115236633E+02  0.00000000000E+00 0. -1.
<mgrwt>
<rscale>  1 0.12725393E+03</rscale>
<asrwt>0</asrwt>
<pdfrwt beam="2">  1        4 0.28652328E+00 0.12725393E+03</pdfrwt>
<pdfrwt beam="1">  1       -4 0.40670467E-02 0.12725393E+03</pdfrwt>
<totfact> 0.25348703E+01</totfact>
</mgrwt>
</event>
<event>
 6    4  0.2271823E-003  0.1268066E+03  0.7818608E-02  0.1232273E+00
          4   -1    0    0  502    0  0.00000000000E+00  0.00000000000E+00  0.44696112069E+02  0.44714151385E+02  0.12700000000E+01 0.  1.
         -4   -1    0    0    0  501 -0.00000000000E+00 -0.00000000000E+00 -0.24937990303E+03  0.24938313683E+03  0.12700000000E+01 0.  1.
         25    2    1    2    0    0 -0.13479481477E+02  0.16551534885E+02 -0.47406943738E+02  0.13537849159E+03  0.12499707174E+03 0.  0.
    9000005    1    3    3    0    0 -0.42424544892E+02  0.21050446716E+02  0.27616658849E+02  0.54832865712E+02  0.10000000000E+01 0.  0.
    9000005    1    3    3    0    0  0.28945063415E+02 -0.44989118302E+01 -0.75023602586E+02  0.80545625883E+02  0.10000000000E+01 0.  0.
         21    1    1    2  502  501  0.13479481477E+02 -0.16551534885E+02 -0.15727684722E+03  0.15871879662E+03  0.00000000000E+00 0.  1.
<mgrwt>
<rscale>  1 0.12680662E+03</rscale>
<asrwt>0</asrwt>
<pdfrwt beam="1">  1        4 0.68779615E-02 0.12680662E+03</pdfrwt>
<pdfrwt beam="2">  1       -4 0.38367775E-01 0.12680662E+03</pdfrwt>
<totfact> 0.15199532E+03</totfact>
</mgrwt>
</event>
<event>
 6    4  0.2271823E-003  0.1269074E+03  0.7818608E-02  0.1232118E+00
          4   -1    0    0  502    0  0.00000000000E+00  0.00000000000E+00  0.67304299338E+01  0.68492033912E+01  0.12700000000E+01 0.  1.
         -4   -1    0    0    0  501 -0.00000000000E+00 -0.00000000000E+00 -0.84341219020E+03  0.84341314638E+03  0.12700000000E+01 0.  1.
         25    2    1    2    0    0  0.21350907022E+02  0.50080818938E+01 -0.64797998827E+03  0.66029050746E+03  0.12499818770E+03 0.  0.
    9000005    1    3    3    0    0  0.49237194878E+02 -0.32025525771E+02 -0.16605178777E+03  0.17613668522E+03  0.10000000000E+01 0.  0.
    9000005    1    3    3    0    0 -0.27886287855E+02  0.37033607665E+02 -0.48192820050E+03  0.48415382224E+03  0.10000000000E+01 0.  0.
         21    1    1    2  502  501 -0.21350907022E+02 -0.50080818938E+01 -0.18870177200E+03  0.18997184231E+03  0.00000000000E+00 0.  1.
<mgrwt>
<rscale>  1 0.12690740E+03</rscale>
<asrwt>0</asrwt>
<pdfrwt beam="1">  1        4 0.10446614E-02 0.12690740E+03</pdfrwt>
<pdfrwt beam="2">  1       -4 0.12976485E+00 0.12690740E+03</pdfrwt>
<totfact> 0.20486219E+03</totfact>
</mgrwt>
</event>
<event>
 6    4  0.2271823E-003  0.1274720E+03  0.7818608E-02  0.1231256E+00
          4   -1    0    0  502    0  0.00000000000E+00  0.00000000000E+00  0.78014722033E+03  0.78014825404E+03  0.12700000000E+01 0. -1.
         -4   -1    0    0    0  501 -0.00000000000E+00 -0.00000000000E+00 -0.33629504867E+02  0.33653476754E+02  0.12700000000E+01 0. -1.
         25    2    1    2    0    0 -0.21810296356E+02  0.12189643856E+02  0.76942003994E+03  0.77990788311E+03  0.12499932732E+03 0.  0.
    9000005    1    3    3    0    0 -0.31224177112E+02 -0.26741472030E+01  0.42706030201E+02  0.52980235136E+02  0.10000000000E+01 0.  0.
    9000005    1    3    3    0    0  0.94138807562E+01  0.14863791059E+02  0.72671400974E+03  0.72692764797E+03  0.10000000000E+01 0.  0.
         21    1    1    2  502  501  0.21810296356E+02 -0.12189643856E+02 -0.22902324480E+02  0.33893847687E+02  0.00000000000E+00 0. -1.
<mgrwt>
<rscale>  1 0.12747199E+03</rscale>
<asrwt>0</asrwt>
<pdfrwt beam="1">  1        4 0.12002457E+00 0.12747199E+03</pdfrwt>
<pdfrwt beam="2">  1       -4 0.51756936E-02 0.12747199E+03</pdfrwt>
<totfact> 0.20715646E+02</totfact>
</mgrwt>
</event>
<event>
 6    4  0.2271823E-003  0.1286029E+03  0.7818608E-02  0.1229544E+00
         -4   -1    0    0    0  501 -0.00000000000E+00  0.00000000000E+00  0.10409193920E+03  0.10409968639E+03  0.12700000000E+01 0. -1.
          4   -1    0    0  502    0  0.00000000000E+00 -0.00000000000E+00 -0.64341568023E+02  0.64354100690E+02  0.12700000000E+01 0. -1.
         25    2    1    2    0    0 -0.19723824678E+02 -0.22885666625E+02  0.15148961669E+02  0.12949210915E+03  0.12500372913E+03 0.  0.
    9000005    1    3    3    0    0 -0.30004856670E+02 -0.65044770847E+02 -0.19168337990E+02  0.74158875529E+02  0.10000000000E+01 0.  0.
    9000005    1    3    3    0    0  0.10281031992E+02  0.42159104222E+02  0.34317299659E+02  0.55333233626E+02  0.10000000000E+01 0.  0.
         21    1    1    2  502  501  0.19723824678E+02  0.22885666625E+02  0.24601409505E+02  0.38961677922E+02  0.00000000000E+00 0. -1.
<mgrwt>
<rscale>  1 0.12860294E+03</rscale>
<asrwt>0</asrwt>
<pdfrwt beam="2">  1        4 0.99002628E-02 0.12860294E+03</pdfrwt>
<pdfrwt beam="1">  1       -4 0.16015704E-01 0.12860294E+03</pdfrwt>
<totfact> 0.41814151E+03</totfact>
</mgrwt>
</event>
<event>
 6    4  0.2271823E-003  0.1277756E+03  0.7818608E-02  0.1230794E+00
          4   -1    0    0  502    0  0.00000000000E+00  0.00000000000E+00  0.17033259806E+02  0.17080539793E+02  0.12700000000E+01 0. -1.
         -4   -1    0    0    0  501 -0.00000000000E+00 -0.00000000000E+00 -0.59838024051E+03  0.59838158823E+03  0.12700000000E+01 0. -1.
         25    2    1    2    0    0  0.24749597651E+02  0.93973947515E+01 -0.22992124346E+03  0.26304064399E+03  0.12500299430E+03 0.  0.
    9000005    1    3    3    0    0  0.72807287574E+02 -0.42162025833E+01 -0.99427634926E+02  0.12331071355E+03  0.10000000000E+01 0.  0.
    9000005    1    3    3    0    0 -0.48057689923E+02  0.13613597335E+02 -0.13049360853E+03  0.13972993044E+03  0.10000000000E+01 0.  0.
         21    1    1    2  502  501 -0.24749597651E+02 -0.93973947515E+01 -0.35142573725E+03  0.35242148404E+03  0.00000000000E+00 0. -1.
<mgrwt>
<rscale>  1 0.12777559E+03</rscale>
<asrwt>0</asrwt>
<pdfrwt beam="1">  1        4 0.26242426E-02 0.12777559E+03</pdfrwt>
<pdfrwt beam="2">  1       -4 0.92062223E-01 0.12777559E+03</pdfrwt>
<totfact> 0.11253191E+03</totfact>
</mgrwt>
</event>
<event>
 6    4  0.2271823E-003  0.1447322E+03  0.7818608E-02  0.1207100E+00
          4   -1    0    0  502    0  0.00000000000E+00  0.00000000000E+00  0.40052882773E+03  0.40053084118E+03  0.12700000000E+01 0.  1.
         -4   -1    0    0    0  501 -0.00000000000E+00 -0.00000000000E+00 -0.30128293520E+02  0.30155048839E+02  0.12700000000E+01 0.  1.
         25    2    1    2    0    0  0.36276297061E+02  0.63294105410E+02  0.27301409810E+03  0.30900503102E+03  0.12500119172E+03 0.  0.
    9000005    1    3    3    0    0  0.36137880701E+02  0.95552407685E+02  0.24785068976E+03  0.26808053538E+03  0.10000000000E+01 0.  0.
    9000005    1    3    3    0    0  0.13841636009E+00 -0.32258302275E+02  0.25163408340E+02  0.40924495648E+02  0.10000000000E+01 0.  0.
         21    1    1    2  502  501 -0.36276297061E+02 -0.63294105410E+02  0.97386436110E+02  0.12168085900E+03  0.00000000000E+00 0.  1.
<mgrwt>
<rscale>  1 0.14473221E+03</rscale>
<asrwt>0</asrwt>
<pdfrwt beam="1">  1        4 0.61622033E-01 0.14473221E+03</pdfrwt>
<pdfrwt beam="2">  1       -4 0.46373350E-02 0.14473221E+03</pdfrwt>
<totfact> 0.11319501E+03</totfact>
</mgrwt>
</event>
<event>
 6    4  0.2271823E-003  0.1351600E+03  0.7818608E-02  0.1219994E+00
         -4   -1    0    0    0  501 -0.00000000000E+00  0.00000000000E+00  0.78538214039E+02  0.78548481618E+02  0.12700000000E+01 0.  1.
          4   -1    0    0  502    0  0.00000000000E+00 -0.00000000000E+00 -0.11104842175E+03  0.11105568366E+03  0.12700000000E+01 0.  1.
         25    2    1    2    0    0 -0.32948776788E+02 -0.39477085403E+02 -0.19461428118E+02  0.13655387958E+03  0.12499661068E+03 0.  0.
    9000005    1    3    3    0    0  0.40387429694E+02 -0.29697812608E+02 -0.34741329974E+02  0.61000529173E+02  0.10000000000E+01 0.  0.
    9000005    1    3    3    0    0 -0.73336206482E+02 -0.97792727954E+01  0.15279901856E+02  0.75553350411E+02  0.10000000000E+01 0.  0.
         21    1    1    2  502  501  0.32948776788E+02  0.39477085403E+02 -0.13048779597E+02  0.53050285699E+02  0.00000000000E+00 0.  1.
<mgrwt>
<rscale>  1 0.13515996E+03</rscale>
<asrwt>0</asrwt>
<pdfrwt beam="2">  1        4 0.17085721E-01 0.13515996E+03</pdfrwt>
<pdfrwt beam="1">  1       -4 0.12084151E-01 0.13515996E+03</pdfrwt>
<totfact> 0.26924519E+03</totfact>
</mgrwt>
</event>
<event>
 6    4  0.2271823E-003  0.1401757E+03  0.7818608E-02  0.1213093E+00
          4   -1    0    0  502    0  0.00000000000E+00  0.00000000000E+00  0.15340526755E+04  0.15340532012E+04  0.12700000000E+01 0. -1.
         -4   -1    0    0    0  501 -0.00000000000E+00 -0.00000000000E+00 -0.67476998849E+01  0.68661746072E+01  0.12700000000E+01 0. -1.
         25    2    1    2    0    0 -0.17575759296E+02  0.60942184238E+02  0.11116657664E+04  0.11204686541E+04  0.12500548601E+03 0.  0.
    9000005    1    3    3    0    0  0.64687690315E+01 -0.35649491634E+02  0.18862937464E+03  0.19208011923E+03  0.10000000000E+01 0.  0.
    9000005    1    3    3    0    0 -0.24044528328E+02  0.96591675872E+02  0.92303639172E+03  0.92838853485E+03  0.10000000000E+01 0.  0.
         21    1    1    2  502  501  0.17575759296E+02 -0.60942184238E+02  0.41563920927E+03  0.42045072175E+03  0.00000000000E+00 0. -1.
<mgrwt>
<rscale>  1 0.14017571E+03</rscale>
<asrwt>0</asrwt>
<pdfrwt beam="1">  1        4 0.23601744E+00 0.14017571E+03</pdfrwt>
<pdfrwt beam="2">  1       -4 0.10472607E-02 0.14017571E+03</pdfrwt>
<totfact> 0.40707254E+02</totfact>
</mgrwt>
</event>
<event>
 6    4  0.2271823E-003  0.1335060E+03  0.7818608E-02  0.1222344E+00
         -4   -1    0    0    0  501 -0.00000000000E+00  0.00000000000E+00  0.57824370543E+02  0.57838315404E+02  0.12700000000E+01 0.  1.
          4   -1    0    0  502    0  0.00000000000E+00 -0.00000000000E+00 -0.15607789970E+03  0.15608306658E+03  0.12700000000E+01 0.  1.
         25    2    1    2    0    0 -0.64392276847E+00 -0.46897121059E+02 -0.10028498015E+03  0.16697586683E+03  0.12499643299E+03 0.  0.
    9000005    1    3    3    0    0  0.22235903528E+02  0.12856169001E+02 -0.99722139748E+02  0.10298165683E+03  0.10000000000E+01 0.  0.
    9000005    1    3    3    0    0 -0.22879826297E+02 -0.59753290060E+02 -0.56284040173E+00  0.63994210001E+02  0.10000000000E+01 0.  0.
         21    1    1    2  502  501  0.64392276847E+00  0.46897121059E+02  0.20314509971E+01  0.46945515156E+02  0.00000000000E+00 0.  1.
<mgrwt>
<rscale>  1 0.13350604E+03</rscale>
<asrwt>0</asrwt>
<pdfrwt beam="2">  1        4 0.24013455E-01 0.13350604E+03</pdfrwt>
<pdfrwt beam="1">  1       -4 0.88975272E-02 0.13350604E+03</pdfrwt>
<totfact> 0.24393587E+03</totfact>
</mgrwt>
</event>
<event>
 6    4  0.2271823E-003  0.1277023E+03  0.7818608E-02  0.1230906E+00
          4   -1    0    0  502    0  0.00000000000E+00  0.00000000000E+00  0.98309138151E+03  0.98309220183E+03  0.12700000000E+01 0.  1.
         -4   -1    0    0    0  501 -0.00000000000E+00 -0.00000000000E+00 -0.70015071466E+01  0.71157573261E+01  0.12700000000E+01 0.  1.
         25    2    1    2    0    0  0.18721073533E+02  0.18212880751E+02  0.91356169882E+03  0.92244395429E+03  0.12500273447E+03 0.  0.
    9000005    1    3    3    0    0  0.14547938966E+02  0.71663039435E+02  0.47059519856E+03  0.47624371351E+03  0.10000000000E+01 0.  0.
    9000005    1    3    3    0    0  0.41731345668E+01 -0.53450158684E+02  0.44296650026E+03  0.44620024078E+03  0.10000000000E+01 0.  0.
         21    1    1    2  502  501 -0.18721073533E+02 -0.18212880751E+02  0.62528175541E+02  0.67764004870E+02  0.00000000000E+00 0. -1.
<mgrwt>
<rscale>  1 0.12770228E+03</rscale>
<asrwt>0</asrwt>
<pdfrwt beam="1">  1        4 0.15125359E+00 0.12770228E+03</pdfrwt>
<pdfrwt beam="2">  1       -4 0.10860071E-02 0.12770228E+03</pdfrwt>
<totfact> 0.13204357E+03</totfact>
</mgrwt>
</event>
<event>
 6    4  0.2271823E-003  0.1365534E+03  0.7818608E-02  0.1218043E+00
          4   -1    0    0  502    0  0.00000000000E+00  0.00000000000E+00  0.73454394315E+03  0.73454504104E+03  0.12700000000E+01 0.  1.
         -4   -1    0    0    0  501 -0.00000000000E+00 -0.00000000000E+00 -0.17822860229E+02  0.17868051006E+02  0.12700000000E+01 0.  1.
         25    2    1    2    0    0  0.16532944119E+02 -0.52414429576E+02  0.65785691959E+03  0.67187986664E+03  0.12500487144E+03 0.  0.
    9000005    1    3    3    0    0  0.46116187848E+02 -0.68480756014E+02  0.59375990780E+03  0.59947322279E+03  0.10000000000E+01 0.  0.
    9000005    1    3    3    0    0 -0.29583243729E+02  0.16066326439E+02  0.64097011788E+02  0.72406643859E+02  0.10000000000E+01 0.  0.
         21    1    1    2  502  501 -0.16532944119E+02  0.52414429576E+02  0.58864163336E+02  0.80533225406E+02  0.00000000000E+00 0.  1.
<mgrwt>
<rscale>  1 0.13655339E+03</rscale>
<asrwt>0</asrwt>
<pdfrwt beam="1">  1        4 0.11301033E+00 0.13655339E+03</pdfrwt>
<pdfrwt beam="2">  1       -4 0.27455390E-02 0.13655339E+03</pdfrwt>
<totfact> 0.66085988E+02</totfact>
</mgrwt>
</event>
<event>
 6    4  0.2271823E-003  0.1273403E+03  0.7818608E-02  0.1231456E+00
          4   -1    0    0  502    0  0.00000000000E+00  0.00000000000E+00  0.44404771595E+01  0.46185211274E+01  0.12700000000E+01 0.  1.
         -4   -1    0    0    0  501 -0.00000000000E+00 -0.00000000000E+00 -0.13524976262E+04  0.13524982224E+04  0.12700000000E+01 0.  1.
         25    2    1    2    0    0  0.23681895625E+02 -0.56950606594E+01 -0.97742802367E+03  0.98568813071E+03  0.12498913421E+03 0.  0.
    9000005    1    3    3    0    0  0.36426970824E+02 -0.58212611274E+02 -0.67337426308E+03  0.67686743938E+03  0.10000000000E+01 0.  0.
    9000005    1    3    3    0    0 -0.12745075199E+02  0.52517550615E+02 -0.30405376059E+03  0.30882069133E+03  0.10000000000E+01 0.  0.
         21    1    1    2  502  501 -0.23681895625E+02  0.56950606594E+01 -0.37062912532E+03  0.37142861283E+03  0.00000000000E+00 0. -1.
<mgrwt>
<rscale>  1 0.12734029E+03</rscale>
<asrwt>0</asrwt>
<pdfrwt beam="1">  1        4 0.69689297E-03 0.12734029E+03</pdfrwt>
<pdfrwt beam="2">  1       -4 0.20808998E+00 0.12734029E+03</pdfrwt>
<totfact> 0.10802926E+03</totfact>
</mgrwt>
</event>
<event>
 6    4  0.2271823E-003  0.1338961E+03  0.7818608E-02  0.1221787E+00
          4   -1    0    0  502    0  0.00000000000E+00  0.00000000000E+00  0.11848765928E+03  0.11849446527E+03  0.12700000000E+01 0.  1.
         -4   -1    0    0    0  501 -0.00000000000E+00 -0.00000000000E+00 -0.14579076238E+03  0.14579629384E+03  0.12700000000E+01 0.  1.
         25    2    1    2    0    0  0.17999599627E+02 -0.44478157196E+02  0.73433151793E+02  0.15271080972E+03  0.12500348623E+03 0.  0.
    9000005    1    3    3    0    0 -0.35733620920E+02  0.55130354584E+01 -0.13793799981E+02  0.38711163014E+02  0.10000000000E+01 0.  0.
    9000005    1    3    3    0    0  0.53733220547E+02 -0.49991192655E+02  0.87226951774E+02  0.11399964671E+03  0.10000000000E+01 0.  0.
         21    1    1    2  502  501 -0.17999599627E+02  0.44478157196E+02 -0.10073625490E+03  0.11157994939E+03  0.00000000000E+00 0.  1.
<mgrwt>
<rscale>  1 0.13389609E+03</rscale>
<asrwt>0</asrwt>
<pdfrwt beam="1">  1        4 0.18229820E-01 0.13389609E+03</pdfrwt>
<pdfrwt beam="2">  1       -4 0.22430297E-01 0.13389609E+03</pdfrwt>
<totfact> 0.80469861E+02</totfact>
</mgrwt>
</event>
<event>
 6    4  0.2271823E-003  0.1321625E+03  0.7818608E-02  0.1224282E+00
          4   -1    0    0  502    0  0.00000000000E+00  0.00000000000E+00  0.75125341126E+02  0.75136075085E+02  0.12700000000E+01 0.  1.
         -4   -1    0    0    0  501 -0.00000000000E+00 -0.00000000000E+00 -0.12251386088E+03  0.12252044323E+03  0.12700000000E+01 0.  1.
         25    2    1    2    0    0  0.33709474970E+02 -0.26604682352E+02  0.20408222000E+01  0.13217829543E+03  0.12499119569E+03 0.  0.
    9000005    1    3    3    0    0  0.75425019047E+02 -0.32212372823E+02  0.22946476595E+02  0.85171070495E+02  0.10000000000E+01 0.  0.
    9000005    1    3    3    0    0 -0.41715544077E+02  0.56076904717E+01 -0.20905654395E+02  0.47007224931E+02  0.10000000000E+01 0.  0.
         21    1    1    2  502  501 -0.33709474970E+02  0.26604682352E+02 -0.49429341956E+02  0.65478222884E+02  0.00000000000E+00 0.  1.
<mgrwt>
<rscale>  1 0.13216254E+03</rscale>
<asrwt>0</asrwt>
<pdfrwt beam="1">  1        4 0.11559077E-01 0.13216254E+03</pdfrwt>
<pdfrwt beam="2">  1       -4 0.18849618E-01 0.13216254E+03</pdfrwt>
<totfact> 0.24268944E+03</totfact>
</mgrwt>
</event>
<event>
 6    4  0.2271823E-003  0.1339927E+03  0.7818608E-02  0.1221649E+00
         -4   -1    0    0    0  501 -0.00000000000E+00  0.00000000000E+00  0.13271245636E+04  0.13271251712E+04  0.12700000000E+01 0.  1.
          4   -1    0    0  502    0  0.00000000000E+00 -0.00000000000E+00 -0.64645681877E+01  0.65881364477E+01  0.12700000000E+01 0.  1.
         25    2    1    2    0    0 -0.44512551822E+00  0.48259698286E+02  0.83778713285E+03  0.84843462694E+03  0.12499935842E+03 0.  0.
    9000005    1    3    3    0    0 -0.40460238329E+01  0.90976816259E+02  0.57919839550E+03  0.58631470454E+03  0.10000000000E+01 0.  0.
    9000005    1    3    3    0    0  0.36008983147E+01 -0.42717117974E+02  0.25858873735E+03  0.26211992240E+03  0.10000000000E+01 0.  0.
         21    1    1    2  502  501  0.44512551822E+00 -0.48259698286E+02  0.48287286252E+03  0.48527868073E+03  0.00000000000E+00 0.  1.
<mgrwt>
<rscale>  1 0.13399267E+03</rscale>
<asrwt>0</asrwt>
<pdfrwt beam="2">  1        4 0.10041009E-02 0.13399267E+03</pdfrwt>
<pdfrwt beam="1">  1       -4 0.20418257E+00 0.13399267E+03</pdfrwt>
<totfact> 0.66701010E+02</totfact>
</mgrwt>
</event>
<event>
 6    4  0.2271823E-003  0.1268328E+03  0.7818608E-02  0.1232232E+00
         -4   -1    0    0    0  501 -0.00000000000E+00  0.00000000000E+00  0.41580349913E+03  0.41580543862E+03  0.12700000000E+01 0.  1.
          4   -1    0    0  502    0  0.00000000000E+00 -0.00000000000E+00 -0.16764298843E+02  0.16812335224E+02  0.12700000000E+01 0.  1.
         25    2    1    2    0    0  0.94287610640E+01 -0.19316118429E+02  0.23380357767E+03  0.26598997020E+03  0.12499814939E+03 0.  0.
    9000005    1    3    3    0    0 -0.12186252622E+02 -0.26584682993E+02 -0.17679563685E+01  0.29315112017E+02  0.10000000000E+01 0.  0.
    9000005    1    3    3    0    0  0.21615013686E+02  0.72685645649E+01  0.23557153404E+03  0.23667485819E+03  0.10000000000E+01 0.  0.
         21    1    1    2  502  501 -0.94287610640E+01  0.19316118429E+02  0.16523562261E+03  0.16662780364E+03  0.00000000000E+00 0. -1.
<mgrwt>
<rscale>  1 0.12683277E+03</rscale>
<asrwt>0</asrwt>
<pdfrwt beam="2">  1        4 0.25829670E-02 0.12683277E+03</pdfrwt>
<pdfrwt beam="1">  1       -4 0.63973619E-01 0.12683277E+03</pdfrwt>
<totfact> 0.25566977E+03</totfact>
</mgrwt>
</event>
<event>
 6    4  0.2271823E-003  0.1266719E+03  0.7818608E-02  0.1232479E+00
         -4   -1    0    0    0  501 -0.00000000000E+00  0.00000000000E+00  0.27154213935E+02  0.27183896601E+02  0.12700000000E+01 0.  1.
          4   -1    0    0  502    0  0.00000000000E+00 -0.00000000000E+00 -0.20474121435E+03  0.20474515318E+03  0.12700000000E+01 0.  1.
         25    2    1    2    0    0 -0.10877020501E+02  0.17371952376E+02 -0.13781525507E+03  0.18718660872E+03  0.12500275058E+03 0.  0.
    9000005    1    3    3    0    0  0.50473980884E+02 -0.18405160393E+02 -0.75681655936E+02  0.92817486072E+02  0.10000000000E+01 0.  0.
    9000005    1    3    3    0    0 -0.61351001385E+02  0.35777112769E+02 -0.62133599131E+02  0.94369122652E+02  0.10000000000E+01 0.  0.
         21    1    1    2  502  501  0.10877020501E+02 -0.17371952376E+02 -0.39771745343E+02  0.44742441060E+02  0.00000000000E+00 0.  1.
<mgrwt>
<rscale>  1 0.12667195E+03</rscale>
<asrwt>0</asrwt>
<pdfrwt beam="2">  1        4 0.31501234E-01 0.12667195E+03</pdfrwt>
<pdfrwt beam="1">  1       -4 0.41801578E-02 0.12667195E+03</pdfrwt>
<totfact> 0.49584139E+03</totfact>
</mgrwt>
</event>
<event>
 6    4  0.2271823E-003  0.1732302E+03  0.7818608E-02  0.1174520E+00
         -4   -1    0    0    0  501 -0.00000000000E+00  0.00000000000E+00  0.14152116992E+04  0.14152122690E+04  0.12700000000E+01 0. -1.
          4   -1    0    0  502    0  0.00000000000E+00 -0.00000000000E+00 -0.31252813469E+02  0.31278606902E+02  0.12700000000E+01 0. -1.
         25    2    1    2    0    0 -0.11713253052E+03 -0.25959862731E+02  0.23853591809E+03  0.29480180376E+03  0.12495909373E+03 0.  0.
    9000005    1    3    3    0    0 -0.51669681824E+02 -0.15788978299E+02  0.21922853347E+03  0.22579016308E+03  0.10000000000E+01 0.  0.
    9000005    1    3    3    0    0 -0.65462848697E+02 -0.10170884431E+02  0.19307384622E+02  0.69011640689E+02  0.10000000000E+01 0.  0.
         21    1    1    2  502  501  0.11713253052E+03  0.25959862731E+02  0.11454229676E+04  0.11516890722E+04  0.00000000000E+00 0. -1.
<mgrwt>
<rscale>  1 0.17323025E+03</rscale>
<asrwt>0</asrwt>
<pdfrwt beam="2">  1        4 0.48101540E-02 0.17323025E+03</pdfrwt>
<pdfrwt beam="1">  1       -4 0.21772686E+00 0.17323025E+03</pdfrwt>
<totfact> 0.50257596E+01</totfact>
</mgrwt>
</event>
<event>
 6    4  0.2271823E-003  0.1304709E+03  0.7818608E-02  0.1226759E+00
          4   -1    0    0  502    0  0.00000000000E+00  0.00000000000E+00  0.18048863168E+02  0.18093489483E+02  0.12700000000E+01 0.  1.
         -4   -1    0    0    0  501 -0.00000000000E+00 -0.00000000000E+00 -0.39127480950E+03  0.39127687057E+03  0.12700000000E+01 0.  1.
         25    2    1    2    0    0 -0.16121242461E+02 -0.33743082967E+02 -0.27920158482E+03  0.30818206694E+03  0.12499668520E+03 0.  0.
    9000005    1    3    3    0    0  0.20604551182E+02 -0.69942662021E+02 -0.11592634622E+03  0.13695415747E+03  0.10000000000E+01 0.  0.
    9000005    1    3    3    0    0 -0.36725793644E+02  0.36199579055E+02 -0.16327523860E+03  0.17122790947E+03  0.10000000000E+01 0.  0.
         21    1    1    2  502  501  0.16121242461E+02  0.33743082967E+02 -0.94024361510E+02  0.10118829312E+03  0.00000000000E+00 0.  1.
<mgrwt>
<rscale>  1 0.13047092E+03</rscale>
<asrwt>0</asrwt>
<pdfrwt beam="1">  1        4 0.27803398E-02 0.13047092E+03</pdfrwt>
<pdfrwt beam="2">  1       -4 0.60199709E-01 0.13047092E+03</pdfrwt>
<totfact> 0.26092539E+03</totfact>
</mgrwt>
</event>
<event>
 6    4  0.2271823E-003  0.1274192E+03  0.7818608E-02  0.1231336E+00
          4   -1    0    0  502    0  0.00000000000E+00  0.00000000000E+00  0.56554324156E+02  0.56568582100E+02  0.12700000000E+01 0. -1.
         -4   -1    0    0    0  501 -0.00000000000E+00 -0.00000000000E+00 -0.10564808408E+03  0.10565571717E+03  0.12700000000E+01 0. -1.
         25    2    1    2    0    0 -0.12189513163E+02 -0.21518012466E+02 -0.29799433809E+02  0.13085743599E+03  0.12499621277E+03 0.  0.
    9000005    1    3    3    0    0 -0.61835001436E+02 -0.40847325843E+02 -0.16222584510E+02  0.75869912873E+02  0.10000000000E+01 0.  0.
    9000005    1    3    3    0    0  0.49645488273E+02  0.19329313377E+02 -0.13576849298E+02  0.54987523116E+02  0.10000000000E+01 0.  0.
         21    1    1    2  502  501  0.12189513163E+02  0.21518012466E+02 -0.19294326116E+02  0.31366863278E+02  0.00000000000E+00 0.  1.
<mgrwt>
<rscale>  1 0.12741924E+03</rscale>
<asrwt>0</asrwt>
<pdfrwt beam="1">  1        4 0.87023492E-02 0.12741924E+03</pdfrwt>
<pdfrwt beam="2">  1       -4 0.16255235E-01 0.12741924E+03</pdfrwt>
<totfact> 0.50432127E+03</totfact>
</mgrwt>
</event>
<event>
 6    4  0.2271823E-003  0.1269172E+03  0.7818608E-02  0.1232103E+00
         -4   -1    0    0    0  501 -0.00000000000E+00  0.00000000000E+00  0.89379135598E+02  0.89388157941E+02  0.12700000000E+01 0. -1.
          4   -1    0    0  502    0  0.00000000000E+00 -0.00000000000E+00 -0.62583462088E+02  0.62596346754E+02  0.12700000000E+01 0. -1.
         25    2    1    2    0    0  0.21082570116E+02 -0.62472280542E+01  0.17525250412E+02  0.12812149220E+03  0.12499791894E+03 0.  0.
    9000005    1    3    3    0    0  0.31318301819E+02  0.43271202908E+02  0.45632614742E+02  0.70260718456E+02  0.10000000000E+01 0.  0.
    9000005    1    3    3    0    0 -0.10235731703E+02 -0.49518430962E+02 -0.28107364329E+02  0.57860773741E+02  0.10000000000E+01 0.  0.
         21    1    1    2  502  501 -0.21082570116E+02  0.62472280542E+01  0.92704230971E+01  0.23863012498E+02  0.00000000000E+00 0. -1.
<mgrwt>
<rscale>  1 0.12691723E+03</rscale>
<asrwt>0</asrwt>
<pdfrwt beam="2">  1        4 0.96299101E-02 0.12691723E+03</pdfrwt>
<pdfrwt beam="1">  1       -4 0.13752321E-01 0.12691723E+03</pdfrwt>
<totfact> 0.56931620E+03</totfact>
</mgrwt>
</event>
<event>
 6    4  0.2271823E-003  0.1342617E+03  0.7818608E-02  0.1221266E+00
         -4   -1    0    0    0  501 -0.00000000000E+00  0.00000000000E+00  0.74440786233E+03  0.74440894567E+03  0.12700000000E+01 0. -1.
          4   -1    0    0  502    0  0.00000000000E+00 -0.00000000000E+00 -0.11246776055E+02  0.11318253913E+02  0.12700000000E+01 0. -1.
         25    2    1    2    0    0  0.43280253272E+02  0.22968867262E+02  0.53011532161E+03  0.54685323822E+03  0.12500184304E+03 0.  0.
    9000005    1    3    3    0    0  0.47656108537E+02  0.47845709599E+02  0.13520542845E+03  0.15113511998E+03  0.10000000000E+01 0.  0.
    9000005    1    3    3    0    0 -0.43758552647E+01 -0.24876842337E+02  0.39490989316E+03  0.39571811824E+03  0.10000000000E+01 0.  0.
         21    1    1    2  502  501 -0.43280253272E+02 -0.22968867262E+02  0.20304576466E+03  0.20887396136E+03  0.00000000000E+00 0. -1.
<mgrwt>
<rscale>  1 0.13426172E+03</rscale>
<asrwt>0</asrwt>
<pdfrwt beam="2">  1        4 0.17358553E-02 0.13426172E+03</pdfrwt>
<pdfrwt beam="1">  1       -4 0.11452984E+00 0.13426172E+03</pdfrwt>
<totfact> 0.12962372E+03</totfact>
</mgrwt>
</event>
<event>
 6    4  0.2271823E-003  0.1333870E+03  0.7818608E-02  0.1222515E+00
          4   -1    0    0  502    0  0.00000000000E+00  0.00000000000E+00  0.13382095426E+04  0.13382101453E+04  0.12700000000E+01 0. -1.
         -4   -1    0    0    0  501 -0.00000000000E+00 -0.00000000000E+00 -0.75137526554E+01  0.76203266968E+01  0.12700000000E+01 0. -1.
         25    2    1    2    0    0  0.27409323907E+02 -0.37627321782E+02  0.11939549541E+04  0.12013827563E+04  0.12500003274E+03 0.  0.
    9000005    1    3    3    0    0 -0.38013068454E+02 -0.31843538070E+02  0.83470215486E+03  0.83617443851E+03  0.10000000000E+01 0.  0.
    9000005    1    3    3    0    0  0.65422392360E+02 -0.57837837126E+01  0.35925279926E+03  0.36520831775E+03  0.10000000000E+01 0.  0.
         21    1    1    2  502  501 -0.27409323907E+02  0.37627321782E+02  0.13674083587E+03  0.14444771572E+03  0.00000000000E+00 0. -1.
<mgrwt>
<rscale>  1 0.13338701E+03</rscale>
<asrwt>0</asrwt>
<pdfrwt beam="1">  1        4 0.20588684E+00 0.13338701E+03</pdfrwt>
<pdfrwt beam="2">  1       -4 0.11642052E-02 0.13338701E+03</pdfrwt>
<totfact> 0.52048181E+02</totfact>
</mgrwt>
</event>
<event>
 6    4  0.2271823E-003  0.1288371E+03  0.7818608E-02  0.1229192E+00
         -4   -1    0    0    0  501 -0.00000000000E+00  0.00000000000E+00  0.24501298746E+03  0.24501627890E+03  0.12700000000E+01 0. -1.
          4   -1    0    0  502    0  0.00000000000E+00 -0.00000000000E+00 -0.52738579222E+02  0.52753868468E+02  0.12700000000E+01 0. -1.
         25    2    1    2    0    0 -0.30504806132E+02  0.65563664454E+01  0.29683332445E+02  0.13221234155E+03  0.12500189557E+03 0.  0.
    9000005    1    3    3    0    0  0.43060466414E+02 -0.23715438646E+02  0.14013787626E+02  0.51127409885E+02  0.10000000000E+01 0.  0.
    9000005    1    3    3    0    0 -0.73565272546E+02  0.30271805092E+02  0.15669544819E+02  0.81084931665E+02  0.10000000000E+01 0.  0.
         21    1    1    2  502  501  0.30504806132E+02 -0.65563664454E+01  0.16259107580E+03  0.16555780582E+03  0.00000000000E+00 0. -1.
<mgrwt>
<rscale>  1 0.12883712E+03</rscale>
<asrwt>0</asrwt>
<pdfrwt beam="2">  1        4 0.81150569E-02 0.12883712E+03</pdfrwt>
<pdfrwt beam="1">  1       -4 0.37695735E-01 0.12883712E+03</pdfrwt>
<totfact> 0.12024248E+03</totfact>
</mgrwt>
</event>
<event>
 6    4  0.2271823E-003  0.1269705E+03  0.7818608E-02  0.1232021E+00
         -4   -1    0    0    0  501 -0.00000000000E+00  0.00000000000E+00  0.10562865641E+03  0.10563629090E+03  0.12700000000E+01 0.  1.
          4   -1    0    0  502    0  0.00000000000E+00 -0.00000000000E+00 -0.52842770019E+02  0.52858029128E+02  0.12700000000E+01 0.  1.
         25    2    1    2    0    0 -0.20779924835E+02 -0.80326709263E+01  0.41954906345E+02  0.13372257792E+03  0.12500073840E+03 0.  0.
    9000005    1    3    3    0    0 -0.64771862101E+02  0.23061223058E+02  0.40540876997E+02  0.79823410330E+02  0.10000000000E+01 0.  0.
    9000005    1    3    3    0    0  0.43991937265E+02 -0.31093893985E+02  0.14140293472E+01  0.53899167586E+02  0.10000000000E+01 0.  0.
         21    1    1    2  502  501  0.20779924835E+02  0.80326709263E+01  0.10830980042E+02  0.24771742108E+02  0.00000000000E+00 0.  1.
<mgrwt>
<rscale>  1 0.12697052E+03</rscale>
<asrwt>0</asrwt>
<pdfrwt beam="2">  1        4 0.81314180E-02 0.12697052E+03</pdfrwt>
<pdfrwt beam="1">  1       -4 0.16252324E-01 0.12697052E+03</pdfrwt>
<totfact> 0.56413700E+03</totfact>
</mgrwt>
</event>
<event>
 6    4  0.2271823E-003  0.1393203E+03  0.7818608E-02  0.1214247E+00
          4   -1    0    0  502    0  0.00000000000E+00  0.00000000000E+00  0.28010214130E+02  0.28038990632E+02  0.12700000000E+01 0. -1.
         -4   -1    0    0    0  501 -0.00000000000E+00 -0.00000000000E+00 -0.73953090282E+03  0.73953199330E+03  0.12700000000E+01 0. -1.
         25    2    1    2    0    0 -0.83275191655E+01  0.60952387477E+02 -0.15803899190E+03  0.21068093214E+03  0.12500236434E+03 0.  0.
    9000005    1    3    3    0    0  0.85820346601E+01  0.71064379456E+02 -0.17213966649E+03  0.18643192357E+03  0.10000000000E+01 0.  0.
    9000005    1    3    3    0    0 -0.16909553826E+02 -0.10111991979E+02  0.14100674594E+02  0.24249008565E+02  0.10000000000E+01 0.  0.
         21    1    1    2  502  501  0.83275191655E+01 -0.60952387477E+02 -0.55348169678E+03  0.55689005180E+03  0.00000000000E+00 0. -1.
<mgrwt>
<rscale>  1 0.13932025E+03</rscale>
<asrwt>0</asrwt>
<pdfrwt beam="1">  1        4 0.43115617E-02 0.13932025E+03</pdfrwt>
<pdfrwt beam="2">  1       -4 0.11377627E+00 0.13932025E+03</pdfrwt>
<totfact> 0.32034344E+02</totfact>
</mgrwt>
</event>
<event>
 6    4  0.2271823E-003  0.1306068E+03  0.7818608E-02  0.1226558E+00
          4   -1    0    0  502    0  0.00000000000E+00  0.00000000000E+00  0.16452715450E+03  0.16453205605E+03  0.12700000000E+01 0.  1.
         -4   -1    0    0    0  501 -0.00000000000E+00 -0.00000000000E+00 -0.43774118258E+02  0.43792537369E+02  0.12700000000E+01 0.  1.
         25    2    1    2    0    0 -0.18469563181E+01  0.37804922320E+02  0.10389517394E+03  0.16689017632E+03  0.12500200152E+03 0.  0.
    9000005    1    3    3    0    0  0.73293840618E+01  0.32196553679E+01 -0.28562974325E+02  0.29680457437E+02  0.10000000000E+01 0.  0.
    9000005    1    3    3    0    0 -0.91763403799E+01  0.34585266952E+02  0.13245814827E+03  0.13720971888E+03  0.10000000000E+01 0.  0.
         21    1    1    2  502  501  0.18469563181E+01 -0.37804922320E+02  0.16857862302E+02  0.41434417102E+02  0.00000000000E+00 0. -1.
<mgrwt>
<rscale>  1 0.13060675E+03</rscale>
<asrwt>0</asrwt>
<pdfrwt beam="1">  1        4 0.25313664E-01 0.13060675E+03</pdfrwt>
<pdfrwt beam="2">  1       -4 0.67362737E-02 0.13060675E+03</pdfrwt>
<totfact> 0.34873346E+03</totfact>
</mgrwt>
</event>
<event>
 6    4  0.2271823E-003  0.1278454E+03  0.7818608E-02  0.1230688E+00
          4   -1    0    0  502    0  0.00000000000E+00  0.00000000000E+00  0.12964659781E+03  0.12965281803E+03  0.12700000000E+01 0.  1.
         -4   -1    0    0    0  501 -0.00000000000E+00 -0.00000000000E+00 -0.10991221293E+03  0.10991954990E+03  0.12700000000E+01 0.  1.
         25    2    1    2    0    0  0.12588629570E+02  0.23658215128E+02  0.95259971151E+02  0.15943312088E+03  0.12500509267E+03 0.  0.
    9000005    1    3    3    0    0  0.63752393227E+02  0.33788572818E+02  0.73219858893E+02  0.10280166843E+03  0.10000000000E+01 0.  0.
    9000005    1    3    3    0    0 -0.51163763657E+02 -0.10130357690E+02  0.22040112259E+02  0.56631452452E+02  0.10000000000E+01 0.  0.
         21    1    1    2  502  501 -0.12588629570E+02 -0.23658215128E+02 -0.75525586270E+02  0.80139247058E+02  0.00000000000E+00 0.  1.
<mgrwt>
<rscale>  1 0.12784545E+03</rscale>
<asrwt>0</asrwt>
<pdfrwt beam="1">  1        4 0.19946673E-01 0.12784545E+03</pdfrwt>
<pdfrwt beam="2">  1       -4 0.16910614E-01 0.12784545E+03</pdfrwt>
<totfact> 0.11255128E+03</totfact>
</mgrwt>
</event>
<event>
 6    4  0.2271823E-003  0.1267635E+03  0.7818608E-02  0.1232339E+00
         -4   -1    0    0    0  501 -0.00000000000E+00  0.00000000000E+00  0.93620422035E+02  0.93629035678E+02  0.12700000000E+01 0.  1.
          4   -1    0    0  502    0  0.00000000000E+00 -0.00000000000E+00 -0.61184304919E+02  0.61197484167E+02  0.12700000000E+01 0.  1.
         25    2    1    2    0    0 -0.47175217931E+01 -0.20600311736E+02  0.15427908699E+02  0.12769891381E+03  0.12498945702E+03 0.  0.
    9000005    1    3    3    0    0 -0.57205842023E+02 -0.22474486104E+02  0.36053713562E+02  0.71263462930E+02  0.10000000000E+01 0.  0.
    9000005    1    3    3    0    0  0.52488320230E+02  0.18741743679E+01 -0.20625804863E+02  0.56435450883E+02  0.10000000000E+01 0.  0.
         21    1    1    2  502  501  0.47175217931E+01  0.20600311736E+02  0.17008208417E+02  0.27127606032E+02  0.00000000000E+00 0.  1.
<mgrwt>
<rscale>  1 0.12676353E+03</rscale>
<asrwt>0</asrwt>
<pdfrwt beam="2">  1        4 0.94146464E-02 0.12676353E+03</pdfrwt>
<pdfrwt beam="1">  1       -4 0.14404818E-01 0.12676353E+03</pdfrwt>
<totfact> 0.54548887E+03</totfact>
</mgrwt>
</event>
<event>
 6    4  0.2271823E-003  0.1293872E+03  0.7818608E-02  0.1228368E+00
         -4   -1    0    0    0  501 -0.00000000000E+00  0.00000000000E+00  0.24474983372E+03  0.24475312869E+03  0.12700000000E+01 0.  1.
          4   -1    0    0  502    0  0.00000000000E+00 -0.00000000000E+00 -0.31521356444E+02  0.31546930311E+02  0.12700000000E+01 0.  1.
         25    2    1    2    0    0 -0.30716317103E+02  0.13194408442E+02  0.11704403258E+03  0.17447161528E+03  0.12499381754E+03 0.  0.
    9000005    1    3    3    0    0 -0.51119040349E+02 -0.25027983949E+02  0.84507292151E+01  0.57549727115E+02  0.10000000000E+01 0.  0.
    9000005    1    3    3    0    0  0.20402723246E+02  0.38222392390E+02  0.10859330336E+03  0.11692188816E+03  0.10000000000E+01 0.  0.
         21    1    1    2  502  501  0.30716317103E+02 -0.13194408442E+02  0.96184444694E+02  0.10182844373E+03  0.00000000000E+00 0.  1.
<mgrwt>
<rscale>  1 0.12938717E+03</rscale>
<asrwt>0</asrwt>
<pdfrwt beam="2">  1        4 0.48516602E-02 0.12938717E+03</pdfrwt>
<pdfrwt beam="1">  1       -4 0.37656041E-01 0.12938717E+03</pdfrwt>
<totfact> 0.27876107E+03</totfact>
</mgrwt>
</event>
<event>
 6    4  0.2271823E-003  0.1461373E+03  0.7818608E-02  0.1205301E+00
         -4   -1    0    0    0  501 -0.00000000000E+00  0.00000000000E+00  0.33315758001E+03  0.33316000063E+03  0.12700000000E+01 0.  1.
          4   -1    0    0  502    0  0.00000000000E+00 -0.00000000000E+00 -0.40040918297E+02  0.40061053881E+02  0.12700000000E+01 0.  1.
         25    2    1    2    0    0 -0.75629939585E+02  0.37071673535E+01  0.13986247229E+03  0.20228107256E+03  0.12498996084E+03 0.  0.
    9000005    1    3    3    0    0  0.27971227265E+02  0.20624083267E+02  0.63750480540E+02  0.72614503609E+02  0.10000000000E+01 0.  0.
    9000005    1    3    3    0    0 -0.10360116685E+03 -0.16916915914E+02  0.76111991749E+02  0.12966656896E+03  0.10000000000E+01 0.  0.
         21    1    1    2  502  501  0.75629939585E+02 -0.37071673535E+01  0.15325418943E+03  0.17093998195E+03  0.00000000000E+00 0.  1.
<mgrwt>
<rscale>  1 0.14613734E+03</rscale>
<asrwt>0</asrwt>
<pdfrwt beam="2">  1        4 0.61618761E-02 0.14613734E+03</pdfrwt>
<pdfrwt beam="1">  1       -4 0.51256750E-01 0.14613734E+03</pdfrwt>
<totfact> 0.10508001E+03</totfact>
</mgrwt>
</event>
<event>
 6    4  0.2271823E-003  0.1277548E+03  0.7818608E-02  0.1230826E+00
          4   -1    0    0  502    0  0.00000000000E+00  0.00000000000E+00  0.93246703519E+02  0.93255351681E+02  0.12700000000E+01 0. -1.
         -4   -1    0    0    0  501 -0.00000000000E+00 -0.00000000000E+00 -0.67921700215E+02  0.67933572408E+02  0.12700000000E+01 0. -1.
         25    2    1    2    0    0  0.11573764274E+02  0.23776622174E+02  0.35909151288E+02  0.13270552594E+03  0.12498803818E+03 0.  0.
    9000005    1    3    3    0    0  0.18025925190E+02 -0.39887728690E+02  0.50732401345E+02  0.67012994451E+02  0.10000000000E+01 0.  0.
    9000005    1    3    3    0    0 -0.64521609158E+01  0.63664350864E+02 -0.14823250057E+02  0.65692531491E+02  0.10000000000E+01 0.  0.
         21    1    1    2  502  501 -0.11573764274E+02 -0.23776622174E+02 -0.10584147984E+02  0.28483398148E+02  0.00000000000E+00 0.  1.
<mgrwt>
<rscale>  1 0.12775480E+03</rscale>
<asrwt>0</asrwt>
<pdfrwt beam="1">  1        4 0.14347225E-01 0.12775480E+03</pdfrwt>
<pdfrwt beam="2">  1       -4 0.10451071E-01 0.12775480E+03</pdfrwt>
<totfact> 0.46173104E+03</totfact>
</mgrwt>
</event>
<event>
 6    4  0.2271823E-003  0.1591097E+03  0.7818608E-02  0.1189706E+00
         -4   -1    0    0    0  501 -0.00000000000E+00  0.00000000000E+00  0.64121850722E+02  0.64134426325E+02  0.12700000000E+01 0. -1.
          4   -1    0    0  502    0  0.00000000000E+00 -0.00000000000E+00 -0.26260859690E+03  0.26261166781E+03  0.12700000000E+01 0. -1.
         25    2    1    2    0    0  0.32454488949E+01  0.98375795321E+02 -0.14199943429E+03  0.21325976699E+03  0.12501023492E+03 0.  0.
    9000005    1    3    3    0    0  0.16154445693E+02  0.59027644144E+01  0.19925725374E+02  0.26340904978E+02  0.10000000000E+01 0.  0.
    9000005    1    3    3    0    0 -0.12908996798E+02  0.92473030906E+02 -0.16192515966E+03  0.18691886201E+03  0.10000000000E+01 0.  0.
         21    1    1    2  502  501 -0.32454488949E+01 -0.98375795321E+02 -0.56487311893E+02  0.11348632714E+03  0.00000000000E+00 0. -1.
<mgrwt>
<rscale>  1 0.15910968E+03</rscale>
<asrwt>0</asrwt>
<pdfrwt beam="2">  1        4 0.40402526E-01 0.15910968E+03</pdfrwt>
<pdfrwt beam="1">  1       -4 0.98661038E-02 0.15910968E+03</pdfrwt>
<totfact> 0.79039075E+02</totfact>
</mgrwt>
</event>
<event>
 6    4  0.2271823E-003  0.1267685E+03  0.7818608E-02  0.1232331E+00
         -4   -1    0    0    0  501 -0.00000000000E+00  0.00000000000E+00  0.48695492970E+02  0.48712051236E+02  0.12700000000E+01 0.  1.
          4   -1    0    0  502    0  0.00000000000E+00 -0.00000000000E+00 -0.12338941222E+03  0.12339594786E+03  0.12700000000E+01 0.  1.
         25    2    1    2    0    0  0.31082194143E+01  0.20854334792E+02 -0.80587413037E+02  0.15021513321E+03  0.12500276317E+03 0.  0.
    9000005    1    3    3    0    0  0.22278670675E+02  0.69029994092E+02 -0.32495220389E+02  0.79488480923E+02  0.10000000000E+01 0.  0.
    9000005    1    3    3    0    0 -0.19170451260E+02 -0.48175659300E+02 -0.48092192648E+02  0.70726652290E+02  0.10000000000E+01 0.  0.
         21    1    1    2  502  501 -0.31082194143E+01 -0.20854334792E+02  0.58934937860E+01  0.21892865882E+02  0.00000000000E+00 0.  1.
<mgrwt>
<rscale>  1 0.12676851E+03</rscale>
<asrwt>0</asrwt>
<pdfrwt beam="2">  1        4 0.18984763E-01 0.12676851E+03</pdfrwt>
<pdfrwt beam="1">  1       -4 0.74933908E-02 0.12676851E+03</pdfrwt>
<totfact> 0.49008334E+03</totfact>
</mgrwt>
</event>
<event>
 6    4  0.2271823E-003  0.1267984E+03  0.7818608E-02  0.1232285E+00
          4   -1    0    0  502    0  0.00000000000E+00  0.00000000000E+00  0.33247158432E+03  0.33247400994E+03  0.12700000000E+01 0. -1.
         -4   -1    0    0    0  501 -0.00000000000E+00 -0.00000000000E+00 -0.13344083493E+03  0.13344687829E+03  0.12700000000E+01 0. -1.
         25    2    1    2    0    0  0.18060818510E+02 -0.11225865219E+02  0.31942050984E+03  0.34366743169E+03  0.12500251310E+03 0.  0.
    9000005    1    3    3    0    0 -0.57441389427E+01 -0.87181184533E+01  0.31953750512E+03  0.31970958369E+03  0.10000000000E+01 0.  0.
    9000005    1    3    3    0    0  0.23804957453E+02 -0.25077467659E+01 -0.11699527741E+00  0.23957848005E+02  0.10000000000E+01 0.  0.
         21    1    1    2  502  501 -0.18060818510E+02  0.11225865219E+02 -0.12038976045E+03  0.12225345654E+03  0.00000000000E+00 0. -1.
<mgrwt>
<rscale>  1 0.12679843E+03</rscale>
<asrwt>0</asrwt>
<pdfrwt beam="1">  1        4 0.51150126E-01 0.12679843E+03</pdfrwt>
<pdfrwt beam="2">  1       -4 0.20530011E-01 0.12679843E+03</pdfrwt>
<totfact> 0.13182627E+02</totfact>
</mgrwt>
</event>
<event>
 6    4  0.2271823E-003  0.1280740E+03  0.7818608E-02  0.1230342E+00
         -4   -1    0    0    0  501 -0.00000000000E+00  0.00000000000E+00  0.13578571986E+04  0.13578577926E+04  0.12700000000E+01 0. -1.
          4   -1    0    0  502    0  0.00000000000E+00 -0.00000000000E+00 -0.58514145184E+01  0.59876499452E+01  0.12700000000E+01 0. -1.
         25    2    1    2    0    0 -0.20332460350E+02  0.19034363373E+02  0.72528729716E+03  0.73650838968E+03  0.12500891457E+03 0.  0.
    9000005    1    3    3    0    0  0.25323939916E+02 -0.43660135163E+02  0.27850168015E+03  0.28304009465E+03  0.10000000000E+01 0.  0.
    9000005    1    3    3    0    0 -0.45656400265E+02  0.62694498536E+02  0.44678561701E+03  0.45346829503E+03  0.10000000000E+01 0.  0.
         21    1    1    2  502  501  0.20332460350E+02 -0.19034363373E+02  0.62671848697E+03  0.62733705282E+03  0.00000000000E+00 0. -1.
<mgrwt>
<rscale>  1 0.12807398E+03</rscale>
<asrwt>0</asrwt>
<pdfrwt beam="2">  1        4 0.91074237E-03 0.12807398E+03</pdfrwt>
<pdfrwt beam="1">  1       -4 0.20891177E+00 0.12807398E+03</pdfrwt>
<totfact> 0.71670800E+02</totfact>
</mgrwt>
</event>
<event>
 6    4  0.2271823E-003  0.1281158E+03  0.7818608E-02  0.1230279E+00
          4   -1    0    0  502    0  0.00000000000E+00  0.00000000000E+00  0.12243226974E+02  0.12308919803E+02  0.12700000000E+01 0. -1.
         -4   -1    0    0    0  501 -0.00000000000E+00 -0.00000000000E+00 -0.52431720838E+03  0.52431874647E+03  0.12700000000E+01 0. -1.
         25    2    1    2    0    0  0.64808871586E+00  0.28063786939E+02 -0.36328434037E+03  0.38521315761E+03  0.12500267468E+03 0.  0.
    9000005    1    3    3    0    0  0.50350861844E-01  0.58779418152E+02 -0.34386698923E+03  0.34885602878E+03  0.10000000000E+01 0.  0.
    9000005    1    3    3    0    0  0.59773785402E+00 -0.30715631213E+02 -0.19417351145E+02  0.36357128831E+02  0.10000000000E+01 0.  0.
         21    1    1    2  502  501 -0.64808871586E+00 -0.28063786939E+02 -0.14878964103E+03  0.15141450866E+03  0.00000000000E+00 0. -1.
<mgrwt>
<rscale>  1 0.12811583E+03</rscale>
<asrwt>0</asrwt>
<pdfrwt beam="1">  1        4 0.18887454E-02 0.12811583E+03</pdfrwt>
<pdfrwt beam="2">  1       -4 0.80669340E-01 0.12811583E+03</pdfrwt>
<totfact> 0.25155815E+03</totfact>
</mgrwt>
</event>
<event>
 6    4  0.2271823E-003  0.1268071E+03  0.7818608E-02  0.1232272E+00
          4   -1    0    0  502    0  0.00000000000E+00  0.00000000000E+00  0.45560113856E+02  0.45577811209E+02  0.12700000000E+01 0. -1.
         -4   -1    0    0    0  501 -0.00000000000E+00 -0.00000000000E+00 -0.14494280000E+03  0.14494836382E+03  0.12700000000E+01 0. -1.
         25    2    1    2    0    0 -0.17856808324E+02  0.11663925602E+02 -0.49232577811E+02  0.13602896289E+03  0.12500047705E+03 0.  0.
    9000005    1    3    3    0    0 -0.53564562475E+01 -0.29286937830E+02 -0.78629068028E+02  0.84082975030E+02  0.10000000000E+01 0.  0.
    9000005    1    3    3    0    0 -0.12500352076E+02  0.40950863432E+02  0.29396490217E+02  0.51945987862E+02  0.10000000000E+01 0.  0.
         21    1    1    2  502  501  0.17856808324E+02 -0.11663925602E+02 -0.50150108337E+02  0.54497212132E+02  0.00000000000E+00 0. -1.
<mgrwt>
<rscale>  1 0.12680707E+03</rscale>
<asrwt>0</asrwt>
<pdfrwt beam="1">  1        4 0.70110377E-02 0.12680707E+03</pdfrwt>
<pdfrwt beam="2">  1       -4 0.22300681E-01 0.12680707E+03</pdfrwt>
<totfact> 0.40905419E+03</totfact>
</mgrwt>
</event>
<event>
 6    4  0.2271823E-003  0.1295266E+03  0.7818608E-02  0.1228160E+00
          4   -1    0    0  502    0  0.00000000000E+00  0.00000000000E+00  0.23909896076E+03  0.23910233361E+03  0.12700000000E+01 0. -1.
         -4   -1    0    0    0  501 -0.00000000000E+00 -0.00000000000E+00 -0.28011760466E+02  0.28040535380E+02  0.12700000000E+01 0. -1.
         25    2    1    2    0    0  0.24394318341E+02 -0.23602940529E+02  0.17316490231E+03  0.21624805340E+03  0.12499982256E+03 0.  0.
    9000005    1    3    3    0    0  0.79012516110E+01 -0.55001883285E+02  0.20059044770E+02  0.59084703765E+02  0.10000000000E+01 0.  0.
    9000005    1    3    3    0    0  0.16493066730E+02  0.31398942756E+02  0.15310585754E+03  0.15716334964E+03  0.10000000000E+01 0.  0.
         21    1    1    2  502  501 -0.24394318341E+02  0.23602940529E+02  0.37922297981E+02  0.50894815582E+02  0.00000000000E+00 0. -1.
<mgrwt>
<rscale>  1 0.12952659E+03</rscale>
<asrwt>0</asrwt>
<pdfrwt beam="1">  1        4 0.36786927E-01 0.12952659E+03</pdfrwt>
<pdfrwt beam="2">  1       -4 0.43119747E-02 0.12952659E+03</pdfrwt>
<totfact> 0.35230795E+03</totfact>
</mgrwt>
</event>
<event>
 6    4  0.2271823E-003  0.1379260E+03  0.7818608E-02  0.1216147E+00
          4   -1    0    0  502    0  0.00000000000E+00  0.00000000000E+00  0.44621287139E+03  0.44621467871E+03  0.12700000000E+01 0.  1.
         -4   -1    0    0    0  501 -0.00000000000E+00 -0.00000000000E+00 -0.22060873422E+02  0.22097398855E+02  0.12700000000E+01 0.  1.
         25    2    1    2    0    0 -0.41332794272E+02  0.41109391700E+02  0.32872007428E+03  0.35648348540E+03  0.12500082461E+03 0.  0.
    9000005    1    3    3    0    0 -0.16658840814E+02 -0.35317039273E+02  0.20699687064E+03  0.21065021883E+03  0.10000000000E+01 0.  0.
    9000005    1    3    3    0    0 -0.24673953459E+02  0.76426430973E+02  0.12172320365E+03  0.14583326657E+03  0.10000000000E+01 0.  0.
         21    1    1    2  502  501  0.41332794272E+02 -0.41109391700E+02  0.95431923685E+02  0.11182859217E+03  0.00000000000E+00 0.  1.
<mgrwt>
<rscale>  1 0.13792602E+03</rscale>
<asrwt>0</asrwt>
<pdfrwt beam="1">  1        4 0.68651077E-01 0.13792602E+03</pdfrwt>
<pdfrwt beam="2">  1       -4 0.33969295E-02 0.13792602E+03</pdfrwt>
<totfact> 0.14597579E+03</totfact>
</mgrwt>
</event>
<event>
 6    4  0.2271823E-003  0.1363153E+03  0.7818608E-02  0.1218375E+00
         -4   -1    0    0    0  501 -0.00000000000E+00  0.00000000000E+00  0.13968899144E+02  0.14026512157E+02  0.12700000000E+01 0. -1.
          4   -1    0    0  502    0  0.00000000000E+00 -0.00000000000E+00 -0.77509025318E+03  0.77509129364E+03  0.12700000000E+01 0. -1.
         25    2    1    2    0    0  0.40818412010E+02  0.35924861703E+02 -0.66364957395E+03  0.67750469563E+03  0.12500046861E+03 0.  0.
    9000005    1    3    3    0    0 -0.32328352457E+02 -0.24411258398E+02 -0.16361807280E+03  0.16856128161E+03  0.10000000000E+01 0.  0.
    9000005    1    3    3    0    0  0.73146764467E+02  0.60336120101E+02 -0.50003150115E+03  0.50894341403E+03  0.10000000000E+01 0.  0.
         21    1    1    2  502  501 -0.40818412010E+02 -0.35924861703E+02 -0.97471780090E+02  0.11161311017E+03  0.00000000000E+00 0. -1.
<mgrwt>
<rscale>  1 0.13631528E+03</rscale>
<asrwt>0</asrwt>
<pdfrwt beam="2">  1        4 0.11924913E+00 0.13631528E+03</pdfrwt>
<pdfrwt beam="1">  1       -4 0.21535738E-02 0.13631528E+03</pdfrwt>
<totfact> 0.84758846E+02</totfact>
</mgrwt>
</event>
<event>
 6    4  0.2271823E-003  0.1285929E+03  0.7818608E-02  0.1229559E+00
         -4   -1    0    0    0  501 -0.00000000000E+00  0.00000000000E+00  0.11009100548E+03  0.11009833054E+03  0.12700000000E+01 0. -1.
          4   -1    0    0  502    0  0.00000000000E+00 -0.00000000000E+00 -0.15091079186E+03  0.15091613565E+03  0.12700000000E+01 0. -1.
         25    2    1    2    0    0 -0.12711604282E+02  0.27375946267E+02 -0.12024097447E+03  0.17605122451E+03  0.12500045758E+03 0.  0.
    9000005    1    3    3    0    0 -0.50012522813E+02  0.54969705090E+00 -0.29891707552E+01  0.50114765756E+02  0.10000000000E+01 0.  0.
    9000005    1    3    3    0    0  0.37300918532E+02  0.26826249216E+02 -0.11725180371E+03  0.12593645876E+03  0.10000000000E+01 0.  0.
         21    1    1    2  502  501  0.12711604282E+02 -0.27375946267E+02  0.79421188092E+02  0.84963241671E+02  0.00000000000E+00 0.  1.
<mgrwt>
<rscale>  1 0.12859293E+03</rscale>
<asrwt>0</asrwt>
<pdfrwt beam="2">  1        4 0.23218019E-01 0.12859293E+03</pdfrwt>
<pdfrwt beam="1">  1       -4 0.16938052E-01 0.12859293E+03</pdfrwt>
<totfact> 0.85341792E+02</totfact>
</mgrwt>
</event>
<event>
 6    4  0.2271823E-003  0.1426934E+03  0.7818608E-02  0.1209750E+00
          4   -1    0    0  502    0  0.00000000000E+00  0.00000000000E+00  0.78944378405E+02  0.78954593164E+02  0.12700000000E+01 0. -1.
         -4   -1    0    0    0  501 -0.00000000000E+00 -0.00000000000E+00 -0.88796745199E+03  0.88796836018E+03  0.12700000000E+01 0. -1.
         25    2    1    2    0    0 -0.40729883617E+02 -0.55469959705E+02  0.11836742407E+02  0.14318350586E+03  0.12500227210E+03 0.  0.
    9000005    1    3    3    0    0 -0.83213859525E+02 -0.42795108320E+02 -0.93348845521E+01  0.94043116615E+02  0.10000000000E+01 0.  0.
    9000005    1    3    3    0    0  0.42483975908E+02 -0.12674851386E+02  0.21171626960E+02  0.49140389241E+02  0.10000000000E+01 0.  0.
         21    1    1    2  502  501  0.40729883617E+02  0.55469959705E+02 -0.82085981599E+03  0.82373944749E+03  0.00000000000E+00 0. -1.
<mgrwt>
<rscale>  1 0.14269341E+03</rscale>
<asrwt>0</asrwt>
<pdfrwt beam="1">  1        4 0.12146145E-01 0.14269341E+03</pdfrwt>
<pdfrwt beam="2">  1       -4 0.13661123E+00 0.14269341E+03</pdfrwt>
<totfact> 0.37378563E+01</totfact>
</mgrwt>
</event>
<event>
 6    4  0.2271823E-003  0.1276844E+03  0.7818608E-02  0.1230933E+00
         -4   -1    0    0    0  501 -0.00000000000E+00  0.00000000000E+00  0.24752269769E+02  0.24784829205E+02  0.12700000000E+01 0.  1.
          4   -1    0    0  502    0  0.00000000000E+00 -0.00000000000E+00 -0.65010625623E+03  0.65010749672E+03  0.12700000000E+01 0.  1.
         25    2    1    2    0    0  0.19535140971E+02  0.17230451668E+02 -0.63454969431E+03  0.64726858179E+03  0.12499916887E+03 0.  0.
    9000005    1    3    3    0    0 -0.23846977837E+02 -0.26738887521E+02 -0.63743468549E+02  0.73129175029E+02  0.10000000000E+01 0.  0.
    9000005    1    3    3    0    0  0.43382118808E+02  0.43969339189E+02 -0.57080622576E+03  0.57413940676E+03  0.10000000000E+01 0.  0.
         21    1    1    2  502  501 -0.19535140971E+02 -0.17230451668E+02  0.91957078495E+01  0.27623744140E+02  0.00000000000E+00 0.  1.
<mgrwt>
<rscale>  1 0.12768439E+03</rscale>
<asrwt>0</asrwt>
<pdfrwt beam="2">  1        4 0.10001893E+00 0.12768439E+03</pdfrwt>
<pdfrwt beam="1">  1       -4 0.38106420E-02 0.12768439E+03</pdfrwt>
<totfact> 0.51860335E+02</totfact>
</mgrwt>
</event>
<event>
 6    4  0.2271823E-003  0.1287113E+03  0.7818608E-02  0.1229381E+00
         -4   -1    0    0    0  501 -0.00000000000E+00  0.00000000000E+00  0.17198171495E+02  0.17244999356E+02  0.12700000000E+01 0. -1.
          4   -1    0    0  502    0  0.00000000000E+00 -0.00000000000E+00 -0.37564577830E+03  0.37564792513E+03  0.12700000000E+01 0. -1.
         25    2    1    2    0    0  0.29609839666E+02  0.79703259212E+01 -0.30864298980E+03  0.33440558761E+03  0.12500533256E+03 0.  0.
    9000005    1    3    3    0    0 -0.40753396866E+02  0.25764383115E+02 -0.70269382840E+02  0.85225752905E+02  0.10000000000E+01 0.  0.
    9000005    1    3    3    0    0  0.70363236533E+02 -0.17794057194E+02 -0.23837360696E+03  0.24917983470E+03  0.10000000000E+01 0.  0.
         21    1    1    2  502  501 -0.29609839666E+02 -0.79703259212E+01 -0.49804617005E+02  0.58487336880E+02  0.00000000000E+00 0. -1.
<mgrwt>
<rscale>  1 0.12871131E+03</rscale>
<asrwt>0</asrwt>
<pdfrwt beam="2">  1        4 0.57795419E-01 0.12871131E+03</pdfrwt>
<pdfrwt beam="1">  1       -4 0.26496401E-02 0.12871131E+03</pdfrwt>
<totfact> 0.30528847E+03</totfact>
</mgrwt>
</event>
<event>
 6    4  0.2271823E-003  0.1301388E+03  0.7818608E-02  0.1227250E+00
          4   -1    0    0  502    0  0.00000000000E+00  0.00000000000E+00  0.98314260074E+01  0.99131144117E+01  0.12700000000E+01 0.  1.
         -4   -1    0    0    0  501 -0.00000000000E+00 -0.00000000000E+00 -0.82711010026E+03  0.82711107528E+03  0.12700000000E+01 0.  1.
         25    2    1    2    0    0  0.22863769931E+02 -0.28082915928E+02 -0.46432432543E+03  0.48221695401E+03  0.12499883761E+03 0.  0.
    9000005    1    3    3    0    0 -0.23181962095E+02  0.11718722876E+02 -0.17665471649E+02  0.31429297177E+02  0.10000000000E+01 0.  0.
    9000005    1    3    3    0    0  0.46045732026E+02 -0.39801638804E+02 -0.44665885378E+03  0.45078765683E+03  0.10000000000E+01 0.  0.
         21    1    1    2  502  501 -0.22863769931E+02  0.28082915928E+02 -0.35295434882E+03  0.35480723568E+03  0.00000000000E+00 0. -1.
<mgrwt>
<rscale>  1 0.13013882E+03</rscale>
<asrwt>0</asrwt>
<pdfrwt beam="1">  1        4 0.15188864E-02 0.13013882E+03</pdfrwt>
<pdfrwt beam="2">  1       -4 0.12725401E+00 0.13013882E+03</pdfrwt>
<totfact> 0.12256578E+03</totfact>
</mgrwt>
</event>
<event>
 6    4  0.2271823E-003  0.1474222E+03  0.7818608E-02  0.1203677E+00
          4   -1    0    0  502    0  0.00000000000E+00  0.00000000000E+00  0.17830855806E+02  0.17876026370E+02  0.12700000000E+01 0.  1.
         -4   -1    0    0    0  501 -0.00000000000E+00 -0.00000000000E+00 -0.83771521053E+03  0.83771617320E+03  0.12700000000E+01 0.  1.
         25    2    1    2    0    0  0.27756290622E+02 -0.73067294753E+02 -0.35840198076E+03  0.38753747766E+03  0.12499630213E+03 0.  0.
    9000005    1    3    3    0    0  0.65240758715E+02 -0.24937231450E+01 -0.19495005765E+03  0.20559450437E+03  0.10000000000E+01 0.  0.
    9000005    1    3    3    0    0 -0.37484468093E+02 -0.70573571608E+02 -0.16345192312E+03  0.18194297329E+03  0.10000000000E+01 0.  0.
         21    1    1    2  502  501 -0.27756290622E+02  0.73067294753E+02 -0.46148237396E+03  0.46805472192E+03  0.00000000000E+00 0.  1.
<mgrwt>
<rscale>  1 0.14742224E+03</rscale>
<asrwt>0</asrwt>
<pdfrwt beam="1">  1        4 0.27467580E-02 0.14742224E+03</pdfrwt>
<pdfrwt beam="2">  1       -4 0.12888278E+00 0.14742224E+03</pdfrwt>
<totfact> 0.48817985E+02</totfact>
</mgrwt>
</event>
<event>
 6    4  0.2271823E-003  0.1333067E+03  0.7818608E-02  0.1222630E+00
          4   -1    0    0  502    0  0.00000000000E+00  0.00000000000E+00  0.42710278943E+03  0.42710467761E+03  0.12700000000E+01 0. -1.
         -4   -1    0    0    0  501 -0.00000000000E+00 -0.00000000000E+00 -0.41064369516E+02  0.41084003502E+02  0.12700000000E+01 0. -1.
         25    2    1    2    0    0 -0.29975309510E+02 -0.35300026461E+02  0.39852117306E+03  0.42022588121E+03  0.12500421916E+03 0.  0.
    9000005    1    3    3    0    0  0.29658717342E+02 -0.17082713330E+02  0.27270215098E+02  0.43773544985E+02  0.10000000000E+01 0.  0.
    9000005    1    3    3    0    0 -0.59634026851E+02 -0.18217313130E+02  0.37125095797E+03  0.37645233622E+03  0.10000000000E+01 0.  0.
         21    1    1    2  502  501  0.29975309510E+02  0.35300026461E+02 -0.12482753154E+02  0.47962799904E+02  0.00000000000E+00 0. -1.
<mgrwt>
<rscale>  1 0.13330666E+03</rscale>
<asrwt>0</asrwt>
<pdfrwt beam="1">  1        4 0.65709779E-01 0.13330666E+03</pdfrwt>
<pdfrwt beam="2">  1       -4 0.63192507E-02 0.13330666E+03</pdfrwt>
<totfact> 0.58919675E+02</totfact>
</mgrwt>
</event>
<event>
 6    4  0.2271823E-003  0.1273533E+03  0.7818608E-02  0.1231437E+00
          4   -1    0    0  502    0  0.00000000000E+00  0.00000000000E+00  0.11350895172E+03  0.11351605622E+03  0.12700000000E+01 0. -1.
         -4   -1    0    0    0  501 -0.00000000000E+00 -0.00000000000E+00 -0.50880853975E+02  0.50896701280E+02  0.12700000000E+01 0. -1.
         25    2    1    2    0    0  0.24298470236E+02  0.22426672363E+01  0.56036407414E+02  0.13913637339E+03  0.12499362477E+03 0.  0.
    9000005    1    3    3    0    0  0.10241498175E+02 -0.49350815198E+02 -0.12754266652E+02  0.52000601568E+02  0.10000000000E+01 0.  0.
    9000005    1    3    3    0    0  0.14056972061E+02  0.51593482434E+02  0.68790674067E+02  0.87135771826E+02  0.10000000000E+01 0.  0.
         21    1    1    2  502  501 -0.24298470236E+02 -0.22426672363E+01  0.65916903283E+01  0.25276384108E+02  0.00000000000E+00 0.  1.
<mgrwt>
<rscale>  1 0.12735325E+03</rscale>
<asrwt>0</asrwt>
<pdfrwt beam="1">  1        4 0.17464681E-01 0.12735325E+03</pdfrwt>
<pdfrwt beam="2">  1       -4 0.78295893E-02 0.12735325E+03</pdfrwt>
<totfact> 0.52939612E+03</totfact>
</mgrwt>
</event>
<event>
 6    4  0.2271823E-003  0.1277091E+03  0.7818608E-02  0.1230895E+00
         -4   -1    0    0    0  501 -0.00000000000E+00  0.00000000000E+00  0.68543053060E+02  0.68554817648E+02  0.12700000000E+01 0. -1.
          4   -1    0    0  502    0  0.00000000000E+00 -0.00000000000E+00 -0.87030264128E+02  0.87039529952E+02  0.12700000000E+01 0. -1.
         25    2    1    2    0    0  0.25476033255E+02  0.60630218460E+01 -0.10150433388E+02  0.12811180102E+03  0.12499525495E+03 0.  0.
    9000005    1    3    3    0    0  0.41790516995E+02 -0.37936769845E+02  0.32117533103E+02  0.64947530743E+02  0.10000000000E+01 0.  0.
    9000005    1    3    3    0    0 -0.16314483740E+02  0.43999791691E+02 -0.42267966491E+02  0.63164270279E+02  0.10000000000E+01 0.  0.
         21    1    1    2  502  501 -0.25476033255E+02 -0.60630218460E+01 -0.83367776801E+01  0.27482546578E+02  0.00000000000E+00 0. -1.
<mgrwt>
<rscale>  1 0.12770905E+03</rscale>
<asrwt>0</asrwt>
<pdfrwt beam="2">  1        4 0.13390889E-01 0.12770905E+03</pdfrwt>
<pdfrwt beam="1">  1       -4 0.10546703E-01 0.12770905E+03</pdfrwt>
<totfact> 0.51229717E+03</totfact>
</mgrwt>
</event>
<event>
 6    4  0.2271823E-003  0.1307133E+03  0.7818608E-02  0.1226401E+00
          4   -1    0    0  502    0  0.00000000000E+00  0.00000000000E+00  0.13626773414E+02  0.13685826744E+02  0.12700000000E+01 0. -1.
         -4   -1    0    0    0  501 -0.00000000000E+00 -0.00000000000E+00 -0.60716987341E+03  0.60717120162E+03  0.12700000000E+01 0. -1.
         25    2    1    2    0    0 -0.80411119066E+01 -0.37351159920E+02 -0.53654790610E+03  0.55224055253E+03  0.12500481469E+03 0.  0.
    9000005    1    3    3    0    0 -0.71767735161E+01 -0.86613005917E+01 -0.51784327020E+03  0.51796638568E+03  0.10000000000E+01 0.  0.
    9000005    1    3    3    0    0 -0.86433839050E+00 -0.28689859329E+02 -0.18704635899E+02  0.34274166850E+02  0.10000000000E+01 0.  0.
         21    1    1    2  502  501  0.80411119066E+01  0.37351159920E+02 -0.56995193895E+02  0.68616475830E+02  0.00000000000E+00 0. -1.
<mgrwt>
<rscale>  1 0.13071332E+03</rscale>
<asrwt>0</asrwt>
<pdfrwt beam="1">  1        4 0.21010719E-02 0.13071332E+03</pdfrwt>
<pdfrwt beam="2">  1       -4 0.93415374E-01 0.13071332E+03</pdfrwt>
<totfact> 0.15438799E+03</totfact>
</mgrwt>
</event>
<event>
 6    4  0.2271823E-003  0.1284833E+03  0.7818608E-02  0.1229724E+00
          4   -1    0    0  502    0  0.00000000000E+00  0.00000000000E+00  0.14534355343E+03  0.14534910190E+03  0.12700000000E+01 0.  1.
         -4   -1    0    0    0  501 -0.00000000000E+00 -0.00000000000E+00 -0.45937152711E+02  0.45954704865E+02  0.12700000000E+01 0.  1.
         25    2    1    2    0    0  0.19903240293E+01  0.29580397743E+02  0.98055803540E+02  0.16162577730E+03  0.12501595882E+03 0.  0.
    9000005    1    3    3    0    0 -0.39623611515E+02  0.32851969898E+02  0.10716523850E+03  0.11888932189E+03  0.10000000000E+01 0.  0.
    9000005    1    3    3    0    0  0.41613935545E+02 -0.32715721552E+01 -0.91094349611E+01  0.42736455412E+02  0.10000000000E+01 0.  0.
         21    1    1    2  502  501 -0.19903240293E+01 -0.29580397743E+02  0.13505971794E+01  0.29678029468E+02  0.00000000000E+00 0. -1.
<mgrwt>
<rscale>  1 0.12848327E+03</rscale>
<asrwt>0</asrwt>
<pdfrwt beam="1">  1        4 0.22362324E-01 0.12848327E+03</pdfrwt>
<pdfrwt beam="2">  1       -4 0.70690312E-02 0.12848327E+03</pdfrwt>
<totfact> 0.40285200E+03</totfact>
</mgrwt>
</event>
<event>
 6    4  0.2271823E-003  0.1364360E+03  0.7818608E-02  0.1218207E+00
         -4   -1    0    0    0  501 -0.00000000000E+00  0.00000000000E+00  0.35591261140E+02  0.35613912584E+02  0.12700000000E+01 0. -1.
          4   -1    0    0  502    0  0.00000000000E+00 -0.00000000000E+00 -0.32632753106E+03  0.32633000234E+03  0.12700000000E+01 0. -1.
         25    2    1    2    0    0  0.54240061616E+02  0.74584557835E+01 -0.27160457235E+03  0.30394706416E+03  0.12496864103E+03 0.  0.
    9000005    1    3    3    0    0  0.23656470158E+02  0.62702539524E+02 -0.93994732290E+02  0.11544369511E+03  0.10000000000E+01 0.  0.
    9000005    1    3    3    0    0  0.30583591458E+02 -0.55244083741E+02 -0.17760984006E+03  0.18850336905E+03  0.10000000000E+01 0.  0.
         21    1    1    2  502  501 -0.54240061616E+02 -0.74584557835E+01 -0.19131697567E+02  0.57996850764E+02  0.00000000000E+00 0. -1.
<mgrwt>
<rscale>  1 0.13643597E+03</rscale>
<asrwt>0</asrwt>
<pdfrwt beam="2">  1        4 0.50206166E-01 0.13643597E+03</pdfrwt>
<pdfrwt beam="1">  1       -4 0.54775114E-02 0.13643597E+03</pdfrwt>
<totfact> 0.13082556E+03</totfact>
</mgrwt>
</event>
<event>
 6    4  0.2271823E-003  0.1289406E+03  0.7818608E-02  0.1229036E+00
          4   -1    0    0  502    0  0.00000000000E+00  0.00000000000E+00  0.93532784991E+03  0.93532871212E+03  0.12700000000E+01 0. -1.
         -4   -1    0    0    0  501 -0.00000000000E+00 -0.00000000000E+00 -0.68868366644E+01  0.70029578924E+01  0.12700000000E+01 0. -1.
         25    2    1    2    0    0  0.78568712913E+01 -0.30646007748E+02  0.77638432846E+03  0.78701861967E+03  0.12499909607E+03 0.  0.
    9000005    1    3    3    0    0 -0.75233652042E+01  0.43871050957E+02  0.16441821738E+03  0.17033972039E+03  0.10000000000E+01 0.  0.
    9000005    1    3    3    0    0  0.15380236495E+02 -0.74517058705E+02  0.61196611108E+03  0.61667889928E+03  0.10000000000E+01 0.  0.
         21    1    1    2  502  501 -0.78568712913E+01  0.30646007748E+02  0.15205668478E+03  0.15531305034E+03  0.00000000000E+00 0.  1.
<mgrwt>
<rscale>  1 0.12894062E+03</rscale>
<asrwt>0</asrwt>
<pdfrwt beam="1">  1        4 0.14390550E+00 0.12894062E+03</pdfrwt>
<pdfrwt beam="2">  1       -4 0.10685127E-02 0.12894062E+03</pdfrwt>
<totfact> 0.15380707E+03</totfact>
</mgrwt>
</event>
<event>
 6    4  0.2271823E-003  0.1297029E+03  0.7818608E-02  0.1227897E+00
         -4   -1    0    0    0  501 -0.00000000000E+00  0.00000000000E+00  0.36941308588E+02  0.36963132716E+02  0.12700000000E+01 0.  1.
          4   -1    0    0  502    0  0.00000000000E+00 -0.00000000000E+00 -0.20986265321E+03  0.20986649592E+03  0.12700000000E+01 0.  1.
         25    2    1    2    0    0 -0.62461066791E+01 -0.34059484909E+02 -0.16739516618E+03  0.21176396154E+03  0.12499508544E+03 0.  0.
    9000005    1    3    3    0    0  0.24377259719E+02  0.28901770340E+02 -0.94378249386E+01  0.38982504535E+02  0.10000000000E+01 0.  0.
    9000005    1    3    3    0    0 -0.30623366398E+02 -0.62961255249E+02 -0.15795734125E+03  0.17278145701E+03  0.10000000000E+01 0.  0.
         21    1    1    2  502  501  0.62461066791E+01  0.34059484909E+02 -0.55261784352E+01  0.35065667098E+02  0.00000000000E+00 0. -1.
<mgrwt>
<rscale>  1 0.12970287E+03</rscale>
<asrwt>0</asrwt>
<pdfrwt beam="2">  1        4 0.32288536E-01 0.12970287E+03</pdfrwt>
<pdfrwt beam="1">  1       -4 0.56852528E-02 0.12970287E+03</pdfrwt>
<totfact> 0.29059518E+03</totfact>
</mgrwt>
</event>
<event>
 6    4  0.2271823E-003  0.1329288E+03  0.7818608E-02  0.1223174E+00
          4   -1    0    0  502    0  0.00000000000E+00  0.00000000000E+00  0.82634991497E+03  0.82635089089E+03  0.12700000000E+01 0. -1.
         -4   -1    0    0    0  501 -0.00000000000E+00 -0.00000000000E+00 -0.12050016800E+02  0.12116757193E+02  0.12700000000E+01 0. -1.
         25    2    1    2    0    0  0.47455807670E+01 -0.44970929034E+02  0.73716754653E+03  0.74905677254E+03  0.12500060736E+03 0.  0.
    9000005    1    3    3    0    0  0.53449945202E+02 -0.51642691344E+01  0.52552075179E+03  0.52825810631E+03  0.10000000000E+01 0.  0.
    9000005    1    3    3    0    0 -0.48704364435E+02 -0.39806659900E+02  0.21164679474E+03  0.22079866624E+03  0.10000000000E+01 0.  0.
         21    1    1    2  502  501 -0.47455807670E+01  0.44970929034E+02  0.77132351643E+02  0.89410875541E+02  0.00000000000E+00 0. -1.
<mgrwt>
<rscale>  1 0.13292877E+03</rscale>
<asrwt>0</asrwt>
<pdfrwt beam="1">  1        4 0.12713595E+00 0.13292877E+03</pdfrwt>
<pdfrwt beam="2">  1       -4 0.18590580E-02 0.13292877E+03</pdfrwt>
<totfact> 0.90579608E+02</totfact>
</mgrwt>
</event>
<event>
 6    4  0.2271823E-003  0.1274587E+03  0.7818608E-02  0.1231276E+00
          4   -1    0    0  502    0  0.00000000000E+00  0.00000000000E+00  0.11990204412E+04  0.11990211138E+04  0.12700000000E+01 0.  1.
         -4   -1    0    0    0  501 -0.00000000000E+00 -0.00000000000E+00 -0.47571685566E+01  0.49237742308E+01  0.12700000000E+01 0.  1.
         25    2    1    2    0    0  0.24214531347E+01 -0.24794426278E+02  0.10026430176E+04  0.10107119997E+04  0.12500039385E+03 0.  0.
    9000005    1    3    3    0    0 -0.38459125779E+02  0.22419723256E+02  0.71404814799E+03  0.71543518644E+03  0.10000000000E+01 0.  0.
    9000005    1    3    3    0    0  0.40880578914E+02 -0.47214149534E+02  0.28859486964E+03  0.29527681323E+03  0.10000000000E+01 0.  0.
         21    1    1    2  502  501 -0.24214531347E+01  0.24794426278E+02  0.19162025496E+03  0.19323288830E+03  0.00000000000E+00 0.  1.
<mgrwt>
<rscale>  1 0.12745872E+03</rscale>
<asrwt>0</asrwt>
<pdfrwt beam="1">  1        4 0.18447776E+00 0.12745872E+03</pdfrwt>
<pdfrwt beam="2">  1       -4 0.74473881E-03 0.12745872E+03</pdfrwt>
<totfact> 0.13752985E+03</totfact>
</mgrwt>
</event>
<event>
 6    4  0.2271823E-003  0.1402499E+03  0.7818608E-02  0.1212993E+00
         -4   -1    0    0    0  501 -0.00000000000E+00  0.00000000000E+00  0.48129399350E+02  0.48146152305E+02  0.12700000000E+01 0.  1.
          4   -1    0    0  502    0  0.00000000000E+00 -0.00000000000E+00 -0.27494404384E+03  0.27494697696E+03  0.12700000000E+01 0.  1.
         25    2    1    2    0    0 -0.59523467932E+02  0.22407426735E+02 -0.21752233448E+03  0.25881651585E+03  0.12499954748E+03 0.  0.
    9000005    1    3    3    0    0  0.18054350787E+02 -0.46456531916E+01  0.68394419253E+01  0.19882646749E+02  0.10000000000E+01 0.  0.
    9000005    1    3    3    0    0 -0.77577818719E+02  0.27053079926E+02 -0.22436177641E+03  0.23893386910E+03  0.10000000000E+01 0.  0.
         21    1    1    2  502  501  0.59523467932E+02 -0.22407426735E+02 -0.92923100063E+01  0.64276613421E+02  0.00000000000E+00 0.  1.
<mgrwt>
<rscale>  1 0.14024986E+03</rscale>
<asrwt>0</asrwt>
<pdfrwt beam="2">  1        4 0.42300597E-01 0.14024986E+03</pdfrwt>
<pdfrwt beam="1">  1       -4 0.74060375E-02 0.14024986E+03</pdfrwt>
<totfact> 0.11351864E+03</totfact>
</mgrwt>
</event>
<event>
 6    4  0.2271823E-003  0.1307864E+03  0.7818608E-02  0.1226294E+00
          4   -1    0    0  502    0  0.00000000000E+00  0.00000000000E+00  0.34361626271E+02  0.34385087756E+02  0.12700000000E+01 0. -1.
         -4   -1    0    0    0  501 -0.00000000000E+00 -0.00000000000E+00 -0.32957315797E+03  0.32957560491E+03  0.12700000000E+01 0. -1.
         25    2    1    2    0    0 -0.38472675538E+02 -0.41336884271E+00 -0.99048252536E+02  0.16405984293E+03  0.12499903237E+03 0.  0.
    9000005    1    3    3    0    0 -0.29217400250E+02 -0.34282288922E+02  0.12790377088E+02  0.46835088952E+02  0.10000000000E+01 0.  0.
    9000005    1    3    3    0    0 -0.92552752879E+01  0.33868920079E+02 -0.11183862962E+03  0.11722475397E+03  0.10000000000E+01 0.  0.
         21    1    1    2  502  501  0.38472675538E+02  0.41336884271E+00 -0.19616327916E+03  0.19990084974E+03  0.00000000000E+00 0. -1.
<mgrwt>
<rscale>  1 0.13078637E+03</rscale>
<asrwt>0</asrwt>
<pdfrwt beam="1">  1        4 0.52883972E-02 0.13078637E+03</pdfrwt>
<pdfrwt beam="2">  1       -4 0.50705554E-01 0.13078637E+03</pdfrwt>
<totfact> 0.13446145E+03</totfact>
</mgrwt>
</event>
<event>
 6    4  0.2271823E-003  0.1270146E+03  0.7818608E-02  0.1231954E+00
          4   -1    0    0  502    0  0.00000000000E+00  0.00000000000E+00  0.52723553490E+03  0.52723706448E+03  0.12700000000E+01 0. -1.
         -4   -1    0    0    0  501 -0.00000000000E+00 -0.00000000000E+00 -0.10584039227E+02  0.10659961836E+02  0.12700000000E+01 0. -1.
         25    2    1    2    0    0 -0.52337393102E+00  0.22517558224E+02  0.44690057192E+03  0.46459964769E+03  0.12500158841E+03 0.  0.
    9000005    1    3    3    0    0 -0.52277530413E+02  0.43794590967E+02  0.19584705894E+03  0.20738364661E+03  0.10000000000E+01 0.  0.
    9000005    1    3    3    0    0  0.51754156482E+02 -0.21277032743E+02  0.25105351297E+03  0.25721600108E+03  0.10000000000E+01 0.  0.
         21    1    1    2  502  501  0.52337393102E+00 -0.22517558224E+02  0.69750923755E+02  0.73297378625E+02  0.00000000000E+00 0. -1.
<mgrwt>
<rscale>  1 0.12701461E+03</rscale>
<asrwt>0</asrwt>
<pdfrwt beam="1">  1        4 0.81119121E-01 0.12701461E+03</pdfrwt>
<pdfrwt beam="2">  1       -4 0.16342715E-02 0.12701461E+03</pdfrwt>
<totfact> 0.30948161E+03</totfact>
</mgrwt>
</event>
<event>
 6    4  0.2271823E-003  0.1318688E+03  0.7818608E-02  0.1224709E+00
         -4   -1    0    0    0  501 -0.00000000000E+00  0.00000000000E+00  0.52469579792E+02  0.52484947400E+02  0.12700000000E+01 0. -1.
          4   -1    0    0  502    0  0.00000000000E+00 -0.00000000000E+00 -0.22831911378E+03  0.22832264587E+03  0.12700000000E+01 0. -1.
         25    2    1    2    0    0  0.37412900476E+02  0.18900083493E+02 -0.19445228714E+03  0.23494910765E+03  0.12502980818E+03 0.  0.
    9000005    1    3    3    0    0  0.36798785863E+02  0.37841807389E+02 -0.15540042932E+02  0.55033135126E+02  0.10000000000E+01 0.  0.
    9000005    1    3    3    0    0  0.61411461294E+00 -0.18941723897E+02 -0.17891224421E+03  0.17991597253E+03  0.10000000000E+01 0.  0.
         21    1    1    2  502  501 -0.37412900476E+02 -0.18900083493E+02  0.18602753157E+02  0.45858485617E+02  0.00000000000E+00 0. -1.
<mgrwt>
<rscale>  1 0.13186884E+03</rscale>
<asrwt>0</asrwt>
<pdfrwt beam="2">  1        4 0.35127471E-01 0.13186884E+03</pdfrwt>
<pdfrwt beam="1">  1       -4 0.80736970E-02 0.13186884E+03</pdfrwt>
<totfact> 0.13976771E+03</totfact>
</mgrwt>
</event>
<event>
 6    4  0.2271823E-003  0.1266452E+03  0.7818608E-02  0.1232520E+00
         -4   -1    0    0    0  501 -0.00000000000E+00  0.00000000000E+00  0.93388897707E+03  0.93388984061E+03  0.12700000000E+01 0.  1.
          4   -1    0    0  502    0  0.00000000000E+00 -0.00000000000E+00 -0.74309299110E+01  0.75386749063E+01  0.12700000000E+01 0.  1.
         25    2    1    2    0    0 -0.89728705372E+01 -0.18300295545E+02  0.54889867803E+03  0.56331941692E+03  0.12499437393E+03 0.  0.
    9000005    1    3    3    0    0  0.42504267835E+02 -0.22299554502E+02  0.44200704288E+03  0.44460669008E+03  0.10000000000E+01 0.  0.
    9000005    1    3    3    0    0 -0.51477138372E+02  0.39992589570E+01  0.10689163515E+03  0.11871272684E+03  0.10000000000E+01 0.  0.
         21    1    1    2  502  501  0.89728705372E+01  0.18300295545E+02  0.37755936913E+03  0.37810909859E+03  0.00000000000E+00 0.  1.
<mgrwt>
<rscale>  1 0.12664520E+03</rscale>
<asrwt>0</asrwt>
<pdfrwt beam="2">  1        4 0.11515741E-02 0.12664520E+03</pdfrwt>
<pdfrwt beam="1">  1       -4 0.14368363E+00 0.12664520E+03</pdfrwt>
<totfact> 0.13738142E+03</totfact>
</mgrwt>
</event>
<event>
 6    4  0.2271823E-003  0.1266463E+03  0.7818608E-02  0.1232519E+00
         -4   -1    0    0    0  501 -0.00000000000E+00  0.00000000000E+00  0.20115905283E+03  0.20116306180E+03  0.12700000000E+01 0.  1.
          4   -1    0    0  502    0  0.00000000000E+00 -0.00000000000E+00 -0.42610930606E+02  0.42629852300E+02  0.12700000000E+01 0.  1.
         25    2    1    2    0    0  0.67996627247E+01  0.19197191777E+02  0.54678860112E+02  0.13794589621E+03  0.12499809980E+03 0.  0.
    9000005    1    3    3    0    0 -0.49550544336E+02 -0.15788299091E+02  0.54334427202E-01  0.52014707386E+02  0.10000000000E+01 0.  0.
    9000005    1    3    3    0    0  0.56350207061E+02  0.34985490868E+02  0.54624525685E+02  0.85931188828E+02  0.10000000000E+01 0.  0.
         21    1    1    2  502  501 -0.67996627247E+01 -0.19197191777E+02  0.10386926211E+03  0.10584701789E+03  0.00000000000E+00 0.  1.
<mgrwt>
<rscale>  1 0.12664633E+03</rscale>
<asrwt>0</asrwt>
<pdfrwt beam="2">  1        4 0.65572916E-02 0.12664633E+03</pdfrwt>
<pdfrwt beam="1">  1       -4 0.30949311E-01 0.12664633E+03</pdfrwt>
<totfact> 0.24835464E+03</totfact>
</mgrwt>
</event>
<event>
 6    4  0.2271823E-003  0.1293790E+03  0.7818608E-02  0.1228380E+00
          4   -1    0    0  502    0  0.00000000000E+00  0.00000000000E+00  0.19788308431E+02  0.19829020414E+02  0.12700000000E+01 0.  1.
         -4   -1    0    0    0  501 -0.00000000000E+00 -0.00000000000E+00 -0.34562726882E+03  0.34562960211E+03  0.12700000000E+01 0.  1.
         25    2    1    2    0    0  0.24058533317E+02 -0.23122537273E+02 -0.22885252053E+03  0.26289237919E+03  0.12500184849E+03 0.  0.
    9000005    1    3    3    0    0  0.35419012979E+02 -0.21839289940E+02 -0.24193513305E+03  0.24548944920E+03  0.10000000000E+01 0.  0.
    9000005    1    3    3    0    0 -0.11360479662E+02 -0.12832473338E+01  0.13082612517E+02  0.17402929987E+02  0.10000000000E+01 0.  0.
         21    1    1    2  502  501 -0.24058533317E+02  0.23122537273E+02 -0.96986439854E+02  0.10256624333E+03  0.00000000000E+00 0.  1.
<mgrwt>
<rscale>  1 0.12937900E+03</rscale>
<asrwt>0</asrwt>
<pdfrwt beam="1">  1        4 0.30476666E-02 0.12937900E+03</pdfrwt>
<pdfrwt beam="2">  1       -4 0.53176733E-01 0.12937900E+03</pdfrwt>
<totfact> 0.29190065E+03</totfact>
</mgrwt>
</event>
<event>
 6    4  0.2271823E-003  0.1272823E+03  0.7818608E-02  0.1231545E+00
         -4   -1    0    0    0  501 -0.00000000000E+00  0.00000000000E+00  0.16551426476E+03  0.16551913707E+03  0.12700000000E+01 0.  1.
          4   -1    0    0  502    0  0.00000000000E+00 -0.00000000000E+00 -0.35373931970E+02  0.35396722489E+02  0.12700000000E+01 0.  1.
         25    2    1    2    0    0 -0.18204971021E+02  0.15642348655E+02  0.97167561571E+02  0.16013219025E+03  0.12499871715E+03 0.  0.
    9000005    1    3    3    0    0 -0.13529101270E+02  0.68837871175E+02  0.35767283213E+02  0.78752699239E+02  0.10000000000E+01 0.  0.
    9000005    1    3    3    0    0 -0.46758697515E+01 -0.53195522520E+02  0.61400278359E+02  0.81379491007E+02  0.10000000000E+01 0.  0.
         21    1    1    2  502  501  0.18204971021E+02 -0.15642348655E+02  0.32972771214E+02  0.40783669316E+02  0.00000000000E+00 0.  1.
<mgrwt>
<rscale>  1 0.12728230E+03</rscale>
<asrwt>0</asrwt>
<pdfrwt beam="2">  1        4 0.54442713E-02 0.12728230E+03</pdfrwt>
<pdfrwt beam="1">  1       -4 0.25465861E-01 0.12728230E+03</pdfrwt>
<totfact> 0.48433405E+03</totfact>
</mgrwt>
</event>
<event>
 6    4  0.2271823E-003  0.1297192E+03  0.7818608E-02  0.1227873E+00
         -4   -1    0    0    0  501 -0.00000000000E+00  0.00000000000E+00  0.81927095588E+01  0.82905602896E+01  0.12700000000E+01 0.  1.
          4   -1    0    0  502    0  0.00000000000E+00 -0.00000000000E+00 -0.82008859443E+03  0.82008957780E+03  0.12700000000E+01 0.  1.
         25    2    1    2    0    0 -0.54094829319E+01  0.34245438009E+02 -0.64847234872E+03  0.66131947636E+03  0.12500020090E+03 0.  0.
    9000005    1    3    3    0    0  0.52576428208E+02  0.46632842809E+02 -0.36651680498E+03  0.37319495062E+03  0.10000000000E+01 0.  0.
    9000005    1    3    3    0    0 -0.57985911140E+02 -0.12387404800E+02 -0.28195554374E+03  0.28812452574E+03  0.10000000000E+01 0.  0.
         21    1    1    2  502  501  0.54094829319E+01 -0.34245438009E+02 -0.16342353615E+03  0.16706066173E+03  0.00000000000E+00 0.  1.
<mgrwt>
<rscale>  1 0.12971917E+03</rscale>
<asrwt>0</asrwt>
<pdfrwt beam="2">  1        4 0.12617501E+00 0.12971917E+03</pdfrwt>
<pdfrwt beam="1">  1       -4 0.12680201E-02 0.12971917E+03</pdfrwt>
<totfact> 0.16450772E+03</totfact>
</mgrwt>
</event>
<event>
 6    4  0.2271823E-003  0.1267666E+03  0.7818608E-02  0.1232334E+00
         -4   -1    0    0    0  501 -0.00000000000E+00  0.00000000000E+00  0.29708228530E+03  0.29708499986E+03  0.12700000000E+01 0.  1.
          4   -1    0    0  502    0  0.00000000000E+00 -0.00000000000E+00 -0.18981070368E+02  0.19023509989E+02  0.12700000000E+01 0.  1.
         25    2    1    2    0    0 -0.11602777816E+02 -0.17614595661E+02  0.21515951620E+03  0.24972661568E+03  0.12499946694E+03 0.  0.
    9000005    1    3    3    0    0  0.19176269987E+02 -0.65111085679E+02  0.14044331141E+03  0.15598880257E+03  0.10000000000E+01 0.  0.
    9000005    1    3    3    0    0 -0.30779047803E+02  0.47496490019E+02  0.74716204788E+02  0.93737813105E+02  0.10000000000E+01 0.  0.
         21    1    1    2  502  501  0.11602777816E+02  0.17614595661E+02  0.62941698739E+02  0.66381894169E+02  0.00000000000E+00 0.  1.
<mgrwt>
<rscale>  1 0.12676658E+03</rscale>
<asrwt>0</asrwt>
<pdfrwt beam="2">  1        4 0.29236381E-02 0.12676658E+03</pdfrwt>
<pdfrwt beam="1">  1       -4 0.45708439E-01 0.12676658E+03</pdfrwt>
<totfact> 0.42142956E+03</totfact>
</mgrwt>
</event>
<event>
 6    4  0.2271823E-003  0.1271658E+03  0.7818608E-02  0.1231723E+00
         -4   -1    0    0    0  501 -0.00000000000E+00  0.00000000000E+00  0.41356764918E+02  0.41376260155E+02  0.12700000000E+01 0.  1.
          4   -1    0    0  502    0  0.00000000000E+00 -0.00000000000E+00 -0.14414574987E+03  0.14415134445E+03  0.12700000000E+01 0.  1.
         25    2    1    2    0    0  0.20825289875E+02  0.10609370548E+02 -0.10042173366E+03  0.16203600354E+03  0.12499956164E+03 0.  0.
    9000005    1    3    3    0    0 -0.42769805966E+00 -0.34970859234E+02  0.13501039329E+02  0.37502293052E+02  0.10000000000E+01 0.  0.
    9000005    1    3    3    0    0  0.21252987935E+02  0.45580229781E+02 -0.11392277299E+03  0.12453371049E+03  0.10000000000E+01 0.  0.
         21    1    1    2  502  501 -0.20825289875E+02 -0.10609370548E+02 -0.23672512979E+01  0.23491601063E+02  0.00000000000E+00 0.  1.
<mgrwt>
<rscale>  1 0.12716580E+03</rscale>
<asrwt>0</asrwt>
<pdfrwt beam="2">  1        4 0.22178199E-01 0.12716580E+03</pdfrwt>
<pdfrwt beam="1">  1       -4 0.63645093E-02 0.12716580E+03</pdfrwt>
<totfact> 0.48428793E+03</totfact>
</mgrwt>
</event>
<event>
 6    4  0.2271823E-003  0.1272036E+03  0.7818608E-02  0.1231665E+00
          4   -1    0    0  502    0  0.00000000000E+00  0.00000000000E+00  0.12236261998E+03  0.12236921046E+03  0.12700000000E+01 0.  1.
         -4   -1    0    0    0  501 -0.00000000000E+00 -0.00000000000E+00 -0.60606361933E+02  0.60619666831E+02  0.12700000000E+01 0.  1.
         25    2    1    2    0    0 -0.20771914480E+02 -0.11162527631E+02  0.82473078819E+02  0.15160000797E+03  0.12499871692E+03 0.  0.
    9000005    1    3    3    0    0 -0.36472820876E+02  0.50708031400E+02  0.31827891997E+02  0.70111238900E+02  0.10000000000E+01 0.  0.
    9000005    1    3    3    0    0  0.15700906396E+02 -0.61870559031E+02  0.50645186822E+02  0.81488769071E+02  0.10000000000E+01 0.  0.
         21    1    1    2  502  501  0.20771914480E+02  0.11162527631E+02 -0.20716820772E+02  0.31388869320E+02  0.00000000000E+00 0.  1.
<mgrwt>
<rscale>  1 0.12720359E+03</rscale>
<asrwt>0</asrwt>
<pdfrwt beam="1">  1        4 0.18826549E-01 0.12720359E+03</pdfrwt>
<pdfrwt beam="2">  1       -4 0.93255862E-02 0.12720359E+03</pdfrwt>
<totfact> 0.34630571E+03</totfact>
</mgrwt>
</event>
<event>
 6    4  0.2271823E-003  0.1266205E+03  0.7818608E-02  0.1232558E+00
          4   -1    0    0  502    0  0.00000000000E+00  0.00000000000E+00  0.21643052684E+03  0.21643425294E+03  0.12700000000E+01 0. -1.
         -4   -1    0    0    0  501 -0.00000000000E+00 -0.00000000000E+00 -0.26393501870E+02  0.26424039074E+02  0.12700000000E+01 0. -1.
         25    2    1    2    0    0 -0.15633998553E+02 -0.12759247451E+02  0.18063930778E+03  0.22059762279E+03  0.12500212541E+03 0.  0.
    9000005    1    3    3    0    0  0.20288727358E+02 -0.18515429981E+02 -0.78836199998E+01  0.28593794248E+02  0.10000000000E+01 0.  0.
    9000005    1    3    3    0    0 -0.35922725910E+02  0.57561825299E+01  0.18852292778E+03  0.19200382854E+03  0.10000000000E+01 0.  0.
         21    1    1    2  502  501  0.15633998553E+02  0.12759247451E+02  0.93977171841E+01  0.22260669229E+02  0.00000000000E+00 0. -1.
<mgrwt>
<rscale>  1 0.12662050E+03</rscale>
<asrwt>0</asrwt>
<pdfrwt beam="1">  1        4 0.33299638E-01 0.12662050E+03</pdfrwt>
<pdfrwt beam="2">  1       -4 0.40631746E-02 0.12662050E+03</pdfrwt>
<totfact> 0.46655746E+03</totfact>
</mgrwt>
</event>
<event>
 6    4  0.2271823E-003  0.1331149E+03  0.7818608E-02  0.1222906E+00
         -4   -1    0    0    0  501 -0.00000000000E+00  0.00000000000E+00  0.85298757264E+03  0.85298851808E+03  0.12700000000E+01 0.  1.
          4   -1    0    0  502    0  0.00000000000E+00 -0.00000000000E+00 -0.12436960289E+02  0.12501635142E+02  0.12700000000E+01 0.  1.
         25    2    1    2    0    0 -0.41062057059E+02  0.20206856841E+02  0.37940570217E+03  0.40207992699E+03  0.12500068502E+03 0.  0.
    9000005    1    3    3    0    0 -0.70069383381E+02 -0.29056084681E+02  0.22303543950E+03  0.23558391672E+03  0.10000000000E+01 0.  0.
    9000005    1    3    3    0    0  0.29007326321E+02  0.49262941523E+02  0.15637026267E+03  0.16649601026E+03  0.10000000000E+01 0.  0.
         21    1    1    2  502  501  0.41062057059E+02 -0.20206856841E+02  0.46114491018E+03  0.46341022624E+03  0.00000000000E+00 0.  1.
<mgrwt>
<rscale>  1 0.13311492E+03</rscale>
<asrwt>0</asrwt>
<pdfrwt beam="2">  1        4 0.19184247E-02 0.13311492E+03</pdfrwt>
<pdfrwt beam="1">  1       -4 0.13123401E+00 0.13311492E+03</pdfrwt>
<totfact> 0.79895019E+02</totfact>
</mgrwt>
</event>
<event>
 6    4  0.2271823E-003  0.1278466E+03  0.7818608E-02  0.1230686E+00
         -4   -1    0    0    0  501 -0.00000000000E+00  0.00000000000E+00  0.36441450489E+02  0.36463573793E+02  0.12700000000E+01 0.  1.
          4   -1    0    0  502    0  0.00000000000E+00 -0.00000000000E+00 -0.17643255039E+03  0.17643712120E+03  0.12700000000E+01 0.  1.
         25    2    1    2    0    0  0.13494094669E+02 -0.23185015206E+02 -0.13440760321E+03  0.18549976515E+03  0.12500049419E+03 0.  0.
    9000005    1    3    3    0    0  0.47126797518E+02 -0.11351034360E+02 -0.14111024834E+03  0.14920751728E+03  0.10000000000E+01 0.  0.
    9000005    1    3    3    0    0 -0.33632702849E+02 -0.11833980846E+02  0.67026451332E+01  0.36292247869E+02  0.10000000000E+01 0.  0.
         21    1    1    2  502  501 -0.13494094669E+02  0.23185015206E+02 -0.55834966933E+01  0.27400929845E+02  0.00000000000E+00 0. -1.
<mgrwt>
<rscale>  1 0.12784662E+03</rscale>
<asrwt>0</asrwt>
<pdfrwt beam="2">  1        4 0.27145522E-01 0.12784662E+03</pdfrwt>
<pdfrwt beam="1">  1       -4 0.56084305E-02 0.12784662E+03</pdfrwt>
<totfact> 0.41051356E+03</totfact>
</mgrwt>
</event>
<event>
 6    4  0.2271823E-003  0.1274184E+03  0.7818608E-02  0.1231337E+00
          4   -1    0    0  502    0  0.00000000000E+00  0.00000000000E+00  0.23020439621E+03  0.23020789937E+03  0.12700000000E+01 0. -1.
         -4   -1    0    0    0  501 -0.00000000000E+00 -0.00000000000E+00 -0.28836773053E+02  0.28864725534E+02  0.12700000000E+01 0. -1.
         25    2    1    2    0    0  0.23268731784E+02 -0.82918981204E+01  0.19602817103E+03  0.23380012597E+03  0.12500106246E+03 0.  0.
    9000005    1    3    3    0    0  0.54776886723E+02  0.36277188252E+02  0.67705961252E+02  0.94348497049E+02  0.10000000000E+01 0.  0.
    9000005    1    3    3    0    0 -0.31508154938E+02 -0.44569086372E+02  0.12832220978E+03  0.13945162893E+03  0.10000000000E+01 0.  0.
         21    1    1    2  502  501 -0.23268731784E+02  0.82918981204E+01  0.53394521260E+01  0.25272498932E+02  0.00000000000E+00 0.  1.
<mgrwt>
<rscale>  1 0.12741843E+03</rscale>
<asrwt>0</asrwt>
<pdfrwt beam="1">  1        4 0.35418480E-01 0.12741843E+03</pdfrwt>
<pdfrwt beam="2">  1       -4 0.44388464E-02 0.12741843E+03</pdfrwt>
<totfact> 0.36056124E+03</totfact>
</mgrwt>
</event>
<event>
 6    4  0.2271823E-003  0.1266633E+03  0.7818608E-02  0.1232492E+00
         -4   -1    0    0    0  501 -0.00000000000E+00  0.00000000000E+00  0.80659202072E+02  0.80669199692E+02  0.12700000000E+01 0. -1.
          4   -1    0    0  502    0  0.00000000000E+00 -0.00000000000E+00 -0.67198652282E+02  0.67210652195E+02  0.12700000000E+01 0. -1.
         25    2    1    2    0    0  0.58449608210E+01  0.19581734088E+02  0.14019181076E+02  0.12743676147E+03  0.12500393137E+03 0.  0.
    9000005    1    3    3    0    0 -0.41895348343E+02  0.20562737364E+02 -0.35494442917E+02  0.58642150870E+02  0.10000000000E+01 0.  0.
    9000005    1    3    3    0    0  0.47740309164E+02 -0.98100327597E+00  0.49513623993E+02  0.68794610599E+02  0.10000000000E+01 0.  0.
         21    1    1    2  502  501 -0.58449608210E+01 -0.19581734088E+02 -0.55863128563E+00  0.20443090417E+02  0.00000000000E+00 0.  1.
<mgrwt>
<rscale>  1 0.12666330E+03</rscale>
<asrwt>0</asrwt>
<pdfrwt beam="2">  1        4 0.10339946E-01 0.12666330E+03</pdfrwt>
<pdfrwt beam="1">  1       -4 0.12410800E-01 0.12666330E+03</pdfrwt>
<totfact> 0.60238855E+03</totfact>
</mgrwt>
</event>
<event>
 6    4  0.2271823E-003  0.1267634E+03  0.7818608E-02  0.1232339E+00
         -4   -1    0    0    0  501 -0.00000000000E+00  0.00000000000E+00  0.84112452731E+01  0.85065825714E+01  0.12700000000E+01 0.  1.
          4   -1    0    0  502    0  0.00000000000E+00 -0.00000000000E+00 -0.77845755829E+03  0.77845859424E+03  0.12700000000E+01 0.  1.
         25    2    1    2    0    0  0.18226710608E+01 -0.20980259190E+02 -0.73669462813E+03  0.74752118754E+03  0.12500182918E+03 0.  0.
    9000005    1    3    3    0    0 -0.48192926210E+02  0.25554028515E+02 -0.42082846846E+03  0.42435028735E+03  0.10000000000E+01 0.  0.
    9000005    1    3    3    0    0  0.50015597270E+02 -0.46534287705E+02 -0.31586615967E+03  0.32317090019E+03  0.10000000000E+01 0.  0.
         21    1    1    2  502  501 -0.18226710608E+01  0.20980259190E+02 -0.33351684880E+02  0.39443989274E+02  0.00000000000E+00 0.  1.
<mgrwt>
<rscale>  1 0.12676336E+03</rscale>
<asrwt>0</asrwt>
<pdfrwt beam="2">  1        4 0.11977006E+00 0.12676336E+03</pdfrwt>
<pdfrwt beam="1">  1       -4 0.13014517E-02 0.12676336E+03</pdfrwt>
<totfact> 0.17845119E+03</totfact>
</mgrwt>
</event>
<event>
 6    4  0.2271823E-003  0.1281256E+03  0.7818608E-02  0.1230264E+00
          4   -1    0    0  502    0  0.00000000000E+00  0.00000000000E+00  0.27778434527E+03  0.27778724840E+03  0.12700000000E+01 0. -1.
         -4   -1    0    0    0  501 -0.00000000000E+00 -0.00000000000E+00 -0.26192496351E+02  0.26223267628E+02  0.12700000000E+01 0. -1.
         25    2    1    2    0    0  0.19986738893E+02 -0.19800976062E+02  0.24280341275E+03  0.27453535708E+03  0.12499846664E+03 0.  0.
    9000005    1    3    3    0    0 -0.46001079227E+02  0.16457265875E+01  0.16003482997E+03  0.16652613762E+03  0.10000000000E+01 0.  0.
    9000005    1    3    3    0    0  0.65987818120E+02 -0.21446702649E+02  0.82768582776E+02  0.10800921947E+03  0.10000000000E+01 0.  0.
         21    1    1    2  502  501 -0.19986738893E+02  0.19800976062E+02  0.87884361653E+01  0.29475158945E+02  0.00000000000E+00 0. -1.
<mgrwt>
<rscale>  1 0.12812558E+03</rscale>
<asrwt>0</asrwt>
<pdfrwt beam="1">  1        4 0.42738641E-01 0.12812558E+03</pdfrwt>
<pdfrwt beam="2">  1       -4 0.40322054E-02 0.12812558E+03</pdfrwt>
<totfact> 0.29123624E+03</totfact>
</mgrwt>
</event>
<event>
 6    4  0.2271823E-003  0.1314918E+03  0.7818608E-02  0.1225259E+00
          4   -1    0    0  502    0  0.00000000000E+00  0.00000000000E+00  0.40672150185E+02  0.40691973418E+02  0.12700000000E+01 0. -1.
         -4   -1    0    0    0  501 -0.00000000000E+00 -0.00000000000E+00 -0.25589679275E+03  0.25589994420E+03  0.12700000000E+01 0. -1.
         25    2    1    2    0    0  0.65658826206E+01  0.40272653657E+02 -0.76797241236E+02  0.15227579625E+03  0.12500041766E+03 0.  0.
    9000005    1    3    3    0    0  0.97551883978E+01  0.50730743221E+02 -0.10771487979E+03  0.11946659507E+03  0.10000000000E+01 0.  0.
    9000005    1    3    3    0    0 -0.31893057772E+01 -0.10458089564E+02  0.30917638553E+02  0.32809201185E+02  0.10000000000E+01 0.  0.
         21    1    1    2  502  501 -0.65658826206E+01 -0.40272653657E+02 -0.13842740133E+03  0.14431612137E+03  0.00000000000E+00 0.  1.
<mgrwt>
<rscale>  1 0.13149183E+03</rscale>
<asrwt>0</asrwt>
<pdfrwt beam="1">  1        4 0.62590213E-02 0.13149183E+03</pdfrwt>
<pdfrwt beam="2">  1       -4 0.39370504E-01 0.13149183E+03</pdfrwt>
<totfact> 0.16996610E+03</totfact>
</mgrwt>
</event>
<event>
 6    4  0.2271823E-003  0.1286613E+03  0.7818608E-02  0.1229456E+00
         -4   -1    0    0    0  501 -0.00000000000E+00  0.00000000000E+00  0.27997112875E+02  0.28025902829E+02  0.12700000000E+01 0.  1.
          4   -1    0    0  502    0  0.00000000000E+00 -0.00000000000E+00 -0.24942504097E+03  0.24942827419E+03  0.12700000000E+01 0.  1.
         25    2    1    2    0    0 -0.29431134281E+02  0.79548115969E+01 -0.20699662671E+03  0.24372387680E+03  0.12499701581E+03 0.  0.
    9000005    1    3    3    0    0 -0.48368972417E+02 -0.46189998640E+02 -0.14241349885E+03  0.15733937245E+03  0.10000000000E+01 0.  0.
    9000005    1    3    3    0    0  0.18937838136E+02  0.54144810237E+02 -0.64583127855E+02  0.86384504354E+02  0.10000000000E+01 0.  0.
         21    1    1    2  502  501  0.29431134281E+02 -0.79548115969E+01 -0.14431301386E+02  0.33730300211E+02  0.00000000000E+00 0.  1.
<mgrwt>
<rscale>  1 0.12866128E+03</rscale>
<asrwt>0</asrwt>
<pdfrwt beam="2">  1        4 0.38375545E-01 0.12866128E+03</pdfrwt>
<pdfrwt beam="1">  1       -4 0.43097116E-02 0.12866128E+03</pdfrwt>
<totfact> 0.32420372E+03</totfact>
</mgrwt>
</event>
<event>
 6    4  0.2271823E-003  0.1286035E+03  0.7818608E-02  0.1229543E+00
          4   -1    0    0  502    0  0.00000000000E+00  0.00000000000E+00  0.13810989789E+03  0.13811573695E+03  0.12700000000E+01 0. -1.
         -4   -1    0    0    0  501 -0.00000000000E+00 -0.00000000000E+00 -0.47122530389E+02  0.47139641177E+02  0.12700000000E+01 0. -1.
         25    2    1    2    0    0  0.21928683879E+02 -0.20826617156E+02  0.85730468729E+02  0.15455928484E+03  0.12499697637E+03 0.  0.
    9000005    1    3    3    0    0  0.63432653287E+02 -0.40894388059E+02  0.76625795370E+02  0.10755726379E+03  0.10000000000E+01 0.  0.
    9000005    1    3    3    0    0 -0.41503969408E+02  0.20067770903E+02  0.91046733594E+01  0.47002021048E+02  0.10000000000E+01 0.  0.
         21    1    1    2  502  501 -0.21928683879E+02  0.20826617156E+02  0.52568987693E+01  0.30696093294E+02  0.00000000000E+00 0. -1.
<mgrwt>
<rscale>  1 0.12860350E+03</rscale>
<asrwt>0</asrwt>
<pdfrwt beam="1">  1        4 0.21249442E-01 0.12860350E+03</pdfrwt>
<pdfrwt beam="2">  1       -4 0.72513855E-02 0.12860350E+03</pdfrwt>
<totfact> 0.42394310E+03</totfact>
</mgrwt>
</event>
<event>
 6    4  0.2271823E-003  0.1272213E+03  0.7818608E-02  0.1231638E+00
         -4   -1    0    0    0  501 -0.00000000000E+00  0.00000000000E+00  0.90901993994E+02  0.90910865204E+02  0.12700000000E+01 0.  1.
          4   -1    0    0  502    0  0.00000000000E+00 -0.00000000000E+00 -0.78563381436E+02  0.78573645726E+02  0.12700000000E+01 0.  1.
         25    2    1    2    0    0  0.23638354325E+02  0.71512089188E+00 -0.20658643564E+02  0.12888768711E+03  0.12500389250E+03 0.  0.
    9000005    1    3    3    0    0  0.52841538377E+02  0.15154102453E+02 -0.57596779314E+02  0.79625774637E+02  0.10000000000E+01 0.  0.
    9000005    1    3    3    0    0 -0.29203184052E+02 -0.14438981561E+02  0.36938135750E+02  0.49261912468E+02  0.10000000000E+01 0.  0.
         21    1    1    2  502  501 -0.23638354325E+02 -0.71512089188E+00  0.32997256122E+02  0.40596823825E+02  0.00000000000E+00 0.  1.
<mgrwt>
<rscale>  1 0.12722129E+03</rscale>
<asrwt>0</asrwt>
<pdfrwt beam="2">  1        4 0.12088146E-01 0.12722129E+03</pdfrwt>
<pdfrwt beam="1">  1       -4 0.13986394E-01 0.12722129E+03</pdfrwt>
<totfact> 0.37649733E+03</totfact>
</mgrwt>
</event>
<event>
 6    4  0.2271823E-003  0.1268174E+03  0.7818608E-02  0.1232256E+00
          4   -1    0    0  502    0  0.00000000000E+00  0.00000000000E+00  0.15710209245E+03  0.15710722565E+03  0.12700000000E+01 0. -1.
         -4   -1    0    0    0  501 -0.00000000000E+00 -0.00000000000E+00 -0.43002285024E+02  0.43021034591E+02  0.12700000000E+01 0. -1.
         25    2    1    2    0    0  0.17715916221E+02 -0.12054539612E+02  0.12323706320E+03  0.17683330251E+03  0.12499390993E+03 0.  0.
    9000005    1    3    3    0    0 -0.11104796201E+02 -0.62633736885E+02  0.88639954426E+02  0.10910702551E+03  0.10000000000E+01 0.  0.
    9000005    1    3    3    0    0  0.28820712422E+02  0.50579197273E+02  0.34597108770E+02  0.67726277002E+02  0.10000000000E+01 0.  0.
         21    1    1    2  502  501 -0.17715916221E+02  0.12054539612E+02 -0.91372557684E+01  0.23294957733E+02  0.00000000000E+00 0. -1.
<mgrwt>
<rscale>  1 0.12681736E+03</rscale>
<asrwt>0</asrwt>
<pdfrwt beam="1">  1        4 0.24171389E-01 0.12681736E+03</pdfrwt>
<pdfrwt beam="2">  1       -4 0.66175735E-02 0.12681736E+03</pdfrwt>
<totfact> 0.38806934E+03</totfact>
</mgrwt>
</event>
<event>
 6    4  0.2271823E-003  0.1268750E+03  0.7818608E-02  0.1232168E+00
          4   -1    0    0  502    0  0.00000000000E+00  0.00000000000E+00  0.88755407018E+02  0.88764492760E+02  0.12700000000E+01 0. -1.
         -4   -1    0    0    0  501 -0.00000000000E+00 -0.00000000000E+00 -0.62193720374E+02  0.62206685766E+02  0.12700000000E+01 0. -1.
         25    2    1    2    0    0 -0.16994656146E+02 -0.13540480964E+02  0.23351130565E+02  0.12900596438E+03  0.12500040233E+03 0.  0.
    9000005    1    3    3    0    0  0.46243109161E+02 -0.35099631227E+02  0.22240282183E+02  0.62177483133E+02  0.10000000000E+01 0.  0.
    9000005    1    3    3    0    0 -0.63237765308E+02  0.21559150263E+02  0.11108483816E+01  0.66828481243E+02  0.10000000000E+01 0.  0.
         21    1    1    2  502  501  0.16994656146E+02  0.13540480964E+02  0.32105560789E+01  0.21965214149E+02  0.00000000000E+00 0. -1.
<mgrwt>
<rscale>  1 0.12687499E+03</rscale>
<asrwt>0</asrwt>
<pdfrwt beam="1">  1        4 0.13656374E-01 0.12687499E+03</pdfrwt>
<pdfrwt beam="2">  1       -4 0.95699610E-02 0.12687499E+03</pdfrwt>
<totfact> 0.58226664E+03</totfact>
</mgrwt>
</event>
<event>
 6    4  0.2271823E-003  0.1355418E+03  0.7818608E-02  0.1219457E+00
          4   -1    0    0  502    0  0.00000000000E+00  0.00000000000E+00  0.24956448992E+02  0.24988742391E+02  0.12700000000E+01 0.  1.
         -4   -1    0    0    0  501 -0.00000000000E+00 -0.00000000000E+00 -0.37699080927E+03  0.37699294844E+03  0.12700000000E+01 0.  1.
         25    2    1    2    0    0  0.58093615883E+01 -0.52096888130E+02 -0.29422766644E+03  0.32394677373E+03  0.12499503220E+03 0.  0.
    9000005    1    3    3    0    0 -0.48773400108E+02  0.62816747110E+01 -0.67325274734E+02  0.83378634033E+02  0.10000000000E+01 0.  0.
    9000005    1    3    3    0    0  0.54582761696E+02 -0.58378562841E+02 -0.22690239171E+03  0.24056813969E+03  0.10000000000E+01 0.  0.
         21    1    1    2  502  501 -0.58093615883E+01  0.52096888130E+02 -0.57806693837E+02  0.78034917103E+02  0.00000000000E+00 0.  1.
<mgrwt>
<rscale>  1 0.13554185E+03</rscale>
<asrwt>0</asrwt>
<pdfrwt beam="1">  1        4 0.38421026E-02 0.13554185E+03</pdfrwt>
<pdfrwt beam="2">  1       -4 0.58001231E-01 0.13554185E+03</pdfrwt>
<totfact> 0.17109832E+03</totfact>
</mgrwt>
</event>
<event>
 6    4  0.2271823E-003  0.1277285E+03  0.7818608E-02  0.1230866E+00
          4   -1    0    0  502    0  0.00000000000E+00  0.00000000000E+00  0.57976680105E+02  0.57990588340E+02  0.12700000000E+01 0. -1.
         -4   -1    0    0    0  501 -0.00000000000E+00 -0.00000000000E+00 -0.10994081364E+03  0.10994814871E+03  0.12700000000E+01 0. -1.
         25    2    1    2    0    0  0.19747411711E+02 -0.17344819386E+02 -0.24749297240E+02  0.13010422445E+03  0.12499511381E+03 0.  0.
    9000005    1    3    3    0    0  0.59939543470E+02  0.21696653683E+02  0.94528251787E+01  0.64450365060E+02  0.10000000000E+01 0.  0.
    9000005    1    3    3    0    0 -0.40192131760E+02 -0.39041473069E+02 -0.34202122419E+02  0.65653859390E+02  0.10000000000E+01 0.  0.
         21    1    1    2  502  501 -0.19747411711E+02  0.17344819386E+02 -0.27214836296E+02  0.37834512596E+02  0.00000000000E+00 0. -1.
<mgrwt>
<rscale>  1 0.12772855E+03</rscale>
<asrwt>0</asrwt>
<pdfrwt beam="1">  1        4 0.89211233E-02 0.12772855E+03</pdfrwt>
<pdfrwt beam="2">  1       -4 0.16915605E-01 0.12772855E+03</pdfrwt>
<totfact> 0.45138940E+03</totfact>
</mgrwt>
</event>
<event>
 6    4  0.2271823E-003  0.1271789E+03  0.7818608E-02  0.1231703E+00
         -4   -1    0    0    0  501 -0.00000000000E+00  0.00000000000E+00  0.27077627117E+03  0.27077924944E+03  0.12700000000E+01 0. -1.
          4   -1    0    0  502    0  0.00000000000E+00 -0.00000000000E+00 -0.11684375005E+03  0.11685065180E+03  0.12700000000E+01 0. -1.
         25    2    1    2    0    0 -0.88807960935E+01 -0.21732334597E+02 -0.81485489066E+02  0.15104418225E+03  0.12499318845E+03 0.  0.
    9000005    1    3    3    0    0 -0.32421924969E+02  0.40989995243E+02 -0.10283269245E+02  0.53273882485E+02  0.10000000000E+01 0.  0.
    9000005    1    3    3    0    0  0.23541128875E+02 -0.62722329839E+02 -0.71202219821E+02  0.97770299768E+02  0.10000000000E+01 0.  0.
         21    1    1    2  502  501  0.88807960935E+01  0.21732334597E+02  0.23541801018E+03  0.23658571898E+03  0.00000000000E+00 0. -1.
<mgrwt>
<rscale>  1 0.12717885E+03</rscale>
<asrwt>0</asrwt>
<pdfrwt beam="2">  1        4 0.17976722E-01 0.12717885E+03</pdfrwt>
<pdfrwt beam="1">  1       -4 0.41658647E-01 0.12717885E+03</pdfrwt>
<totfact> 0.25261627E+02</totfact>
</mgrwt>
</event>
<event>
 6    4  0.2271823E-003  0.1314412E+03  0.7818608E-02  0.1225333E+00
          4   -1    0    0  502    0  0.00000000000E+00  0.00000000000E+00  0.43512821432E+02  0.43531351104E+02  0.12700000000E+01 0.  1.
         -4   -1    0    0    0  501 -0.00000000000E+00 -0.00000000000E+00 -0.21013538467E+03  0.21013922240E+03  0.12700000000E+01 0.  1.
         25    2    1    2    0    0 -0.15015993721E+02  0.37749750940E+02 -0.70142673455E+02  0.14898584254E+03  0.12500505140E+03 0.  0.
    9000005    1    3    3    0    0 -0.44008695150E+02 -0.18311980289E+02  0.82003711147E+01  0.48377060239E+02  0.10000000000E+01 0.  0.
    9000005    1    3    3    0    0  0.28992701429E+02  0.56061731229E+02 -0.78343044570E+02  0.10060878231E+03  0.10000000000E+01 0.  0.
         21    1    1    2  502  501  0.15015993721E+02 -0.37749750940E+02 -0.96479889783E+02  0.10468473096E+03  0.00000000000E+00 0.  1.
<mgrwt>
<rscale>  1 0.13144119E+03</rscale>
<asrwt>0</asrwt>
<pdfrwt beam="1">  1        4 0.66960009E-02 0.13144119E+03</pdfrwt>
<pdfrwt beam="2">  1       -4 0.32330241E-01 0.13144119E+03</pdfrwt>
<totfact> 0.22283237E+03</totfact>
</mgrwt>
</event>
<event>
 6    4  0.2271823E-003  0.1280551E+03  0.7818608E-02  0.1230371E+00
         -4   -1    0    0    0  501 -0.00000000000E+00  0.00000000000E+00  0.77548274922E+02  0.77558673553E+02  0.12700000000E+01 0.  1.
          4   -1    0    0  502    0  0.00000000000E+00 -0.00000000000E+00 -0.14658092293E+03  0.14658642457E+03  0.12700000000E+01 0.  1.
         25    2    1    2    0    0 -0.89958963289E-01  0.27802504610E+02 -0.11388765712E+03  0.17137238549E+03  0.12500043484E+03 0.  0.
    9000005    1    3    3    0    0  0.24408504611E+02  0.55735734916E+02 -0.11919189293E+03  0.13382807846E+03  0.10000000000E+01 0.  0.
    9000005    1    3    3    0    0 -0.24498463574E+02 -0.27933230306E+02  0.53042358114E+01  0.37544307030E+02  0.10000000000E+01 0.  0.
         21    1    1    2  502  501  0.89958963289E-01 -0.27802504610E+02  0.44855009114E+02  0.52772712625E+02  0.00000000000E+00 0.  1.
<mgrwt>
<rscale>  1 0.12805505E+03</rscale>
<asrwt>0</asrwt>
<pdfrwt beam="2">  1        4 0.22552134E-01 0.12805505E+03</pdfrwt>
<pdfrwt beam="1">  1       -4 0.11931727E-01 0.12805505E+03</pdfrwt>
<totfact> 0.16515269E+03</totfact>
</mgrwt>
</event>
<event>
 6    4  0.2271823E-003  0.1291170E+03  0.7818608E-02  0.1228772E+00
          4   -1    0    0  502    0  0.00000000000E+00  0.00000000000E+00  0.14087428276E+03  0.14088000725E+03  0.12700000000E+01 0.  1.
         -4   -1    0    0    0  501 -0.00000000000E+00 -0.00000000000E+00 -0.51095115788E+02  0.51110896660E+02  0.12700000000E+01 0.  1.
         25    2    1    2    0    0  0.23886910076E+02 -0.21833011546E+02  0.44983420355E+02  0.13672858600E+03  0.12499573295E+03 0.  0.
    9000005    1    3    3    0    0 -0.40287133039E+02 -0.45360275435E+02  0.23594551581E+02  0.65102308257E+02  0.10000000000E+01 0.  0.
    9000005    1    3    3    0    0  0.64174043115E+02  0.23527263889E+02  0.21388868774E+02  0.71626277743E+02  0.10000000000E+01 0.  0.
         21    1    1    2  502  501 -0.23886910076E+02  0.21833011546E+02  0.44795746619E+02  0.55262317915E+02  0.00000000000E+00 0.  1.
<mgrwt>
<rscale>  1 0.12911699E+03</rscale>
<asrwt>0</asrwt>
<pdfrwt beam="1">  1        4 0.21674621E-01 0.12911699E+03</pdfrwt>
<pdfrwt beam="2">  1       -4 0.78624413E-02 0.12911699E+03</pdfrwt>
<totfact> 0.35829334E+03</totfact>
</mgrwt>
</event>
<event>
 6    4  0.2271823E-003  0.1267938E+03  0.7818608E-02  0.1232292E+00
          4   -1    0    0  502    0  0.00000000000E+00  0.00000000000E+00  0.16079882464E+03  0.16080383984E+03  0.12700000000E+01 0. -1.
         -4   -1    0    0    0  501 -0.00000000000E+00 -0.00000000000E+00 -0.34095719145E+02  0.34119363476E+02  0.12700000000E+01 0. -1.
         25    2    1    2    0    0  0.10766927585E+02 -0.18295512395E+02  0.10590925731E+03  0.16520727113E+03  0.12500407651E+03 0.  0.
    9000005    1    3    3    0    0  0.40838873359E+02 -0.60837017765E+02  0.49599209800E+02  0.88487501493E+02  0.10000000000E+01 0.  0.
    9000005    1    3    3    0    0 -0.30071945774E+02  0.42541505370E+02  0.56310047513E+02  0.76719769634E+02  0.10000000000E+01 0.  0.
         21    1    1    2  502  501 -0.10766927585E+02  0.18295512395E+02  0.20793848184E+02  0.29715932186E+02  0.00000000000E+00 0. -1.
<mgrwt>
<rscale>  1 0.12679382E+03</rscale>
<asrwt>0</asrwt>
<pdfrwt beam="1">  1        4 0.24740485E-01 0.12679382E+03</pdfrwt>
<pdfrwt beam="2">  1       -4 0.52476998E-02 0.12679382E+03</pdfrwt>
<totfact> 0.54151350E+03</totfact>
</mgrwt>
</event>
<event>
 6    4  0.2271823E-003  0.1282654E+03  0.7818608E-02  0.1230052E+00
          4   -1    0    0  502    0  0.00000000000E+00  0.00000000000E+00  0.14795696696E+03  0.14796241743E+03  0.12700000000E+01 0. -1.
         -4   -1    0    0    0  501 -0.00000000000E+00 -0.00000000000E+00 -0.53373474598E+02  0.53388582025E+02  0.12700000000E+01 0. -1.
         25    2    1    2    0    0  0.11354956749E+02 -0.26429081129E+02  0.10976942066E+03  0.16882341438E+03  0.12499835263E+03 0.  0.
    9000005    1    3    3    0    0  0.20505918671E+02  0.45919769656E+02  0.22533976152E+02  0.55117130069E+02  0.10000000000E+01 0.  0.
    9000005    1    3    3    0    0 -0.91509619214E+01 -0.72348850785E+02  0.87235444510E+02  0.11370628432E+03  0.10000000000E+01 0.  0.
         21    1    1    2  502  501 -0.11354956749E+02  0.26429081129E+02 -0.15185928302E+02  0.32527585070E+02  0.00000000000E+00 0. -1.
<mgrwt>
<rscale>  1 0.12826543E+03</rscale>
<asrwt>0</asrwt>
<pdfrwt beam="1">  1        4 0.22764191E-01 0.12826543E+03</pdfrwt>
<pdfrwt beam="2">  1       -4 0.82128852E-02 0.12826543E+03</pdfrwt>
<totfact> 0.30440958E+03</totfact>
</mgrwt>
</event>
<event>
 6    4  0.2271823E-003  0.1268826E+03  0.7818608E-02  0.1232156E+00
          4   -1    0    0  502    0  0.00000000000E+00  0.00000000000E+00  0.56329207572E+02  0.56343522482E+02  0.12700000000E+01 0. -1.
         -4   -1    0    0    0  501 -0.00000000000E+00 -0.00000000000E+00 -0.15576576451E+03  0.15577094175E+03  0.12700000000E+01 0. -1.
         25    2    1    2    0    0  0.13937900485E+02  0.16781578659E+02 -0.18420393044E+02  0.12821270463E+03  0.12499320100E+03 0.  0.
    9000005    1    3    3    0    0  0.67423732554E+02  0.13128756298E+02  0.66558126832E+01  0.69019010395E+02  0.10000000000E+01 0.  0.
    9000005    1    3    3    0    0 -0.53485832069E+02  0.36528223609E+01 -0.25076205727E+02  0.59193694234E+02  0.10000000000E+01 0.  0.
         21    1    1    2  502  501 -0.13937900485E+02 -0.16781578659E+02 -0.81016163896E+02  0.83901759604E+02  0.00000000000E+00 0. -1.
<mgrwt>
<rscale>  1 0.12688257E+03</rscale>
<asrwt>0</asrwt>
<pdfrwt beam="1">  1        4 0.86675314E-02 0.12688257E+03</pdfrwt>
<pdfrwt beam="2">  1       -4 0.23965463E-01 0.12688257E+03</pdfrwt>
<totfact> 0.25271208E+03</totfact>
</mgrwt>
</event>
<event>
 6    4  0.2271823E-003  0.1268076E+03  0.7818608E-02  0.1232271E+00
         -4   -1    0    0    0  501 -0.00000000000E+00  0.00000000000E+00  0.43376823045E+02  0.43395410788E+02  0.12700000000E+01 0.  1.
          4   -1    0    0  502    0  0.00000000000E+00 -0.00000000000E+00 -0.12678364101E+03  0.12679000169E+03  0.12700000000E+01 0.  1.
         25    2    1    2    0    0  0.16924390460E+02 -0.12980839338E+02 -0.74486053929E+02  0.14706578416E+03  0.12500094183E+03 0.  0.
    9000005    1    3    3    0    0  0.49815326717E+02  0.27094857502E+02 -0.76430228303E+02  0.95174985566E+02  0.10000000000E+01 0.  0.
    9000005    1    3    3    0    0 -0.32890936258E+02 -0.40075696839E+02  0.19441743737E+01  0.51890798597E+02  0.10000000000E+01 0.  0.
         21    1    1    2  502  501 -0.16924390460E+02  0.12980839338E+02 -0.89207640376E+01  0.23119628314E+02  0.00000000000E+00 0. -1.
<mgrwt>
<rscale>  1 0.12680762E+03</rscale>
<asrwt>0</asrwt>
<pdfrwt beam="2">  1        4 0.19507094E-01 0.12680762E+03</pdfrwt>
<pdfrwt beam="1">  1       -4 0.66752766E-02 0.12680762E+03</pdfrwt>
<totfact> 0.56438895E+03</totfact>
</mgrwt>
</event>
<event>
 6    4  0.2271823E-003  0.1268031E+03  0.7818608E-02  0.1232278E+00
          4   -1    0    0  502    0  0.00000000000E+00  0.00000000000E+00  0.37313916676E+02  0.37335523001E+02  0.12700000000E+01 0.  1.
         -4   -1    0    0    0  501 -0.00000000000E+00 -0.00000000000E+00 -0.15307757393E+03  0.15308284208E+03  0.12700000000E+01 0.  1.
         25    2    1    2    0    0  0.14187332474E+02  0.15781578545E+02 -0.83588437940E+02  0.15187509898E+03  0.12501471957E+03 0.  0.
    9000005    1    3    3    0    0 -0.76794886752E+01  0.56273046210E+02 -0.88943922221E+02  0.10553507273E+03  0.10000000000E+01 0.  0.
    9000005    1    3    3    0    0  0.21866821150E+02 -0.40491467666E+02  0.53554842808E+01  0.46340026249E+02  0.10000000000E+01 0.  0.
         21    1    1    2  502  501 -0.14187332474E+02 -0.15781578545E+02 -0.32175219313E+02  0.38543266103E+02  0.00000000000E+00 0. -1.
<mgrwt>
<rscale>  1 0.12680307E+03</rscale>
<asrwt>0</asrwt>
<pdfrwt beam="1">  1        4 0.57426699E-02 0.12680307E+03</pdfrwt>
<pdfrwt beam="2">  1       -4 0.23552463E-01 0.12680307E+03</pdfrwt>
<totfact> 0.51246847E+03</totfact>
</mgrwt>
</event>
<event>
 6    4  0.2271823E-003  0.1295515E+03  0.7818608E-02  0.1228123E+00
          4   -1    0    0  502    0  0.00000000000E+00  0.00000000000E+00  0.14831201467E+03  0.14831745210E+03  0.12700000000E+01 0. -1.
         -4   -1    0    0    0  501 -0.00000000000E+00 -0.00000000000E+00 -0.73072435627E+02  0.73083471103E+02  0.12700000000E+01 0. -1.
         25    2    1    2    0    0  0.21971676385E+02  0.25984537368E+02  0.11203977807E+03  0.17127901788E+03  0.12500255737E+03 0.  0.
    9000005    1    3    3    0    0  0.23090949228E+02  0.59507111027E+02  0.10956320853E+02  0.64771360690E+02  0.10000000000E+01 0.  0.
    9000005    1    3    3    0    0 -0.11192728437E+01 -0.33522573659E+02  0.10108345722E+03  0.10650765719E+03  0.10000000000E+01 0.  0.
         21    1    1    2  502  501 -0.21971676385E+02 -0.25984537368E+02 -0.36800199022E+02  0.50121905325E+02  0.00000000000E+00 0.  1.
<mgrwt>
<rscale>  1 0.12955150E+03</rscale>
<asrwt>0</asrwt>
<pdfrwt beam="1">  1        4 0.22818500E-01 0.12955150E+03</pdfrwt>
<pdfrwt beam="2">  1       -4 0.11243180E-01 0.12955150E+03</pdfrwt>
<totfact> 0.17935655E+03</totfact>
</mgrwt>
</event>
<event>
 6    4  0.2271823E-003  0.1272170E+03  0.7818608E-02  0.1231645E+00
         -4   -1    0    0    0  501 -0.00000000000E+00  0.00000000000E+00  0.13685064121E+02  0.13743866996E+02  0.12700000000E+01 0. -1.
          4   -1    0    0  502    0  0.00000000000E+00 -0.00000000000E+00 -0.41879664335E+03  0.41879856898E+03  0.12700000000E+01 0. -1.
         25    2    1    2    0    0  0.22324913802E+02 -0.78252825421E+01 -0.35555842136E+03  0.37763203371E+03  0.12499810021E+03 0.  0.
    9000005    1    3    3    0    0 -0.38967397223E+02 -0.18865680915E+02 -0.25989383777E+03  0.26347709365E+03  0.10000000000E+01 0.  0.
    9000005    1    3    3    0    0  0.61292311026E+02  0.11040398373E+02 -0.95664583588E+02  0.11415494006E+03  0.10000000000E+01 0.  0.
         21    1    1    2  502  501 -0.22324913802E+02  0.78252825421E+01 -0.49553157869E+02  0.54910402275E+02  0.00000000000E+00 0. -1.
<mgrwt>
<rscale>  1 0.12721699E+03</rscale>
<asrwt>0</asrwt>
<pdfrwt beam="2">  1        4 0.64434914E-01 0.12721699E+03</pdfrwt>
<pdfrwt beam="1">  1       -4 0.21100662E-02 0.12721699E+03</pdfrwt>
<totfact> 0.34458894E+03</totfact>
</mgrwt>
</event>
<event>
 6    4  0.2271823E-003  0.1278900E+03  0.7818608E-02  0.1230621E+00
          4   -1    0    0  502    0  0.00000000000E+00  0.00000000000E+00  0.21639313436E+03  0.21639686111E+03  0.12700000000E+01 0. -1.
         -4   -1    0    0    0  501 -0.00000000000E+00 -0.00000000000E+00 -0.29259445294E+02  0.29286994365E+02  0.12700000000E+01 0. -1.
         25    2    1    2    0    0 -0.25914110023E+02  0.77544665439E+01  0.17307401960E+03  0.21519865981E+03  0.12499669624E+03 0.  0.
    9000005    1    3    3    0    0 -0.17909408918E+02  0.21873123176E+02  0.18978524325E+03  0.19188178393E+03  0.10000000000E+01 0.  0.
    9000005    1    3    3    0    0 -0.80047011055E+01 -0.14118656632E+02 -0.16711223652E+02  0.23316875881E+02  0.10000000000E+01 0.  0.
         21    1    1    2  502  501  0.25914110023E+02 -0.77544665439E+01  0.14059669468E+02  0.30485195673E+02  0.00000000000E+00 0. -1.
<mgrwt>
<rscale>  1 0.12788998E+03</rscale>
<asrwt>0</asrwt>
<pdfrwt beam="1">  1        4 0.33293656E-01 0.12788998E+03</pdfrwt>
<pdfrwt beam="2">  1       -4 0.45038591E-02 0.12788998E+03</pdfrwt>
<totfact> 0.39714474E+03</totfact>
</mgrwt>
</event>
<event>
 6    4  0.2271823E-003  0.1288504E+03  0.7818608E-02  0.1229172E+00
          4   -1    0    0  502    0  0.00000000000E+00  0.00000000000E+00  0.37691790740E+03  0.37692004698E+03  0.12700000000E+01 0. -1.
         -4   -1    0    0    0  501 -0.00000000000E+00 -0.00000000000E+00 -0.34418057330E+02  0.34441480374E+02  0.12700000000E+01 0. -1.
         25    2    1    2    0    0 -0.30446293787E+02 -0.71214265085E+01  0.35502056319E+03  0.37767978485E+03  0.12499891232E+03 0.  0.
    9000005    1    3    3    0    0  0.34507831279E+02  0.36387113331E+02  0.12272055721E+03  0.13257506402E+03  0.10000000000E+01 0.  0.
    9000005    1    3    3    0    0 -0.64954125066E+02 -0.43508539839E+02  0.23230000597E+03  0.24510472084E+03  0.10000000000E+01 0.  0.
         21    1    1    2  502  501  0.30446293787E+02  0.71214265085E+01 -0.12520713119E+02  0.33681742501E+02  0.00000000000E+00 0. -1.
<mgrwt>
<rscale>  1 0.12885038E+03</rscale>
<asrwt>0</asrwt>
<pdfrwt beam="1">  1        4 0.57989337E-01 0.12885038E+03</pdfrwt>
<pdfrwt beam="2">  1       -4 0.52970521E-02 0.12885038E+03</pdfrwt>
<totfact> 0.10134492E+03</totfact>
</mgrwt>
</event>
<event>
 6    4  0.2271823E-003  0.1277289E+03  0.7818608E-02  0.1230865E+00
         -4   -1    0    0    0  501 -0.00000000000E+00  0.00000000000E+00  0.18112648217E+02  0.18157117762E+02  0.12700000000E+01 0.  1.
          4   -1    0    0  502    0  0.00000000000E+00 -0.00000000000E+00 -0.34421727954E+03  0.34421962239E+03  0.12700000000E+01 0.  1.
         25    2    1    2    0    0  0.11307549307E+02  0.23713437281E+02 -0.29622891274E+03  0.32259299548E+03  0.12499793682E+03 0.  0.
    9000005    1    3    3    0    0  0.37330932822E+02  0.65147040054E+02 -0.13984325428E+03  0.15872892345E+03  0.10000000000E+01 0.  0.
    9000005    1    3    3    0    0 -0.26023383515E+02 -0.41433602773E+02 -0.15638565846E+03  0.16386407202E+03  0.10000000000E+01 0.  0.
         21    1    1    2  502  501 -0.11307549307E+02 -0.23713437281E+02 -0.29875718587E+02  0.39783744671E+02  0.00000000000E+00 0. -1.
<mgrwt>
<rscale>  1 0.12772890E+03</rscale>
<asrwt>0</asrwt>
<pdfrwt beam="2">  1        4 0.52960100E-01 0.12772890E+03</pdfrwt>
<pdfrwt beam="1">  1       -4 0.27901625E-02 0.12772890E+03</pdfrwt>
<totfact> 0.33685377E+03</totfact>
</mgrwt>
</event>
<event>
 6    4  0.2271823E-003  0.1374694E+03  0.7818608E-02  0.1216775E+00
         -4   -1    0    0    0  501 -0.00000000000E+00  0.00000000000E+00  0.40038430894E+02  0.40058567728E+02  0.12700000000E+01 0. -1.
          4   -1    0    0  502    0  0.00000000000E+00 -0.00000000000E+00 -0.42931252695E+03  0.42931440542E+03  0.12700000000E+01 0. -1.
         25    2    1    2    0    0  0.41169172254E+02 -0.39720655090E+02 -0.38856062487E+03  0.41216160866E+03  0.12500080509E+03 0.  0.
    9000005    1    3    3    0    0  0.10842406875E+02  0.10823525167E+02 -0.32540442343E+03  0.32576639678E+03  0.10000000000E+01 0.  0.
    9000005    1    3    3    0    0  0.30326765378E+02 -0.50544180257E+02 -0.63156201436E+02  0.86395211881E+02  0.10000000000E+01 0.  0.
         21    1    1    2  502  501 -0.41169172254E+02  0.39720655090E+02 -0.71347119187E+00  0.57211364482E+02  0.00000000000E+00 0. -1.
<mgrwt>
<rscale>  1 0.13746939E+03</rscale>
<asrwt>0</asrwt>
<pdfrwt beam="2">  1        4 0.66049771E-01 0.13746939E+03</pdfrwt>
<pdfrwt beam="1">  1       -4 0.61614524E-02 0.13746939E+03</pdfrwt>
<totfact> 0.61090424E+02</totfact>
</mgrwt>
</event>
<event>
 6    4  0.2271823E-003  0.1272087E+03  0.7818608E-02  0.1231657E+00
         -4   -1    0    0    0  501 -0.00000000000E+00  0.00000000000E+00  0.63945879680E+03  0.63946005794E+03  0.12700000000E+01 0.  1.
          4   -1    0    0  502    0  0.00000000000E+00 -0.00000000000E+00 -0.89041809618E+01  0.89942947806E+01  0.12700000000E+01 0.  1.
         25    2    1    2    0    0 -0.16511372968E+02  0.16838730829E+02  0.51098124775E+03  0.52657753520E+03  0.12500358689E+03 0.  0.
    9000005    1    3    3    0    0  0.43702878783E+02 -0.47478915365E+01  0.35896660008E+03  0.36164969800E+03  0.10000000000E+01 0.  0.
    9000005    1    3    3    0    0 -0.60214251751E+02  0.21586622366E+02  0.15201464767E+03  0.16492783720E+03  0.10000000000E+01 0.  0.
         21    1    1    2  502  501  0.16511372968E+02 -0.16838730829E+02  0.11957336808E+03  0.12187681752E+03  0.00000000000E+00 0. -1.
<mgrwt>
<rscale>  1 0.12720875E+03</rscale>
<asrwt>0</asrwt>
<pdfrwt beam="2">  1        4 0.13769027E-02 0.12720875E+03</pdfrwt>
<pdfrwt beam="1">  1       -4 0.98385313E-01 0.12720875E+03</pdfrwt>
<totfact> 0.26016162E+03</totfact>
</mgrwt>
</event>
<event>
 6    4  0.2271823E-003  0.1267235E+03  0.7818608E-02  0.1232400E+00
         -4   -1    0    0    0  501 -0.00000000000E+00  0.00000000000E+00  0.18551160088E+03  0.18551594800E+03  0.12700000000E+01 0.  1.
          4   -1    0    0  502    0  0.00000000000E+00 -0.00000000000E+00 -0.32191945269E+02  0.32216986827E+02  0.12700000000E+01 0.  1.
         25    2    1    2    0    0  0.32513383177E+01  0.20569845138E+02  0.10309827525E+03  0.16336495918E+03  0.12500066320E+03 0.  0.
    9000005    1    3    3    0    0 -0.46638858428E+02  0.49901516618E+02  0.48332910512E+02  0.83680432090E+02  0.10000000000E+01 0.  0.
    9000005    1    3    3    0    0  0.49890196746E+02 -0.29331671480E+02  0.54765364738E+02  0.79684527093E+02  0.10000000000E+01 0.  0.
         21    1    1    2  502  501 -0.32513383177E+01 -0.20569845138E+02  0.50221380363E+02  0.54367975642E+02  0.00000000000E+00 0.  1.
<mgrwt>
<rscale>  1 0.12672354E+03</rscale>
<asrwt>0</asrwt>
<pdfrwt beam="2">  1        4 0.49548677E-02 0.12672354E+03</pdfrwt>
<pdfrwt beam="1">  1       -4 0.28542506E-01 0.12672354E+03</pdfrwt>
<totfact> 0.45529602E+03</totfact>
</mgrwt>
</event>
<event>
 6    4  0.2271823E-003  0.1706923E+03  0.7818608E-02  0.1177128E+00
         -4   -1    0    0    0  501 -0.00000000000E+00  0.00000000000E+00  0.68618628510E+03  0.68618746037E+03  0.12700000000E+01 0. -1.
          4   -1    0    0  502    0  0.00000000000E+00 -0.00000000000E+00 -0.74652564868E+02  0.74663366796E+02  0.12700000000E+01 0. -1.
         25    2    1    2    0    0  0.11523283124E+03  0.15296504557E+02  0.36975190415E+02  0.17465112345E+03  0.12499304688E+03 0.  0.
    9000005    1    3    3    0    0 -0.16595132809E+02  0.19584887452E+02  0.34131292501E+02  0.42718981463E+02  0.10000000000E+01 0.  0.
    9000005    1    3    3    0    0  0.13182796405E+03 -0.42883828950E+01  0.28438979138E+01  0.13193214198E+03  0.10000000000E+01 0.  0.
         21    1    1    2  502  501 -0.11523283124E+03 -0.15296504557E+02  0.57455852982E+03  0.58619970371E+03  0.00000000000E+00 0. -1.
<mgrwt>
<rscale>  1 0.17069227E+03</rscale>
<asrwt>0</asrwt>
<pdfrwt beam="2">  1        4 0.11485931E-01 0.17069227E+03</pdfrwt>
<pdfrwt beam="1">  1       -4 0.10556804E+00 0.17069227E+03</pdfrwt>
<totfact> 0.78483437E+01</totfact>
</mgrwt>
</event>
<event>
 6    4  0.2271823E-003  0.1381038E+03  0.7818608E-02  0.1215904E+00
          4   -1    0    0  502    0  0.00000000000E+00  0.00000000000E+00  0.10270336778E+02  0.10348561134E+02  0.12700000000E+01 0. -1.
         -4   -1    0    0    0  501 -0.00000000000E+00 -0.00000000000E+00 -0.13650810777E+04  0.13650816684E+04  0.12700000000E+01 0. -1.
         25    2    1    2    0    0  0.27655312154E+02 -0.51800142587E+02 -0.50349693861E+03  0.52209368341E+03  0.12499830401E+03 0.  0.
    9000005    1    3    3    0    0 -0.20530066215E+02  0.33961203400E+02 -0.14979771523E+03  0.15496839175E+03  0.10000000000E+01 0.  0.
    9000005    1    3    3    0    0  0.48185378369E+02 -0.85761345987E+02 -0.35369922338E+03  0.36712529166E+03  0.10000000000E+01 0.  0.
         21    1    1    2  502  501 -0.27655312154E+02  0.51800142587E+02 -0.85131380226E+03  0.85333654614E+03  0.00000000000E+00 0. -1.
<mgrwt>
<rscale>  1 0.13810375E+03</rscale>
<asrwt>0</asrwt>
<pdfrwt beam="1">  1        4 0.15861156E-02 0.13810375E+03</pdfrwt>
<pdfrwt beam="2">  1       -4 0.21001839E+00 0.13810375E+03</pdfrwt>
<totfact> 0.30875101E+02</totfact>
</mgrwt>
</event>
<event>
 6    4  0.2271823E-003  0.1301115E+03  0.7818608E-02  0.1227290E+00
         -4   -1    0    0    0  501 -0.00000000000E+00  0.00000000000E+00  0.44223194656E+02  0.44241426803E+02  0.12700000000E+01 0.  1.
          4   -1    0    0  502    0  0.00000000000E+00 -0.00000000000E+00 -0.37009712822E+03  0.37009930723E+03  0.12700000000E+01 0.  1.
         25    2    1    2    0    0  0.25061554022E+02 -0.25964298137E+02 -0.34833050818E+03  0.37183751050E+03  0.12500705986E+03 0.  0.
    9000005    1    3    3    0    0 -0.38726422293E+02 -0.18230396407E+01 -0.24482355369E+03  0.24787624270E+03  0.10000000000E+01 0.  0.
    9000005    1    3    3    0    0  0.63787976315E+02 -0.24141258496E+02 -0.10350695449E+03  0.12396126779E+03  0.10000000000E+01 0.  0.
         21    1    1    2  502  501 -0.25061554022E+02  0.25964298137E+02  0.22456574618E+02  0.42503223540E+02  0.00000000000E+00 0.  1.
<mgrwt>
<rscale>  1 0.13011146E+03</rscale>
<asrwt>0</asrwt>
<pdfrwt beam="2">  1        4 0.56939588E-01 0.13011146E+03</pdfrwt>
<pdfrwt beam="1">  1       -4 0.68051388E-02 0.13011146E+03</pdfrwt>
<totfact> 0.70234534E+02</totfact>
</mgrwt>
</event>
<event>
 6    4  0.2271823E-003  0.1266590E+03  0.7818608E-02  0.1232499E+00
         -4   -1    0    0    0  501 -0.00000000000E+00  0.00000000000E+00  0.27683805546E+02  0.27712920985E+02  0.12700000000E+01 0. -1.
          4   -1    0    0  502    0  0.00000000000E+00 -0.00000000000E+00 -0.20801183755E+03  0.20801571445E+03  0.12700000000E+01 0. -1.
         25    2    1    2    0    0 -0.26799069562E+01  0.20243871328E+02 -0.17216614958E+03  0.21373744283E+03  0.12500206070E+03 0.  0.
    9000005    1    3    3    0    0 -0.47358365303E+02  0.11896816146E+02 -0.15911018790E+03  0.16643737829E+03  0.10000000000E+01 0.  0.
    9000005    1    3    3    0    0  0.44678458347E+02  0.83470551814E+01 -0.13055961687E+02  0.47300064545E+02  0.10000000000E+01 0.  0.
         21    1    1    2  502  501  0.26799069562E+01 -0.20243871328E+02 -0.81618824165E+01  0.21991192606E+02  0.00000000000E+00 0. -1.
<mgrwt>
<rscale>  1 0.12665904E+03</rscale>
<asrwt>0</asrwt>
<pdfrwt beam="2">  1        4 0.32004358E-01 0.12665904E+03</pdfrwt>
<pdfrwt beam="1">  1       -4 0.42615850E-02 0.12665904E+03</pdfrwt>
<totfact> 0.46657447E+03</totfact>
</mgrwt>
</event>
<event>
 6    4  0.2271823E-003  0.1279398E+03  0.7818608E-02  0.1230545E+00
         -4   -1    0    0    0  501 -0.00000000000E+00  0.00000000000E+00  0.37150435085E+03  0.37150652161E+03  0.12700000000E+01 0. -1.
          4   -1    0    0  502    0  0.00000000000E+00 -0.00000000000E+00 -0.21803452762E+02  0.21840408704E+02  0.12700000000E+01 0. -1.
         25    2    1    2    0    0 -0.27221198841E+02 -0.15904807958E+01  0.17638769195E+03  0.21790180865E+03  0.12500022818E+03 0.  0.
    9000005    1    3    3    0    0 -0.15979292703E+00 -0.61767659343E+02  0.79611089382E+02  0.10076802482E+03  0.10000000000E+01 0.  0.
    9000005    1    3    3    0    0 -0.27061405914E+02  0.60177178548E+02  0.96776602569E+02  0.11713378382E+03  0.10000000000E+01 0.  0.
         21    1    1    2  502  501  0.27221198841E+02  0.15904807958E+01  0.17331320614E+03  0.17544512167E+03  0.00000000000E+00 0.  1.
<mgrwt>
<rscale>  1 0.12793975E+03</rscale>
<asrwt>0</asrwt>
<pdfrwt beam="2">  1        4 0.33573874E-02 0.12793975E+03</pdfrwt>
<pdfrwt beam="1">  1       -4 0.57157520E-01 0.12793975E+03</pdfrwt>
<totfact> 0.21542304E+03</totfact>
</mgrwt>
</event>
<event>
 6    4  0.2271823E-003  0.1291827E+03  0.7818608E-02  0.1228673E+00
         -4   -1    0    0    0  501 -0.00000000000E+00  0.00000000000E+00  0.27853510598E+03  0.27853800129E+03  0.12700000000E+01 0. -1.
          4   -1    0    0  502    0  0.00000000000E+00 -0.00000000000E+00 -0.39518326873E+02  0.39538728594E+02  0.12700000000E+01 0. -1.
         25    2    1    2    0    0  0.30067222022E+02  0.12625729227E+02  0.71972470665E+02  0.14787905698E+03  0.12499892832E+03 0.  0.
    9000005    1    3    3    0    0  0.32409353814E+02 -0.25445304889E+02  0.94830245256E+02  0.10340021843E+03  0.10000000000E+01 0.  0.
    9000005    1    3    3    0    0 -0.23421317916E+01  0.38071034116E+02 -0.22857774590E+02  0.44478838555E+02  0.10000000000E+01 0.  0.
         21    1    1    2  502  501 -0.30067222022E+02 -0.12625729227E+02  0.16704430844E+03  0.17019767290E+03  0.00000000000E+00 0. -1.
<mgrwt>
<rscale>  1 0.12918273E+03</rscale>
<asrwt>0</asrwt>
<pdfrwt beam="2">  1        4 0.60815345E-02 0.12918273E+03</pdfrwt>
<pdfrwt beam="1">  1       -4 0.42853348E-01 0.12918273E+03</pdfrwt>
<totfact> 0.15006111E+03</totfact>
</mgrwt>
</event>
<event>
 6    4  0.2271823E-003  0.1372129E+03  0.7818608E-02  0.1217129E+00
         -4   -1    0    0    0  501 -0.00000000000E+00  0.00000000000E+00  0.26106073735E+02  0.26136946758E+02  0.12700000000E+01 0.  1.
          4   -1    0    0  502    0  0.00000000000E+00 -0.00000000000E+00 -0.39801751431E+03  0.39801954047E+03  0.12700000000E+01 0.  1.
         25    2    1    2    0    0  0.56543676587E+02 -0.15626676710E+01 -0.31654383818E+03  0.34500346652E+03  0.12501104403E+03 0.  0.
    9000005    1    3    3    0    0  0.14970422396E+02 -0.53213156962E+02 -0.67343227484E+02  0.87131302691E+02  0.10000000000E+01 0.  0.
    9000005    1    3    3    0    0  0.41573254191E+02  0.51650489291E+02 -0.24920061070E+03  0.25787216383E+03  0.10000000000E+01 0.  0.
         21    1    1    2  502  501 -0.56543676587E+02  0.15626676710E+01 -0.55367602395E+02  0.79153020708E+02  0.00000000000E+00 0.  1.
<mgrwt>
<rscale>  1 0.13721294E+03</rscale>
<asrwt>0</asrwt>
<pdfrwt beam="2">  1        4 0.61235990E-01 0.13721294E+03</pdfrwt>
<pdfrwt beam="1">  1       -4 0.40188500E-02 0.13721294E+03</pdfrwt>
<totfact> 0.14254462E+03</totfact>
</mgrwt>
</event>
<event>
 6    4  0.2271823E-003  0.1288279E+03  0.7818608E-02  0.1229205E+00
          4   -1    0    0  502    0  0.00000000000E+00  0.00000000000E+00  0.10293992290E+02  0.10372038240E+02  0.12700000000E+01 0.  1.
         -4   -1    0    0    0  501 -0.00000000000E+00 -0.00000000000E+00 -0.64498827260E+03  0.64498952293E+03  0.12700000000E+01 0.  1.
         25    2    1    2    0    0  0.10090920275E+02 -0.29508073719E+02 -0.55562226098E+03  0.57036192984E+03  0.12499632403E+03 0.  0.
    9000005    1    3    3    0    0  0.25734410053E+02 -0.66794772002E+02 -0.47281928055E+03  0.47820798142E+03  0.10000000000E+01 0.  0.
    9000005    1    3    3    0    0 -0.15643489778E+02  0.37286698283E+02 -0.82802980428E+02  0.92153948418E+02  0.10000000000E+01 0.  0.
         21    1    1    2  502  501 -0.10090920275E+02  0.29508073719E+02 -0.79072019327E+02  0.84999631335E+02  0.00000000000E+00 0.  1.
<mgrwt>
<rscale>  1 0.12882792E+03</rscale>
<asrwt>0</asrwt>
<pdfrwt beam="1">  1        4 0.15897913E-02 0.12882792E+03</pdfrwt>
<pdfrwt beam="2">  1       -4 0.99235033E-01 0.12882792E+03</pdfrwt>
<totfact> 0.20553349E+03</totfact>
</mgrwt>
</event>
<event>
 6    4  0.2271823E-003  0.1279655E+03  0.7818608E-02  0.1230506E+00
         -4   -1    0    0    0  501 -0.00000000000E+00  0.00000000000E+00  0.46626365499E+03  0.46626538459E+03  0.12700000000E+01 0. -1.
          4   -1    0    0  502    0  0.00000000000E+00 -0.00000000000E+00 -0.49638399927E+02  0.49654643764E+02  0.12700000000E+01 0. -1.
         25    2    1    2    0    0  0.11256906076E+02 -0.24946768297E+02  0.34119076487E+02  0.13243595328E+03  0.12500444456E+03 0.  0.
    9000005    1    3    3    0    0 -0.64661308948E+01 -0.59559378829E+02 -0.22277657883E+02  0.63925147603E+02  0.10000000000E+01 0.  0.
    9000005    1    3    3    0    0  0.17723036971E+02  0.34612610532E+02  0.56396734371E+02  0.68510805681E+02  0.10000000000E+01 0.  0.
         21    1    1    2  502  501 -0.11256906076E+02  0.24946768297E+02  0.38250617857E+03  0.38348407507E+03  0.00000000000E+00 0. -1.
<mgrwt>
<rscale>  1 0.12796550E+03</rscale>
<asrwt>0</asrwt>
<pdfrwt beam="2">  1        4 0.76380590E-02 0.12796550E+03</pdfrwt>
<pdfrwt beam="1">  1       -4 0.71734257E-01 0.12796550E+03</pdfrwt>
<totfact> 0.35475246E+02</totfact>
</mgrwt>
</event>
<event>
 6    4  0.2271823E-003  0.1268856E+03  0.7818608E-02  0.1232152E+00
          4   -1    0    0  502    0  0.00000000000E+00  0.00000000000E+00  0.46673850449E+01  0.48370841586E+01  0.12700000000E+01 0. -1.
         -4   -1    0    0    0  501 -0.00000000000E+00 -0.00000000000E+00 -0.12297915756E+04  0.12297922313E+04  0.12700000000E+01 0. -1.
         25    2    1    2    0    0  0.16293480754E+02 -0.14516656050E+02 -0.91752556547E+03  0.92625758372E+03  0.12499494907E+03 0.  0.
    9000005    1    3    3    0    0  0.61643684104E+02  0.19706979427E+02 -0.61878090357E+03  0.62215682545E+03  0.10000000000E+01 0.  0.
    9000005    1    3    3    0    0 -0.45350203350E+02 -0.34223635477E+02 -0.29874466190E+03  0.30410075827E+03  0.10000000000E+01 0.  0.
         21    1    1    2  502  501 -0.16293480754E+02  0.14516656050E+02 -0.30759862506E+03  0.30837173178E+03  0.00000000000E+00 0. -1.
<mgrwt>
<rscale>  1 0.12688557E+03</rscale>
<asrwt>0</asrwt>
<pdfrwt beam="1">  1        4 0.73116444E-03 0.12688557E+03</pdfrwt>
<pdfrwt beam="2">  1       -4 0.18921156E+00 0.12688557E+03</pdfrwt>
<totfact> 0.13168937E+03</totfact>
</mgrwt>
</event>
<event>
 6    4  0.2271823E-003  0.1274828E+03  0.7818608E-02  0.1231239E+00
          4   -1    0    0  502    0  0.00000000000E+00  0.00000000000E+00  0.13085277469E+04  0.13085283632E+04  0.12700000000E+01 0.  1.
         -4   -1    0    0    0  501 -0.00000000000E+00 -0.00000000000E+00 -0.85662621433E+01  0.86598930195E+01  0.12700000000E+01 0.  1.
         25    2    1    2    0    0 -0.24966680491E+02 -0.48349675001E+00  0.12767384006E+04  0.12830872219E+04  0.12501322549E+03 0.  0.
    9000005    1    3    3    0    0 -0.35194428733E+02 -0.55075078994E+02  0.48238058746E+03  0.48678942398E+03  0.10000000000E+01 0.  0.
    9000005    1    3    3    0    0  0.10227748243E+02  0.54591582244E+02  0.79435781309E+03  0.79629779787E+03  0.10000000000E+01 0.  0.
         21    1    1    2  502  501  0.24966680491E+02  0.48349675001E+00  0.23223084162E+02  0.34101034322E+02  0.00000000000E+00 0.  1.
<mgrwt>
<rscale>  1 0.12748284E+03</rscale>
<asrwt>0</asrwt>
<pdfrwt beam="1">  1        4 0.20131904E+00 0.12748284E+03</pdfrwt>
<pdfrwt beam="2">  1       -4 0.13251374E-02 0.12748284E+03</pdfrwt>
<totfact> 0.45271141E+02</totfact>
</mgrwt>
</event>
<event>
 6    4  0.2271823E-003  0.1413013E+03  0.7818608E-02  0.1211589E+00
          4   -1    0    0  502    0  0.00000000000E+00  0.00000000000E+00  0.66461049432E+02  0.66473182500E+02  0.12700000000E+01 0. -1.
         -4   -1    0    0    0  501 -0.00000000000E+00 -0.00000000000E+00 -0.25922829090E+03  0.25923140185E+03  0.12700000000E+01 0. -1.
         25    2    1    2    0    0  0.20912248507E+02  0.62491110484E+02 -0.22437141618E+02  0.14307160829E+03  0.12499439487E+03 0.  0.
    9000005    1    3    3    0    0  0.41400751194E+02 -0.18174062708E+02 -0.37176522871E+02  0.58544108222E+02  0.10000000000E+01 0.  0.
    9000005    1    3    3    0    0 -0.20488502687E+02  0.80665173193E+02  0.14739381253E+02  0.84527500071E+02  0.10000000000E+01 0.  0.
         21    1    1    2  502  501 -0.20912248507E+02 -0.62491110484E+02 -0.17033009985E+03  0.18263297606E+03  0.00000000000E+00 0. -1.
<mgrwt>
<rscale>  1 0.14130131E+03</rscale>
<asrwt>0</asrwt>
<pdfrwt beam="1">  1        4 0.10225950E-01 0.14130131E+03</pdfrwt>
<pdfrwt beam="2">  1       -4 0.39882448E-01 0.14130131E+03</pdfrwt>
<totfact> 0.74556109E+02</totfact>
</mgrwt>
</event>
<event>
 6    4  0.2271823E-003  0.1273789E+03  0.7818608E-02  0.1231398E+00
         -4   -1    0    0    0  501 -0.00000000000E+00  0.00000000000E+00  0.59857546027E+02  0.59871017332E+02  0.12700000000E+01 0. -1.
          4   -1    0    0  502    0  0.00000000000E+00 -0.00000000000E+00 -0.96793047402E+02  0.96801378737E+02  0.12700000000E+01 0. -1.
         25    2    1    2    0    0 -0.21437247203E+02 -0.11867369198E+02 -0.34964106439E+02  0.13209036163E+03  0.12499993951E+03 0.  0.
    9000005    1    3    3    0    0  0.51369587226E+02  0.55679053528E+01 -0.21706443203E+02  0.56053597015E+02  0.10000000000E+01 0.  0.
    9000005    1    3    3    0    0 -0.72806834429E+02 -0.17435274551E+02 -0.13257663236E+02  0.76036764612E+02  0.10000000000E+01 0.  0.
         21    1    1    2  502  501  0.21437247203E+02  0.11867369198E+02 -0.19713949361E+01  0.24582034442E+02  0.00000000000E+00 0.  1.
<mgrwt>
<rscale>  1 0.12737886E+03</rscale>
<asrwt>0</asrwt>
<pdfrwt beam="2">  1        4 0.14892915E-01 0.12737886E+03</pdfrwt>
<pdfrwt beam="1">  1       -4 0.92105303E-02 0.12737886E+03</pdfrwt>
<totfact> 0.53465430E+03</totfact>
</mgrwt>
</event>
<event>
 6    4  0.2271823E-003  0.1271647E+03  0.7818608E-02  0.1231724E+00
          4   -1    0    0  502    0  0.00000000000E+00  0.00000000000E+00  0.81668868434E+03  0.81668967180E+03  0.12700000000E+01 0.  1.
         -4   -1    0    0    0  501 -0.00000000000E+00 -0.00000000000E+00 -0.70376455948E+01  0.71513184461E+01  0.12700000000E+01 0.  1.
         25    2    1    2    0    0 -0.18692997970E+02 -0.14019208824E+02  0.72283742182E+03  0.73393787310E+03  0.12499958720E+03 0.  0.
    9000005    1    3    3    0    0 -0.44225083984E+02  0.15330243367E+01  0.68137749052E+03  0.68281365892E+03  0.10000000000E+01 0.  0.
    9000005    1    3    3    0    0  0.25532086014E+02 -0.15552233161E+02  0.41459931300E+02  0.51124214184E+02  0.10000000000E+01 0.  0.
         21    1    1    2  502  501  0.18692997970E+02  0.14019208824E+02  0.86813616927E+02  0.89903117149E+02  0.00000000000E+00 0.  1.
<mgrwt>
<rscale>  1 0.12716471E+03</rscale>
<asrwt>0</asrwt>
<pdfrwt beam="1">  1        4 0.12565323E+00 0.12716471E+03</pdfrwt>
<pdfrwt beam="2">  1       -4 0.10915348E-02 0.12716471E+03</pdfrwt>
<totfact> 0.20748322E+03</totfact>
</mgrwt>
</event>
<event>
 6    4  0.2271823E-003  0.1276656E+03  0.7818608E-02  0.1230961E+00
          4   -1    0    0  502    0  0.00000000000E+00  0.00000000000E+00  0.43175848269E+03  0.43176035051E+03  0.12700000000E+01 0. -1.
         -4   -1    0    0    0  501 -0.00000000000E+00 -0.00000000000E+00 -0.13832744841E+02  0.13890922569E+02  0.12700000000E+01 0. -1.
         25    2    1    2    0    0 -0.79358144081E+01  0.24706068287E+02  0.32515683927E+03  0.34932144643E+03  0.12500054339E+03 0.  0.
    9000005    1    3    3    0    0  0.23047209315E+02 -0.49112630058E+01  0.23754980341E+01  0.23705217832E+02  0.10000000000E+01 0.  0.
    9000005    1    3    3    0    0 -0.30983023723E+02  0.29617331293E+02  0.32278134124E+03  0.32561622860E+03  0.10000000000E+01 0.  0.
         21    1    1    2  502  501  0.79358144081E+01 -0.24706068287E+02  0.92768898571E+02  0.96329826651E+02  0.00000000000E+00 0.  1.
<mgrwt>
<rscale>  1 0.12766559E+03</rscale>
<asrwt>0</asrwt>
<pdfrwt beam="1">  1        4 0.66429000E-01 0.12766559E+03</pdfrwt>
<pdfrwt beam="2">  1       -4 0.21327335E-02 0.12766559E+03</pdfrwt>
<totfact> 0.31793484E+03</totfact>
</mgrwt>
</event>
<event>
 6    4  0.2271823E-003  0.1279264E+03  0.7818608E-02  0.1230565E+00
          4   -1    0    0  502    0  0.00000000000E+00  0.00000000000E+00  0.38962926918E+02  0.38983619304E+02  0.12700000000E+01 0.  1.
         -4   -1    0    0    0  501 -0.00000000000E+00 -0.00000000000E+00 -0.15842863313E+03  0.15843372335E+03  0.12700000000E+01 0.  1.
         25    2    1    2    0    0 -0.27218939472E+02 -0.40924041836E+00 -0.85407238545E+02  0.15381668482E+03  0.12499655191E+03 0.  0.
    9000005    1    3    3    0    0  0.20297392595E+02 -0.52690508304E+02 -0.46522011784E+02  0.73168103651E+02  0.10000000000E+01 0.  0.
    9000005    1    3    3    0    0 -0.47516332066E+02  0.52281267886E+02 -0.38885226762E+02  0.80648581172E+02  0.10000000000E+01 0.  0.
         21    1    1    2  502  501  0.27218939472E+02  0.40924041836E+00 -0.34058467662E+02  0.43600657829E+02  0.00000000000E+00 0.  1.
<mgrwt>
<rscale>  1 0.12792645E+03</rscale>
<asrwt>0</asrwt>
<pdfrwt beam="1">  1        4 0.59962798E-02 0.12792645E+03</pdfrwt>
<pdfrwt beam="2">  1       -4 0.24375619E-01 0.12792645E+03</pdfrwt>
<totfact> 0.44962246E+03</totfact>
</mgrwt>
</event>
<event>
 6    4  0.2271823E-003  0.1300782E+03  0.7818608E-02  0.1227340E+00
          4   -1    0    0  502    0  0.00000000000E+00  0.00000000000E+00  0.63891641413E+02  0.63904262319E+02  0.12700000000E+01 0.  1.
         -4   -1    0    0    0  501 -0.00000000000E+00 -0.00000000000E+00 -0.30056919356E+03  0.30057187663E+03  0.12700000000E+01 0.  1.
         25    2    1    2    0    0  0.80250935229E+01  0.35092015426E+02 -0.51640263616E+01  0.13018067528E+03  0.12499795748E+03 0.  0.
    9000005    1    3    3    0    0  0.13836840831E+02  0.27974370213E+02  0.58252696741E+02  0.66093874380E+02  0.10000000000E+01 0.  0.
    9000005    1    3    3    0    0 -0.58117473084E+01  0.71176452130E+01 -0.63416723103E+02  0.64086800897E+02  0.10000000000E+01 0.  0.
         21    1    1    2  502  501 -0.80250935229E+01 -0.35092015426E+02 -0.23151352579E+03  0.23429546367E+03  0.00000000000E+00 0.  1.
<mgrwt>
<rscale>  1 0.13007821E+03</rscale>
<asrwt>0</asrwt>
<pdfrwt beam="1">  1        4 0.98306607E-02 0.13007821E+03</pdfrwt>
<pdfrwt beam="2">  1       -4 0.46242591E-01 0.13007821E+03</pdfrwt>
<totfact> 0.58392288E+02</totfact>
</mgrwt>
</event>
<event>
 6    4  0.2271823E-003  0.1460934E+03  0.7818608E-02  0.1205357E+00
         -4   -1    0    0    0  501 -0.00000000000E+00  0.00000000000E+00  0.44331269503E+03  0.44331451417E+03  0.12700000000E+01 0.  1.
          4   -1    0    0  502    0  0.00000000000E+00 -0.00000000000E+00 -0.32826419729E+02  0.32850977645E+02  0.12700000000E+01 0.  1.
         25    2    1    2    0    0  0.74375030241E+02 -0.13734503624E+02  0.17042924177E+03  0.22447587928E+03  0.12499204860E+03 0.  0.
    9000005    1    3    3    0    0  0.68039252556E+02  0.10991354022E+02  0.19828173359E+02  0.71723818989E+02  0.10000000000E+01 0.  0.
    9000005    1    3    3    0    0  0.63357776845E+01 -0.24725857646E+02  0.15060106841E+03  0.15275206029E+03  0.10000000000E+01 0.  0.
         21    1    1    2  502  501 -0.74375030241E+02  0.13734503624E+02  0.24005703352E+03  0.25168961253E+03  0.00000000000E+00 0.  1.
<mgrwt>
<rscale>  1 0.14609344E+03</rscale>
<asrwt>0</asrwt>
<pdfrwt beam="2">  1        4 0.50522474E-02 0.14609344E+03</pdfrwt>
<pdfrwt beam="1">  1       -4 0.68203982E-01 0.14609344E+03</pdfrwt>
<totfact> 0.79596262E+02</totfact>
</mgrwt>
</event>
<event>
 6    4  0.2271823E-003  0.1283802E+03  0.7818608E-02  0.1229879E+00
          4   -1    0    0  502    0  0.00000000000E+00  0.00000000000E+00  0.20192826980E+03  0.20193226350E+03  0.12700000000E+01 0. -1.
         -4   -1    0    0    0  501 -0.00000000000E+00 -0.00000000000E+00 -0.33305092977E+02  0.33329298195E+02  0.12700000000E+01 0. -1.
         25    2    1    2    0    0  0.28676841942E+02 -0.58967846289E+01  0.15918146978E+03  0.20449991082E+03  0.12499735946E+03 0.  0.
    9000005    1    3    3    0    0  0.65904652132E+02 -0.32742356067E+02  0.59091910752E+02  0.94383997424E+02  0.10000000000E+01 0.  0.
    9000005    1    3    3    0    0 -0.37227810189E+02  0.26845571438E+02  0.10008955903E+03  0.11011591340E+03  0.10000000000E+01 0.  0.
         21    1    1    2  502  501 -0.28676841942E+02  0.58967846289E+01  0.94417070408E+01  0.30761650876E+02  0.00000000000E+00 0. -1.
<mgrwt>
<rscale>  1 0.12838019E+03</rscale>
<asrwt>0</asrwt>
<pdfrwt beam="1">  1        4 0.31068057E-01 0.12838019E+03</pdfrwt>
<pdfrwt beam="2">  1       -4 0.51260296E-02 0.12838019E+03</pdfrwt>
<totfact> 0.36861117E+03</totfact>
</mgrwt>
</event>
<event>
 6    4  0.2271823E-003  0.1287249E+03  0.7818608E-02  0.1229360E+00
         -4   -1    0    0    0  501 -0.00000000000E+00  0.00000000000E+00  0.38145337552E+02  0.38166473205E+02  0.12700000000E+01 0. -1.
          4   -1    0    0  502    0  0.00000000000E+00 -0.00000000000E+00 -0.19243500777E+03  0.19243919849E+03  0.12700000000E+01 0. -1.
         25    2    1    2    0    0 -0.50449868330E+01 -0.30332560753E+02 -0.15283575678E+03  0.19982207219E+03  0.12499830340E+03 0.  0.
    9000005    1    3    3    0    0 -0.41235265623E+02  0.29457424694E+02 -0.31157631889E+02  0.59496932909E+02  0.10000000000E+01 0.  0.
    9000005    1    3    3    0    0  0.36190278790E+02 -0.59789985447E+02 -0.12167812489E+03  0.14032513928E+03  0.10000000000E+01 0.  0.
         21    1    1    2  502  501  0.50449868330E+01  0.30332560753E+02 -0.14539134396E+01  0.30783599501E+02  0.00000000000E+00 0. -1.
<mgrwt>
<rscale>  1 0.12872487E+03</rscale>
<asrwt>0</asrwt>
<pdfrwt beam="2">  1        4 0.29607333E-01 0.12872487E+03</pdfrwt>
<pdfrwt beam="1">  1       -4 0.58704618E-02 0.12872487E+03</pdfrwt>
<totfact> 0.32457296E+03</totfact>
</mgrwt>
</event>
<event>
 6    4  0.2271823E-003  0.1275729E+03  0.7818608E-02  0.1231102E+00
          4   -1    0    0  502    0  0.00000000000E+00  0.00000000000E+00  0.67794196516E+01  0.68973495498E+01  0.12700000000E+01 0. -1.
         -4   -1    0    0    0  501 -0.00000000000E+00 -0.00000000000E+00 -0.93520995094E+03  0.93521081325E+03  0.12700000000E+01 0. -1.
         25    2    1    2    0    0 -0.23668003815E+02 -0.95027261579E+01 -0.64252661780E+03  0.65506892515E+03  0.12499746359E+03 0.  0.
    9000005    1    3    3    0    0  0.31277168302E+02 -0.25896226268E+02 -0.80924287306E+02  0.90546209572E+02  0.10000000000E+01 0.  0.
    9000005    1    3    3    0    0 -0.54945172117E+02  0.16393500110E+02 -0.56160233050E+03  0.56452271558E+03  0.10000000000E+01 0.  0.
         21    1    1    2  502  501  0.23668003815E+02  0.95027261579E+01 -0.28590391348E+03  0.28703923765E+03  0.00000000000E+00 0. -1.
<mgrwt>
<rscale>  1 0.12757289E+03</rscale>
<asrwt>0</asrwt>
<pdfrwt beam="1">  1        4 0.10521262E-02 0.12757289E+03</pdfrwt>
<pdfrwt beam="2">  1       -4 0.14388749E+00 0.12757289E+03</pdfrwt>
<totfact> 0.15711426E+03</totfact>
</mgrwt>
</event>
<event>
 6    4  0.2271823E-003  0.1286658E+03  0.7818608E-02  0.1229449E+00
          4   -1    0    0  502    0  0.00000000000E+00  0.00000000000E+00  0.10484485032E+02  0.10561123348E+02  0.12700000000E+01 0.  1.
         -4   -1    0    0    0  501 -0.00000000000E+00 -0.00000000000E+00 -0.65390505329E+03  0.65390628657E+03  0.12700000000E+01 0.  1.
         25    2    1    2    0    0  0.23777382171E+02  0.19070398819E+02 -0.42862985531E+03  0.44752480373E+03  0.12500341224E+03 0.  0.
    9000005    1    3    3    0    0 -0.43447449564E+02  0.38715781007E+02 -0.17668706705E+03  0.18602664388E+03  0.10000000000E+01 0.  0.
    9000005    1    3    3    0    0  0.67224831735E+02 -0.19645382188E+02 -0.25194278826E+03  0.26149815984E+03  0.10000000000E+01 0.  0.
         21    1    1    2  502  501 -0.23777382171E+02 -0.19070398819E+02 -0.21479071294E+03  0.21694260619E+03  0.00000000000E+00 0.  1.
<mgrwt>
<rscale>  1 0.12866583E+03</rscale>
<asrwt>0</asrwt>
<pdfrwt beam="1">  1        4 0.16189883E-02 0.12866583E+03</pdfrwt>
<pdfrwt beam="2">  1       -4 0.10060674E+00 0.12866583E+03</pdfrwt>
<totfact> 0.19360705E+03</totfact>
</mgrwt>
</event>
<event>
 6    4  0.2271823E-003  0.1291271E+03  0.7818608E-02  0.1228757E+00
          4   -1    0    0  502    0  0.00000000000E+00  0.00000000000E+00  0.70868469339E+03  0.70868583134E+03  0.12700000000E+01 0. -1.
         -4   -1    0    0    0  501 -0.00000000000E+00 -0.00000000000E+00 -0.98509812677E+01  0.99325088440E+01  0.12700000000E+01 0. -1.
         25    2    1    2    0    0  0.30994010989E+02 -0.93748063860E+01  0.46658956379E+03  0.48412770040E+03  0.12500117418E+03 0.  0.
    9000005    1    3    3    0    0  0.77520907430E+02 -0.21453334685E+02  0.26879854407E+03  0.28057689490E+03  0.10000000000E+01 0.  0.
    9000005    1    3    3    0    0 -0.46526896441E+02  0.12078528299E+02  0.19779101972E+03  0.20355080550E+03  0.10000000000E+01 0.  0.
         21    1    1    2  502  501 -0.30994010989E+02  0.93748063860E+01  0.23224414834E+03  0.23449063979E+03  0.00000000000E+00 0. -1.
<mgrwt>
<rscale>  1 0.12912711E+03</rscale>
<asrwt>0</asrwt>
<pdfrwt beam="1">  1        4 0.10903482E+00 0.12912711E+03</pdfrwt>
<pdfrwt beam="2">  1       -4 0.15218938E-02 0.12912711E+03</pdfrwt>
<totfact> 0.17647175E+03</totfact>
</mgrwt>
</event>
<event>
 6    4  0.2271823E-003  0.1280660E+03  0.7818608E-02  0.1230354E+00
         -4   -1    0    0    0  501 -0.00000000000E+00  0.00000000000E+00  0.39248582736E+03  0.39248788208E+03  0.12700000000E+01 0.  1.
          4   -1    0    0  502    0  0.00000000000E+00 -0.00000000000E+00 -0.15615631660E+02  0.15667190308E+02  0.12700000000E+01 0.  1.
         25    2    1    2    0    0  0.17274901236E+02  0.21858014565E+02  0.29260120562E+03  0.31940002913E+03  0.12499887227E+03 0.  0.
    9000005    1    3    3    0    0  0.61166171512E+02  0.27417884171E+02  0.24667715956E+03  0.25562406373E+03  0.10000000000E+01 0.  0.
    9000005    1    3    3    0    0 -0.43891270276E+02 -0.55598696060E+01  0.45924046055E+02  0.63775965399E+02  0.10000000000E+01 0.  0.
         21    1    1    2  502  501 -0.17274901236E+02 -0.21858014565E+02  0.84268990084E+02  0.88755043255E+02  0.00000000000E+00 0. -1.
<mgrwt>
<rscale>  1 0.12806605E+03</rscale>
<asrwt>0</asrwt>
<pdfrwt beam="2">  1        4 0.24065291E-02 0.12806605E+03</pdfrwt>
<pdfrwt beam="1">  1       -4 0.60386555E-01 0.12806605E+03</pdfrwt>
<totfact> 0.32303378E+03</totfact>
</mgrwt>
</event>
<event>
 6    4  0.2271823E-003  0.1277315E+03  0.7818608E-02  0.1230861E+00
          4   -1    0    0  502    0  0.00000000000E+00  0.00000000000E+00  0.12099201925E+03  0.12099868438E+03  0.12700000000E+01 0.  1.
         -4   -1    0    0    0  501 -0.00000000000E+00 -0.00000000000E+00 -0.54117537224E+02  0.54132436996E+02  0.12700000000E+01 0.  1.
         25    2    1    2    0    0  0.14281867939E+02 -0.22049214223E+02  0.74379674991E+02  0.14780956356E+03  0.12500076572E+03 0.  0.
    9000005    1    3    3    0    0  0.24964375220E+02  0.16638643995E+01 -0.30664381498E+02  0.39589048580E+02  0.10000000000E+01 0.  0.
    9000005    1    3    3    0    0 -0.10682507281E+02 -0.23713078623E+02  0.10504405649E+03  0.10822051498E+03  0.10000000000E+01 0.  0.
         21    1    1    2  502  501 -0.14281867939E+02  0.22049214223E+02 -0.75051929693E+01  0.27321557810E+02  0.00000000000E+00 0.  1.
<mgrwt>
<rscale>  1 0.12773148E+03</rscale>
<asrwt>0</asrwt>
<pdfrwt beam="1">  1        4 0.18615815E-01 0.12773148E+03</pdfrwt>
<pdfrwt beam="2">  1       -4 0.83274339E-02 0.12773148E+03</pdfrwt>
<totfact> 0.42711369E+03</totfact>
</mgrwt>
</event>
<event>
 6    4  0.2271823E-003  0.1310392E+03  0.7818608E-02  0.1225922E+00
         -4   -1    0    0    0  501 -0.00000000000E+00  0.00000000000E+00  0.64766906421E+02  0.64779356799E+02  0.12700000000E+01 0.  1.
          4   -1    0    0  502    0  0.00000000000E+00 -0.00000000000E+00 -0.13715252770E+03  0.13715840752E+03  0.12700000000E+01 0.  1.
         25    2    1    2    0    0 -0.37824395199E+02  0.10717307442E+02 -0.89886217881E+02  0.15890502757E+03  0.12500292024E+03 0.  0.
    9000005    1    3    3    0    0  0.65287469572E+00  0.36010781682E+02  0.18960615237E+02  0.40714955150E+02  0.10000000000E+01 0.  0.
    9000005    1    3    3    0    0 -0.38477269895E+02 -0.25293474240E+02 -0.10884683312E+03  0.11819007242E+03  0.10000000000E+01 0.  0.
         21    1    1    2  502  501  0.37824395199E+02 -0.10717307442E+02  0.17500596606E+02  0.43032736754E+02  0.00000000000E+00 0.  1.
<mgrwt>
<rscale>  1 0.13103921E+03</rscale>
<asrwt>0</asrwt>
<pdfrwt beam="2">  1        4 0.21101799E-01 0.13103921E+03</pdfrwt>
<pdfrwt beam="1">  1       -4 0.99655495E-02 0.13103921E+03</pdfrwt>
<totfact> 0.25419702E+03</totfact>
</mgrwt>
</event>
<event>
 6    4  0.2271823E-003  0.1276390E+03  0.7818608E-02  0.1231002E+00
         -4   -1    0    0    0  501 -0.00000000000E+00  0.00000000000E+00  0.12167991173E+03  0.12168653918E+03  0.12700000000E+01 0. -1.
          4   -1    0    0  502    0  0.00000000000E+00 -0.00000000000E+00 -0.17181134520E+03  0.17181603894E+03  0.12700000000E+01 0. -1.
         25    2    1    2    0    0  0.19930906909E+02  0.16392211467E+02 -0.14617130499E+03  0.19405609720E+03  0.12500309121E+03 0.  0.
    9000005    1    3    3    0    0  0.45079909474E+02 -0.42759250388E+02 -0.58521476264E+02  0.85359913988E+02  0.10000000000E+01 0.  0.
    9000005    1    3    3    0    0 -0.25149002564E+02  0.59151461855E+02 -0.87649828723E+02  0.10869618321E+03  0.10000000000E+01 0.  0.
         21    1    1    2  502  501 -0.19930906909E+02 -0.16392211467E+02  0.96039871519E+02  0.99446480925E+02  0.00000000000E+00 0. -1.
<mgrwt>
<rscale>  1 0.12763902E+03</rscale>
<asrwt>0</asrwt>
<pdfrwt beam="2">  1        4 0.26433386E-01 0.12763902E+03</pdfrwt>
<pdfrwt beam="1">  1       -4 0.18720857E-01 0.12763902E+03</pdfrwt>
<totfact> 0.56185814E+02</totfact>
</mgrwt>
</event>
<event>
 6    4  0.2271823E-003  0.1387896E+03  0.7818608E-02  0.1214967E+00
         -4   -1    0    0    0  501 -0.00000000000E+00  0.00000000000E+00  0.29361448979E+03  0.29361723641E+03  0.12700000000E+01 0.  1.
          4   -1    0    0  502    0  0.00000000000E+00 -0.00000000000E+00 -0.35711530474E+02  0.35734105681E+02  0.12700000000E+01 0.  1.
         25    2    1    2    0    0  0.57651206347E+02 -0.17717627181E+02  0.14122876385E+03  0.19801039724E+03  0.12499991108E+03 0.  0.
    9000005    1    3    3    0    0  0.94515477490E+02 -0.29919760438E+02  0.11069079014E+03  0.14859952413E+03  0.10000000000E+01 0.  0.
    9000005    1    3    3    0    0 -0.36864271143E+02  0.12202133257E+02  0.30537973706E+02  0.49410873105E+02  0.10000000000E+01 0.  0.
         21    1    1    2  502  501 -0.57651206347E+02  0.17717627181E+02  0.11667419547E+03  0.13134094485E+03  0.00000000000E+00 0.  1.
<mgrwt>
<rscale>  1 0.13878960E+03</rscale>
<asrwt>0</asrwt>
<pdfrwt beam="2">  1        4 0.54960294E-02 0.13878960E+03</pdfrwt>
<pdfrwt beam="1">  1       -4 0.45173408E-01 0.13878960E+03</pdfrwt>
<totfact> 0.16168103E+03</totfact>
</mgrwt>
</event>
<event>
 6    4  0.2271823E-003  0.1317485E+03  0.7818608E-02  0.1224884E+00
          4   -1    0    0  502    0  0.00000000000E+00  0.00000000000E+00  0.12765677199E+02  0.12828694959E+02  0.12700000000E+01 0.  1.
         -4   -1    0    0    0  501 -0.00000000000E+00 -0.00000000000E+00 -0.58758372038E+03  0.58758509287E+03  0.12700000000E+01 0.  1.
         25    2    1    2    0    0  0.10454035377E+02  0.40298600161E+02 -0.44330245079E+03  0.46246591698E+03  0.12499758979E+03 0.  0.
    9000005    1    3    3    0    0 -0.18573998369E+02  0.27770730186E+02 -0.22083787606E+02  0.40061209985E+02  0.10000000000E+01 0.  0.
    9000005    1    3    3    0    0  0.29028033745E+02  0.12527869975E+02 -0.42121866319E+03  0.42240470699E+03  0.10000000000E+01 0.  0.
         21    1    1    2  502  501 -0.10454035377E+02 -0.40298600161E+02 -0.13151559239E+03  0.13794787085E+03  0.00000000000E+00 0.  1.
<mgrwt>
<rscale>  1 0.13174848E+03</rscale>
<asrwt>0</asrwt>
<pdfrwt beam="1">  1        4 0.19689039E-02 0.13174848E+03</pdfrwt>
<pdfrwt beam="2">  1       -4 0.90402427E-01 0.13174848E+03</pdfrwt>
<totfact> 0.18413463E+03</totfact>
</mgrwt>
</event>
<event>
 6    4  0.2271823E-003  0.1272506E+03  0.7818608E-02  0.1231593E+00
         -4   -1    0    0    0  501 -0.00000000000E+00  0.00000000000E+00  0.36874546136E+03  0.36874764836E+03  0.12700000000E+01 0.  1.
          4   -1    0    0  502    0  0.00000000000E+00 -0.00000000000E+00 -0.15554173804E+02  0.15605935497E+02  0.12700000000E+01 0.  1.
         25    2    1    2    0    0 -0.12472573419E+02  0.20328252780E+02  0.28520108094E+03  0.31230171959E+03  0.12499561809E+03 0.  0.
    9000005    1    3    3    0    0 -0.50850026428E+02 -0.30636151518E+02  0.17694770202E+03  0.18664347890E+03  0.10000000000E+01 0.  0.
    9000005    1    3    3    0    0  0.38377453009E+02  0.50964404299E+02  0.10825337892E+03  0.12565824068E+03  0.10000000000E+01 0.  0.
         21    1    1    2  502  501  0.12472573419E+02 -0.20328252780E+02  0.67990206617E+02  0.72051864268E+02  0.00000000000E+00 0.  1.
<mgrwt>
<rscale>  1 0.12725057E+03</rscale>
<asrwt>0</asrwt>
<pdfrwt beam="2">  1        4 0.23970998E-02 0.12725057E+03</pdfrwt>
<pdfrwt beam="1">  1       -4 0.56734219E-01 0.12725057E+03</pdfrwt>
<totfact> 0.36965412E+03</totfact>
</mgrwt>
</event>
<event>
 6    4  0.2271823E-003  0.1340291E+03  0.7818608E-02  0.1221597E+00
         -4   -1    0    0    0  501 -0.00000000000E+00  0.00000000000E+00  0.22395964770E+03  0.22396324854E+03  0.12700000000E+01 0.  1.
          4   -1    0    0  502    0  0.00000000000E+00 -0.00000000000E+00 -0.10798273153E+03  0.10799019959E+03  0.12700000000E+01 0.  1.
         25    2    1    2    0    0 -0.11959376186E+02  0.46861452344E+02 -0.61890056505E+02  0.14762851123E+03  0.12499910336E+03 0.  0.
    9000005    1    3    3    0    0  0.28538116613E+02  0.33543566973E+02  0.25134195182E+02  0.50718071262E+02  0.10000000000E+01 0.  0.
    9000005    1    3    3    0    0 -0.40497492798E+02  0.13317885371E+02 -0.87024251687E+02  0.96910439971E+02  0.10000000000E+01 0.  0.
         21    1    1    2  502  501  0.11959376186E+02 -0.46861452344E+02  0.17786697268E+03  0.18432493690E+03  0.00000000000E+00 0.  1.
<mgrwt>
<rscale>  1 0.13402909E+03</rscale>
<asrwt>0</asrwt>
<pdfrwt beam="2">  1        4 0.16613580E-01 0.13402909E+03</pdfrwt>
<pdfrwt beam="1">  1       -4 0.34456182E-01 0.13402909E+03</pdfrwt>
<totfact> 0.42483619E+02</totfact>
</mgrwt>
</event>
<event>
 6    4  0.2271823E-003  0.1283838E+03  0.7818608E-02  0.1229874E+00
         -4   -1    0    0    0  501 -0.00000000000E+00  0.00000000000E+00  0.10449465757E+03  0.10450237490E+03  0.12700000000E+01 0.  1.
          4   -1    0    0  502    0  0.00000000000E+00 -0.00000000000E+00 -0.59498981961E+02  0.59512534430E+02  0.12700000000E+01 0.  1.
         25    2    1    2    0    0  0.16518610065E+02  0.24175564058E+02  0.34894017104E+02  0.13304127731E+03  0.12500026665E+03 0.  0.
    9000005    1    3    3    0    0  0.30630549169E+02 -0.42373648601E+02  0.38454983739E+02  0.64911804878E+02  0.10000000000E+01 0.  0.
    9000005    1    3    3    0    0 -0.14111939103E+02  0.66549212659E+02 -0.35609666345E+01  0.68129472434E+02  0.10000000000E+01 0.  0.
         21    1    1    2  502  501 -0.16518610065E+02 -0.24175564058E+02  0.10101658501E+02  0.30973632019E+02  0.00000000000E+00 0. -1.
<mgrwt>
<rscale>  1 0.12838376E+03</rscale>
<asrwt>0</asrwt>
<pdfrwt beam="2">  1        4 0.91553257E-02 0.12838376E+03</pdfrwt>
<pdfrwt beam="1">  1       -4 0.16077737E-01 0.12838376E+03</pdfrwt>
<totfact> 0.47331413E+03</totfact>
</mgrwt>
</event>
<event>
 6    4  0.2271823E-003  0.1270163E+03  0.7818608E-02  0.1231951E+00
         -4   -1    0    0    0  501 -0.00000000000E+00  0.00000000000E+00  0.17052331156E+02  0.17099558411E+02  0.12700000000E+01 0.  1.
          4   -1    0    0  502    0  0.00000000000E+00 -0.00000000000E+00 -0.91816851651E+03  0.91816939484E+03  0.12700000000E+01 0.  1.
         25    2    1    2    0    0 -0.13954953645E+02  0.17736977894E+02 -0.90367320054E+03  0.91255597364E+03  0.12499524203E+03 0.  0.
    9000005    1    3    3    0    0 -0.10057631626E+02 -0.31079157149E+02 -0.76113967706E+03  0.76184097944E+03  0.10000000000E+01 0.  0.
    9000005    1    3    3    0    0 -0.38973220186E+01  0.48816135043E+02 -0.14253352349E+03  0.15071499420E+03  0.10000000000E+01 0.  0.
         21    1    1    2  502  501  0.13954953645E+02 -0.17736977894E+02  0.25570151853E+01  0.22712979608E+02  0.00000000000E+00 0.  1.
<mgrwt>
<rscale>  1 0.12701634E+03</rscale>
<asrwt>0</asrwt>
<pdfrwt beam="2">  1        4 0.14126036E+00 0.12701634E+03</pdfrwt>
<pdfrwt beam="1">  1       -4 0.26271367E-02 0.12701634E+03</pdfrwt>
<totfact> 0.40576318E+02</totfact>
</mgrwt>
</event>
<event>
 6    4  0.2271823E-003  0.1281650E+03  0.7818608E-02  0.1230204E+00
          4   -1    0    0  502    0  0.00000000000E+00  0.00000000000E+00  0.32426690185E+03  0.32426938883E+03  0.12700000000E+01 0. -1.
         -4   -1    0    0    0  501 -0.00000000000E+00 -0.00000000000E+00 -0.27898698741E+02  0.27927590148E+02  0.12700000000E+01 0. -1.
         25    2    1    2    0    0 -0.25115125771E+02 -0.13103282352E+02  0.29740974275E+03  0.32385001520E+03  0.12499524675E+03 0.  0.
    9000005    1    3    3    0    0  0.49599828631E+02 -0.14254146744E+02  0.14899453692E+03  0.15768226194E+03  0.10000000000E+01 0.  0.
    9000005    1    3    3    0    0 -0.74714954403E+02  0.11508643920E+01  0.14841520583E+03  0.16616775325E+03  0.10000000000E+01 0.  0.
         21    1    1    2  502  501  0.25115125771E+02  0.13103282352E+02 -0.10415396423E+01  0.28346963783E+02  0.00000000000E+00 0. -1.
<mgrwt>
<rscale>  1 0.12816504E+03</rscale>
<asrwt>0</asrwt>
<pdfrwt beam="1">  1        4 0.49889629E-01 0.12816504E+03</pdfrwt>
<pdfrwt beam="2">  1       -4 0.42945213E-02 0.12816504E+03</pdfrwt>
<totfact> 0.19309649E+03</totfact>
</mgrwt>
</event>
<event>
 6    4  0.2271823E-003  0.1273581E+03  0.7818608E-02  0.1231429E+00
          4   -1    0    0  502    0  0.00000000000E+00  0.00000000000E+00  0.12431242281E+03  0.12431890992E+03  0.12700000000E+01 0.  1.
         -4   -1    0    0    0  501 -0.00000000000E+00 -0.00000000000E+00 -0.68780648413E+02  0.68792372369E+02  0.12700000000E+01 0.  1.
         25    2    1    2    0    0  0.23286924549E+02  0.72562114579E+01  0.86303363015E+02  0.15384521392E+03  0.12500058367E+03 0.  0.
    9000005    1    3    3    0    0  0.46208367780E+02 -0.28175260903E+02  0.96296281968E+02  0.11046733680E+03  0.10000000000E+01 0.  0.
    9000005    1    3    3    0    0 -0.22921443231E+02  0.35431472360E+02 -0.99929189536E+01  0.43377877111E+02  0.10000000000E+01 0.  0.
         21    1    1    2  502  501 -0.23286924549E+02 -0.72562114579E+01 -0.30771588619E+02  0.39266068377E+02  0.00000000000E+00 0.  1.
<mgrwt>
<rscale>  1 0.12735808E+03</rscale>
<asrwt>0</asrwt>
<pdfrwt beam="1">  1        4 0.19126389E-01 0.12735808E+03</pdfrwt>
<pdfrwt beam="2">  1       -4 0.10583039E-01 0.12735808E+03</pdfrwt>
<totfact> 0.27223179E+03</totfact>
</mgrwt>
</event>
<event>
 6    4  0.2271823E-003  0.1480908E+03  0.7818608E-02  0.1202839E+00
          4   -1    0    0  502    0  0.00000000000E+00  0.00000000000E+00  0.88060521678E+02  0.88069679108E+02  0.12700000000E+01 0. -1.
         -4   -1    0    0    0  501 -0.00000000000E+00 -0.00000000000E+00 -0.15743530826E+03  0.15744043059E+03  0.12700000000E+01 0. -1.
         25    2    1    2    0    0  0.70981014930E+02  0.35614943088E+02 -0.14116778689E+02  0.14876210669E+03  0.12499660913E+03 0.  0.
    9000005    1    3    3    0    0  0.68305373071E+02 -0.35450595445E+02 -0.79123522054E+01  0.77369076673E+02  0.10000000000E+01 0.  0.
    9000005    1    3    3    0    0  0.26756418582E+01  0.71065538533E+02 -0.62044264833E+01  0.71393030013E+02  0.10000000000E+01 0.  0.
         21    1    1    2  502  501 -0.70981014930E+02 -0.35614943088E+02 -0.55258007889E+02  0.96748003016E+02  0.00000000000E+00 0. -1.
<mgrwt>
<rscale>  1 0.14809079E+03</rscale>
<asrwt>0</asrwt>
<pdfrwt beam="1">  1        4 0.13548871E-01 0.14809079E+03</pdfrwt>
<pdfrwt beam="2">  1       -4 0.24221915E-01 0.14809079E+03</pdfrwt>
<totfact> 0.12014052E+03</totfact>
</mgrwt>
</event>
<event>
 6    4  0.2271823E-003  0.1337544E+03  0.7818608E-02  0.1221989E+00
         -4   -1    0    0    0  501 -0.00000000000E+00  0.00000000000E+00  0.97687885001E+02  0.97696140025E+02  0.12700000000E+01 0. -1.
          4   -1    0    0  502    0  0.00000000000E+00 -0.00000000000E+00 -0.87466471151E+02  0.87475690769E+02  0.12700000000E+01 0. -1.
         25    2    1    2    0    0 -0.41122215955E+02  0.23969528928E+02 -0.85001902438E+01  0.13402426563E+03  0.12499870232E+03 0.  0.
    9000005    1    3    3    0    0  0.15059234568E+02 -0.33129121526E+02 -0.34142705722E+02  0.49910355567E+02  0.10000000000E+01 0.  0.
    9000005    1    3    3    0    0 -0.56181450523E+02  0.57098650454E+02  0.25642515478E+02  0.84113910066E+02  0.10000000000E+01 0.  0.
         21    1    1    2  502  501  0.41122215955E+02 -0.23969528928E+02  0.18721604094E+02  0.51147565161E+02  0.00000000000E+00 0.  1.
<mgrwt>
<rscale>  1 0.13375444E+03</rscale>
<asrwt>0</asrwt>
<pdfrwt beam="2">  1        4 0.13457724E-01 0.13375444E+03</pdfrwt>
<pdfrwt beam="1">  1       -4 0.15030250E-01 0.13375444E+03</pdfrwt>
<totfact> 0.27959750E+03</totfact>
</mgrwt>
</event>
<event>
 6    4  0.2271823E-003  0.1287417E+03  0.7818608E-02  0.1229335E+00
         -4   -1    0    0    0  501 -0.00000000000E+00  0.00000000000E+00  0.28516189401E+02  0.28544455818E+02  0.12700000000E+01 0. -1.
          4   -1    0    0  502    0  0.00000000000E+00 -0.00000000000E+00 -0.36940809647E+03  0.36941027955E+03  0.12700000000E+01 0. -1.
         25    2    1    2    0    0 -0.30629916297E+02 -0.33214018706E+01 -0.34369704492E+03  0.36701782729E+03  0.12500081353E+03 0.  0.
    9000005    1    3    3    0    0 -0.12539776147E+02 -0.21494585444E+02 -0.34021002250E+03  0.34112039311E+03  0.10000000000E+01 0.  0.
    9000005    1    3    3    0    0 -0.18090140150E+02  0.18173183573E+02 -0.34870224210E+01  0.25897434182E+02  0.10000000000E+01 0.  0.
         21    1    1    2  502  501  0.30629916297E+02  0.33214018706E+01  0.28051378512E+01  0.30936908073E+02  0.00000000000E+00 0. -1.
<mgrwt>
<rscale>  1 0.12874171E+03</rscale>
<asrwt>0</asrwt>
<pdfrwt beam="2">  1        4 0.56834354E-01 0.12874171E+03</pdfrwt>
<pdfrwt beam="1">  1       -4 0.43894486E-02 0.12874171E+03</pdfrwt>
<totfact> 0.14280140E+03</totfact>
</mgrwt>
</event>
<event>
 6    4  0.2271823E-003  0.1276444E+03  0.7818608E-02  0.1230994E+00
         -4   -1    0    0    0  501 -0.00000000000E+00  0.00000000000E+00  0.28961928420E+02  0.28989760223E+02  0.12700000000E+01 0.  1.
          4   -1    0    0  502    0  0.00000000000E+00 -0.00000000000E+00 -0.27265263738E+03  0.27265559516E+03  0.12700000000E+01 0.  1.
         25    2    1    2    0    0 -0.25813959911E+02 -0.61932695095E+00 -0.24449710128E+03  0.27581137851E+03  0.12500535945E+03 0.  0.
    9000005    1    3    3    0    0  0.15680359840E+02 -0.44591648153E+01 -0.23160422760E+03  0.23217940494E+03  0.10000000000E+01 0.  0.
    9000005    1    3    3    0    0 -0.41494319751E+02  0.38398378644E+01 -0.12892873681E+02  0.43631973576E+02  0.10000000000E+01 0.  0.
         21    1    1    2  502  501  0.25813959911E+02  0.61932695095E+00  0.80639231862E+00  0.25833976867E+02  0.00000000000E+00 0.  1.
<mgrwt>
<rscale>  1 0.12764437E+03</rscale>
<asrwt>0</asrwt>
<pdfrwt beam="2">  1        4 0.41948926E-01 0.12764437E+03</pdfrwt>
<pdfrwt beam="1">  1       -4 0.44580499E-02 0.12764437E+03</pdfrwt>
<totfact> 0.25735369E+03</totfact>
</mgrwt>
</event>
<event>
 6    4  0.2271823E-003  0.1383350E+03  0.7818608E-02  0.1215587E+00
         -4   -1    0    0    0  501 -0.00000000000E+00  0.00000000000E+00  0.58159206489E+03  0.58159345151E+03  0.12700000000E+01 0. -1.
          4   -1    0    0  502    0  0.00000000000E+00 -0.00000000000E+00 -0.26792600400E+02  0.26822683240E+02  0.12700000000E+01 0. -1.
         25    2    1    2    0    0 -0.56352312780E+02 -0.18313771421E+02  0.17042930683E+03  0.21950561101E+03  0.12500234901E+03 0.  0.
    9000005    1    3    3    0    0 -0.29336360594E+01  0.48902166377E+02  0.86625432547E+02  0.99523834637E+02  0.10000000000E+01 0.  0.
    9000005    1    3    3    0    0 -0.53418676721E+02 -0.67215937798E+02  0.83803874287E+02  0.11998177638E+03  0.10000000000E+01 0.  0.
         21    1    1    2  502  501  0.56352312780E+02  0.18313771421E+02  0.38437015766E+03  0.38891052374E+03  0.00000000000E+00 0. -1.
<mgrwt>
<rscale>  1 0.13833497E+03</rscale>
<asrwt>0</asrwt>
<pdfrwt beam="2">  1        4 0.41243591E-02 0.13833497E+03</pdfrwt>
<pdfrwt beam="1">  1       -4 0.89478126E-01 0.13833497E+03</pdfrwt>
<totfact> 0.59913816E+02</totfact>
</mgrwt>
</event>
<event>
 6    4  0.2271823E-003  0.1298512E+03  0.7818608E-02  0.1227677E+00
         -4   -1    0    0    0  501 -0.00000000000E+00  0.00000000000E+00  0.37364645282E+03  0.37364861114E+03  0.12700000000E+01 0.  1.
          4   -1    0    0  502    0  0.00000000000E+00 -0.00000000000E+00 -0.18994439875E+02  0.19036849691E+02  0.12700000000E+01 0.  1.
         25    2    1    2    0    0  0.27094661180E+02 -0.22268798661E+02  0.24114447607E+03  0.27388318398E+03  0.12502527771E+03 0.  0.
    9000005    1    3    3    0    0  0.63399861889E+02 -0.33537747500E+02  0.76357286645E+02  0.10476525292E+03  0.10000000000E+01 0.  0.
    9000005    1    3    3    0    0 -0.36305200710E+02  0.11268948839E+02  0.16478718943E+03  0.16911793106E+03  0.10000000000E+01 0.  0.
         21    1    1    2  502  501 -0.27094661180E+02  0.22268798661E+02  0.11350753687E+03  0.11880227685E+03  0.00000000000E+00 0.  1.
<mgrwt>
<rscale>  1 0.12985122E+03</rscale>
<asrwt>0</asrwt>
<pdfrwt beam="2">  1        4 0.29256503E-02 0.12985122E+03</pdfrwt>
<pdfrwt beam="1">  1       -4 0.57487488E-01 0.12985122E+03</pdfrwt>
<totfact> 0.26505895E+03</totfact>
</mgrwt>
</event>
<event>
 6    4  0.2271823E-003  0.1267278E+03  0.7818608E-02  0.1232394E+00
          4   -1    0    0  502    0  0.00000000000E+00  0.00000000000E+00  0.16201172667E+04  0.16201177645E+04  0.12700000000E+01 0. -1.
         -4   -1    0    0    0  501 -0.00000000000E+00 -0.00000000000E+00 -0.53191343691E+01  0.54686461247E+01  0.12700000000E+01 0. -1.
         25    2    1    2    0    0  0.40237674008E+01 -0.20444616064E+02  0.15796564394E+04  0.15847316482E+04  0.12500302862E+03 0.  0.
    9000005    1    3    3    0    0 -0.51844562811E+00 -0.29089053273E+02  0.81499232010E+02  0.86542282292E+02  0.10000000000E+01 0.  0.
    9000005    1    3    3    0    0  0.45422130290E+01  0.86444372086E+01  0.14981572074E+04  0.14981893659E+04  0.10000000000E+01 0.  0.
         21    1    1    2  502  501 -0.40237674008E+01  0.20444616064E+02  0.35141692906E+02  0.40854762396E+02  0.00000000000E+00 0.  1.
<mgrwt>
<rscale>  1 0.12672778E+03</rscale>
<asrwt>0</asrwt>
<pdfrwt beam="1">  1        4 0.24926012E+00 0.12672778E+03</pdfrwt>
<pdfrwt beam="2">  1       -4 0.82986834E-03 0.12672778E+03</pdfrwt>
<totfact> 0.47598838E+02</totfact>
</mgrwt>
</event>
<event>
 6    4  0.2271823E-003  0.1326458E+03  0.7818608E-02  0.1223582E+00
         -4   -1    0    0    0  501 -0.00000000000E+00  0.00000000000E+00  0.96940116250E+02  0.96948434946E+02  0.12700000000E+01 0. -1.
          4   -1    0    0  502    0  0.00000000000E+00 -0.00000000000E+00 -0.14806576025E+03  0.14807120672E+03  0.12700000000E+01 0. -1.
         25    2    1    2    0    0  0.36744778815E+02 -0.24922694332E+02 -0.10927326240E+03  0.17185909910E+03  0.12499433829E+03 0.  0.
    9000005    1    3    3    0    0  0.36171299184E+02 -0.30552033289E+02  0.13269253818E+02  0.49181934891E+02  0.10000000000E+01 0.  0.
    9000005    1    3    3    0    0  0.57347963051E+00  0.56293389570E+01 -0.12254251622E+03  0.12267716420E+03  0.10000000000E+01 0.  0.
         21    1    1    2  502  501 -0.36744778815E+02  0.24922694332E+02  0.58147618401E+02  0.73160542566E+02  0.00000000000E+00 0. -1.
<mgrwt>
<rscale>  1 0.13264578E+03</rscale>
<asrwt>0</asrwt>
<pdfrwt beam="2">  1        4 0.22780407E-01 0.13264578E+03</pdfrwt>
<pdfrwt beam="1">  1       -4 0.14914923E-01 0.13264578E+03</pdfrwt>
<totfact> 0.11119749E+03</totfact>
</mgrwt>
</event>
<event>
 6    4  0.2271823E-003  0.1272243E+03  0.7818608E-02  0.1231633E+00
         -4   -1    0    0    0  501 -0.00000000000E+00  0.00000000000E+00  0.15228244393E+02  0.15281110146E+02  0.12700000000E+01 0.  1.
          4   -1    0    0  502    0  0.00000000000E+00 -0.00000000000E+00 -0.61037532899E+03  0.61037665023E+03  0.12700000000E+01 0.  1.
         25    2    1    2    0    0 -0.14825979774E+02  0.18476491777E+02 -0.58696569723E+03  0.60059532785E+03  0.12499931073E+03 0.  0.
    9000005    1    3    3    0    0 -0.68644730545E+02  0.63063422484E+01 -0.38990428000E+03  0.39595229074E+03  0.10000000000E+01 0.  0.
    9000005    1    3    3    0    0  0.53818750771E+02  0.12170149529E+02 -0.19706141724E+03  0.20464303711E+03  0.10000000000E+01 0.  0.
         21    1    1    2  502  501  0.14825979774E+02 -0.18476491777E+02 -0.81813873673E+01  0.25062432522E+02  0.00000000000E+00 0.  1.
<mgrwt>
<rscale>  1 0.12722428E+03</rscale>
<asrwt>0</asrwt>
<pdfrwt beam="2">  1        4 0.93908046E-01 0.12722428E+03</pdfrwt>
<pdfrwt beam="1">  1       -4 0.23469755E-02 0.12722428E+03</pdfrwt>
<totfact> 0.12779963E+03</totfact>
</mgrwt>
</event>
<event>
 6    4  0.2271823E-003  0.1289851E+03  0.7818608E-02  0.1228969E+00
          4   -1    0    0  502    0  0.00000000000E+00  0.00000000000E+00  0.16609010465E+02  0.16657494669E+02  0.12700000000E+01 0.  1.
         -4   -1    0    0    0  501 -0.00000000000E+00 -0.00000000000E+00 -0.48182321104E+03  0.48182488478E+03  0.12700000000E+01 0.  1.
         25    2    1    2    0    0  0.11264131570E+02  0.29750887392E+02 -0.25387647459E+03  0.28476380192E+03  0.12500065028E+03 0.  0.
    9000005    1    3    3    0    0 -0.24314563097E+02  0.59735666038E+02 -0.21389373773E+03  0.22340787546E+03  0.10000000000E+01 0.  0.
    9000005    1    3    3    0    0  0.35578694667E+02 -0.29984778647E+02 -0.39982736859E+02  0.61355926458E+02  0.10000000000E+01 0.  0.
         21    1    1    2  502  501 -0.11264131570E+02 -0.29750887392E+02 -0.21133772598E+03  0.21371857754E+03  0.00000000000E+00 0.  1.
<mgrwt>
<rscale>  1 0.12898511E+03</rscale>
<asrwt>0</asrwt>
<pdfrwt beam="1">  1        4 0.25590910E-02 0.12898511E+03</pdfrwt>
<pdfrwt beam="2">  1       -4 0.74130496E-01 0.12898511E+03</pdfrwt>
<totfact> 0.18973693E+03</totfact>
</mgrwt>
</event>
<event>
 6    4  0.2271823E-003  0.1270951E+03  0.7818608E-02  0.1231831E+00
          4   -1    0    0  502    0  0.00000000000E+00  0.00000000000E+00  0.99578290382E+02  0.99586388705E+02  0.12700000000E+01 0.  1.
         -4   -1    0    0    0  501 -0.00000000000E+00 -0.00000000000E+00 -0.56528520924E+02  0.56542785374E+02  0.12700000000E+01 0.  1.
         25    2    1    2    0    0  0.36530649755E+01 -0.22683693121E+02  0.35967918906E+02  0.13208655724E+03  0.12500109038E+03 0.  0.
    9000005    1    3    3    0    0  0.56524043279E+02 -0.35921449892E+02  0.38969943723E+02  0.77491770820E+02  0.10000000000E+01 0.  0.
    9000005    1    3    3    0    0 -0.52870978304E+02  0.13237756771E+02 -0.30020248169E+01  0.54594786419E+02  0.10000000000E+01 0.  0.
         21    1    1    2  502  501 -0.36530649755E+01  0.22683693121E+02  0.70818505513E+01  0.24042616840E+02  0.00000000000E+00 0.  1.
<mgrwt>
<rscale>  1 0.12709511E+03</rscale>
<asrwt>0</asrwt>
<pdfrwt beam="1">  1        4 0.15321457E-01 0.12709511E+03</pdfrwt>
<pdfrwt beam="2">  1       -4 0.86984158E-02 0.12709511E+03</pdfrwt>
<totfact> 0.55946775E+03</totfact>
</mgrwt>
</event>
<event>
 6    4  0.2271823E-003  0.1302355E+03  0.7818608E-02  0.1227107E+00
         -4   -1    0    0    0  501 -0.00000000000E+00  0.00000000000E+00  0.14555982819E+03  0.14556536842E+03  0.12700000000E+01 0.  1.
          4   -1    0    0  502    0  0.00000000000E+00 -0.00000000000E+00 -0.83482939367E+02  0.83492598866E+02  0.12700000000E+01 0.  1.
         25    2    1    2    0    0 -0.22453875038E+02  0.28810381198E+02 -0.26803066641E+02  0.13296498600E+03  0.12500827393E+03 0.  0.
    9000005    1    3    3    0    0  0.20542196820E+02 -0.34069844104E+02 -0.39108649683E+02  0.55796259798E+02  0.10000000000E+01 0.  0.
    9000005    1    3    3    0    0 -0.42996071858E+02  0.62880225302E+02  0.12305583042E+02  0.77168726199E+02  0.10000000000E+01 0.  0.
         21    1    1    2  502  501  0.22453875038E+02 -0.28810381198E+02  0.88879955462E+02  0.96092981283E+02  0.00000000000E+00 0.  1.
<mgrwt>
<rscale>  1 0.13023549E+03</rscale>
<asrwt>0</asrwt>
<pdfrwt beam="2">  1        4 0.12844698E-01 0.13023549E+03</pdfrwt>
<pdfrwt beam="1">  1       -4 0.22394989E-01 0.13023549E+03</pdfrwt>
<totfact> 0.14798618E+03</totfact>
</mgrwt>
</event>
<event>
 6    4  0.2271823E-003  0.1360277E+03  0.7818608E-02  0.1218776E+00
         -4   -1    0    0    0  501 -0.00000000000E+00  0.00000000000E+00  0.97850306846E+02  0.97858548169E+02  0.12700000000E+01 0.  1.
          4   -1    0    0  502    0  0.00000000000E+00 -0.00000000000E+00 -0.12154420851E+03  0.12155084337E+03  0.12700000000E+01 0.  1.
         25    2    1    2    0    0 -0.52253128405E+02 -0.12164014688E+02 -0.65897404213E+02  0.15114894685E+03  0.12500073428E+03 0.  0.
    9000005    1    3    3    0    0 -0.23119531885E+02  0.40415305510E+02  0.16273912665E+02  0.49333050863E+02  0.10000000000E+01 0.  0.
    9000005    1    3    3    0    0 -0.29133596520E+02 -0.52579320198E+02 -0.82171316878E+02  0.10181589599E+03  0.10000000000E+01 0.  0.
         21    1    1    2  502  501  0.52253128405E+02  0.12164014688E+02  0.42203502544E+02  0.68260444684E+02  0.00000000000E+00 0.  1.
<mgrwt>
<rscale>  1 0.13602770E+03</rscale>
<asrwt>0</asrwt>
<pdfrwt beam="2">  1        4 0.18700253E-01 0.13602770E+03</pdfrwt>
<pdfrwt beam="1">  1       -4 0.15055038E-01 0.13602770E+03</pdfrwt>
<totfact> 0.15705249E+03</totfact>
</mgrwt>
</event>
<event>
 6    4  0.2271823E-003  0.1275050E+03  0.7818608E-02  0.1231206E+00
          4   -1    0    0  502    0  0.00000000000E+00  0.00000000000E+00  0.17427356756E+03  0.17427819499E+03  0.12700000000E+01 0. -1.
         -4   -1    0    0    0  501 -0.00000000000E+00 -0.00000000000E+00 -0.35048920625E+02  0.35071922345E+02  0.12700000000E+01 0. -1.
         25    2    1    2    0    0 -0.25015973340E+02 -0.25380450490E+01  0.13121343050E+03  0.18296034312E+03  0.12500112885E+03 0.  0.
    9000005    1    3    3    0    0  0.28502281444E+02 -0.19454133810E+02  0.12109346061E+03  0.12591850369E+03  0.10000000000E+01 0.  0.
    9000005    1    3    3    0    0 -0.53518254783E+02  0.16916088761E+02  0.10119969891E+02  0.57041839422E+02  0.10000000000E+01 0.  0.
         21    1    1    2  502  501  0.25015973340E+02  0.25380450490E+01  0.80112164337E+01  0.26389774223E+02  0.00000000000E+00 0. -1.
<mgrwt>
<rscale>  1 0.12750499E+03</rscale>
<asrwt>0</asrwt>
<pdfrwt beam="1">  1        4 0.26813444E-01 0.12750499E+03</pdfrwt>
<pdfrwt beam="2">  1       -4 0.53942669E-02 0.12750499E+03</pdfrwt>
<totfact> 0.44697847E+03</totfact>
</mgrwt>
</event>
<event>
 6    4  0.2271823E-003  0.1343596E+03  0.7818608E-02  0.1221127E+00
          4   -1    0    0  502    0  0.00000000000E+00  0.00000000000E+00  0.48758895793E+03  0.48759061188E+03  0.12700000000E+01 0.  1.
         -4   -1    0    0    0  501 -0.00000000000E+00 -0.00000000000E+00 -0.17332094823E+02  0.17378561820E+02  0.12700000000E+01 0.  1.
         25    2    1    2    0    0 -0.53714494354E-01 -0.49271742881E+02  0.35762584052E+03  0.38203238190E+03  0.12499916589E+03 0.  0.
    9000005    1    3    3    0    0 -0.56523948991E+02 -0.47868333048E+01  0.10466181691E+03  0.11905026880E+03  0.10000000000E+01 0.  0.
    9000005    1    3    3    0    0  0.56470234497E+02 -0.44484909577E+02  0.25296402361E+03  0.26298211309E+03  0.10000000000E+01 0.  0.
         21    1    1    2  502  501  0.53714494354E-01  0.49271742881E+02  0.11263102258E+03  0.12293679181E+03  0.00000000000E+00 0.  1.
<mgrwt>
<rscale>  1 0.13435959E+03</rscale>
<asrwt>0</asrwt>
<pdfrwt beam="1">  1        4 0.75017384E-01 0.13435959E+03</pdfrwt>
<pdfrwt beam="2">  1       -4 0.26701779E-02 0.13435959E+03</pdfrwt>
<totfact> 0.17465000E+03</totfact>
</mgrwt>
</event>
<event>
 6    4  0.2271823E-003  0.1286130E+03  0.7818608E-02  0.1229528E+00
          4   -1    0    0  502    0  0.00000000000E+00  0.00000000000E+00  0.11447200620E+03  0.11447905094E+03  0.12700000000E+01 0. -1.
         -4   -1    0    0    0  501 -0.00000000000E+00 -0.00000000000E+00 -0.57423551135E+02  0.57437593307E+02  0.12700000000E+01 0. -1.
         25    2    1    2    0    0  0.21001771573E+02  0.21810426520E+02  0.59155734012E+02  0.14156520707E+03  0.12499815147E+03 0.  0.
    9000005    1    3    3    0    0  0.73616611817E+02  0.84008696873E+01  0.30167058363E+02  0.80006446973E+02  0.10000000000E+01 0.  0.
    9000005    1    3    3    0    0 -0.52614840244E+02  0.13409556833E+02  0.28988675649E+02  0.61558760093E+02  0.10000000000E+01 0.  0.
         21    1    1    2  502  501 -0.21001771573E+02 -0.21810426520E+02 -0.21072789472E+01  0.30351437178E+02  0.00000000000E+00 0. -1.
<mgrwt>
<rscale>  1 0.12861301E+03</rscale>
<asrwt>0</asrwt>
<pdfrwt beam="1">  1        4 0.17612700E-01 0.12861301E+03</pdfrwt>
<pdfrwt beam="2">  1       -4 0.88360145E-02 0.12861301E+03</pdfrwt>
<totfact> 0.42778502E+03</totfact>
</mgrwt>
</event>
<event>
 6    4  0.2271823E-003  0.1337599E+03  0.7818608E-02  0.1221981E+00
          4   -1    0    0  502    0  0.00000000000E+00  0.00000000000E+00  0.19002589168E+03  0.19003013553E+03  0.12700000000E+01 0. -1.
         -4   -1    0    0    0  501 -0.00000000000E+00 -0.00000000000E+00 -0.93922515662E+02  0.93931101602E+02  0.12700000000E+01 0. -1.
         25    2    1    2    0    0  0.45762350037E+02  0.13122042391E+02  0.15726488345E+03  0.20645568463E+03  0.12500130187E+03 0.  0.
    9000005    1    3    3    0    0 -0.24906122283E+02 -0.10604237104E+02 -0.53087111819E+01  0.27603390845E+02  0.10000000000E+01 0.  0.
    9000005    1    3    3    0    0  0.70668472319E+02  0.23726279495E+02  0.16257359464E+03  0.17885229378E+03  0.10000000000E+01 0.  0.
         21    1    1    2  502  501 -0.45762350037E+02 -0.13122042391E+02 -0.61161507434E+02  0.77505552504E+02  0.00000000000E+00 0. -1.
<mgrwt>
<rscale>  1 0.13375988E+03</rscale>
<asrwt>0</asrwt>
<pdfrwt beam="1">  1        4 0.29235739E-01 0.13375988E+03</pdfrwt>
<pdfrwt beam="2">  1       -4 0.14450605E-01 0.13375988E+03</pdfrwt>
<totfact> 0.74125960E+02</totfact>
</mgrwt>
</event>
<event>
 6    4  0.2271823E-003  0.1372344E+03  0.7818608E-02  0.1217100E+00
          4   -1    0    0  502    0  0.00000000000E+00  0.00000000000E+00  0.56715174106E+03  0.56715316298E+03  0.12700000000E+01 0.  1.
         -4   -1    0    0    0  501 -0.00000000000E+00 -0.00000000000E+00 -0.16684617095E+02  0.16732882226E+02  0.12700000000E+01 0.  1.
         25    2    1    2    0    0  0.39945240450E+02  0.40247280830E+02  0.41212638539E+03  0.43437475535E+03  0.12497121548E+03 0.  0.
    9000005    1    3    3    0    0  0.12959610631E+02  0.21729663940E+02  0.39784916881E+03  0.39865409934E+03  0.10000000000E+01 0.  0.
    9000005    1    3    3    0    0  0.26985629819E+02  0.18517616890E+02  0.14277216587E+02  0.35720656006E+02  0.10000000000E+01 0.  0.
         21    1    1    2  502  501 -0.39945240450E+02 -0.40247280830E+02  0.13834073857E+03  0.14951128986E+03  0.00000000000E+00 0.  1.
<mgrwt>
<rscale>  1 0.13723436E+03</rscale>
<asrwt>0</asrwt>
<pdfrwt beam="1">  1        4 0.87257937E-01 0.13723436E+03</pdfrwt>
<pdfrwt beam="2">  1       -4 0.25706862E-02 0.13723436E+03</pdfrwt>
<totfact> 0.13316556E+03</totfact>
</mgrwt>
</event>
<event>
 6    4  0.2271823E-003  0.1271896E+03  0.7818608E-02  0.1231687E+00
          4   -1    0    0  502    0  0.00000000000E+00  0.00000000000E+00  0.11511349934E+03  0.11512050482E+03  0.12700000000E+01 0.  1.
         -4   -1    0    0    0  501 -0.00000000000E+00 -0.00000000000E+00 -0.51484020926E+02  0.51499682627E+02  0.12700000000E+01 0.  1.
         25    2    1    2    0    0  0.19890885697E+01  0.23440674489E+02  0.65418877323E+02  0.14302731475E+03  0.12499504614E+03 0.  0.
    9000005    1    3    3    0    0 -0.50998818721E+02  0.46762324306E+02  0.38263551839E+02  0.79073977292E+02  0.10000000000E+01 0.  0.
    9000005    1    3    3    0    0  0.52987907291E+02 -0.23321649817E+02  0.27155325484E+02  0.63953337453E+02  0.10000000000E+01 0.  0.
         21    1    1    2  502  501 -0.19890885697E+01 -0.23440674489E+02 -0.17893989111E+01  0.23592872701E+02  0.00000000000E+00 0. -1.
<mgrwt>
<rscale>  1 0.12718956E+03</rscale>
<asrwt>0</asrwt>
<pdfrwt beam="1">  1        4 0.17711513E-01 0.12718956E+03</pdfrwt>
<pdfrwt beam="2">  1       -4 0.79223623E-02 0.12718956E+03</pdfrwt>
<totfact> 0.50627698E+03</totfact>
</mgrwt>
</event>
<event>
 6    4  0.2271823E-003  0.1283409E+03  0.7818608E-02  0.1229939E+00
          4   -1    0    0  502    0  0.00000000000E+00  0.00000000000E+00  0.57010996453E+01  0.58408421624E+01  0.12700000000E+01 0. -1.
         -4   -1    0    0    0  501 -0.00000000000E+00 -0.00000000000E+00 -0.10862376160E+04  0.10862383585E+04  0.12700000000E+01 0. -1.
         25    2    1    2    0    0  0.16856283826E+02  0.23712784411E+02 -0.83095459569E+03  0.84080730488E+03  0.12499981358E+03 0.  0.
    9000005    1    3    3    0    0  0.48927246892E+02 -0.32955090147E+02 -0.28950951309E+03  0.29546010158E+03  0.10000000000E+01 0.  0.
    9000005    1    3    3    0    0 -0.32070963067E+02  0.56667874559E+02 -0.54144508260E+03  0.54534720330E+03  0.10000000000E+01 0.  0.
         21    1    1    2  502  501 -0.16856283826E+02 -0.23712784411E+02 -0.24958192072E+03  0.25127189576E+03  0.00000000000E+00 0. -1.
<mgrwt>
<rscale>  1 0.12834089E+03</rscale>
<asrwt>0</asrwt>
<pdfrwt beam="1">  1        4 0.88789965E-03 0.12834089E+03</pdfrwt>
<pdfrwt beam="2">  1       -4 0.16712412E+00 0.12834089E+03</pdfrwt>
<totfact> 0.13812494E+03</totfact>
</mgrwt>
</event>
<event>
 6    4  0.2271823E-003  0.1277480E+03  0.7818608E-02  0.1230836E+00
          4   -1    0    0  502    0  0.00000000000E+00  0.00000000000E+00  0.28294554943E+03  0.28294839961E+03  0.12700000000E+01 0. -1.
         -4   -1    0    0    0  501 -0.00000000000E+00 -0.00000000000E+00 -0.23865329510E+02  0.23899097318E+02  0.12700000000E+01 0. -1.
         25    2    1    2    0    0 -0.18839583180E+02 -0.18599705508E+02  0.24628109970E+03  0.27744177609E+03  0.12497471790E+03 0.  0.
    9000005    1    3    3    0    0 -0.69219960685E+02  0.96753008177E+01  0.13034853867E+03  0.14790793061E+03  0.10000000000E+01 0.  0.
    9000005    1    3    3    0    0  0.50380377505E+02 -0.28275006326E+02  0.11593256103E+03  0.12953384549E+03  0.10000000000E+01 0.  0.
         21    1    1    2  502  501  0.18839583180E+02  0.18599705508E+02  0.12799120225E+02  0.29405720837E+02  0.00000000000E+00 0. -1.
<mgrwt>
<rscale>  1 0.12774803E+03</rscale>
<asrwt>0</asrwt>
<pdfrwt beam="1">  1        4 0.43532900E-01 0.12774803E+03</pdfrwt>
<pdfrwt beam="2">  1       -4 0.36744060E-02 0.12774803E+03</pdfrwt>
<totfact> 0.32503424E+03</totfact>
</mgrwt>
</event>
<event>
 6    4  0.2271823E-003  0.1311998E+03  0.7818608E-02  0.1225686E+00
          4   -1    0    0  502    0  0.00000000000E+00  0.00000000000E+00  0.38197532990E+02  0.38218639779E+02  0.12700000000E+01 0.  1.
         -4   -1    0    0    0  501 -0.00000000000E+00 -0.00000000000E+00 -0.19228501904E+03  0.19228921303E+03  0.12700000000E+01 0.  1.
         25    2    1    2    0    0 -0.22953992901E+02  0.32550488378E+02 -0.11128240189E+03  0.17203824263E+03  0.12500785525E+03 0.  0.
    9000005    1    3    3    0    0 -0.40162942531E+02  0.51243016893E+02 -0.12659258585E+03  0.14235726720E+03  0.10000000000E+01 0.  0.
    9000005    1    3    3    0    0  0.17208949630E+02 -0.18692528515E+02  0.15310183962E+02  0.29680975432E+02  0.10000000000E+01 0.  0.
         21    1    1    2  502  501  0.22953992901E+02 -0.32550488378E+02 -0.42805084163E+02  0.58469610174E+02  0.00000000000E+00 0.  1.
<mgrwt>
<rscale>  1 0.13119979E+03</rscale>
<asrwt>0</asrwt>
<pdfrwt beam="1">  1        4 0.58784899E-02 0.13119979E+03</pdfrwt>
<pdfrwt beam="2">  1       -4 0.29584256E-01 0.13119979E+03</pdfrwt>
<totfact> 0.32583125E+03</totfact>
</mgrwt>
</event>
<event>
 6    4  0.2271823E-003  0.1325615E+03  0.7818608E-02  0.1223704E+00
         -4   -1    0    0    0  501 -0.00000000000E+00  0.00000000000E+00  0.45508880190E+03  0.45509057397E+03  0.12700000000E+01 0. -1.
          4   -1    0    0  502    0  0.00000000000E+00 -0.00000000000E+00 -0.26573608181E+02  0.26603938651E+02  0.12700000000E+01 0. -1.
         25    2    1    2    0    0  0.22293031005E+02  0.38087170866E+02  0.15201943638E+03  0.20169894901E+03  0.12499978071E+03 0.  0.
    9000005    1    3    3    0    0  0.70358140971E+02  0.11268374096E+02  0.54496271635E+02  0.89711135751E+02  0.10000000000E+01 0.  0.
    9000005    1    3    3    0    0 -0.48065109965E+02  0.26818796770E+02  0.97523164746E+02  0.11198781326E+03  0.10000000000E+01 0.  0.
         21    1    1    2  502  501 -0.22293031005E+02 -0.38087170866E+02  0.27649575734E+03  0.27999556361E+03  0.00000000000E+00 0.  1.
<mgrwt>
<rscale>  1 0.13256152E+03</rscale>
<asrwt>0</asrwt>
<pdfrwt beam="2">  1        4 0.40907172E-02 0.13256152E+03</pdfrwt>
<pdfrwt beam="1">  1       -4 0.70016124E-01 0.13256152E+03</pdfrwt>
<totfact> 0.10339868E+03</totfact>
</mgrwt>
</event>
<event>
 6    4  0.2271823E-003  0.1398822E+03  0.7818608E-02  0.1213488E+00
         -4   -1    0    0    0  501 -0.00000000000E+00  0.00000000000E+00  0.30824513151E+03  0.30824774776E+03  0.12700000000E+01 0.  1.
          4   -1    0    0  502    0  0.00000000000E+00 -0.00000000000E+00 -0.47446812894E+02  0.47463806777E+02  0.12700000000E+01 0.  1.
         25    2    1    2    0    0 -0.60364047676E+02  0.17262355280E+02  0.73182178443E+02  0.15786913438E+03  0.12500090074E+03 0.  0.
    9000005    1    3    3    0    0  0.20401303783E+02 -0.23298896069E+01  0.71862064554E+02  0.74744885468E+02  0.10000000000E+01 0.  0.
    9000005    1    3    3    0    0 -0.80765351459E+02  0.19592244887E+02  0.13201138894E+01  0.83124248909E+02  0.10000000000E+01 0.  0.
         21    1    1    2  502  501  0.60364047676E+02 -0.17262355280E+02  0.18761614017E+03  0.19784242016E+03  0.00000000000E+00 0.  1.
<mgrwt>
<rscale>  1 0.13988221E+03</rscale>
<asrwt>0</asrwt>
<pdfrwt beam="2">  1        4 0.73010181E-02 0.13988221E+03</pdfrwt>
<pdfrwt beam="1">  1       -4 0.47423837E-01 0.13988221E+03</pdfrwt>
<totfact> 0.92382829E+02</totfact>
</mgrwt>
</event>
<event>
 6    4  0.2271823E-003  0.1274188E+03  0.7818608E-02  0.1231337E+00
         -4   -1    0    0    0  501 -0.00000000000E+00  0.00000000000E+00  0.50748337699E+02  0.50764226373E+02  0.12700000000E+01 0. -1.
          4   -1    0    0  502    0  0.00000000000E+00 -0.00000000000E+00 -0.11419384878E+03  0.11420091067E+03  0.12700000000E+01 0. -1.
         25    2    1    2    0    0 -0.92252984401E+01  0.22913630882E+02 -0.55861543819E+02  0.13912607416E+03  0.12500164727E+03 0.  0.
    9000005    1    3    3    0    0  0.86843056350E+01  0.11602417290E+02  0.39159640944E+02  0.41767340473E+02  0.10000000000E+01 0.  0.
    9000005    1    3    3    0    0 -0.17909604075E+02  0.11311213592E+02 -0.95021184763E+02  0.97358733685E+02  0.10000000000E+01 0.  0.
         21    1    1    2  502  501  0.92252984401E+01 -0.22913630882E+02 -0.75839672589E+01  0.25839062887E+02  0.00000000000E+00 0. -1.
<mgrwt>
<rscale>  1 0.12741881E+03</rscale>
<asrwt>0</asrwt>
<pdfrwt beam="2">  1        4 0.17570050E-01 0.12741881E+03</pdfrwt>
<pdfrwt beam="1">  1       -4 0.78092020E-02 0.12741881E+03</pdfrwt>
<totfact> 0.52611635E+03</totfact>
</mgrwt>
</event>
<event>
 6    4  0.2271823E-003  0.1381873E+03  0.7818608E-02  0.1215789E+00
          4   -1    0    0  502    0  0.00000000000E+00  0.00000000000E+00  0.78842871216E+01  0.79859178192E+01  0.12700000000E+01 0. -1.
         -4   -1    0    0    0  501 -0.00000000000E+00 -0.00000000000E+00 -0.12285538282E+04  0.12285544846E+04  0.12700000000E+01 0. -1.
         25    2    1    2    0    0  0.56703768463E+02 -0.15972057514E+02 -0.81969034082E+03  0.83125686834E+03  0.12500120935E+03 0.  0.
    9000005    1    3    3    0    0  0.87446481050E+02  0.13200654871E+02 -0.66526956757E+03  0.67112274724E+03  0.10000000000E+01 0.  0.
    9000005    1    3    3    0    0 -0.30742712586E+02 -0.29172712386E+02 -0.15442077326E+03  0.16013412109E+03  0.10000000000E+01 0.  0.
         21    1    1    2  502  501 -0.56703768463E+02  0.15972057514E+02 -0.40097920024E+03  0.40528353409E+03  0.00000000000E+00 0. -1.
<mgrwt>
<rscale>  1 0.13818729E+03</rscale>
<asrwt>0</asrwt>
<pdfrwt beam="1">  1        4 0.12208365E-02 0.13818729E+03</pdfrwt>
<pdfrwt beam="2">  1       -4 0.18901600E+00 0.13818729E+03</pdfrwt>
<totfact> 0.62138418E+02</totfact>
</mgrwt>
</event>
<event>
 6    4  0.2271823E-003  0.1339412E+03  0.7818608E-02  0.1221722E+00
          4   -1    0    0  502    0  0.00000000000E+00  0.00000000000E+00  0.62664202760E+01  0.63938191307E+01  0.12700000000E+01 0.  1.
         -4   -1    0    0    0  501 -0.00000000000E+00 -0.00000000000E+00 -0.14009345975E+04  0.14009351732E+04  0.12700000000E+01 0.  1.
         25    2    1    2    0    0  0.48049429206E+02  0.25022869253E+01 -0.84390726638E+03  0.85447042990E+03  0.12500092894E+03 0.  0.
    9000005    1    3    3    0    0 -0.24630251896E+02  0.70387379885E+01 -0.41600764272E+02  0.48865291659E+02  0.10000000000E+01 0.  0.
    9000005    1    3    3    0    0  0.72679681102E+02 -0.45364510632E+01 -0.80230650211E+03  0.80560513824E+03  0.10000000000E+01 0.  0.
         21    1    1    2  502  501 -0.48049429206E+02 -0.25022869253E+01 -0.55076091087E+03  0.55285856240E+03  0.00000000000E+00 0.  1.
<mgrwt>
<rscale>  1 0.13394119E+03</rscale>
<asrwt>0</asrwt>
<pdfrwt beam="1">  1        4 0.97390996E-03 0.13394119E+03</pdfrwt>
<pdfrwt beam="2">  1       -4 0.21553800E+00 0.13394119E+03</pdfrwt>
<totfact> 0.59580556E+02</totfact>
</mgrwt>
</event>
<event>
 6    4  0.2271823E-003  0.1289990E+03  0.7818608E-02  0.1228949E+00
          4   -1    0    0  502    0  0.00000000000E+00  0.00000000000E+00  0.65039084450E+03  0.65039208445E+03  0.12700000000E+01 0.  1.
         -4   -1    0    0    0  501 -0.00000000000E+00 -0.00000000000E+00 -0.14178993702E+02  0.14235756475E+02  0.12700000000E+01 0.  1.
         25    2    1    2    0    0 -0.33808548401E+01 -0.31687607496E+02  0.60963152129E+03  0.62313026792E+03  0.12500081759E+03 0.  0.
    9000005    1    3    3    0    0  0.90758319230E+01  0.27314187660E+02  0.47183716248E+03  0.47271528796E+03  0.10000000000E+01 0.  0.
    9000005    1    3    3    0    0 -0.12456686763E+02 -0.59001795156E+02  0.13779435880E+03  0.15041497996E+03  0.10000000000E+01 0.  0.
         21    1    1    2  502  501  0.33808548401E+01  0.31687607496E+02  0.26580329512E+02  0.41497573004E+02  0.00000000000E+00 0. -1.
<mgrwt>
<rscale>  1 0.12899899E+03</rscale>
<asrwt>0</asrwt>
<pdfrwt beam="1">  1        4 0.10006458E+00 0.12899899E+03</pdfrwt>
<pdfrwt beam="2">  1       -4 0.21858457E-02 0.12899899E+03</pdfrwt>
<totfact> 0.12371874E+03</totfact>
</mgrwt>
</event>
<event>
 6    4  0.2271823E-003  0.1282949E+03  0.7818608E-02  0.1230008E+00
          4   -1    0    0  502    0  0.00000000000E+00  0.00000000000E+00  0.12927602093E+04  0.12927608331E+04  0.12700000000E+01 0.  1.
         -4   -1    0    0    0  501 -0.00000000000E+00 -0.00000000000E+00 -0.47213151922E+01  0.48891427822E+01  0.12700000000E+01 0.  1.
         25    2    1    2    0    0  0.19161050815E+02  0.21613165439E+02  0.10875612343E+04  0.10951022855E+04  0.12500121062E+03 0.  0.
    9000005    1    3    3    0    0  0.58315425114E+02 -0.20400054761E+02  0.35883762675E+03  0.36411851561E+03  0.10000000000E+01 0.  0.
    9000005    1    3    3    0    0 -0.39154374298E+02  0.42013220200E+02  0.72872360754E+03  0.73098376991E+03  0.10000000000E+01 0.  0.
         21    1    1    2  502  501 -0.19161050815E+02 -0.21613165439E+02  0.20047765983E+03  0.20254769039E+03  0.00000000000E+00 0.  1.
<mgrwt>
<rscale>  1 0.12829488E+03</rscale>
<asrwt>0</asrwt>
<pdfrwt beam="1">  1        4 0.19889897E+00 0.12829488E+03</pdfrwt>
<pdfrwt beam="2">  1       -4 0.73931462E-03 0.12829488E+03</pdfrwt>
<totfact> 0.11282190E+03</totfact>
</mgrwt>
</event>
<event>
 6    4  0.2271823E-003  0.1321546E+03  0.7818608E-02  0.1224293E+00
          4   -1    0    0  502    0  0.00000000000E+00  0.00000000000E+00  0.92493179895E+02  0.92501898505E+02  0.12700000000E+01 0. -1.
         -4   -1    0    0    0  501 -0.00000000000E+00 -0.00000000000E+00 -0.15613902856E+03  0.15614419343E+03  0.12700000000E+01 0. -1.
         25    2    1    2    0    0 -0.99004719146E+01  0.41734465841E+02  0.38675982008E+02  0.13769771648E+03  0.12500017822E+03 0.  0.
    9000005    1    3    3    0    0 -0.35361044802E+02 -0.22374070629E+01 -0.33933201647E+02  0.49070068819E+02  0.10000000000E+01 0.  0.
    9000005    1    3    3    0    0  0.25460572887E+02  0.43971872903E+02  0.72609183655E+02  0.88627647658E+02  0.10000000000E+01 0.  0.
         21    1    1    2  502  501  0.99004719146E+01 -0.41734465841E+02 -0.10232183068E+03  0.11094837545E+03  0.00000000000E+00 0. -1.
<mgrwt>
<rscale>  1 0.13215457E+03</rscale>
<asrwt>0</asrwt>
<pdfrwt beam="1">  1        4 0.14230788E-01 0.13215457E+03</pdfrwt>
<pdfrwt beam="2">  1       -4 0.24022457E-01 0.13215457E+03</pdfrwt>
<totfact> 0.10940275E+03</totfact>
</mgrwt>
</event>
<event>
 6    4  0.2271823E-003  0.1310564E+03  0.7818608E-02  0.1225897E+00
         -4   -1    0    0    0  501 -0.00000000000E+00  0.00000000000E+00  0.43058500050E+03  0.43058687341E+03  0.12700000000E+01 0.  1.
          4   -1    0    0  502    0  0.00000000000E+00 -0.00000000000E+00 -0.24095543838E+02  0.24128989470E+02  0.12700000000E+01 0.  1.
         25    2    1    2    0    0  0.38144455021E+02 -0.99805693861E+01  0.16842045599E+03  0.21340390650E+03  0.12498466345E+03 0.  0.
    9000005    1    3    3    0    0 -0.23677587196E+01  0.35926739550E+02  0.14237437356E+03  0.14685979417E+03  0.10000000000E+01 0.  0.
    9000005    1    3    3    0    0  0.40512213741E+02 -0.45907308936E+02  0.26046082433E+02  0.66544112332E+02  0.10000000000E+01 0.  0.
         21    1    1    2  502  501 -0.38144455021E+02  0.99805693861E+01  0.23806900067E+03  0.24131195638E+03  0.00000000000E+00 0. -1.
<mgrwt>
<rscale>  1 0.13105639E+03</rscale>
<asrwt>0</asrwt>
<pdfrwt beam="2">  1        4 0.37097234E-02 0.13105639E+03</pdfrwt>
<pdfrwt beam="1">  1       -4 0.66246565E-01 0.13105639E+03</pdfrwt>
<totfact> 0.13561125E+03</totfact>
</mgrwt>
</event>
<event>
 6    4  0.2271823E-003  0.1319167E+03  0.7818608E-02  0.1224639E+00
          4   -1    0    0  502    0  0.00000000000E+00  0.00000000000E+00  0.46851133687E+03  0.46851305817E+03  0.12700000000E+01 0.  1.
         -4   -1    0    0    0  501 -0.00000000000E+00 -0.00000000000E+00 -0.16398200047E+02  0.16447305700E+02  0.12700000000E+01 0.  1.
         25    2    1    2    0    0  0.34454207657E+02  0.24269605284E+02  0.31471481697E+03  0.34124396096E+03  0.12500367477E+03 0.  0.
    9000005    1    3    3    0    0 -0.96156191209E+01  0.65675346304E+02  0.21086758795E+03  0.22106978738E+03  0.10000000000E+01 0.  0.
    9000005    1    3    3    0    0  0.44069826778E+02 -0.41405741020E+02  0.10384722902E+03  0.12017417358E+03  0.10000000000E+01 0.  0.
         21    1    1    2  502  501 -0.34454207657E+02 -0.24269605284E+02  0.13739831985E+03  0.14371640291E+03  0.00000000000E+00 0.  1.
<mgrwt>
<rscale>  1 0.13191673E+03</rscale>
<asrwt>0</asrwt>
<pdfrwt beam="1">  1        4 0.72082571E-01 0.13191673E+03</pdfrwt>
<pdfrwt beam="2">  1       -4 0.25267100E-02 0.13191673E+03</pdfrwt>
<totfact> 0.20674311E+03</totfact>
</mgrwt>
</event>
<event>
 6    4  0.2271823E-003  0.1266981E+03  0.7818608E-02  0.1232439E+00
         -4   -1    0    0    0  501 -0.00000000000E+00  0.00000000000E+00  0.54495899770E+01  0.55956171168E+01  0.12700000000E+01 0. -1.
          4   -1    0    0  502    0  0.00000000000E+00 -0.00000000000E+00 -0.99730314113E+03  0.99730394976E+03  0.12700000000E+01 0. -1.
         25    2    1    2    0    0  0.83504462564E+01  0.18917586944E+02 -0.88950732994E+03  0.89848522857E+03  0.12499924354E+03 0.  0.
    9000005    1    3    3    0    0  0.12922848450E+02 -0.11255555459E+02 -0.84095193513E+03  0.84112712758E+03  0.10000000000E+01 0.  0.
    9000005    1    3    3    0    0 -0.45724021940E+01  0.30173142403E+02 -0.48555394809E+02  0.57358100991E+02  0.10000000000E+01 0.  0.
         21    1    1    2  502  501 -0.83504462564E+01 -0.18917586944E+02 -0.10234622121E+03  0.10441433831E+03  0.00000000000E+00 0.  1.
<mgrwt>
<rscale>  1 0.12669813E+03</rscale>
<asrwt>0</asrwt>
<pdfrwt beam="2">  1        4 0.15344240E+00 0.12669813E+03</pdfrwt>
<pdfrwt beam="1">  1       -4 0.84969431E-03 0.12669813E+03</pdfrwt>
<totfact> 0.18370685E+03</totfact>
</mgrwt>
</event>
<event>
 6    4  0.2271823E-003  0.1423123E+03  0.7818608E-02  0.1210251E+00
         -4   -1    0    0    0  501 -0.00000000000E+00  0.00000000000E+00  0.18886429051E+03  0.18886856046E+03  0.12700000000E+01 0. -1.
          4   -1    0    0  502    0  0.00000000000E+00 -0.00000000000E+00 -0.66394775147E+02  0.66406920323E+02  0.12700000000E+01 0. -1.
         25    2    1    2    0    0  0.27293928897E+02 -0.62302931990E+02  0.38918546202E+02  0.14753793702E+03  0.12500470284E+03 0.  0.
    9000005    1    3    3    0    0  0.40437144545E+02 -0.91292139121E+02  0.35071939696E+01  0.99913551302E+02  0.10000000000E+01 0.  0.
    9000005    1    3    3    0    0 -0.13143215648E+02  0.28989207132E+02  0.35411352233E+02  0.47624385714E+02  0.10000000000E+01 0.  0.
         21    1    1    2  502  501 -0.27293928897E+02  0.62302931990E+02  0.83550969166E+02  0.10773754377E+03  0.00000000000E+00 0. -1.
<mgrwt>
<rscale>  1 0.14231230E+03</rscale>
<asrwt>0</asrwt>
<pdfrwt beam="2">  1        4 0.10215844E-01 0.14231230E+03</pdfrwt>
<pdfrwt beam="1">  1       -4 0.29057307E-01 0.14231230E+03</pdfrwt>
<totfact> 0.13758459E+03</totfact>
</mgrwt>
</event>
<event>
 6    4  0.2271823E-003  0.1267888E+03  0.7818608E-02  0.1232300E+00
         -4   -1    0    0    0  501 -0.00000000000E+00  0.00000000000E+00  0.77248326287E+02  0.77258765290E+02  0.12700000000E+01 0.  1.
          4   -1    0    0  502    0  0.00000000000E+00 -0.00000000000E+00 -0.72641759750E+02  0.72652860643E+02  0.12700000000E+01 0.  1.
         25    2    1    2    0    0 -0.10851325402E+02 -0.18213505841E+02  0.12240029631E+02  0.12737825475E+03  0.12500367355E+03 0.  0.
    9000005    1    3    3    0    0  0.31474270930E+02 -0.58564816329E+02  0.17197137503E+02  0.68681940716E+02  0.10000000000E+01 0.  0.
    9000005    1    3    3    0    0 -0.42325596331E+02  0.40351310488E+02 -0.49571078712E+01  0.58696314036E+02  0.10000000000E+01 0.  0.
         21    1    1    2  502  501  0.10851325402E+02  0.18213505841E+02 -0.76334630943E+01  0.22533371182E+02  0.00000000000E+00 0.  1.
<mgrwt>
<rscale>  1 0.12678881E+03</rscale>
<asrwt>0</asrwt>
<pdfrwt beam="2">  1        4 0.11177312E-01 0.12678881E+03</pdfrwt>
<pdfrwt beam="1">  1       -4 0.11886015E-01 0.12678881E+03</pdfrwt>
<totfact> 0.56863661E+03</totfact>
</mgrwt>
</event>
<event>
 6    4  0.2271823E-003  0.1278152E+03  0.7818608E-02  0.1230734E+00
         -4   -1    0    0    0  501 -0.00000000000E+00  0.00000000000E+00  0.21643974742E+02  0.21681202519E+02  0.12700000000E+01 0.  1.
          4   -1    0    0  502    0  0.00000000000E+00 -0.00000000000E+00 -0.29709834455E+03  0.29710105896E+03  0.12700000000E+01 0.  1.
         25    2    1    2    0    0 -0.26287313992E+02 -0.45889039826E+01 -0.25471770049E+03  0.28498743390E+03  0.12499859847E+03 0.  0.
    9000005    1    3    3    0    0 -0.62480313282E+00  0.57151419670E+02 -0.83663231239E+02  0.10132724910E+03  0.10000000000E+01 0.  0.
    9000005    1    3    3    0    0 -0.25662510859E+02 -0.61740323653E+02 -0.17105446925E+03  0.18366018480E+03  0.10000000000E+01 0.  0.
         21    1    1    2  502  501  0.26287313992E+02  0.45889039826E+01 -0.20736669314E+02  0.33794827576E+02  0.00000000000E+00 0.  1.
<mgrwt>
<rscale>  1 0.12781522E+03</rscale>
<asrwt>0</asrwt>
<pdfrwt beam="2">  1        4 0.45710507E-01 0.12781522E+03</pdfrwt>
<pdfrwt beam="1">  1       -4 0.33329149E-02 0.12781522E+03</pdfrwt>
<totfact> 0.34386208E+03</totfact>
</mgrwt>
</event>
