<event>
 5    1  0.3282421E-002  0.1250022E+03  0.7818608E-02  0.1235066E+00
         -4   -1    0    0    0  501 -0.00000000000E+00  0.00000000000E+00  0.50052390379E+02  0.50068499904E+02  0.12700000000E+01 0. -1.
          4   -1    0    0  501    0  0.00000000000E+00 -0.00000000000E+00 -0.78012158900E+02  0.78022495707E+02  0.12700000000E+01 0. -1.
         25    2    1    2    0    0  0.00000000000E+00  0.00000000000E+00 -0.27959768521E+02  0.12809099561E+03  0.12500221798E+03 0.  0.
    9000005    1    3    3    0    0  0.95915364112E+01 -0.60169258506E+02 -0.28217502491E+02  0.67153292449E+02  0.10000000000E+01 0.  0.
    9000005    1    3    3    0    0 -0.95915364112E+01  0.60169258506E+02  0.25773396985E+00  0.60937703162E+02  0.10000000000E+01 0.  0.
<mgrwt>
<rscale>  0 0.12500222E+03</rscale>
<asrwt>0</asrwt>
<pdfrwt beam="2">  1        4 0.12003905E-01 0.12500222E+03</pdfrwt>
<pdfrwt beam="1">  1       -4 0.77024021E-02 0.12500222E+03</pdfrwt>
<totfact> 0.10385003E+04</totfact>
</mgrwt>
</event>
<event>
 5    1  0.3282421E-002  0.1250014E+03  0.7818608E-02  0.1235067E+00
         -4   -1    0    0    0  501 -0.00000000000E+00  0.00000000000E+00  0.86364813519E+02  0.86374150729E+02  0.12700000000E+01 0.  1.
          4   -1    0    0  501    0  0.00000000000E+00 -0.00000000000E+00 -0.45209942670E+02  0.45227777043E+02  0.12700000000E+01 0.  1.
         25    2    1    2    0    0  0.00000000000E+00  0.00000000000E+00  0.41154870848E+02  0.13160192777E+03  0.12500137599E+03 0.  0.
    9000005    1    3    3    0    0 -0.54703931985E+02 -0.29854521487E+02  0.25461738579E+02  0.67328394896E+02  0.10000000000E+01 0.  0.
    9000005    1    3    3    0    0  0.54703931985E+02  0.29854521487E+02  0.15693132270E+02  0.64273532875E+02  0.10000000000E+01 0.  0.
<mgrwt>
<rscale>  0 0.12500138E+03</rscale>
<asrwt>0</asrwt>
<pdfrwt beam="2">  1        4 0.69574659E-02 0.12500138E+03</pdfrwt>
<pdfrwt beam="1">  1       -4 0.13288984E-01 0.12500138E+03</pdfrwt>
<totfact> 0.10309882E+04</totfact>
</mgrwt>
</event>
<event>
 5    1  0.3282421E-002  0.1250014E+03  0.7818608E-02  0.1235067E+00
         -4   -1    0    0    0  501 -0.00000000000E+00  0.00000000000E+00  0.10181970872E+03  0.10182762878E+03  0.12700000000E+01 0. -1.
          4   -1    0    0  501    0  0.00000000000E+00 -0.00000000000E+00 -0.38345338932E+02  0.38366364407E+02  0.12700000000E+01 0. -1.
         25    2    1    2    0    0  0.00000000000E+00  0.00000000000E+00  0.63474369784E+02  0.14019399319E+03  0.12500144042E+03 0.  0.
    9000005    1    3    3    0    0 -0.26163738393E+02 -0.53865652043E+02  0.11696743395E+02  0.61023466657E+02  0.10000000000E+01 0.  0.
    9000005    1    3    3    0    0  0.26163738393E+02  0.53865652043E+02  0.51777626389E+02  0.79170526531E+02  0.10000000000E+01 0.  0.
<mgrwt>
<rscale>  0 0.12500144E+03</rscale>
<asrwt>0</asrwt>
<pdfrwt beam="2">  1        4 0.59015096E-02 0.12500144E+03</pdfrwt>
<pdfrwt beam="1">  1       -4 0.15666797E-01 0.12500144E+03</pdfrwt>
<totfact> 0.10129238E+04</totfact>
</mgrwt>
</event>
<event>
 5    1  0.3282421E-002  0.1250025E+03  0.7818608E-02  0.1235065E+00
          4   -1    0    0  501    0  0.00000000000E+00  0.00000000000E+00  0.26932383208E+03  0.26932682641E+03  0.12700000000E+01 0. -1.
         -4   -1    0    0    0  501 -0.00000000000E+00 -0.00000000000E+00 -0.14473619549E+02  0.14529231324E+02  0.12700000000E+01 0. -1.
         25    2    1    2    0    0  0.00000000000E+00  0.00000000000E+00  0.25485021253E+03  0.28385605774E+03  0.12500252272E+03 0.  0.
    9000005    1    3    3    0    0 -0.21455169695E+02  0.10109266697E+02 -0.38674724298E+01  0.24051588779E+02  0.10000000000E+01 0.  0.
    9000005    1    3    3    0    0  0.21455169695E+02 -0.10109266697E+02  0.25871768496E+03  0.25980446896E+03  0.10000000000E+01 0.  0.
<mgrwt>
<rscale>  0 0.12500252E+03</rscale>
<asrwt>0</asrwt>
<pdfrwt beam="1">  1        4 0.41438939E-01 0.12500252E+03</pdfrwt>
<pdfrwt beam="2">  1       -4 0.22312191E-02 0.12500252E+03</pdfrwt>
<totfact> 0.77665231E+03</totfact>
</mgrwt>
</event>
<event>
 5    1  0.3282421E-002  0.1250026E+03  0.7818608E-02  0.1235065E+00
          4   -1    0    0  501    0  0.00000000000E+00  0.00000000000E+00  0.22681948939E+03  0.22682304483E+03  0.12700000000E+01 0.  1.
         -4   -1    0    0    0  501 -0.00000000000E+00 -0.00000000000E+00 -0.17195455426E+02  0.17242290663E+02  0.12700000000E+01 0.  1.
         25    2    1    2    0    0  0.00000000000E+00  0.00000000000E+00  0.20962403396E+03  0.24406533549E+03  0.12500260947E+03 0.  0.
    9000005    1    3    3    0    0  0.48260211916E+02 -0.45501188308E+01  0.18182156386E+03  0.18817500556E+03  0.10000000000E+01 0.  0.
    9000005    1    3    3    0    0 -0.48260211916E+02  0.45501188308E+01  0.27802470104E+02  0.55890329928E+02  0.10000000000E+01 0.  0.
<mgrwt>
<rscale>  0 0.12500261E+03</rscale>
<asrwt>0</asrwt>
<pdfrwt beam="1">  1        4 0.34899180E-01 0.12500261E+03</pdfrwt>
<pdfrwt beam="2">  1       -4 0.26493311E-02 0.12500261E+03</pdfrwt>
<totfact> 0.83190772E+03</totfact>
</mgrwt>
</event>
<event>
 5    1  0.3282421E-002  0.1250005E+03  0.7818608E-02  0.1235068E+00
         -4   -1    0    0    0  501 -0.00000000000E+00  0.00000000000E+00  0.25347597557E+01  0.28351202830E+01  0.12700000000E+01 0.  1.
          4   -1    0    0  501    0  0.00000000000E+00 -0.00000000000E+00 -0.14545853266E+04  0.14545858810E+04  0.12700000000E+01 0.  1.
         25    2    1    2    0    0  0.00000000000E+00  0.00000000000E+00 -0.14520505668E+04  0.14574210013E+04  0.12500050545E+03 0.  0.
    9000005    1    3    3    0    0 -0.54727069236E+02 -0.14724624917E+02 -0.41900304019E+03  0.42281960028E+03  0.10000000000E+01 0.  0.
    9000005    1    3    3    0    0  0.54727069236E+02  0.14724624917E+02 -0.10330475267E+04  0.10346014010E+04  0.10000000000E+01 0.  0.
<mgrwt>
<rscale>  0 0.12500051E+03</rscale>
<asrwt>0</asrwt>
<pdfrwt beam="2">  1        4 0.22380488E+00 0.12500051E+03</pdfrwt>
<pdfrwt beam="1">  1       -4 0.41311150E-03 0.12500051E+03</pdfrwt>
<totfact> 0.18781124E+03</totfact>
</mgrwt>
</event>
<event>
 5    1  0.3282421E-002  0.1250000E+03  0.7818608E-02  0.1235069E+00
          4   -1    0    0  501    0  0.00000000000E+00  0.00000000000E+00  0.59175795576E+03  0.59175931856E+03  0.12700000000E+01 0. -1.
         -4   -1    0    0    0  501 -0.00000000000E+00 -0.00000000000E+00 -0.65386225933E+01  0.66608171735E+01  0.12700000000E+01 0. -1.
         25    2    1    2    0    0  0.00000000000E+00  0.00000000000E+00  0.58521933316E+03  0.59842013573E+03  0.12499996377E+03 0.  0.
    9000005    1    3    3    0    0  0.42150333727E+02 -0.23444853377E+02  0.48283947391E+03  0.48524351552E+03  0.10000000000E+01 0.  0.
    9000005    1    3    3    0    0 -0.42150333727E+02  0.23444853377E+02  0.10237985925E+03  0.11317662022E+03  0.10000000000E+01 0.  0.
<mgrwt>
<rscale>  0 0.12499996E+03</rscale>
<asrwt>0</asrwt>
<pdfrwt beam="1">  1        4 0.91049190E-01 0.12499996E+03</pdfrwt>
<pdfrwt beam="2">  1       -4 0.10154463E-02 0.12499996E+03</pdfrwt>
<totfact> 0.48967526E+03</totfact>
</mgrwt>
</event>
<event>
 5    1  0.3282421E-002  0.1249971E+03  0.7818608E-02  0.1235074E+00
          4   -1    0    0  501    0  0.00000000000E+00  0.00000000000E+00  0.66906749552E+03  0.66906870085E+03  0.12700000000E+01 0. -1.
         -4   -1    0    0    0  501 -0.00000000000E+00 -0.00000000000E+00 -0.57677839750E+01  0.59059488639E+01  0.12700000000E+01 0. -1.
         25    2    1    2    0    0  0.00000000000E+00  0.00000000000E+00  0.66329971154E+03  0.67497464971E+03  0.12499708167E+03 0.  0.
    9000005    1    3    3    0    0  0.18890477296E+01  0.55311207936E+02  0.48835646463E+03  0.49148340233E+03  0.10000000000E+01 0.  0.
    9000005    1    3    3    0    0 -0.18890477296E+01 -0.55311207936E+02  0.17494324691E+03  0.18349124738E+03  0.10000000000E+01 0.  0.
<mgrwt>
<rscale>  0 0.12499708E+03</rscale>
<asrwt>0</asrwt>
<pdfrwt beam="1">  1        4 0.10294415E+00 0.12499708E+03</pdfrwt>
<pdfrwt beam="2">  1       -4 0.89807242E-03 0.12499708E+03</pdfrwt>
<totfact> 0.44443930E+03</totfact>
</mgrwt>
</event>
<event>
 5    1  0.3282421E-002  0.1250003E+03  0.7818608E-02  0.1235069E+00
          4   -1    0    0  501    0  0.00000000000E+00  0.00000000000E+00  0.62571131824E+03  0.62571260709E+03  0.12700000000E+01 0.  1.
         -4   -1    0    0    0  501 -0.00000000000E+00 -0.00000000000E+00 -0.61770256889E+01  0.63062307571E+01  0.12700000000E+01 0.  1.
         25    2    1    2    0    0  0.00000000000E+00  0.00000000000E+00  0.61953429255E+03  0.63201883785E+03  0.12500028700E+03 0.  0.
    9000005    1    3    3    0    0  0.56046850740E+02  0.97867216308E+01  0.44046991044E+03  0.44413035406E+03  0.10000000000E+01 0.  0.
    9000005    1    3    3    0    0 -0.56046850740E+02 -0.97867216308E+01  0.17906438212E+03  0.18788848379E+03  0.10000000000E+01 0.  0.
<mgrwt>
<rscale>  0 0.12500029E+03</rscale>
<asrwt>0</asrwt>
<pdfrwt beam="1">  1        4 0.96273327E-01 0.12500029E+03</pdfrwt>
<pdfrwt beam="2">  1       -4 0.96034954E-03 0.12500029E+03</pdfrwt>
<totfact> 0.46906617E+03</totfact>
</mgrwt>
</event>
<event>
 5    1  0.3282421E-002  0.1249993E+03  0.7818608E-02  0.1235070E+00
          4   -1    0    0  501    0  0.00000000000E+00  0.00000000000E+00  0.51808521501E+03  0.51808677160E+03  0.12700000000E+01 0.  1.
         -4   -1    0    0    0  501 -0.00000000000E+00 -0.00000000000E+00 -0.74846399778E+01  0.75916227249E+01  0.12700000000E+01 0.  1.
         25    2    1    2    0    0  0.00000000000E+00  0.00000000000E+00  0.51060057503E+03  0.52567839433E+03  0.12499930817E+03 0.  0.
    9000005    1    3    3    0    0  0.27583590398E+02 -0.50661382550E+02  0.35638663393E+03  0.36102612508E+03  0.10000000000E+01 0.  0.
    9000005    1    3    3    0    0 -0.27583590398E+02  0.50661382550E+02  0.15421394110E+03  0.16465226925E+03  0.10000000000E+01 0.  0.
<mgrwt>
<rscale>  0 0.12499931E+03</rscale>
<asrwt>0</asrwt>
<pdfrwt beam="1">  1        4 0.79713787E-01 0.12499931E+03</pdfrwt>
<pdfrwt beam="2">  1       -4 0.11598320E-02 0.12499931E+03</pdfrwt>
<totfact> 0.53926475E+03</totfact>
</mgrwt>
</event>
<event>
 5    1  0.3282421E-002  0.1250012E+03  0.7818608E-02  0.1235067E+00
         -4   -1    0    0    0  501 -0.00000000000E+00  0.00000000000E+00  0.14427909715E+03  0.14428468656E+03  0.12700000000E+01 0.  1.
          4   -1    0    0  501    0  0.00000000000E+00 -0.00000000000E+00 -0.27053784098E+02  0.27083576832E+02  0.12700000000E+01 0.  1.
         25    2    1    2    0    0  0.00000000000E+00  0.00000000000E+00  0.11722531306E+03  0.17136826339E+03  0.12500123070E+03 0.  0.
    9000005    1    3    3    0    0  0.43199741645E+01  0.60465282790E+02  0.37793686404E+02  0.71442811617E+02  0.10000000000E+01 0.  0.
    9000005    1    3    3    0    0 -0.43199741645E+01 -0.60465282790E+02  0.79431626652E+02  0.99925451774E+02  0.10000000000E+01 0.  0.
<mgrwt>
<rscale>  0 0.12500123E+03</rscale>
<asrwt>0</asrwt>
<pdfrwt beam="2">  1        4 0.41648423E-02 0.12500123E+03</pdfrwt>
<pdfrwt beam="1">  1       -4 0.22199506E-01 0.12500123E+03</pdfrwt>
<totfact> 0.95191595E+03</totfact>
</mgrwt>
</event>
<event>
 5    1  0.3282421E-002  0.1249790E+03  0.7818608E-02  0.1235102E+00
          4   -1    0    0  501    0  0.00000000000E+00  0.00000000000E+00  0.78934349770E+02  0.78944565827E+02  0.12700000000E+01 0.  1.
         -4   -1    0    0    0  501 -0.00000000000E+00 -0.00000000000E+00 -0.49449164811E+02  0.49465470790E+02  0.12700000000E+01 0.  1.
         25    2    1    2    0    0  0.00000000000E+00  0.00000000000E+00  0.29485184959E+02  0.12841003662E+03  0.12497904373E+03 0.  0.
    9000005    1    3    3    0    0 -0.32007267443E+02  0.41754355463E+02 -0.19888030103E+02  0.56253223114E+02  0.10000000000E+01 0.  0.
    9000005    1    3    3    0    0  0.32007267443E+02 -0.41754355463E+02  0.49373215062E+02  0.72156813503E+02  0.10000000000E+01 0.  0.
<mgrwt>
<rscale>  0 0.12497904E+03</rscale>
<asrwt>0</asrwt>
<pdfrwt beam="1">  1        4 0.12145786E-01 0.12497904E+03</pdfrwt>
<pdfrwt beam="2">  1       -4 0.76096040E-02 0.12497904E+03</pdfrwt>
<totfact> 0.10383553E+04</totfact>
</mgrwt>
</event>
<event>
 5    1  0.3282421E-002  0.1250017E+03  0.7818608E-02  0.1235067E+00
          4   -1    0    0  501    0  0.00000000000E+00  0.00000000000E+00  0.48511167930E+02  0.48527789090E+02  0.12700000000E+01 0.  1.
         -4   -1    0    0    0  501 -0.00000000000E+00 -0.00000000000E+00 -0.80489451442E+02  0.80499470144E+02  0.12700000000E+01 0.  1.
         25    2    1    2    0    0  0.00000000000E+00  0.00000000000E+00 -0.31978283512E+02  0.12902725923E+03  0.12500169202E+03 0.  0.
    9000005    1    3    3    0    0 -0.92659164327E+01 -0.21967534389E+02  0.43637296382E+02  0.49735735744E+02  0.10000000000E+01 0.  0.
    9000005    1    3    3    0    0  0.92659164327E+01  0.21967534389E+02 -0.75615579895E+02  0.79291523489E+02  0.10000000000E+01 0.  0.
<mgrwt>
<rscale>  0 0.12500169E+03</rscale>
<asrwt>0</asrwt>
<pdfrwt beam="1">  1        4 0.74653058E-02 0.12500169E+03</pdfrwt>
<pdfrwt beam="2">  1       -4 0.12385042E-01 0.12500169E+03</pdfrwt>
<totfact> 0.10364965E+04</totfact>
</mgrwt>
</event>
<event>
 5    1  0.3282421E-002  0.1250132E+03  0.7818608E-02  0.1235049E+00
          4   -1    0    0  501    0  0.00000000000E+00  0.00000000000E+00  0.19244172596E+03  0.19244591653E+03  0.12700000000E+01 0.  1.
         -4   -1    0    0    0  501 -0.00000000000E+00 -0.00000000000E+00 -0.20278373855E+02  0.20318103902E+02  0.12700000000E+01 0.  1.
         25    2    1    2    0    0  0.00000000000E+00  0.00000000000E+00  0.17216335210E+03  0.21276402043E+03  0.12501323363E+03 0.  0.
    9000005    1    3    3    0    0  0.55103043611E+00 -0.92288600266E+01  0.19127982037E+03  0.19150573144E+03  0.10000000000E+01 0.  0.
    9000005    1    3    3    0    0 -0.55103043611E+00  0.92288600266E+01 -0.19116468269E+02  0.21258288996E+02  0.10000000000E+01 0.  0.
<mgrwt>
<rscale>  0 0.12501323E+03</rscale>
<asrwt>0</asrwt>
<pdfrwt beam="1">  1        4 0.29609797E-01 0.12501323E+03</pdfrwt>
<pdfrwt beam="2">  1       -4 0.31231284E-02 0.12501323E+03</pdfrwt>
<totfact> 0.88000428E+03</totfact>
</mgrwt>
</event>
<event>
 5    1  0.3282421E-002  0.1250029E+03  0.7818608E-02  0.1235065E+00
          4   -1    0    0  501    0  0.00000000000E+00  0.00000000000E+00  0.22905094861E+04  0.22905098381E+04  0.12700000000E+01 0. -1.
         -4   -1    0    0    0  501 -0.00000000000E+00 -0.00000000000E+00 -0.14686550173E+01  0.19416095282E+01  0.12700000000E+01 0. -1.
         25    2    1    2    0    0  0.00000000000E+00  0.00000000000E+00  0.22890408310E+04  0.22924514477E+04  0.12500285497E+03 0.  0.
    9000005    1    3    3    0    0 -0.35459180548E+02  0.44731060901E+02  0.16110743597E+04  0.16120855479E+04  0.10000000000E+01 0.  0.
    9000005    1    3    3    0    0  0.35459180548E+02 -0.44731060901E+02  0.67796647131E+03  0.68036589973E+03  0.10000000000E+01 0.  0.
<mgrwt>
<rscale>  0 0.12500285E+03</rscale>
<asrwt>0</asrwt>
<pdfrwt beam="1">  1        4 0.35242180E+00 0.12500285E+03</pdfrwt>
<pdfrwt beam="2">  1       -4 0.26235563E-03 0.12500285E+03</pdfrwt>
<totfact> 0.65104204E+02</totfact>
</mgrwt>
</event>
<event>
 5    1  0.3282421E-002  0.1249983E+03  0.7818608E-02  0.1235072E+00
         -4   -1    0    0    0  501 -0.00000000000E+00  0.00000000000E+00  0.31207387777E+02  0.31233218724E+02  0.12700000000E+01 0. -1.
          4   -1    0    0  501    0  0.00000000000E+00 -0.00000000000E+00 -0.12508641276E+03  0.12509285974E+03  0.12700000000E+01 0. -1.
         25    2    1    2    0    0  0.00000000000E+00  0.00000000000E+00 -0.93879024987E+02  0.15632607846E+03  0.12499828589E+03 0.  0.
    9000005    1    3    3    0    0 -0.33184846706E+02 -0.52943161476E+02 -0.45733147395E+02  0.77438576748E+02  0.10000000000E+01 0.  0.
    9000005    1    3    3    0    0  0.33184846706E+02  0.52943161476E+02 -0.48145877592E+02  0.78887501716E+02  0.10000000000E+01 0.  0.
<mgrwt>
<rscale>  0 0.12499829E+03</rscale>
<asrwt>0</asrwt>
<pdfrwt beam="2">  1        4 0.19246546E-01 0.12499829E+03</pdfrwt>
<pdfrwt beam="1">  1       -4 0.48036196E-02 0.12499829E+03</pdfrwt>
<totfact> 0.98059580E+03</totfact>
</mgrwt>
</event>
<event>
 5    1  0.3282421E-002  0.1249937E+03  0.7818608E-02  0.1235079E+00
         -4   -1    0    0    0  501 -0.00000000000E+00  0.00000000000E+00  0.48796435193E+01  0.50422039700E+01  0.12700000000E+01 0.  1.
          4   -1    0    0  501    0  0.00000000000E+00 -0.00000000000E+00 -0.78716139695E+03  0.78716242145E+03  0.12700000000E+01 0.  1.
         25    2    1    2    0    0  0.00000000000E+00  0.00000000000E+00 -0.78228175343E+03  0.79220462542E+03  0.12499370701E+03 0.  0.
    9000005    1    3    3    0    0  0.26987829747E+02 -0.54385847502E+02 -0.29741338408E+03  0.30354881715E+03  0.10000000000E+01 0.  0.
    9000005    1    3    3    0    0 -0.26987829747E+02  0.54385847502E+02 -0.48486836935E+03  0.48865580827E+03  0.10000000000E+01 0.  0.
<mgrwt>
<rscale>  0 0.12499371E+03</rscale>
<asrwt>0</asrwt>
<pdfrwt beam="2">  1        4 0.12111424E+00 0.12499371E+03</pdfrwt>
<pdfrwt beam="1">  1       -4 0.76329847E-03 0.12499371E+03</pdfrwt>
<totfact> 0.38620449E+03</totfact>
</mgrwt>
</event>
<event>
 5    1  0.3282421E-002  0.1250048E+03  0.7818608E-02  0.1235062E+00
          4   -1    0    0  501    0  0.00000000000E+00  0.00000000000E+00  0.34427697615E+02  0.34451114105E+02  0.12700000000E+01 0. -1.
         -4   -1    0    0    0  501 -0.00000000000E+00 -0.00000000000E+00 -0.11340566760E+03  0.11341277858E+03  0.12700000000E+01 0. -1.
         25    2    1    2    0    0  0.00000000000E+00  0.00000000000E+00 -0.78977969987E+02  0.14786389268E+03  0.12500484397E+03 0.  0.
    9000005    1    3    3    0    0  0.43254391879E+02  0.36394335605E+02 -0.71008798150E+02  0.90767502420E+02  0.10000000000E+01 0.  0.
    9000005    1    3    3    0    0 -0.43254391879E+02 -0.36394335605E+02 -0.79691718368E+01  0.57096390260E+02  0.10000000000E+01 0.  0.
<mgrwt>
<rscale>  0 0.12500484E+03</rscale>
<asrwt>0</asrwt>
<pdfrwt beam="1">  1        4 0.52989172E-02 0.12500484E+03</pdfrwt>
<pdfrwt beam="2">  1       -4 0.17449374E-01 0.12500484E+03</pdfrwt>
<totfact> 0.99720341E+03</totfact>
</mgrwt>
</event>
<event>
 5    1  0.3282421E-002  0.1250034E+03  0.7818608E-02  0.1235064E+00
         -4   -1    0    0    0  501 -0.00000000000E+00  0.00000000000E+00  0.32533088278E+03  0.32533336163E+03  0.12700000000E+01 0. -1.
          4   -1    0    0  501    0  0.00000000000E+00 -0.00000000000E+00 -0.11971546895E+02  0.12038722318E+02  0.12700000000E+01 0. -1.
         25    2    1    2    0    0  0.00000000000E+00  0.00000000000E+00  0.31335933589E+03  0.33737208395E+03  0.12500339852E+03 0.  0.
    9000005    1    3    3    0    0  0.41058926220E+02 -0.15306308595E+02  0.36424099160E+02  0.56989766666E+02  0.10000000000E+01 0.  0.
    9000005    1    3    3    0    0 -0.41058926220E+02  0.15306308595E+02  0.27693523673E+03  0.28038231729E+03  0.10000000000E+01 0.  0.
<mgrwt>
<rscale>  0 0.12500340E+03</rscale>
<asrwt>0</asrwt>
<pdfrwt beam="2">  1        4 0.18471343E-02 0.12500340E+03</pdfrwt>
<pdfrwt beam="1">  1       -4 0.50056267E-01 0.12500340E+03</pdfrwt>
<totfact> 0.71131135E+03</totfact>
</mgrwt>
</event>
<event>
 5    1  0.3282421E-002  0.1250001E+03  0.7818608E-02  0.1235069E+00
         -4   -1    0    0    0  501 -0.00000000000E+00  0.00000000000E+00  0.16908221772E+01  0.21146582786E+01  0.12700000000E+01 0. -1.
          4   -1    0    0  501    0  0.00000000000E+00 -0.00000000000E+00 -0.20525400341E+04  0.20525404270E+04  0.12700000000E+01 0. -1.
         25    2    1    2    0    0  0.00000000000E+00  0.00000000000E+00 -0.20508492120E+04  0.20546550853E+04  0.12500011772E+03 0.  0.
    9000005    1    3    3    0    0 -0.54816901657E+02 -0.15954424914E+02 -0.60770527023E+03  0.61038195570E+03  0.10000000000E+01 0.  0.
    9000005    1    3    3    0    0  0.54816901657E+02  0.15954424914E+02 -0.14431439417E+04  0.14442731296E+04  0.10000000000E+01 0.  0.
<mgrwt>
<rscale>  0 0.12500012E+03</rscale>
<asrwt>0</asrwt>
<pdfrwt beam="2">  1        4 0.31580625E+00 0.12500012E+03</pdfrwt>
<pdfrwt beam="1">  1       -4 0.29276113E-03 0.12500012E+03</pdfrwt>
<totfact> 0.91647523E+02</totfact>
</mgrwt>
</event>
<event>
 5    1  0.3282421E-002  0.1250073E+03  0.7818608E-02  0.1235058E+00
         -4   -1    0    0    0  501 -0.00000000000E+00  0.00000000000E+00  0.72066003333E+01  0.73176491009E+01  0.12700000000E+01 0.  1.
          4   -1    0    0  501    0  0.00000000000E+00 -0.00000000000E+00 -0.53784439133E+03  0.53784589074E+03  0.12700000000E+01 0.  1.
         25    2    1    2    0    0  0.00000000000E+00  0.00000000000E+00 -0.53063779100E+03  0.54516353984E+03  0.12500727954E+03 0.  0.
    9000005    1    3    3    0    0 -0.28926673149E+02 -0.31860903234E+02 -0.46295865532E+03  0.46495546681E+03  0.10000000000E+01 0.  0.
    9000005    1    3    3    0    0  0.28926673149E+02  0.31860903234E+02 -0.67679135677E+02  0.80208073037E+02  0.10000000000E+01 0.  0.
<mgrwt>
<rscale>  0 0.12500728E+03</rscale>
<asrwt>0</asrwt>
<pdfrwt beam="2">  1        4 0.82753917E-01 0.12500728E+03</pdfrwt>
<pdfrwt beam="1">  1       -4 0.11173657E-02 0.12500728E+03</pdfrwt>
<totfact> 0.52514574E+03</totfact>
</mgrwt>
</event>
<event>
 5    1  0.3282421E-002  0.1249976E+03  0.7818608E-02  0.1235073E+00
         -4   -1    0    0    0  501 -0.00000000000E+00  0.00000000000E+00  0.24071038593E+02  0.24104518227E+02  0.12700000000E+01 0. -1.
          4   -1    0    0  501    0  0.00000000000E+00 -0.00000000000E+00 -0.16212508623E+03  0.16213006040E+03  0.12700000000E+01 0. -1.
         25    2    1    2    0    0  0.00000000000E+00  0.00000000000E+00 -0.13805404764E+03  0.18623457863E+03  0.12499759281E+03 0.  0.
    9000005    1    3    3    0    0 -0.32123440019E+02  0.53196827952E+02 -0.78828930648E+02  0.10038335624E+03  0.10000000000E+01 0.  0.
    9000005    1    3    3    0    0  0.32123440019E+02 -0.53196827952E+02 -0.59225116990E+02  0.85851222387E+02  0.10000000000E+01 0.  0.
<mgrwt>
<rscale>  0 0.12499759E+03</rscale>
<asrwt>0</asrwt>
<pdfrwt beam="2">  1        4 0.24945278E-01 0.12499759E+03</pdfrwt>
<pdfrwt beam="1">  1       -4 0.37061948E-02 0.12499759E+03</pdfrwt>
<totfact> 0.92511635E+03</totfact>
</mgrwt>
</event>
<event>
 5    1  0.3282421E-002  0.1250000E+03  0.7818608E-02  0.1235069E+00
          4   -1    0    0  501    0  0.00000000000E+00  0.00000000000E+00  0.35232760497E+02  0.35255642276E+02  0.12700000000E+01 0.  1.
         -4   -1    0    0    0  501 -0.00000000000E+00 -0.00000000000E+00 -0.11080727844E+03  0.11081455615E+03  0.12700000000E+01 0.  1.
         25    2    1    2    0    0  0.00000000000E+00  0.00000000000E+00 -0.75574517938E+02  0.14607019842E+03  0.12499998042E+03 0.  0.
    9000005    1    3    3    0    0  0.16154462078E+02  0.59308240003E+02 -0.24627842143E+02  0.66226615389E+02  0.10000000000E+01 0.  0.
    9000005    1    3    3    0    0 -0.16154462078E+02 -0.59308240003E+02 -0.50946675795E+02  0.79843583034E+02  0.10000000000E+01 0.  0.
<mgrwt>
<rscale>  0 0.12499998E+03</rscale>
<asrwt>0</asrwt>
<pdfrwt beam="1">  1        4 0.54227447E-02 0.12499998E+03</pdfrwt>
<pdfrwt beam="2">  1       -4 0.17049593E-01 0.12499998E+03</pdfrwt>
<totfact> 0.10009294E+04</totfact>
</mgrwt>
</event>
<event>
 5    1  0.3282421E-002  0.1250017E+03  0.7818608E-02  0.1235067E+00
          4   -1    0    0  501    0  0.00000000000E+00  0.00000000000E+00  0.96293735909E+01  0.97127614896E+01  0.12700000000E+01 0. -1.
         -4   -1    0    0    0  501 -0.00000000000E+00 -0.00000000000E+00 -0.40383735378E+03  0.40383935074E+03  0.12700000000E+01 0. -1.
         25    2    1    2    0    0  0.00000000000E+00  0.00000000000E+00 -0.39420798019E+03  0.41355211223E+03  0.12500167154E+03 0.  0.
    9000005    1    3    3    0    0  0.23440450648E+02 -0.24471939543E+02 -0.23390042380E+02  0.41187675755E+02  0.10000000000E+01 0.  0.
    9000005    1    3    3    0    0 -0.23440450648E+02  0.24471939543E+02 -0.37081793781E+03  0.37236443648E+03  0.10000000000E+01 0.  0.
<mgrwt>
<rscale>  0 0.12500167E+03</rscale>
<asrwt>0</asrwt>
<pdfrwt beam="1">  1        4 0.14880105E-02 0.12500167E+03</pdfrwt>
<pdfrwt beam="2">  1       -4 0.62135379E-01 0.12500167E+03</pdfrwt>
<totfact> 0.63253402E+03</totfact>
</mgrwt>
</event>
<event>
 5    1  0.3282421E-002  0.1250353E+03  0.7818608E-02  0.1235014E+00
          4   -1    0    0  501    0  0.00000000000E+00  0.00000000000E+00  0.75463095508E+03  0.75463202375E+03  0.12700000000E+01 0. -1.
         -4   -1    0    0    0  501 -0.00000000000E+00 -0.00000000000E+00 -0.51003514275E+01  0.52560902469E+01  0.12700000000E+01 0. -1.
         25    2    1    2    0    0  0.00000000000E+00  0.00000000000E+00  0.74953060365E+03  0.75988811399E+03  0.12503527493E+03 0.  0.
    9000005    1    3    3    0    0  0.32706939321E+02  0.35195888564E+02  0.61778191920E+03  0.61964828261E+03  0.10000000000E+01 0.  0.
    9000005    1    3    3    0    0 -0.32706939321E+02 -0.35195888564E+02  0.13174868445E+03  0.14023983138E+03  0.10000000000E+01 0.  0.
<mgrwt>
<rscale>  0 0.12503527E+03</rscale>
<asrwt>0</asrwt>
<pdfrwt beam="1">  1        4 0.11610921E+00 0.12503527E+03</pdfrwt>
<pdfrwt beam="2">  1       -4 0.79673105E-03 0.12503527E+03</pdfrwt>
<totfact> 0.40074664E+03</totfact>
</mgrwt>
</event>
<event>
 5    1  0.3282421E-002  0.1249992E+03  0.7818608E-02  0.1235070E+00
         -4   -1    0    0    0  501 -0.00000000000E+00  0.00000000000E+00  0.93648377509E+02  0.93656988581E+02  0.12700000000E+01 0.  1.
          4   -1    0    0  501    0  0.00000000000E+00 -0.00000000000E+00 -0.41691174665E+02  0.41710513602E+02  0.12700000000E+01 0.  1.
         25    2    1    2    0    0  0.00000000000E+00  0.00000000000E+00  0.51957202844E+02  0.13536750218E+03  0.12499923888E+03 0.  0.
    9000005    1    3    3    0    0  0.95325374329E+01 -0.46101874906E+02 -0.18527082625E+02  0.50601432097E+02  0.10000000000E+01 0.  0.
    9000005    1    3    3    0    0 -0.95325374329E+01  0.46101874906E+02  0.70484285469E+02  0.84766070086E+02  0.10000000000E+01 0.  0.
<mgrwt>
<rscale>  0 0.12499924E+03</rscale>
<asrwt>0</asrwt>
<pdfrwt beam="2">  1        4 0.64161769E-02 0.12499924E+03</pdfrwt>
<pdfrwt beam="1">  1       -4 0.14409593E-01 0.12499924E+03</pdfrwt>
<totfact> 0.10230506E+04</totfact>
</mgrwt>
</event>
<event>
 5    1  0.3282421E-002  0.1250010E+03  0.7818608E-02  0.1235068E+00
          4   -1    0    0  501    0  0.00000000000E+00  0.00000000000E+00  0.17546536836E+03  0.17546996437E+03  0.12700000000E+01 0. -1.
         -4   -1    0    0    0  501 -0.00000000000E+00 -0.00000000000E+00 -0.22239562723E+02  0.22275795162E+02  0.12700000000E+01 0. -1.
         25    2    1    2    0    0  0.00000000000E+00  0.00000000000E+00  0.15322580564E+03  0.19774575953E+03  0.12500095159E+03 0.  0.
    9000005    1    3    3    0    0 -0.54500138587E+02 -0.22977111971E+02  0.44694390022E+02  0.74140415969E+02  0.10000000000E+01 0.  0.
    9000005    1    3    3    0    0  0.54500138587E+02  0.22977111971E+02  0.10853141562E+03  0.12360534356E+03  0.10000000000E+01 0.  0.
<mgrwt>
<rscale>  0 0.12500095E+03</rscale>
<asrwt>0</asrwt>
<pdfrwt beam="1">  1        4 0.26997813E-01 0.12500095E+03</pdfrwt>
<pdfrwt beam="2">  1       -4 0.34246117E-02 0.12500095E+03</pdfrwt>
<totfact> 0.90514842E+03</totfact>
</mgrwt>
</event>
<event>
 5    1  0.3282421E-002  0.1249977E+03  0.7818608E-02  0.1235073E+00
         -4   -1    0    0    0  501 -0.00000000000E+00  0.00000000000E+00  0.85296028914E+02  0.85305483109E+02  0.12700000000E+01 0.  1.
          4   -1    0    0  501    0  0.00000000000E+00 -0.00000000000E+00 -0.45773889488E+02  0.45791504221E+02  0.12700000000E+01 0.  1.
         25    2    1    2    0    0  0.00000000000E+00  0.00000000000E+00  0.39522139426E+02  0.13109698733E+03  0.12499768231E+03 0.  0.
    9000005    1    3    3    0    0  0.44513245449E+02  0.54084814709E+01  0.65409872984E+02  0.79310353524E+02  0.10000000000E+01 0.  0.
    9000005    1    3    3    0    0 -0.44513245449E+02 -0.54084814709E+01 -0.25887733558E+02  0.51786633807E+02  0.10000000000E+01 0.  0.
<mgrwt>
<rscale>  0 0.12499768E+03</rscale>
<asrwt>0</asrwt>
<pdfrwt beam="2">  1        4 0.70442192E-02 0.12499768E+03</pdfrwt>
<pdfrwt beam="1">  1       -4 0.13124548E-01 0.12499768E+03</pdfrwt>
<totfact> 0.10321550E+04</totfact>
</mgrwt>
</event>
<event>
 5    1  0.3282421E-002  0.1250020E+03  0.7818608E-02  0.1235066E+00
          4   -1    0    0  501    0  0.00000000000E+00  0.00000000000E+00  0.12497546807E+04  0.12497553260E+04  0.12700000000E+01 0. -1.
         -4   -1    0    0    0  501 -0.00000000000E+00 -0.00000000000E+00 -0.29960388357E+01  0.32540972182E+01  0.12700000000E+01 0. -1.
         25    2    1    2    0    0  0.00000000000E+00  0.00000000000E+00  0.12467586419E+04  0.12530094232E+04  0.12500201429E+03 0.  0.
    9000005    1    3    3    0    0  0.47172484832E+02  0.75484482107E+01  0.21953207840E+03  0.22467210739E+03  0.10000000000E+01 0.  0.
    9000005    1    3    3    0    0 -0.47172484832E+02 -0.75484482107E+01  0.10272265635E+04  0.10283373158E+04  0.10000000000E+01 0.  0.
<mgrwt>
<rscale>  0 0.12500201E+03</rscale>
<asrwt>0</asrwt>
<pdfrwt beam="1">  1        4 0.19229011E+00 0.12500201E+03</pdfrwt>
<pdfrwt beam="2">  1       -4 0.48082870E-03 0.12500201E+03</pdfrwt>
<totfact> 0.23364372E+03</totfact>
</mgrwt>
</event>
<event>
 5    1  0.3282421E-002  0.1250013E+03  0.7818608E-02  0.1235067E+00
         -4   -1    0    0    0  501 -0.00000000000E+00  0.00000000000E+00  0.34480422481E+03  0.34480656367E+03  0.12700000000E+01 0. -1.
          4   -1    0    0  501    0  0.00000000000E+00 -0.00000000000E+00 -0.11291147448E+02  0.11362346179E+02  0.12700000000E+01 0. -1.
         25    2    1    2    0    0  0.00000000000E+00  0.00000000000E+00  0.33351307736E+03  0.35616890984E+03  0.12500127827E+03 0.  0.
    9000005    1    3    3    0    0  0.21744826373E+02  0.17163486389E+02  0.32636708991E+03  0.32754221119E+03  0.10000000000E+01 0.  0.
    9000005    1    3    3    0    0 -0.21744826373E+02 -0.17163486389E+02  0.71459874569E+01  0.28626698653E+02  0.10000000000E+01 0.  0.
<mgrwt>
<rscale>  0 0.12500128E+03</rscale>
<asrwt>0</asrwt>
<pdfrwt beam="2">  1        4 0.17427566E-02 0.12500128E+03</pdfrwt>
<pdfrwt beam="1">  1       -4 0.53052452E-01 0.12500128E+03</pdfrwt>
<totfact> 0.69049241E+03</totfact>
</mgrwt>
</event>
<event>
 5    1  0.3282421E-002  0.1249975E+03  0.7818608E-02  0.1235073E+00
         -4   -1    0    0    0  501 -0.00000000000E+00  0.00000000000E+00  0.51801886677E+02  0.51817452304E+02  0.12700000000E+01 0. -1.
          4   -1    0    0  501    0  0.00000000000E+00 -0.00000000000E+00 -0.75372239455E+02  0.75382938258E+02  0.12700000000E+01 0. -1.
         25    2    1    2    0    0  0.00000000000E+00  0.00000000000E+00 -0.23570352778E+02  0.12720039056E+03  0.12499751129E+03 0.  0.
    9000005    1    3    3    0    0 -0.55215532884E+02  0.27855690694E+02 -0.26605564706E+01  0.61909394573E+02  0.10000000000E+01 0.  0.
    9000005    1    3    3    0    0  0.55215532884E+02 -0.27855690694E+02 -0.20909796308E+02  0.65290995989E+02  0.10000000000E+01 0.  0.
<mgrwt>
<rscale>  0 0.12499751E+03</rscale>
<asrwt>0</asrwt>
<pdfrwt beam="2">  1        4 0.11597750E-01 0.12499751E+03</pdfrwt>
<pdfrwt beam="1">  1       -4 0.79715414E-02 0.12499751E+03</pdfrwt>
<totfact> 0.10405380E+04</totfact>
</mgrwt>
</event>
<event>
 5    1  0.3282421E-002  0.1249997E+03  0.7818608E-02  0.1235070E+00
         -4   -1    0    0    0  501 -0.00000000000E+00  0.00000000000E+00  0.41892130318E+02  0.41911376530E+02  0.12700000000E+01 0.  1.
          4   -1    0    0  501    0  0.00000000000E+00 -0.00000000000E+00 -0.93200063780E+02  0.93208716269E+02  0.12700000000E+01 0.  1.
         25    2    1    2    0    0  0.00000000000E+00  0.00000000000E+00 -0.51307933461E+02  0.13512009280E+03  0.12499974177E+03 0.  0.
    9000005    1    3    3    0    0  0.53456209947E+01  0.34411429479E+02 -0.81744506592E+02  0.88858800917E+02  0.10000000000E+01 0.  0.
    9000005    1    3    3    0    0 -0.53456209947E+01 -0.34411429479E+02  0.30436573130E+02  0.46261291881E+02  0.10000000000E+01 0.  0.
<mgrwt>
<rscale>  0 0.12499974E+03</rscale>
<asrwt>0</asrwt>
<pdfrwt beam="2">  1        4 0.14340617E-01 0.12499974E+03</pdfrwt>
<pdfrwt beam="1">  1       -4 0.64470892E-02 0.12499974E+03</pdfrwt>
<totfact> 0.10235600E+04</totfact>
</mgrwt>
</event>
<event>
 5    1  0.3282421E-002  0.1250029E+03  0.7818608E-02  0.1235065E+00
         -4   -1    0    0    0  501 -0.00000000000E+00  0.00000000000E+00  0.15398198924E+02  0.15450483168E+02  0.12700000000E+01 0.  1.
          4   -1    0    0  501    0  0.00000000000E+00 -0.00000000000E+00 -0.25321022297E+03  0.25321340786E+03  0.12700000000E+01 0.  1.
         25    2    1    2    0    0  0.00000000000E+00  0.00000000000E+00 -0.23781202405E+03  0.26866389102E+03  0.12500291020E+03 0.  0.
    9000005    1    3    3    0    0 -0.61129178721E+02 -0.16803830407E+00 -0.90996455156E+02  0.10962736693E+03  0.10000000000E+01 0.  0.
    9000005    1    3    3    0    0  0.61129178721E+02  0.16803830407E+00 -0.14681556889E+03  0.15903652410E+03  0.10000000000E+01 0.  0.
<mgrwt>
<rscale>  0 0.12500291E+03</rscale>
<asrwt>0</asrwt>
<pdfrwt beam="2">  1        4 0.38959683E-01 0.12500291E+03</pdfrwt>
<pdfrwt beam="1">  1       -4 0.23732207E-02 0.12500291E+03</pdfrwt>
<totfact> 0.79700216E+03</totfact>
</mgrwt>
</event>
<event>
 5    1  0.3282421E-002  0.1250013E+03  0.7818608E-02  0.1235067E+00
          4   -1    0    0  501    0  0.00000000000E+00  0.00000000000E+00  0.11386491606E+03  0.11387199835E+03  0.12700000000E+01 0. -1.
         -4   -1    0    0    0  501 -0.00000000000E+00 -0.00000000000E+00 -0.34286802205E+02  0.34310314855E+02  0.12700000000E+01 0. -1.
         25    2    1    2    0    0  0.00000000000E+00  0.00000000000E+00  0.79578113851E+02  0.14818231321E+03  0.12500128697E+03 0.  0.
    9000005    1    3    3    0    0 -0.53053006967E+02 -0.32872798186E+02  0.36023883340E+02  0.72069151373E+02  0.10000000000E+01 0.  0.
    9000005    1    3    3    0    0  0.53053006967E+02  0.32872798186E+02  0.43554230511E+02  0.76113161833E+02  0.10000000000E+01 0.  0.
<mgrwt>
<rscale>  0 0.12500129E+03</rscale>
<asrwt>0</asrwt>
<pdfrwt beam="1">  1        4 0.17520033E-01 0.12500129E+03</pdfrwt>
<pdfrwt beam="2">  1       -4 0.52772461E-02 0.12500129E+03</pdfrwt>
<totfact> 0.99664380E+03</totfact>
</mgrwt>
</event>
<event>
 5    1  0.3282421E-002  0.1250129E+03  0.7818608E-02  0.1235049E+00
         -4   -1    0    0    0  501 -0.00000000000E+00  0.00000000000E+00  0.76967764905E+02  0.76978241955E+02  0.12700000000E+01 0. -1.
          4   -1    0    0  501    0  0.00000000000E+00 -0.00000000000E+00 -0.50740328410E+02  0.50756219591E+02  0.12700000000E+01 0. -1.
         25    2    1    2    0    0  0.00000000000E+00  0.00000000000E+00  0.26227436495E+02  0.12773446155E+03  0.12501285630E+03 0.  0.
    9000005    1    3    3    0    0  0.60628010896E+02  0.80028000071E+01 -0.60905179407E-01  0.61162114275E+02  0.10000000000E+01 0.  0.
    9000005    1    3    3    0    0 -0.60628010896E+02 -0.80028000071E+01  0.26288341675E+02  0.66572347271E+02  0.10000000000E+01 0.  0.
<mgrwt>
<rscale>  0 0.12501286E+03</rscale>
<asrwt>0</asrwt>
<pdfrwt beam="2">  1        4 0.78082327E-02 0.12501286E+03</pdfrwt>
<pdfrwt beam="1">  1       -4 0.11843223E-01 0.12501286E+03</pdfrwt>
<totfact> 0.10390210E+04</totfact>
</mgrwt>
</event>
<event>
 5    1  0.3282421E-002  0.1250030E+03  0.7818608E-02  0.1235065E+00
          4   -1    0    0  501    0  0.00000000000E+00  0.00000000000E+00  0.11859536283E+02  0.11927342572E+02  0.12700000000E+01 0.  1.
         -4   -1    0    0    0  501 -0.00000000000E+00 -0.00000000000E+00 -0.32838393966E+03  0.32838639547E+03  0.12700000000E+01 0.  1.
         25    2    1    2    0    0  0.00000000000E+00  0.00000000000E+00 -0.31652440338E+03  0.34031373804E+03  0.12500296942E+03 0.  0.
    9000005    1    3    3    0    0 -0.35160481419E+02 -0.18321872266E+02 -0.28977307777E+03  0.29247459216E+03  0.10000000000E+01 0.  0.
    9000005    1    3    3    0    0  0.35160481419E+02  0.18321872266E+02 -0.26751325609E+02  0.47839145882E+02  0.10000000000E+01 0.  0.
<mgrwt>
<rscale>  0 0.12500297E+03</rscale>
<asrwt>0</asrwt>
<pdfrwt beam="1">  1        4 0.18299491E-02 0.12500297E+03</pdfrwt>
<pdfrwt beam="2">  1       -4 0.50526004E-01 0.12500297E+03</pdfrwt>
<totfact> 0.70798823E+03</totfact>
</mgrwt>
</event>
<event>
 5    1  0.3282421E-002  0.1250000E+03  0.7818608E-02  0.1235069E+00
         -4   -1    0    0    0  501 -0.00000000000E+00  0.00000000000E+00  0.88698925757E+01  0.89603512378E+01  0.12700000000E+01 0. -1.
          4   -1    0    0  501    0  0.00000000000E+00 -0.00000000000E+00 -0.43806872086E+03  0.43807056178E+03  0.12700000000E+01 0. -1.
         25    2    1    2    0    0  0.00000000000E+00  0.00000000000E+00 -0.42919882829E+03  0.44703091302E+03  0.12500001196E+03 0.  0.
    9000005    1    3    3    0    0  0.47284196480E+02 -0.12980309577E+02 -0.35315150519E+03  0.35654069795E+03  0.10000000000E+01 0.  0.
    9000005    1    3    3    0    0 -0.47284196480E+02  0.12980309577E+02 -0.76047323094E+02  0.90490215069E+02  0.10000000000E+01 0.  0.
<mgrwt>
<rscale>  0 0.12500001E+03</rscale>
<asrwt>0</asrwt>
<pdfrwt beam="2">  1        4 0.67402271E-01 0.12500001E+03</pdfrwt>
<pdfrwt beam="1">  1       -4 0.13716992E-02 0.12500001E+03</pdfrwt>
<totfact> 0.60221864E+03</totfact>
</mgrwt>
</event>
<event>
 5    1  0.3282421E-002  0.1249997E+03  0.7818608E-02  0.1235070E+00
         -4   -1    0    0    0  501 -0.00000000000E+00  0.00000000000E+00  0.10960171494E+04  0.10960178852E+04  0.12700000000E+01 0. -1.
          4   -1    0    0  501    0  0.00000000000E+00 -0.00000000000E+00 -0.34501283444E+01  0.36764501347E+01  0.12700000000E+01 0. -1.
         25    2    1    2    0    0  0.00000000000E+00  0.00000000000E+00  0.10925670211E+04  0.10996943354E+04  0.12499974268E+03 0.  0.
    9000005    1    3    3    0    0  0.26356518278E+02  0.33432191505E+02  0.14381436874E+03  0.14998649986E+03  0.10000000000E+01 0.  0.
    9000005    1    3    3    0    0 -0.26356518278E+02 -0.33432191505E+02  0.94875265235E+03  0.94970783550E+03  0.10000000000E+01 0.  0.
<mgrwt>
<rscale>  0 0.12499974E+03</rscale>
<asrwt>0</asrwt>
<pdfrwt beam="2">  1        4 0.54825560E-03 0.12499974E+03</pdfrwt>
<pdfrwt beam="1">  1       -4 0.16863529E+00 0.12499974E+03</pdfrwt>
<totfact> 0.27492528E+03</totfact>
</mgrwt>
</event>
<event>
 5    1  0.3282421E-002  0.1249915E+03  0.7818608E-02  0.1235083E+00
          4   -1    0    0  501    0  0.00000000000E+00  0.00000000000E+00  0.23978783588E+03  0.23979119904E+03  0.12700000000E+01 0.  1.
         -4   -1    0    0    0  501 -0.00000000000E+00 -0.00000000000E+00 -0.16259979739E+02  0.16309501559E+02  0.12700000000E+01 0.  1.
         25    2    1    2    0    0  0.00000000000E+00  0.00000000000E+00  0.22352785615E+03  0.25610070060E+03  0.12499146521E+03 0.  0.
    9000005    1    3    3    0    0 -0.13591735719E+02  0.60075281535E+02  0.13334525451E+03  0.14688679869E+03  0.10000000000E+01 0.  0.
    9000005    1    3    3    0    0  0.13591735719E+02 -0.60075281535E+02  0.90182601639E+02  0.10921390191E+03  0.10000000000E+01 0.  0.
<mgrwt>
<rscale>  0 0.12499147E+03</rscale>
<asrwt>0</asrwt>
<pdfrwt beam="1">  1        4 0.36894505E-01 0.12499147E+03</pdfrwt>
<pdfrwt beam="2">  1       -4 0.25056034E-02 0.12499147E+03</pdfrwt>
<totfact> 0.81471886E+03</totfact>
</mgrwt>
</event>
<event>
 5    1  0.3282421E-002  0.1249971E+03  0.7818608E-02  0.1235074E+00
          4   -1    0    0  501    0  0.00000000000E+00  0.00000000000E+00  0.11771391237E+03  0.11772076310E+03  0.12700000000E+01 0. -1.
         -4   -1    0    0    0  501 -0.00000000000E+00 -0.00000000000E+00 -0.33162734961E+02  0.33187044010E+02  0.12700000000E+01 0. -1.
         25    2    1    2    0    0  0.00000000000E+00  0.00000000000E+00  0.84551177408E+02  0.15090780711E+03  0.12499705855E+03 0.  0.
    9000005    1    3    3    0    0  0.44501815498E+01  0.38474342254E+01 -0.32833616660E+02  0.33371443614E+02  0.10000000000E+01 0.  0.
    9000005    1    3    3    0    0 -0.44501815498E+01 -0.38474342254E+01  0.11738479407E+03  0.11753636350E+03  0.10000000000E+01 0.  0.
<mgrwt>
<rscale>  0 0.12499706E+03</rscale>
<asrwt>0</asrwt>
<pdfrwt beam="1">  1        4 0.18112229E-01 0.12499706E+03</pdfrwt>
<pdfrwt beam="2">  1       -4 0.51043562E-02 0.12499706E+03</pdfrwt>
<totfact> 0.99129609E+03</totfact>
</mgrwt>
</event>
<event>
 5    1  0.3282421E-002  0.1249988E+03  0.7818608E-02  0.1235071E+00
         -4   -1    0    0    0  501 -0.00000000000E+00  0.00000000000E+00  0.35030728618E+02  0.35053742276E+02  0.12700000000E+01 0.  1.
          4   -1    0    0  501    0  0.00000000000E+00 -0.00000000000E+00 -0.11144393608E+03  0.11145117222E+03  0.12700000000E+01 0.  1.
         25    2    1    2    0    0  0.00000000000E+00  0.00000000000E+00 -0.76413207463E+02  0.14650491450E+03  0.12499884678E+03 0.  0.
    9000005    1    3    3    0    0  0.97124553260E+00  0.39975225190E+02  0.18078850506E+02  0.43895407305E+02  0.10000000000E+01 0.  0.
    9000005    1    3    3    0    0 -0.97124553260E+00 -0.39975225190E+02 -0.94492057969E+02  0.10260950719E+03  0.10000000000E+01 0.  0.
<mgrwt>
<rscale>  0 0.12499885E+03</rscale>
<asrwt>0</asrwt>
<pdfrwt beam="2">  1        4 0.17147548E-01 0.12499885E+03</pdfrwt>
<pdfrwt beam="1">  1       -4 0.53916698E-02 0.12499885E+03</pdfrwt>
<totfact> 0.10000761E+04</totfact>
</mgrwt>
</event>
<event>
 5    1  0.3282421E-002  0.1249978E+03  0.7818608E-02  0.1235073E+00
         -4   -1    0    0    0  501 -0.00000000000E+00  0.00000000000E+00  0.34474702482E+03  0.34474936407E+03  0.12700000000E+01 0.  1.
          4   -1    0    0  501    0  0.00000000000E+00 -0.00000000000E+00 -0.11292407614E+02  0.11363598450E+02  0.12700000000E+01 0.  1.
         25    2    1    2    0    0  0.00000000000E+00  0.00000000000E+00  0.33345461721E+03  0.35611296252E+03  0.12499784132E+03 0.  0.
    9000005    1    3    3    0    0  0.28356321211E+01  0.17611842112E+02 -0.38985068320E+01  0.18287048631E+02  0.10000000000E+01 0.  0.
    9000005    1    3    3    0    0 -0.28356321211E+01 -0.17611842112E+02  0.33735312404E+03  0.33782591388E+03  0.10000000000E+01 0.  0.
<mgrwt>
<rscale>  0 0.12499784E+03</rscale>
<asrwt>0</asrwt>
<pdfrwt beam="2">  1        4 0.17429498E-02 0.12499784E+03</pdfrwt>
<pdfrwt beam="1">  1       -4 0.53043655E-01 0.12499784E+03</pdfrwt>
<totfact> 0.69060550E+03</totfact>
</mgrwt>
</event>
<event>
 5    1  0.3282421E-002  0.1250001E+03  0.7818608E-02  0.1235069E+00
         -4   -1    0    0    0  501 -0.00000000000E+00  0.00000000000E+00  0.59136865383E+02  0.59150500820E+02  0.12700000000E+01 0. -1.
          4   -1    0    0  501    0  0.00000000000E+00 -0.00000000000E+00 -0.66027122239E+02  0.66039335029E+02  0.12700000000E+01 0. -1.
         25    2    1    2    0    0  0.00000000000E+00  0.00000000000E+00 -0.68902568561E+01  0.12518983585E+03  0.12500007744E+03 0.  0.
    9000005    1    3    3    0    0  0.23184640080E+02  0.48225917332E+02  0.28883716550E+02  0.60815587804E+02  0.10000000000E+01 0.  0.
    9000005    1    3    3    0    0 -0.23184640080E+02 -0.48225917332E+02 -0.35773973406E+02  0.64374248046E+02  0.10000000000E+01 0.  0.
<mgrwt>
<rscale>  0 0.12500008E+03</rscale>
<asrwt>0</asrwt>
<pdfrwt beam="2">  1        4 0.10160007E-01 0.12500008E+03</pdfrwt>
<pdfrwt beam="1">  1       -4 0.90999676E-02 0.12500008E+03</pdfrwt>
<totfact> 0.10448723E+04</totfact>
</mgrwt>
</event>
<event>
 5    1  0.3282421E-002  0.1249998E+03  0.7818608E-02  0.1235070E+00
          4   -1    0    0  501    0  0.00000000000E+00  0.00000000000E+00  0.22516969159E+03  0.22517327308E+03  0.12700000000E+01 0. -1.
         -4   -1    0    0    0  501 -0.00000000000E+00 -0.00000000000E+00 -0.17321004348E+02  0.17367501018E+02  0.12700000000E+01 0. -1.
         25    2    1    2    0    0  0.00000000000E+00  0.00000000000E+00  0.20784868724E+03  0.24254077410E+03  0.12499980125E+03 0.  0.
    9000005    1    3    3    0    0 -0.15635604235E+02  0.16288800145E+02 -0.91394350531E+01  0.24378810534E+02  0.10000000000E+01 0.  0.
    9000005    1    3    3    0    0  0.15635604235E+02 -0.16288800145E+02  0.21698812229E+03  0.21816196357E+03  0.10000000000E+01 0.  0.
<mgrwt>
<rscale>  0 0.12499980E+03</rscale>
<asrwt>0</asrwt>
<pdfrwt beam="1">  1        4 0.34645338E-01 0.12499980E+03</pdfrwt>
<pdfrwt beam="2">  1       -4 0.26686224E-02 0.12499980E+03</pdfrwt>
<totfact> 0.83420786E+03</totfact>
</mgrwt>
</event>
<event>
 5    1  0.3282421E-002  0.1250208E+03  0.7818608E-02  0.1235037E+00
         -4   -1    0    0    0  501 -0.00000000000E+00  0.00000000000E+00  0.52057776170E+01  0.53584531908E+01  0.12700000000E+01 0. -1.
          4   -1    0    0  501    0  0.00000000000E+00 -0.00000000000E+00 -0.73961644858E+03  0.73961753894E+03  0.12700000000E+01 0. -1.
         25    2    1    2    0    0  0.00000000000E+00  0.00000000000E+00 -0.73441067096E+03  0.74497599213E+03  0.12502077919E+03 0.  0.
    9000005    1    3    3    0    0 -0.60064453509E+02  0.11136573750E+02 -0.28842558755E+03  0.29482551010E+03  0.10000000000E+01 0.  0.
    9000005    1    3    3    0    0  0.60064453509E+02 -0.11136573750E+02 -0.44598508341E+03  0.45015048204E+03  0.10000000000E+01 0.  0.
<mgrwt>
<rscale>  0 0.12502078E+03</rscale>
<asrwt>0</asrwt>
<pdfrwt beam="2">  1        4 0.11379889E+00 0.12502078E+03</pdfrwt>
<pdfrwt beam="1">  1       -4 0.81271760E-03 0.12502078E+03</pdfrwt>
<totfact> 0.40797081E+03</totfact>
</mgrwt>
</event>
<event>
 5    1  0.3282421E-002  0.1250006E+03  0.7818608E-02  0.1235068E+00
          4   -1    0    0  501    0  0.00000000000E+00  0.00000000000E+00  0.10616736502E+03  0.10617496078E+03  0.12700000000E+01 0.  1.
         -4   -1    0    0    0  501 -0.00000000000E+00 -0.00000000000E+00 -0.36773817777E+02  0.36795741246E+02  0.12700000000E+01 0.  1.
         25    2    1    2    0    0  0.00000000000E+00  0.00000000000E+00  0.69393547246E+02  0.14297070202E+03  0.12500062895E+03 0.  0.
    9000005    1    3    3    0    0 -0.28575774392E+02  0.36723606508E+02 -0.13014482527E+02  0.48327786133E+02  0.10000000000E+01 0.  0.
    9000005    1    3    3    0    0  0.28575774392E+02 -0.36723606508E+02  0.82408029773E+02  0.94642915890E+02  0.10000000000E+01 0.  0.
<mgrwt>
<rscale>  0 0.12500063E+03</rscale>
<asrwt>0</asrwt>
<pdfrwt beam="1">  1        4 0.16335711E-01 0.12500063E+03</pdfrwt>
<pdfrwt beam="2">  1       -4 0.56597812E-02 0.12500063E+03</pdfrwt>
<totfact> 0.10072241E+04</totfact>
</mgrwt>
</event>
<event>
 5    1  0.3282421E-002  0.1250039E+03  0.7818608E-02  0.1235063E+00
          4   -1    0    0  501    0  0.00000000000E+00  0.00000000000E+00  0.30327405648E+01  0.32879196057E+01  0.12700000000E+01 0.  1.
         -4   -1    0    0    0  501 -0.00000000000E+00 -0.00000000000E+00 -0.12358468164E+04  0.12358474690E+04  0.12700000000E+01 0.  1.
         25    2    1    2    0    0  0.00000000000E+00  0.00000000000E+00 -0.12328140759E+04  0.12391353886E+04  0.12500386230E+03 0.  0.
    9000005    1    3    3    0    0 -0.59112649019E+01  0.39918258632E+02 -0.10894325511E+04  0.10901801199E+04  0.10000000000E+01 0.  0.
    9000005    1    3    3    0    0  0.59112649019E+01 -0.39918258632E+02 -0.14338152473E+03  0.14895526866E+03  0.10000000000E+01 0.  0.
<mgrwt>
<rscale>  0 0.12500386E+03</rscale>
<asrwt>0</asrwt>
<pdfrwt beam="1">  1        4 0.48625581E-03 0.12500386E+03</pdfrwt>
<pdfrwt beam="2">  1       -4 0.19014957E+00 0.12500386E+03</pdfrwt>
<totfact> 0.23708811E+03</totfact>
</mgrwt>
</event>
<event>
 5    1  0.3282421E-002  0.1249883E+03  0.7818608E-02  0.1235088E+00
         -4   -1    0    0    0  501 -0.00000000000E+00  0.00000000000E+00  0.20990635714E+03  0.20991019905E+03  0.12700000000E+01 0.  1.
          4   -1    0    0  501    0  0.00000000000E+00 -0.00000000000E+00 -0.18580324203E+02  0.18623677067E+02  0.12700000000E+01 0.  1.
         25    2    1    2    0    0  0.00000000000E+00  0.00000000000E+00  0.19132603293E+03  0.22853387612E+03  0.12498832608E+03 0.  0.
    9000005    1    3    3    0    0  0.42249868130E+02  0.13782532910E+02  0.15346521827E+02  0.47026857248E+02  0.10000000000E+01 0.  0.
    9000005    1    3    3    0    0 -0.42249868130E+02 -0.13782532910E+02  0.17597951111E+03  0.18150701887E+03  0.10000000000E+01 0.  0.
<mgrwt>
<rscale>  0 0.12498833E+03</rscale>
<asrwt>0</asrwt>
<pdfrwt beam="2">  1        4 0.28621420E-02 0.12498833E+03</pdfrwt>
<pdfrwt beam="1">  1       -4 0.32296914E-01 0.12498833E+03</pdfrwt>
<totfact> 0.85557518E+03</totfact>
</mgrwt>
</event>
<event>
 5    1  0.3282421E-002  0.1249978E+03  0.7818608E-02  0.1235073E+00
          4   -1    0    0  501    0  0.00000000000E+00  0.00000000000E+00  0.16501566318E+02  0.16550365281E+02  0.12700000000E+01 0.  1.
         -4   -1    0    0    0  501 -0.00000000000E+00 -0.00000000000E+00 -0.23631145281E+03  0.23631486544E+03  0.12700000000E+01 0.  1.
         25    2    1    2    0    0  0.00000000000E+00  0.00000000000E+00 -0.21980988649E+03  0.25286523072E+03  0.12499775482E+03 0.  0.
    9000005    1    3    3    0    0 -0.17231206196E+02  0.44939335649E+01  0.11270079080E+02  0.21097975930E+02  0.10000000000E+01 0.  0.
    9000005    1    3    3    0    0  0.17231206196E+02 -0.44939335649E+01 -0.23107996557E+03  0.23176725479E+03  0.10000000000E+01 0.  0.
<mgrwt>
<rscale>  0 0.12499775E+03</rscale>
<asrwt>0</asrwt>
<pdfrwt beam="1">  1        4 0.25427190E-02 0.12499775E+03</pdfrwt>
<pdfrwt beam="2">  1       -4 0.36359622E-01 0.12499775E+03</pdfrwt>
<totfact> 0.81921966E+03</totfact>
</mgrwt>
</event>
<event>
 5    1  0.3282421E-002  0.1249999E+03  0.7818608E-02  0.1235069E+00
         -4   -1    0    0    0  501 -0.00000000000E+00  0.00000000000E+00  0.92307521517E+01  0.93177081563E+01  0.12700000000E+01 0. -1.
          4   -1    0    0  501    0  0.00000000000E+00 -0.00000000000E+00 -0.42110517117E+03  0.42110708624E+03  0.12700000000E+01 0. -1.
         25    2    1    2    0    0  0.00000000000E+00  0.00000000000E+00 -0.41187441902E+03  0.43042479440E+03  0.12499986638E+03 0.  0.
    9000005    1    3    3    0    0  0.16275820655E+02 -0.49476585003E+02 -0.32484216714E+03  0.32899280897E+03  0.10000000000E+01 0.  0.
    9000005    1    3    3    0    0 -0.16275820655E+02  0.49476585003E+02 -0.87032251875E+02  0.10143198543E+03  0.10000000000E+01 0.  0.
<mgrwt>
<rscale>  0 0.12499987E+03</rscale>
<asrwt>0</asrwt>
<pdfrwt beam="2">  1        4 0.64792232E-01 0.12499987E+03</pdfrwt>
<pdfrwt beam="1">  1       -4 0.14269523E-02 0.12499987E+03</pdfrwt>
<totfact> 0.61697694E+03</totfact>
</mgrwt>
</event>
<event>
 5    1  0.3282421E-002  0.1250013E+03  0.7818608E-02  0.1235067E+00
         -4   -1    0    0    0  501 -0.00000000000E+00  0.00000000000E+00  0.23836366309E+03  0.23836704635E+03  0.12700000000E+01 0.  1.
          4   -1    0    0  501    0  0.00000000000E+00 -0.00000000000E+00 -0.16359999236E+02  0.16409219208E+02  0.12700000000E+01 0.  1.
         25    2    1    2    0    0  0.00000000000E+00  0.00000000000E+00  0.22200366386E+03  0.25477626555E+03  0.12500127489E+03 0.  0.
    9000005    1    3    3    0    0 -0.53107584634E+02 -0.25613534578E+02  0.15321061127E+03  0.16416747579E+03  0.10000000000E+01 0.  0.
    9000005    1    3    3    0    0  0.53107584634E+02  0.25613534578E+02  0.68793052585E+02  0.90608789768E+02  0.10000000000E+01 0.  0.
<mgrwt>
<rscale>  0 0.12500127E+03</rscale>
<asrwt>0</asrwt>
<pdfrwt beam="2">  1        4 0.25209696E-02 0.12500127E+03</pdfrwt>
<pdfrwt beam="1">  1       -4 0.36675376E-01 0.12500127E+03</pdfrwt>
<totfact> 0.81642456E+03</totfact>
</mgrwt>
</event>
<event>
 5    1  0.3282421E-002  0.1250053E+03  0.7818608E-02  0.1235061E+00
         -4   -1    0    0    0  501 -0.00000000000E+00  0.00000000000E+00  0.19468633887E+01  0.23244735004E+01  0.12700000000E+01 0.  1.
          4   -1    0    0  501    0  0.00000000000E+00 -0.00000000000E+00 -0.18288291346E+04  0.18288295756E+04  0.12700000000E+01 0.  1.
         25    2    1    2    0    0  0.00000000000E+00  0.00000000000E+00 -0.18268822712E+04  0.18311540491E+04  0.12500527406E+03 0.  0.
    9000005    1    3    3    0    0  0.53340051461E+02 -0.26272005030E+02 -0.11952891158E+04  0.11967675002E+04  0.10000000000E+01 0.  0.
    9000005    1    3    3    0    0 -0.53340051461E+02  0.26272005030E+02 -0.63159315545E+03  0.63438654884E+03  0.10000000000E+01 0.  0.
<mgrwt>
<rscale>  0 0.12500527E+03</rscale>
<asrwt>0</asrwt>
<pdfrwt beam="2">  1        4 0.28138616E+00 0.12500527E+03</pdfrwt>
<pdfrwt beam="1">  1       -4 0.32859976E-03 0.12500527E+03</pdfrwt>
<totfact> 0.12228317E+03</totfact>
</mgrwt>
</event>
<event>
 5    1  0.3282421E-002  0.1250012E+03  0.7818608E-02  0.1235067E+00
          4   -1    0    0  501    0  0.00000000000E+00  0.00000000000E+00  0.99056587912E+02  0.99064728884E+02  0.12700000000E+01 0.  1.
         -4   -1    0    0    0  501 -0.00000000000E+00 -0.00000000000E+00 -0.39415301859E+02  0.39435756879E+02  0.12700000000E+01 0.  1.
         25    2    1    2    0    0  0.00000000000E+00  0.00000000000E+00  0.59641286053E+02  0.13850048576E+03  0.12500120621E+03 0.  0.
    9000005    1    3    3    0    0 -0.73801305814E+01 -0.13449239441E+02  0.96943242198E+02  0.98154676796E+02  0.10000000000E+01 0.  0.
    9000005    1    3    3    0    0  0.73801305814E+01  0.13449239441E+02 -0.37301956145E+02  0.40345808967E+02  0.10000000000E+01 0.  0.
<mgrwt>
<rscale>  0 0.12500121E+03</rscale>
<asrwt>0</asrwt>
<pdfrwt beam="1">  1        4 0.15241675E-01 0.12500121E+03</pdfrwt>
<pdfrwt beam="2">  1       -4 0.60660923E-02 0.12500121E+03</pdfrwt>
<totfact> 0.10164483E+04</totfact>
</mgrwt>
</event>
<event>
 5    1  0.3282421E-002  0.1249645E+03  0.7818608E-02  0.1235125E+00
         -4   -1    0    0    0  501 -0.00000000000E+00  0.00000000000E+00  0.28057041326E+02  0.28085769849E+02  0.12700000000E+01 0. -1.
          4   -1    0    0  501    0  0.00000000000E+00 -0.00000000000E+00 -0.13904349599E+03  0.13904929585E+03  0.12700000000E+01 0. -1.
         25    2    1    2    0    0  0.00000000000E+00  0.00000000000E+00 -0.11098645466E+03  0.16713506570E+03  0.12496454324E+03 0.  0.
    9000005    1    3    3    0    0 -0.56016444265E+02  0.27340138494E+02 -0.61121544958E+02  0.87305031121E+02  0.10000000000E+01 0.  0.
    9000005    1    3    3    0    0  0.56016444265E+02 -0.27340138494E+02 -0.49864909704E+02  0.79830034578E+02  0.10000000000E+01 0.  0.
<mgrwt>
<rscale>  0 0.12496454E+03</rscale>
<asrwt>0</asrwt>
<pdfrwt beam="2">  1        4 0.21393963E-01 0.12496454E+03</pdfrwt>
<pdfrwt beam="1">  1       -4 0.43191240E-02 0.12496454E+03</pdfrwt>
<totfact> 0.96061042E+03</totfact>
</mgrwt>
</event>
<event>
 5    1  0.3282421E-002  0.1249955E+03  0.7818608E-02  0.1235076E+00
         -4   -1    0    0    0  501 -0.00000000000E+00  0.00000000000E+00  0.33254497193E+02  0.33278739212E+02  0.12700000000E+01 0.  1.
          4   -1    0    0  501    0  0.00000000000E+00 -0.00000000000E+00 -0.11738642120E+03  0.11739329105E+03  0.12700000000E+01 0.  1.
         25    2    1    2    0    0  0.00000000000E+00  0.00000000000E+00 -0.84131924009E+02  0.15067203026E+03  0.12499552018E+03 0.  0.
    9000005    1    3    3    0    0  0.50431724268E+02 -0.29548593277E+02 -0.68707963496E+02  0.90212318588E+02  0.10000000000E+01 0.  0.
    9000005    1    3    3    0    0 -0.50431724268E+02  0.29548593277E+02 -0.15423960513E+02  0.60459711670E+02  0.10000000000E+01 0.  0.
<mgrwt>
<rscale>  0 0.12499552E+03</rscale>
<asrwt>0</asrwt>
<pdfrwt beam="2">  1        4 0.18061842E-01 0.12499552E+03</pdfrwt>
<pdfrwt beam="1">  1       -4 0.51184698E-02 0.12499552E+03</pdfrwt>
<totfact> 0.99179906E+03</totfact>
</mgrwt>
</event>
<event>
 5    1  0.3282421E-002  0.1249999E+03  0.7818608E-02  0.1235070E+00
          4   -1    0    0  501    0  0.00000000000E+00  0.00000000000E+00  0.12955367228E+02  0.13017466728E+02  0.12700000000E+01 0.  1.
         -4   -1    0    0    0  501 -0.00000000000E+00 -0.00000000000E+00 -0.30073090308E+03  0.30073358470E+03  0.12700000000E+01 0.  1.
         25    2    1    2    0    0  0.00000000000E+00  0.00000000000E+00 -0.28777553585E+03  0.31375105142E+03  0.12499985295E+03 0.  0.
    9000005    1    3    3    0    0 -0.32894106463E+02  0.50272847264E+02 -0.10071415713E+03  0.11727626724E+03  0.10000000000E+01 0.  0.
    9000005    1    3    3    0    0  0.32894106463E+02 -0.50272847264E+02 -0.18706137871E+03  0.19647478418E+03  0.10000000000E+01 0.  0.
<mgrwt>
<rscale>  0 0.12499985E+03</rscale>
<asrwt>0</asrwt>
<pdfrwt beam="1">  1        4 0.19981168E-02 0.12499985E+03</pdfrwt>
<pdfrwt beam="2">  1       -4 0.46271271E-01 0.12499985E+03</pdfrwt>
<totfact> 0.73905814E+03</totfact>
</mgrwt>
</event>
<event>
 5    1  0.3282421E-002  0.1250152E+03  0.7818608E-02  0.1235046E+00
         -4   -1    0    0    0  501 -0.00000000000E+00  0.00000000000E+00  0.10116581692E+02  0.10195985737E+02  0.12700000000E+01 0.  1.
          4   -1    0    0  501    0  0.00000000000E+00 -0.00000000000E+00 -0.38462693297E+03  0.38462902967E+03  0.12700000000E+01 0.  1.
         25    2    1    2    0    0  0.00000000000E+00  0.00000000000E+00 -0.37451035128E+03  0.39482501541E+03  0.12501515739E+03 0.  0.
    9000005    1    3    3    0    0  0.16769341815E+02  0.16145193514E+02 -0.37044046390E+03  0.37117248739E+03  0.10000000000E+01 0.  0.
    9000005    1    3    3    0    0 -0.16769341815E+02 -0.16145193514E+02 -0.40698873780E+01  0.23652528021E+02  0.10000000000E+01 0.  0.
<mgrwt>
<rscale>  0 0.12501516E+03</rscale>
<asrwt>0</asrwt>
<pdfrwt beam="2">  1        4 0.59179632E-01 0.12501516E+03</pdfrwt>
<pdfrwt beam="1">  1       -4 0.15626668E-02 0.12501516E+03</pdfrwt>
<totfact> 0.65037467E+03</totfact>
</mgrwt>
</event>
<event>
 5    1  0.3282421E-002  0.1250311E+03  0.7818608E-02  0.1235021E+00
         -4   -1    0    0    0  501 -0.00000000000E+00  0.00000000000E+00  0.38636930584E+02  0.38657797467E+02  0.12700000000E+01 0.  1.
          4   -1    0    0  501    0  0.00000000000E+00 -0.00000000000E+00 -0.10109963107E+03  0.10110760754E+03  0.12700000000E+01 0.  1.
         25    2    1    2    0    0  0.00000000000E+00  0.00000000000E+00 -0.62462700489E+02  0.13976540501E+03  0.12503111407E+03 0.  0.
    9000005    1    3    3    0    0 -0.15157202143E+02 -0.60481959668E+02 -0.26309448235E+02  0.67683050230E+02  0.10000000000E+01 0.  0.
    9000005    1    3    3    0    0  0.15157202143E+02  0.60481959668E+02 -0.36153252254E+02  0.72082354780E+02  0.10000000000E+01 0.  0.
<mgrwt>
<rscale>  0 0.12503111E+03</rscale>
<asrwt>0</asrwt>
<pdfrwt beam="2">  1        4 0.15556008E-01 0.12503111E+03</pdfrwt>
<pdfrwt beam="1">  1       -4 0.59463619E-02 0.12503111E+03</pdfrwt>
<totfact> 0.10131346E+04</totfact>
</mgrwt>
</event>
<event>
 5    1  0.3282421E-002  0.1249991E+03  0.7818608E-02  0.1235071E+00
         -4   -1    0    0    0  501 -0.00000000000E+00  0.00000000000E+00  0.24819768783E+03  0.24820093703E+03  0.12700000000E+01 0. -1.
          4   -1    0    0  501    0  0.00000000000E+00 -0.00000000000E+00 -0.15709245048E+02  0.15760497453E+02  0.12700000000E+01 0. -1.
         25    2    1    2    0    0  0.00000000000E+00  0.00000000000E+00  0.23248844278E+03  0.26396143449E+03  0.12499905147E+03 0.  0.
    9000005    1    3    3    0    0  0.86203304931E+01 -0.27443007828E+02 -0.90820148272E+00  0.28796763818E+02  0.10000000000E+01 0.  0.
    9000005    1    3    3    0    0 -0.86203304931E+01  0.27443007828E+02  0.23339664427E+03  0.23516467067E+03  0.10000000000E+01 0.  0.
<mgrwt>
<rscale>  0 0.12499905E+03</rscale>
<asrwt>0</asrwt>
<pdfrwt beam="2">  1        4 0.24209995E-02 0.12499905E+03</pdfrwt>
<pdfrwt beam="1">  1       -4 0.38188450E-01 0.12499905E+03</pdfrwt>
<totfact> 0.80355021E+03</totfact>
</mgrwt>
</event>
<event>
 5    1  0.3282421E-002  0.1250000E+03  0.7818608E-02  0.1235069E+00
         -4   -1    0    0    0  501 -0.00000000000E+00  0.00000000000E+00  0.64123852799E+02  0.64136428009E+02  0.12700000000E+01 0. -1.
          4   -1    0    0  501    0  0.00000000000E+00 -0.00000000000E+00 -0.60892098612E+02  0.60905341091E+02  0.12700000000E+01 0. -1.
         25    2    1    2    0    0  0.00000000000E+00  0.00000000000E+00  0.32317541870E+01  0.12504176910E+03  0.12499999914E+03 0.  0.
    9000005    1    3    3    0    0  0.23765896079E+02 -0.39259047379E+02  0.44046549284E+02  0.63617522126E+02  0.10000000000E+01 0.  0.
    9000005    1    3    3    0    0 -0.23765896079E+02  0.39259047379E+02 -0.40814795098E+02  0.61424246975E+02  0.10000000000E+01 0.  0.
<mgrwt>
<rscale>  0 0.12500000E+03</rscale>
<asrwt>0</asrwt>
<pdfrwt beam="2">  1        4 0.93700011E-02 0.12500000E+03</pdfrwt>
<pdfrwt beam="1">  1       -4 0.98671941E-02 0.12500000E+03</pdfrwt>
<totfact> 0.10451956E+04</totfact>
</mgrwt>
</event>
<event>
 5    1  0.3282421E-002  0.1249979E+03  0.7818608E-02  0.1235072E+00
          4   -1    0    0  501    0  0.00000000000E+00  0.00000000000E+00  0.48723670661E+02  0.48740219354E+02  0.12700000000E+01 0. -1.
         -4   -1    0    0    0  501 -0.00000000000E+00 -0.00000000000E+00 -0.80133670708E+02  0.80143733886E+02  0.12700000000E+01 0. -1.
         25    2    1    2    0    0  0.00000000000E+00  0.00000000000E+00 -0.31410000047E+02  0.12888395324E+03  0.12499794118E+03 0.  0.
    9000005    1    3    3    0    0  0.27326374049E+02 -0.54750950192E+02 -0.28776831347E+02  0.67627681373E+02  0.10000000000E+01 0.  0.
    9000005    1    3    3    0    0 -0.27326374049E+02  0.54750950192E+02 -0.26331687001E+01  0.61256271866E+02  0.10000000000E+01 0.  0.
<mgrwt>
<rscale>  0 0.12499794E+03</rscale>
<asrwt>0</asrwt>
<pdfrwt beam="1">  1        4 0.74979964E-02 0.12499794E+03</pdfrwt>
<pdfrwt beam="2">  1       -4 0.12330304E-01 0.12499794E+03</pdfrwt>
<totfact> 0.10368923E+04</totfact>
</mgrwt>
</event>
<event>
 5    1  0.3282421E-002  0.1250301E+03  0.7818608E-02  0.1235022E+00
          4   -1    0    0  501    0  0.00000000000E+00  0.00000000000E+00  0.36870143558E+02  0.36892009785E+02  0.12700000000E+01 0.  1.
         -4   -1    0    0    0  501 -0.00000000000E+00 -0.00000000000E+00 -0.10594007654E+03  0.10594768859E+03  0.12700000000E+01 0.  1.
         25    2    1    2    0    0  0.00000000000E+00  0.00000000000E+00 -0.69069932983E+02  0.14283969838E+03  0.12503009154E+03 0.  0.
    9000005    1    3    3    0    0  0.39405113021E+02  0.46306874675E+02 -0.17977770120E+02  0.63413640432E+02  0.10000000000E+01 0.  0.
    9000005    1    3    3    0    0 -0.39405113021E+02 -0.46306874675E+02 -0.51092162864E+02  0.79426057944E+02  0.10000000000E+01 0.  0.
<mgrwt>
<rscale>  0 0.12503009E+03</rscale>
<asrwt>0</asrwt>
<pdfrwt beam="1">  1        4 0.56745974E-02 0.12503009E+03</pdfrwt>
<pdfrwt beam="2">  1       -4 0.16300741E-01 0.12503009E+03</pdfrwt>
<totfact> 0.10068242E+04</totfact>
</mgrwt>
</event>
<event>
 5    1  0.3282421E-002  0.1249972E+03  0.7818608E-02  0.1235074E+00
          4   -1    0    0  501    0  0.00000000000E+00  0.00000000000E+00  0.30358915012E+03  0.30359180650E+03  0.12700000000E+01 0. -1.
         -4   -1    0    0    0  501 -0.00000000000E+00 -0.00000000000E+00 -0.12832261644E+02  0.12894954009E+02  0.12700000000E+01 0. -1.
         25    2    1    2    0    0  0.00000000000E+00  0.00000000000E+00  0.29075688848E+03  0.31648676051E+03  0.12499720548E+03 0.  0.
    9000005    1    3    3    0    0 -0.46889363804E+02 -0.19629008328E+02  0.53347524320E+02  0.73694428263E+02  0.10000000000E+01 0.  0.
    9000005    1    3    3    0    0  0.46889363804E+02  0.19629008328E+02  0.23740936416E+03  0.24279233224E+03  0.10000000000E+01 0.  0.
<mgrwt>
<rscale>  0 0.12499721E+03</rscale>
<asrwt>0</asrwt>
<pdfrwt beam="1">  1        4 0.46711049E-01 0.12499721E+03</pdfrwt>
<pdfrwt beam="2">  1       -4 0.19792210E-02 0.12499721E+03</pdfrwt>
<totfact> 0.73580494E+03</totfact>
</mgrwt>
</event>
<event>
 5    1  0.3282421E-002  0.1250004E+03  0.7818608E-02  0.1235069E+00
          4   -1    0    0  501    0  0.00000000000E+00  0.00000000000E+00  0.10960671647E+03  0.10961407390E+03  0.12700000000E+01 0.  1.
         -4   -1    0    0    0  501 -0.00000000000E+00 -0.00000000000E+00 -0.35619149885E+02  0.35641783605E+02  0.12700000000E+01 0.  1.
         25    2    1    2    0    0  0.00000000000E+00  0.00000000000E+00  0.73987566589E+02  0.14525585750E+03  0.12500041651E+03 0.  0.
    9000005    1    3    3    0    0  0.56261857246E+02 -0.26381135000E+02  0.44694470211E+02  0.76550352919E+02  0.10000000000E+01 0.  0.
    9000005    1    3    3    0    0 -0.56261857246E+02  0.26381135000E+02  0.29293096377E+02  0.68705504583E+02  0.10000000000E+01 0.  0.
<mgrwt>
<rscale>  0 0.12500042E+03</rscale>
<asrwt>0</asrwt>
<pdfrwt beam="1">  1        4 0.16864879E-01 0.12500042E+03</pdfrwt>
<pdfrwt beam="2">  1       -4 0.54821762E-02 0.12500042E+03</pdfrwt>
<totfact> 0.10025699E+04</totfact>
</mgrwt>
</event>
<event>
 5    1  0.3282421E-002  0.1250076E+03  0.7818608E-02  0.1235057E+00
         -4   -1    0    0    0  501 -0.00000000000E+00  0.00000000000E+00  0.71529902408E+02  0.71541175826E+02  0.12700000000E+01 0. -1.
          4   -1    0    0  501    0  0.00000000000E+00 -0.00000000000E+00 -0.54593704712E+02  0.54608474564E+02  0.12700000000E+01 0. -1.
         25    2    1    2    0    0  0.00000000000E+00  0.00000000000E+00  0.16936197696E+02  0.12614965039E+03  0.12500759777E+03 0.  0.
    9000005    1    3    3    0    0 -0.15160029906E+02  0.58999200404E+02 -0.56234535734E+01  0.61182966463E+02  0.10000000000E+01 0.  0.
    9000005    1    3    3    0    0  0.15160029906E+02 -0.58999200404E+02  0.22559651269E+02  0.64966683927E+02  0.10000000000E+01 0.  0.
<mgrwt>
<rscale>  0 0.12500760E+03</rscale>
<asrwt>0</asrwt>
<pdfrwt beam="2">  1        4 0.84010349E-02 0.12500760E+03</pdfrwt>
<pdfrwt beam="1">  1       -4 0.11006604E-01 0.12500760E+03</pdfrwt>
<totfact> 0.10425892E+04</totfact>
</mgrwt>
</event>
<event>
 5    1  0.3282421E-002  0.1249963E+03  0.7818608E-02  0.1235075E+00
         -4   -1    0    0    0  501 -0.00000000000E+00  0.00000000000E+00  0.37693971199E+03  0.37694185145E+03  0.12700000000E+01 0. -1.
          4   -1    0    0  501    0  0.00000000000E+00 -0.00000000000E+00 -0.10321354300E+02  0.10399194901E+02  0.12700000000E+01 0. -1.
         25    2    1    2    0    0  0.00000000000E+00  0.00000000000E+00  0.36661835769E+03  0.38734104636E+03  0.12499626392E+03 0.  0.
    9000005    1    3    3    0    0 -0.51265148262E+02  0.32917424860E+02  0.22639774848E+03  0.23445386072E+03  0.10000000000E+01 0.  0.
    9000005    1    3    3    0    0  0.51265148262E+02 -0.32917424860E+02  0.14022060921E+03  0.15288718564E+03  0.10000000000E+01 0.  0.
<mgrwt>
<rscale>  0 0.12499626E+03</rscale>
<asrwt>0</asrwt>
<pdfrwt beam="2">  1        4 0.15940528E-02 0.12499626E+03</pdfrwt>
<pdfrwt beam="1">  1       -4 0.57996884E-01 0.12499626E+03</pdfrwt>
<totfact> 0.65808315E+03</totfact>
</mgrwt>
</event>
<event>
 5    1  0.3282421E-002  0.1249950E+03  0.7818608E-02  0.1235077E+00
          4   -1    0    0  501    0  0.00000000000E+00  0.00000000000E+00  0.82539810741E+02  0.82549580600E+02  0.12700000000E+01 0.  1.
         -4   -1    0    0    0  501 -0.00000000000E+00 -0.00000000000E+00 -0.47300738244E+02  0.47317784589E+02  0.12700000000E+01 0.  1.
         25    2    1    2    0    0  0.00000000000E+00  0.00000000000E+00  0.35239072498E+02  0.12986736519E+03  0.12499496114E+03 0.  0.
    9000005    1    3    3    0    0 -0.35873084959E+02 -0.16135832755E+02 -0.32829286467E+02  0.51244564328E+02  0.10000000000E+01 0.  0.
    9000005    1    3    3    0    0  0.35873084959E+02  0.16135832755E+02  0.68068358964E+02  0.78622800861E+02  0.10000000000E+01 0.  0.
<mgrwt>
<rscale>  0 0.12499496E+03</rscale>
<asrwt>0</asrwt>
<pdfrwt beam="1">  1        4 0.12700495E-01 0.12499496E+03</pdfrwt>
<pdfrwt beam="2">  1       -4 0.72790995E-02 0.12499496E+03</pdfrwt>
<totfact> 0.10348523E+04</totfact>
</mgrwt>
</event>
<event>
 5    1  0.3282421E-002  0.1250004E+03  0.7818608E-02  0.1235069E+00
         -4   -1    0    0    0  501 -0.00000000000E+00  0.00000000000E+00  0.16162808900E+02  0.16212627533E+02  0.12700000000E+01 0.  1.
          4   -1    0    0  501    0  0.00000000000E+00 -0.00000000000E+00 -0.24125969025E+03  0.24126303289E+03  0.12700000000E+01 0.  1.
         25    2    1    2    0    0  0.00000000000E+00  0.00000000000E+00 -0.22509688135E+03  0.25747566043E+03  0.12500043887E+03 0.  0.
    9000005    1    3    3    0    0 -0.61423801614E+02 -0.98907525149E+01 -0.12465876390E+03  0.13932522316E+03  0.10000000000E+01 0.  0.
    9000005    1    3    3    0    0  0.61423801614E+02  0.98907525149E+01 -0.10043811745E+03  0.11815043727E+03  0.10000000000E+01 0.  0.
<mgrwt>
<rscale>  0 0.12500044E+03</rscale>
<asrwt>0</asrwt>
<pdfrwt beam="2">  1        4 0.37120962E-01 0.12500044E+03</pdfrwt>
<pdfrwt beam="1">  1       -4 0.24906755E-02 0.12500044E+03</pdfrwt>
<totfact> 0.81260833E+03</totfact>
</mgrwt>
</event>
<event>
 5    1  0.3282421E-002  0.1250053E+03  0.7818608E-02  0.1235061E+00
         -4   -1    0    0    0  501 -0.00000000000E+00  0.00000000000E+00  0.85187337480E+01  0.86128813221E+01  0.12700000000E+01 0. -1.
          4   -1    0    0  501    0  0.00000000000E+00 -0.00000000000E+00 -0.45597189322E+03  0.45597366185E+03  0.12700000000E+01 0. -1.
         25    2    1    2    0    0  0.00000000000E+00  0.00000000000E+00 -0.44745315947E+03  0.46458654318E+03  0.12500530461E+03 0.  0.
    9000005    1    3    3    0    0 -0.58914850618E+02  0.20604352752E+02 -0.21192544424E+03  0.22092734754E+03  0.10000000000E+01 0.  0.
    9000005    1    3    3    0    0  0.58914850618E+02 -0.20604352752E+02 -0.23552771523E+03  0.24365919563E+03  0.10000000000E+01 0.  0.
<mgrwt>
<rscale>  0 0.12500530E+03</rscale>
<asrwt>0</asrwt>
<pdfrwt beam="2">  1        4 0.70156881E-01 0.12500530E+03</pdfrwt>
<pdfrwt beam="1">  1       -4 0.13179529E-02 0.12500530E+03</pdfrwt>
<totfact> 0.58713820E+03</totfact>
</mgrwt>
</event>
<event>
 5    1  0.3282421E-002  0.1250029E+03  0.7818608E-02  0.1235065E+00
         -4   -1    0    0    0  501 -0.00000000000E+00  0.00000000000E+00  0.12342164292E+03  0.12342817685E+03  0.12700000000E+01 0.  1.
          4   -1    0    0  501    0  0.00000000000E+00 -0.00000000000E+00 -0.31630972463E+02  0.31656457776E+02  0.12700000000E+01 0.  1.
         25    2    1    2    0    0  0.00000000000E+00  0.00000000000E+00  0.91790670455E+02  0.15508463463E+03  0.12500286683E+03 0.  0.
    9000005    1    3    3    0    0 -0.44248499125E+02 -0.42929215561E+02  0.33207802476E+02  0.70032887766E+02  0.10000000000E+01 0.  0.
    9000005    1    3    3    0    0  0.44248499125E+02  0.42929215561E+02  0.58582867979E+02  0.85051746861E+02  0.10000000000E+01 0.  0.
<mgrwt>
<rscale>  0 0.12500287E+03</rscale>
<asrwt>0</asrwt>
<pdfrwt beam="2">  1        4 0.48687665E-02 0.12500287E+03</pdfrwt>
<pdfrwt beam="1">  1       -4 0.18990408E-01 0.12500287E+03</pdfrwt>
<totfact> 0.98292549E+03</totfact>
</mgrwt>
</event>
<event>
 5    1  0.3282421E-002  0.1249646E+03  0.7818608E-02  0.1235125E+00
         -4   -1    0    0    0  501 -0.00000000000E+00  0.00000000000E+00  0.19680214022E+03  0.19680623795E+03  0.12700000000E+01 0. -1.
          4   -1    0    0  501    0  0.00000000000E+00 -0.00000000000E+00 -0.19812754687E+02  0.19853416540E+02  0.12700000000E+01 0. -1.
         25    2    1    2    0    0  0.00000000000E+00  0.00000000000E+00  0.17698938554E+03  0.21665965449E+03  0.12496464817E+03 0.  0.
    9000005    1    3    3    0    0  0.10280332259E+02 -0.31727288576E+02  0.18008513494E+03  0.18315010755E+03  0.10000000000E+01 0.  0.
    9000005    1    3    3    0    0 -0.10280332259E+02  0.31727288576E+02 -0.30957493989E+01  0.33509546939E+02  0.10000000000E+01 0.  0.
<mgrwt>
<rscale>  0 0.12496465E+03</rscale>
<asrwt>0</asrwt>
<pdfrwt beam="2">  1        4 0.30515593E-02 0.12496465E+03</pdfrwt>
<pdfrwt beam="1">  1       -4 0.30280694E-01 0.12496465E+03</pdfrwt>
<totfact> 0.87468762E+03</totfact>
</mgrwt>
</event>
<event>
 5    1  0.3282421E-002  0.1250044E+03  0.7818608E-02  0.1235062E+00
          4   -1    0    0  501    0  0.00000000000E+00  0.00000000000E+00  0.50395057845E+01  0.51970682651E+01  0.12700000000E+01 0. -1.
         -4   -1    0    0    0  501 -0.00000000000E+00 -0.00000000000E+00 -0.76309046288E+03  0.76309151970E+03  0.12700000000E+01 0. -1.
         25    2    1    2    0    0  0.00000000000E+00  0.00000000000E+00 -0.75805095709E+03  0.76828858796E+03  0.12500440330E+03 0.  0.
    9000005    1    3    3    0    0  0.58282383144E+02  0.16682180785E+02 -0.28573559925E+03  0.29209752485E+03  0.10000000000E+01 0.  0.
    9000005    1    3    3    0    0 -0.58282383144E+02 -0.16682180785E+02 -0.47231535784E+03  0.47619106312E+03  0.10000000000E+01 0.  0.
<mgrwt>
<rscale>  0 0.12500440E+03</rscale>
<asrwt>0</asrwt>
<pdfrwt beam="1">  1        4 0.78751067E-03 0.12500440E+03</pdfrwt>
<pdfrwt beam="2">  1       -4 0.11741064E+00 0.12500440E+03</pdfrwt>
<totfact> 0.39710496E+03</totfact>
</mgrwt>
</event>
<event>
 5    1  0.3282421E-002  0.1250055E+03  0.7818608E-02  0.1235061E+00
         -4   -1    0    0    0  501 -0.00000000000E+00  0.00000000000E+00  0.39167073265E+02  0.39187657855E+02  0.12700000000E+01 0.  1.
          4   -1    0    0  501    0  0.00000000000E+00 -0.00000000000E+00 -0.99690990718E+02  0.99699079887E+02  0.12700000000E+01 0.  1.
         25    2    1    2    0    0  0.00000000000E+00  0.00000000000E+00 -0.60523917453E+02  0.13888673774E+03  0.12500552522E+03 0.  0.
    9000005    1    3    3    0    0  0.55534872226E+02 -0.13578038798E+02 -0.22180313061E+01  0.57222415482E+02  0.10000000000E+01 0.  0.
    9000005    1    3    3    0    0 -0.55534872226E+02  0.13578038798E+02 -0.58305886147E+02  0.81664322259E+02  0.10000000000E+01 0.  0.
<mgrwt>
<rscale>  0 0.12500553E+03</rscale>
<asrwt>0</asrwt>
<pdfrwt beam="2">  1        4 0.15339281E-01 0.12500553E+03</pdfrwt>
<pdfrwt beam="1">  1       -4 0.60279093E-02 0.12500553E+03</pdfrwt>
<totfact> 0.10155447E+04</totfact>
</mgrwt>
</event>
<event>
 5    1  0.3282421E-002  0.1250198E+03  0.7818608E-02  0.1235038E+00
         -4   -1    0    0    0  501 -0.00000000000E+00  0.00000000000E+00  0.12397859835E+02  0.12462737600E+02  0.12700000000E+01 0.  1.
          4   -1    0    0  501    0  0.00000000000E+00 -0.00000000000E+00 -0.31428573973E+03  0.31428830569E+03  0.12700000000E+01 0.  1.
         25    2    1    2    0    0  0.00000000000E+00  0.00000000000E+00 -0.30188787989E+03  0.32675104329E+03  0.12501980750E+03 0.  0.
    9000005    1    3    3    0    0  0.23722438379E+02  0.39751303477E+02 -0.41186430347E+02  0.61969688199E+02  0.10000000000E+01 0.  0.
    9000005    1    3    3    0    0 -0.23722438379E+02 -0.39751303477E+02 -0.26070144954E+03  0.26478135509E+03  0.10000000000E+01 0.  0.
<mgrwt>
<rscale>  0 0.12501981E+03</rscale>
<asrwt>0</asrwt>
<pdfrwt beam="2">  1        4 0.48356834E-01 0.12501981E+03</pdfrwt>
<pdfrwt beam="1">  1       -4 0.19125513E-02 0.12501981E+03</pdfrwt>
<totfact> 0.72328561E+03</totfact>
</mgrwt>
</event>
<event>
 5    1  0.3282421E-002  0.1249995E+03  0.7818608E-02  0.1235070E+00
          4   -1    0    0  501    0  0.00000000000E+00  0.00000000000E+00  0.14522214343E+02  0.14577640736E+02  0.12700000000E+01 0. -1.
         -4   -1    0    0    0  501 -0.00000000000E+00 -0.00000000000E+00 -0.26841289950E+03  0.26841590399E+03  0.12700000000E+01 0. -1.
         25    2    1    2    0    0  0.00000000000E+00  0.00000000000E+00 -0.25389068515E+03  0.28299354473E+03  0.12499946540E+03 0.  0.
    9000005    1    3    3    0    0 -0.10007660190E+02 -0.56739999972E+02 -0.18173292734E+03  0.19065003996E+03  0.10000000000E+01 0.  0.
    9000005    1    3    3    0    0  0.10007660190E+02  0.56739999972E+02 -0.72157757817E+02  0.92343504766E+02  0.10000000000E+01 0.  0.
<mgrwt>
<rscale>  0 0.12499947E+03</rscale>
<asrwt>0</asrwt>
<pdfrwt beam="1">  1        4 0.22386817E-02 0.12499947E+03</pdfrwt>
<pdfrwt beam="2">  1       -4 0.41298783E-01 0.12499947E+03</pdfrwt>
<totfact> 0.77783776E+03</totfact>
</mgrwt>
</event>
<event>
 5    1  0.3282421E-002  0.1250023E+03  0.7818608E-02  0.1235066E+00
          4   -1    0    0  501    0  0.00000000000E+00  0.00000000000E+00  0.23143617776E+02  0.23178437043E+02  0.12700000000E+01 0. -1.
         -4   -1    0    0    0  501 -0.00000000000E+00 -0.00000000000E+00 -0.16862510075E+03  0.16862988319E+03  0.12700000000E+01 0. -1.
         25    2    1    2    0    0  0.00000000000E+00  0.00000000000E+00 -0.14548148298E+03  0.19180832023E+03  0.12500227926E+03 0.  0.
    9000005    1    3    3    0    0 -0.24841075263E+02 -0.55390106071E+02 -0.49968432978E+02  0.78631972919E+02  0.10000000000E+01 0.  0.
    9000005    1    3    3    0    0  0.24841075263E+02  0.55390106071E+02 -0.95513049998E+02  0.11317634731E+03  0.10000000000E+01 0.  0.
<mgrwt>
<rscale>  0 0.12500228E+03</rscale>
<asrwt>0</asrwt>
<pdfrwt beam="1">  1        4 0.35636030E-02 0.12500228E+03</pdfrwt>
<pdfrwt beam="2">  1       -4 0.25945369E-01 0.12500228E+03</pdfrwt>
<totfact> 0.91528950E+03</totfact>
</mgrwt>
</event>
<event>
 5    1  0.3282421E-002  0.1249991E+03  0.7818608E-02  0.1235071E+00
         -4   -1    0    0    0  501 -0.00000000000E+00  0.00000000000E+00  0.17434808468E+03  0.17435271013E+03  0.12700000000E+01 0. -1.
          4   -1    0    0  501    0  0.00000000000E+00 -0.00000000000E+00 -0.22381654466E+02  0.22417657252E+02  0.12700000000E+01 0. -1.
         25    2    1    2    0    0  0.00000000000E+00  0.00000000000E+00  0.15196643021E+03  0.19677036739E+03  0.12499912628E+03 0.  0.
    9000005    1    3    3    0    0  0.23143842131E+02  0.34333668214E+02  0.14966325326E+03  0.15528853009E+03  0.10000000000E+01 0.  0.
    9000005    1    3    3    0    0 -0.23143842131E+02 -0.34333668214E+02  0.23031769570E+01  0.41481837299E+02  0.10000000000E+01 0.  0.
<mgrwt>
<rscale>  0 0.12499913E+03</rscale>
<asrwt>0</asrwt>
<pdfrwt beam="2">  1        4 0.34464568E-02 0.12499913E+03</pdfrwt>
<pdfrwt beam="1">  1       -4 0.26825907E-01 0.12499913E+03</pdfrwt>
<totfact> 0.90684229E+03</totfact>
</mgrwt>
</event>
<event>
 4    1  0.3282421E-002  0.1251504E+03  0.7818608E-02  0.1234834E+00
         -4   -1    0    0    0  501 -0.00000000000E+00  0.00000000000E+00  0.20366914898E+02  0.20406472563E+02  0.12700000000E+01 0.  1.
          4   -1    0    0  501    0  0.00000000000E+00 -0.00000000000E+00 -0.19202752786E+03  0.19203172747E+03  0.12700000000E+01 0.  1.
    9000005    1    1    2    0    0  0.48643615283E+02 -0.30393718841E+02 -0.12825589390E+03  0.14050108104E+03  0.10000000000E+01 0.  0.
    9000005    1    1    2    0    0 -0.48643615283E+02  0.30393718841E+02 -0.43404719061E+02  0.71937118996E+02  0.10000000000E+01 0.  0.
<mgrwt>
<rscale>  0 0.12515040E+03</rscale>
<asrwt>0</asrwt>
<pdfrwt beam="2">  1        4 0.29546061E-01 0.12515040E+03</pdfrwt>
<pdfrwt beam="1">  1       -4 0.31367376E-02 0.12515040E+03</pdfrwt>
<totfact> 0.87783790E+03</totfact>
</mgrwt>
</event>
<event>
 5    1  0.3282421E-002  0.1249979E+03  0.7818608E-02  0.1235073E+00
          4   -1    0    0  501    0  0.00000000000E+00  0.00000000000E+00  0.76261391615E+02  0.76271965695E+02  0.12700000000E+01 0.  1.
         -4   -1    0    0    0  501 -0.00000000000E+00 -0.00000000000E+00 -0.51198148096E+02  0.51213897220E+02  0.12700000000E+01 0.  1.
         25    2    1    2    0    0  0.00000000000E+00  0.00000000000E+00  0.25063243519E+02  0.12748586292E+03  0.12499791625E+03 0.  0.
    9000005    1    3    3    0    0  0.56890513301E+01 -0.50390650185E+02  0.49776088708E+02  0.71065054268E+02  0.10000000000E+01 0.  0.
    9000005    1    3    3    0    0 -0.56890513301E+01  0.50390650185E+02 -0.24712845190E+02  0.56420808647E+02  0.10000000000E+01 0.  0.
<mgrwt>
<rscale>  0 0.12499792E+03</rscale>
<asrwt>0</asrwt>
<pdfrwt beam="1">  1        4 0.11734547E-01 0.12499792E+03</pdfrwt>
<pdfrwt beam="2">  1       -4 0.78786630E-02 0.12499792E+03</pdfrwt>
<totfact> 0.10399096E+04</totfact>
</mgrwt>
</event>
<event>
 5    1  0.3282421E-002  0.1249993E+03  0.7818608E-02  0.1235070E+00
          4   -1    0    0  501    0  0.00000000000E+00  0.00000000000E+00  0.42201797977E+01  0.44071325740E+01  0.12700000000E+01 0. -1.
         -4   -1    0    0    0  501 -0.00000000000E+00 -0.00000000000E+00 -0.90535697608E+03  0.90535786683E+03  0.12700000000E+01 0. -1.
         25    2    1    2    0    0  0.00000000000E+00  0.00000000000E+00 -0.90113679628E+03  0.90976499941E+03  0.12499931413E+03 0.  0.
    9000005    1    3    3    0    0 -0.12165916082E+01 -0.52441285854E+02 -0.20336383710E+03  0.21002242451E+03  0.10000000000E+01 0.  0.
    9000005    1    3    3    0    0  0.12165916082E+01  0.52441285854E+02 -0.69777295919E+03  0.69974257490E+03  0.10000000000E+01 0.  0.
<mgrwt>
<rscale>  0 0.12499931E+03</rscale>
<asrwt>0</asrwt>
<pdfrwt beam="1">  1        4 0.66370865E-03 0.12499931E+03</pdfrwt>
<pdfrwt beam="2">  1       -4 0.13929999E+00 0.12499931E+03</pdfrwt>
<totfact> 0.33789298E+03</totfact>
</mgrwt>
</event>
<event>
 5    1  0.3282421E-002  0.1249991E+03  0.7818608E-02  0.1235071E+00
         -4   -1    0    0    0  501 -0.00000000000E+00  0.00000000000E+00  0.62152365521E+03  0.62152495275E+03  0.12700000000E+01 0.  1.
          4   -1    0    0  501    0  0.00000000000E+00 -0.00000000000E+00 -0.62193903114E+01  0.63477331265E+01  0.12700000000E+01 0.  1.
         25    2    1    2    0    0  0.00000000000E+00  0.00000000000E+00  0.61530426490E+03  0.62787268588E+03  0.12499908505E+03 0.  0.
    9000005    1    3    3    0    0 -0.12648723319E+02  0.16199163389E+02  0.60408638432E+03  0.60443673185E+03  0.10000000000E+01 0.  0.
    9000005    1    3    3    0    0  0.12648723319E+02 -0.16199163389E+02  0.11217880585E+02  0.23435954022E+02  0.10000000000E+01 0.  0.
<mgrwt>
<rscale>  0 0.12499909E+03</rscale>
<asrwt>0</asrwt>
<pdfrwt beam="2">  1        4 0.96680164E-03 0.12499909E+03</pdfrwt>
<pdfrwt beam="1">  1       -4 0.95628993E-01 0.12499909E+03</pdfrwt>
<totfact> 0.47155129E+03</totfact>
</mgrwt>
</event>
<event>
 5    1  0.3282421E-002  0.1250080E+03  0.7818608E-02  0.1235057E+00
          4   -1    0    0  501    0  0.00000000000E+00  0.00000000000E+00  0.28539581717E+03  0.28539864288E+03  0.12700000000E+01 0.  1.
         -4   -1    0    0    0  501 -0.00000000000E+00 -0.00000000000E+00 -0.13656534082E+02  0.13715459275E+02  0.12700000000E+01 0.  1.
         25    2    1    2    0    0  0.00000000000E+00  0.00000000000E+00  0.27173928309E+03  0.29911410215E+03  0.12500803228E+03 0.  0.
    9000005    1    3    3    0    0  0.92261463764E+00  0.38528667275E+02  0.25358858756E+03  0.25650239992E+03  0.10000000000E+01 0.  0.
    9000005    1    3    3    0    0 -0.92261463764E+00 -0.38528667275E+02  0.18150695522E+02  0.42611702239E+02  0.10000000000E+01 0.  0.
<mgrwt>
<rscale>  0 0.12500803E+03</rscale>
<asrwt>0</asrwt>
<pdfrwt beam="1">  1        4 0.43911801E-01 0.12500803E+03</pdfrwt>
<pdfrwt beam="2">  1       -4 0.21057552E-02 0.12500803E+03</pdfrwt>
<totfact> 0.75696596E+03</totfact>
</mgrwt>
</event>
<event>
 5    1  0.3282421E-002  0.1249642E+03  0.7818608E-02  0.1235125E+00
         -4   -1    0    0    0  501 -0.00000000000E+00  0.00000000000E+00  0.12372274240E+03  0.12372926043E+03  0.12700000000E+01 0.  1.
          4   -1    0    0  501    0  0.00000000000E+00 -0.00000000000E+00 -0.31534417727E+02  0.31559981011E+02  0.12700000000E+01 0.  1.
         25    2    1    2    0    0  0.00000000000E+00  0.00000000000E+00  0.92188324669E+02  0.15528924144E+03  0.12496424009E+03 0.  0.
    9000005    1    3    3    0    0  0.48699896894E+02  0.34151885306E+02  0.22353513321E+02  0.63550851963E+02  0.10000000000E+01 0.  0.
    9000005    1    3    3    0    0 -0.48699896894E+02 -0.34151885306E+02  0.69834811348E+02  0.91738389475E+02  0.10000000000E+01 0.  0.
<mgrwt>
<rscale>  0 0.12496424E+03</rscale>
<asrwt>0</asrwt>
<pdfrwt beam="2">  1        4 0.48539167E-02 0.12496424E+03</pdfrwt>
<pdfrwt beam="1">  1       -4 0.19036736E-01 0.12496424E+03</pdfrwt>
<totfact> 0.98337809E+03</totfact>
</mgrwt>
</event>
<event>
 5    1  0.3282421E-002  0.1250009E+03  0.7818608E-02  0.1235068E+00
         -4   -1    0    0    0  501 -0.00000000000E+00  0.00000000000E+00  0.16739972135E+02  0.16788078124E+02  0.12700000000E+01 0.  1.
          4   -1    0    0  501    0  0.00000000000E+00 -0.00000000000E+00 -0.23296742503E+03  0.23297088665E+03  0.12700000000E+01 0.  1.
         25    2    1    2    0    0  0.00000000000E+00  0.00000000000E+00 -0.21622745289E+03  0.24975896477E+03  0.12500091639E+03 0.  0.
    9000005    1    3    3    0    0 -0.28744882405E+02 -0.13919829261E+02 -0.21543891818E+03  0.21779567805E+03  0.10000000000E+01 0.  0.
    9000005    1    3    3    0    0  0.28744882405E+02  0.13919829261E+02 -0.78853471738E+00  0.31963286723E+02  0.10000000000E+01 0.  0.
<mgrwt>
<rscale>  0 0.12500092E+03</rscale>
<asrwt>0</asrwt>
<pdfrwt beam="2">  1        4 0.35845107E-01 0.12500092E+03</pdfrwt>
<pdfrwt beam="1">  1       -4 0.25793472E-02 0.12500092E+03</pdfrwt>
<totfact> 0.82363397E+03</totfact>
</mgrwt>
</event>
<event>
 5    1  0.3282421E-002  0.1249973E+03  0.7818608E-02  0.1235073E+00
          4   -1    0    0  501    0  0.00000000000E+00  0.00000000000E+00  0.12639862883E+04  0.12639869263E+04  0.12700000000E+01 0.  1.
         -4   -1    0    0    0  501 -0.00000000000E+00 -0.00000000000E+00 -0.29591408948E+01  0.32201575792E+01  0.12700000000E+01 0.  1.
         25    2    1    2    0    0  0.00000000000E+00  0.00000000000E+00  0.12610271474E+04  0.12672070839E+04  0.12499730795E+03 0.  0.
    9000005    1    3    3    0    0 -0.47529314768E+02 -0.36989823593E+02  0.46154255519E+03  0.46545656410E+03  0.10000000000E+01 0.  0.
    9000005    1    3    3    0    0  0.47529314768E+02  0.36989823593E+02  0.79948459223E+03  0.80175051982E+03  0.10000000000E+01 0.  0.
<mgrwt>
<rscale>  0 0.12499731E+03</rscale>
<asrwt>0</asrwt>
<pdfrwt beam="1">  1        4 0.19447995E+00 0.12499731E+03</pdfrwt>
<pdfrwt beam="2">  1       -4 0.47537877E-03 0.12499731E+03</pdfrwt>
<totfact> 0.23017251E+03</totfact>
</mgrwt>
</event>
<event>
 5    1  0.3282421E-002  0.1249959E+03  0.7818608E-02  0.1235076E+00
         -4   -1    0    0    0  501 -0.00000000000E+00  0.00000000000E+00  0.16018984552E+02  0.16069249082E+02  0.12700000000E+01 0.  1.
          4   -1    0    0  501    0  0.00000000000E+00 -0.00000000000E+00 -0.24340142127E+03  0.24340473449E+03  0.12700000000E+01 0.  1.
         25    2    1    2    0    0  0.00000000000E+00  0.00000000000E+00 -0.22738243671E+03  0.25947398358E+03  0.12499590244E+03 0.  0.
    9000005    1    3    3    0    0 -0.77707921036E+01 -0.52443114429E+02 -0.18236198362E+03  0.18991460852E+03  0.10000000000E+01 0.  0.
    9000005    1    3    3    0    0  0.77707921036E+01  0.52443114429E+02 -0.45020453093E+02  0.69559375052E+02  0.10000000000E+01 0.  0.
<mgrwt>
<rscale>  0 0.12499590E+03</rscale>
<asrwt>0</asrwt>
<pdfrwt beam="2">  1        4 0.37450491E-01 0.12499590E+03</pdfrwt>
<pdfrwt beam="1">  1       -4 0.24685807E-02 0.12499590E+03</pdfrwt>
<totfact> 0.80987324E+03</totfact>
</mgrwt>
</event>
<event>
 5    1  0.3282421E-002  0.1250029E+03  0.7818608E-02  0.1235065E+00
         -4   -1    0    0    0  501 -0.00000000000E+00  0.00000000000E+00  0.18829583439E+03  0.18830011723E+03  0.12700000000E+01 0.  1.
          4   -1    0    0  501    0  0.00000000000E+00 -0.00000000000E+00 -0.20722271936E+02  0.20761152526E+02  0.12700000000E+01 0.  1.
         25    2    1    2    0    0  0.00000000000E+00  0.00000000000E+00  0.16757356245E+03  0.20906126975E+03  0.12500286268E+03 0.  0.
    9000005    1    3    3    0    0 -0.19685203429E+02  0.59161264535E+02  0.76717537905E+02  0.98864265928E+02  0.10000000000E+01 0.  0.
    9000005    1    3    3    0    0  0.19685203429E+02 -0.59161264535E+02  0.90856024546E+02  0.11019700382E+03  0.10000000000E+01 0.  0.
<mgrwt>
<rscale>  0 0.12500286E+03</rscale>
<asrwt>0</asrwt>
<pdfrwt beam="2">  1        4 0.31913622E-02 0.12500286E+03</pdfrwt>
<pdfrwt beam="1">  1       -4 0.28971909E-01 0.12500286E+03</pdfrwt>
<totfact> 0.88623746E+03</totfact>
</mgrwt>
</event>
<event>
 5    1  0.3282421E-002  0.1250035E+03  0.7818608E-02  0.1235064E+00
         -4   -1    0    0    0  501 -0.00000000000E+00  0.00000000000E+00  0.39028283964E+02  0.39048941716E+02  0.12700000000E+01 0. -1.
          4   -1    0    0  501    0  0.00000000000E+00 -0.00000000000E+00 -0.10004207293E+03  0.10005013371E+03  0.12700000000E+01 0. -1.
         25    2    1    2    0    0  0.00000000000E+00  0.00000000000E+00 -0.61013788963E+02  0.13909907543E+03  0.12500348132E+03 0.  0.
    9000005    1    3    3    0    0  0.52963380054E+02  0.14795633038E+02  0.25298940338E+01  0.55058430305E+02  0.10000000000E+01 0.  0.
    9000005    1    3    3    0    0 -0.52963380054E+02 -0.14795633038E+02 -0.63543682997E+02  0.84040645123E+02  0.10000000000E+01 0.  0.
<mgrwt>
<rscale>  0 0.12500348E+03</rscale>
<asrwt>0</asrwt>
<pdfrwt beam="2">  1        4 0.15393297E-01 0.12500348E+03</pdfrwt>
<pdfrwt beam="1">  1       -4 0.60065605E-02 0.12500348E+03</pdfrwt>
<totfact> 0.10151496E+04</totfact>
</mgrwt>
</event>
<event>
 5    1  0.3282421E-002  0.1249982E+03  0.7818608E-02  0.1235072E+00
          4   -1    0    0  501    0  0.00000000000E+00  0.00000000000E+00  0.20295711513E+02  0.20335407687E+02  0.12700000000E+01 0.  1.
         -4   -1    0    0    0  501 -0.00000000000E+00 -0.00000000000E+00 -0.19223144941E+03  0.19223564456E+03  0.12700000000E+01 0.  1.
         25    2    1    2    0    0  0.00000000000E+00  0.00000000000E+00 -0.17193573789E+03  0.21257105225E+03  0.12499821715E+03 0.  0.
    9000005    1    3    3    0    0 -0.10446195572E+02  0.43123251928E+02 -0.11134047966E+02  0.45757020040E+02  0.10000000000E+01 0.  0.
    9000005    1    3    3    0    0  0.10446195572E+02 -0.43123251928E+02 -0.16080168993E+03  0.16681403221E+03  0.10000000000E+01 0.  0.
<mgrwt>
<rscale>  0 0.12499822E+03</rscale>
<asrwt>0</asrwt>
<pdfrwt beam="1">  1        4 0.31257935E-02 0.12499822E+03</pdfrwt>
<pdfrwt beam="2">  1       -4 0.29577444E-01 0.12499822E+03</pdfrwt>
<totfact> 0.88061218E+03</totfact>
</mgrwt>
</event>
<event>
 5    1  0.3282421E-002  0.1250002E+03  0.7818608E-02  0.1235069E+00
          4   -1    0    0  501    0  0.00000000000E+00  0.00000000000E+00  0.13674218383E+03  0.13674808129E+03  0.12700000000E+01 0.  1.
         -4   -1    0    0    0  501 -0.00000000000E+00 -0.00000000000E+00 -0.28545995918E+02  0.28574232849E+02  0.12700000000E+01 0.  1.
         25    2    1    2    0    0  0.00000000000E+00  0.00000000000E+00  0.10819618791E+03  0.16532231414E+03  0.12500020990E+03 0.  0.
    9000005    1    3    3    0    0 -0.74156629946E+01  0.19564051240E+02 -0.23782661531E+02  0.31691625835E+02  0.10000000000E+01 0.  0.
    9000005    1    3    3    0    0  0.74156629946E+01 -0.19564051240E+02  0.13197884944E+03  0.13363068831E+03  0.10000000000E+01 0.  0.
<mgrwt>
<rscale>  0 0.12500021E+03</rscale>
<asrwt>0</asrwt>
<pdfrwt beam="1">  1        4 0.21039885E-01 0.12500021E+03</pdfrwt>
<pdfrwt beam="2">  1       -4 0.43943173E-02 0.12500021E+03</pdfrwt>
<totfact> 0.96325931E+03</totfact>
</mgrwt>
</event>
<event>
 5    1  0.3282421E-002  0.1250013E+03  0.7818608E-02  0.1235067E+00
         -4   -1    0    0    0  501 -0.00000000000E+00  0.00000000000E+00  0.14971417094E+02  0.15025186514E+02  0.12700000000E+01 0. -1.
          4   -1    0    0  501    0  0.00000000000E+00 -0.00000000000E+00 -0.26039612900E+03  0.26039922600E+03  0.12700000000E+01 0. -1.
         25    2    1    2    0    0  0.00000000000E+00  0.00000000000E+00 -0.24542471191E+03  0.27542441251E+03  0.12500127116E+03 0.  0.
    9000005    1    3    3    0    0  0.11149257703E+02 -0.60969034020E+02 -0.14031182935E+03  0.15339471475E+03  0.10000000000E+01 0.  0.
    9000005    1    3    3    0    0 -0.11149257703E+02  0.60969034020E+02 -0.10511288256E+03  0.12202969776E+03  0.10000000000E+01 0.  0.
<mgrwt>
<rscale>  0 0.12500127E+03</rscale>
<asrwt>0</asrwt>
<pdfrwt beam="2">  1        4 0.40065314E-01 0.12500127E+03</pdfrwt>
<pdfrwt beam="1">  1       -4 0.23076695E-02 0.12500127E+03</pdfrwt>
<totfact> 0.78786507E+03</totfact>
</mgrwt>
</event>
<event>
 5    1  0.3282421E-002  0.1250052E+03  0.7818608E-02  0.1235061E+00
          4   -1    0    0  501    0  0.00000000000E+00  0.00000000000E+00  0.38743479586E+02  0.38764289113E+02  0.12700000000E+01 0.  1.
         -4   -1    0    0    0  501 -0.00000000000E+00 -0.00000000000E+00 -0.10077993785E+03  0.10078793963E+03  0.12700000000E+01 0.  1.
         25    2    1    2    0    0  0.00000000000E+00  0.00000000000E+00 -0.62036458268E+02  0.13955222874E+03  0.12500520946E+03 0.  0.
    9000005    1    3    3    0    0  0.12936095349E+01 -0.61450450934E+02 -0.43635904486E+02  0.75385167679E+02  0.10000000000E+01 0.  0.
    9000005    1    3    3    0    0 -0.12936095349E+01  0.61450450934E+02 -0.18400553782E+02  0.64167061060E+02  0.10000000000E+01 0.  0.
<mgrwt>
<rscale>  0 0.12500521E+03</rscale>
<asrwt>0</asrwt>
<pdfrwt beam="1">  1        4 0.59627516E-02 0.12500521E+03</pdfrwt>
<pdfrwt beam="2">  1       -4 0.15506822E-01 0.12500521E+03</pdfrwt>
<totfact> 0.10141684E+04</totfact>
</mgrwt>
</event>
<event>
 5    1  0.3282421E-002  0.1249973E+03  0.7818608E-02  0.1235073E+00
         -4   -1    0    0    0  501 -0.00000000000E+00  0.00000000000E+00  0.18676770818E+03  0.18677202606E+03  0.12700000000E+01 0. -1.
          4   -1    0    0  501    0  0.00000000000E+00 -0.00000000000E+00 -0.20890277987E+02  0.20928846466E+02  0.12700000000E+01 0. -1.
         25    2    1    2    0    0  0.00000000000E+00  0.00000000000E+00  0.16587743019E+03  0.20770087253E+03  0.12499732238E+03 0.  0.
    9000005    1    3    3    0    0 -0.26782229504E+02  0.54479072067E+02  0.58302346950E+02  0.84174941463E+02  0.10000000000E+01 0.  0.
    9000005    1    3    3    0    0  0.26782229504E+02 -0.54479072067E+02  0.10757508324E+03  0.12352593106E+03  0.10000000000E+01 0.  0.
<mgrwt>
<rscale>  0 0.12499732E+03</rscale>
<asrwt>0</asrwt>
<pdfrwt beam="2">  1        4 0.32171881E-02 0.12499732E+03</pdfrwt>
<pdfrwt beam="1">  1       -4 0.28736790E-01 0.12499732E+03</pdfrwt>
<totfact> 0.88858062E+03</totfact>
</mgrwt>
</event>
<event>
 5    1  0.3282421E-002  0.1250015E+03  0.7818608E-02  0.1235067E+00
         -4   -1    0    0    0  501 -0.00000000000E+00  0.00000000000E+00  0.10144294955E+03  0.10145089903E+03  0.12700000000E+01 0.  1.
          4   -1    0    0  501    0  0.00000000000E+00 -0.00000000000E+00 -0.38487844822E+02  0.38508792490E+02  0.12700000000E+01 0.  1.
         25    2    1    2    0    0  0.00000000000E+00  0.00000000000E+00  0.62955104729E+02  0.13995969152E+03  0.12500148014E+03 0.  0.
    9000005    1    3    3    0    0  0.22886999737E+02 -0.12321343723E+02 -0.32153592302E+02  0.41357995189E+02  0.10000000000E+01 0.  0.
    9000005    1    3    3    0    0 -0.22886999737E+02  0.12321343723E+02  0.95108697031E+02  0.98601696329E+02  0.10000000000E+01 0.  0.
<mgrwt>
<rscale>  0 0.12500148E+03</rscale>
<asrwt>0</asrwt>
<pdfrwt beam="2">  1        4 0.59234298E-02 0.12500148E+03</pdfrwt>
<pdfrwt beam="1">  1       -4 0.15608830E-01 0.12500148E+03</pdfrwt>
<totfact> 0.10134083E+04</totfact>
</mgrwt>
</event>
<event>
 5    1  0.3282421E-002  0.1249994E+03  0.7818608E-02  0.1235070E+00
          4   -1    0    0  501    0  0.00000000000E+00  0.00000000000E+00  0.21579426266E+03  0.21579799975E+03  0.12700000000E+01 0.  1.
         -4   -1    0    0    0  501 -0.00000000000E+00 -0.00000000000E+00 -0.18075394992E+02  0.18119955963E+02  0.12700000000E+01 0.  1.
         25    2    1    2    0    0  0.00000000000E+00  0.00000000000E+00  0.19771886767E+03  0.23391795571E+03  0.12499943749E+03 0.  0.
    9000005    1    3    3    0    0 -0.40044176457E+02 -0.43082342565E+01  0.94425213145E+01  0.41379441264E+02  0.10000000000E+01 0.  0.
    9000005    1    3    3    0    0  0.40044176457E+02  0.43082342565E+01  0.18827634635E+03  0.19253851445E+03  0.10000000000E+01 0.  0.
<mgrwt>
<rscale>  0 0.12499944E+03</rscale>
<asrwt>0</asrwt>
<pdfrwt beam="1">  1        4 0.33202832E-01 0.12499944E+03</pdfrwt>
<pdfrwt beam="2">  1       -4 0.27845453E-02 0.12499944E+03</pdfrwt>
<totfact> 0.84712662E+03</totfact>
</mgrwt>
</event>
<event>
 5    1  0.3282421E-002  0.1250008E+03  0.7818608E-02  0.1235068E+00
         -4   -1    0    0    0  501 -0.00000000000E+00  0.00000000000E+00  0.60472460684E+03  0.60472594042E+03  0.12700000000E+01 0.  1.
          4   -1    0    0  501    0  0.00000000000E+00 -0.00000000000E+00 -0.63958624521E+01  0.65207328197E+01  0.12700000000E+01 0.  1.
         25    2    1    2    0    0  0.00000000000E+00  0.00000000000E+00  0.59832874439E+03  0.61124667324E+03  0.12500083674E+03 0.  0.
    9000005    1    3    3    0    0 -0.26429514925E+02  0.44410358441E+02  0.12735388045E+03  0.13744384330E+03  0.10000000000E+01 0.  0.
    9000005    1    3    3    0    0  0.26429514925E+02 -0.44410358441E+02  0.47097486394E+03  0.47380282994E+03  0.10000000000E+01 0.  0.
<mgrwt>
<rscale>  0 0.12500084E+03</rscale>
<asrwt>0</asrwt>
<pdfrwt beam="2">  1        4 0.99368656E-03 0.12500084E+03</pdfrwt>
<pdfrwt beam="1">  1       -4 0.93044288E-01 0.12500084E+03</pdfrwt>
<totfact> 0.48164403E+03</totfact>
</mgrwt>
</event>
<event>
 5    1  0.3282421E-002  0.1249985E+03  0.7818608E-02  0.1235072E+00
          4   -1    0    0  501    0  0.00000000000E+00  0.00000000000E+00  0.12909356858E+03  0.12909981545E+03  0.12700000000E+01 0.  1.
         -4   -1    0    0    0  501 -0.00000000000E+00 -0.00000000000E+00 -0.30238023622E+02  0.30264681934E+02  0.12700000000E+01 0.  1.
         25    2    1    2    0    0  0.00000000000E+00  0.00000000000E+00  0.98855544960E+02  0.15936449738E+03  0.12499849702E+03 0.  0.
    9000005    1    3    3    0    0  0.44327584351E+02 -0.12974977608E+02 -0.42386779471E+01  0.46392361107E+02  0.10000000000E+01 0.  0.
    9000005    1    3    3    0    0 -0.44327584351E+02  0.12974977608E+02  0.10309422291E+03  0.11297213628E+03  0.10000000000E+01 0.  0.
<mgrwt>
<rscale>  0 0.12499850E+03</rscale>
<asrwt>0</asrwt>
<pdfrwt beam="1">  1        4 0.19863080E-01 0.12499850E+03</pdfrwt>
<pdfrwt beam="2">  1       -4 0.46545348E-02 0.12499850E+03</pdfrwt>
<totfact> 0.97468738E+03</totfact>
</mgrwt>
</event>
<event>
 5    1  0.3282421E-002  0.1250023E+03  0.7818608E-02  0.1235066E+00
         -4   -1    0    0    0  501 -0.00000000000E+00  0.00000000000E+00  0.22232919640E+04  0.22232923268E+04  0.12700000000E+01 0. -1.
          4   -1    0    0  501    0  0.00000000000E+00 -0.00000000000E+00 -0.15271289952E+01  0.19862081885E+01  0.12700000000E+01 0. -1.
         25    2    1    2    0    0  0.00000000000E+00  0.00000000000E+00  0.22217648350E+04  0.22252785349E+04  0.12500230356E+03 0.  0.
    9000005    1    3    3    0    0  0.12718916253E+02  0.27941564477E+02  0.20798835435E+04  0.20801103472E+04  0.10000000000E+01 0.  0.
    9000005    1    3    3    0    0 -0.12718916253E+02 -0.27941564477E+02  0.14188129148E+03  0.14516818773E+03  0.10000000000E+01 0.  0.
<mgrwt>
<rscale>  0 0.12500230E+03</rscale>
<asrwt>0</asrwt>
<pdfrwt beam="2">  1        4 0.27028429E-03 0.12500230E+03</pdfrwt>
<pdfrwt beam="1">  1       -4 0.34208066E+00 0.12500230E+03</pdfrwt>
<totfact> 0.71995804E+02</totfact>
</mgrwt>
</event>
<event>
 5    1  0.3282421E-002  0.1250035E+03  0.7818608E-02  0.1235064E+00
         -4   -1    0    0    0  501 -0.00000000000E+00  0.00000000000E+00  0.23148578053E+02  0.23183389871E+02  0.12700000000E+01 0.  1.
          4   -1    0    0  501    0  0.00000000000E+00 -0.00000000000E+00 -0.16859220837E+03  0.16859699174E+03  0.12700000000E+01 0.  1.
         25    2    1    2    0    0  0.00000000000E+00  0.00000000000E+00 -0.14544363032E+03  0.19178038161E+03  0.12500346063E+03 0.  0.
    9000005    1    3    3    0    0 -0.25538121521E+02  0.46671368096E+02 -0.12302520941E+03  0.13403960012E+03  0.10000000000E+01 0.  0.
    9000005    1    3    3    0    0  0.25538121521E+02 -0.46671368096E+02 -0.22418420908E+02  0.57740781487E+02  0.10000000000E+01 0.  0.
<mgrwt>
<rscale>  0 0.12500346E+03</rscale>
<asrwt>0</asrwt>
<pdfrwt beam="2">  1        4 0.25940308E-01 0.12500346E+03</pdfrwt>
<pdfrwt beam="1">  1       -4 0.35643656E-02 0.12500346E+03</pdfrwt>
<totfact> 0.91531360E+03</totfact>
</mgrwt>
</event>
<event>
 5    1  0.3282421E-002  0.1250467E+03  0.7818608E-02  0.1234996E+00
         -4   -1    0    0    0  501 -0.00000000000E+00  0.00000000000E+00  0.56672170736E+03  0.56672313036E+03  0.12700000000E+01 0.  1.
          4   -1    0    0  501    0  0.00000000000E+00 -0.00000000000E+00 -0.68379685314E+01  0.69549057245E+01  0.12700000000E+01 0.  1.
         25    2    1    2    0    0  0.00000000000E+00  0.00000000000E+00  0.55988373883E+03  0.57367803609E+03  0.12504674362E+03 0.  0.
    9000005    1    3    3    0    0  0.18639666576E+02  0.58548127422E+02  0.22706335128E+03  0.23523198314E+03  0.10000000000E+01 0.  0.
    9000005    1    3    3    0    0 -0.18639666576E+02 -0.58548127422E+02  0.33282038754E+03  0.33844605295E+03  0.10000000000E+01 0.  0.
<mgrwt>
<rscale>  0 0.12504674E+03</rscale>
<asrwt>0</asrwt>
<pdfrwt beam="2">  1        4 0.10611003E-02 0.12504674E+03</pdfrwt>
<pdfrwt beam="1">  1       -4 0.87197018E-01 0.12504674E+03</pdfrwt>
<totfact> 0.50520613E+03</totfact>
</mgrwt>
</event>
<event>
 5    1  0.3282421E-002  0.1250029E+03  0.7818608E-02  0.1235065E+00
         -4   -1    0    0    0  501 -0.00000000000E+00  0.00000000000E+00  0.32306688134E+02  0.32331640821E+02  0.12700000000E+01 0.  1.
          4   -1    0    0  501    0  0.00000000000E+00 -0.00000000000E+00 -0.12084221715E+03  0.12084889054E+03  0.12700000000E+01 0.  1.
         25    2    1    2    0    0  0.00000000000E+00  0.00000000000E+00 -0.88535529011E+02  0.15318053136E+03  0.12500294113E+03 0.  0.
    9000005    1    3    3    0    0  0.26979712695E+02  0.43460123379E+02 -0.27643303889E+00  0.51164085416E+02  0.10000000000E+01 0.  0.
    9000005    1    3    3    0    0 -0.26979712695E+02 -0.43460123379E+02 -0.88259095973E+02  0.10201644594E+03  0.10000000000E+01 0.  0.
<mgrwt>
<rscale>  0 0.12500294E+03</rscale>
<asrwt>0</asrwt>
<pdfrwt beam="2">  1        4 0.18593543E-01 0.12500294E+03</pdfrwt>
<pdfrwt beam="1">  1       -4 0.49726926E-02 0.12500294E+03</pdfrwt>
<totfact> 0.98666915E+03</totfact>
</mgrwt>
</event>
<event>
 5    1  0.3282421E-002  0.1250006E+03  0.7818608E-02  0.1235068E+00
          4   -1    0    0  501    0  0.00000000000E+00  0.00000000000E+00  0.61783887804E+02  0.61796939182E+02  0.12700000000E+01 0.  1.
         -4   -1    0    0    0  501 -0.00000000000E+00 -0.00000000000E+00 -0.63198869465E+02  0.63211628690E+02  0.12700000000E+01 0.  1.
         25    2    1    2    0    0  0.00000000000E+00  0.00000000000E+00 -0.14149816609E+01  0.12500856787E+03  0.12500055947E+03 0.  0.
    9000005    1    3    3    0    0 -0.36428744195E+02 -0.49116688851E+02  0.12168987055E+02  0.62358534086E+02  0.10000000000E+01 0.  0.
    9000005    1    3    3    0    0  0.36428744195E+02  0.49116688851E+02 -0.13583968716E+02  0.62650033786E+02  0.10000000000E+01 0.  0.
<mgrwt>
<rscale>  0 0.12500056E+03</rscale>
<asrwt>0</asrwt>
<pdfrwt beam="1">  1        4 0.95071990E-02 0.12500056E+03</pdfrwt>
<pdfrwt beam="2">  1       -4 0.97248884E-02 0.12500056E+03</pdfrwt>
<totfact> 0.10452544E+04</totfact>
</mgrwt>
</event>
<event>
 5    1  0.3282421E-002  0.1250023E+03  0.7818608E-02  0.1235066E+00
          4   -1    0    0  501    0  0.00000000000E+00  0.00000000000E+00  0.51666350377E+02  0.51681956825E+02  0.12700000000E+01 0. -1.
         -4   -1    0    0    0  501 -0.00000000000E+00 -0.00000000000E+00 -0.75575724488E+02  0.75586394489E+02  0.12700000000E+01 0. -1.
         25    2    1    2    0    0  0.00000000000E+00  0.00000000000E+00 -0.23909374111E+02  0.12726835131E+03  0.12500230028E+03 0.  0.
    9000005    1    3    3    0    0  0.47599536600E+02  0.13374487897E+02 -0.50867975716E+02  0.70944652825E+02  0.10000000000E+01 0.  0.
    9000005    1    3    3    0    0 -0.47599536600E+02 -0.13374487897E+02  0.26958601605E+02  0.56323698489E+02  0.10000000000E+01 0.  0.
<mgrwt>
<rscale>  0 0.12500230E+03</rscale>
<asrwt>0</asrwt>
<pdfrwt beam="1">  1        4 0.79506905E-02 0.12500230E+03</pdfrwt>
<pdfrwt beam="2">  1       -4 0.11629056E-01 0.12500230E+03</pdfrwt>
<totfact> 0.10402781E+04</totfact>
</mgrwt>
</event>
<event>
 5    1  0.3282421E-002  0.1249966E+03  0.7818608E-02  0.1235075E+00
          4   -1    0    0  501    0  0.00000000000E+00  0.00000000000E+00  0.73479864870E+03  0.73479974621E+03  0.12700000000E+01 0.  1.
         -4   -1    0    0    0  501 -0.00000000000E+00 -0.00000000000E+00 -0.52388224885E+01  0.53905622217E+01  0.12700000000E+01 0.  1.
         25    2    1    2    0    0  0.00000000000E+00  0.00000000000E+00  0.72955982621E+03  0.74019030843E+03  0.12499661066E+03 0.  0.
    9000005    1    3    3    0    0  0.43496751034E+02 -0.19459249747E+02  0.12537919293E+03  0.13413266481E+03  0.10000000000E+01 0.  0.
    9000005    1    3    3    0    0 -0.43496751034E+02  0.19459249747E+02  0.60418063329E+03  0.60605764362E+03  0.10000000000E+01 0.  0.
<mgrwt>
<rscale>  0 0.12499661E+03</rscale>
<asrwt>0</asrwt>
<pdfrwt beam="1">  1        4 0.11305773E+00 0.12499661E+03</pdfrwt>
<pdfrwt beam="2">  1       -4 0.81772923E-03 0.12499661E+03</pdfrwt>
<totfact> 0.41050821E+03</totfact>
</mgrwt>
</event>
<event>
 5    1  0.3282421E-002  0.1250003E+03  0.7818608E-02  0.1235069E+00
          4   -1    0    0  501    0  0.00000000000E+00  0.00000000000E+00  0.79915368154E+02  0.79925458818E+02  0.12700000000E+01 0. -1.
         -4   -1    0    0    0  501 -0.00000000000E+00 -0.00000000000E+00 -0.48858673846E+02  0.48875176828E+02  0.12700000000E+01 0. -1.
         25    2    1    2    0    0  0.00000000000E+00  0.00000000000E+00  0.31056694309E+02  0.12880063565E+03  0.12500034193E+03 0.  0.
    9000005    1    3    3    0    0 -0.50247280811E+02  0.28746402386E+02  0.39783904700E+02  0.70248871537E+02  0.10000000000E+01 0.  0.
    9000005    1    3    3    0    0  0.50247280811E+02 -0.28746402386E+02 -0.87272103909E+01  0.58551764109E+02  0.10000000000E+01 0.  0.
<mgrwt>
<rscale>  0 0.12500034E+03</rscale>
<asrwt>0</asrwt>
<pdfrwt beam="1">  1        4 0.12296718E-01 0.12500034E+03</pdfrwt>
<pdfrwt beam="2">  1       -4 0.75187647E-02 0.12500034E+03</pdfrwt>
<totfact> 0.10370153E+04</totfact>
</mgrwt>
</event>
<event>
 5    1  0.3282421E-002  0.1249979E+03  0.7818608E-02  0.1235073E+00
          4   -1    0    0  501    0  0.00000000000E+00  0.00000000000E+00  0.73151718172E+02  0.73162741689E+02  0.12700000000E+01 0. -1.
         -4   -1    0    0    0  501 -0.00000000000E+00 -0.00000000000E+00 -0.53374931223E+02  0.53390038238E+02  0.12700000000E+01 0. -1.
         25    2    1    2    0    0  0.00000000000E+00  0.00000000000E+00  0.19776786949E+02  0.12655277993E+03  0.12499793920E+03 0.  0.
    9000005    1    3    3    0    0  0.38673164762E+01 -0.58149665622E+02  0.32725152646E+02  0.66845159619E+02  0.10000000000E+01 0.  0.
    9000005    1    3    3    0    0 -0.38673164762E+01  0.58149665622E+02 -0.12948365698E+02  0.59707620309E+02  0.10000000000E+01 0.  0.
<mgrwt>
<rscale>  0 0.12499794E+03</rscale>
<asrwt>0</asrwt>
<pdfrwt beam="1">  1        4 0.11256120E-01 0.12499794E+03</pdfrwt>
<pdfrwt beam="2">  1       -4 0.82135380E-02 0.12499794E+03</pdfrwt>
<totfact> 0.10419362E+04</totfact>
</mgrwt>
</event>
<event>
 5    1  0.3282421E-002  0.1250062E+03  0.7818608E-02  0.1235060E+00
         -4   -1    0    0    0  501 -0.00000000000E+00  0.00000000000E+00  0.35682476755E+03  0.35682702762E+03  0.12700000000E+01 0.  1.
          4   -1    0    0  501    0  0.00000000000E+00 -0.00000000000E+00 -0.10909202734E+02  0.10982877779E+02  0.12700000000E+01 0.  1.
         25    2    1    2    0    0  0.00000000000E+00  0.00000000000E+00  0.34591556482E+03  0.36780990540E+03  0.12500619395E+03 0.  0.
    9000005    1    3    3    0    0  0.62408152579E+02  0.11668288436E+01  0.18202577214E+03  0.19243315910E+03  0.10000000000E+01 0.  0.
    9000005    1    3    3    0    0 -0.62408152579E+02 -0.11668288436E+01  0.16388979268E+03  0.17537674630E+03  0.10000000000E+01 0.  0.
<mgrwt>
<rscale>  0 0.12500619E+03</rscale>
<asrwt>0</asrwt>
<pdfrwt beam="2">  1        4 0.16841801E-02 0.12500619E+03</pdfrwt>
<pdfrwt beam="1">  1       -4 0.54901957E-01 0.12500619E+03</pdfrwt>
<totfact> 0.67799400E+03</totfact>
</mgrwt>
</event>
<event>
 5    1  0.3282421E-002  0.1249775E+03  0.7818608E-02  0.1235104E+00
          4   -1    0    0  501    0  0.00000000000E+00  0.00000000000E+00  0.40622226004E+02  0.40642073588E+02  0.12700000000E+01 0. -1.
         -4   -1    0    0    0  501 -0.00000000000E+00 -0.00000000000E+00 -0.96078308770E+02  0.96086702078E+02  0.12700000000E+01 0. -1.
         25    2    1    2    0    0  0.00000000000E+00  0.00000000000E+00 -0.55456082766E+02  0.13672877567E+03  0.12497752190E+03 0.  0.
    9000005    1    3    3    0    0  0.37612263522E+02  0.49863308091E+02 -0.29563068593E+02  0.69108659990E+02  0.10000000000E+01 0.  0.
    9000005    1    3    3    0    0 -0.37612263522E+02 -0.49863308091E+02 -0.25893014173E+02  0.67620115676E+02  0.10000000000E+01 0.  0.
<mgrwt>
<rscale>  0 0.12497752E+03</rscale>
<asrwt>0</asrwt>
<pdfrwt beam="1">  1        4 0.62517456E-02 0.12497752E+03</pdfrwt>
<pdfrwt beam="2">  1       -4 0.14783451E-01 0.12497752E+03</pdfrwt>
<totfact> 0.10206932E+04</totfact>
</mgrwt>
</event>
<event>
 5    1  0.3282421E-002  0.1249958E+03  0.7818608E-02  0.1235076E+00
          4   -1    0    0  501    0  0.00000000000E+00  0.00000000000E+00  0.27940985058E+02  0.27969832785E+02  0.12700000000E+01 0. -1.
         -4   -1    0    0    0  501 -0.00000000000E+00 -0.00000000000E+00 -0.13969024363E+03  0.13969601664E+03  0.12700000000E+01 0. -1.
         25    2    1    2    0    0  0.00000000000E+00  0.00000000000E+00 -0.11174925857E+03  0.16766584943E+03  0.12499576102E+03 0.  0.
    9000005    1    3    3    0    0  0.22333791741E+02 -0.43865356641E+02 -0.10751340835E+03  0.11825016170E+03  0.10000000000E+01 0.  0.
    9000005    1    3    3    0    0 -0.22333791741E+02  0.43865356641E+02 -0.42358502249E+01  0.49415687731E+02  0.10000000000E+01 0.  0.
<mgrwt>
<rscale>  0 0.12499576E+03</rscale>
<asrwt>0</asrwt>
<pdfrwt beam="1">  1        4 0.43012763E-02 0.12499576E+03</pdfrwt>
<pdfrwt beam="2">  1       -4 0.21493469E-01 0.12499576E+03</pdfrwt>
<totfact> 0.95894021E+03</totfact>
</mgrwt>
</event>
<event>
 5    1  0.3282421E-002  0.1250042E+03  0.7818608E-02  0.1235063E+00
          4   -1    0    0  501    0  0.00000000000E+00  0.00000000000E+00  0.17312874024E+02  0.17359392472E+02  0.12700000000E+01 0. -1.
         -4   -1    0    0    0  501 -0.00000000000E+00 -0.00000000000E+00 -0.22529101459E+03  0.22529459415E+03  0.12700000000E+01 0. -1.
         25    2    1    2    0    0  0.00000000000E+00  0.00000000000E+00 -0.20797814056E+03  0.24265398662E+03  0.12500420102E+03 0.  0.
    9000005    1    3    3    0    0  0.51148031124E+02 -0.24849930155E+02 -0.53673055114E+02  0.78201259337E+02  0.10000000000E+01 0.  0.
    9000005    1    3    3    0    0 -0.51148031124E+02  0.24849930155E+02 -0.15430508545E+03  0.16445272729E+03  0.10000000000E+01 0.  0.
<mgrwt>
<rscale>  0 0.12500420E+03</rscale>
<asrwt>0</asrwt>
<pdfrwt beam="1">  1        4 0.26673729E-02 0.12500420E+03</pdfrwt>
<pdfrwt beam="2">  1       -4 0.34664008E-01 0.12500420E+03</pdfrwt>
<totfact> 0.83395876E+03</totfact>
</mgrwt>
</event>
<event>
 5    1  0.3282421E-002  0.1250019E+03  0.7818608E-02  0.1235066E+00
         -4   -1    0    0    0  501 -0.00000000000E+00  0.00000000000E+00  0.32809295703E+02  0.32833866427E+02  0.12700000000E+01 0. -1.
          4   -1    0    0  501    0  0.00000000000E+00 -0.00000000000E+00 -0.11899038127E+03  0.11899715852E+03  0.12700000000E+01 0. -1.
         25    2    1    2    0    0  0.00000000000E+00  0.00000000000E+00 -0.86181085571E+02  0.15183102495E+03  0.12500192249E+03 0.  0.
    9000005    1    3    3    0    0 -0.37560854286E+02  0.44245851574E+02 -0.14947364516E+02  0.59941111619E+02  0.10000000000E+01 0.  0.
    9000005    1    3    3    0    0  0.37560854286E+02 -0.44245851574E+02 -0.71233721054E+02  0.91889913328E+02  0.10000000000E+01 0.  0.
<mgrwt>
<rscale>  0 0.12500192E+03</rscale>
<asrwt>0</asrwt>
<pdfrwt beam="2">  1        4 0.18308624E-01 0.12500192E+03</pdfrwt>
<pdfrwt beam="1">  1       -4 0.50499954E-02 0.12500192E+03</pdfrwt>
<totfact> 0.98935676E+03</totfact>
</mgrwt>
</event>
<event>
 5    1  0.3282421E-002  0.1249977E+03  0.7818608E-02  0.1235073E+00
          4   -1    0    0  501    0  0.00000000000E+00  0.00000000000E+00  0.31726529680E+02  0.31751938296E+02  0.12700000000E+01 0. -1.
         -4   -1    0    0    0  501 -0.00000000000E+00 -0.00000000000E+00 -0.12303997710E+03  0.12304653130E+03  0.12700000000E+01 0. -1.
         25    2    1    2    0    0  0.00000000000E+00  0.00000000000E+00 -0.91313447424E+02  0.15479846960E+03  0.12499768202E+03 0.  0.
    9000005    1    3    3    0    0  0.12051654412E+02 -0.55989032186E+02 -0.76619246279E+02  0.95663592864E+02  0.10000000000E+01 0.  0.
    9000005    1    3    3    0    0 -0.12051654412E+02  0.55989032186E+02 -0.14694201145E+02  0.59134876736E+02  0.10000000000E+01 0.  0.
<mgrwt>
<rscale>  0 0.12499768E+03</rscale>
<asrwt>0</asrwt>
<pdfrwt beam="1">  1        4 0.48834633E-02 0.12499768E+03</pdfrwt>
<pdfrwt beam="2">  1       -4 0.18931686E-01 0.12499768E+03</pdfrwt>
<totfact> 0.98360204E+03</totfact>
</mgrwt>
</event>
<event>
 5    1  0.3282421E-002  0.1249971E+03  0.7818608E-02  0.1235074E+00
         -4   -1    0    0    0  501 -0.00000000000E+00  0.00000000000E+00  0.36921562058E+02  0.36943397852E+02  0.12700000000E+01 0.  1.
          4   -1    0    0  501    0  0.00000000000E+00 -0.00000000000E+00 -0.10573671997E+03  0.10574434666E+03  0.12700000000E+01 0.  1.
         25    2    1    2    0    0  0.00000000000E+00  0.00000000000E+00 -0.68815157916E+02  0.14268774451E+03  0.12499706587E+03 0.  0.
    9000005    1    3    3    0    0  0.58525222341E+01  0.45872284400E+02  0.13571244187E+02  0.48204742105E+02  0.10000000000E+01 0.  0.
    9000005    1    3    3    0    0 -0.58525222341E+01 -0.45872284400E+02 -0.82386402104E+02  0.94483002409E+02  0.10000000000E+01 0.  0.
<mgrwt>
<rscale>  0 0.12499707E+03</rscale>
<asrwt>0</asrwt>
<pdfrwt beam="2">  1        4 0.16269454E-01 0.12499707E+03</pdfrwt>
<pdfrwt beam="1">  1       -4 0.56825067E-02 0.12499707E+03</pdfrwt>
<totfact> 0.10078848E+04</totfact>
</mgrwt>
</event>
<event>
 5    1  0.3282421E-002  0.1250010E+03  0.7818608E-02  0.1235068E+00
          4   -1    0    0  501    0  0.00000000000E+00  0.00000000000E+00  0.19937278589E+04  0.19937282634E+04  0.12700000000E+01 0. -1.
         -4   -1    0    0    0  501 -0.00000000000E+00 -0.00000000000E+00 -0.17530541766E+01  0.21647399257E+01  0.12700000000E+01 0. -1.
         25    2    1    2    0    0  0.00000000000E+00  0.00000000000E+00  0.19919748047E+04  0.19958930033E+04  0.12500103218E+03 0.  0.
    9000005    1    3    3    0    0  0.11177525524E+02 -0.38687126441E+02  0.17590174332E+04  0.17594786049E+04  0.10000000000E+01 0.  0.
    9000005    1    3    3    0    0 -0.11177525524E+02  0.38687126441E+02  0.23295737156E+03  0.23641439845E+03  0.10000000000E+01 0.  0.
<mgrwt>
<rscale>  0 0.12500103E+03</rscale>
<asrwt>0</asrwt>
<pdfrwt beam="1">  1        4 0.30675982E+00 0.12500103E+03</pdfrwt>
<pdfrwt beam="2">  1       -4 0.30139914E-03 0.12500103E+03</pdfrwt>
<totfact> 0.99146242E+02</totfact>
</mgrwt>
</event>
<event>
 5    1  0.3282421E-002  0.1249899E+03  0.7818608E-02  0.1235085E+00
          4   -1    0    0  501    0  0.00000000000E+00  0.00000000000E+00  0.10517388368E+03  0.10518155118E+03  0.12700000000E+01 0.  1.
         -4   -1    0    0    0  501 -0.00000000000E+00 -0.00000000000E+00 -0.37115007462E+02  0.37136729512E+02  0.12700000000E+01 0.  1.
         25    2    1    2    0    0  0.00000000000E+00  0.00000000000E+00  0.68058876218E+02  0.14231828069E+03  0.12498992914E+03 0.  0.
    9000005    1    3    3    0    0  0.17311351088E+02  0.20298127564E+02  0.98369272613E+02  0.10192747742E+03  0.10000000000E+01 0.  0.
    9000005    1    3    3    0    0 -0.17311351088E+02 -0.20298127564E+02 -0.30310396395E+02  0.40390803269E+02  0.10000000000E+01 0.  0.
<mgrwt>
<rscale>  0 0.12498993E+03</rscale>
<asrwt>0</asrwt>
<pdfrwt beam="1">  1        4 0.16182858E-01 0.12498993E+03</pdfrwt>
<pdfrwt beam="2">  1       -4 0.57122618E-02 0.12498993E+03</pdfrwt>
<totfact> 0.10088050E+04</totfact>
</mgrwt>
</event>
<event>
 5    1  0.3282421E-002  0.1250010E+03  0.7818608E-02  0.1235068E+00
         -4   -1    0    0    0  501 -0.00000000000E+00  0.00000000000E+00  0.18416156309E+02  0.18459894724E+02  0.12700000000E+01 0.  1.
          4   -1    0    0  501    0  0.00000000000E+00 -0.00000000000E+00 -0.21181623672E+03  0.21182004399E+03  0.12700000000E+01 0.  1.
         25    2    1    2    0    0  0.00000000000E+00  0.00000000000E+00 -0.19340008041E+03  0.23027993872E+03  0.12500103629E+03 0.  0.
    9000005    1    3    3    0    0 -0.37686576053E+02 -0.47242485047E+02 -0.12601308484E+03  0.13975846292E+03  0.10000000000E+01 0.  0.
    9000005    1    3    3    0    0  0.37686576053E+02  0.47242485047E+02 -0.67386995569E+02  0.90521475793E+02  0.10000000000E+01 0.  0.
<mgrwt>
<rscale>  0 0.12500104E+03</rscale>
<asrwt>0</asrwt>
<pdfrwt beam="2">  1        4 0.32590769E-01 0.12500104E+03</pdfrwt>
<pdfrwt beam="1">  1       -4 0.28369123E-02 0.12500104E+03</pdfrwt>
<totfact> 0.85264660E+03</totfact>
</mgrwt>
</event>
<event>
 5    1  0.3282421E-002  0.1250073E+03  0.7818608E-02  0.1235058E+00
          4   -1    0    0  501    0  0.00000000000E+00  0.00000000000E+00  0.29321460485E+02  0.29348951344E+02  0.12700000000E+01 0. -1.
         -4   -1    0    0    0  501 -0.00000000000E+00 -0.00000000000E+00 -0.13314406125E+03  0.13315011809E+03  0.12700000000E+01 0. -1.
         25    2    1    2    0    0  0.00000000000E+00  0.00000000000E+00 -0.10382260077E+03  0.16249906943E+03  0.12500726033E+03 0.  0.
    9000005    1    3    3    0    0  0.30239875193E+02  0.51968426345E+02 -0.29754047563E+02  0.67093000640E+02  0.10000000000E+01 0.  0.
    9000005    1    3    3    0    0 -0.30239875193E+02 -0.51968426345E+02 -0.74068553204E+02  0.95406068791E+02  0.10000000000E+01 0.  0.
<mgrwt>
<rscale>  0 0.12500726E+03</rscale>
<asrwt>0</asrwt>
<pdfrwt beam="1">  1        4 0.45135746E-02 0.12500726E+03</pdfrwt>
<pdfrwt beam="2">  1       -4 0.20486282E-01 0.12500726E+03</pdfrwt>
<totfact> 0.96847335E+03</totfact>
</mgrwt>
</event>
<event>
 5    1  0.3282421E-002  0.1250010E+03  0.7818608E-02  0.1235068E+00
          4   -1    0    0  501    0  0.00000000000E+00  0.00000000000E+00  0.17696487461E+03  0.17696943167E+03  0.12700000000E+01 0.  1.
         -4   -1    0    0    0  501 -0.00000000000E+00 -0.00000000000E+00 -0.22050813928E+02  0.22087355996E+02  0.12700000000E+01 0.  1.
         25    2    1    2    0    0  0.00000000000E+00  0.00000000000E+00  0.15491406068E+03  0.19905678767E+03  0.12500095407E+03 0.  0.
    9000005    1    3    3    0    0  0.39129156820E+02 -0.46686338309E+02  0.99671714250E+02  0.11681676130E+03  0.10000000000E+01 0.  0.
    9000005    1    3    3    0    0 -0.39129156820E+02  0.46686338309E+02  0.55242346433E+02  0.82240026371E+02  0.10000000000E+01 0.  0.
<mgrwt>
<rscale>  0 0.12500095E+03</rscale>
<asrwt>0</asrwt>
<pdfrwt beam="1">  1        4 0.27228527E-01 0.12500095E+03</pdfrwt>
<pdfrwt beam="2">  1       -4 0.33955943E-02 0.12500095E+03</pdfrwt>
<totfact> 0.90292902E+03</totfact>
</mgrwt>
</event>
<event>
 5    1  0.3282421E-002  0.1249991E+03  0.7818608E-02  0.1235071E+00
          4   -1    0    0  501    0  0.00000000000E+00  0.00000000000E+00  0.64645206350E+02  0.64657680163E+02  0.12700000000E+01 0.  1.
         -4   -1    0    0    0  501 -0.00000000000E+00 -0.00000000000E+00 -0.60400147363E+02  0.60413497676E+02  0.12700000000E+01 0.  1.
         25    2    1    2    0    0  0.00000000000E+00  0.00000000000E+00  0.42450589874E+01  0.12507117784E+03  0.12499911600E+03 0.  0.
    9000005    1    3    3    0    0 -0.30476378307E+02  0.52689964163E+02  0.16278222132E+02  0.63016049337E+02  0.10000000000E+01 0.  0.
    9000005    1    3    3    0    0  0.30476378307E+02 -0.52689964163E+02 -0.12033163145E+02  0.62055128503E+02  0.10000000000E+01 0.  0.
<mgrwt>
<rscale>  0 0.12499912E+03</rscale>
<asrwt>0</asrwt>
<pdfrwt beam="1">  1        4 0.99474029E-02 0.12499912E+03</pdfrwt>
<pdfrwt beam="2">  1       -4 0.92943168E-02 0.12499912E+03</pdfrwt>
<totfact> 0.10451526E+04</totfact>
</mgrwt>
</event>
<event>
 5    1  0.3282421E-002  0.1249983E+03  0.7818608E-02  0.1235072E+00
          4   -1    0    0  501    0  0.00000000000E+00  0.00000000000E+00  0.91789213684E+01  0.92663637683E+01  0.12700000000E+01 0.  1.
         -4   -1    0    0    0  501 -0.00000000000E+00 -0.00000000000E+00 -0.42345022653E+03  0.42345213100E+03  0.12700000000E+01 0.  1.
         25    2    1    2    0    0  0.00000000000E+00  0.00000000000E+00 -0.41427130516E+03  0.43271849476E+03  0.12499832572E+03 0.  0.
    9000005    1    3    3    0    0 -0.16515937286E+02  0.42462589098E+02 -0.59073705557E+02  0.74609318088E+02  0.10000000000E+01 0.  0.
    9000005    1    3    3    0    0  0.16515937286E+02 -0.42462589098E+02 -0.35519759960E+03  0.35810917668E+03  0.10000000000E+01 0.  0.
<mgrwt>
<rscale>  0 0.12499833E+03</rscale>
<asrwt>0</asrwt>
<pdfrwt beam="1">  1        4 0.14190149E-02 0.12499833E+03</pdfrwt>
<pdfrwt beam="2">  1       -4 0.65153047E-01 0.12499833E+03</pdfrwt>
<totfact> 0.61492624E+03</totfact>
</mgrwt>
</event>
<event>
 5    1  0.3282421E-002  0.1250061E+03  0.7818608E-02  0.1235060E+00
         -4   -1    0    0    0  501 -0.00000000000E+00  0.00000000000E+00  0.16835740971E+04  0.16835745761E+04  0.12700000000E+01 0.  1.
          4   -1    0    0  501    0  0.00000000000E+00 -0.00000000000E+00 -0.21461548928E+01  0.24937683982E+01  0.12700000000E+01 0.  1.
         25    2    1    2    0    0  0.00000000000E+00  0.00000000000E+00  0.16814279422E+04  0.16860683445E+04  0.12500614993E+03 0.  0.
    9000005    1    3    3    0    0  0.54632975774E+02  0.25562200716E+02  0.62013605098E+03  0.62306332734E+03  0.10000000000E+01 0.  0.
    9000005    1    3    3    0    0 -0.54632975774E+02 -0.25562200716E+02  0.10612918912E+04  0.10630050171E+04  0.10000000000E+01 0.  0.
<mgrwt>
<rscale>  0 0.12500615E+03</rscale>
<asrwt>0</asrwt>
<pdfrwt beam="2">  1        4 0.35695482E-03 0.12500615E+03</pdfrwt>
<pdfrwt beam="1">  1       -4 0.25903760E+00 0.12500615E+03</pdfrwt>
<totfact> 0.14539783E+03</totfact>
</mgrwt>
</event>
<event>
 5    1  0.3282421E-002  0.1249796E+03  0.7818608E-02  0.1235101E+00
          4   -1    0    0  501    0  0.00000000000E+00  0.00000000000E+00  0.25152292535E+03  0.25152613160E+03  0.12700000000E+01 0. -1.
         -4   -1    0    0    0  501 -0.00000000000E+00 -0.00000000000E+00 -0.15496044121E+02  0.15547999338E+02  0.12700000000E+01 0. -1.
         25    2    1    2    0    0  0.00000000000E+00  0.00000000000E+00  0.23602688123E+03  0.26707413094E+03  0.12497960935E+03 0.  0.
    9000005    1    3    3    0    0 -0.30016436225E+01 -0.22417024531E+02  0.24247892401E+03  0.24353349141E+03  0.10000000000E+01 0.  0.
    9000005    1    3    3    0    0  0.30016436225E+01  0.22417024531E+02 -0.64520427739E+01  0.23540639524E+02  0.10000000000E+01 0.  0.
<mgrwt>
<rscale>  0 0.12497961E+03</rscale>
<asrwt>0</asrwt>
<pdfrwt beam="1">  1        4 0.38700078E-01 0.12497961E+03</pdfrwt>
<pdfrwt beam="2">  1       -4 0.23882500E-02 0.12497961E+03</pdfrwt>
<totfact> 0.79959712E+03</totfact>
</mgrwt>
</event>
<event>
 5    1  0.3282421E-002  0.1250004E+03  0.7818608E-02  0.1235069E+00
          4   -1    0    0  501    0  0.00000000000E+00  0.00000000000E+00  0.21446296882E+02  0.21483867202E+02  0.12700000000E+01 0. -1.
         -4   -1    0    0    0  501 -0.00000000000E+00 -0.00000000000E+00 -0.18194305109E+03  0.18194748346E+03  0.12700000000E+01 0. -1.
         25    2    1    2    0    0  0.00000000000E+00  0.00000000000E+00 -0.16049675420E+03  0.20343135067E+03  0.12500042529E+03 0.  0.
    9000005    1    3    3    0    0 -0.33557982407E+02  0.38693916431E+02 -0.21979490063E+02  0.55744554312E+02  0.10000000000E+01 0.  0.
    9000005    1    3    3    0    0  0.33557982407E+02 -0.38693916431E+02 -0.13851726414E+03  0.14768679635E+03  0.10000000000E+01 0.  0.
<mgrwt>
<rscale>  0 0.12500043E+03</rscale>
<asrwt>0</asrwt>
<pdfrwt beam="1">  1        4 0.33026614E-02 0.12500043E+03</pdfrwt>
<pdfrwt beam="2">  1       -4 0.27994469E-01 0.12500043E+03</pdfrwt>
<totfact> 0.89559139E+03</totfact>
</mgrwt>
</event>
<event>
 5    1  0.3282421E-002  0.1250021E+03  0.7818608E-02  0.1235066E+00
          4   -1    0    0  501    0  0.00000000000E+00  0.00000000000E+00  0.13417459199E+02  0.13477429701E+02  0.12700000000E+01 0.  1.
         -4   -1    0    0    0  501 -0.00000000000E+00 -0.00000000000E+00 -0.29043111804E+03  0.29043389476E+03  0.12700000000E+01 0.  1.
         25    2    1    2    0    0  0.00000000000E+00  0.00000000000E+00 -0.27701365884E+03  0.30391132446E+03  0.12500210379E+03 0.  0.
    9000005    1    3    3    0    0  0.23188822281E+02 -0.14369969701E+02 -0.18116896732E+01  0.27358723060E+02  0.10000000000E+01 0.  0.
    9000005    1    3    3    0    0 -0.23188822281E+02  0.14369969701E+02 -0.27520196917E+03  0.27655260140E+03  0.10000000000E+01 0.  0.
<mgrwt>
<rscale>  0 0.12500210E+03</rscale>
<asrwt>0</asrwt>
<pdfrwt beam="1">  1        4 0.20690514E-02 0.12500210E+03</pdfrwt>
<pdfrwt beam="2">  1       -4 0.44686533E-01 0.12500210E+03</pdfrwt>
<totfact> 0.75107309E+03</totfact>
</mgrwt>
</event>
<event>
 5    1  0.3282421E-002  0.1249991E+03  0.7818608E-02  0.1235071E+00
          4   -1    0    0  501    0  0.00000000000E+00  0.00000000000E+00  0.96657515539E+02  0.96665858555E+02  0.12700000000E+01 0. -1.
         -4   -1    0    0    0  501 -0.00000000000E+00 -0.00000000000E+00 -0.40392638380E+02  0.40412598720E+02  0.12700000000E+01 0. -1.
         25    2    1    2    0    0  0.00000000000E+00  0.00000000000E+00  0.56264877159E+02  0.13707845728E+03  0.12499906819E+03 0.  0.
    9000005    1    3    3    0    0  0.29589471875E+02 -0.18260656333E+02 -0.28810352991E+02  0.45166634311E+02  0.10000000000E+01 0.  0.
    9000005    1    3    3    0    0 -0.29589471875E+02  0.18260656333E+02  0.85075230150E+02  0.91911822964E+02  0.10000000000E+01 0.  0.
<mgrwt>
<rscale>  0 0.12499907E+03</rscale>
<asrwt>0</asrwt>
<pdfrwt beam="1">  1        4 0.14872564E-01 0.12499907E+03</pdfrwt>
<pdfrwt beam="2">  1       -4 0.62164292E-02 0.12499907E+03</pdfrwt>
<totfact> 0.10194660E+04</totfact>
</mgrwt>
</event>
<event>
 5    1  0.3282421E-002  0.1249999E+03  0.7818608E-02  0.1235069E+00
         -4   -1    0    0    0  501 -0.00000000000E+00  0.00000000000E+00  0.22174728539E+02  0.22211066741E+02  0.12700000000E+01 0.  1.
          4   -1    0    0  501    0  0.00000000000E+00 -0.00000000000E+00 -0.17597456186E+03  0.17597914457E+03  0.12700000000E+01 0.  1.
         25    2    1    2    0    0  0.00000000000E+00  0.00000000000E+00 -0.15379983332E+03  0.19819021131E+03  0.12499988451E+03 0.  0.
    9000005    1    3    3    0    0  0.51286120710E+01 -0.80654618121E+01 -0.17481657463E+03  0.17508052176E+03  0.10000000000E+01 0.  0.
    9000005    1    3    3    0    0 -0.51286120710E+01  0.80654618121E+01  0.21016741303E+02  0.23109689548E+02  0.10000000000E+01 0.  0.
<mgrwt>
<rscale>  0 0.12499988E+03</rscale>
<asrwt>0</asrwt>
<pdfrwt beam="2">  1        4 0.27076156E-01 0.12499988E+03</pdfrwt>
<pdfrwt beam="1">  1       -4 0.34146446E-02 0.12499988E+03</pdfrwt>
<totfact> 0.90441684E+03</totfact>
</mgrwt>
</event>
<event>
 5    1  0.3282421E-002  0.1250055E+03  0.7818608E-02  0.1235061E+00
         -4   -1    0    0    0  501 -0.00000000000E+00  0.00000000000E+00  0.38618991273E+03  0.38619200094E+03  0.12700000000E+01 0.  1.
          4   -1    0    0  501    0  0.00000000000E+00 -0.00000000000E+00 -0.10073742288E+02  0.10153481358E+02  0.12700000000E+01 0.  1.
         25    2    1    2    0    0  0.00000000000E+00  0.00000000000E+00  0.37611617044E+03  0.39634548230E+03  0.12500547058E+03 0.  0.
    9000005    1    3    3    0    0 -0.23158019525E+02  0.33400373506E+02  0.37538085961E+02  0.55335221300E+02  0.10000000000E+01 0.  0.
    9000005    1    3    3    0    0  0.23158019525E+02 -0.33400373506E+02  0.33857808448E+03  0.34101026100E+03  0.10000000000E+01 0.  0.
<mgrwt>
<rscale>  0 0.12500547E+03</rscale>
<asrwt>0</asrwt>
<pdfrwt beam="2">  1        4 0.15561011E-02 0.12500547E+03</pdfrwt>
<pdfrwt beam="1">  1       -4 0.59420119E-01 0.12500547E+03</pdfrwt>
<totfact> 0.64901945E+03</totfact>
</mgrwt>
</event>
<event>
 5    1  0.3282421E-002  0.1249986E+03  0.7818608E-02  0.1235071E+00
         -4   -1    0    0    0  501 -0.00000000000E+00  0.00000000000E+00  0.12838814125E+02  0.12901474649E+02  0.12700000000E+01 0. -1.
          4   -1    0    0  501    0  0.00000000000E+00 -0.00000000000E+00 -0.30344197025E+03  0.30344462791E+03  0.12700000000E+01 0. -1.
         25    2    1    2    0    0  0.00000000000E+00  0.00000000000E+00 -0.29060315612E+03  0.31634610256E+03  0.12499864902E+03 0.  0.
    9000005    1    3    3    0    0  0.27450174149E+02  0.17860424875E+02 -0.10605702894E+02  0.34438173171E+02  0.10000000000E+01 0.  0.
    9000005    1    3    3    0    0 -0.27450174149E+02 -0.17860424875E+02 -0.27999745323E+03  0.28190792939E+03  0.10000000000E+01 0.  0.
<mgrwt>
<rscale>  0 0.12499865E+03</rscale>
<asrwt>0</asrwt>
<pdfrwt beam="2">  1        4 0.46688399E-01 0.12499865E+03</pdfrwt>
<pdfrwt beam="1">  1       -4 0.19802269E-02 0.12499865E+03</pdfrwt>
<totfact> 0.73595032E+03</totfact>
</mgrwt>
</event>
<event>
 5    1  0.3282421E-002  0.1249990E+03  0.7818608E-02  0.1235071E+00
          4   -1    0    0  501    0  0.00000000000E+00  0.00000000000E+00  0.79358059334E+01  0.80367851665E+01  0.12700000000E+01 0. -1.
         -4   -1    0    0    0  501 -0.00000000000E+00 -0.00000000000E+00 -0.48900960564E+03  0.48901125479E+03  0.12700000000E+01 0. -1.
         25    2    1    2    0    0  0.00000000000E+00  0.00000000000E+00 -0.48107379971E+03  0.49704803995E+03  0.12499901303E+03 0.  0.
    9000005    1    3    3    0    0  0.42878669323E+02  0.43381583547E+02 -0.18650353464E+03  0.19622719105E+03  0.10000000000E+01 0.  0.
    9000005    1    3    3    0    0 -0.42878669323E+02 -0.43381583547E+02 -0.29457026506E+03  0.30082084890E+03  0.10000000000E+01 0.  0.
<mgrwt>
<rscale>  0 0.12499901E+03</rscale>
<asrwt>0</asrwt>
<pdfrwt beam="1">  1        4 0.12287881E-02 0.12499901E+03</pdfrwt>
<pdfrwt beam="2">  1       -4 0.75240118E-01 0.12499901E+03</pdfrwt>
<totfact> 0.56095359E+03</totfact>
</mgrwt>
</event>
<event>
 5    1  0.3282421E-002  0.1249963E+03  0.7818608E-02  0.1235075E+00
         -4   -1    0    0    0  501 -0.00000000000E+00  0.00000000000E+00  0.44629663883E+02  0.44647730046E+02  0.12700000000E+01 0.  1.
          4   -1    0    0  501    0  0.00000000000E+00 -0.00000000000E+00 -0.87480338506E+02  0.87489556663E+02  0.12700000000E+01 0.  1.
         25    2    1    2    0    0  0.00000000000E+00  0.00000000000E+00 -0.42850674623E+02  0.13213728671E+03  0.12499632884E+03 0.  0.
    9000005    1    3    3    0    0 -0.31990765981E+01  0.11977868128E+01  0.44536075529E+02  0.44678079724E+02  0.10000000000E+01 0.  0.
    9000005    1    3    3    0    0  0.31990765981E+01 -0.11977868128E+01 -0.87386750152E+02  0.87459206985E+02  0.10000000000E+01 0.  0.
<mgrwt>
<rscale>  0 0.12499633E+03</rscale>
<asrwt>0</asrwt>
<pdfrwt beam="2">  1        4 0.13460612E-01 0.12499633E+03</pdfrwt>
<pdfrwt beam="1">  1       -4 0.68682009E-02 0.12499633E+03</pdfrwt>
<totfact> 0.10299622E+04</totfact>
</mgrwt>
</event>
<event>
 5    1  0.3282421E-002  0.1249997E+03  0.7818608E-02  0.1235070E+00
         -4   -1    0    0    0  501 -0.00000000000E+00  0.00000000000E+00  0.12886841648E+03  0.12887467426E+03  0.12700000000E+01 0. -1.
          4   -1    0    0  501    0  0.00000000000E+00 -0.00000000000E+00 -0.30291493990E+02  0.30318105286E+02  0.12700000000E+01 0. -1.
         25    2    1    2    0    0  0.00000000000E+00  0.00000000000E+00  0.98576922493E+02  0.15919277955E+03  0.12499972565E+03 0.  0.
    9000005    1    3    3    0    0 -0.10177182968E+01 -0.50110542814E+02  0.17538198488E+01  0.50161520468E+02  0.10000000000E+01 0.  0.
    9000005    1    3    3    0    0  0.10177182968E+01  0.50110542814E+02  0.96823102644E+02  0.10903125908E+03  0.10000000000E+01 0.  0.
<mgrwt>
<rscale>  0 0.12499973E+03</rscale>
<asrwt>0</asrwt>
<pdfrwt beam="2">  1        4 0.46627582E-02 0.12499973E+03</pdfrwt>
<pdfrwt beam="1">  1       -4 0.19828439E-01 0.12499973E+03</pdfrwt>
<totfact> 0.97499238E+03</totfact>
</mgrwt>
</event>
<event>
 5    1  0.3282421E-002  0.1250022E+03  0.7818608E-02  0.1235066E+00
         -4   -1    0    0    0  501 -0.00000000000E+00  0.00000000000E+00  0.16665631663E+04  0.16665636502E+04  0.12700000000E+01 0. -1.
          4   -1    0    0  501    0  0.00000000000E+00 -0.00000000000E+00 -0.21714339286E+01  0.25155566594E+01  0.12700000000E+01 0. -1.
         25    2    1    2    0    0  0.00000000000E+00  0.00000000000E+00  0.16643917324E+04  0.16690792069E+04  0.12500223992E+03 0.  0.
    9000005    1    3    3    0    0  0.37481687071E+02 -0.10649377264E+02  0.14845671144E+04  0.14850787196E+04  0.10000000000E+01 0.  0.
    9000005    1    3    3    0    0 -0.37481687071E+02  0.10649377264E+02  0.17982461800E+03  0.18400048733E+03  0.10000000000E+01 0.  0.
<mgrwt>
<rscale>  0 0.12500224E+03</rscale>
<asrwt>0</asrwt>
<pdfrwt beam="2">  1        4 0.36057565E-03 0.12500224E+03</pdfrwt>
<pdfrwt beam="1">  1       -4 0.25642035E+00 0.12500224E+03</pdfrwt>
<totfact> 0.14829698E+03</totfact>
</mgrwt>
</event>
<event>
 5    1  0.3282421E-002  0.1250066E+03  0.7818608E-02  0.1235059E+00
          4   -1    0    0  501    0  0.00000000000E+00  0.00000000000E+00  0.13536970693E+02  0.13596414070E+02  0.12700000000E+01 0.  1.
         -4   -1    0    0    0  501 -0.00000000000E+00 -0.00000000000E+00 -0.28789896057E+03  0.28790176171E+03  0.12700000000E+01 0.  1.
         25    2    1    2    0    0  0.00000000000E+00  0.00000000000E+00 -0.27436198988E+03  0.30149817578E+03  0.12500659387E+03 0.  0.
    9000005    1    3    3    0    0  0.89391304333E+01 -0.27826499517E+02 -0.27041165648E+03  0.27198839330E+03  0.10000000000E+01 0.  0.
    9000005    1    3    3    0    0 -0.89391304333E+01  0.27826499517E+02 -0.39503333947E+01  0.29509782483E+02  0.10000000000E+01 0.  0.
<mgrwt>
<rscale>  0 0.12500659E+03</rscale>
<asrwt>0</asrwt>
<pdfrwt beam="1">  1        4 0.20873991E-02 0.12500659E+03</pdfrwt>
<pdfrwt beam="2">  1       -4 0.44296931E-01 0.12500659E+03</pdfrwt>
<totfact> 0.75400259E+03</totfact>
</mgrwt>
</event>
<event>
 5    1  0.3282421E-002  0.1249994E+03  0.7818608E-02  0.1235070E+00
         -4   -1    0    0    0  501 -0.00000000000E+00  0.00000000000E+00  0.71700023277E+02  0.71711269951E+02  0.12700000000E+01 0.  1.
          4   -1    0    0  501    0  0.00000000000E+00 -0.00000000000E+00 -0.54457012897E+02  0.54471819812E+02  0.12700000000E+01 0.  1.
         25    2    1    2    0    0  0.00000000000E+00  0.00000000000E+00  0.17243010380E+02  0.12618308976E+03  0.12499940294E+03 0.  0.
    9000005    1    3    3    0    0  0.27407213440E+02 -0.36992980776E+02  0.51277735739E+02  0.68920549604E+02  0.10000000000E+01 0.  0.
    9000005    1    3    3    0    0 -0.27407213440E+02  0.36992980776E+02 -0.34034725359E+02  0.57262540159E+02  0.10000000000E+01 0.  0.
<mgrwt>
<rscale>  0 0.12499940E+03</rscale>
<asrwt>0</asrwt>
<pdfrwt beam="2">  1        4 0.83800061E-02 0.12499940E+03</pdfrwt>
<pdfrwt beam="1">  1       -4 0.11032777E-01 0.12499940E+03</pdfrwt>
<totfact> 0.10427089E+04</totfact>
</mgrwt>
</event>
<event>
 5    1  0.3282421E-002  0.1250308E+03  0.7818608E-02  0.1235021E+00
          4   -1    0    0  501    0  0.00000000000E+00  0.00000000000E+00  0.50088625949E+01  0.51673595283E+01  0.12700000000E+01 0. -1.
         -4   -1    0    0    0  501 -0.00000000000E+00 -0.00000000000E+00 -0.76793990098E+03  0.76794095112E+03  0.12700000000E+01 0. -1.
         25    2    1    2    0    0  0.00000000000E+00  0.00000000000E+00 -0.76293103838E+03  0.77310831065E+03  0.12503075890E+03 0.  0.
    9000005    1    3    3    0    0 -0.52442628684E+02  0.28201435011E+02 -0.26388072767E+03  0.27051726132E+03  0.10000000000E+01 0.  0.
    9000005    1    3    3    0    0  0.52442628684E+02 -0.28201435011E+02 -0.49905031072E+03  0.50259104933E+03  0.10000000000E+01 0.  0.
<mgrwt>
<rscale>  0 0.12503076E+03</rscale>
<asrwt>0</asrwt>
<pdfrwt beam="1">  1        4 0.78286771E-03 0.12503076E+03</pdfrwt>
<pdfrwt beam="2">  1       -4 0.11815678E+00 0.12503076E+03</pdfrwt>
<totfact> 0.39465965E+03</totfact>
</mgrwt>
</event>
<event>
 5    1  0.3282421E-002  0.1250014E+03  0.7818608E-02  0.1235067E+00
          4   -1    0    0  501    0  0.00000000000E+00  0.00000000000E+00  0.18399220526E+02  0.18442999104E+02  0.12700000000E+01 0. -1.
         -4   -1    0    0    0  501 -0.00000000000E+00 -0.00000000000E+00 -0.21201203630E+03  0.21201584006E+03  0.12700000000E+01 0. -1.
         25    2    1    2    0    0  0.00000000000E+00  0.00000000000E+00 -0.19361281577E+03  0.23045883916E+03  0.12500141646E+03 0.  0.
    9000005    1    3    3    0    0 -0.96069074735E+01  0.57177599849E+01  0.16549619584E+02  0.19996883728E+02  0.10000000000E+01 0.  0.
    9000005    1    3    3    0    0  0.96069074735E+01 -0.57177599849E+01 -0.21016243535E+03  0.21046195543E+03  0.10000000000E+01 0.  0.
<mgrwt>
<rscale>  0 0.12500142E+03</rscale>
<asrwt>0</asrwt>
<pdfrwt beam="1">  1        4 0.28343097E-02 0.12500142E+03</pdfrwt>
<pdfrwt beam="2">  1       -4 0.32620895E-01 0.12500142E+03</pdfrwt>
<totfact> 0.85236499E+03</totfact>
</mgrwt>
</event>
<event>
 5    1  0.3282421E-002  0.1249910E+03  0.7818608E-02  0.1235083E+00
         -4   -1    0    0    0  501 -0.00000000000E+00  0.00000000000E+00  0.10238357636E+03  0.10239145281E+03  0.12700000000E+01 0.  1.
          4   -1    0    0  501    0  0.00000000000E+00 -0.00000000000E+00 -0.38127654401E+02  0.38148799851E+02  0.12700000000E+01 0.  1.
         25    2    1    2    0    0  0.00000000000E+00  0.00000000000E+00  0.64255921962E+02  0.14054025266E+03  0.12499095612E+03 0.  0.
    9000005    1    3    3    0    0  0.30928753384E+02  0.53166245264E+02  0.44519241041E+02  0.75935500553E+02  0.10000000000E+01 0.  0.
    9000005    1    3    3    0    0 -0.30928753384E+02 -0.53166245264E+02  0.19736680922E+02  0.64604752110E+02  0.10000000000E+01 0.  0.
<mgrwt>
<rscale>  0 0.12499096E+03</rscale>
<asrwt>0</asrwt>
<pdfrwt beam="2">  1        4 0.58680256E-02 0.12499096E+03</pdfrwt>
<pdfrwt beam="1">  1       -4 0.15753551E-01 0.12499096E+03</pdfrwt>
<totfact> 0.10124464E+04</totfact>
</mgrwt>
</event>
<event>
 5    1  0.3282421E-002  0.1250013E+03  0.7818608E-02  0.1235067E+00
         -4   -1    0    0    0  501 -0.00000000000E+00  0.00000000000E+00  0.56478372426E+02  0.56492649538E+02  0.12700000000E+01 0. -1.
          4   -1    0    0  501    0  0.00000000000E+00 -0.00000000000E+00 -0.69136203181E+02  0.69147866853E+02  0.12700000000E+01 0. -1.
         25    2    1    2    0    0  0.00000000000E+00  0.00000000000E+00 -0.12657830755E+02  0.12564051639E+03  0.12500127471E+03 0.  0.
    9000005    1    3    3    0    0 -0.30551764865E+01 -0.15318899147E+01 -0.69047126624E+02  0.69138892710E+02  0.10000000000E+01 0.  0.
    9000005    1    3    3    0    0  0.30551764865E+01  0.15318899147E+01  0.56389295869E+02  0.56501623682E+02  0.10000000000E+01 0.  0.
<mgrwt>
<rscale>  0 0.12500127E+03</rscale>
<asrwt>0</asrwt>
<pdfrwt beam="2">  1        4 0.10638334E-01 0.12500127E+03</pdfrwt>
<pdfrwt beam="1">  1       -4 0.86909758E-02 0.12500127E+03</pdfrwt>
<totfact> 0.10438554E+04</totfact>
</mgrwt>
</event>
<event>
 5    1  0.3282421E-002  0.1249987E+03  0.7818608E-02  0.1235071E+00
         -4   -1    0    0    0  501 -0.00000000000E+00  0.00000000000E+00  0.13504744497E+02  0.13564329099E+02  0.12700000000E+01 0.  1.
          4   -1    0    0  501    0  0.00000000000E+00 -0.00000000000E+00 -0.28854630930E+03  0.28854910416E+03  0.12700000000E+01 0.  1.
         25    2    1    2    0    0  0.00000000000E+00  0.00000000000E+00 -0.27504156480E+03  0.30211343325E+03  0.12499865673E+03 0.  0.
    9000005    1    3    3    0    0  0.38004470861E+02 -0.17714883126E+02 -0.25530165073E+02  0.49101387132E+02  0.10000000000E+01 0.  0.
    9000005    1    3    3    0    0 -0.38004470861E+02  0.17714883126E+02 -0.24951139973E+03  0.25301204612E+03  0.10000000000E+01 0.  0.
<mgrwt>
<rscale>  0 0.12499866E+03</rscale>
<asrwt>0</asrwt>
<pdfrwt beam="2">  1        4 0.44396534E-01 0.12499866E+03</pdfrwt>
<pdfrwt beam="1">  1       -4 0.20824516E-02 0.12499866E+03</pdfrwt>
<totfact> 0.75336744E+03</totfact>
</mgrwt>
</event>
<event>
 5    1  0.3282421E-002  0.1250053E+03  0.7818608E-02  0.1235061E+00
         -4   -1    0    0    0  501 -0.00000000000E+00  0.00000000000E+00  0.62440798285E+02  0.62453712383E+02  0.12700000000E+01 0.  1.
          4   -1    0    0  501    0  0.00000000000E+00 -0.00000000000E+00 -0.62538720838E+02  0.62551614720E+02  0.12700000000E+01 0.  1.
         25    2    1    2    0    0  0.00000000000E+00  0.00000000000E+00 -0.97922553486E-01  0.12500532710E+03  0.12500528875E+03 0.  0.
    9000005    1    3    3    0    0  0.32112266216E+02 -0.50779665073E+02 -0.17248051627E+02  0.62516136408E+02  0.10000000000E+01 0.  0.
    9000005    1    3    3    0    0 -0.32112266216E+02  0.50779665073E+02  0.17150129074E+02  0.62489190695E+02  0.10000000000E+01 0.  0.
<mgrwt>
<rscale>  0 0.12500529E+03</rscale>
<asrwt>0</asrwt>
<pdfrwt beam="2">  1        4 0.96233269E-02 0.12500529E+03</pdfrwt>
<pdfrwt beam="1">  1       -4 0.96082619E-02 0.12500529E+03</pdfrwt>
<totfact> 0.10451497E+04</totfact>
</mgrwt>
</event>
<event>
 5    1  0.3282421E-002  0.1249960E+03  0.7818608E-02  0.1235076E+00
         -4   -1    0    0    0  501 -0.00000000000E+00  0.00000000000E+00  0.48904220249E+02  0.48920707867E+02  0.12700000000E+01 0. -1.
          4   -1    0    0  501    0  0.00000000000E+00 -0.00000000000E+00 -0.79835424773E+02  0.79845525540E+02  0.12700000000E+01 0. -1.
         25    2    1    2    0    0  0.00000000000E+00  0.00000000000E+00 -0.30931204524E+02  0.12876623341E+03  0.12499601375E+03 0.  0.
    9000005    1    3    3    0    0 -0.22862698519E+02 -0.27925933906E+02 -0.68018443361E+02  0.77006943877E+02  0.10000000000E+01 0.  0.
    9000005    1    3    3    0    0  0.22862698519E+02  0.27925933906E+02  0.37087238837E+02  0.51759289529E+02  0.10000000000E+01 0.  0.
<mgrwt>
<rscale>  0 0.12499601E+03</rscale>
<asrwt>0</asrwt>
<pdfrwt beam="2">  1        4 0.12284418E-01 0.12499601E+03</pdfrwt>
<pdfrwt beam="1">  1       -4 0.75257715E-02 0.12499601E+03</pdfrwt>
<totfact> 0.10371906E+04</totfact>
</mgrwt>
</event>
<event>
 5    1  0.3282421E-002  0.1249996E+03  0.7818608E-02  0.1235070E+00
         -4   -1    0    0    0  501 -0.00000000000E+00  0.00000000000E+00  0.12276865301E+04  0.12276871870E+04  0.12700000000E+01 0. -1.
          4   -1    0    0  501    0  0.00000000000E+00 -0.00000000000E+00 -0.30543644274E+01  0.33078757617E+01  0.12700000000E+01 0. -1.
         25    2    1    2    0    0  0.00000000000E+00  0.00000000000E+00  0.12246321656E+04  0.12309950627E+04  0.12499961323E+03 0.  0.
    9000005    1    3    3    0    0 -0.42967565747E+01  0.15684179423E+02  0.12065319949E+04  0.12066419975E+04  0.10000000000E+01 0.  0.
    9000005    1    3    3    0    0  0.42967565747E+01 -0.15684179423E+02  0.18100170778E+02  0.24353065175E+02  0.10000000000E+01 0.  0.
<mgrwt>
<rscale>  0 0.12499961E+03</rscale>
<asrwt>0</asrwt>
<pdfrwt beam="2">  1        4 0.48945431E-03 0.12499961E+03</pdfrwt>
<pdfrwt beam="1">  1       -4 0.18889414E+00 0.12499961E+03</pdfrwt>
<totfact> 0.23915818E+03</totfact>
</mgrwt>
</event>
<event>
 5    1  0.3282421E-002  0.1250057E+03  0.7818608E-02  0.1235060E+00
         -4   -1    0    0    0  501 -0.00000000000E+00  0.00000000000E+00  0.26177011076E+02  0.26207800535E+02  0.12700000000E+01 0. -1.
          4   -1    0    0  501    0  0.00000000000E+00 -0.00000000000E+00 -0.14911689259E+03  0.14912230066E+03  0.12700000000E+01 0. -1.
         25    2    1    2    0    0  0.00000000000E+00  0.00000000000E+00 -0.12293988151E+03  0.17533010120E+03  0.12500571955E+03 0.  0.
    9000005    1    3    3    0    0  0.61524083163E+02  0.10962562609E+02 -0.60816737673E+02  0.87207030504E+02  0.10000000000E+01 0.  0.
    9000005    1    3    3    0    0 -0.61524083163E+02 -0.10962562609E+02 -0.62123143836E+02  0.88123070692E+02  0.10000000000E+01 0.  0.
<mgrwt>
<rscale>  0 0.12500572E+03</rscale>
<asrwt>0</asrwt>
<pdfrwt beam="2">  1        4 0.22943844E-01 0.12500572E+03</pdfrwt>
<pdfrwt beam="1">  1       -4 0.40300170E-02 0.12500572E+03</pdfrwt>
<totfact> 0.94452299E+03</totfact>
</mgrwt>
</event>
<event>
 5    1  0.3282421E-002  0.1249957E+03  0.7818608E-02  0.1235076E+00
          4   -1    0    0  501    0  0.00000000000E+00  0.00000000000E+00  0.71211937290E+01  0.72335537687E+01  0.12700000000E+01 0.  1.
         -4   -1    0    0    0  501 -0.00000000000E+00 -0.00000000000E+00 -0.54409412323E+03  0.54409560542E+03  0.12700000000E+01 0.  1.
         25    2    1    2    0    0  0.00000000000E+00  0.00000000000E+00 -0.53697292950E+03  0.55132915919E+03  0.12499565893E+03 0.  0.
    9000005    1    3    3    0    0 -0.85992792609E+01  0.23424521196E+01 -0.54129793930E+03  0.54137223218E+03  0.10000000000E+01 0.  0.
    9000005    1    3    3    0    0  0.85992792609E+01 -0.23424521196E+01  0.43250097945E+01  0.99569270090E+01  0.10000000000E+01 0.  0.
<mgrwt>
<rscale>  0 0.12499566E+03</rscale>
<asrwt>0</asrwt>
<pdfrwt beam="1">  1        4 0.11043258E-02 0.12499566E+03</pdfrwt>
<pdfrwt beam="2">  1       -4 0.83715513E-01 0.12499566E+03</pdfrwt>
<totfact> 0.52096391E+03</totfact>
</mgrwt>
</event>
<event>
 5    1  0.3282421E-002  0.1250013E+03  0.7818608E-02  0.1235067E+00
          4   -1    0    0  501    0  0.00000000000E+00  0.00000000000E+00  0.12240404888E+04  0.12240411477E+04  0.12700000000E+01 0.  1.
         -4   -1    0    0    0  501 -0.00000000000E+00 -0.00000000000E+00 -0.30643045452E+01  0.33170562772E+01  0.12700000000E+01 0.  1.
         25    2    1    2    0    0  0.00000000000E+00  0.00000000000E+00  0.12209761843E+04  0.12273582040E+04  0.12500127284E+03 0.  0.
    9000005    1    3    3    0    0 -0.21002015705E+02 -0.19669075805E+02  0.65801207679E+02  0.71824481472E+02  0.10000000000E+01 0.  0.
    9000005    1    3    3    0    0  0.21002015705E+02  0.19669075805E+02  0.11551749766E+04  0.11555337225E+04  0.10000000000E+01 0.  0.
<mgrwt>
<rscale>  0 0.12500127E+03</rscale>
<asrwt>0</asrwt>
<pdfrwt beam="1">  1        4 0.18833310E+00 0.12500127E+03</pdfrwt>
<pdfrwt beam="2">  1       -4 0.49092541E-03 0.12500127E+03</pdfrwt>
<totfact> 0.24007064E+03</totfact>
</mgrwt>
</event>
<event>
 5    1  0.3282421E-002  0.1249983E+03  0.7818608E-02  0.1235072E+00
         -4   -1    0    0    0  501 -0.00000000000E+00  0.00000000000E+00  0.61469154996E+01  0.62767404087E+01  0.12700000000E+01 0.  1.
          4   -1    0    0  501    0  0.00000000000E+00 -0.00000000000E+00 -0.62869272953E+03  0.62869401227E+03  0.12700000000E+01 0.  1.
         25    2    1    2    0    0  0.00000000000E+00  0.00000000000E+00 -0.62254581403E+03  0.63497075268E+03  0.12499826475E+03 0.  0.
    9000005    1    3    3    0    0  0.26264045897E+02 -0.56444447418E+02 -0.28374516251E+03  0.29049628741E+03  0.10000000000E+01 0.  0.
    9000005    1    3    3    0    0 -0.26264045897E+02  0.56444447418E+02 -0.33880065152E+03  0.34447446527E+03  0.10000000000E+01 0.  0.
<mgrwt>
<rscale>  0 0.12499826E+03</rscale>
<asrwt>0</asrwt>
<pdfrwt beam="2">  1        4 0.96731993E-01 0.12499826E+03</pdfrwt>
<pdfrwt beam="1">  1       -4 0.95576501E-03 0.12499826E+03</pdfrwt>
<totfact> 0.46733828E+03</totfact>
</mgrwt>
</event>
<event>
 5    1  0.3282421E-002  0.1250021E+03  0.7818608E-02  0.1235066E+00
          4   -1    0    0  501    0  0.00000000000E+00  0.00000000000E+00  0.22742734724E+02  0.22778166799E+02  0.12700000000E+01 0.  1.
         -4   -1    0    0    0  501 -0.00000000000E+00 -0.00000000000E+00 -0.17159247918E+03  0.17159717891E+03  0.12700000000E+01 0.  1.
         25    2    1    2    0    0  0.00000000000E+00  0.00000000000E+00 -0.14884974446E+03  0.19437534571E+03  0.12500211437E+03 0.  0.
    9000005    1    3    3    0    0  0.49711858801E+02  0.23354504943E+02 -0.12077987450E+03  0.13268564312E+03  0.10000000000E+01 0.  0.
    9000005    1    3    3    0    0 -0.49711858801E+02 -0.23354504943E+02 -0.28069869958E+02  0.61689702593E+02  0.10000000000E+01 0.  0.
<mgrwt>
<rscale>  0 0.12500211E+03</rscale>
<asrwt>0</asrwt>
<pdfrwt beam="1">  1        4 0.35019694E-02 0.12500211E+03</pdfrwt>
<pdfrwt beam="2">  1       -4 0.26401929E-01 0.12500211E+03</pdfrwt>
<totfact> 0.91087231E+03</totfact>
</mgrwt>
</event>
<event>
 5    1  0.3282421E-002  0.1249888E+03  0.7818608E-02  0.1235087E+00
          4   -1    0    0  501    0  0.00000000000E+00  0.00000000000E+00  0.22480565140E+01  0.25819872366E+01  0.12700000000E+01 0. -1.
         -4   -1    0    0    0  501 -0.00000000000E+00 -0.00000000000E+00 -0.16168573547E+04  0.16168578535E+04  0.12700000000E+01 0. -1.
         25    2    1    2    0    0  0.00000000000E+00  0.00000000000E+00 -0.16146092982E+04  0.16194398407E+04  0.12498884710E+03 0.  0.
    9000005    1    3    3    0    0 -0.15930318159E+02  0.13223398211E+02 -0.43418873024E+02  0.48112699276E+02  0.10000000000E+01 0.  0.
    9000005    1    3    3    0    0  0.15930318159E+02 -0.13223398211E+02 -0.15711904252E+04  0.15713271415E+04  0.10000000000E+01 0.  0.
<mgrwt>
<rscale>  0 0.12498885E+03</rscale>
<asrwt>0</asrwt>
<pdfrwt beam="1">  1        4 0.37158149E-03 0.12498885E+03</pdfrwt>
<pdfrwt beam="2">  1       -4 0.24877215E+00 0.12498885E+03</pdfrwt>
<totfact> 0.15701207E+03</totfact>
</mgrwt>
</event>
<event>
 5    1  0.3282421E-002  0.1250005E+03  0.7818608E-02  0.1235069E+00
         -4   -1    0    0    0  501 -0.00000000000E+00  0.00000000000E+00  0.37411833416E+03  0.37412048975E+03  0.12700000000E+01 0.  1.
          4   -1    0    0  501    0  0.00000000000E+00 -0.00000000000E+00 -0.10400480420E+02  0.10477733198E+02  0.12700000000E+01 0.  1.
         25    2    1    2    0    0  0.00000000000E+00  0.00000000000E+00  0.36371785374E+03  0.38459822295E+03  0.12500046388E+03 0.  0.
    9000005    1    3    3    0    0  0.12023235276E+02 -0.58965160646E+02  0.23369418716E+03  0.24132016383E+03  0.10000000000E+01 0.  0.
    9000005    1    3    3    0    0 -0.12023235276E+02  0.58965160646E+02  0.13002366658E+03  0.14327805912E+03  0.10000000000E+01 0.  0.
<mgrwt>
<rscale>  0 0.12500046E+03</rscale>
<asrwt>0</asrwt>
<pdfrwt beam="2">  1        4 0.16061826E-02 0.12500046E+03</pdfrwt>
<pdfrwt beam="1">  1       -4 0.57562763E-01 0.12500046E+03</pdfrwt>
<totfact> 0.66078158E+03</totfact>
</mgrwt>
</event>
<event>
 5    1  0.3282421E-002  0.1249962E+03  0.7818608E-02  0.1235075E+00
         -4   -1    0    0    0  501 -0.00000000000E+00  0.00000000000E+00  0.10820653074E+02  0.10894926937E+02  0.12700000000E+01 0. -1.
          4   -1    0    0  501    0  0.00000000000E+00 -0.00000000000E+00 -0.35966773729E+03  0.35966997949E+03  0.12700000000E+01 0. -1.
         25    2    1    2    0    0  0.00000000000E+00  0.00000000000E+00 -0.34884708421E+03  0.37056490642E+03  0.12499624678E+03 0.  0.
    9000005    1    3    3    0    0 -0.16481209857E+02 -0.45670449831E+02 -0.29104970758E+03  0.29507346974E+03  0.10000000000E+01 0.  0.
    9000005    1    3    3    0    0  0.16481209857E+02  0.45670449831E+02 -0.57797376635E+02  0.75491436680E+02  0.10000000000E+01 0.  0.
<mgrwt>
<rscale>  0 0.12499625E+03</rscale>
<asrwt>0</asrwt>
<pdfrwt beam="2">  1        4 0.55339375E-01 0.12499625E+03</pdfrwt>
<pdfrwt beam="1">  1       -4 0.16706020E-02 0.12499625E+03</pdfrwt>
<totfact> 0.67525485E+03</totfact>
</mgrwt>
</event>
<event>
 5    1  0.3282421E-002  0.1250001E+03  0.7818608E-02  0.1235069E+00
         -4   -1    0    0    0  501 -0.00000000000E+00  0.00000000000E+00  0.31262688413E+03  0.31262946371E+03  0.12700000000E+01 0. -1.
          4   -1    0    0  501    0  0.00000000000E+00 -0.00000000000E+00 -0.12460037898E+02  0.12524593583E+02  0.12700000000E+01 0. -1.
         25    2    1    2    0    0  0.00000000000E+00  0.00000000000E+00  0.30016684623E+03  0.32515405730E+03  0.12500010160E+03 0.  0.
    9000005    1    3    3    0    0  0.25388598565E+01 -0.34182207092E+02  0.14161053929E+02  0.37099926407E+02  0.10000000000E+01 0.  0.
    9000005    1    3    3    0    0 -0.25388598565E+01  0.34182207092E+02  0.28600579230E+03  0.28805413089E+03  0.10000000000E+01 0.  0.
<mgrwt>
<rscale>  0 0.12500010E+03</rscale>
<asrwt>0</asrwt>
<pdfrwt beam="2">  1        4 0.19220931E-02 0.12500010E+03</pdfrwt>
<pdfrwt beam="1">  1       -4 0.48101609E-01 0.12500010E+03</pdfrwt>
<totfact> 0.72547117E+03</totfact>
</mgrwt>
</event>
<event>
 5    1  0.3282421E-002  0.1250017E+03  0.7818608E-02  0.1235067E+00
         -4   -1    0    0    0  501 -0.00000000000E+00  0.00000000000E+00  0.45208984047E+02  0.45226818798E+02  0.12700000000E+01 0. -1.
          4   -1    0    0  501    0  0.00000000000E+00 -0.00000000000E+00 -0.86367062363E+02  0.86376399330E+02  0.12700000000E+01 0. -1.
         25    2    1    2    0    0  0.00000000000E+00  0.00000000000E+00 -0.41158078315E+02  0.13160321813E+03  0.12500167843E+03 0.  0.
    9000005    1    3    3    0    0  0.31438543317E+02  0.36473315061E+02 -0.62515714303E+02  0.78917040316E+02  0.10000000000E+01 0.  0.
    9000005    1    3    3    0    0 -0.31438543317E+02 -0.36473315061E+02  0.21357635987E+02  0.52686177812E+02  0.10000000000E+01 0.  0.
<mgrwt>
<rscale>  0 0.12500168E+03</rscale>
<asrwt>0</asrwt>
<pdfrwt beam="2">  1        4 0.13289330E-01 0.12500168E+03</pdfrwt>
<pdfrwt beam="1">  1       -4 0.69573185E-02 0.12500168E+03</pdfrwt>
<totfact> 0.10309784E+04</totfact>
</mgrwt>
</event>
<event>
 5    1  0.3282421E-002  0.1250060E+03  0.7818608E-02  0.1235060E+00
         -4   -1    0    0    0  501 -0.00000000000E+00  0.00000000000E+00  0.19148206081E+02  0.19190276083E+02  0.12700000000E+01 0. -1.
          4   -1    0    0  501    0  0.00000000000E+00 -0.00000000000E+00 -0.20375256818E+03  0.20375652613E+03  0.12700000000E+01 0. -1.
         25    2    1    2    0    0  0.00000000000E+00  0.00000000000E+00 -0.18460436210E+03  0.22294680221E+03  0.12500602430E+03 0.  0.
    9000005    1    3    3    0    0  0.20561107283E+02 -0.52590552065E+02 -0.44542596788E+02  0.71927520657E+02  0.10000000000E+01 0.  0.
    9000005    1    3    3    0    0 -0.20561107283E+02  0.52590552065E+02 -0.14006176531E+03  0.15101928155E+03  0.10000000000E+01 0.  0.
<mgrwt>
<rscale>  0 0.12500602E+03</rscale>
<asrwt>0</asrwt>
<pdfrwt beam="2">  1        4 0.31350088E-01 0.12500602E+03</pdfrwt>
<pdfrwt beam="1">  1       -4 0.29494186E-02 0.12500602E+03</pdfrwt>
<totfact> 0.86392572E+03</totfact>
</mgrwt>
</event>
<event>
 5    1  0.3282421E-002  0.1250011E+03  0.7818608E-02  0.1235068E+00
         -4   -1    0    0    0  501 -0.00000000000E+00  0.00000000000E+00  0.40902198058E+01  0.42828492922E+01  0.12700000000E+01 0.  1.
          4   -1    0    0  501    0  0.00000000000E+00 -0.00000000000E+00 -0.93287418789E+03  0.93287505237E+03  0.12700000000E+01 0.  1.
         25    2    1    2    0    0  0.00000000000E+00  0.00000000000E+00 -0.92878396808E+03  0.93715790166E+03  0.12500109309E+03 0.  0.
    9000005    1    3    3    0    0 -0.11151000665E+02 -0.45734654399E+02 -0.77253637406E+03  0.77396993009E+03  0.10000000000E+01 0.  0.
    9000005    1    3    3    0    0  0.11151000665E+02  0.45734654399E+02 -0.15624759402E+03  0.16318797157E+03  0.10000000000E+01 0.  0.
<mgrwt>
<rscale>  0 0.12500109E+03</rscale>
<asrwt>0</asrwt>
<pdfrwt beam="2">  1        4 0.14353382E+00 0.12500109E+03</pdfrwt>
<pdfrwt beam="1">  1       -4 0.64414948E-03 0.12500109E+03</pdfrwt>
<totfact> 0.32775608E+03</totfact>
</mgrwt>
</event>
<event>
 5    1  0.3282421E-002  0.1249962E+03  0.7818608E-02  0.1235075E+00
          4   -1    0    0  501    0  0.00000000000E+00  0.00000000000E+00  0.62099972648E+02  0.62112957608E+02  0.12700000000E+01 0.  1.
         -4   -1    0    0    0  501 -0.00000000000E+00 -0.00000000000E+00 -0.62872757625E+02  0.62885583017E+02  0.12700000000E+01 0.  1.
         25    2    1    2    0    0  0.00000000000E+00  0.00000000000E+00 -0.77278497748E+00  0.12499854063E+03  0.12499615179E+03 0.  0.
    9000005    1    3    3    0    0 -0.40978040430E+02 -0.19543703744E+01 -0.47525283656E+02  0.62790699531E+02  0.10000000000E+01 0.  0.
    9000005    1    3    3    0    0  0.40978040430E+02  0.19543703744E+01  0.46752498678E+02  0.62207841095E+02  0.10000000000E+01 0.  0.
<mgrwt>
<rscale>  0 0.12499615E+03</rscale>
<asrwt>0</asrwt>
<pdfrwt beam="1">  1        4 0.95558274E-02 0.12499615E+03</pdfrwt>
<pdfrwt beam="2">  1       -4 0.96747173E-02 0.12499615E+03</pdfrwt>
<totfact> 0.10453803E+04</totfact>
</mgrwt>
</event>
<event>
 5    1  0.3282421E-002  0.1250016E+03  0.7818608E-02  0.1235067E+00
         -4   -1    0    0    0  501 -0.00000000000E+00  0.00000000000E+00  0.18089276308E+02  0.18133803168E+02  0.12700000000E+01 0. -1.
          4   -1    0    0  501    0  0.00000000000E+00 -0.00000000000E+00 -0.21563663990E+03  0.21564037972E+03  0.12700000000E+01 0. -1.
         25    2    1    2    0    0  0.00000000000E+00  0.00000000000E+00 -0.19754736359E+03  0.23377418289E+03  0.12500163089E+03 0.  0.
    9000005    1    3    3    0    0  0.53021739718E+02 -0.91521504107E+01 -0.39330388543E+02  0.66655428907E+02  0.10000000000E+01 0.  0.
    9000005    1    3    3    0    0 -0.53021739718E+02  0.91521504107E+01 -0.15821697505E+03  0.16711875398E+03  0.10000000000E+01 0.  0.
<mgrwt>
<rscale>  0 0.12500163E+03</rscale>
<asrwt>0</asrwt>
<pdfrwt beam="2">  1        4 0.33178579E-01 0.12500163E+03</pdfrwt>
<pdfrwt beam="1">  1       -4 0.27866785E-02 0.12500163E+03</pdfrwt>
<totfact> 0.84730335E+03</totfact>
</mgrwt>
</event>
<event>
 5    1  0.3282421E-002  0.1250031E+03  0.7818608E-02  0.1235064E+00
          4   -1    0    0  501    0  0.00000000000E+00  0.00000000000E+00  0.79538774024E+02  0.79548912457E+02  0.12700000000E+01 0. -1.
         -4   -1    0    0    0  501 -0.00000000000E+00 -0.00000000000E+00 -0.49092207181E+02  0.49108631684E+02  0.12700000000E+01 0. -1.
         25    2    1    2    0    0  0.00000000000E+00  0.00000000000E+00  0.30446566843E+02  0.12865754414E+03  0.12500308089E+03 0.  0.
    9000005    1    3    3    0    0 -0.40430006054E+01  0.59293936888E+02 -0.46632239151E+01  0.59622667357E+02  0.10000000000E+01 0.  0.
    9000005    1    3    3    0    0  0.40430006054E+01 -0.59293936888E+02  0.35109790758E+02  0.69034876784E+02  0.10000000000E+01 0.  0.
<mgrwt>
<rscale>  0 0.12500308E+03</rscale>
<asrwt>0</asrwt>
<pdfrwt beam="1">  1        4 0.12238778E-01 0.12500308E+03</pdfrwt>
<pdfrwt beam="2">  1       -4 0.75546906E-02 0.12500308E+03</pdfrwt>
<totfact> 0.10372590E+04</totfact>
</mgrwt>
</event>
<event>
 5    1  0.3282421E-002  0.1250002E+03  0.7818608E-02  0.1235069E+00
         -4   -1    0    0    0  501 -0.00000000000E+00  0.00000000000E+00  0.34504602044E+01  0.36767615673E+01  0.12700000000E+01 0. -1.
          4   -1    0    0  501    0  0.00000000000E+00 -0.00000000000E+00 -0.10959254501E+04  0.10959261860E+04  0.12700000000E+01 0. -1.
         25    2    1    2    0    0  0.00000000000E+00  0.00000000000E+00 -0.10924749899E+04  0.10996029475E+04  0.12500015467E+03 0.  0.
    9000005    1    3    3    0    0  0.40839967126E+02 -0.41267143752E+02 -0.74959035251E+03  0.75183613683E+03  0.10000000000E+01 0.  0.
    9000005    1    3    3    0    0 -0.40839967126E+02  0.41267143752E+02 -0.34288463738E+03  0.34776681069E+03  0.10000000000E+01 0.  0.
<mgrwt>
<rscale>  0 0.12500015E+03</rscale>
<asrwt>0</asrwt>
<pdfrwt beam="2">  1        4 0.16862111E+00 0.12500015E+03</pdfrwt>
<pdfrwt beam="1">  1       -4 0.54830531E-03 0.12500015E+03</pdfrwt>
<totfact> 0.27494969E+03</totfact>
</mgrwt>
</event>
<event>
 5    1  0.3282421E-002  0.1249979E+03  0.7818608E-02  0.1235073E+00
          4   -1    0    0  501    0  0.00000000000E+00  0.00000000000E+00  0.14982789930E+02  0.15036518683E+02  0.12700000000E+01 0. -1.
         -4   -1    0    0    0  501 -0.00000000000E+00 -0.00000000000E+00 -0.26018499827E+03  0.26018809778E+03  0.12700000000E+01 0. -1.
         25    2    1    2    0    0  0.00000000000E+00  0.00000000000E+00 -0.24520220834E+03  0.27522461646E+03  0.12499786610E+03 0.  0.
    9000005    1    3    3    0    0 -0.29853351500E+01  0.55475841488E+01  0.14292611166E+02  0.15651410473E+02  0.10000000000E+01 0.  0.
    9000005    1    3    3    0    0  0.29853351500E+01 -0.55475841488E+01 -0.25949481951E+03  0.25957320599E+03  0.10000000000E+01 0.  0.
<mgrwt>
<rscale>  0 0.12499787E+03</rscale>
<asrwt>0</asrwt>
<pdfrwt beam="1">  1        4 0.23094162E-02 0.12499787E+03</pdfrwt>
<pdfrwt beam="2">  1       -4 0.40032830E-01 0.12499787E+03</pdfrwt>
<totfact> 0.78819318E+03</totfact>
</mgrwt>
</event>
<event>
 5    1  0.3282421E-002  0.1249996E+03  0.7818608E-02  0.1235070E+00
          4   -1    0    0  501    0  0.00000000000E+00  0.00000000000E+00  0.92117330159E+02  0.92126084339E+02  0.12700000000E+01 0.  1.
         -4   -1    0    0    0  501 -0.00000000000E+00 -0.00000000000E+00 -0.42384581423E+02  0.42403604121E+02  0.12700000000E+01 0.  1.
         25    2    1    2    0    0  0.00000000000E+00  0.00000000000E+00  0.49732748736E+02  0.13452968846E+03  0.12499956312E+03 0.  0.
    9000005    1    3    3    0    0  0.49671221640E+02  0.37289551776E+02  0.17450317274E+02  0.64523286524E+02  0.10000000000E+01 0.  0.
    9000005    1    3    3    0    0 -0.49671221640E+02 -0.37289551776E+02  0.32282431462E+02  0.70006401936E+02  0.10000000000E+01 0.  0.
<mgrwt>
<rscale>  0 0.12499956E+03</rscale>
<asrwt>0</asrwt>
<pdfrwt beam="1">  1        4 0.14174033E-01 0.12499956E+03</pdfrwt>
<pdfrwt beam="2">  1       -4 0.65228416E-02 0.12499956E+03</pdfrwt>
<totfact> 0.10248094E+04</totfact>
</mgrwt>
</event>
<event>
 5    1  0.3282421E-002  0.1249996E+03  0.7818608E-02  0.1235070E+00
         -4   -1    0    0    0  501 -0.00000000000E+00  0.00000000000E+00  0.20427070595E+03  0.20427465386E+03  0.12700000000E+01 0.  1.
          4   -1    0    0  501    0  0.00000000000E+00 -0.00000000000E+00 -0.19097570446E+02  0.19139751747E+02  0.12700000000E+01 0.  1.
         25    2    1    2    0    0  0.00000000000E+00  0.00000000000E+00  0.18517313550E+03  0.22341440561E+03  0.12499962608E+03 0.  0.
    9000005    1    3    3    0    0 -0.11324860772E+01  0.55834663909E+02  0.14270918184E+03  0.15325045774E+03  0.10000000000E+01 0.  0.
    9000005    1    3    3    0    0  0.11324860772E+01 -0.55834663909E+02  0.42463953667E+02  0.70163947862E+02  0.10000000000E+01 0.  0.
<mgrwt>
<rscale>  0 0.12499963E+03</rscale>
<asrwt>0</asrwt>
<pdfrwt beam="2">  1        4 0.29416362E-02 0.12499963E+03</pdfrwt>
<pdfrwt beam="1">  1       -4 0.31429811E-01 0.12499963E+03</pdfrwt>
<totfact> 0.86331652E+03</totfact>
</mgrwt>
</event>
<event>
 5    1  0.3282421E-002  0.1249953E+03  0.7818608E-02  0.1235077E+00
         -4   -1    0    0    0  501 -0.00000000000E+00  0.00000000000E+00  0.54025915840E+02  0.54040840874E+02  0.12700000000E+01 0.  1.
          4   -1    0    0  501    0  0.00000000000E+00 -0.00000000000E+00 -0.72267391531E+02  0.72278549921E+02  0.12700000000E+01 0.  1.
         25    2    1    2    0    0  0.00000000000E+00  0.00000000000E+00 -0.18241475691E+02  0.12631939080E+03  0.12499534814E+03 0.  0.
    9000005    1    3    3    0    0 -0.58113372298E+02  0.17126024808E+02  0.63546841651E+01  0.60924927381E+02  0.10000000000E+01 0.  0.
    9000005    1    3    3    0    0  0.58113372298E+02 -0.17126024808E+02 -0.24596159856E+02  0.65394463414E+02  0.10000000000E+01 0.  0.
<mgrwt>
<rscale>  0 0.12499535E+03</rscale>
<asrwt>0</asrwt>
<pdfrwt beam="2">  1        4 0.11120067E-01 0.12499535E+03</pdfrwt>
<pdfrwt beam="1">  1       -4 0.83136858E-02 0.12499535E+03</pdfrwt>
<totfact> 0.10425064E+04</totfact>
</mgrwt>
</event>
<event>
 5    1  0.3282421E-002  0.1249947E+03  0.7818608E-02  0.1235078E+00
          4   -1    0    0  501    0  0.00000000000E+00  0.00000000000E+00  0.70367388739E+02  0.70378848370E+02  0.12700000000E+01 0.  1.
         -4   -1    0    0    0  501 -0.00000000000E+00 -0.00000000000E+00 -0.55484274376E+02  0.55498807222E+02  0.12700000000E+01 0.  1.
         25    2    1    2    0    0  0.00000000000E+00  0.00000000000E+00  0.14883114363E+02  0.12587765559E+03  0.12499470823E+03 0.  0.
    9000005    1    3    3    0    0 -0.93143645899E+00  0.34128636017E+02  0.60149474782E+02  0.69170735769E+02  0.10000000000E+01 0.  0.
    9000005    1    3    3    0    0  0.93143645899E+00 -0.34128636017E+02 -0.45266360420E+02  0.56706919823E+02  0.10000000000E+01 0.  0.
<mgrwt>
<rscale>  0 0.12499471E+03</rscale>
<asrwt>0</asrwt>
<pdfrwt beam="1">  1        4 0.10827751E-01 0.12499471E+03</pdfrwt>
<pdfrwt beam="2">  1       -4 0.85380417E-02 0.12499471E+03</pdfrwt>
<totfact> 0.10434886E+04</totfact>
</mgrwt>
</event>
<event>
 5    1  0.3282421E-002  0.1250007E+03  0.7818608E-02  0.1235068E+00
          4   -1    0    0  501    0  0.00000000000E+00  0.00000000000E+00  0.11411521308E+03  0.11412227984E+03  0.12700000000E+01 0. -1.
         -4   -1    0    0    0  501 -0.00000000000E+00 -0.00000000000E+00 -0.34211218164E+02  0.34234782725E+02  0.12700000000E+01 0. -1.
         25    2    1    2    0    0  0.00000000000E+00  0.00000000000E+00  0.79903994914E+02  0.14835706256E+03  0.12500067844E+03 0.  0.
    9000005    1    3    3    0    0 -0.16719856706E+02  0.16746835066E+02  0.10859752432E+03  0.11115049429E+03  0.10000000000E+01 0.  0.
    9000005    1    3    3    0    0  0.16719856706E+02 -0.16746835066E+02 -0.28693529405E+02  0.37206568274E+02  0.10000000000E+01 0.  0.
<mgrwt>
<rscale>  0 0.12500068E+03</rscale>
<asrwt>0</asrwt>
<pdfrwt beam="1">  1        4 0.17558543E-01 0.12500068E+03</pdfrwt>
<pdfrwt beam="2">  1       -4 0.52656206E-02 0.12500068E+03</pdfrwt>
<totfact> 0.99630685E+03</totfact>
</mgrwt>
</event>
<event>
 5    1  0.3282421E-002  0.1249972E+03  0.7818608E-02  0.1235074E+00
         -4   -1    0    0    0  501 -0.00000000000E+00  0.00000000000E+00  0.68896769481E+02  0.68908473680E+02  0.12700000000E+01 0. -1.
          4   -1    0    0  501    0  0.00000000000E+00 -0.00000000000E+00 -0.56671008934E+02  0.56685237528E+02  0.12700000000E+01 0. -1.
         25    2    1    2    0    0  0.00000000000E+00  0.00000000000E+00  0.12225760546E+02  0.12559371121E+03  0.12499724427E+03 0.  0.
    9000005    1    3    3    0    0  0.22064281065E+02  0.51134532961E+02  0.34594304019E+02  0.65569343680E+02  0.10000000000E+01 0.  0.
    9000005    1    3    3    0    0 -0.22064281065E+02 -0.51134532961E+02 -0.22368543472E+02  0.60024367528E+02  0.10000000000E+01 0.  0.
<mgrwt>
<rscale>  0 0.12499724E+03</rscale>
<asrwt>0</asrwt>
<pdfrwt beam="2">  1        4 0.87206116E-02 0.12499724E+03</pdfrwt>
<pdfrwt beam="1">  1       -4 0.10601498E-01 0.12499724E+03</pdfrwt>
<totfact> 0.10440535E+04</totfact>
</mgrwt>
</event>
<event>
 5    1  0.3282421E-002  0.1249898E+03  0.7818608E-02  0.1235085E+00
         -4   -1    0    0    0  501 -0.00000000000E+00  0.00000000000E+00  0.35246928656E+02  0.35269801242E+02  0.12700000000E+01 0.  1.
          4   -1    0    0  501    0  0.00000000000E+00 -0.00000000000E+00 -0.11074477264E+03  0.11075205446E+03  0.12700000000E+01 0.  1.
         25    2    1    2    0    0  0.00000000000E+00  0.00000000000E+00 -0.75497843988E+02  0.14602185571E+03  0.12498983117E+03 0.  0.
    9000005    1    3    3    0    0 -0.50592252790E+02 -0.20339627120E+02 -0.73401984749E+02  0.91444670916E+02  0.10000000000E+01 0.  0.
    9000005    1    3    3    0    0  0.50592252790E+02  0.20339627120E+02 -0.20958592386E+01  0.54577184791E+02  0.10000000000E+01 0.  0.
<mgrwt>
<rscale>  0 0.12498983E+03</rscale>
<asrwt>0</asrwt>
<pdfrwt beam="2">  1        4 0.17039977E-01 0.12498983E+03</pdfrwt>
<pdfrwt beam="1">  1       -4 0.54249240E-02 0.12498983E+03</pdfrwt>
<totfact> 0.10012560E+04</totfact>
</mgrwt>
</event>
<event>
 5    1  0.3282421E-002  0.1250075E+03  0.7818608E-02  0.1235058E+00
         -4   -1    0    0    0  501 -0.00000000000E+00  0.00000000000E+00  0.17642474470E+02  0.17688126114E+02  0.12700000000E+01 0.  1.
          4   -1    0    0  501    0  0.00000000000E+00 -0.00000000000E+00 -0.22110455555E+03  0.22110820289E+03  0.12700000000E+01 0.  1.
         25    2    1    2    0    0  0.00000000000E+00  0.00000000000E+00 -0.20346208108E+03  0.23879632900E+03  0.12500747301E+03 0.  0.
    9000005    1    3    3    0    0 -0.20085707035E+02 -0.50348040606E+02 -0.16114450709E+03  0.17002033110E+03  0.10000000000E+01 0.  0.
    9000005    1    3    3    0    0  0.20085707035E+02  0.50348040606E+02 -0.42317573988E+02  0.68775997908E+02  0.10000000000E+01 0.  0.
<mgrwt>
<rscale>  0 0.12500747E+03</rscale>
<asrwt>0</asrwt>
<pdfrwt beam="2">  1        4 0.34019876E-01 0.12500747E+03</pdfrwt>
<pdfrwt beam="1">  1       -4 0.27180192E-02 0.12500747E+03</pdfrwt>
<totfact> 0.83962971E+03</totfact>
</mgrwt>
</event>
<event>
 5    1  0.3282421E-002  0.1249969E+03  0.7818608E-02  0.1235074E+00
          4   -1    0    0  501    0  0.00000000000E+00  0.00000000000E+00  0.16854233641E+03  0.16854712120E+03  0.12700000000E+01 0. -1.
         -4   -1    0    0    0  501 -0.00000000000E+00 -0.00000000000E+00 -0.23153018678E+02  0.23187823829E+02  0.12700000000E+01 0. -1.
         25    2    1    2    0    0  0.00000000000E+00  0.00000000000E+00  0.14538931774E+03  0.19173494503E+03  0.12499694169E+03 0.  0.
    9000005    1    3    3    0    0  0.61754683855E+02  0.50417732601E+01  0.60233208338E+02  0.86418168473E+02  0.10000000000E+01 0.  0.
    9000005    1    3    3    0    0 -0.61754683855E+02 -0.50417732601E+01  0.85156109398E+02  0.10531677655E+03  0.10000000000E+01 0.  0.
<mgrwt>
<rscale>  0 0.12499694E+03</rscale>
<asrwt>0</asrwt>
<pdfrwt beam="1">  1        4 0.25932637E-01 0.12499694E+03</pdfrwt>
<pdfrwt beam="2">  1       -4 0.35650481E-02 0.12499694E+03</pdfrwt>
<totfact> 0.91552583E+03</totfact>
</mgrwt>
</event>
<event>
 5    1  0.3282421E-002  0.1249954E+03  0.7818608E-02  0.1235077E+00
         -4   -1    0    0    0  501 -0.00000000000E+00  0.00000000000E+00  0.18297111742E+03  0.18297552489E+03  0.12700000000E+01 0.  1.
          4   -1    0    0  501    0  0.00000000000E+00 -0.00000000000E+00 -0.21323856729E+02  0.21361642395E+02  0.12700000000E+01 0.  1.
         25    2    1    2    0    0  0.00000000000E+00  0.00000000000E+00  0.16164726069E+03  0.20433716729E+03  0.12499536410E+03 0.  0.
    9000005    1    3    3    0    0 -0.87479193243E+01 -0.52131838204E+02  0.13530561834E+03  0.14526825187E+03  0.10000000000E+01 0.  0.
    9000005    1    3    3    0    0  0.87479193243E+01  0.52131838204E+02  0.26341642353E+02  0.59068915420E+02  0.10000000000E+01 0.  0.
<mgrwt>
<rscale>  0 0.12499536E+03</rscale>
<asrwt>0</asrwt>
<pdfrwt beam="2">  1        4 0.32838389E-02 0.12499536E+03</pdfrwt>
<pdfrwt beam="1">  1       -4 0.28152649E-01 0.12499536E+03</pdfrwt>
<totfact> 0.89418399E+03</totfact>
</mgrwt>
</event>
<event>
 5    1  0.3282421E-002  0.1249966E+03  0.7818608E-02  0.1235075E+00
         -4   -1    0    0    0  501 -0.00000000000E+00  0.00000000000E+00  0.46806715312E+03  0.46806887605E+03  0.12700000000E+01 0. -1.
          4   -1    0    0  501    0  0.00000000000E+00 -0.00000000000E+00 -0.82949637770E+01  0.83916222545E+01  0.12700000000E+01 0. -1.
         25    2    1    2    0    0  0.00000000000E+00  0.00000000000E+00  0.45977218934E+03  0.47646049831E+03  0.12499656137E+03 0.  0.
    9000005    1    3    3    0    0 -0.28746645527E+02  0.45733319241E+02  0.34964719673E+03  0.35379664823E+03  0.10000000000E+01 0.  0.
    9000005    1    3    3    0    0  0.28746645527E+02 -0.45733319241E+02  0.11012499262E+03  0.12266385008E+03  0.10000000000E+01 0.  0.
<mgrwt>
<rscale>  0 0.12499656E+03</rscale>
<asrwt>0</asrwt>
<pdfrwt beam="2">  1        4 0.12837159E-02 0.12499656E+03</pdfrwt>
<pdfrwt beam="1">  1       -4 0.72017911E-01 0.12499656E+03</pdfrwt>
<totfact> 0.57742506E+03</totfact>
</mgrwt>
</event>
<event>
 5    1  0.3282421E-002  0.1250028E+03  0.7818608E-02  0.1235065E+00
          4   -1    0    0  501    0  0.00000000000E+00  0.00000000000E+00  0.20056423956E+03  0.20056826043E+03  0.12700000000E+01 0. -1.
         -4   -1    0    0    0  501 -0.00000000000E+00 -0.00000000000E+00 -0.19452251880E+02  0.19493665720E+02  0.12700000000E+01 0. -1.
         25    2    1    2    0    0  0.00000000000E+00  0.00000000000E+00  0.18111198768E+03  0.22006192615E+03  0.12500279700E+03 0.  0.
    9000005    1    3    3    0    0  0.43195520899E+02 -0.16965686662E+02  0.16423769829E+03  0.17067134818E+03  0.10000000000E+01 0.  0.
    9000005    1    3    3    0    0 -0.43195520899E+02  0.16965686662E+02  0.16874289393E+02  0.49390577970E+02  0.10000000000E+01 0.  0.
<mgrwt>
<rscale>  0 0.12500280E+03</rscale>
<asrwt>0</asrwt>
<pdfrwt beam="1">  1        4 0.30859531E-01 0.12500280E+03</pdfrwt>
<pdfrwt beam="2">  1       -4 0.29961492E-02 0.12500280E+03</pdfrwt>
<totfact> 0.86853125E+03</totfact>
</mgrwt>
</event>
<event>
 5    1  0.3282421E-002  0.1250064E+03  0.7818608E-02  0.1235059E+00
         -4   -1    0    0    0  501 -0.00000000000E+00  0.00000000000E+00  0.94125733572E+02  0.94134300977E+02  0.12700000000E+01 0.  1.
          4   -1    0    0  501    0  0.00000000000E+00 -0.00000000000E+00 -0.41484433765E+02  0.41503869034E+02  0.12700000000E+01 0.  1.
         25    2    1    2    0    0  0.00000000000E+00  0.00000000000E+00  0.52641299807E+02  0.13563817001E+03  0.12500642671E+03 0.  0.
    9000005    1    3    3    0    0  0.31521289250E+02  0.37420342573E+02 -0.15867801696E+02  0.51445707741E+02  0.10000000000E+01 0.  0.
    9000005    1    3    3    0    0 -0.31521289250E+02 -0.37420342573E+02  0.68509101504E+02  0.84192462270E+02  0.10000000000E+01 0.  0.
<mgrwt>
<rscale>  0 0.12500643E+03</rscale>
<asrwt>0</asrwt>
<pdfrwt beam="2">  1        4 0.63843747E-02 0.12500643E+03</pdfrwt>
<pdfrwt beam="1">  1       -4 0.14483036E-01 0.12500643E+03</pdfrwt>
<totfact> 0.10223156E+04</totfact>
</mgrwt>
</event>
<event>
 5    1  0.3282421E-002  0.1250052E+03  0.7818608E-02  0.1235061E+00
          4   -1    0    0  501    0  0.00000000000E+00  0.00000000000E+00  0.11407246576E+02  0.11477725142E+02  0.12700000000E+01 0. -1.
         -4   -1    0    0    0  501 -0.00000000000E+00 -0.00000000000E+00 -0.34133822397E+03  0.34134058658E+03  0.12700000000E+01 0. -1.
         25    2    1    2    0    0  0.00000000000E+00  0.00000000000E+00 -0.32993097740E+03  0.35281831172E+03  0.12500524484E+03 0.  0.
    9000005    1    3    3    0    0 -0.11688998152E+02 -0.66918944616E+01 -0.33720677596E+03  0.33747714572E+03  0.10000000000E+01 0.  0.
    9000005    1    3    3    0    0  0.11688998152E+02  0.66918944616E+01  0.72757985685E+01  0.15341165995E+02  0.10000000000E+01 0.  0.
<mgrwt>
<rscale>  0 0.12500524E+03</rscale>
<asrwt>0</asrwt>
<pdfrwt beam="1">  1        4 0.17605644E-02 0.12500524E+03</pdfrwt>
<pdfrwt beam="2">  1       -4 0.52519168E-01 0.12500524E+03</pdfrwt>
<totfact> 0.69407564E+03</totfact>
</mgrwt>
</event>
<event>
 5    1  0.3282421E-002  0.1250238E+03  0.7818608E-02  0.1235032E+00
         -4   -1    0    0    0  501 -0.00000000000E+00  0.00000000000E+00  0.31291098666E+02  0.31316860566E+02  0.12700000000E+01 0. -1.
          4   -1    0    0  501    0  0.00000000000E+00 -0.00000000000E+00 -0.12480292816E+03  0.12480938978E+03  0.12700000000E+01 0. -1.
         25    2    1    2    0    0  0.00000000000E+00  0.00000000000E+00 -0.93511829494E+02  0.15612625035E+03  0.12502377291E+03 0.  0.
    9000005    1    3    3    0    0 -0.37882964169E+02 -0.30702851619E+01  0.15208754917E+02  0.40949381575E+02  0.10000000000E+01 0.  0.
    9000005    1    3    3    0    0  0.37882964169E+02  0.30702851619E+01 -0.10872058441E+03  0.11517686877E+03  0.10000000000E+01 0.  0.
<mgrwt>
<rscale>  0 0.12502377E+03</rscale>
<asrwt>0</asrwt>
<pdfrwt beam="2">  1        4 0.19202929E-01 0.12502377E+03</pdfrwt>
<pdfrwt beam="1">  1       -4 0.48164940E-02 0.12502377E+03</pdfrwt>
<totfact> 0.98042433E+03</totfact>
</mgrwt>
</event>
<event>
 5    1  0.3282421E-002  0.1250007E+03  0.7818608E-02  0.1235068E+00
         -4   -1    0    0    0  501 -0.00000000000E+00  0.00000000000E+00  0.78440753676E+02  0.78451034010E+02  0.12700000000E+01 0. -1.
          4   -1    0    0  501    0  0.00000000000E+00 -0.00000000000E+00 -0.49777626556E+02  0.49793824974E+02  0.12700000000E+01 0. -1.
         25    2    1    2    0    0  0.00000000000E+00  0.00000000000E+00  0.28663127120E+02  0.12824485898E+03  0.12500067600E+03 0.  0.
    9000005    1    3    3    0    0  0.52432424799E+02 -0.20000252171E+02  0.42542910703E+02  0.70427753821E+02  0.10000000000E+01 0.  0.
    9000005    1    3    3    0    0 -0.52432424799E+02  0.20000252171E+02 -0.13879783583E+02  0.57817105164E+02  0.10000000000E+01 0.  0.
<mgrwt>
<rscale>  0 0.12500068E+03</rscale>
<asrwt>0</asrwt>
<pdfrwt beam="2">  1        4 0.76601333E-02 0.12500068E+03</pdfrwt>
<pdfrwt beam="1">  1       -4 0.12069845E-01 0.12500068E+03</pdfrwt>
<totfact> 0.10382045E+04</totfact>
</mgrwt>
</event>
<event>
 5    1  0.3282421E-002  0.1249972E+03  0.7818608E-02  0.1235074E+00
          4   -1    0    0  501    0  0.00000000000E+00  0.00000000000E+00  0.27782390243E+03  0.27782680515E+03  0.12700000000E+01 0. -1.
         -4   -1    0    0    0  501 -0.00000000000E+00 -0.00000000000E+00 -0.14027871830E+02  0.14085243629E+02  0.12700000000E+01 0. -1.
         25    2    1    2    0    0  0.00000000000E+00  0.00000000000E+00  0.26379603060E+03  0.29191204878E+03  0.12499719382E+03 0.  0.
    9000005    1    3    3    0    0  0.83392576377E+01 -0.23509931889E+02 -0.19077817382E+01  0.25037966102E+02  0.10000000000E+01 0.  0.
    9000005    1    3    3    0    0 -0.83392576377E+01  0.23509931889E+02  0.26570381234E+03  0.26687408268E+03  0.10000000000E+01 0.  0.
<mgrwt>
<rscale>  0 0.12499719E+03</rscale>
<asrwt>0</asrwt>
<pdfrwt beam="1">  1        4 0.42746771E-01 0.12499719E+03</pdfrwt>
<pdfrwt beam="2">  1       -4 0.21627708E-02 0.12499719E+03</pdfrwt>
<totfact> 0.76629485E+03</totfact>
</mgrwt>
</event>
<event>
 5    1  0.3282421E-002  0.1249994E+03  0.7818608E-02  0.1235070E+00
          4   -1    0    0  501    0  0.00000000000E+00  0.00000000000E+00  0.13971749536E+04  0.13971755308E+04  0.12700000000E+01 0.  1.
         -4   -1    0    0    0  501 -0.00000000000E+00 -0.00000000000E+00 -0.26509613624E+01  0.29394720861E+01  0.12700000000E+01 0.  1.
         25    2    1    2    0    0  0.00000000000E+00  0.00000000000E+00  0.13945239922E+04  0.14001150029E+04  0.12499942552E+03 0.  0.
    9000005    1    3    3    0    0  0.60159437284E+02 -0.10195972647E+02  0.84841218314E+03  0.85060410783E+03  0.10000000000E+01 0.  0.
    9000005    1    3    3    0    0 -0.60159437284E+02  0.10195972647E+02  0.54611180908E+03  0.54951089504E+03  0.10000000000E+01 0.  0.
<mgrwt>
<rscale>  0 0.12499943E+03</rscale>
<asrwt>0</asrwt>
<pdfrwt beam="1">  1        4 0.21497249E+00 0.12499943E+03</pdfrwt>
<pdfrwt beam="2">  1       -4 0.43007722E-03 0.12499943E+03</pdfrwt>
<totfact> 0.19978671E+03</totfact>
</mgrwt>
</event>
<event>
 5    1  0.3282421E-002  0.1249959E+03  0.7818608E-02  0.1235076E+00
          4   -1    0    0  501    0  0.00000000000E+00  0.00000000000E+00  0.14784786180E+03  0.14785331630E+03  0.12700000000E+01 0. -1.
         -4   -1    0    0    0  501 -0.00000000000E+00 -0.00000000000E+00 -0.26397810422E+02  0.26428342647E+02  0.12700000000E+01 0. -1.
         25    2    1    2    0    0  0.00000000000E+00  0.00000000000E+00  0.12145005138E+03  0.17428165894E+03  0.12499592659E+03 0.  0.
    9000005    1    3    3    0    0  0.27464753249E+02 -0.33863726494E+02 -0.16911538391E+01  0.43645442424E+02  0.10000000000E+01 0.  0.
    9000005    1    3    3    0    0 -0.27464753249E+02  0.33863726494E+02  0.12314120522E+03  0.13063621652E+03  0.10000000000E+01 0.  0.
<mgrwt>
<rscale>  0 0.12499593E+03</rscale>
<asrwt>0</asrwt>
<pdfrwt beam="1">  1        4 0.22748593E-01 0.12499593E+03</pdfrwt>
<pdfrwt beam="2">  1       -4 0.40639698E-02 0.12499593E+03</pdfrwt>
<totfact> 0.94665218E+03</totfact>
</mgrwt>
</event>
<event>
 5    1  0.3282421E-002  0.1250076E+03  0.7818608E-02  0.1235057E+00
         -4   -1    0    0    0  501 -0.00000000000E+00  0.00000000000E+00  0.28370852905E+03  0.28371137156E+03  0.12700000000E+01 0. -1.
          4   -1    0    0  501    0  0.00000000000E+00 -0.00000000000E+00 -0.13738016874E+02  0.13796594059E+02  0.12700000000E+01 0. -1.
         25    2    1    2    0    0  0.00000000000E+00  0.00000000000E+00  0.26997051217E+03  0.29750796562E+03  0.12500764843E+03 0.  0.
    9000005    1    3    3    0    0 -0.77962564976E+01 -0.22761093827E+02 -0.22862876492E+01  0.24188346756E+02  0.10000000000E+01 0.  0.
    9000005    1    3    3    0    0  0.77962564976E+01  0.22761093827E+02  0.27225679982E+03  0.27331961887E+03  0.10000000000E+01 0.  0.
<mgrwt>
<rscale>  0 0.12500765E+03</rscale>
<asrwt>0</asrwt>
<pdfrwt beam="2">  1        4 0.21182658E-02 0.12500765E+03</pdfrwt>
<pdfrwt beam="1">  1       -4 0.43652188E-01 0.12500765E+03</pdfrwt>
<totfact> 0.75899613E+03</totfact>
</mgrwt>
</event>
<event>
 5    1  0.3282421E-002  0.1250027E+03  0.7818608E-02  0.1235065E+00
          4   -1    0    0  501    0  0.00000000000E+00  0.00000000000E+00  0.45575814857E+02  0.45593506115E+02  0.12700000000E+01 0.  1.
         -4   -1    0    0    0  501 -0.00000000000E+00 -0.00000000000E+00 -0.85673515867E+02  0.85682928410E+02  0.12700000000E+01 0.  1.
         25    2    1    2    0    0  0.00000000000E+00  0.00000000000E+00 -0.40097701010E+02  0.13127643453E+03  0.12500270651E+03 0.  0.
    9000005    1    3    3    0    0 -0.76824270061E+01  0.58806835983E+02 -0.40739314853E+02  0.71958011491E+02  0.10000000000E+01 0.  0.
    9000005    1    3    3    0    0  0.76824270061E+01 -0.58806835983E+02  0.64161384234E+00  0.59318423035E+02  0.10000000000E+01 0.  0.
<mgrwt>
<rscale>  0 0.12500271E+03</rscale>
<asrwt>0</asrwt>
<pdfrwt beam="1">  1        4 0.70137487E-02 0.12500271E+03</pdfrwt>
<pdfrwt beam="2">  1       -4 0.13182626E-01 0.12500271E+03</pdfrwt>
<totfact> 0.10316537E+04</totfact>
</mgrwt>
</event>
<event>
 5    1  0.3282421E-002  0.1250005E+03  0.7818608E-02  0.1235068E+00
         -4   -1    0    0    0  501 -0.00000000000E+00  0.00000000000E+00  0.11058358882E+03  0.11059088125E+03  0.12700000000E+01 0.  1.
          4   -1    0    0  501    0  0.00000000000E+00 -0.00000000000E+00 -0.35304381472E+02  0.35327216860E+02  0.12700000000E+01 0.  1.
         25    2    1    2    0    0  0.00000000000E+00  0.00000000000E+00  0.75279207349E+02  0.14591809811E+03  0.12500052919E+03 0.  0.
    9000005    1    3    3    0    0 -0.64488131306E+01  0.21451095614E+02  0.10574211788E+03  0.10809316438E+03  0.10000000000E+01 0.  0.
    9000005    1    3    3    0    0  0.64488131306E+01 -0.21451095614E+02 -0.30462910527E+02  0.37824933729E+02  0.10000000000E+01 0.  0.
<mgrwt>
<rscale>  0 0.12500053E+03</rscale>
<asrwt>0</asrwt>
<pdfrwt beam="2">  1        4 0.54337608E-02 0.12500053E+03</pdfrwt>
<pdfrwt beam="1">  1       -4 0.17015178E-01 0.12500053E+03</pdfrwt>
<totfact> 0.10012249E+04</totfact>
</mgrwt>
</event>
<event>
 5    1  0.3282421E-002  0.1250039E+03  0.7818608E-02  0.1235063E+00
         -4   -1    0    0    0  501 -0.00000000000E+00  0.00000000000E+00  0.76532079687E+02  0.76542616373E+02  0.12700000000E+01 0. -1.
          4   -1    0    0  501    0  0.00000000000E+00 -0.00000000000E+00 -0.51021901002E+02  0.51037704512E+02  0.12700000000E+01 0. -1.
         25    2    1    2    0    0  0.00000000000E+00  0.00000000000E+00  0.25510178686E+02  0.12758032088E+03  0.12500387618E+03 0.  0.
    9000005    1    3    3    0    0  0.27293248764E+02  0.36655378063E+02 -0.30749210926E+02  0.55091307314E+02  0.10000000000E+01 0.  0.
    9000005    1    3    3    0    0 -0.27293248764E+02 -0.36655378063E+02  0.56259389612E+02  0.72489013571E+02  0.10000000000E+01 0.  0.
<mgrwt>
<rscale>  0 0.12500388E+03</rscale>
<asrwt>0</asrwt>
<pdfrwt beam="2">  1        4 0.78515494E-02 0.12500388E+03</pdfrwt>
<pdfrwt beam="1">  1       -4 0.11776192E-01 0.12500388E+03</pdfrwt>
<totfact> 0.10395652E+04</totfact>
</mgrwt>
</event>
<event>
 5    1  0.3282421E-002  0.1250003E+03  0.7818608E-02  0.1235069E+00
          4   -1    0    0  501    0  0.00000000000E+00  0.00000000000E+00  0.93372461092E+02  0.93381097608E+02  0.12700000000E+01 0.  1.
         -4   -1    0    0    0  501 -0.00000000000E+00 -0.00000000000E+00 -0.41815150115E+02  0.41834431742E+02  0.12700000000E+01 0.  1.
         25    2    1    2    0    0  0.00000000000E+00  0.00000000000E+00  0.51557310977E+02  0.13521552935E+03  0.12500033225E+03 0.  0.
    9000005    1    3    3    0    0  0.56055955699E+02 -0.24675570884E+02  0.39207554064E+02  0.72728166919E+02  0.10000000000E+01 0.  0.
    9000005    1    3    3    0    0 -0.56055955699E+02  0.24675570884E+02  0.12349756913E+02  0.62487362431E+02  0.10000000000E+01 0.  0.
<mgrwt>
<rscale>  0 0.12500033E+03</rscale>
<asrwt>0</asrwt>
<pdfrwt beam="1">  1        4 0.14367142E-01 0.12500033E+03</pdfrwt>
<pdfrwt beam="2">  1       -4 0.64352475E-02 0.12500033E+03</pdfrwt>
<totfact> 0.10233453E+04</totfact>
</mgrwt>
</event>
<event>
 5    1  0.3282421E-002  0.1249973E+03  0.7818608E-02  0.1235073E+00
          4   -1    0    0  501    0  0.00000000000E+00  0.00000000000E+00  0.36791633496E+02  0.36813546356E+02  0.12700000000E+01 0. -1.
         -4   -1    0    0    0  501 -0.00000000000E+00 -0.00000000000E+00 -0.10611035454E+03  0.10611795437E+03  0.12700000000E+01 0. -1.
         25    2    1    2    0    0  0.00000000000E+00  0.00000000000E+00 -0.69318721040E+02  0.14293150073E+03  0.12499731522E+03 0.  0.
    9000005    1    3    3    0    0 -0.34389635178E+02  0.52124075260E+02 -0.31973778797E+02  0.70163300663E+02  0.10000000000E+01 0.  0.
    9000005    1    3    3    0    0  0.34389635178E+02 -0.52124075260E+02 -0.37344942243E+02  0.72768200064E+02  0.10000000000E+01 0.  0.
<mgrwt>
<rscale>  0 0.12499732E+03</rscale>
<asrwt>0</asrwt>
<pdfrwt beam="1">  1        4 0.56625215E-02 0.12499732E+03</pdfrwt>
<pdfrwt beam="2">  1       -4 0.16326940E-01 0.12499732E+03</pdfrwt>
<totfact> 0.10073795E+04</totfact>
</mgrwt>
</event>
<event>
 5    1  0.3282421E-002  0.1249981E+03  0.7818608E-02  0.1235072E+00
         -4   -1    0    0    0  501 -0.00000000000E+00  0.00000000000E+00  0.16283228227E+03  0.16283723484E+03  0.12700000000E+01 0.  1.
          4   -1    0    0  501    0  0.00000000000E+00 -0.00000000000E+00 -0.23966538713E+02  0.24000164122E+02  0.12700000000E+01 0.  1.
         25    2    1    2    0    0  0.00000000000E+00  0.00000000000E+00  0.13886574356E+03  0.18683739896E+03  0.12499807565E+03 0.  0.
    9000005    1    3    3    0    0 -0.44958605768E+02 -0.43337714828E+02  0.73000210375E+02  0.96070101873E+02  0.10000000000E+01 0.  0.
    9000005    1    3    3    0    0  0.44958605768E+02  0.43337714828E+02  0.65865533187E+02  0.90767297091E+02  0.10000000000E+01 0.  0.
<mgrwt>
<rscale>  0 0.12499808E+03</rscale>
<asrwt>0</asrwt>
<pdfrwt beam="2">  1        4 0.36901272E-02 0.12499808E+03</pdfrwt>
<pdfrwt beam="1">  1       -4 0.25054089E-01 0.12499808E+03</pdfrwt>
<totfact> 0.92404510E+03</totfact>
</mgrwt>
</event>
<event>
 5    1  0.3282421E-002  0.1250207E+03  0.7818608E-02  0.1235037E+00
         -4   -1    0    0    0  501 -0.00000000000E+00  0.00000000000E+00  0.85112559594E+01  0.86054853440E+01  0.12700000000E+01 0.  1.
          4   -1    0    0  501    0  0.00000000000E+00 -0.00000000000E+00 -0.45648035806E+03  0.45648212473E+03  0.12700000000E+01 0.  1.
         25    2    1    2    0    0  0.00000000000E+00  0.00000000000E+00 -0.44796910210E+03  0.46508761007E+03  0.12502067271E+03 0.  0.
    9000005    1    3    3    0    0  0.24259533801E+02 -0.42311773910E+02 -0.36938855927E+03  0.37259591908E+03  0.10000000000E+01 0.  0.
    9000005    1    3    3    0    0 -0.24259533801E+02  0.42311773910E+02 -0.78580542832E+02  0.92491690997E+02  0.10000000000E+01 0.  0.
<mgrwt>
<rscale>  0 0.12502067E+03</rscale>
<asrwt>0</asrwt>
<pdfrwt beam="2">  1        4 0.70235113E-01 0.12502067E+03</pdfrwt>
<pdfrwt beam="1">  1       -4 0.13168087E-02 0.12502067E+03</pdfrwt>
<totfact> 0.58651993E+03</totfact>
</mgrwt>
</event>
<event>
 5    1  0.3282421E-002  0.1249994E+03  0.7818608E-02  0.1235070E+00
         -4   -1    0    0    0  501 -0.00000000000E+00  0.00000000000E+00  0.40951470911E+02  0.40971158999E+02  0.12700000000E+01 0. -1.
          4   -1    0    0  501    0  0.00000000000E+00 -0.00000000000E+00 -0.95339483564E+02  0.95347941909E+02  0.12700000000E+01 0. -1.
         25    2    1    2    0    0  0.00000000000E+00  0.00000000000E+00 -0.54388012653E+02  0.13631910091E+03  0.12499936541E+03 0.  0.
    9000005    1    3    3    0    0 -0.38789142592E+02 -0.21305774065E+02 -0.75310705337E+02  0.87356945516E+02  0.10000000000E+01 0.  0.
    9000005    1    3    3    0    0  0.38789142592E+02  0.21305774065E+02  0.20922692684E+02  0.48962155392E+02  0.10000000000E+01 0.  0.
<mgrwt>
<rscale>  0 0.12499937E+03</rscale>
<asrwt>0</asrwt>
<pdfrwt beam="2">  1        4 0.14669778E-01 0.12499937E+03</pdfrwt>
<pdfrwt beam="1">  1       -4 0.63023914E-02 0.12499937E+03</pdfrwt>
<totfact> 0.10210488E+04</totfact>
</mgrwt>
</event>
<event>
 5    1  0.3282421E-002  0.1250000E+03  0.7818608E-02  0.1235069E+00
          4   -1    0    0  501    0  0.00000000000E+00  0.00000000000E+00  0.22060048315E+03  0.22060413883E+03  0.12700000000E+01 0. -1.
         -4   -1    0    0    0  501 -0.00000000000E+00 -0.00000000000E+00 -0.17680770451E+02  0.17726323469E+02  0.12700000000E+01 0. -1.
         25    2    1    2    0    0  0.00000000000E+00  0.00000000000E+00  0.20291971270E+03  0.23833046230E+03  0.12499999782E+03 0.  0.
    9000005    1    3    3    0    0  0.45046484404E+02  0.38782393370E+02  0.13823337814E+03  0.15047500332E+03  0.10000000000E+01 0.  0.
    9000005    1    3    3    0    0 -0.45046484404E+02 -0.38782393370E+02  0.64686334565E+02  0.87855458977E+02  0.10000000000E+01 0.  0.
<mgrwt>
<rscale>  0 0.12500000E+03</rscale>
<asrwt>0</asrwt>
<pdfrwt beam="1">  1        4 0.33942321E-01 0.12500000E+03</pdfrwt>
<pdfrwt beam="2">  1       -4 0.27239038E-02 0.12500000E+03</pdfrwt>
<totfact> 0.84046648E+03</totfact>
</mgrwt>
</event>
<event>
 5    1  0.3282421E-002  0.1250024E+03  0.7818608E-02  0.1235066E+00
         -4   -1    0    0    0  501 -0.00000000000E+00  0.00000000000E+00  0.15777763573E+02  0.15828794123E+02  0.12700000000E+01 0. -1.
          4   -1    0    0  501    0  0.00000000000E+00 -0.00000000000E+00 -0.24713659922E+03  0.24713986237E+03  0.12700000000E+01 0. -1.
         25    2    1    2    0    0  0.00000000000E+00  0.00000000000E+00 -0.23135883565E+03  0.26296865650E+03  0.12500241385E+03 0.  0.
    9000005    1    3    3    0    0 -0.58070734188E+02 -0.14837634109E+02 -0.78458913492E+02  0.98737868426E+02  0.10000000000E+01 0.  0.
    9000005    1    3    3    0    0  0.58070734188E+02  0.14837634109E+02 -0.15289992215E+03  0.16423078807E+03  0.10000000000E+01 0.  0.
<mgrwt>
<rscale>  0 0.12500241E+03</rscale>
<asrwt>0</asrwt>
<pdfrwt beam="2">  1        4 0.38025189E-01 0.12500241E+03</pdfrwt>
<pdfrwt beam="1">  1       -4 0.24315249E-02 0.12500241E+03</pdfrwt>
<totfact> 0.80486926E+03</totfact>
</mgrwt>
</event>
<event>
 5    1  0.3282421E-002  0.1250025E+03  0.7818608E-02  0.1235065E+00
         -4   -1    0    0    0  501 -0.00000000000E+00  0.00000000000E+00  0.22314517796E+03  0.22314879194E+03  0.12700000000E+01 0. -1.
          4   -1    0    0  501    0  0.00000000000E+00 -0.00000000000E+00 -0.17479315678E+02  0.17525392337E+02  0.12700000000E+01 0. -1.
         25    2    1    2    0    0  0.00000000000E+00  0.00000000000E+00  0.20566586228E+03  0.24067418428E+03  0.12500246426E+03 0.  0.
    9000005    1    3    3    0    0 -0.42215671949E-01  0.17502960270E+02  0.21833899661E+03  0.21904171484E+03  0.10000000000E+01 0.  0.
    9000005    1    3    3    0    0  0.42215671949E-01 -0.17502960270E+02 -0.12673134328E+02  0.21632469440E+02  0.10000000000E+01 0.  0.
<mgrwt>
<rscale>  0 0.12500246E+03</rscale>
<asrwt>0</asrwt>
<pdfrwt beam="2">  1        4 0.26929478E-02 0.12500246E+03</pdfrwt>
<pdfrwt beam="1">  1       -4 0.34333850E-01 0.12500246E+03</pdfrwt>
<totfact> 0.83692463E+03</totfact>
</mgrwt>
</event>
<event>
 5    1  0.3282421E-002  0.1249982E+03  0.7818608E-02  0.1235072E+00
         -4   -1    0    0    0  501 -0.00000000000E+00  0.00000000000E+00  0.94798819173E+02  0.94807325754E+02  0.12700000000E+01 0. -1.
          4   -1    0    0  501    0  0.00000000000E+00 -0.00000000000E+00 -0.41184318896E+02  0.41203895725E+02  0.12700000000E+01 0. -1.
         25    2    1    2    0    0  0.00000000000E+00  0.00000000000E+00  0.53614500278E+02  0.13601122148E+03  0.12499815090E+03 0.  0.
    9000005    1    3    3    0    0 -0.12293299887E+02  0.61188966857E+02  0.30234273186E+02  0.69356514923E+02  0.10000000000E+01 0.  0.
    9000005    1    3    3    0    0  0.12293299887E+02 -0.61188966857E+02  0.23380227092E+02  0.66654706556E+02  0.10000000000E+01 0.  0.
<mgrwt>
<rscale>  0 0.12499815E+03</rscale>
<asrwt>0</asrwt>
<pdfrwt beam="2">  1        4 0.63382093E-02 0.12499815E+03</pdfrwt>
<pdfrwt beam="1">  1       -4 0.14586594E-01 0.12499815E+03</pdfrwt>
<totfact> 0.10217227E+04</totfact>
</mgrwt>
</event>
<event>
 5    1  0.3282421E-002  0.1250311E+03  0.7818608E-02  0.1235021E+00
         -4   -1    0    0    0  501 -0.00000000000E+00  0.00000000000E+00  0.13489260660E+03  0.13489858493E+03  0.12700000000E+01 0.  1.
          4   -1    0    0  501    0  0.00000000000E+00 -0.00000000000E+00 -0.28952098981E+02  0.28979940225E+02  0.12700000000E+01 0.  1.
         25    2    1    2    0    0  0.00000000000E+00  0.00000000000E+00  0.10594050762E+03  0.16387852516E+03  0.12503111553E+03 0.  0.
    9000005    1    3    3    0    0  0.55553920263E+02 -0.26519690103E+02  0.67187772069E+02  0.91130284403E+02  0.10000000000E+01 0.  0.
    9000005    1    3    3    0    0 -0.55553920263E+02  0.26519690103E+02  0.38752735553E+02  0.72748240753E+02  0.10000000000E+01 0.  0.
<mgrwt>
<rscale>  0 0.12503112E+03</rscale>
<asrwt>0</asrwt>
<pdfrwt beam="2">  1        4 0.44567707E-02 0.12503112E+03</pdfrwt>
<pdfrwt beam="1">  1       -4 0.20755309E-01 0.12503112E+03</pdfrwt>
<totfact> 0.96532703E+03</totfact>
</mgrwt>
</event>
<event>
 5    1  0.3282421E-002  0.1249986E+03  0.7818608E-02  0.1235071E+00
          4   -1    0    0  501    0  0.00000000000E+00  0.00000000000E+00  0.88742802271E+01  0.89646946155E+01  0.12700000000E+01 0. -1.
         -4   -1    0    0    0  501 -0.00000000000E+00 -0.00000000000E+00 -0.43784440957E+03  0.43784625143E+03  0.12700000000E+01 0. -1.
         25    2    1    2    0    0  0.00000000000E+00  0.00000000000E+00 -0.42897012935E+03  0.44681094605E+03  0.12499859854E+03 0.  0.
    9000005    1    3    3    0    0 -0.50245067347E+01 -0.52802881490E+02 -0.33259453593E+03  0.33679892412E+03  0.10000000000E+01 0.  0.
    9000005    1    3    3    0    0  0.50245067347E+01  0.52802881490E+02 -0.96375593420E+02  0.11001202193E+03  0.10000000000E+01 0.  0.
<mgrwt>
<rscale>  0 0.12499860E+03</rscale>
<asrwt>0</asrwt>
<pdfrwt beam="1">  1        4 0.13723709E-02 0.12499860E+03</pdfrwt>
<pdfrwt beam="2">  1       -4 0.67367759E-01 0.12499860E+03</pdfrwt>
<totfact> 0.60242928E+03</totfact>
</mgrwt>
</event>
<event>
 5    1  0.3282421E-002  0.1250010E+03  0.7818608E-02  0.1235068E+00
          4   -1    0    0  501    0  0.00000000000E+00  0.00000000000E+00  0.10531944233E+04  0.10531951890E+04  0.12700000000E+01 0. -1.
         -4   -1    0    0    0  501 -0.00000000000E+00 -0.00000000000E+00 -0.35995084717E+01  0.38169832640E+01  0.12700000000E+01 0. -1.
         25    2    1    2    0    0  0.00000000000E+00  0.00000000000E+00  0.10495949148E+04  0.10570121722E+04  0.12500098847E+03 0.  0.
    9000005    1    3    3    0    0 -0.91712790296E+01 -0.30278581761E+01  0.10468867438E+04  0.10469317718E+04  0.10000000000E+01 0.  0.
    9000005    1    3    3    0    0  0.91712790296E+01  0.30278581761E+01  0.27081709553E+01  0.10080400493E+02  0.10000000000E+01 0.  0.
<mgrwt>
<rscale>  0 0.12500099E+03</rscale>
<asrwt>0</asrwt>
<pdfrwt beam="1">  1        4 0.16204671E+00 0.12500099E+03</pdfrwt>
<pdfrwt beam="2">  1       -4 0.57055822E-03 0.12500099E+03</pdfrwt>
<totfact> 0.28776204E+03</totfact>
</mgrwt>
</event>
<event>
 5    1  0.3282421E-002  0.1249990E+03  0.7818608E-02  0.1235071E+00
          4   -1    0    0  501    0  0.00000000000E+00  0.00000000000E+00  0.17071721838E+02  0.17118895599E+02  0.12700000000E+01 0.  1.
         -4   -1    0    0    0  501 -0.00000000000E+00 -0.00000000000E+00 -0.22844585506E+03  0.22844938519E+03  0.12700000000E+01 0.  1.
         25    2    1    2    0    0  0.00000000000E+00  0.00000000000E+00 -0.21137413322E+03  0.24556828079E+03  0.12499902534E+03 0.  0.
    9000005    1    3    3    0    0 -0.57641768763E+02 -0.86774619221E+01 -0.61437863861E+02  0.84696416496E+02  0.10000000000E+01 0.  0.
    9000005    1    3    3    0    0  0.57641768763E+02  0.86774619221E+01 -0.14993626936E+03  0.16087186429E+03  0.10000000000E+01 0.  0.
<mgrwt>
<rscale>  0 0.12499903E+03</rscale>
<asrwt>0</asrwt>
<pdfrwt beam="1">  1        4 0.26303192E-02 0.12499903E+03</pdfrwt>
<pdfrwt beam="2">  1       -4 0.35149414E-01 0.12499903E+03</pdfrwt>
<totfact> 0.82976801E+03</totfact>
</mgrwt>
</event>
<event>
 5    1  0.3282421E-002  0.1249936E+03  0.7818608E-02  0.1235079E+00
          4   -1    0    0  501    0  0.00000000000E+00  0.00000000000E+00  0.59074691654E+02  0.59088341439E+02  0.12700000000E+01 0.  1.
         -4   -1    0    0    0  501 -0.00000000000E+00 -0.00000000000E+00 -0.66089756892E+02  0.66101958111E+02  0.12700000000E+01 0.  1.
         25    2    1    2    0    0  0.00000000000E+00  0.00000000000E+00 -0.70150652380E+01  0.12519029955E+03  0.12499359968E+03 0.  0.
    9000005    1    3    3    0    0  0.61437002937E+02  0.49672613244E+01  0.67882831082E+01  0.62018221536E+02  0.10000000000E+01 0.  0.
    9000005    1    3    3    0    0 -0.61437002937E+02 -0.49672613244E+01 -0.13803348346E+02  0.63172078014E+02  0.10000000000E+01 0.  0.
<mgrwt>
<rscale>  0 0.12499360E+03</rscale>
<asrwt>0</asrwt>
<pdfrwt beam="1">  1        4 0.90904027E-02 0.12499360E+03</pdfrwt>
<pdfrwt beam="2">  1       -4 0.10169643E-01 0.12499360E+03</pdfrwt>
<totfact> 0.10450242E+04</totfact>
</mgrwt>
</event>
<event>
 5    1  0.3282421E-002  0.1250005E+03  0.7818608E-02  0.1235069E+00
         -4   -1    0    0    0  501 -0.00000000000E+00  0.00000000000E+00  0.63443240106E+02  0.63455950195E+02  0.12700000000E+01 0. -1.
          4   -1    0    0  501    0  0.00000000000E+00 -0.00000000000E+00 -0.61545833573E+02  0.61558935422E+02  0.12700000000E+01 0. -1.
         25    2    1    2    0    0  0.00000000000E+00  0.00000000000E+00  0.18974065330E+01  0.12501488562E+03  0.12500048590E+03 0.  0.
    9000005    1    3    3    0    0  0.35920562388E+02  0.31211653228E+02 -0.39563076853E+02  0.61892577500E+02  0.10000000000E+01 0.  0.
    9000005    1    3    3    0    0 -0.35920562388E+02 -0.31211653228E+02  0.41460483386E+02  0.63122308117E+02  0.10000000000E+01 0.  0.
<mgrwt>
<rscale>  0 0.12500049E+03</rscale>
<asrwt>0</asrwt>
<pdfrwt beam="2">  1        4 0.94705752E-02 0.12500049E+03</pdfrwt>
<pdfrwt beam="1">  1       -4 0.97624841E-02 0.12500049E+03</pdfrwt>
<totfact> 0.10452424E+04</totfact>
</mgrwt>
</event>
<event>
 5    1  0.3282421E-002  0.1249996E+03  0.7818608E-02  0.1235070E+00
         -4   -1    0    0    0  501 -0.00000000000E+00  0.00000000000E+00  0.75473719961E+01  0.76534779053E+01  0.12700000000E+01 0.  1.
          4   -1    0    0  501    0  0.00000000000E+00 -0.00000000000E+00 -0.51384127186E+03  0.51384284131E+03  0.12700000000E+01 0.  1.
         25    2    1    2    0    0  0.00000000000E+00  0.00000000000E+00 -0.50629389986E+03  0.52149631922E+03  0.12499959167E+03 0.  0.
    9000005    1    3    3    0    0 -0.12815221908E+02 -0.36259310977E+02 -0.45864658167E+03  0.46025716119E+03  0.10000000000E+01 0.  0.
    9000005    1    3    3    0    0  0.12815221908E+02  0.36259310977E+02 -0.47647318189E+02  0.61239158026E+02  0.10000000000E+01 0.  0.
<mgrwt>
<rscale>  0 0.12499959E+03</rscale>
<asrwt>0</asrwt>
<pdfrwt beam="2">  1        4 0.79060759E-01 0.12499959E+03</pdfrwt>
<pdfrwt beam="1">  1       -4 0.11694173E-02 0.12499959E+03</pdfrwt>
<totfact> 0.54234754E+03</totfact>
</mgrwt>
</event>
<event>
 5    1  0.3282421E-002  0.1250093E+03  0.7818608E-02  0.1235055E+00
         -4   -1    0    0    0  501 -0.00000000000E+00  0.00000000000E+00  0.29811680563E+02  0.29838719778E+02  0.12700000000E+01 0. -1.
          4   -1    0    0  501    0  0.00000000000E+00 -0.00000000000E+00 -0.13096082300E+03  0.13096698080E+03  0.12700000000E+01 0. -1.
         25    2    1    2    0    0  0.00000000000E+00  0.00000000000E+00 -0.10114914244E+03  0.16080570058E+03  0.12500929695E+03 0.  0.
    9000005    1    3    3    0    0 -0.50801928609E+01 -0.52580212428E+02 -0.76146434977E+01  0.53380426133E+02  0.10000000000E+01 0.  0.
    9000005    1    3    3    0    0  0.50801928609E+01  0.52580212428E+02 -0.93534498940E+02  0.10742527445E+03  0.10000000000E+01 0.  0.
<mgrwt>
<rscale>  0 0.12500930E+03</rscale>
<asrwt>0</asrwt>
<pdfrwt beam="2">  1        4 0.20150372E-01 0.12500930E+03</pdfrwt>
<pdfrwt beam="1">  1       -4 0.45889661E-02 0.12500930E+03</pdfrwt>
<totfact> 0.97167372E+03</totfact>
</mgrwt>
</event>
<event>
 5    1  0.3282421E-002  0.1250023E+03  0.7818608E-02  0.1235066E+00
         -4   -1    0    0    0  501 -0.00000000000E+00  0.00000000000E+00  0.15368890248E+03  0.15369414968E+03  0.12700000000E+01 0.  1.
          4   -1    0    0  501    0  0.00000000000E+00 -0.00000000000E+00 -0.25395990734E+02  0.25427725918E+02  0.12700000000E+01 0.  1.
         25    2    1    2    0    0  0.00000000000E+00  0.00000000000E+00  0.12829291174E+03  0.17912187559E+03  0.12500230043E+03 0.  0.
    9000005    1    3    3    0    0  0.39879330752E+02  0.28865928483E+02  0.11930643443E+03  0.12906830806E+03  0.10000000000E+01 0.  0.
    9000005    1    3    3    0    0 -0.39879330752E+02 -0.28865928483E+02  0.89864773118E+01  0.50053567534E+02  0.10000000000E+01 0.  0.
<mgrwt>
<rscale>  0 0.12500230E+03</rscale>
<asrwt>0</asrwt>
<pdfrwt beam="2">  1        4 0.39099203E-02 0.12500230E+03</pdfrwt>
<pdfrwt beam="1">  1       -4 0.23647291E-01 0.12500230E+03</pdfrwt>
<totfact> 0.93770470E+03</totfact>
</mgrwt>
</event>
<event>
 5    1  0.3282421E-002  0.1249992E+03  0.7818608E-02  0.1235071E+00
          4   -1    0    0  501    0  0.00000000000E+00  0.00000000000E+00  0.18505147888E+03  0.18505583681E+03  0.12700000000E+01 0. -1.
         -4   -1    0    0    0  501 -0.00000000000E+00 -0.00000000000E+00 -0.21085009513E+02  0.21123222438E+02  0.12700000000E+01 0. -1.
         25    2    1    2    0    0  0.00000000000E+00  0.00000000000E+00  0.16396646937E+03  0.20617905925E+03  0.12499920557E+03 0.  0.
    9000005    1    3    3    0    0 -0.22121534586E+01  0.59621347986E+02  0.51319491659E+02  0.78703805389E+02  0.10000000000E+01 0.  0.
    9000005    1    3    3    0    0  0.22121534586E+01 -0.59621347986E+02  0.11264697771E+03  0.12747525386E+03  0.10000000000E+01 0.  0.
<mgrwt>
<rscale>  0 0.12499921E+03</rscale>
<asrwt>0</asrwt>
<pdfrwt beam="1">  1        4 0.28472733E-01 0.12499921E+03</pdfrwt>
<pdfrwt beam="2">  1       -4 0.32471223E-02 0.12499921E+03</pdfrwt>
<totfact> 0.89105299E+03</totfact>
</mgrwt>
</event>
<event>
 5    1  0.3282421E-002  0.1250005E+03  0.7818608E-02  0.1235069E+00
          4   -1    0    0  501    0  0.00000000000E+00  0.00000000000E+00  0.36909949669E+02  0.36931792329E+02  0.12700000000E+01 0.  1.
         -4   -1    0    0    0  501 -0.00000000000E+00 -0.00000000000E+00 -0.10577574003E+03  0.10578336390E+03  0.12700000000E+01 0.  1.
         25    2    1    2    0    0  0.00000000000E+00  0.00000000000E+00 -0.68865790359E+02  0.14271515623E+03  0.12500047494E+03 0.  0.
    9000005    1    3    3    0    0 -0.47049670182E+02 -0.35497763009E+02 -0.10716023175E+02  0.59913235562E+02  0.10000000000E+01 0.  0.
    9000005    1    3    3    0    0  0.47049670182E+02  0.35497763009E+02 -0.58149767185E+02  0.82801920669E+02  0.10000000000E+01 0.  0.
<mgrwt>
<rscale>  0 0.12500047E+03</rscale>
<asrwt>0</asrwt>
<pdfrwt beam="1">  1        4 0.56807205E-02 0.12500047E+03</pdfrwt>
<pdfrwt beam="2">  1       -4 0.16275457E-01 0.12500047E+03</pdfrwt>
<totfact> 0.10077512E+04</totfact>
</mgrwt>
</event>
<event>
 5    1  0.3282421E-002  0.1249934E+03  0.7818608E-02  0.1235080E+00
         -4   -1    0    0    0  501 -0.00000000000E+00  0.00000000000E+00  0.63617935875E+02  0.63630611069E+02  0.12700000000E+01 0. -1.
          4   -1    0    0  501    0  0.00000000000E+00 -0.00000000000E+00 -0.61369832333E+02  0.61382971748E+02  0.12700000000E+01 0. -1.
         25    2    1    2    0    0  0.00000000000E+00  0.00000000000E+00  0.22481035417E+01  0.12501358282E+03  0.12499336750E+03 0.  0.
    9000005    1    3    3    0    0  0.63519475526E+01  0.38994897999E+02 -0.47297476418E+02  0.61636033155E+02  0.10000000000E+01 0.  0.
    9000005    1    3    3    0    0 -0.63519475526E+01 -0.38994897999E+02  0.49545579959E+02  0.63377549662E+02  0.10000000000E+01 0.  0.
<mgrwt>
<rscale>  0 0.12499337E+03</rscale>
<asrwt>0</asrwt>
<pdfrwt beam="2">  1        4 0.94434984E-02 0.12499337E+03</pdfrwt>
<pdfrwt beam="1">  1       -4 0.97893605E-02 0.12499337E+03</pdfrwt>
<totfact> 0.10454135E+04</totfact>
</mgrwt>
</event>
<event>
 5    1  0.3282421E-002  0.1250011E+03  0.7818608E-02  0.1235068E+00
          4   -1    0    0  501    0  0.00000000000E+00  0.00000000000E+00  0.12997724128E+03  0.12998344568E+03  0.12700000000E+01 0.  1.
         -4   -1    0    0    0  501 -0.00000000000E+00 -0.00000000000E+00 -0.30033536626E+02  0.30060376283E+02  0.12700000000E+01 0.  1.
         25    2    1    2    0    0  0.00000000000E+00  0.00000000000E+00  0.99943704650E+02  0.16004382196E+03  0.12500112339E+03 0.  0.
    9000005    1    3    3    0    0 -0.60289166236E+02  0.14569027713E+02  0.59746138725E+02  0.86125729178E+02  0.10000000000E+01 0.  0.
    9000005    1    3    3    0    0  0.60289166236E+02 -0.14569027713E+02  0.40197565925E+02  0.73918092780E+02  0.10000000000E+01 0.  0.
<mgrwt>
<rscale>  0 0.12500112E+03</rscale>
<asrwt>0</asrwt>
<pdfrwt beam="1">  1        4 0.19999040E-01 0.12500112E+03</pdfrwt>
<pdfrwt beam="2">  1       -4 0.46230861E-02 0.12500112E+03</pdfrwt>
<totfact> 0.97331880E+03</totfact>
</mgrwt>
</event>
<event>
 5    1  0.3282421E-002  0.1250024E+03  0.7818608E-02  0.1235066E+00
         -4   -1    0    0    0  501 -0.00000000000E+00  0.00000000000E+00  0.44330957991E+02  0.44349145836E+02  0.12700000000E+01 0.  1.
          4   -1    0    0  501    0  0.00000000000E+00 -0.00000000000E+00 -0.88078163965E+02  0.88087319561E+02  0.12700000000E+01 0.  1.
         25    2    1    2    0    0  0.00000000000E+00  0.00000000000E+00 -0.43747205974E+02  0.13243646540E+03  0.12500239732E+03 0.  0.
    9000005    1    3    3    0    0  0.24623170973E+02 -0.50343127304E+02  0.74235844612E+01  0.56540610377E+02  0.10000000000E+01 0.  0.
    9000005    1    3    3    0    0 -0.24623170973E+02  0.50343127304E+02 -0.51170790435E+02  0.75895855021E+02  0.10000000000E+01 0.  0.
<mgrwt>
<rscale>  0 0.12500240E+03</rscale>
<asrwt>0</asrwt>
<pdfrwt beam="2">  1        4 0.13552590E-01 0.12500240E+03</pdfrwt>
<pdfrwt beam="1">  1       -4 0.68222507E-02 0.12500240E+03</pdfrwt>
<totfact> 0.10291835E+04</totfact>
</mgrwt>
</event>
<event>
 5    1  0.3282421E-002  0.1250007E+03  0.7818608E-02  0.1235068E+00
         -4   -1    0    0    0  501 -0.00000000000E+00  0.00000000000E+00  0.12297426778E+04  0.12297433336E+04  0.12700000000E+01 0. -1.
          4   -1    0    0  501    0  0.00000000000E+00 -0.00000000000E+00 -0.30488884763E+01  0.33028201496E+01  0.12700000000E+01 0. -1.
         25    2    1    2    0    0  0.00000000000E+00  0.00000000000E+00  0.12266937893E+04  0.12330461537E+04  0.12500065792E+03 0.  0.
    9000005    1    3    3    0    0 -0.22388200159E+02  0.54551194768E+02  0.40921825704E+03  0.41344606208E+03  0.10000000000E+01 0.  0.
    9000005    1    3    3    0    0  0.22388200159E+02 -0.54551194768E+02  0.81747553227E+03  0.81960009164E+03  0.10000000000E+01 0.  0.
<mgrwt>
<rscale>  0 0.12500066E+03</rscale>
<asrwt>0</asrwt>
<pdfrwt beam="2">  1        4 0.48864275E-03 0.12500066E+03</pdfrwt>
<pdfrwt beam="1">  1       -4 0.18921102E+00 0.12500066E+03</pdfrwt>
<totfact> 0.23863405E+03</totfact>
</mgrwt>
</event>
<event>
 5    1  0.3282421E-002  0.1249993E+03  0.7818608E-02  0.1235070E+00
         -4   -1    0    0    0  501 -0.00000000000E+00  0.00000000000E+00  0.27431856009E+03  0.27432149990E+03  0.12700000000E+01 0.  1.
          4   -1    0    0  501    0  0.00000000000E+00 -0.00000000000E+00 -0.14208330368E+02  0.14264976405E+02  0.12700000000E+01 0.  1.
         25    2    1    2    0    0  0.00000000000E+00  0.00000000000E+00  0.26011022972E+03  0.28858647630E+03  0.12499929081E+03 0.  0.
    9000005    1    3    3    0    0 -0.41611483105E+02 -0.38497317666E+02  0.69338077087E+02  0.89567449042E+02  0.10000000000E+01 0.  0.
    9000005    1    3    3    0    0  0.41611483105E+02  0.38497317666E+02  0.19077215263E+03  0.19901902726E+03  0.10000000000E+01 0.  0.
<mgrwt>
<rscale>  0 0.12499929E+03</rscale>
<asrwt>0</asrwt>
<pdfrwt beam="2">  1        4 0.21904805E-02 0.12499929E+03</pdfrwt>
<pdfrwt beam="1">  1       -4 0.42207440E-01 0.12499929E+03</pdfrwt>
<totfact> 0.77054415E+03</totfact>
</mgrwt>
</event>
<event>
 5    1  0.3282421E-002  0.1250025E+03  0.7818608E-02  0.1235065E+00
         -4   -1    0    0    0  501 -0.00000000000E+00  0.00000000000E+00  0.18938950667E+02  0.18981484461E+02  0.12700000000E+01 0. -1.
          4   -1    0    0  501    0  0.00000000000E+00 -0.00000000000E+00 -0.20598719726E+03  0.20599111227E+03  0.12700000000E+01 0. -1.
         25    2    1    2    0    0  0.00000000000E+00  0.00000000000E+00 -0.18704824659E+03  0.22497259673E+03  0.12500249088E+03 0.  0.
    9000005    1    3    3    0    0  0.21390198613E+02  0.24364309668E+01 -0.19911147586E+03  0.20027445322E+03  0.10000000000E+01 0.  0.
    9000005    1    3    3    0    0 -0.21390198613E+02 -0.24364309668E+01  0.12063229269E+02  0.24698143513E+02  0.10000000000E+01 0.  0.
<mgrwt>
<rscale>  0 0.12500249E+03</rscale>
<asrwt>0</asrwt>
<pdfrwt beam="2">  1        4 0.31693909E-01 0.12500249E+03</pdfrwt>
<pdfrwt beam="1">  1       -4 0.29172578E-02 0.12500249E+03</pdfrwt>
<totfact> 0.86082779E+03</totfact>
</mgrwt>
</event>
<event>
 5    1  0.3282421E-002  0.1249978E+03  0.7818608E-02  0.1235073E+00
          4   -1    0    0  501    0  0.00000000000E+00  0.00000000000E+00  0.11188799191E+02  0.11260645068E+02  0.12700000000E+01 0. -1.
         -4   -1    0    0    0  501 -0.00000000000E+00 -0.00000000000E+00 -0.34791898493E+03  0.34792130285E+03  0.12700000000E+01 0. -1.
         25    2    1    2    0    0  0.00000000000E+00  0.00000000000E+00 -0.33673018574E+03  0.35918194792E+03  0.12499781486E+03 0.  0.
    9000005    1    3    3    0    0 -0.56634798051E+02  0.38784245811E+01 -0.24343847224E+03  0.24997166299E+03  0.10000000000E+01 0.  0.
    9000005    1    3    3    0    0  0.56634798051E+02 -0.38784245811E+01 -0.93291713498E+02  0.10921028493E+03  0.10000000000E+01 0.  0.
<mgrwt>
<rscale>  0 0.12499781E+03</rscale>
<asrwt>0</asrwt>
<pdfrwt beam="1">  1        4 0.17270589E-02 0.12499781E+03</pdfrwt>
<pdfrwt beam="2">  1       -4 0.53531694E-01 0.12499781E+03</pdfrwt>
<totfact> 0.68729428E+03</totfact>
</mgrwt>
</event>
<event>
 5    1  0.3282421E-002  0.1250009E+03  0.7818608E-02  0.1235068E+00
         -4   -1    0    0    0  501 -0.00000000000E+00  0.00000000000E+00  0.77498398336E+03  0.77498502396E+03  0.12700000000E+01 0.  1.
          4   -1    0    0  501    0  0.00000000000E+00 -0.00000000000E+00 -0.49594454577E+01  0.51194725557E+01  0.12700000000E+01 0.  1.
         25    2    1    2    0    0  0.00000000000E+00  0.00000000000E+00  0.77002453790E+03  0.78010449652E+03  0.12500094606E+03 0.  0.
    9000005    1    3    3    0    0  0.21679808104E+02  0.66738099282E+01  0.74841459814E+03  0.74875894954E+03  0.10000000000E+01 0.  0.
    9000005    1    3    3    0    0 -0.21679808104E+02 -0.66738099282E+01  0.21609939767E+02  0.31345546975E+02  0.10000000000E+01 0.  0.
<mgrwt>
<rscale>  0 0.12500095E+03</rscale>
<asrwt>0</asrwt>
<pdfrwt beam="2">  1        4 0.77538143E-03 0.12500095E+03</pdfrwt>
<pdfrwt beam="1">  1       -4 0.11924070E+00 0.12500095E+03</pdfrwt>
<totfact> 0.39167678E+03</totfact>
</mgrwt>
</event>
<event>
 5    1  0.3282421E-002  0.1249994E+03  0.7818608E-02  0.1235070E+00
          4   -1    0    0  501    0  0.00000000000E+00  0.00000000000E+00  0.18779037874E+03  0.18779467310E+03  0.12700000000E+01 0.  1.
         -4   -1    0    0    0  501 -0.00000000000E+00 -0.00000000000E+00 -0.20776983208E+02  0.20815761605E+02  0.12700000000E+01 0.  1.
         25    2    1    2    0    0  0.00000000000E+00  0.00000000000E+00  0.16701339553E+03  0.20861043471E+03  0.12499935673E+03 0.  0.
    9000005    1    3    3    0    0  0.47413090187E+02  0.40708822601E+02  0.83541594795E+02  0.10433315590E+03  0.10000000000E+01 0.  0.
    9000005    1    3    3    0    0 -0.47413090187E+02 -0.40708822601E+02  0.83471800735E+02  0.10427727881E+03  0.10000000000E+01 0.  0.
<mgrwt>
<rscale>  0 0.12499936E+03</rscale>
<asrwt>0</asrwt>
<pdfrwt beam="1">  1        4 0.28894142E-01 0.12499936E+03</pdfrwt>
<pdfrwt beam="2">  1       -4 0.31997721E-02 0.12499936E+03</pdfrwt>
<totfact> 0.88704593E+03</totfact>
</mgrwt>
</event>
<event>
 5    1  0.3282421E-002  0.1250020E+03  0.7818608E-02  0.1235066E+00
         -4   -1    0    0    0  501 -0.00000000000E+00  0.00000000000E+00  0.32716798449E+02  0.32741438587E+02  0.12700000000E+01 0.  1.
          4   -1    0    0  501    0  0.00000000000E+00 -0.00000000000E+00 -0.11932671338E+03  0.11933347153E+03  0.12700000000E+01 0.  1.
         25    2    1    2    0    0  0.00000000000E+00  0.00000000000E+00 -0.86609914933E+02  0.15207491011E+03  0.12500200367E+03 0.  0.
    9000005    1    3    3    0    0  0.37010027666E+02 -0.29638106990E+02  0.62206844297E+01  0.47831542402E+02  0.10000000000E+01 0.  0.
    9000005    1    3    3    0    0 -0.37010027666E+02  0.29638106990E+02 -0.92830599363E+02  0.10424336771E+03  0.10000000000E+01 0.  0.
<mgrwt>
<rscale>  0 0.12500200E+03</rscale>
<asrwt>0</asrwt>
<pdfrwt beam="2">  1        4 0.18360371E-01 0.12500200E+03</pdfrwt>
<pdfrwt beam="1">  1       -4 0.50357689E-02 0.12500200E+03</pdfrwt>
<totfact> 0.98887235E+03</totfact>
</mgrwt>
</event>
<event>
 5    1  0.3282421E-002  0.1250002E+03  0.7818608E-02  0.1235069E+00
          4   -1    0    0  501    0  0.00000000000E+00  0.00000000000E+00  0.86105912708E+01  0.87037452877E+01  0.12700000000E+01 0.  1.
         -4   -1    0    0    0  501 -0.00000000000E+00 -0.00000000000E+00 -0.45112294380E+03  0.45112473144E+03  0.12700000000E+01 0.  1.
         25    2    1    2    0    0  0.00000000000E+00  0.00000000000E+00 -0.44251235252E+03  0.45982847673E+03  0.12500018350E+03 0.  0.
    9000005    1    3    3    0    0  0.41054321360E+02  0.37442177276E+01 -0.48486785347E+02  0.63650960888E+02  0.10000000000E+01 0.  0.
    9000005    1    3    3    0    0 -0.41054321360E+02 -0.37442177276E+01 -0.39402556718E+03  0.39617751584E+03  0.10000000000E+01 0.  0.
<mgrwt>
<rscale>  0 0.12500018E+03</rscale>
<asrwt>0</asrwt>
<pdfrwt beam="1">  1        4 0.13320099E-02 0.12500018E+03</pdfrwt>
<pdfrwt beam="2">  1       -4 0.69410815E-01 0.12500018E+03</pdfrwt>
<totfact> 0.59121481E+03</totfact>
</mgrwt>
</event>
<event>
 5    1  0.3282421E-002  0.1250179E+03  0.7818608E-02  0.1235041E+00
         -4   -1    0    0    0  501 -0.00000000000E+00  0.00000000000E+00  0.50340882640E+02  0.50356899875E+02  0.12700000000E+01 0. -1.
          4   -1    0    0  501    0  0.00000000000E+00 -0.00000000000E+00 -0.77584681262E+02  0.77595075015E+02  0.12700000000E+01 0. -1.
         25    2    1    2    0    0  0.00000000000E+00  0.00000000000E+00 -0.27243798622E+02  0.12795197489E+03  0.12501793197E+03 0.  0.
    9000005    1    3    3    0    0 -0.55491343632E+02  0.23631874569E+02 -0.30396056741E+02  0.67547575671E+02  0.10000000000E+01 0.  0.
    9000005    1    3    3    0    0  0.55491343632E+02 -0.23631874569E+02  0.31522581184E+01  0.60404399218E+02  0.10000000000E+01 0.  0.
<mgrwt>
<rscale>  0 0.12501793E+03</rscale>
<asrwt>0</asrwt>
<pdfrwt beam="2">  1        4 0.11938136E-01 0.12501793E+03</pdfrwt>
<pdfrwt beam="1">  1       -4 0.77467829E-02 0.12501793E+03</pdfrwt>
<totfact> 0.10384321E+04</totfact>
</mgrwt>
</event>
<event>
 5    1  0.3282421E-002  0.1249996E+03  0.7818608E-02  0.1235070E+00
          4   -1    0    0  501    0  0.00000000000E+00  0.00000000000E+00  0.43433351922E+02  0.43451915484E+02  0.12700000000E+01 0.  1.
         -4   -1    0    0    0  501 -0.00000000000E+00 -0.00000000000E+00 -0.89893735546E+02  0.89902706246E+02  0.12700000000E+01 0.  1.
         25    2    1    2    0    0  0.00000000000E+00  0.00000000000E+00 -0.46460383624E+02  0.13335462173E+03  0.12499955156E+03 0.  0.
    9000005    1    3    3    0    0 -0.24470095650E+02 -0.21725791780E+02 -0.80028082325E+02  0.86465539785E+02  0.10000000000E+01 0.  0.
    9000005    1    3    3    0    0  0.24470095650E+02  0.21725791780E+02  0.33567698701E+02  0.46889081945E+02  0.10000000000E+01 0.  0.
<mgrwt>
<rscale>  0 0.12499955E+03</rscale>
<asrwt>0</asrwt>
<pdfrwt beam="1">  1        4 0.66841722E-02 0.12499955E+03</pdfrwt>
<pdfrwt beam="2">  1       -4 0.13831923E-01 0.12499955E+03</pdfrwt>
<totfact> 0.10272973E+04</totfact>
</mgrwt>
</event>
<event>
 5    1  0.3282421E-002  0.1250012E+03  0.7818608E-02  0.1235067E+00
         -4   -1    0    0    0  501 -0.00000000000E+00  0.00000000000E+00  0.40242412732E+03  0.40242613129E+03  0.12700000000E+01 0.  1.
          4   -1    0    0  501    0  0.00000000000E+00 -0.00000000000E+00 -0.96634017146E+01  0.97464984840E+01  0.12700000000E+01 0.  1.
         25    2    1    2    0    0  0.00000000000E+00  0.00000000000E+00  0.39276072560E+03  0.41217262978E+03  0.12500115664E+03 0.  0.
    9000005    1    3    3    0    0  0.26389146845E+02  0.11703006578E+02  0.13623394121E+02  0.31936566840E+02  0.10000000000E+01 0.  0.
    9000005    1    3    3    0    0 -0.26389146845E+02 -0.11703006578E+02  0.37913733148E+03  0.38023606294E+03  0.10000000000E+01 0.  0.
<mgrwt>
<rscale>  0 0.12500116E+03</rscale>
<asrwt>0</asrwt>
<pdfrwt beam="2">  1        4 0.14932230E-02 0.12500116E+03</pdfrwt>
<pdfrwt beam="1">  1       -4 0.61917966E-01 0.12500116E+03</pdfrwt>
<totfact> 0.63384236E+03</totfact>
</mgrwt>
</event>
<event>
 5    1  0.3282421E-002  0.1249987E+03  0.7818608E-02  0.1235071E+00
         -4   -1    0    0    0  501 -0.00000000000E+00  0.00000000000E+00  0.27070813673E+02  0.27100587686E+02  0.12700000000E+01 0.  1.
          4   -1    0    0  501    0  0.00000000000E+00 -0.00000000000E+00 -0.14418259342E+03  0.14418818657E+03  0.12700000000E+01 0.  1.
         25    2    1    2    0    0  0.00000000000E+00  0.00000000000E+00 -0.11711177975E+03  0.17128877426E+03  0.12499870091E+03 0.  0.
    9000005    1    3    3    0    0 -0.38498898528E+02  0.33129366472E+02 -0.86668824672E+01  0.51534793707E+02  0.10000000000E+01 0.  0.
    9000005    1    3    3    0    0  0.38498898528E+02 -0.33129366472E+02 -0.10844489728E+03  0.11975398055E+03  0.10000000000E+01 0.  0.
<mgrwt>
<rscale>  0 0.12499870E+03</rscale>
<asrwt>0</asrwt>
<pdfrwt beam="2">  1        4 0.22184658E-01 0.12499870E+03</pdfrwt>
<pdfrwt beam="1">  1       -4 0.41674612E-02 0.12499870E+03</pdfrwt>
<totfact> 0.95211747E+03</totfact>
</mgrwt>
</event>
<event>
 5    1  0.3282421E-002  0.1250012E+03  0.7818608E-02  0.1235067E+00
          4   -1    0    0  501    0  0.00000000000E+00  0.00000000000E+00  0.23835721882E+03  0.23836060217E+03  0.12700000000E+01 0.  1.
         -4   -1    0    0    0  501 -0.00000000000E+00 -0.00000000000E+00 -0.16360430018E+02  0.16409648697E+02  0.12700000000E+01 0.  1.
         25    2    1    2    0    0  0.00000000000E+00  0.00000000000E+00  0.22199678880E+03  0.25477025086E+03  0.12500122594E+03 0.  0.
    9000005    1    3    3    0    0 -0.18737686481E+02 -0.13535322588E+02 -0.73371345846E+01  0.24272193888E+02  0.10000000000E+01 0.  0.
    9000005    1    3    3    0    0  0.18737686481E+02  0.13535322588E+02  0.22933392339E+03  0.23049805697E+03  0.10000000000E+01 0.  0.
<mgrwt>
<rscale>  0 0.12500123E+03</rscale>
<asrwt>0</asrwt>
<pdfrwt beam="1">  1        4 0.36674388E-01 0.12500123E+03</pdfrwt>
<pdfrwt beam="2">  1       -4 0.25210355E-02 0.12500123E+03</pdfrwt>
<totfact> 0.81643399E+03</totfact>
</mgrwt>
</event>
<event>
 5    1  0.3282421E-002  0.1249993E+03  0.7818608E-02  0.1235070E+00
         -4   -1    0    0    0  501 -0.00000000000E+00  0.00000000000E+00  0.20189948098E+02  0.20229851808E+02  0.12700000000E+01 0. -1.
          4   -1    0    0  501    0  0.00000000000E+00 -0.00000000000E+00 -0.19323975131E+03  0.19324392458E+03  0.12700000000E+01 0. -1.
         25    2    1    2    0    0  0.00000000000E+00  0.00000000000E+00 -0.17304980321E+03  0.21347377639E+03  0.12499927525E+03 0.  0.
    9000005    1    3    3    0    0 -0.44970298173E+02  0.19926969210E+02 -0.20696065756E+02  0.53373579208E+02  0.10000000000E+01 0.  0.
    9000005    1    3    3    0    0  0.44970298173E+02 -0.19926969210E+02 -0.15235373746E+03  0.16010019718E+03  0.10000000000E+01 0.  0.
<mgrwt>
<rscale>  0 0.12499928E+03</rscale>
<asrwt>0</asrwt>
<pdfrwt beam="2">  1        4 0.29732582E-01 0.12499928E+03</pdfrwt>
<pdfrwt beam="1">  1       -4 0.31095365E-02 0.12499928E+03</pdfrwt>
<totfact> 0.87913116E+03</totfact>
</mgrwt>
</event>
<event>
 5    1  0.3282421E-002  0.1250224E+03  0.7818608E-02  0.1235034E+00
         -4   -1    0    0    0  501 -0.00000000000E+00  0.00000000000E+00  0.36585608540E+02  0.36607644724E+02  0.12700000000E+01 0. -1.
          4   -1    0    0  501    0  0.00000000000E+00 -0.00000000000E+00 -0.10675041997E+03  0.10675797424E+03  0.12700000000E+01 0. -1.
         25    2    1    2    0    0  0.00000000000E+00  0.00000000000E+00 -0.70164811433E+02  0.14336561897E+03  0.12502239775E+03 0.  0.
    9000005    1    3    3    0    0 -0.24944916205E+02  0.71239094112E+01 -0.10029083915E+03  0.10359657980E+03  0.10000000000E+01 0.  0.
    9000005    1    3    3    0    0  0.24944916205E+02 -0.71239094112E+01  0.30126027718E+02  0.39769039161E+02  0.10000000000E+01 0.  0.
<mgrwt>
<rscale>  0 0.12502240E+03</rscale>
<asrwt>0</asrwt>
<pdfrwt beam="2">  1        4 0.16425418E-01 0.12502240E+03</pdfrwt>
<pdfrwt beam="1">  1       -4 0.56308314E-02 0.12502240E+03</pdfrwt>
<totfact> 0.10059226E+04</totfact>
</mgrwt>
</event>
<event>
 5    1  0.3282421E-002  0.1250010E+03  0.7818608E-02  0.1235068E+00
          4   -1    0    0  501    0  0.00000000000E+00  0.00000000000E+00  0.34099759726E+03  0.34099996223E+03  0.12700000000E+01 0.  1.
         -4   -1    0    0    0  501 -0.00000000000E+00 -0.00000000000E+00 -0.11417924587E+02  0.11488337647E+02  0.12700000000E+01 0.  1.
         25    2    1    2    0    0  0.00000000000E+00  0.00000000000E+00  0.32957967267E+03  0.35248829987E+03  0.12500096362E+03 0.  0.
    9000005    1    3    3    0    0 -0.59253530237E+02 -0.18633886024E+02  0.14543554962E+03  0.15814772096E+03  0.10000000000E+01 0.  0.
    9000005    1    3    3    0    0  0.59253530237E+02  0.18633886024E+02  0.18414412306E+03  0.19434057891E+03  0.10000000000E+01 0.  0.
<mgrwt>
<rscale>  0 0.12500096E+03</rscale>
<asrwt>0</asrwt>
<pdfrwt beam="1">  1        4 0.52466774E-01 0.12500096E+03</pdfrwt>
<pdfrwt beam="2">  1       -4 0.17622019E-02 0.12500096E+03</pdfrwt>
<totfact> 0.69450190E+03</totfact>
</mgrwt>
</event>
<event>
 5    1  0.3282421E-002  0.1250058E+03  0.7818608E-02  0.1235060E+00
          4   -1    0    0  501    0  0.00000000000E+00  0.00000000000E+00  0.12733600254E+03  0.12734233563E+03  0.12700000000E+01 0. -1.
         -4   -1    0    0    0  501 -0.00000000000E+00 -0.00000000000E+00 -0.30659314039E+02  0.30685606354E+02  0.12700000000E+01 0. -1.
         25    2    1    2    0    0  0.00000000000E+00  0.00000000000E+00  0.96676688500E+02  0.15802794198E+03  0.12500579325E+03 0.  0.
    9000005    1    3    3    0    0 -0.51366284841E+02 -0.86195085121E+01  0.46775761817E+01  0.52303641023E+02  0.10000000000E+01 0.  0.
    9000005    1    3    3    0    0  0.51366284841E+02  0.86195085121E+01  0.91999112318E+02  0.10572430096E+03  0.10000000000E+01 0.  0.
<mgrwt>
<rscale>  0 0.12500579E+03</rscale>
<asrwt>0</asrwt>
<pdfrwt beam="1">  1        4 0.19592664E-01 0.12500579E+03</pdfrwt>
<pdfrwt beam="2">  1       -4 0.47193272E-02 0.12500579E+03</pdfrwt>
<totfact> 0.97711607E+03</totfact>
</mgrwt>
</event>
<event>
 5    1  0.3282421E-002  0.1250003E+03  0.7818608E-02  0.1235069E+00
         -4   -1    0    0    0  501 -0.00000000000E+00  0.00000000000E+00  0.43791750165E+01  0.45596133416E+01  0.12700000000E+01 0. -1.
          4   -1    0    0  501    0  0.00000000000E+00 -0.00000000000E+00 -0.87382350948E+03  0.87382443237E+03  0.12700000000E+01 0. -1.
         25    2    1    2    0    0  0.00000000000E+00  0.00000000000E+00 -0.86944433446E+03  0.87838404572E+03  0.12500032417E+03 0.  0.
    9000005    1    3    3    0    0  0.53783619882E+02  0.80862415730E+01 -0.65099169617E+03  0.65326047909E+03  0.10000000000E+01 0.  0.
    9000005    1    3    3    0    0 -0.53783619882E+02 -0.80862415730E+01 -0.21845263829E+03  0.22512356662E+03  0.10000000000E+01 0.  0.
<mgrwt>
<rscale>  0 0.12500032E+03</rscale>
<asrwt>0</asrwt>
<pdfrwt beam="2">  1        4 0.13444820E+00 0.12500032E+03</pdfrwt>
<pdfrwt beam="1">  1       -4 0.68767079E-03 0.12500032E+03</pdfrwt>
<totfact> 0.34992914E+03</totfact>
</mgrwt>
</event>
<event>
 5    1  0.3282421E-002  0.1249996E+03  0.7818608E-02  0.1235070E+00
         -4   -1    0    0    0  501 -0.00000000000E+00  0.00000000000E+00  0.81714098177E+01  0.82695125859E+01  0.12700000000E+01 0. -1.
          4   -1    0    0  501    0  0.00000000000E+00 -0.00000000000E+00 -0.47508426190E+03  0.47508595939E+03  0.12700000000E+01 0. -1.
         25    2    1    2    0    0  0.00000000000E+00  0.00000000000E+00 -0.46691285208E+03  0.48335547197E+03  0.12499960338E+03 0.  0.
    9000005    1    3    3    0    0  0.25189814307E+02  0.47884499415E+02 -0.11254229329E+03  0.12487681854E+03  0.10000000000E+01 0.  0.
    9000005    1    3    3    0    0 -0.25189814307E+02 -0.47884499415E+02 -0.35437055879E+03  0.35847865343E+03  0.10000000000E+01 0.  0.
<mgrwt>
<rscale>  0 0.12499960E+03</rscale>
<asrwt>0</asrwt>
<pdfrwt beam="2">  1        4 0.73097542E-01 0.12499960E+03</pdfrwt>
<pdfrwt beam="1">  1       -4 0.12648173E-02 0.12499960E+03</pdfrwt>
<totfact> 0.57179814E+03</totfact>
</mgrwt>
</event>
<event>
 5    1  0.3282421E-002  0.1249984E+03  0.7818608E-02  0.1235072E+00
         -4   -1    0    0    0  501 -0.00000000000E+00  0.00000000000E+00  0.54821989953E+02  0.54836698317E+02  0.12700000000E+01 0. -1.
          4   -1    0    0  501    0  0.00000000000E+00 -0.00000000000E+00 -0.71221583465E+02  0.71232905678E+02  0.12700000000E+01 0. -1.
         25    2    1    2    0    0  0.00000000000E+00  0.00000000000E+00 -0.16399593513E+02  0.12606960400E+03  0.12499839353E+03 0.  0.
    9000005    1    3    3    0    0  0.57381477950E+02  0.15478551946E+02  0.11277093888E+02  0.60501177085E+02  0.10000000000E+01 0.  0.
    9000005    1    3    3    0    0 -0.57381477950E+02 -0.15478551946E+02 -0.27676687401E+02  0.65568426911E+02  0.10000000000E+01 0.  0.
<mgrwt>
<rscale>  0 0.12499839E+03</rscale>
<asrwt>0</asrwt>
<pdfrwt beam="2">  1        4 0.10959169E-01 0.12499839E+03</pdfrwt>
<pdfrwt beam="1">  1       -4 0.84361547E-02 0.12499839E+03</pdfrwt>
<totfact> 0.10429810E+04</totfact>
</mgrwt>
</event>
<event>
 5    1  0.3282421E-002  0.1250105E+03  0.7818608E-02  0.1235053E+00
          4   -1    0    0  501    0  0.00000000000E+00  0.00000000000E+00  0.34107119636E+03  0.34107356081E+03  0.12700000000E+01 0.  1.
         -4   -1    0    0    0  501 -0.00000000000E+00 -0.00000000000E+00 -0.11417192583E+02  0.11487610129E+02  0.12700000000E+01 0.  1.
         25    2    1    2    0    0  0.00000000000E+00  0.00000000000E+00  0.32965400378E+03  0.35256117094E+03  0.12501046776E+03 0.  0.
    9000005    1    3    3    0    0  0.19106451889E+02 -0.37711156721E+02  0.35012110112E+02  0.54900234057E+02  0.10000000000E+01 0.  0.
    9000005    1    3    3    0    0 -0.19106451889E+02  0.37711156721E+02  0.29464189366E+03  0.29766093688E+03  0.10000000000E+01 0.  0.
<mgrwt>
<rscale>  0 0.12501047E+03</rscale>
<asrwt>0</asrwt>
<pdfrwt beam="1">  1        4 0.52478089E-01 0.12501047E+03</pdfrwt>
<pdfrwt beam="2">  1       -4 0.17620898E-02 0.12501047E+03</pdfrwt>
<totfact> 0.69427628E+03</totfact>
</mgrwt>
</event>
<event>
 5    1  0.3282421E-002  0.1250091E+03  0.7818608E-02  0.1235055E+00
         -4   -1    0    0    0  501 -0.00000000000E+00  0.00000000000E+00  0.98368850379E+02  0.98377048262E+02  0.12700000000E+01 0. -1.
          4   -1    0    0  501    0  0.00000000000E+00 -0.00000000000E+00 -0.39696007574E+02  0.39716318023E+02  0.12700000000E+01 0. -1.
         25    2    1    2    0    0  0.00000000000E+00  0.00000000000E+00  0.58672842805E+02  0.13809336629E+03  0.12500910099E+03 0.  0.
    9000005    1    3    3    0    0  0.18004710698E+02  0.55610190244E+02  0.49046553041E+01  0.58666161541E+02  0.10000000000E+01 0.  0.
    9000005    1    3    3    0    0 -0.18004710698E+02 -0.55610190244E+02  0.53768187501E+02  0.79427204744E+02  0.10000000000E+01 0.  0.
<mgrwt>
<rscale>  0 0.12500910E+03</rscale>
<asrwt>0</asrwt>
<pdfrwt beam="2">  1        4 0.61092711E-02 0.12500910E+03</pdfrwt>
<pdfrwt beam="1">  1       -4 0.15135862E-01 0.12500910E+03</pdfrwt>
<totfact> 0.10171169E+04</totfact>
</mgrwt>
</event>
<event>
 5    1  0.3282421E-002  0.1250005E+03  0.7818608E-02  0.1235068E+00
          4   -1    0    0  501    0  0.00000000000E+00  0.00000000000E+00  0.10618177654E+03  0.10618937126E+03  0.12700000000E+01 0. -1.
         -4   -1    0    0    0  501 -0.00000000000E+00 -0.00000000000E+00 -0.36768758578E+02  0.36790685062E+02  0.12700000000E+01 0. -1.
         25    2    1    2    0    0  0.00000000000E+00  0.00000000000E+00  0.69413017960E+02  0.14298005632E+03  0.12500051777E+03 0.  0.
    9000005    1    3    3    0    0  0.45657756254E+01 -0.98656130000E+01  0.10509754661E+03  0.10566300644E+03  0.10000000000E+01 0.  0.
    9000005    1    3    3    0    0 -0.45657756254E+01  0.98656130000E+01 -0.35684528649E+02  0.37317049881E+02  0.10000000000E+01 0.  0.
<mgrwt>
<rscale>  0 0.12500052E+03</rscale>
<asrwt>0</asrwt>
<pdfrwt beam="1">  1        4 0.16337929E-01 0.12500052E+03</pdfrwt>
<pdfrwt beam="2">  1       -4 0.56590029E-02 0.12500052E+03</pdfrwt>
<totfact> 0.10072074E+04</totfact>
</mgrwt>
</event>
<event>
 5    1  0.3282421E-002  0.1250015E+03  0.7818608E-02  0.1235067E+00
          4   -1    0    0  501    0  0.00000000000E+00  0.00000000000E+00  0.15296946176E+04  0.15296951448E+04  0.12700000000E+01 0.  1.
         -4   -1    0    0    0  501 -0.00000000000E+00 -0.00000000000E+00 -0.23952133186E+01  0.27110785384E+01  0.12700000000E+01 0.  1.
         25    2    1    2    0    0  0.00000000000E+00  0.00000000000E+00  0.15272994043E+04  0.15324062233E+04  0.12500145198E+03 0.  0.
    9000005    1    3    3    0    0 -0.51282088543E+02  0.18234331839E+02  0.11401055700E+04  0.11414044218E+04  0.10000000000E+01 0.  0.
    9000005    1    3    3    0    0  0.51282088543E+02 -0.18234331839E+02  0.38719383431E+03  0.39100180152E+03  0.10000000000E+01 0.  0.
<mgrwt>
<rscale>  0 0.12500145E+03</rscale>
<asrwt>0</asrwt>
<pdfrwt beam="1">  1        4 0.23536172E+00 0.12500145E+03</pdfrwt>
<pdfrwt beam="2">  1       -4 0.39283266E-03 0.12500145E+03</pdfrwt>
<totfact> 0.17301586E+03</totfact>
</mgrwt>
</event>
<event>
 5    1  0.3282421E-002  0.1249984E+03  0.7818608E-02  0.1235072E+00
         -4   -1    0    0    0  501 -0.00000000000E+00  0.00000000000E+00  0.77485237885E+02  0.77495644975E+02  0.12700000000E+01 0. -1.
          4   -1    0    0  501    0  0.00000000000E+00 -0.00000000000E+00 -0.50389737028E+02  0.50405738738E+02  0.12700000000E+01 0. -1.
         25    2    1    2    0    0  0.00000000000E+00  0.00000000000E+00  0.27095500857E+02  0.12790138371E+03  0.12499839115E+03 0.  0.
    9000005    1    3    3    0    0  0.46259845216E+02 -0.30931468047E+02 -0.15545313806E+02  0.57787418841E+02  0.10000000000E+01 0.  0.
    9000005    1    3    3    0    0 -0.46259845216E+02  0.30931468047E+02  0.42640814663E+02  0.70113964872E+02  0.10000000000E+01 0.  0.
<mgrwt>
<rscale>  0 0.12499839E+03</rscale>
<asrwt>0</asrwt>
<pdfrwt beam="2">  1        4 0.77542986E-02 0.12499839E+03</pdfrwt>
<pdfrwt beam="1">  1       -4 0.11922837E-01 0.12499839E+03</pdfrwt>
<totfact> 0.10389995E+04</totfact>
</mgrwt>
</event>
<event>
 5    1  0.3282421E-002  0.1250027E+03  0.7818608E-02  0.1235065E+00
          4   -1    0    0  501    0  0.00000000000E+00  0.00000000000E+00  0.17950335370E+03  0.17950784632E+03  0.12700000000E+01 0. -1.
         -4   -1    0    0    0  501 -0.00000000000E+00 -0.00000000000E+00 -0.21739088542E+02  0.21776153715E+02  0.12700000000E+01 0. -1.
         25    2    1    2    0    0  0.00000000000E+00  0.00000000000E+00  0.15776426516E+03  0.20128400003E+03  0.12500274120E+03 0.  0.
    9000005    1    3    3    0    0  0.10450191335E+02 -0.57274978788E+02  0.11545229288E+03  0.12930530393E+03  0.10000000000E+01 0.  0.
    9000005    1    3    3    0    0 -0.10450191335E+02  0.57274978788E+02  0.42311972278E+02  0.71978696100E+02  0.10000000000E+01 0.  0.
<mgrwt>
<rscale>  0 0.12500274E+03</rscale>
<asrwt>0</asrwt>
<pdfrwt beam="1">  1        4 0.27619098E-01 0.12500274E+03</pdfrwt>
<pdfrwt beam="2">  1       -4 0.33476719E-02 0.12500274E+03</pdfrwt>
<totfact> 0.89913885E+03</totfact>
</mgrwt>
</event>
<event>
 5    1  0.3282421E-002  0.1249972E+03  0.7818608E-02  0.1235074E+00
         -4   -1    0    0    0  501 -0.00000000000E+00  0.00000000000E+00  0.58673089563E+03  0.58673227010E+03  0.12700000000E+01 0.  1.
          4   -1    0    0  501    0  0.00000000000E+00 -0.00000000000E+00 -0.65953853579E+01  0.67165473287E+01  0.12700000000E+01 0.  1.
         25    2    1    2    0    0  0.00000000000E+00  0.00000000000E+00  0.58013551027E+03  0.59344881743E+03  0.12499715452E+03 0.  0.
    9000005    1    3    3    0    0  0.39550163259E+02  0.40838772306E+02  0.41323841421E+03  0.41713188288E+03  0.10000000000E+01 0.  0.
    9000005    1    3    3    0    0 -0.39550163259E+02 -0.40838772306E+02  0.16689709606E+03  0.17631693455E+03  0.10000000000E+01 0.  0.
<mgrwt>
<rscale>  0 0.12499715E+03</rscale>
<asrwt>0</asrwt>
<pdfrwt beam="2">  1        4 0.10241006E-02 0.12499715E+03</pdfrwt>
<pdfrwt beam="1">  1       -4 0.90275714E-01 0.12499715E+03</pdfrwt>
<totfact> 0.49286845E+03</totfact>
</mgrwt>
</event>
<event>
 5    1  0.3282421E-002  0.1249999E+03  0.7818608E-02  0.1235069E+00
          4   -1    0    0  501    0  0.00000000000E+00  0.00000000000E+00  0.68060377848E+01  0.69235143047E+01  0.12700000000E+01 0. -1.
         -4   -1    0    0    0  501 -0.00000000000E+00 -0.00000000000E+00 -0.56890912093E+03  0.56891053847E+03  0.12700000000E+01 0. -1.
         25    2    1    2    0    0  0.00000000000E+00  0.00000000000E+00 -0.56210308315E+03  0.57583405277E+03  0.12499992099E+03 0.  0.
    9000005    1    3    3    0    0 -0.19017916691E+02  0.10325700544E+02 -0.10983110332E+02  0.24288473801E+02  0.10000000000E+01 0.  0.
    9000005    1    3    3    0    0  0.19017916691E+02 -0.10325700544E+02 -0.55111997281E+03  0.55154557897E+03  0.10000000000E+01 0.  0.
<mgrwt>
<rscale>  0 0.12499992E+03</rscale>
<asrwt>0</asrwt>
<pdfrwt beam="1">  1        4 0.10562289E-02 0.12499992E+03</pdfrwt>
<pdfrwt beam="2">  1       -4 0.87533589E-01 0.12499992E+03</pdfrwt>
<totfact> 0.50429554E+03</totfact>
</mgrwt>
</event>
<event>
 5    1  0.3282421E-002  0.1249984E+03  0.7818608E-02  0.1235072E+00
         -4   -1    0    0    0  501 -0.00000000000E+00  0.00000000000E+00  0.46366928444E+01  0.48074754844E+01  0.12700000000E+01 0.  1.
          4   -1    0    0  501    0  0.00000000000E+00 -0.00000000000E+00 -0.82703759282E+03  0.82703856793E+03  0.12700000000E+01 0.  1.
         25    2    1    2    0    0  0.00000000000E+00  0.00000000000E+00 -0.82240089998E+03  0.83184604341E+03  0.12499839862E+03 0.  0.
    9000005    1    3    3    0    0  0.29351739078E+02  0.11883447707E+01 -0.44143605537E+02  0.53033901045E+02  0.10000000000E+01 0.  0.
    9000005    1    3    3    0    0 -0.29351739078E+02 -0.11883447707E+01 -0.77825729444E+03  0.77881214237E+03  0.10000000000E+01 0.  0.
<mgrwt>
<rscale>  0 0.12499840E+03</rscale>
<asrwt>0</asrwt>
<pdfrwt beam="2">  1        4 0.12724965E+00 0.12499840E+03</pdfrwt>
<pdfrwt beam="1">  1       -4 0.72655015E-03 0.12499840E+03</pdfrwt>
<totfact> 0.36883250E+03</totfact>
</mgrwt>
</event>
<event>
 5    1  0.3282421E-002  0.1249773E+03  0.7818608E-02  0.1235105E+00
         -4   -1    0    0    0  501 -0.00000000000E+00  0.00000000000E+00  0.10405137784E+02  0.10482356238E+02  0.12700000000E+01 0.  1.
          4   -1    0    0  501    0  0.00000000000E+00 -0.00000000000E+00 -0.37381351333E+03  0.37381567068E+03  0.12700000000E+01 0.  1.
         25    2    1    2    0    0  0.00000000000E+00  0.00000000000E+00 -0.36340837554E+03  0.38429802692E+03  0.12497730225E+03 0.  0.
    9000005    1    3    3    0    0  0.16269507518E+02  0.52081687419E+02 -0.88100972198E+02  0.10363387642E+03  0.10000000000E+01 0.  0.
    9000005    1    3    3    0    0 -0.16269507518E+02 -0.52081687419E+02 -0.27530740334E+03  0.28066415050E+03  0.10000000000E+01 0.  0.
<mgrwt>
<rscale>  0 0.12497730E+03</rscale>
<asrwt>0</asrwt>
<pdfrwt beam="2">  1        4 0.57515867E-01 0.12497730E+03</pdfrwt>
<pdfrwt beam="1">  1       -4 0.16068965E-02 0.12497730E+03</pdfrwt>
<totfact> 0.66142308E+03</totfact>
</mgrwt>
</event>
<event>
 5    1  0.3282421E-002  0.1250013E+03  0.7818608E-02  0.1235067E+00
          4   -1    0    0  501    0  0.00000000000E+00  0.00000000000E+00  0.13053656751E+02  0.13115290869E+02  0.12700000000E+01 0. -1.
         -4   -1    0    0    0  501 -0.00000000000E+00 -0.00000000000E+00 -0.29848392693E+03  0.29848662874E+03  0.12700000000E+01 0. -1.
         25    2    1    2    0    0  0.00000000000E+00  0.00000000000E+00 -0.28543027018E+03  0.31160191961E+03  0.12500126867E+03 0.  0.
    9000005    1    3    3    0    0  0.22705986752E+02  0.30962278705E+02 -0.19805044134E+02  0.43214167933E+02  0.10000000000E+01 0.  0.
    9000005    1    3    3    0    0 -0.22705986752E+02 -0.30962278705E+02 -0.26562522605E+03  0.26838775168E+03  0.10000000000E+01 0.  0.
<mgrwt>
<rscale>  0 0.12500127E+03</rscale>
<asrwt>0</asrwt>
<pdfrwt beam="1">  1        4 0.20132040E-02 0.12500127E+03</pdfrwt>
<pdfrwt beam="2">  1       -4 0.45925548E-01 0.12500127E+03</pdfrwt>
<totfact> 0.74164101E+03</totfact>
</mgrwt>
</event>
<event>
 5    1  0.3282421E-002  0.1250017E+03  0.7818608E-02  0.1235067E+00
         -4   -1    0    0    0  501 -0.00000000000E+00  0.00000000000E+00  0.13202070259E+03  0.13202681096E+03  0.12700000000E+01 0.  1.
          4   -1    0    0  501    0  0.00000000000E+00 -0.00000000000E+00 -0.29568545550E+02  0.29595806898E+02  0.12700000000E+01 0.  1.
         25    2    1    2    0    0  0.00000000000E+00  0.00000000000E+00  0.10245215704E+03  0.16162261786E+03  0.12500170447E+03 0.  0.
    9000005    1    3    3    0    0  0.23799001846E+02  0.27062883850E+02 -0.14785547157E+02  0.38966711125E+02  0.10000000000E+01 0.  0.
    9000005    1    3    3    0    0 -0.23799001846E+02 -0.27062883850E+02  0.11723770419E+03  0.12265590673E+03  0.10000000000E+01 0.  0.
<mgrwt>
<rscale>  0 0.12500170E+03</rscale>
<asrwt>0</asrwt>
<pdfrwt beam="2">  1        4 0.45515737E-02 0.12500170E+03</pdfrwt>
<pdfrwt beam="1">  1       -4 0.20313445E-01 0.12500170E+03</pdfrwt>
<totfact> 0.97027149E+03</totfact>
</mgrwt>
</event>
<event>
 5    1  0.3282421E-002  0.1249999E+03  0.7818608E-02  0.1235069E+00
          4   -1    0    0  501    0  0.00000000000E+00  0.00000000000E+00  0.15650506282E+01  0.20155107216E+01  0.12700000000E+01 0.  1.
         -4   -1    0    0    0  501 -0.00000000000E+00 -0.00000000000E+00 -0.21814670359E+04  0.21814674056E+04  0.12700000000E+01 0.  1.
         25    2    1    2    0    0  0.00000000000E+00  0.00000000000E+00 -0.21799019852E+04  0.21834829163E+04  0.12499992160E+03 0.  0.
    9000005    1    3    3    0    0  0.55620128791E+02 -0.28484549006E+02 -0.10991418321E+04  0.11009172246E+04  0.10000000000E+01 0.  0.
    9000005    1    3    3    0    0 -0.55620128791E+02  0.28484549006E+02 -0.10807601531E+04  0.10825656917E+04  0.10000000000E+01 0.  0.
<mgrwt>
<rscale>  0 0.12499992E+03</rscale>
<asrwt>0</asrwt>
<pdfrwt beam="1">  1        4 0.27545798E-03 0.12499992E+03</pdfrwt>
<pdfrwt beam="2">  1       -4 0.33564287E+00 0.12499992E+03</pdfrwt>
<totfact> 0.76526399E+02</totfact>
</mgrwt>
</event>
<event>
 5    1  0.3282421E-002  0.1250050E+03  0.7818608E-02  0.1235061E+00
          4   -1    0    0  501    0  0.00000000000E+00  0.00000000000E+00  0.43469472680E+03  0.43469658201E+03  0.12700000000E+01 0. -1.
         -4   -1    0    0    0  501 -0.00000000000E+00 -0.00000000000E+00 -0.89401649987E+01  0.90299197230E+01  0.12700000000E+01 0. -1.
         25    2    1    2    0    0  0.00000000000E+00  0.00000000000E+00  0.42575456180E+03  0.44372650173E+03  0.12500504567E+03 0.  0.
    9000005    1    3    3    0    0 -0.30331919916E+02 -0.49989921442E+02  0.13457930078E+03  0.14673651832E+03  0.10000000000E+01 0.  0.
    9000005    1    3    3    0    0  0.30331919916E+02  0.49989921442E+02  0.29117526102E+03  0.29698998341E+03  0.10000000000E+01 0.  0.
<mgrwt>
<rscale>  0 0.12500505E+03</rscale>
<asrwt>0</asrwt>
<pdfrwt beam="1">  1        4 0.66883139E-01 0.12500505E+03</pdfrwt>
<pdfrwt beam="2">  1       -4 0.13824573E-02 0.12500505E+03</pdfrwt>
<totfact> 0.60504430E+03</totfact>
</mgrwt>
</event>
<event>
 5    1  0.3282421E-002  0.1249999E+03  0.7818608E-02  0.1235069E+00
         -4   -1    0    0    0  501 -0.00000000000E+00  0.00000000000E+00  0.14577926205E+01  0.19334061457E+01  0.12700000000E+01 0. -1.
          4   -1    0    0  501    0  0.00000000000E+00 -0.00000000000E+00 -0.23032776230E+04  0.23032779731E+04  0.12700000000E+01 0. -1.
         25    2    1    2    0    0  0.00000000000E+00  0.00000000000E+00 -0.23018198304E+04  0.23052113792E+04  0.12499988648E+03 0.  0.
    9000005    1    3    3    0    0 -0.42095773658E+02  0.38314259831E+02 -0.16265509256E+04  0.16275469118E+04  0.10000000000E+01 0.  0.
    9000005    1    3    3    0    0  0.42095773658E+02 -0.38314259831E+02 -0.67526890480E+03  0.67766446745E+03  0.10000000000E+01 0.  0.
<mgrwt>
<rscale>  0 0.12499989E+03</rscale>
<asrwt>0</asrwt>
<pdfrwt beam="2">  1        4 0.35438451E+00 0.12499989E+03</pdfrwt>
<pdfrwt beam="1">  1       -4 0.26089022E-03 0.12499989E+03</pdfrwt>
<totfact> 0.63853256E+02</totfact>
</mgrwt>
</event>
<event>
 5    1  0.3282421E-002  0.1249848E+03  0.7818608E-02  0.1235093E+00
          4   -1    0    0  501    0  0.00000000000E+00  0.00000000000E+00  0.23865082006E+02  0.23898850164E+02  0.12700000000E+01 0.  1.
         -4   -1    0    0    0  501 -0.00000000000E+00 -0.00000000000E+00 -0.16348892570E+03  0.16349385837E+03  0.12700000000E+01 0.  1.
         25    2    1    2    0    0  0.00000000000E+00  0.00000000000E+00 -0.13962384369E+03  0.18739270854E+03  0.12498483702E+03 0.  0.
    9000005    1    3    3    0    0 -0.22068819236E+02  0.47185134347E+02 -0.12155124386E+03  0.13224664295E+03  0.10000000000E+01 0.  0.
    9000005    1    3    3    0    0  0.22068819236E+02 -0.47185134347E+02 -0.18072599831E+02  0.55146065594E+02  0.10000000000E+01 0.  0.
<mgrwt>
<rscale>  0 0.12498484E+03</rscale>
<asrwt>0</asrwt>
<pdfrwt beam="1">  1        4 0.36745282E-02 0.12498484E+03</pdfrwt>
<pdfrwt beam="2">  1       -4 0.25155119E-01 0.12498484E+03</pdfrwt>
<totfact> 0.92334330E+03</totfact>
</mgrwt>
</event>
<event>
 5    1  0.3282421E-002  0.1249999E+03  0.7818608E-02  0.1235069E+00
         -4   -1    0    0    0  501 -0.00000000000E+00  0.00000000000E+00  0.25695200036E+02  0.25726566131E+02  0.12700000000E+01 0. -1.
          4   -1    0    0  501    0  0.00000000000E+00 -0.00000000000E+00 -0.15189560885E+03  0.15190091799E+03  0.12700000000E+01 0. -1.
         25    2    1    2    0    0  0.00000000000E+00  0.00000000000E+00 -0.12620040881E+03  0.17762748412E+03  0.12499991973E+03 0.  0.
    9000005    1    3    3    0    0 -0.62292377047E+02  0.20588403628E+01 -0.56640274356E+02  0.84224104275E+02  0.10000000000E+01 0.  0.
    9000005    1    3    3    0    0  0.62292377047E+02 -0.20588403628E+01 -0.69560134456E+02  0.93403379850E+02  0.10000000000E+01 0.  0.
<mgrwt>
<rscale>  0 0.12499992E+03</rscale>
<asrwt>0</asrwt>
<pdfrwt beam="2">  1        4 0.23371376E-01 0.12499992E+03</pdfrwt>
<pdfrwt beam="1">  1       -4 0.39559290E-02 0.12499992E+03</pdfrwt>
<totfact> 0.94045985E+03</totfact>
</mgrwt>
</event>
<event>
 5    1  0.3282421E-002  0.1249998E+03  0.7818608E-02  0.1235070E+00
          4   -1    0    0  501    0  0.00000000000E+00  0.00000000000E+00  0.13543269631E+02  0.13602685481E+02  0.12700000000E+01 0.  1.
         -4   -1    0    0    0  501 -0.00000000000E+00 -0.00000000000E+00 -0.28773451836E+03  0.28773732110E+03  0.12700000000E+01 0.  1.
         25    2    1    2    0    0  0.00000000000E+00  0.00000000000E+00 -0.27419124873E+03  0.30134000658E+03  0.12499983476E+03 0.  0.
    9000005    1    3    3    0    0  0.30217146932E+01 -0.54172385874E+02 -0.62345260930E+02  0.82654157254E+02  0.10000000000E+01 0.  0.
    9000005    1    3    3    0    0 -0.30217146932E+01  0.54172385874E+02 -0.21184598780E+03  0.21868584933E+03  0.10000000000E+01 0.  0.
<mgrwt>
<rscale>  0 0.12499983E+03</rscale>
<asrwt>0</asrwt>
<pdfrwt beam="1">  1        4 0.20883662E-02 0.12499983E+03</pdfrwt>
<pdfrwt beam="2">  1       -4 0.44271631E-01 0.12499983E+03</pdfrwt>
<totfact> 0.75431336E+03</totfact>
</mgrwt>
</event>
<event>
 5    1  0.3282421E-002  0.1250025E+03  0.7818608E-02  0.1235065E+00
          4   -1    0    0  501    0  0.00000000000E+00  0.00000000000E+00  0.21475291269E+03  0.21475666791E+03  0.12700000000E+01 0. -1.
         -4   -1    0    0    0  501 -0.00000000000E+00 -0.00000000000E+00 -0.18164152414E+02  0.18208496174E+02  0.12700000000E+01 0. -1.
         25    2    1    2    0    0  0.00000000000E+00  0.00000000000E+00  0.19658876028E+03  0.23296516408E+03  0.12500250800E+03 0.  0.
    9000005    1    3    3    0    0 -0.62785974204E+01 -0.39074417088E+02  0.81572559145E+01  0.40419941618E+02  0.10000000000E+01 0.  0.
    9000005    1    3    3    0    0  0.62785974204E+01  0.39074417088E+02  0.18843150436E+03  0.19254522246E+03  0.10000000000E+01 0.  0.
<mgrwt>
<rscale>  0 0.12500251E+03</rscale>
<asrwt>0</asrwt>
<pdfrwt beam="1">  1        4 0.33042610E-01 0.12500251E+03</pdfrwt>
<pdfrwt beam="2">  1       -4 0.27981849E-02 0.12500251E+03</pdfrwt>
<totfact> 0.84851615E+03</totfact>
</mgrwt>
</event>
<event>
 5    1  0.3282421E-002  0.1249861E+03  0.7818608E-02  0.1235091E+00
          4   -1    0    0  501    0  0.00000000000E+00  0.00000000000E+00  0.84533191791E+02  0.84542731293E+02  0.12700000000E+01 0.  1.
         -4   -1    0    0    0  501 -0.00000000000E+00 -0.00000000000E+00 -0.46178542674E+02  0.46196003112E+02  0.12700000000E+01 0.  1.
         25    2    1    2    0    0  0.00000000000E+00  0.00000000000E+00  0.38354649117E+02  0.13073873440E+03  0.12498614949E+03 0.  0.
    9000005    1    3    3    0    0 -0.37232075524E+01 -0.33208745756E+02  0.74406111999E+02  0.81571763325E+02  0.10000000000E+01 0.  0.
    9000005    1    3    3    0    0  0.37232075524E+01  0.33208745756E+02 -0.36051462882E+02  0.49166971079E+02  0.10000000000E+01 0.  0.
<mgrwt>
<rscale>  0 0.12498615E+03</rscale>
<asrwt>0</asrwt>
<pdfrwt beam="1">  1        4 0.13007183E-01 0.12498615E+03</pdfrwt>
<pdfrwt beam="2">  1       -4 0.71064681E-02 0.12498615E+03</pdfrwt>
<totfact> 0.10331922E+04</totfact>
</mgrwt>
</event>
<event>
 5    1  0.3282421E-002  0.1250030E+03  0.7818608E-02  0.1235065E+00
          4   -1    0    0  501    0  0.00000000000E+00  0.00000000000E+00  0.13164751599E+03  0.13165364168E+03  0.12700000000E+01 0. -1.
         -4   -1    0    0    0  501 -0.00000000000E+00 -0.00000000000E+00 -0.29653076286E+02  0.29680259993E+02  0.12700000000E+01 0. -1.
         25    2    1    2    0    0  0.00000000000E+00  0.00000000000E+00  0.10199443971E+03  0.16133390167E+03  0.12500304835E+03 0.  0.
    9000005    1    3    3    0    0  0.58210861251E+02  0.22690629518E+02  0.49139644914E+02  0.79492601780E+02  0.10000000000E+01 0.  0.
    9000005    1    3    3    0    0 -0.58210861251E+02 -0.22690629518E+02  0.52854794794E+02  0.81841299893E+02  0.10000000000E+01 0.  0.
<mgrwt>
<rscale>  0 0.12500305E+03</rscale>
<asrwt>0</asrwt>
<pdfrwt beam="1">  1        4 0.20256026E-01 0.12500305E+03</pdfrwt>
<pdfrwt beam="2">  1       -4 0.45645741E-02 0.12500305E+03</pdfrwt>
<totfact> 0.97079583E+03</totfact>
</mgrwt>
</event>
<event>
 5    1  0.3282421E-002  0.1249969E+03  0.7818608E-02  0.1235074E+00
          4   -1    0    0  501    0  0.00000000000E+00  0.00000000000E+00  0.36858391108E+03  0.36858609904E+03  0.12700000000E+01 0.  1.
         -4   -1    0    0    0  501 -0.00000000000E+00 -0.00000000000E+00 -0.10557195337E+02  0.10633309616E+02  0.12700000000E+01 0.  1.
         25    2    1    2    0    0  0.00000000000E+00  0.00000000000E+00  0.35802671574E+03  0.37921940866E+03  0.12499692283E+03 0.  0.
    9000005    1    3    3    0    0  0.52904533201E+02  0.33094756423E+02  0.16899476047E+03  0.18015099668E+03  0.10000000000E+01 0.  0.
    9000005    1    3    3    0    0 -0.52904533201E+02 -0.33094756423E+02  0.18903195527E+03  0.19906841198E+03  0.10000000000E+01 0.  0.
<mgrwt>
<rscale>  0 0.12499692E+03</rscale>
<asrwt>0</asrwt>
<pdfrwt beam="1">  1        4 0.56711245E-01 0.12499692E+03</pdfrwt>
<pdfrwt beam="2">  1       -4 0.16302070E-02 0.12499692E+03</pdfrwt>
<totfact> 0.66629844E+03</totfact>
</mgrwt>
</event>
<event>
 5    1  0.3282421E-002  0.1250023E+03  0.7818608E-02  0.1235066E+00
         -4   -1    0    0    0  501 -0.00000000000E+00  0.00000000000E+00  0.93203619789E+01  0.94064896438E+01  0.12700000000E+01 0. -1.
          4   -1    0    0  501    0  0.00000000000E+00 -0.00000000000E+00 -0.41711025780E+03  0.41711219121E+03  0.12700000000E+01 0. -1.
         25    2    1    2    0    0  0.00000000000E+00  0.00000000000E+00 -0.40778989582E+03  0.42651868086E+03  0.12500234394E+03 0.  0.
    9000005    1    3    3    0    0 -0.28171578482E+02 -0.54396294146E+02 -0.24607277497E+03  0.25358510451E+03  0.10000000000E+01 0.  0.
    9000005    1    3    3    0    0  0.28171578482E+02  0.54396294146E+02 -0.16171712085E+03  0.17293357634E+03  0.10000000000E+01 0.  0.
<mgrwt>
<rscale>  0 0.12500234E+03</rscale>
<asrwt>0</asrwt>
<pdfrwt beam="2">  1        4 0.64177568E-01 0.12500234E+03</pdfrwt>
<pdfrwt beam="1">  1       -4 0.14406761E-02 0.12500234E+03</pdfrwt>
<totfact> 0.62049623E+03</totfact>
</mgrwt>
</event>
<event>
 5    1  0.3282421E-002  0.1250002E+03  0.7818608E-02  0.1235069E+00
         -4   -1    0    0    0  501 -0.00000000000E+00  0.00000000000E+00  0.22124179106E+03  0.22124543614E+03  0.12700000000E+01 0. -1.
          4   -1    0    0  501    0  0.00000000000E+00 -0.00000000000E+00 -0.17629439717E+02  0.17675125028E+02  0.12700000000E+01 0. -1.
         25    2    1    2    0    0  0.00000000000E+00  0.00000000000E+00  0.20361235134E+03  0.23892056117E+03  0.12500017971E+03 0.  0.
    9000005    1    3    3    0    0  0.17653778515E+02 -0.18980262657E+02  0.21049116856E+03  0.21208356445E+03  0.10000000000E+01 0.  0.
    9000005    1    3    3    0    0 -0.17653778515E+02  0.18980262657E+02 -0.68788172200E+01  0.26836996716E+02  0.10000000000E+01 0.  0.
<mgrwt>
<rscale>  0 0.12500018E+03</rscale>
<asrwt>0</asrwt>
<pdfrwt beam="2">  1        4 0.27160161E-02 0.12500018E+03</pdfrwt>
<pdfrwt beam="1">  1       -4 0.34040994E-01 0.12500018E+03</pdfrwt>
<totfact> 0.83958056E+03</totfact>
</mgrwt>
</event>
<event>
 5    1  0.3282421E-002  0.1249995E+03  0.7818608E-02  0.1235070E+00
         -4   -1    0    0    0  501 -0.00000000000E+00  0.00000000000E+00  0.17730195791E+03  0.17730650631E+03  0.12700000000E+01 0.  1.
          4   -1    0    0  501    0  0.00000000000E+00 -0.00000000000E+00 -0.22008310287E+02  0.22044922809E+02  0.12700000000E+01 0.  1.
         25    2    1    2    0    0  0.00000000000E+00  0.00000000000E+00  0.15529364763E+03  0.19935142912E+03  0.12499950119E+03 0.  0.
    9000005    1    3    3    0    0 -0.42613549105E+02  0.37593619446E+02  0.11911282365E+03  0.13197749637E+03  0.10000000000E+01 0.  0.
    9000005    1    3    3    0    0  0.42613549105E+02 -0.37593619446E+02  0.36180823976E+02  0.67373932748E+02  0.10000000000E+01 0.  0.
<mgrwt>
<rscale>  0 0.12499950E+03</rscale>
<asrwt>0</asrwt>
<pdfrwt beam="2">  1        4 0.33890602E-02 0.12499950E+03</pdfrwt>
<pdfrwt beam="1">  1       -4 0.27280390E-01 0.12499950E+03</pdfrwt>
<totfact> 0.90246016E+03</totfact>
</mgrwt>
</event>
<event>
 5    1  0.3282421E-002  0.1250026E+03  0.7818608E-02  0.1235065E+00
         -4   -1    0    0    0  501 -0.00000000000E+00  0.00000000000E+00  0.11413389911E+02  0.11483830774E+02  0.12700000000E+01 0. -1.
          4   -1    0    0  501    0  0.00000000000E+00 -0.00000000000E+00 -0.34114094519E+03  0.34114330916E+03  0.12700000000E+01 0. -1.
         25    2    1    2    0    0  0.00000000000E+00  0.00000000000E+00 -0.32972755528E+03  0.35262713993E+03  0.12500255641E+03 0.  0.
    9000005    1    3    3    0    0 -0.52664200525E+02  0.30558144075E+02 -0.20456737516E+03  0.21343881832E+03  0.10000000000E+01 0.  0.
    9000005    1    3    3    0    0  0.52664200525E+02 -0.30558144075E+02 -0.12516018012E+03  0.13918832162E+03  0.10000000000E+01 0.  0.
<mgrwt>
<rscale>  0 0.12500256E+03</rscale>
<asrwt>0</asrwt>
<pdfrwt beam="2">  1        4 0.52488815E-01 0.12500256E+03</pdfrwt>
<pdfrwt beam="1">  1       -4 0.17615068E-02 0.12500256E+03</pdfrwt>
<totfact> 0.69432578E+03</totfact>
</mgrwt>
</event>
<event>
 5    1  0.3282421E-002  0.1249994E+03  0.7818608E-02  0.1235070E+00
          4   -1    0    0  501    0  0.00000000000E+00  0.00000000000E+00  0.21097023341E+03  0.21097405596E+03  0.12700000000E+01 0.  1.
         -4   -1    0    0    0  501 -0.00000000000E+00 -0.00000000000E+00 -0.18489701887E+02  0.18533266735E+02  0.12700000000E+01 0.  1.
         25    2    1    2    0    0  0.00000000000E+00  0.00000000000E+00  0.19248053153E+03  0.22950732269E+03  0.12499942461E+03 0.  0.
    9000005    1    3    3    0    0  0.16805075497E+02 -0.39258828972E+02  0.12471574683E+02  0.44499509995E+02  0.10000000000E+01 0.  0.
    9000005    1    3    3    0    0 -0.16805075497E+02  0.39258828972E+02  0.18000895684E+03  0.18500781270E+03  0.10000000000E+01 0.  0.
<mgrwt>
<rscale>  0 0.12499942E+03</rscale>
<asrwt>0</asrwt>
<pdfrwt beam="1">  1        4 0.32460604E-01 0.12499942E+03</pdfrwt>
<pdfrwt beam="2">  1       -4 0.28482147E-02 0.12499942E+03</pdfrwt>
<totfact> 0.85386401E+03</totfact>
</mgrwt>
</event>
<event>
 5    1  0.3282421E-002  0.1249995E+03  0.7818608E-02  0.1235070E+00
         -4   -1    0    0    0  501 -0.00000000000E+00  0.00000000000E+00  0.14347373614E+03  0.14347935692E+03  0.12700000000E+01 0.  1.
          4   -1    0    0  501    0  0.00000000000E+00 -0.00000000000E+00 -0.27205047498E+02  0.27234674762E+02  0.12700000000E+01 0.  1.
         25    2    1    2    0    0  0.00000000000E+00  0.00000000000E+00  0.11626868864E+03  0.17071403168E+03  0.12499949061E+03 0.  0.
    9000005    1    3    3    0    0  0.29601116222E+02 -0.35769714062E+02  0.10101106986E+01  0.46451252397E+02  0.10000000000E+01 0.  0.
    9000005    1    3    3    0    0 -0.29601116222E+02  0.35769714062E+02  0.11525857794E+03  0.12426277928E+03  0.10000000000E+01 0.  0.
<mgrwt>
<rscale>  0 0.12499949E+03</rscale>
<asrwt>0</asrwt>
<pdfrwt beam="2">  1        4 0.41881034E-02 0.12499949E+03</pdfrwt>
<pdfrwt beam="1">  1       -4 0.22075593E-01 0.12499949E+03</pdfrwt>
<totfact> 0.95316808E+03</totfact>
</mgrwt>
</event>
<event>
 5    1  0.3282421E-002  0.1249983E+03  0.7818608E-02  0.1235072E+00
         -4   -1    0    0    0  501 -0.00000000000E+00  0.00000000000E+00  0.13146686868E+03  0.13147300278E+03  0.12700000000E+01 0. -1.
          4   -1    0    0  501    0  0.00000000000E+00 -0.00000000000E+00 -0.29691614194E+02  0.29718762650E+02  0.12700000000E+01 0. -1.
         25    2    1    2    0    0  0.00000000000E+00  0.00000000000E+00  0.10177525448E+03  0.16119176543E+03  0.12499833126E+03 0.  0.
    9000005    1    3    3    0    0  0.21950641482E+01  0.62430172873E+02  0.48729443462E+02  0.79233221894E+02  0.10000000000E+01 0.  0.
    9000005    1    3    3    0    0 -0.21950641482E+01 -0.62430172873E+02  0.53045811020E+02  0.81958543535E+02  0.10000000000E+01 0.  0.
<mgrwt>
<rscale>  0 0.12499833E+03</rscale>
<asrwt>0</asrwt>
<pdfrwt beam="2">  1        4 0.45705008E-02 0.12499833E+03</pdfrwt>
<pdfrwt beam="1">  1       -4 0.20228232E-01 0.12499833E+03</pdfrwt>
<totfact> 0.97117155E+03</totfact>
</mgrwt>
</event>
<event>
 5    1  0.3282421E-002  0.1250034E+03  0.7818608E-02  0.1235064E+00
          4   -1    0    0  501    0  0.00000000000E+00  0.00000000000E+00  0.21274095019E+02  0.21311968911E+02  0.12700000000E+01 0. -1.
         -4   -1    0    0    0  501 -0.00000000000E+00 -0.00000000000E+00 -0.18342187660E+03  0.18342627324E+03  0.12700000000E+01 0. -1.
         25    2    1    2    0    0  0.00000000000E+00  0.00000000000E+00 -0.16214778158E+03  0.20473824215E+03  0.12500337887E+03 0.  0.
    9000005    1    3    3    0    0 -0.47488928077E+02 -0.40617969964E+02 -0.79983256836E+02  0.10150536512E+03  0.10000000000E+01 0.  0.
    9000005    1    3    3    0    0  0.47488928077E+02  0.40617969964E+02 -0.82164524744E+02  0.10323287703E+03  0.10000000000E+01 0.  0.
<mgrwt>
<rscale>  0 0.12500338E+03</rscale>
<asrwt>0</asrwt>
<pdfrwt beam="1">  1        4 0.32761894E-02 0.12500338E+03</pdfrwt>
<pdfrwt beam="2">  1       -4 0.28222001E-01 0.12500338E+03</pdfrwt>
<totfact> 0.89335718E+03</totfact>
</mgrwt>
</event>
<event>
 5    1  0.3282421E-002  0.1249993E+03  0.7818608E-02  0.1235070E+00
          4   -1    0    0  501    0  0.00000000000E+00  0.00000000000E+00  0.25317987341E+01  0.28324732708E+01  0.12700000000E+01 0.  1.
         -4   -1    0    0    0  501 -0.00000000000E+00 -0.00000000000E+00 -0.14560780495E+04  0.14560786034E+04  0.12700000000E+01 0.  1.
         25    2    1    2    0    0  0.00000000000E+00  0.00000000000E+00 -0.14535462508E+04  0.14589110766E+04  0.12499930549E+03 0.  0.
    9000005    1    3    3    0    0 -0.40533877409E+02  0.41325095266E+02 -0.10015951812E+04  0.10032669962E+04  0.10000000000E+01 0.  0.
    9000005    1    3    3    0    0  0.40533877409E+02 -0.41325095266E+02 -0.45195106961E+03  0.45564408044E+03  0.10000000000E+01 0.  0.
<mgrwt>
<rscale>  0 0.12499931E+03</rscale>
<asrwt>0</asrwt>
<pdfrwt beam="1">  1        4 0.41268008E-03 0.12499931E+03</pdfrwt>
<pdfrwt beam="2">  1       -4 0.22403455E+00 0.12499931E+03</pdfrwt>
<totfact> 0.18751323E+03</totfact>
</mgrwt>
</event>
<event>
 5    1  0.3282421E-002  0.1249998E+03  0.7818608E-02  0.1235070E+00
          4   -1    0    0  501    0  0.00000000000E+00  0.00000000000E+00  0.54408554106E+02  0.54423374205E+02  0.12700000000E+01 0. -1.
         -4   -1    0    0    0  501 -0.00000000000E+00 -0.00000000000E+00 -0.71764367414E+02  0.71775604005E+02  0.12700000000E+01 0. -1.
         25    2    1    2    0    0  0.00000000000E+00  0.00000000000E+00 -0.17355813307E+02  0.12619897821E+03  0.12499983138E+03 0.  0.
    9000005    1    3    3    0    0 -0.16669520151E+02 -0.46871960347E+02  0.29505354735E+02  0.57848245668E+02  0.10000000000E+01 0.  0.
    9000005    1    3    3    0    0  0.16669520151E+02  0.46871960347E+02 -0.46861168043E+02  0.68350732543E+02  0.10000000000E+01 0.  0.
<mgrwt>
<rscale>  0 0.12499983E+03</rscale>
<asrwt>0</asrwt>
<pdfrwt beam="1">  1        4 0.83725512E-02 0.12499983E+03</pdfrwt>
<pdfrwt beam="2">  1       -4 0.11042676E-01 0.12499983E+03</pdfrwt>
<totfact> 0.10426641E+04</totfact>
</mgrwt>
</event>
<event>
 5    1  0.3282421E-002  0.1249934E+03  0.7818608E-02  0.1235080E+00
          4   -1    0    0  501    0  0.00000000000E+00  0.00000000000E+00  0.76301646536E+01  0.77351349465E+01  0.12700000000E+01 0.  1.
         -4   -1    0    0    0  501 -0.00000000000E+00 -0.00000000000E+00 -0.50829174604E+03  0.50829333262E+03  0.12700000000E+01 0.  1.
         25    2    1    2    0    0  0.00000000000E+00  0.00000000000E+00 -0.50066158138E+03  0.51602846757E+03  0.12499344090E+03 0.  0.
    9000005    1    3    3    0    0 -0.57092061056E+02 -0.10467158344E+02 -0.34589114513E+03  0.35072888264E+03  0.10000000000E+01 0.  0.
    9000005    1    3    3    0    0  0.57092061056E+02  0.10467158344E+02 -0.15477043625E+03  0.16529958492E+03  0.10000000000E+01 0.  0.
<mgrwt>
<rscale>  0 0.12499344E+03</rscale>
<asrwt>0</asrwt>
<pdfrwt beam="1">  1        4 0.11820686E-02 0.12499344E+03</pdfrwt>
<pdfrwt beam="2">  1       -4 0.78206900E-01 0.12499344E+03</pdfrwt>
<totfact> 0.54649742E+03</totfact>
</mgrwt>
</event>
<event>
 5    1  0.3282421E-002  0.1249993E+03  0.7818608E-02  0.1235070E+00
         -4   -1    0    0    0  501 -0.00000000000E+00  0.00000000000E+00  0.10033853002E+02  0.10113906568E+02  0.12700000000E+01 0.  1.
          4   -1    0    0  501    0  0.00000000000E+00 -0.00000000000E+00 -0.38767497757E+03  0.38767705779E+03  0.12700000000E+01 0.  1.
         25    2    1    2    0    0  0.00000000000E+00  0.00000000000E+00 -0.37764112457E+03  0.39779096436E+03  0.12499932943E+03 0.  0.
    9000005    1    3    3    0    0  0.56349644359E+02 -0.46777853167E+01 -0.27349988049E+03  0.27928542519E+03  0.10000000000E+01 0.  0.
    9000005    1    3    3    0    0 -0.56349644359E+02  0.46777853167E+01 -0.10414124408E+03  0.11850553917E+03  0.10000000000E+01 0.  0.
<mgrwt>
<rscale>  0 0.12499933E+03</rscale>
<asrwt>0</asrwt>
<pdfrwt beam="2">  1        4 0.59648611E-01 0.12499933E+03</pdfrwt>
<pdfrwt beam="1">  1       -4 0.15499880E-02 0.12499933E+03</pdfrwt>
<totfact> 0.64769170E+03</totfact>
</mgrwt>
</event>
<event>
 5    1  0.3282421E-002  0.1250011E+03  0.7818608E-02  0.1235068E+00
          4   -1    0    0  501    0  0.00000000000E+00  0.00000000000E+00  0.74965518246E+01  0.76033669686E+01  0.12700000000E+01 0.  1.
         -4   -1    0    0    0  501 -0.00000000000E+00 -0.00000000000E+00 -0.51728836886E+03  0.51728992786E+03  0.12700000000E+01 0.  1.
         25    2    1    2    0    0  0.00000000000E+00  0.00000000000E+00 -0.50979181704E+03  0.52489329483E+03  0.12500109692E+03 0.  0.
    9000005    1    3    3    0    0  0.51465884465E+02  0.30309659613E+02 -0.17770697469E+03  0.18747848298E+03  0.10000000000E+01 0.  0.
    9000005    1    3    3    0    0 -0.51465884465E+02 -0.30309659613E+02 -0.33208484235E+03  0.33741481184E+03  0.10000000000E+01 0.  0.
<mgrwt>
<rscale>  0 0.12500110E+03</rscale>
<asrwt>0</asrwt>
<pdfrwt beam="1">  1        4 0.11616525E-02 0.12500110E+03</pdfrwt>
<pdfrwt beam="2">  1       -4 0.79591135E-01 0.12500110E+03</pdfrwt>
<totfact> 0.53982101E+03</totfact>
</mgrwt>
</event>
<event>
 5    1  0.3282421E-002  0.1249911E+03  0.7818608E-02  0.1235083E+00
          4   -1    0    0  501    0  0.00000000000E+00  0.00000000000E+00  0.25171716987E+03  0.25172037365E+03  0.12700000000E+01 0. -1.
         -4   -1    0    0    0  501 -0.00000000000E+00 -0.00000000000E+00 -0.15486896927E+02  0.15538882728E+02  0.12700000000E+01 0. -1.
         25    2    1    2    0    0  0.00000000000E+00  0.00000000000E+00  0.23623027295E+03  0.26725925638E+03  0.12499107273E+03 0.  0.
    9000005    1    3    3    0    0  0.25125170028E+02  0.35019452122E+02  0.21485792653E+03  0.21914051380E+03  0.10000000000E+01 0.  0.
    9000005    1    3    3    0    0 -0.25125170028E+02 -0.35019452122E+02  0.21372346422E+02  0.48118742580E+02  0.10000000000E+01 0.  0.
<mgrwt>
<rscale>  0 0.12499107E+03</rscale>
<asrwt>0</asrwt>
<pdfrwt beam="1">  1        4 0.38729965E-01 0.12499107E+03</pdfrwt>
<pdfrwt beam="2">  1       -4 0.23868448E-02 0.12499107E+03</pdfrwt>
<totfact> 0.79913868E+03</totfact>
</mgrwt>
</event>
<event>
 5    1  0.3282421E-002  0.1250133E+03  0.7818608E-02  0.1235048E+00
         -4   -1    0    0    0  501 -0.00000000000E+00  0.00000000000E+00  0.31266664876E+02  0.31292446892E+02  0.12700000000E+01 0.  1.
          4   -1    0    0  501    0  0.00000000000E+00 -0.00000000000E+00 -0.12487948552E+03  0.12488594318E+03  0.12700000000E+01 0.  1.
         25    2    1    2    0    0  0.00000000000E+00  0.00000000000E+00 -0.93612820647E+02  0.15617839007E+03  0.12501331664E+03 0.  0.
    9000005    1    3    3    0    0  0.20088852949E+02  0.40194550548E+02  0.74612661646E+01  0.45561325698E+02  0.10000000000E+01 0.  0.
    9000005    1    3    3    0    0 -0.20088852949E+02 -0.40194550548E+02 -0.10107408681E+03  0.11061706438E+03  0.10000000000E+01 0.  0.
<mgrwt>
<rscale>  0 0.12501332E+03</rscale>
<asrwt>0</asrwt>
<pdfrwt beam="2">  1        4 0.19214708E-01 0.12501332E+03</pdfrwt>
<pdfrwt beam="1">  1       -4 0.48127362E-02 0.12501332E+03</pdfrwt>
<totfact> 0.98055296E+03</totfact>
</mgrwt>
</event>
<event>
 5    1  0.3282421E-002  0.1249985E+03  0.7818608E-02  0.1235072E+00
          4   -1    0    0  501    0  0.00000000000E+00  0.00000000000E+00  0.10594320378E+02  0.10670169834E+02  0.12700000000E+01 0.  1.
         -4   -1    0    0    0  501 -0.00000000000E+00 -0.00000000000E+00 -0.36731054249E+03  0.36731273803E+03  0.12700000000E+01 0.  1.
         25    2    1    2    0    0  0.00000000000E+00  0.00000000000E+00 -0.35671622211E+03  0.37798290787E+03  0.12499846209E+03 0.  0.
    9000005    1    3    3    0    0  0.70197513260E+01  0.18381574975E+02 -0.35771376875E+03  0.35825591351E+03  0.10000000000E+01 0.  0.
    9000005    1    3    3    0    0 -0.70197513260E+01 -0.18381574975E+02  0.99754664412E+00  0.19726994361E+02  0.10000000000E+01 0.  0.
<mgrwt>
<rscale>  0 0.12499846E+03</rscale>
<asrwt>0</asrwt>
<pdfrwt beam="1">  1        4 0.16358992E-02 0.12499846E+03</pdfrwt>
<pdfrwt beam="2">  1       -4 0.56515308E-01 0.12499846E+03</pdfrwt>
<totfact> 0.66754236E+03</totfact>
</mgrwt>
</event>
<event>
 5    1  0.3282421E-002  0.1249676E+03  0.7818608E-02  0.1235120E+00
         -4   -1    0    0    0  501 -0.00000000000E+00  0.00000000000E+00  0.28506406588E+02  0.28534682696E+02  0.12700000000E+01 0. -1.
          4   -1    0    0  501    0  0.00000000000E+00 -0.00000000000E+00 -0.13686044338E+03  0.13686633575E+03  0.12700000000E+01 0. -1.
         25    2    1    2    0    0  0.00000000000E+00  0.00000000000E+00 -0.10835403679E+03  0.16540101845E+03  0.12496759426E+03 0.  0.
    9000005    1    3    3    0    0  0.18397974380E+02 -0.22992615899E+02  0.18751486134E+02  0.34925121036E+02  0.10000000000E+01 0.  0.
    9000005    1    3    3    0    0 -0.18397974380E+02  0.22992615899E+02 -0.12710552293E+03  0.13047589741E+03  0.10000000000E+01 0.  0.
<mgrwt>
<rscale>  0 0.12496759E+03</rscale>
<asrwt>0</asrwt>
<pdfrwt beam="2">  1        4 0.21058081E-01 0.12496759E+03</pdfrwt>
<pdfrwt beam="1">  1       -4 0.43882294E-02 0.12496759E+03</pdfrwt>
<totfact> 0.96381644E+03</totfact>
</mgrwt>
</event>
<event>
 5    1  0.3282421E-002  0.1249992E+03  0.7818608E-02  0.1235071E+00
         -4   -1    0    0    0  501 -0.00000000000E+00  0.00000000000E+00  0.22245525796E+03  0.22245888315E+03  0.12700000000E+01 0. -1.
          4   -1    0    0  501    0  0.00000000000E+00 -0.00000000000E+00 -0.17532746972E+02  0.17578683580E+02  0.12700000000E+01 0. -1.
         25    2    1    2    0    0  0.00000000000E+00  0.00000000000E+00  0.20492251098E+03  0.24003756673E+03  0.12499919173E+03 0.  0.
    9000005    1    3    3    0    0  0.99693765404E+01  0.53158069902E+02  0.16257749875E+03  0.17134063139E+03  0.10000000000E+01 0.  0.
    9000005    1    3    3    0    0 -0.99693765404E+01 -0.53158069902E+02  0.42345012231E+02  0.68696935341E+02  0.10000000000E+01 0.  0.
<mgrwt>
<rscale>  0 0.12499919E+03</rscale>
<asrwt>0</asrwt>
<pdfrwt beam="2">  1        4 0.27011582E-02 0.12499919E+03</pdfrwt>
<pdfrwt beam="1">  1       -4 0.34227698E-01 0.12499919E+03</pdfrwt>
<totfact> 0.83793282E+03</totfact>
</mgrwt>
</event>
<event>
 5    1  0.3282421E-002  0.1250018E+03  0.7818608E-02  0.1235067E+00
          4   -1    0    0  501    0  0.00000000000E+00  0.00000000000E+00  0.13097435080E+03  0.13098050797E+03  0.12700000000E+01 0. -1.
         -4   -1    0    0    0  501 -0.00000000000E+00 -0.00000000000E+00 -0.29804996273E+02  0.29832041546E+02  0.12700000000E+01 0. -1.
         25    2    1    2    0    0  0.00000000000E+00  0.00000000000E+00  0.10116935453E+03  0.16081254951E+03  0.12500175113E+03 0.  0.
    9000005    1    3    3    0    0 -0.60420778012E+02 -0.63148945053E+01  0.69439924804E+02  0.92268366546E+02  0.10000000000E+01 0.  0.
    9000005    1    3    3    0    0  0.60420778012E+02  0.63148945053E+01  0.31729429722E+02  0.68544182968E+02  0.10000000000E+01 0.  0.
<mgrwt>
<rscale>  0 0.12500175E+03</rscale>
<asrwt>0</asrwt>
<pdfrwt beam="1">  1        4 0.20152454E-01 0.12500175E+03</pdfrwt>
<pdfrwt beam="2">  1       -4 0.45879381E-02 0.12500175E+03</pdfrwt>
<totfact> 0.97182535E+03</totfact>
</mgrwt>
</event>
<event>
 5    1  0.3282421E-002  0.1250003E+03  0.7818608E-02  0.1235069E+00
          4   -1    0    0  501    0  0.00000000000E+00  0.00000000000E+00  0.25765262885E+03  0.25765575883E+03  0.12700000000E+01 0. -1.
         -4   -1    0    0    0  501 -0.00000000000E+00 -0.00000000000E+00 -0.15131170573E+02  0.15184374301E+02  0.12700000000E+01 0. -1.
         25    2    1    2    0    0  0.00000000000E+00  0.00000000000E+00  0.24252145828E+03  0.27284013313E+03  0.12500032207E+03 0.  0.
    9000005    1    3    3    0    0 -0.14872787803E+02 -0.54153950749E+02  0.61428046417E+02  0.83236140500E+02  0.10000000000E+01 0.  0.
    9000005    1    3    3    0    0  0.14872787803E+02  0.54153950749E+02  0.18109341186E+03  0.18960399263E+03  0.10000000000E+01 0.  0.
<mgrwt>
<rscale>  0 0.12500032E+03</rscale>
<asrwt>0</asrwt>
<pdfrwt beam="1">  1        4 0.39643197E-01 0.12500032E+03</pdfrwt>
<pdfrwt beam="2">  1       -4 0.23322059E-02 0.12500032E+03</pdfrwt>
<totfact> 0.79136565E+03</totfact>
</mgrwt>
</event>
<event>
 5    1  0.3282421E-002  0.1249976E+03  0.7818608E-02  0.1235073E+00
          4   -1    0    0  501    0  0.00000000000E+00  0.00000000000E+00  0.11809579042E+03  0.11810261900E+03  0.12700000000E+01 0.  1.
         -4   -1    0    0    0  501 -0.00000000000E+00 -0.00000000000E+00 -0.33055720641E+02  0.33080108329E+02  0.12700000000E+01 0.  1.
         25    2    1    2    0    0  0.00000000000E+00  0.00000000000E+00  0.85040069779E+02  0.15118272733E+03  0.12499761428E+03 0.  0.
    9000005    1    3    3    0    0  0.20303736574E+02  0.35770610184E+02  0.99421416705E+02  0.10759831026E+03  0.10000000000E+01 0.  0.
    9000005    1    3    3    0    0 -0.20303736574E+02 -0.35770610184E+02 -0.14381346925E+02  0.43584417068E+02  0.10000000000E+01 0.  0.
<mgrwt>
<rscale>  0 0.12499761E+03</rscale>
<asrwt>0</asrwt>
<pdfrwt beam="1">  1        4 0.18170984E-01 0.12499761E+03</pdfrwt>
<pdfrwt beam="2">  1       -4 0.50878969E-02 0.12499761E+03</pdfrwt>
<totfact> 0.99073779E+03</totfact>
</mgrwt>
</event>
<event>
 5    1  0.3282421E-002  0.1250002E+03  0.7818608E-02  0.1235069E+00
         -4   -1    0    0    0  501 -0.00000000000E+00  0.00000000000E+00  0.12274775246E+04  0.12274781816E+04  0.12700000000E+01 0.  1.
          4   -1    0    0  501    0  0.00000000000E+00 -0.00000000000E+00 -0.30549570230E+01  0.33084229494E+01  0.12700000000E+01 0.  1.
         25    2    1    2    0    0  0.00000000000E+00  0.00000000000E+00  0.12244225676E+04  0.12307866046E+04  0.12500016776E+03 0.  0.
    9000005    1    3    3    0    0 -0.40399482357E+02 -0.26686073781E+02  0.22319029889E+03  0.22838383092E+03  0.10000000000E+01 0.  0.
    9000005    1    3    3    0    0  0.40399482357E+02  0.26686073781E+02  0.10012322687E+04  0.10024027737E+04  0.10000000000E+01 0.  0.
<mgrwt>
<rscale>  0 0.12500017E+03</rscale>
<asrwt>0</asrwt>
<pdfrwt beam="2">  1        4 0.48954153E-03 0.12500017E+03</pdfrwt>
<pdfrwt beam="1">  1       -4 0.18886216E+00 0.12500017E+03</pdfrwt>
<totfact> 0.23920768E+03</totfact>
</mgrwt>
</event>
<event>
 5    1  0.3282421E-002  0.1250000E+03  0.7818608E-02  0.1235069E+00
         -4   -1    0    0    0  501 -0.00000000000E+00  0.00000000000E+00  0.91940431786E+01  0.92813431124E+01  0.12700000000E+01 0.  1.
          4   -1    0    0  501    0  0.00000000000E+00 -0.00000000000E+00 -0.42277153877E+03  0.42277344629E+03  0.12700000000E+01 0.  1.
         25    2    1    2    0    0  0.00000000000E+00  0.00000000000E+00 -0.41357749559E+03  0.43205478941E+03  0.12499998477E+03 0.  0.
    9000005    1    3    3    0    0  0.51097777145E+02  0.32583742613E+02 -0.15407766766E+03  0.16557056134E+03  0.10000000000E+01 0.  0.
    9000005    1    3    3    0    0 -0.51097777145E+02 -0.32583742613E+02 -0.25949982793E+03  0.26648422806E+03  0.10000000000E+01 0.  0.
<mgrwt>
<rscale>  0 0.12499998E+03</rscale>
<asrwt>0</asrwt>
<pdfrwt beam="2">  1        4 0.65048622E-01 0.12499998E+03</pdfrwt>
<pdfrwt beam="1">  1       -4 0.14213306E-02 0.12499998E+03</pdfrwt>
<totfact> 0.61550206E+03</totfact>
</mgrwt>
</event>
<event>
 5    1  0.3282421E-002  0.1249775E+03  0.7818608E-02  0.1235104E+00
         -4   -1    0    0    0  501 -0.00000000000E+00  0.00000000000E+00  0.63168792695E+01  0.64432805081E+01  0.12700000000E+01 0.  1.
          4   -1    0    0  501    0  0.00000000000E+00 -0.00000000000E+00 -0.61190969083E+03  0.61191100875E+03  0.12700000000E+01 0.  1.
         25    2    1    2    0    0  0.00000000000E+00  0.00000000000E+00 -0.60559281156E+03  0.61835428926E+03  0.12497749250E+03 0.  0.
    9000005    1    3    3    0    0  0.30597096017E+02 -0.23108926845E+02 -0.58715607294E+02  0.70133639036E+02  0.10000000000E+01 0.  0.
    9000005    1    3    3    0    0 -0.30597096017E+02  0.23108926845E+02 -0.54687720427E+03  0.54822065022E+03  0.10000000000E+01 0.  0.
<mgrwt>
<rscale>  0 0.12497749E+03</rscale>
<asrwt>0</asrwt>
<pdfrwt beam="2">  1        4 0.94149731E-01 0.12497749E+03</pdfrwt>
<pdfrwt beam="1">  1       -4 0.98165261E-03 0.12497749E+03</pdfrwt>
<totfact> 0.47752729E+03</totfact>
</mgrwt>
</event>
<event>
 5    1  0.3282421E-002  0.1250007E+03  0.7818608E-02  0.1235068E+00
          4   -1    0    0  501    0  0.00000000000E+00  0.00000000000E+00  0.44711007504E+03  0.44711187873E+03  0.12700000000E+01 0. -1.
         -4   -1    0    0    0  501 -0.00000000000E+00 -0.00000000000E+00 -0.86887836624E+01  0.87811082178E+01  0.12700000000E+01 0. -1.
         25    2    1    2    0    0  0.00000000000E+00  0.00000000000E+00  0.43842129138E+03  0.45589298695E+03  0.12500074726E+03 0.  0.
    9000005    1    3    3    0    0  0.18905639205E+02 -0.55265719864E+02  0.30023700310E+03  0.30586758739E+03  0.10000000000E+01 0.  0.
    9000005    1    3    3    0    0 -0.18905639205E+02  0.55265719864E+02  0.13818428828E+03  0.15002539956E+03  0.10000000000E+01 0.  0.
<mgrwt>
<rscale>  0 0.12500075E+03</rscale>
<asrwt>0</asrwt>
<pdfrwt beam="1">  1        4 0.68793413E-01 0.12500075E+03</pdfrwt>
<pdfrwt beam="2">  1       -4 0.13439764E-02 0.12500075E+03</pdfrwt>
<totfact> 0.59455680E+03</totfact>
</mgrwt>
</event>
<event>
 5    1  0.3282421E-002  0.1250006E+03  0.7818608E-02  0.1235068E+00
          4   -1    0    0  501    0  0.00000000000E+00  0.00000000000E+00  0.24627034540E+02  0.24659759331E+02  0.12700000000E+01 0. -1.
         -4   -1    0    0    0  501 -0.00000000000E+00 -0.00000000000E+00 -0.15847715516E+03  0.15848224382E+03  0.12700000000E+01 0. -1.
         25    2    1    2    0    0  0.00000000000E+00  0.00000000000E+00 -0.13385012062E+03  0.18314200316E+03  0.12500055412E+03 0.  0.
    9000005    1    3    3    0    0 -0.30550126260E+02  0.37499506983E+02 -0.12489980066E+03  0.13394208988E+03  0.10000000000E+01 0.  0.
    9000005    1    3    3    0    0  0.30550126260E+02 -0.37499506983E+02 -0.89503199632E+01  0.49199913271E+02  0.10000000000E+01 0.  0.
<mgrwt>
<rscale>  0 0.12500055E+03</rscale>
<asrwt>0</asrwt>
<pdfrwt beam="1">  1        4 0.37916834E-02 0.12500055E+03</pdfrwt>
<pdfrwt beam="2">  1       -4 0.24384009E-01 0.12500055E+03</pdfrwt>
<totfact> 0.93053315E+03</totfact>
</mgrwt>
</event>
<event>
 5    1  0.3282421E-002  0.1250000E+03  0.7818608E-02  0.1235069E+00
          4   -1    0    0  501    0  0.00000000000E+00  0.00000000000E+00  0.23353898682E+02  0.23388404897E+02  0.12700000000E+01 0. -1.
         -4   -1    0    0    0  501 -0.00000000000E+00 -0.00000000000E+00 -0.16710284324E+03  0.16710766924E+03  0.12700000000E+01 0. -1.
         25    2    1    2    0    0  0.00000000000E+00  0.00000000000E+00 -0.14374894456E+03  0.19049607414E+03  0.12499998080E+03 0.  0.
    9000005    1    3    3    0    0 -0.41753710818E+02 -0.40770726493E+02 -0.37810298673E+02  0.69543103120E+02  0.10000000000E+01 0.  0.
    9000005    1    3    3    0    0  0.41753710818E+02  0.40770726493E+02 -0.10593864589E+03  0.12095297102E+03  0.10000000000E+01 0.  0.
<mgrwt>
<rscale>  0 0.12499998E+03</rscale>
<asrwt>0</asrwt>
<pdfrwt beam="1">  1        4 0.35959331E-02 0.12499998E+03</pdfrwt>
<pdfrwt beam="2">  1       -4 0.25711155E-01 0.12499998E+03</pdfrwt>
<totfact> 0.91761111E+03</totfact>
</mgrwt>
</event>
<event>
 5    1  0.3282421E-002  0.1250027E+03  0.7818608E-02  0.1235065E+00
         -4   -1    0    0    0  501 -0.00000000000E+00  0.00000000000E+00  0.12408390968E+03  0.12409040874E+03  0.12700000000E+01 0. -1.
          4   -1    0    0  501    0  0.00000000000E+00 -0.00000000000E+00 -0.31461934787E+02  0.31487556917E+02  0.12700000000E+01 0. -1.
         25    2    1    2    0    0  0.00000000000E+00  0.00000000000E+00  0.92621974891E+02  0.15557796566E+03  0.12500269263E+03 0.  0.
    9000005    1    3    3    0    0  0.47450875552E+02  0.35399547440E+02  0.71224844084E+02  0.92621228476E+02  0.10000000000E+01 0.  0.
    9000005    1    3    3    0    0 -0.47450875552E+02 -0.35399547440E+02  0.21397130807E+02  0.62956737180E+02  0.10000000000E+01 0.  0.
<mgrwt>
<rscale>  0 0.12500269E+03</rscale>
<asrwt>0</asrwt>
<pdfrwt beam="2">  1        4 0.48427686E-02 0.12500269E+03</pdfrwt>
<pdfrwt beam="1">  1       -4 0.19092303E-01 0.12500269E+03</pdfrwt>
<totfact> 0.98196210E+03</totfact>
</mgrwt>
</event>
<event>
 5    1  0.3282421E-002  0.1249988E+03  0.7818608E-02  0.1235071E+00
          4   -1    0    0  501    0  0.00000000000E+00  0.00000000000E+00  0.14831890548E+02  0.14886163953E+02  0.12700000000E+01 0.  1.
         -4   -1    0    0    0  501 -0.00000000000E+00 -0.00000000000E+00 -0.26282651761E+03  0.26282958597E+03  0.12700000000E+01 0.  1.
         25    2    1    2    0    0  0.00000000000E+00  0.00000000000E+00 -0.24799462706E+03  0.27771574992E+03  0.12499881080E+03 0.  0.
    9000005    1    3    3    0    0  0.56452809135E+02  0.15857081053E+02 -0.75994771365E+02  0.95992561970E+02  0.10000000000E+01 0.  0.
    9000005    1    3    3    0    0 -0.56452809135E+02 -0.15857081053E+02 -0.17199985570E+03  0.18172318795E+03  0.10000000000E+01 0.  0.
<mgrwt>
<rscale>  0 0.12499881E+03</rscale>
<asrwt>0</asrwt>
<pdfrwt beam="1">  1        4 0.22862404E-02 0.12499881E+03</pdfrwt>
<pdfrwt beam="2">  1       -4 0.40439256E-01 0.12499881E+03</pdfrwt>
<totfact> 0.78484034E+03</totfact>
</mgrwt>
</event>
<event>
 5    1  0.3282421E-002  0.1250002E+03  0.7818608E-02  0.1235069E+00
         -4   -1    0    0    0  501 -0.00000000000E+00  0.00000000000E+00  0.41772753034E+02  0.41792054221E+02  0.12700000000E+01 0. -1.
          4   -1    0    0  501    0  0.00000000000E+00 -0.00000000000E+00 -0.93467065838E+02  0.93475693613E+02  0.12700000000E+01 0. -1.
         25    2    1    2    0    0  0.00000000000E+00  0.00000000000E+00 -0.51694312804E+02  0.13526774783E+03  0.12500024651E+03 0.  0.
    9000005    1    3    3    0    0  0.32749757655E+02  0.75165256994E+01  0.31170633277E+02  0.45843790898E+02  0.10000000000E+01 0.  0.
    9000005    1    3    3    0    0 -0.32749757655E+02 -0.75165256994E+01 -0.82864946081E+02  0.89423956936E+02  0.10000000000E+01 0.  0.
<mgrwt>
<rscale>  0 0.12500025E+03</rscale>
<asrwt>0</asrwt>
<pdfrwt beam="2">  1        4 0.14381697E-01 0.12500025E+03</pdfrwt>
<pdfrwt beam="1">  1       -4 0.64287258E-02 0.12500025E+03</pdfrwt>
<totfact> 0.10232374E+04</totfact>
</mgrwt>
</event>
<event>
 5    1  0.3282421E-002  0.1250005E+03  0.7818608E-02  0.1235068E+00
         -4   -1    0    0    0  501 -0.00000000000E+00  0.00000000000E+00  0.17209647161E+03  0.17210115758E+03  0.12700000000E+01 0.  1.
          4   -1    0    0  501    0  0.00000000000E+00 -0.00000000000E+00 -0.22675445995E+02  0.22710983049E+02  0.12700000000E+01 0.  1.
         25    2    1    2    0    0  0.00000000000E+00  0.00000000000E+00  0.14942102562E+03  0.19481214063E+03  0.12500050896E+03 0.  0.
    9000005    1    3    3    0    0 -0.17749054127E+02  0.22920231185E+02 -0.11570158911E+02  0.31228744727E+02  0.10000000000E+01 0.  0.
    9000005    1    3    3    0    0  0.17749054127E+02 -0.22920231185E+02  0.16099118453E+03  0.16358339590E+03  0.10000000000E+01 0.  0.
<mgrwt>
<rscale>  0 0.12500051E+03</rscale>
<asrwt>0</asrwt>
<pdfrwt beam="2">  1        4 0.34916243E-02 0.12500051E+03</pdfrwt>
<pdfrwt beam="1">  1       -4 0.26479474E-01 0.12500051E+03</pdfrwt>
<totfact> 0.91015657E+03</totfact>
</mgrwt>
</event>
<event>
 5    1  0.3282421E-002  0.1249979E+03  0.7818608E-02  0.1235072E+00
         -4   -1    0    0    0  501 -0.00000000000E+00  0.00000000000E+00  0.33936859857E+03  0.33937097489E+03  0.12700000000E+01 0. -1.
          4   -1    0    0  501    0  0.00000000000E+00 -0.00000000000E+00 -0.11472510212E+02  0.11542590289E+02  0.12700000000E+01 0. -1.
         25    2    1    2    0    0  0.00000000000E+00  0.00000000000E+00  0.32789608836E+03  0.35091356518E+03  0.12499794184E+03 0.  0.
    9000005    1    3    3    0    0 -0.36371878275E+02 -0.46234327377E+02  0.22314228956E+03  0.23076829927E+03  0.10000000000E+01 0.  0.
    9000005    1    3    3    0    0  0.36371878275E+02  0.46234327377E+02  0.10475379880E+03  0.12014526591E+03  0.10000000000E+01 0.  0.
<mgrwt>
<rscale>  0 0.12499794E+03</rscale>
<asrwt>0</asrwt>
<pdfrwt beam="2">  1        4 0.17705754E-02 0.12499794E+03</pdfrwt>
<pdfrwt beam="1">  1       -4 0.52216120E-01 0.12499794E+03</pdfrwt>
<totfact> 0.69627344E+03</totfact>
</mgrwt>
</event>
<event>
 4    1  0.3282421E-002  0.1243720E+03  0.7818608E-02  0.1236054E+00
         -4   -1    0    0    0  501 -0.00000000000E+00  0.00000000000E+00  0.16612436343E+03  0.16612921786E+03  0.12700000000E+01 0.  1.
          4   -1    0    0  501    0  0.00000000000E+00 -0.00000000000E+00 -0.23255825697E+02  0.23290477214E+02  0.12700000000E+01 0.  1.
    9000005    1    1    2    0    0  0.10626187497E+01 -0.49860456144E+02  0.14879429411E+02  0.52053738244E+02  0.10000000000E+01 0.  0.
    9000005    1    1    2    0    0 -0.10626187497E+01  0.49860456144E+02  0.12798910833E+03  0.13736595683E+03  0.10000000000E+01 0.  0.
<mgrwt>
<rscale>  0 0.12437203E+03</rscale>
<asrwt>0</asrwt>
<pdfrwt beam="2">  1        4 0.35808582E-02 0.12437203E+03</pdfrwt>
<pdfrwt beam="1">  1       -4 0.25560634E-01 0.12437203E+03</pdfrwt>
<totfact> 0.93253896E+03</totfact>
</mgrwt>
</event>
<event>
 5    1  0.3282421E-002  0.1250006E+03  0.7818608E-02  0.1235068E+00
          4   -1    0    0  501    0  0.00000000000E+00  0.00000000000E+00  0.13187070823E+02  0.13248084273E+02  0.12700000000E+01 0.  1.
         -4   -1    0    0    0  501 -0.00000000000E+00 -0.00000000000E+00 -0.29547496308E+03  0.29547769240E+03  0.12700000000E+01 0.  1.
         25    2    1    2    0    0  0.00000000000E+00  0.00000000000E+00 -0.28228789226E+03  0.30872577667E+03  0.12500060427E+03 0.  0.
    9000005    1    3    3    0    0  0.52043823696E+01 -0.38938112166E+02 -0.21110277766E+02  0.44608362470E+02  0.10000000000E+01 0.  0.
    9000005    1    3    3    0    0 -0.52043823696E+01  0.38938112166E+02 -0.26117761449E+03  0.26411741420E+03  0.10000000000E+01 0.  0.
<mgrwt>
<rscale>  0 0.12500060E+03</rscale>
<asrwt>0</asrwt>
<pdfrwt beam="1">  1        4 0.20336836E-02 0.12500060E+03</pdfrwt>
<pdfrwt beam="2">  1       -4 0.45462585E-01 0.12500060E+03</pdfrwt>
<totfact> 0.74516172E+03</totfact>
</mgrwt>
</event>
<event>
 5    1  0.3282421E-002  0.1250082E+03  0.7818608E-02  0.1235056E+00
          4   -1    0    0  501    0  0.00000000000E+00  0.00000000000E+00  0.42502870281E+02  0.42521840061E+02  0.12700000000E+01 0.  1.
         -4   -1    0    0    0  501 -0.00000000000E+00 -0.00000000000E+00 -0.91873789827E+02  0.91882567210E+02  0.12700000000E+01 0.  1.
         25    2    1    2    0    0  0.00000000000E+00  0.00000000000E+00 -0.49370919545E+02  0.13440440727E+03  0.12500822772E+03 0.  0.
    9000005    1    3    3    0    0 -0.59749688471E+02  0.17879391036E+02 -0.20375893480E+02  0.65619165884E+02  0.10000000000E+01 0.  0.
    9000005    1    3    3    0    0  0.59749688471E+02 -0.17879391036E+02 -0.28995026065E+02  0.68785241387E+02  0.10000000000E+01 0.  0.
<mgrwt>
<rscale>  0 0.12500823E+03</rscale>
<asrwt>0</asrwt>
<pdfrwt beam="1">  1        4 0.65410375E-02 0.12500823E+03</pdfrwt>
<pdfrwt beam="2">  1       -4 0.14136564E-01 0.12500823E+03</pdfrwt>
<totfact> 0.10248738E+04</totfact>
</mgrwt>
</event>
<event>
 5    1  0.3282421E-002  0.1250008E+03  0.7818608E-02  0.1235068E+00
         -4   -1    0    0    0  501 -0.00000000000E+00  0.00000000000E+00  0.50625695753E+03  0.50625855049E+03  0.12700000000E+01 0.  1.
          4   -1    0    0  501    0  0.00000000000E+00 -0.00000000000E+00 -0.76621650140E+01  0.77667028205E+01  0.12700000000E+01 0.  1.
         25    2    1    2    0    0  0.00000000000E+00  0.00000000000E+00  0.49859479252E+03  0.51402525331E+03  0.12500077568E+03 0.  0.
    9000005    1    3    3    0    0 -0.37366171899E+02  0.48701935268E+02  0.29746240861E+03  0.30373177943E+03  0.10000000000E+01 0.  0.
    9000005    1    3    3    0    0  0.37366171899E+02 -0.48701935268E+02  0.20113238391E+03  0.21029347389E+03  0.10000000000E+01 0.  0.
<mgrwt>
<rscale>  0 0.12500078E+03</rscale>
<asrwt>0</asrwt>
<pdfrwt beam="2">  1        4 0.11869586E-02 0.12500078E+03</pdfrwt>
<pdfrwt beam="1">  1       -4 0.77893847E-01 0.12500078E+03</pdfrwt>
<totfact> 0.54791432E+03</totfact>
</mgrwt>
</event>
<event>
 5    1  0.3282421E-002  0.1250033E+03  0.7818608E-02  0.1235064E+00
          4   -1    0    0  501    0  0.00000000000E+00  0.00000000000E+00  0.23711506991E+02  0.23745493547E+02  0.12700000000E+01 0. -1.
         -4   -1    0    0    0  501 -0.00000000000E+00 -0.00000000000E+00 -0.16459496868E+03  0.16459986821E+03  0.12700000000E+01 0. -1.
         25    2    1    2    0    0  0.00000000000E+00  0.00000000000E+00 -0.14088346169E+03  0.18834536175E+03  0.12500330203E+03 0.  0.
    9000005    1    3    3    0    0  0.35195611844E+01  0.14997752720E+02  0.20813167886E+02  0.25913468603E+02  0.10000000000E+01 0.  0.
    9000005    1    3    3    0    0 -0.35195611844E+01 -0.14997752720E+02 -0.16169662957E+03  0.16243189315E+03  0.10000000000E+01 0.  0.
<mgrwt>
<rscale>  0 0.12500330E+03</rscale>
<asrwt>0</asrwt>
<pdfrwt beam="1">  1        4 0.36509155E-02 0.12500330E+03</pdfrwt>
<pdfrwt beam="2">  1       -4 0.25325293E-01 0.12500330E+03</pdfrwt>
<totfact> 0.92129200E+03</totfact>
</mgrwt>
</event>
<event>
 5    1  0.3282421E-002  0.1249928E+03  0.7818608E-02  0.1235080E+00
         -4   -1    0    0    0  501 -0.00000000000E+00  0.00000000000E+00  0.22032540790E+02  0.22069113115E+02  0.12700000000E+01 0. -1.
          4   -1    0    0  501    0  0.00000000000E+00 -0.00000000000E+00 -0.17708842102E+03  0.17709297490E+03  0.12700000000E+01 0. -1.
         25    2    1    2    0    0  0.00000000000E+00  0.00000000000E+00 -0.15505588023E+03  0.19916208801E+03  0.12499284503E+03 0.  0.
    9000005    1    3    3    0    0  0.36490472848E+02  0.48122896599E+02 -0.51962377872E+02  0.79677201883E+02  0.10000000000E+01 0.  0.
    9000005    1    3    3    0    0 -0.36490472848E+02 -0.48122896599E+02 -0.10309350235E+03  0.11948488613E+03  0.10000000000E+01 0.  0.
<mgrwt>
<rscale>  0 0.12499285E+03</rscale>
<asrwt>0</asrwt>
<pdfrwt beam="2">  1        4 0.27247535E-01 0.12499285E+03</pdfrwt>
<pdfrwt beam="1">  1       -4 0.33927853E-02 0.12499285E+03</pdfrwt>
<totfact> 0.90291477E+03</totfact>
</mgrwt>
</event>
<event>
 5    1  0.3282421E-002  0.1249993E+03  0.7818608E-02  0.1235070E+00
          4   -1    0    0  501    0  0.00000000000E+00  0.00000000000E+00  0.23698344998E+02  0.23732350403E+02  0.12700000000E+01 0.  1.
         -4   -1    0    0    0  501 -0.00000000000E+00 -0.00000000000E+00 -0.16467577166E+03  0.16468066878E+03  0.12700000000E+01 0.  1.
         25    2    1    2    0    0  0.00000000000E+00  0.00000000000E+00 -0.14097742666E+03  0.18841301919E+03  0.12499932388E+03 0.  0.
    9000005    1    3    3    0    0  0.41259264054E+02  0.44495165775E+02 -0.47976657345E+02  0.77362176143E+02  0.10000000000E+01 0.  0.
    9000005    1    3    3    0    0 -0.41259264054E+02 -0.44495165775E+02 -0.93000769314E+02  0.11105084304E+03  0.10000000000E+01 0.  0.
<mgrwt>
<rscale>  0 0.12499932E+03</rscale>
<asrwt>0</asrwt>
<pdfrwt beam="1">  1        4 0.36488918E-02 0.12499932E+03</pdfrwt>
<pdfrwt beam="2">  1       -4 0.25337726E-01 0.12499932E+03</pdfrwt>
<totfact> 0.92125575E+03</totfact>
</mgrwt>
</event>
<event>
 5    1  0.3282421E-002  0.1249997E+03  0.7818608E-02  0.1235070E+00
          4   -1    0    0  501    0  0.00000000000E+00  0.00000000000E+00  0.63239746150E+03  0.63239873672E+03  0.12700000000E+01 0.  1.
         -4   -1    0    0    0  501 -0.00000000000E+00 -0.00000000000E+00 -0.61102823069E+01  0.62408693200E+01  0.12700000000E+01 0.  1.
         25    2    1    2    0    0  0.00000000000E+00  0.00000000000E+00  0.62628717919E+03  0.63863960604E+03  0.12499966235E+03 0.  0.
    9000005    1    3    3    0    0 -0.28453802161E+02 -0.50665455801E+02  0.43061156197E+03  0.43451573570E+03  0.10000000000E+01 0.  0.
    9000005    1    3    3    0    0  0.28453802161E+02  0.50665455801E+02  0.19567561722E+03  0.20412387034E+03  0.10000000000E+01 0.  0.
<mgrwt>
<rscale>  0 0.12499966E+03</rscale>
<asrwt>0</asrwt>
<pdfrwt beam="1">  1        4 0.97302045E-01 0.12499966E+03</pdfrwt>
<pdfrwt beam="2">  1       -4 0.95018683E-03 0.12499966E+03</pdfrwt>
<totfact> 0.46516315E+03</totfact>
</mgrwt>
</event>
<event>
 5    1  0.3282421E-002  0.1250041E+03  0.7818608E-02  0.1235063E+00
          4   -1    0    0  501    0  0.00000000000E+00  0.00000000000E+00  0.21988494177E+02  0.22025139641E+02  0.12700000000E+01 0. -1.
         -4   -1    0    0    0  501 -0.00000000000E+00 -0.00000000000E+00 -0.17747451707E+03  0.17747906105E+03  0.12700000000E+01 0. -1.
         25    2    1    2    0    0  0.00000000000E+00  0.00000000000E+00 -0.15548602289E+03  0.19950420069E+03  0.12500409104E+03 0.  0.
    9000005    1    3    3    0    0 -0.47574665879E+02 -0.36563982430E+02 -0.49859794083E+02  0.78020976094E+02  0.10000000000E+01 0.  0.
    9000005    1    3    3    0    0  0.47574665879E+02  0.36563982430E+02 -0.10562622881E+03  0.12148322459E+03  0.10000000000E+01 0.  0.
<mgrwt>
<rscale>  0 0.12500409E+03</rscale>
<asrwt>0</asrwt>
<pdfrwt beam="1">  1        4 0.33860138E-02 0.12500409E+03</pdfrwt>
<pdfrwt beam="2">  1       -4 0.27306939E-01 0.12500409E+03</pdfrwt>
<totfact> 0.90210936E+03</totfact>
</mgrwt>
</event>
<event>
 5    1  0.3282421E-002  0.1250034E+03  0.7818608E-02  0.1235064E+00
          4   -1    0    0  501    0  0.00000000000E+00  0.00000000000E+00  0.21589151682E+03  0.21589525222E+03  0.12700000000E+01 0.  1.
         -4   -1    0    0    0  501 -0.00000000000E+00 -0.00000000000E+00 -0.18068394426E+02  0.18112972620E+02  0.12700000000E+01 0.  1.
         25    2    1    2    0    0  0.00000000000E+00  0.00000000000E+00  0.19782312239E+03  0.23400822484E+03  0.12500344612E+03 0.  0.
    9000005    1    3    3    0    0  0.20943165248E+02 -0.41439795486E+02  0.17721441643E+03  0.18319885975E+03  0.10000000000E+01 0.  0.
    9000005    1    3    3    0    0 -0.20943165248E+02  0.41439795486E+02  0.20608705957E+02  0.50809365099E+02  0.10000000000E+01 0.  0.
<mgrwt>
<rscale>  0 0.12500345E+03</rscale>
<asrwt>0</asrwt>
<pdfrwt beam="1">  1        4 0.33217796E-01 0.12500345E+03</pdfrwt>
<pdfrwt beam="2">  1       -4 0.27834694E-02 0.12500345E+03</pdfrwt>
<totfact> 0.84691395E+03</totfact>
</mgrwt>
</event>
<event>
 5    1  0.3282421E-002  0.1249950E+03  0.7818608E-02  0.1235077E+00
         -4   -1    0    0    0  501 -0.00000000000E+00  0.00000000000E+00  0.36930152834E+03  0.36930371205E+03  0.12700000000E+01 0. -1.
          4   -1    0    0  501    0  0.00000000000E+00 -0.00000000000E+00 -0.10536204441E+02  0.10612469271E+02  0.12700000000E+01 0. -1.
         25    2    1    2    0    0  0.00000000000E+00  0.00000000000E+00  0.35876532390E+03  0.37991618133E+03  0.12499498869E+03 0.  0.
    9000005    1    3    3    0    0  0.46854370757E+02 -0.41345454362E+02  0.17817395349E+03  0.18881667394E+03  0.10000000000E+01 0.  0.
    9000005    1    3    3    0    0 -0.46854370757E+02  0.41345454362E+02  0.18059137041E+03  0.19109950738E+03  0.10000000000E+01 0.  0.
<mgrwt>
<rscale>  0 0.12499499E+03</rscale>
<asrwt>0</asrwt>
<pdfrwt beam="2">  1        4 0.16269893E-02 0.12499499E+03</pdfrwt>
<pdfrwt beam="1">  1       -4 0.56821645E-01 0.12499499E+03</pdfrwt>
<totfact> 0.66561497E+03</totfact>
</mgrwt>
</event>
<event>
 5    1  0.3282421E-002  0.1249988E+03  0.7818608E-02  0.1235071E+00
         -4   -1    0    0    0  501 -0.00000000000E+00  0.00000000000E+00  0.10596472510E+03  0.10597233538E+03  0.12700000000E+01 0.  1.
          4   -1    0    0  501    0  0.00000000000E+00 -0.00000000000E+00 -0.36843073575E+02  0.36864955858E+02  0.12700000000E+01 0.  1.
         25    2    1    2    0    0  0.00000000000E+00  0.00000000000E+00  0.69121651529E+02  0.14283729124E+03  0.12499875623E+03 0.  0.
    9000005    1    3    3    0    0 -0.41047966496E+02 -0.18053674618E+02  0.84295636616E+02  0.95486255939E+02  0.10000000000E+01 0.  0.
    9000005    1    3    3    0    0  0.41047966496E+02  0.18053674618E+02 -0.15173985088E+02  0.47351035301E+02  0.10000000000E+01 0.  0.
<mgrwt>
<rscale>  0 0.12499876E+03</rscale>
<asrwt>0</asrwt>
<pdfrwt beam="2">  1        4 0.56704339E-02 0.12499876E+03</pdfrwt>
<pdfrwt beam="1">  1       -4 0.16304534E-01 0.12499876E+03</pdfrwt>
<totfact> 0.10075399E+04</totfact>
</mgrwt>
</event>
<event>
 5    1  0.3282421E-002  0.1249918E+03  0.7818608E-02  0.1235082E+00
         -4   -1    0    0    0  501 -0.00000000000E+00  0.00000000000E+00  0.19652169782E+03  0.19652580139E+03  0.12700000000E+01 0. -1.
          4   -1    0    0  501    0  0.00000000000E+00 -0.00000000000E+00 -0.19849732719E+02  0.19890318977E+02  0.12700000000E+01 0. -1.
         25    2    1    2    0    0  0.00000000000E+00  0.00000000000E+00  0.17667196510E+03  0.21641612037E+03  0.12499181535E+03 0.  0.
    9000005    1    3    3    0    0 -0.42468373262E+02 -0.44788525656E+02  0.10522653026E+03  0.12199671073E+03  0.10000000000E+01 0.  0.
    9000005    1    3    3    0    0  0.42468373262E+02  0.44788525656E+02  0.71445434841E+02  0.94419409644E+02  0.10000000000E+01 0.  0.
<mgrwt>
<rscale>  0 0.12499182E+03</rscale>
<asrwt>0</asrwt>
<pdfrwt beam="2">  1        4 0.30572427E-02 0.12499182E+03</pdfrwt>
<pdfrwt beam="1">  1       -4 0.30237545E-01 0.12499182E+03</pdfrwt>
<totfact> 0.87454639E+03</totfact>
</mgrwt>
</event>
<event>
 5    1  0.3282421E-002  0.1250065E+03  0.7818608E-02  0.1235059E+00
         -4   -1    0    0    0  501 -0.00000000000E+00  0.00000000000E+00  0.12832877626E+04  0.12832883910E+04  0.12700000000E+01 0. -1.
          4   -1    0    0  501    0  0.00000000000E+00 -0.00000000000E+00 -0.29111453553E+01  0.31761088268E+01  0.12700000000E+01 0. -1.
         25    2    1    2    0    0  0.00000000000E+00  0.00000000000E+00  0.12803766172E+04  0.12864644998E+04  0.12500650939E+03 0.  0.
    9000005    1    3    3    0    0 -0.53092974137E+02 -0.31427312600E+02  0.74264472974E+03  0.74520382077E+03  0.10000000000E+01 0.  0.
    9000005    1    3    3    0    0  0.53092974137E+02  0.31427312600E+02  0.53773188748E+03  0.54126067905E+03  0.10000000000E+01 0.  0.
<mgrwt>
<rscale>  0 0.12500651E+03</rscale>
<asrwt>0</asrwt>
<pdfrwt beam="2">  1        4 0.46829909E-03 0.12500651E+03</pdfrwt>
<pdfrwt beam="1">  1       -4 0.19744913E+00 0.12500651E+03</pdfrwt>
<totfact> 0.22547073E+03</totfact>
</mgrwt>
</event>
<event>
 5    1  0.3282421E-002  0.1249996E+03  0.7818608E-02  0.1235070E+00
         -4   -1    0    0    0  501 -0.00000000000E+00  0.00000000000E+00  0.18661697808E+02  0.18704862070E+02  0.12700000000E+01 0.  1.
          4   -1    0    0  501    0  0.00000000000E+00 -0.00000000000E+00 -0.20903089769E+03  0.20903475570E+03  0.12700000000E+01 0.  1.
         25    2    1    2    0    0  0.00000000000E+00  0.00000000000E+00 -0.19036919988E+03  0.22773961777E+03  0.12499960495E+03 0.  0.
    9000005    1    3    3    0    0  0.56741880681E+02  0.23996537908E+02 -0.76097800478E+02  0.97915014642E+02  0.10000000000E+01 0.  0.
    9000005    1    3    3    0    0 -0.56741880681E+02 -0.23996537908E+02 -0.11427139940E+03  0.12982460312E+03  0.10000000000E+01 0.  0.
<mgrwt>
<rscale>  0 0.12499960E+03</rscale>
<asrwt>0</asrwt>
<pdfrwt beam="2">  1        4 0.32162215E-01 0.12499960E+03</pdfrwt>
<pdfrwt beam="1">  1       -4 0.28746477E-02 0.12499960E+03</pdfrwt>
<totfact> 0.85658649E+03</totfact>
</mgrwt>
</event>
<event>
 5    1  0.3282421E-002  0.1250002E+03  0.7818608E-02  0.1235069E+00
         -4   -1    0    0    0  501 -0.00000000000E+00  0.00000000000E+00  0.33911568441E+01  0.36211662129E+01  0.12700000000E+01 0. -1.
          4   -1    0    0  501    0  0.00000000000E+00 -0.00000000000E+00 -0.11138840130E+04  0.11138847370E+04  0.12700000000E+01 0. -1.
         25    2    1    2    0    0  0.00000000000E+00  0.00000000000E+00 -0.11104928561E+04  0.11175059032E+04  0.12500024055E+03 0.  0.
    9000005    1    3    3    0    0  0.26914623526E+01 -0.18684983187E+00 -0.11134069591E+04  0.11134106769E+04  0.10000000000E+01 0.  0.
    9000005    1    3    3    0    0 -0.26914623526E+01  0.18684983187E+00  0.29141029469E+01  0.40952262990E+01  0.10000000000E+01 0.  0.
<mgrwt>
<rscale>  0 0.12500024E+03</rscale>
<asrwt>0</asrwt>
<pdfrwt beam="2">  1        4 0.17138424E+00 0.12500024E+03</pdfrwt>
<pdfrwt beam="1">  1       -4 0.53946605E-03 0.12500024E+03</pdfrwt>
<totfact> 0.26976527E+03</totfact>
</mgrwt>
</event>
<event>
 5    1  0.3282421E-002  0.1250010E+03  0.7818608E-02  0.1235068E+00
          4   -1    0    0  501    0  0.00000000000E+00  0.00000000000E+00  0.18726577190E+02  0.18769592251E+02  0.12700000000E+01 0.  1.
         -4   -1    0    0    0  501 -0.00000000000E+00 -0.00000000000E+00 -0.20831287136E+03  0.20831674266E+03  0.12700000000E+01 0.  1.
         25    2    1    2    0    0  0.00000000000E+00  0.00000000000E+00 -0.18958629417E+03  0.22708633491E+03  0.12500096227E+03 0.  0.
    9000005    1    3    3    0    0 -0.21693963448E+02 -0.49556200662E+02 -0.15163118272E+03  0.16099521933E+03  0.10000000000E+01 0.  0.
    9000005    1    3    3    0    0  0.21693963448E+02  0.49556200662E+02 -0.37955111451E+02  0.66091115586E+02  0.10000000000E+01 0.  0.
<mgrwt>
<rscale>  0 0.12500096E+03</rscale>
<asrwt>0</asrwt>
<pdfrwt beam="1">  1        4 0.28846187E-02 0.12500096E+03</pdfrwt>
<pdfrwt beam="2">  1       -4 0.32051739E-01 0.12500096E+03</pdfrwt>
<totfact> 0.85757169E+03</totfact>
</mgrwt>
</event>
<event>
 5    1  0.3282421E-002  0.1249987E+03  0.7818608E-02  0.1235071E+00
         -4   -1    0    0    0  501 -0.00000000000E+00  0.00000000000E+00  0.15778634767E+01  0.20254760307E+01  0.12700000000E+01 0.  1.
          4   -1    0    0  501    0  0.00000000000E+00 -0.00000000000E+00 -0.21676331319E+04  0.21676335039E+04  0.12700000000E+01 0.  1.
         25    2    1    2    0    0  0.00000000000E+00  0.00000000000E+00 -0.21660552684E+04  0.21696589799E+04  0.12499865403E+03 0.  0.
    9000005    1    3    3    0    0  0.57733669722E+02  0.59180488672E+01 -0.14852437960E+04  0.14863775878E+04  0.10000000000E+01 0.  0.
    9000005    1    3    3    0    0 -0.57733669722E+02 -0.59180488672E+01 -0.68081147233E+03  0.68328139209E+03  0.10000000000E+01 0.  0.
<mgrwt>
<rscale>  0 0.12499865E+03</rscale>
<asrwt>0</asrwt>
<pdfrwt beam="2">  1        4 0.33351440E+00 0.12499865E+03</pdfrwt>
<pdfrwt beam="1">  1       -4 0.27721031E-03 0.12499865E+03</pdfrwt>
<totfact> 0.78065417E+02</totfact>
</mgrwt>
</event>
<event>
 5    1  0.3282421E-002  0.1249994E+03  0.7818608E-02  0.1235070E+00
          4   -1    0    0  501    0  0.00000000000E+00  0.00000000000E+00  0.62416974938E+03  0.62417104141E+03  0.12700000000E+01 0. -1.
         -4   -1    0    0    0  501 -0.00000000000E+00 -0.00000000000E+00 -0.61925108746E+01  0.63213994442E+01  0.12700000000E+01 0. -1.
         25    2    1    2    0    0  0.00000000000E+00  0.00000000000E+00  0.61797723851E+03  0.63049244086E+03  0.12499940268E+03 0.  0.
    9000005    1    3    3    0    0 -0.36184052875E+02  0.17922574687E+02  0.68422311481E+02  0.79455126167E+02  0.10000000000E+01 0.  0.
    9000005    1    3    3    0    0  0.36184052875E+02 -0.17922574687E+02  0.54955492702E+03  0.55103731469E+03  0.10000000000E+01 0.  0.
<mgrwt>
<rscale>  0 0.12499940E+03</rscale>
<asrwt>0</asrwt>
<pdfrwt beam="1">  1        4 0.96036155E-01 0.12499940E+03</pdfrwt>
<pdfrwt beam="2">  1       -4 0.96270761E-03 0.12499940E+03</pdfrwt>
<totfact> 0.46998329E+03</totfact>
</mgrwt>
</event>
<event>
 5    1  0.3282421E-002  0.1249984E+03  0.7818608E-02  0.1235072E+00
         -4   -1    0    0    0  501 -0.00000000000E+00  0.00000000000E+00  0.24125286963E+03  0.24125621237E+03  0.12700000000E+01 0.  1.
          4   -1    0    0  501    0  0.00000000000E+00 -0.00000000000E+00 -0.16162726419E+02  0.16212545306E+02  0.12700000000E+01 0.  1.
         25    2    1    2    0    0  0.00000000000E+00  0.00000000000E+00  0.22509014322E+03  0.25746875768E+03  0.12499835441E+03 0.  0.
    9000005    1    3    3    0    0 -0.44197080843E+02  0.29493147342E+02  0.18029638323E+03  0.18796545827E+03  0.10000000000E+01 0.  0.
    9000005    1    3    3    0    0  0.44197080843E+02 -0.29493147342E+02  0.44793759984E+02  0.69503299408E+02  0.10000000000E+01 0.  0.
<mgrwt>
<rscale>  0 0.12499835E+03</rscale>
<asrwt>0</asrwt>
<pdfrwt beam="2">  1        4 0.24906629E-02 0.12499835E+03</pdfrwt>
<pdfrwt beam="1">  1       -4 0.37119912E-01 0.12499835E+03</pdfrwt>
<totfact> 0.81265581E+03</totfact>
</mgrwt>
</event>
<event>
 5    1  0.3282421E-002  0.1249998E+03  0.7818608E-02  0.1235070E+00
         -4   -1    0    0    0  501 -0.00000000000E+00  0.00000000000E+00  0.28853103941E+02  0.28881040615E+02  0.12700000000E+01 0.  1.
          4   -1    0    0  501    0  0.00000000000E+00 -0.00000000000E+00 -0.13528728685E+03  0.13529324774E+03  0.12700000000E+01 0.  1.
         25    2    1    2    0    0  0.00000000000E+00  0.00000000000E+00 -0.10643418291E+03  0.16417428835E+03  0.12499984666E+03 0.  0.
    9000005    1    3    3    0    0 -0.17962550853E+02 -0.59748757187E+02 -0.48541476218E+02  0.79055943053E+02  0.10000000000E+01 0.  0.
    9000005    1    3    3    0    0  0.17962550853E+02  0.59748757187E+02 -0.57892706692E+02  0.85118345300E+02  0.10000000000E+01 0.  0.
<mgrwt>
<rscale>  0 0.12499985E+03</rscale>
<asrwt>0</asrwt>
<pdfrwt beam="2">  1        4 0.20816036E-01 0.12499985E+03</pdfrwt>
<pdfrwt beam="1">  1       -4 0.44415467E-02 0.12499985E+03</pdfrwt>
<totfact> 0.96544330E+03</totfact>
</mgrwt>
</event>
<event>
 5    1  0.3282421E-002  0.1249992E+03  0.7818608E-02  0.1235071E+00
          4   -1    0    0  501    0  0.00000000000E+00  0.00000000000E+00  0.55183920143E+02  0.55198532067E+02  0.12700000000E+01 0.  1.
         -4   -1    0    0    0  501 -0.00000000000E+00 -0.00000000000E+00 -0.70755382785E+02  0.70766779586E+02  0.12700000000E+01 0.  1.
         25    2    1    2    0    0  0.00000000000E+00  0.00000000000E+00 -0.15571462642E+02  0.12596531165E+03  0.12499915716E+03 0.  0.
    9000005    1    3    3    0    0  0.47862492554E+02  0.19392834438E+01  0.32656973783E+02  0.57983247153E+02  0.10000000000E+01 0.  0.
    9000005    1    3    3    0    0 -0.47862492554E+02 -0.19392834438E+01 -0.48228436425E+02  0.67982064500E+02  0.10000000000E+01 0.  0.
<mgrwt>
<rscale>  0 0.12499916E+03</rscale>
<asrwt>0</asrwt>
<pdfrwt beam="1">  1        4 0.84918345E-02 0.12499916E+03</pdfrwt>
<pdfrwt beam="2">  1       -4 0.10887444E-01 0.12499916E+03</pdfrwt>
<totfact> 0.10431916E+04</totfact>
</mgrwt>
</event>
<event>
 5    1  0.3282421E-002  0.1249975E+03  0.7818608E-02  0.1235073E+00
         -4   -1    0    0    0  501 -0.00000000000E+00  0.00000000000E+00  0.44491596269E+02  0.44509718474E+02  0.12700000000E+01 0. -1.
          4   -1    0    0  501    0  0.00000000000E+00 -0.00000000000E+00 -0.87753335845E+02  0.87762525328E+02  0.12700000000E+01 0. -1.
         25    2    1    2    0    0  0.00000000000E+00  0.00000000000E+00 -0.43261739576E+02  0.13227224380E+03  0.12499747345E+03 0.  0.
    9000005    1    3    3    0    0  0.11601916868E+02 -0.33899643112E+02 -0.75809247924E+02  0.83856021543E+02  0.10000000000E+01 0.  0.
    9000005    1    3    3    0    0 -0.11601916868E+02  0.33899643112E+02  0.32547508348E+02  0.48416222259E+02  0.10000000000E+01 0.  0.
<mgrwt>
<rscale>  0 0.12499747E+03</rscale>
<asrwt>0</asrwt>
<pdfrwt beam="2">  1        4 0.13502614E-01 0.12499747E+03</pdfrwt>
<pdfrwt beam="1">  1       -4 0.68469619E-02 0.12499747E+03</pdfrwt>
<totfact> 0.10296478E+04</totfact>
</mgrwt>
</event>
<event>
 5    1  0.3282421E-002  0.1250307E+03  0.7818608E-02  0.1235021E+00
         -4   -1    0    0    0  501 -0.00000000000E+00  0.00000000000E+00  0.44941559740E+02  0.44959500574E+02  0.12700000000E+01 0. -1.
          4   -1    0    0  501    0  0.00000000000E+00 -0.00000000000E+00 -0.86921192122E+02  0.86930469571E+02  0.12700000000E+01 0. -1.
         25    2    1    2    0    0  0.00000000000E+00  0.00000000000E+00 -0.41979632381E+02  0.13188997015E+03  0.12503069499E+03 0.  0.
    9000005    1    3    3    0    0 -0.11879606801E+02 -0.14957129940E+02 -0.83772446000E+02  0.85928246244E+02  0.10000000000E+01 0.  0.
    9000005    1    3    3    0    0  0.11879606801E+02  0.14957129940E+02  0.41792813619E+02  0.45961723901E+02  0.10000000000E+01 0.  0.
<mgrwt>
<rscale>  0 0.12503069E+03</rscale>
<asrwt>0</asrwt>
<pdfrwt beam="2">  1        4 0.13374585E-01 0.12503069E+03</pdfrwt>
<pdfrwt beam="1">  1       -4 0.69161798E-02 0.12503069E+03</pdfrwt>
<totfact> 0.10296916E+04</totfact>
</mgrwt>
</event>
<event>
 5    1  0.3282421E-002  0.1249987E+03  0.7818608E-02  0.1235071E+00
          4   -1    0    0  501    0  0.00000000000E+00  0.00000000000E+00  0.20978310071E+03  0.20978694489E+03  0.12700000000E+01 0. -1.
         -4   -1    0    0    0  501 -0.00000000000E+00 -0.00000000000E+00 -0.18594356935E+02  0.18637677158E+02  0.12700000000E+01 0. -1.
         25    2    1    2    0    0  0.00000000000E+00  0.00000000000E+00  0.19118874378E+03  0.22842462204E+03  0.12499868883E+03 0.  0.
    9000005    1    3    3    0    0  0.62313730487E+02 -0.10647713402E+00  0.86992751552E+02  0.10701285515E+03  0.10000000000E+01 0.  0.
    9000005    1    3    3    0    0 -0.62313730487E+02  0.10647713402E+00  0.10419599223E+03  0.12141176690E+03  0.10000000000E+01 0.  0.
<mgrwt>
<rscale>  0 0.12499869E+03</rscale>
<asrwt>0</asrwt>
<pdfrwt beam="1">  1        4 0.32277953E-01 0.12499869E+03</pdfrwt>
<pdfrwt beam="2">  1       -4 0.28642981E-02 0.12499869E+03</pdfrwt>
<totfact> 0.85554586E+03</totfact>
</mgrwt>
</event>
<event>
 5    1  0.3282421E-002  0.1250000E+03  0.7818608E-02  0.1235069E+00
          4   -1    0    0  501    0  0.00000000000E+00  0.00000000000E+00  0.43168575358E+03  0.43168762171E+03  0.12700000000E+01 0.  1.
         -4   -1    0    0    0  501 -0.00000000000E+00 -0.00000000000E+00 -0.90023719095E+01  0.90915125252E+01  0.12700000000E+01 0.  1.
         25    2    1    2    0    0  0.00000000000E+00  0.00000000000E+00  0.42268338167E+03  0.44077913424E+03  0.12500001617E+03 0.  0.
    9000005    1    3    3    0    0 -0.39105257313E+02 -0.43318203007E+02  0.29015619648E+03  0.29596842098E+03  0.10000000000E+01 0.  0.
    9000005    1    3    3    0    0  0.39105257313E+02  0.43318203007E+02  0.13252718519E+03  0.14481071326E+03  0.10000000000E+01 0.  0.
<mgrwt>
<rscale>  0 0.12500002E+03</rscale>
<asrwt>0</asrwt>
<pdfrwt beam="1">  1        4 0.66420189E-01 0.12500002E+03</pdfrwt>
<pdfrwt beam="2">  1       -4 0.13919811E-02 0.12500002E+03</pdfrwt>
<totfact> 0.60770914E+03</totfact>
</mgrwt>
</event>
<event>
 5    1  0.3282421E-002  0.1249975E+03  0.7818608E-02  0.1235073E+00
          4   -1    0    0  501    0  0.00000000000E+00  0.00000000000E+00  0.34366969782E+02  0.34390427622E+02  0.12700000000E+01 0.  1.
         -4   -1    0    0    0  501 -0.00000000000E+00 -0.00000000000E+00 -0.11359254170E+03  0.11359964098E+03  0.12700000000E+01 0.  1.
         25    2    1    2    0    0  0.00000000000E+00  0.00000000000E+00 -0.79225571921E+02  0.14799006860E+03  0.12499747661E+03 0.  0.
    9000005    1    3    3    0    0  0.22608450623E+01  0.62366833367E+02 -0.35802219797E+02  0.71955071170E+02  0.10000000000E+01 0.  0.
    9000005    1    3    3    0    0 -0.22608450623E+01 -0.62366833367E+02 -0.43423352124E+02  0.76034997431E+02  0.10000000000E+01 0.  0.
<mgrwt>
<rscale>  0 0.12499748E+03</rscale>
<asrwt>0</asrwt>
<pdfrwt beam="1">  1        4 0.52895767E-02 0.12499748E+03</pdfrwt>
<pdfrwt beam="2">  1       -4 0.17478126E-01 0.12499748E+03</pdfrwt>
<totfact> 0.99711530E+03</totfact>
</mgrwt>
</event>
<event>
 5    1  0.3282421E-002  0.1250002E+03  0.7818608E-02  0.1235069E+00
          4   -1    0    0  501    0  0.00000000000E+00  0.00000000000E+00  0.10672949331E+03  0.10673704906E+03  0.12700000000E+01 0.  1.
         -4   -1    0    0    0  501 -0.00000000000E+00 -0.00000000000E+00 -0.36579778085E+02  0.36601817779E+02  0.12700000000E+01 0.  1.
         25    2    1    2    0    0  0.00000000000E+00  0.00000000000E+00  0.70149715227E+02  0.14333886684E+03  0.12500019280E+03 0.  0.
    9000005    1    3    3    0    0  0.29870497561E+02  0.36021968265E+01  0.97883119896E+02  0.10240765405E+03  0.10000000000E+01 0.  0.
    9000005    1    3    3    0    0 -0.29870497561E+02 -0.36021968265E+01 -0.27733404668E+02  0.40931212797E+02  0.10000000000E+01 0.  0.
<mgrwt>
<rscale>  0 0.12500019E+03</rscale>
<asrwt>0</asrwt>
<pdfrwt beam="1">  1        4 0.16422198E-01 0.12500019E+03</pdfrwt>
<pdfrwt beam="2">  1       -4 0.56299349E-02 0.12500019E+03</pdfrwt>
<totfact> 0.10064805E+04</totfact>
</mgrwt>
</event>
<event>
 5    1  0.3282421E-002  0.1250037E+03  0.7818608E-02  0.1235064E+00
         -4   -1    0    0    0  501 -0.00000000000E+00  0.00000000000E+00  0.46066995944E+03  0.46067171004E+03  0.12700000000E+01 0.  1.
          4   -1    0    0  501    0  0.00000000000E+00 -0.00000000000E+00 -0.84306685313E+01  0.85257886371E+01  0.12700000000E+01 0.  1.
         25    2    1    2    0    0  0.00000000000E+00  0.00000000000E+00  0.45223929091E+03  0.46919749868E+03  0.12500366604E+03 0.  0.
    9000005    1    3    3    0    0 -0.34497911858E+02 -0.26662841481E+02  0.58072052848E+02  0.72624901792E+02  0.10000000000E+01 0.  0.
    9000005    1    3    3    0    0  0.34497911858E+02  0.26662841481E+02  0.39416723806E+03  0.39657259688E+03  0.10000000000E+01 0.  0.
<mgrwt>
<rscale>  0 0.12500367E+03</rscale>
<asrwt>0</asrwt>
<pdfrwt beam="2">  1        4 0.13044771E-02 0.12500367E+03</pdfrwt>
<pdfrwt beam="1">  1       -4 0.70879778E-01 0.12500367E+03</pdfrwt>
<totfact> 0.58331335E+03</totfact>
</mgrwt>
</event>
<event>
 5    1  0.3282421E-002  0.1249990E+03  0.7818608E-02  0.1235071E+00
          4   -1    0    0  501    0  0.00000000000E+00  0.00000000000E+00  0.24061296426E+02  0.24094789596E+02  0.12700000000E+01 0.  1.
         -4   -1    0    0    0  501 -0.00000000000E+00 -0.00000000000E+00 -0.16219435891E+03  0.16219933095E+03  0.12700000000E+01 0.  1.
         25    2    1    2    0    0  0.00000000000E+00  0.00000000000E+00 -0.13813306248E+03  0.18629412055E+03  0.12499902560E+03 0.  0.
    9000005    1    3    3    0    0 -0.38656439490E+02  0.48894576297E+02 -0.75763095181E+02  0.98112417648E+02  0.10000000000E+01 0.  0.
    9000005    1    3    3    0    0  0.38656439490E+02 -0.48894576297E+02 -0.62369967302E+02  0.88181702901E+02  0.10000000000E+01 0.  0.
<mgrwt>
<rscale>  0 0.12499903E+03</rscale>
<asrwt>0</asrwt>
<pdfrwt beam="1">  1        4 0.37046969E-02 0.12499903E+03</pdfrwt>
<pdfrwt beam="2">  1       -4 0.24955937E-01 0.12499903E+03</pdfrwt>
<totfact> 0.92498173E+03</totfact>
</mgrwt>
</event>
<event>
 5    1  0.3282421E-002  0.1250013E+03  0.7818608E-02  0.1235067E+00
          4   -1    0    0  501    0  0.00000000000E+00  0.00000000000E+00  0.72418834606E+02  0.72429969665E+02  0.12700000000E+01 0. -1.
         -4   -1    0    0    0  501 -0.00000000000E+00 -0.00000000000E+00 -0.53918081689E+02  0.53933036564E+02  0.12700000000E+01 0. -1.
         25    2    1    2    0    0  0.00000000000E+00  0.00000000000E+00  0.18500752917E+02  0.12636300623E+03  0.12500132593E+03 0.  0.
    9000005    1    3    3    0    0 -0.25814303570E+02 -0.47665713021E+02 -0.22183926627E+02  0.58579220438E+02  0.10000000000E+01 0.  0.
    9000005    1    3    3    0    0  0.25814303570E+02  0.47665713021E+02  0.40684679544E+02  0.67783785791E+02  0.10000000000E+01 0.  0.
<mgrwt>
<rscale>  0 0.12500133E+03</rscale>
<asrwt>0</asrwt>
<pdfrwt beam="1">  1        4 0.11143366E-01 0.12500133E+03</pdfrwt>
<pdfrwt beam="2">  1       -4 0.82970964E-02 0.12500133E+03</pdfrwt>
<totfact> 0.10422705E+04</totfact>
</mgrwt>
</event>
<event>
 5    1  0.3282421E-002  0.1249983E+03  0.7818608E-02  0.1235072E+00
         -4   -1    0    0    0  501 -0.00000000000E+00  0.00000000000E+00  0.19245186128E+02  0.19287044592E+02  0.12700000000E+01 0. -1.
          4   -1    0    0  501    0  0.00000000000E+00 -0.00000000000E+00 -0.20270309607E+03  0.20270707451E+03  0.12700000000E+01 0. -1.
         25    2    1    2    0    0  0.00000000000E+00  0.00000000000E+00 -0.18345790994E+03  0.22199411910E+03  0.12499833677E+03 0.  0.
    9000005    1    3    3    0    0 -0.32116270456E+01 -0.62106215198E+02 -0.80831701811E+02  0.10199147284E+03  0.10000000000E+01 0.  0.
    9000005    1    3    3    0    0  0.32116270456E+01  0.62106215198E+02 -0.10262620813E+03  0.12000264626E+03  0.10000000000E+01 0.  0.
<mgrwt>
<rscale>  0 0.12499834E+03</rscale>
<asrwt>0</asrwt>
<pdfrwt beam="2">  1        4 0.31188616E-01 0.12499834E+03</pdfrwt>
<pdfrwt beam="1">  1       -4 0.29643239E-02 0.12499834E+03</pdfrwt>
<totfact> 0.86557002E+03</totfact>
</mgrwt>
</event>
<event>
 5    1  0.3282421E-002  0.1249982E+03  0.7818608E-02  0.1235072E+00
         -4   -1    0    0    0  501 -0.00000000000E+00  0.00000000000E+00  0.13179549913E+03  0.13180161794E+03  0.12700000000E+01 0.  1.
          4   -1    0    0  501    0  0.00000000000E+00 -0.00000000000E+00 -0.29617434822E+02  0.29644651211E+02  0.12700000000E+01 0.  1.
         25    2    1    2    0    0  0.00000000000E+00  0.00000000000E+00  0.10217806431E+03  0.16144626915E+03  0.12499816397E+03 0.  0.
    9000005    1    3    3    0    0  0.18613224072E+02 -0.33086802234E+02  0.11520113623E+03  0.12129917717E+03  0.10000000000E+01 0.  0.
    9000005    1    3    3    0    0 -0.18613224072E+02  0.33086802234E+02 -0.13023071921E+02  0.40147091983E+02  0.10000000000E+01 0.  0.
<mgrwt>
<rscale>  0 0.12499816E+03</rscale>
<asrwt>0</asrwt>
<pdfrwt beam="2">  1        4 0.45590927E-02 0.12499816E+03</pdfrwt>
<pdfrwt beam="1">  1       -4 0.20278795E-01 0.12499816E+03</pdfrwt>
<totfact> 0.97068683E+03</totfact>
</mgrwt>
</event>
<event>
 5    1  0.3282421E-002  0.1249991E+03  0.7818608E-02  0.1235071E+00
          4   -1    0    0  501    0  0.00000000000E+00  0.00000000000E+00  0.71365165701E+02  0.71376465138E+02  0.12700000000E+01 0.  1.
         -4   -1    0    0    0  501 -0.00000000000E+00 -0.00000000000E+00 -0.54712282133E+02  0.54727019983E+02  0.12700000000E+01 0.  1.
         25    2    1    2    0    0  0.00000000000E+00  0.00000000000E+00  0.16652883568E+02  0.12610348512E+03  0.12499908171E+03 0.  0.
    9000005    1    3    3    0    0  0.50611225710E+02  0.53229029758E+01  0.44914815059E+02  0.67883503709E+02  0.10000000000E+01 0.  0.
    9000005    1    3    3    0    0 -0.50611225710E+02 -0.53229029758E+01 -0.28261931491E+02  0.58219981412E+02  0.10000000000E+01 0.  0.
<mgrwt>
<rscale>  0 0.12499908E+03</rscale>
<asrwt>0</asrwt>
<pdfrwt beam="1">  1        4 0.10981259E-01 0.12499908E+03</pdfrwt>
<pdfrwt beam="2">  1       -4 0.84192771E-02 0.12499908E+03</pdfrwt>
<totfact> 0.10428907E+04</totfact>
</mgrwt>
</event>
<event>
 5    1  0.3282421E-002  0.1249966E+03  0.7818608E-02  0.1235075E+00
          4   -1    0    0  501    0  0.00000000000E+00  0.00000000000E+00  0.21001554441E+02  0.21039918938E+02  0.12700000000E+01 0.  1.
         -4   -1    0    0    0  501 -0.00000000000E+00 -0.00000000000E+00 -0.18577790140E+03  0.18578224229E+03  0.12700000000E+01 0.  1.
         25    2    1    2    0    0  0.00000000000E+00  0.00000000000E+00 -0.16477634696E+03  0.20682216122E+03  0.12499664738E+03 0.  0.
    9000005    1    3    3    0    0  0.52435508693E+02  0.47594463498E+01 -0.26695821149E+02  0.59040678928E+02  0.10000000000E+01 0.  0.
    9000005    1    3    3    0    0 -0.52435508693E+02 -0.47594463498E+01 -0.13808052581E+03  0.14778148230E+03  0.10000000000E+01 0.  0.
<mgrwt>
<rscale>  0 0.12499665E+03</rscale>
<asrwt>0</asrwt>
<pdfrwt beam="1">  1        4 0.32342935E-02 0.12499665E+03</pdfrwt>
<pdfrwt beam="2">  1       -4 0.28584500E-01 0.12499665E+03</pdfrwt>
<totfact> 0.89004181E+03</totfact>
</mgrwt>
</event>
<event>
 5    1  0.3282421E-002  0.1250005E+03  0.7818608E-02  0.1235069E+00
          4   -1    0    0  501    0  0.00000000000E+00  0.00000000000E+00  0.15866360084E+03  0.15866868353E+03  0.12700000000E+01 0.  1.
         -4   -1    0    0    0  501 -0.00000000000E+00 -0.00000000000E+00 -0.24598029471E+02  0.24630792798E+02  0.12700000000E+01 0.  1.
         25    2    1    2    0    0  0.00000000000E+00  0.00000000000E+00  0.13406557137E+03  0.18329947633E+03  0.12500048238E+03 0.  0.
    9000005    1    3    3    0    0  0.27122111872E+02 -0.45025375368E+02  0.17469953262E+02  0.55399392112E+02  0.10000000000E+01 0.  0.
    9000005    1    3    3    0    0 -0.27122111872E+02  0.45025375368E+02  0.11659561811E+03  0.12790008421E+03  0.10000000000E+01 0.  0.
<mgrwt>
<rscale>  0 0.12500048E+03</rscale>
<asrwt>0</asrwt>
<pdfrwt beam="1">  1        4 0.24412696E-01 0.12500048E+03</pdfrwt>
<pdfrwt beam="2">  1       -4 0.37872235E-02 0.12500048E+03</pdfrwt>
<totfact> 0.93025430E+03</totfact>
</mgrwt>
</event>
<event>
 5    1  0.3282421E-002  0.1249939E+03  0.7818608E-02  0.1235079E+00
         -4   -1    0    0    0  501 -0.00000000000E+00  0.00000000000E+00  0.96494667594E+02  0.96503024689E+02  0.12700000000E+01 0.  1.
          4   -1    0    0  501    0  0.00000000000E+00 -0.00000000000E+00 -0.40457460306E+02  0.40477388680E+02  0.12700000000E+01 0.  1.
         25    2    1    2    0    0  0.00000000000E+00  0.00000000000E+00  0.56037207288E+02  0.13698041337E+03  0.12499386003E+03 0.  0.
    9000005    1    3    3    0    0  0.12221970825E+02 -0.59770781185E+02  0.42841332830E+02  0.74554025062E+02  0.10000000000E+01 0.  0.
    9000005    1    3    3    0    0 -0.12221970825E+02  0.59770781185E+02  0.13195874458E+02  0.62426388307E+02  0.10000000000E+01 0.  0.
<mgrwt>
<rscale>  0 0.12499386E+03</rscale>
<asrwt>0</asrwt>
<pdfrwt beam="2">  1        4 0.62264005E-02 0.12499386E+03</pdfrwt>
<pdfrwt beam="1">  1       -4 0.14847509E-01 0.12499386E+03</pdfrwt>
<totfact> 0.10197907E+04</totfact>
</mgrwt>
</event>
<event>
 5    1  0.3282421E-002  0.1249977E+03  0.7818608E-02  0.1235073E+00
         -4   -1    0    0    0  501 -0.00000000000E+00  0.00000000000E+00  0.40269515661E+02  0.40289536999E+02  0.12700000000E+01 0. -1.
          4   -1    0    0  501    0  0.00000000000E+00 -0.00000000000E+00 -0.96950796245E+02  0.96959114025E+02  0.12700000000E+01 0. -1.
         25    2    1    2    0    0  0.00000000000E+00  0.00000000000E+00 -0.56681280583E+02  0.13724865102E+03  0.12499769854E+03 0.  0.
    9000005    1    3    3    0    0 -0.50795190100E+02 -0.12094570866E+02 -0.66037339206E+02  0.84192399604E+02  0.10000000000E+01 0.  0.
    9000005    1    3    3    0    0  0.50795190100E+02  0.12094570866E+02  0.93560586226E+01  0.53056251420E+02  0.10000000000E+01 0.  0.
<mgrwt>
<rscale>  0 0.12499770E+03</rscale>
<asrwt>0</asrwt>
<pdfrwt beam="2">  1        4 0.14917687E-01 0.12499770E+03</pdfrwt>
<pdfrwt beam="1">  1       -4 0.61974901E-02 0.12499770E+03</pdfrwt>
<totfact> 0.10191418E+04</totfact>
</mgrwt>
</event>
<event>
 5    1  0.3282421E-002  0.1250023E+03  0.7818608E-02  0.1235066E+00
         -4   -1    0    0    0  501 -0.00000000000E+00  0.00000000000E+00  0.75444589012E+02  0.75455277557E+02  0.12700000000E+01 0. -1.
          4   -1    0    0  501    0  0.00000000000E+00 -0.00000000000E+00 -0.51756186176E+02  0.51771765544E+02  0.12700000000E+01 0. -1.
         25    2    1    2    0    0  0.00000000000E+00  0.00000000000E+00  0.23688402836E+02  0.12722704310E+03  0.12500232025E+03 0.  0.
    9000005    1    3    3    0    0 -0.53937149724E+02  0.38813185148E+01  0.43724410001E+02  0.69549297507E+02  0.10000000000E+01 0.  0.
    9000005    1    3    3    0    0  0.53937149724E+02 -0.38813185148E+01 -0.20036007165E+02  0.57677745594E+02  0.10000000000E+01 0.  0.
<mgrwt>
<rscale>  0 0.12500232E+03</rscale>
<asrwt>0</asrwt>
<pdfrwt beam="2">  1        4 0.79645108E-02 0.12500232E+03</pdfrwt>
<pdfrwt beam="1">  1       -4 0.11608880E-01 0.12500232E+03</pdfrwt>
<totfact> 0.10403672E+04</totfact>
</mgrwt>
</event>
<event>
 5    1  0.3282421E-002  0.1250012E+03  0.7818608E-02  0.1235067E+00
          4   -1    0    0  501    0  0.00000000000E+00  0.00000000000E+00  0.14530741128E+02  0.14586135120E+02  0.12700000000E+01 0. -1.
         -4   -1    0    0    0  501 -0.00000000000E+00 -0.00000000000E+00 -0.26826358885E+03  0.26826659502E+03  0.12700000000E+01 0. -1.
         25    2    1    2    0    0  0.00000000000E+00  0.00000000000E+00 -0.25373284772E+03  0.28285273014E+03  0.12500123573E+03 0.  0.
    9000005    1    3    3    0    0 -0.50363801403E+02  0.18079563073E+02 -0.19990768901E+03  0.20694798191E+03  0.10000000000E+01 0.  0.
    9000005    1    3    3    0    0  0.50363801403E+02 -0.18079563073E+02 -0.53825158711E+02  0.75904748224E+02  0.10000000000E+01 0.  0.
<mgrwt>
<rscale>  0 0.12500124E+03</rscale>
<asrwt>0</asrwt>
<pdfrwt beam="1">  1        4 0.22399912E-02 0.12500124E+03</pdfrwt>
<pdfrwt beam="2">  1       -4 0.41275810E-01 0.12500124E+03</pdfrwt>
<totfact> 0.77799233E+03</totfact>
</mgrwt>
</event>
<event>
 5    1  0.3282421E-002  0.1249992E+03  0.7818608E-02  0.1235071E+00
         -4   -1    0    0    0  501 -0.00000000000E+00  0.00000000000E+00  0.48226713396E+01  0.49870892162E+01  0.12700000000E+01 0.  1.
          4   -1    0    0  501    0  0.00000000000E+00 -0.00000000000E+00 -0.79622520962E+03  0.79622622246E+03  0.12700000000E+01 0.  1.
         25    2    1    2    0    0  0.00000000000E+00  0.00000000000E+00 -0.79140253828E+03  0.80121331168E+03  0.12499917285E+03 0.  0.
    9000005    1    3    3    0    0 -0.33170749961E+02  0.35974997758E+02 -0.64483355609E+03  0.64668834393E+03  0.10000000000E+01 0.  0.
    9000005    1    3    3    0    0  0.33170749961E+02 -0.35974997758E+02 -0.14656898219E+03  0.15452496775E+03  0.10000000000E+01 0.  0.
<mgrwt>
<rscale>  0 0.12499917E+03</rscale>
<asrwt>0</asrwt>
<pdfrwt beam="2">  1        4 0.12250881E+00 0.12499917E+03</pdfrwt>
<pdfrwt beam="1">  1       -4 0.75467551E-03 0.12499917E+03</pdfrwt>
<totfact> 0.38211335E+03</totfact>
</mgrwt>
</event>
<event>
 5    1  0.3282421E-002  0.1250020E+03  0.7818608E-02  0.1235066E+00
         -4   -1    0    0    0  501 -0.00000000000E+00  0.00000000000E+00  0.20215485400E+02  0.20255338801E+02  0.12700000000E+01 0. -1.
          4   -1    0    0  501    0  0.00000000000E+00 -0.00000000000E+00 -0.19300468084E+03  0.19300885919E+03  0.12700000000E+01 0. -1.
         25    2    1    2    0    0  0.00000000000E+00  0.00000000000E+00 -0.17278919544E+03  0.21326419799E+03  0.12500204832E+03 0.  0.
    9000005    1    3    3    0    0  0.33392853904E+01  0.52150174682E+02 -0.27923220648E+02  0.59257892282E+02  0.10000000000E+01 0.  0.
    9000005    1    3    3    0    0 -0.33392853904E+01 -0.52150174682E+02 -0.14486597479E+03  0.15400630571E+03  0.10000000000E+01 0.  0.
<mgrwt>
<rscale>  0 0.12500205E+03</rscale>
<asrwt>0</asrwt>
<pdfrwt beam="2">  1        4 0.29696414E-01 0.12500205E+03</pdfrwt>
<pdfrwt beam="1">  1       -4 0.31134619E-02 0.12500205E+03</pdfrwt>
<totfact> 0.87941529E+03</totfact>
</mgrwt>
</event>
<event>
 5    1  0.3282421E-002  0.1249970E+03  0.7818608E-02  0.1235074E+00
          4   -1    0    0  501    0  0.00000000000E+00  0.00000000000E+00  0.10514555460E+02  0.10590976184E+02  0.12700000000E+01 0.  1.
         -4   -1    0    0    0  501 -0.00000000000E+00 -0.00000000000E+00 -0.37006824464E+03  0.37007042382E+03  0.12700000000E+01 0.  1.
         25    2    1    2    0    0  0.00000000000E+00  0.00000000000E+00 -0.35955368918E+03  0.38066140001E+03  0.12499698418E+03 0.  0.
    9000005    1    3    3    0    0 -0.15197199832E+02  0.10749103057E+02 -0.36144410225E+03  0.36192449095E+03  0.10000000000E+01 0.  0.
    9000005    1    3    3    0    0  0.15197199832E+02 -0.10749103057E+02  0.18904130760E+01  0.18736909053E+02  0.10000000000E+01 0.  0.
<mgrwt>
<rscale>  0 0.12499698E+03</rscale>
<asrwt>0</asrwt>
<pdfrwt beam="1">  1        4 0.16236703E-02 0.12499698E+03</pdfrwt>
<pdfrwt beam="2">  1       -4 0.56939612E-01 0.12499698E+03</pdfrwt>
<totfact> 0.66482545E+03</totfact>
</mgrwt>
</event>
<event>
 5    1  0.3282421E-002  0.1250025E+03  0.7818608E-02  0.1235065E+00
          4   -1    0    0  501    0  0.00000000000E+00  0.00000000000E+00  0.37052681572E+02  0.37074440140E+02  0.12700000000E+01 0.  1.
         -4   -1    0    0    0  501 -0.00000000000E+00 -0.00000000000E+00 -0.10537189431E+03  0.10537954740E+03  0.12700000000E+01 0.  1.
         25    2    1    2    0    0  0.00000000000E+00  0.00000000000E+00 -0.68319212737E+02  0.14245398754E+03  0.12500249492E+03 0.  0.
    9000005    1    3    3    0    0 -0.89822426303E+01  0.11132850289E+02  0.35167464415E+02  0.37978567530E+02  0.10000000000E+01 0.  0.
    9000005    1    3    3    0    0  0.89822426303E+01 -0.11132850289E+02 -0.10348667715E+03  0.10447542001E+03  0.10000000000E+01 0.  0.
<mgrwt>
<rscale>  0 0.12500249E+03</rscale>
<asrwt>0</asrwt>
<pdfrwt beam="1">  1        4 0.57026750E-02 0.12500249E+03</pdfrwt>
<pdfrwt beam="2">  1       -4 0.16213323E-01 0.12500249E+03</pdfrwt>
<totfact> 0.10082410E+04</totfact>
</mgrwt>
</event>
<event>
 5    1  0.3282421E-002  0.1249950E+03  0.7818608E-02  0.1235077E+00
          4   -1    0    0  501    0  0.00000000000E+00  0.00000000000E+00  0.23167537485E+02  0.23202320856E+02  0.12700000000E+01 0.  1.
         -4   -1    0    0    0  501 -0.00000000000E+00 -0.00000000000E+00 -0.16843175536E+03  0.16843654328E+03  0.12700000000E+01 0.  1.
         25    2    1    2    0    0  0.00000000000E+00  0.00000000000E+00 -0.14526421787E+03  0.19163886414E+03  0.12499504492E+03 0.  0.
    9000005    1    3    3    0    0 -0.75063172220E+01 -0.54542575178E+02 -0.27313903205E+02  0.61467768900E+02  0.10000000000E+01 0.  0.
    9000005    1    3    3    0    0  0.75063172220E+01  0.54542575178E+02 -0.11795031467E+03  0.13017109524E+03  0.10000000000E+01 0.  0.
<mgrwt>
<rscale>  0 0.12499504E+03</rscale>
<asrwt>0</asrwt>
<pdfrwt beam="1">  1        4 0.35672806E-02 0.12499504E+03</pdfrwt>
<pdfrwt beam="2">  1       -4 0.25915621E-01 0.12499504E+03</pdfrwt>
<totfact> 0.91573099E+03</totfact>
</mgrwt>
</event>
<event>
 5    1  0.3282421E-002  0.1250016E+03  0.7818608E-02  0.1235067E+00
         -4   -1    0    0    0  501 -0.00000000000E+00  0.00000000000E+00  0.68480354472E+03  0.68480472236E+03  0.12700000000E+01 0.  1.
          4   -1    0    0  501    0  0.00000000000E+00 -0.00000000000E+00 -0.56324503736E+01  0.57738546233E+01  0.12700000000E+01 0.  1.
         25    2    1    2    0    0  0.00000000000E+00  0.00000000000E+00  0.67917109435E+03  0.69057857698E+03  0.12500158234E+03 0.  0.
    9000005    1    3    3    0    0  0.79292048471E+01  0.61940567619E+02  0.35293932118E+03  0.35842247508E+03  0.10000000000E+01 0.  0.
    9000005    1    3    3    0    0 -0.79292048471E+01 -0.61940567619E+02  0.32623177317E+03  0.33215610190E+03  0.10000000000E+01 0.  0.
<mgrwt>
<rscale>  0 0.12500158E+03</rscale>
<asrwt>0</asrwt>
<pdfrwt beam="2">  1        4 0.87749941E-03 0.12500158E+03</pdfrwt>
<pdfrwt beam="1">  1       -4 0.10536527E+00 0.12500158E+03</pdfrwt>
<totfact> 0.43587243E+03</totfact>
</mgrwt>
</event>
<event>
 5    1  0.3282421E-002  0.1250067E+03  0.7818608E-02  0.1235059E+00
          4   -1    0    0  501    0  0.00000000000E+00  0.00000000000E+00  0.30451301725E+02  0.30477773487E+02  0.12700000000E+01 0.  1.
         -4   -1    0    0    0  501 -0.00000000000E+00 -0.00000000000E+00 -0.12820697832E+03  0.12821326839E+03  0.12700000000E+01 0.  1.
         25    2    1    2    0    0  0.00000000000E+00  0.00000000000E+00 -0.97755676599E+02  0.15869104188E+03  0.12500669768E+03 0.  0.
    9000005    1    3    3    0    0  0.12593721758E+02  0.50662699375E+02 -0.92491840798E+02  0.10621229472E+03  0.10000000000E+01 0.  0.
    9000005    1    3    3    0    0 -0.12593721758E+02 -0.50662699375E+02 -0.52638358008E+01  0.52478747155E+02  0.10000000000E+01 0.  0.
<mgrwt>
<rscale>  0 0.12500670E+03</rscale>
<asrwt>0</asrwt>
<pdfrwt beam="1">  1        4 0.46873359E-02 0.12500670E+03</pdfrwt>
<pdfrwt beam="2">  1       -4 0.19726670E-01 0.12500670E+03</pdfrwt>
<totfact> 0.97581043E+03</totfact>
</mgrwt>
</event>
<event>
 5    1  0.3282421E-002  0.1249994E+03  0.7818608E-02  0.1235070E+00
          4   -1    0    0  501    0  0.00000000000E+00  0.00000000000E+00  0.47793668839E+02  0.47810539435E+02  0.12700000000E+01 0. -1.
         -4   -1    0    0    0  501 -0.00000000000E+00 -0.00000000000E+00 -0.81694586665E+02  0.81704457591E+02  0.12700000000E+01 0. -1.
         25    2    1    2    0    0  0.00000000000E+00  0.00000000000E+00 -0.33900917826E+02  0.12951499703E+03  0.12499944890E+03 0.  0.
    9000005    1    3    3    0    0 -0.10857134203E+02  0.29335203286E+01  0.46741564311E+02  0.48085930779E+02  0.10000000000E+01 0.  0.
    9000005    1    3    3    0    0  0.10857134203E+02 -0.29335203286E+01 -0.80642482137E+02  0.81429066247E+02  0.10000000000E+01 0.  0.
<mgrwt>
<rscale>  0 0.12499945E+03</rscale>
<asrwt>0</asrwt>
<pdfrwt beam="1">  1        4 0.73549292E-02 0.12499945E+03</pdfrwt>
<pdfrwt beam="2">  1       -4 0.12570455E-01 0.12499945E+03</pdfrwt>
<totfact> 0.10355022E+04</totfact>
</mgrwt>
</event>
<event>
 5    1  0.3282421E-002  0.1249966E+03  0.7818608E-02  0.1235075E+00
         -4   -1    0    0    0  501 -0.00000000000E+00  0.00000000000E+00  0.11878778533E+02  0.11946475607E+02  0.12700000000E+01 0.  1.
          4   -1    0    0  501    0  0.00000000000E+00 -0.00000000000E+00 -0.32782134095E+03  0.32782380097E+03  0.12700000000E+01 0.  1.
         25    2    1    2    0    0  0.00000000000E+00  0.00000000000E+00 -0.31594256242E+03  0.33977027657E+03  0.12499655235E+03 0.  0.
    9000005    1    3    3    0    0  0.62173006124E+02 -0.55034056586E+01 -0.16624489160E+03  0.17757852952E+03  0.10000000000E+01 0.  0.
    9000005    1    3    3    0    0 -0.62173006124E+02  0.55034056586E+01 -0.14969767082E+03  0.16219174706E+03  0.10000000000E+01 0.  0.
<mgrwt>
<rscale>  0 0.12499655E+03</rscale>
<asrwt>0</asrwt>
<pdfrwt beam="2">  1        4 0.50439442E-01 0.12499655E+03</pdfrwt>
<pdfrwt beam="1">  1       -4 0.18329013E-02 0.12499655E+03</pdfrwt>
<totfact> 0.70870221E+03</totfact>
</mgrwt>
</event>
<event>
 5    1  0.3282421E-002  0.1249852E+03  0.7818608E-02  0.1235092E+00
          4   -1    0    0  501    0  0.00000000000E+00  0.00000000000E+00  0.38857843431E+02  0.38878591745E+02  0.12700000000E+01 0.  1.
         -4   -1    0    0    0  501 -0.00000000000E+00 -0.00000000000E+00 -0.10045133576E+03  0.10045936370E+03  0.12700000000E+01 0.  1.
         25    2    1    2    0    0  0.00000000000E+00  0.00000000000E+00 -0.61593492329E+02  0.13933795545E+03  0.12498522925E+03 0.  0.
    9000005    1    3    3    0    0  0.46435571855E+02 -0.41808698603E+02 -0.30449048861E+02  0.69515280255E+02  0.10000000000E+01 0.  0.
    9000005    1    3    3    0    0 -0.46435571855E+02  0.41808698603E+02 -0.31144443468E+02  0.69822675195E+02  0.10000000000E+01 0.  0.
<mgrwt>
<rscale>  0 0.12498523E+03</rscale>
<asrwt>0</asrwt>
<pdfrwt beam="1">  1        4 0.59803434E-02 0.12498523E+03</pdfrwt>
<pdfrwt beam="2">  1       -4 0.15456265E-01 0.12498523E+03</pdfrwt>
<totfact> 0.10150703E+04</totfact>
</mgrwt>
</event>
<event>
 5    1  0.3282421E-002  0.1249994E+03  0.7818608E-02  0.1235070E+00
         -4   -1    0    0    0  501 -0.00000000000E+00  0.00000000000E+00  0.12610077335E+02  0.12673868802E+02  0.12700000000E+01 0.  1.
          4   -1    0    0  501    0  0.00000000000E+00 -0.00000000000E+00 -0.30892229615E+03  0.30892490667E+03  0.12700000000E+01 0.  1.
         25    2    1    2    0    0  0.00000000000E+00  0.00000000000E+00 -0.29631221882E+03  0.32159877547E+03  0.12499936545E+03 0.  0.
    9000005    1    3    3    0    0 -0.14237807414E+02  0.57888910545E+02 -0.19638290801E+03  0.20523422639E+03  0.10000000000E+01 0.  0.
    9000005    1    3    3    0    0  0.14237807414E+02 -0.57888910545E+02 -0.99929310808E+02  0.11636454908E+03  0.10000000000E+01 0.  0.
<mgrwt>
<rscale>  0 0.12499937E+03</rscale>
<asrwt>0</asrwt>
<pdfrwt beam="2">  1        4 0.47531609E-01 0.12499937E+03</pdfrwt>
<pdfrwt beam="1">  1       -4 0.19451200E-02 0.12499937E+03</pdfrwt>
<totfact> 0.72967403E+03</totfact>
</mgrwt>
</event>
<event>
 5    1  0.3282421E-002  0.1249974E+03  0.7818608E-02  0.1235073E+00
         -4   -1    0    0    0  501 -0.00000000000E+00  0.00000000000E+00  0.29660628175E+01  0.32265195858E+01  0.12700000000E+01 0. -1.
          4   -1    0    0  501    0  0.00000000000E+00 -0.00000000000E+00 -0.12612770104E+04  0.12612776498E+04  0.12700000000E+01 0. -1.
         25    2    1    2    0    0  0.00000000000E+00  0.00000000000E+00 -0.12583109476E+04  0.12645041694E+04  0.12499741424E+03 0.  0.
    9000005    1    3    3    0    0 -0.45661545226E+02 -0.38645213423E+02 -0.44631739206E+03  0.45030949766E+03  0.10000000000E+01 0.  0.
    9000005    1    3    3    0    0  0.45661545226E+02  0.38645213423E+02 -0.81199355552E+03  0.81419467171E+03  0.10000000000E+01 0.  0.
<mgrwt>
<rscale>  0 0.12499741E+03</rscale>
<asrwt>0</asrwt>
<pdfrwt beam="2">  1        4 0.19406229E+00 0.12499741E+03</pdfrwt>
<pdfrwt beam="1">  1       -4 0.47640268E-03 0.12499741E+03</pdfrwt>
<totfact> 0.23083457E+03</totfact>
</mgrwt>
</event>
<event>
 5    1  0.3282421E-002  0.1250069E+03  0.7818608E-02  0.1235058E+00
          4   -1    0    0  501    0  0.00000000000E+00  0.00000000000E+00  0.12969299201E+03  0.12969921001E+03  0.12700000000E+01 0.  1.
         -4   -1    0    0    0  501 -0.00000000000E+00 -0.00000000000E+00 -0.30102212750E+02  0.30128991229E+02  0.12700000000E+01 0.  1.
         25    2    1    2    0    0  0.00000000000E+00  0.00000000000E+00  0.99590779259E+02  0.15982820124E+03  0.12500692219E+03 0.  0.
    9000005    1    3    3    0    0 -0.58754151002E+02  0.17318840153E+02  0.65645868505E+02  0.89790715199E+02  0.10000000000E+01 0.  0.
    9000005    1    3    3    0    0  0.58754151002E+02 -0.17318840153E+02  0.33944910754E+02  0.70037486036E+02  0.10000000000E+01 0.  0.
<mgrwt>
<rscale>  0 0.12500692E+03</rscale>
<asrwt>0</asrwt>
<pdfrwt beam="1">  1        4 0.19955306E-01 0.12500692E+03</pdfrwt>
<pdfrwt beam="2">  1       -4 0.46336478E-02 0.12500692E+03</pdfrwt>
<totfact> 0.97360767E+03</totfact>
</mgrwt>
</event>
<event>
 5    1  0.3282421E-002  0.1249993E+03  0.7818608E-02  0.1235070E+00
          4   -1    0    0  501    0  0.00000000000E+00  0.00000000000E+00  0.36510598214E+03  0.36510819094E+03  0.12700000000E+01 0.  1.
         -4   -1    0    0    0  501 -0.00000000000E+00 -0.00000000000E+00 -0.10658886906E+02  0.10734280138E+02  0.12700000000E+01 0.  1.
         25    2    1    2    0    0  0.00000000000E+00  0.00000000000E+00  0.35444709523E+03  0.37584247108E+03  0.12499927900E+03 0.  0.
    9000005    1    3    3    0    0  0.41997622164E+02 -0.22483417809E+02  0.29883565151E+03  0.30261039466E+03  0.10000000000E+01 0.  0.
    9000005    1    3    3    0    0 -0.41997622164E+02  0.22483417809E+02  0.55611443725E+02  0.73232076422E+02  0.10000000000E+01 0.  0.
<mgrwt>
<rscale>  0 0.12499928E+03</rscale>
<asrwt>0</asrwt>
<pdfrwt beam="1">  1        4 0.56176127E-01 0.12499928E+03</pdfrwt>
<pdfrwt beam="2">  1       -4 0.16457980E-02 0.12499928E+03</pdfrwt>
<totfact> 0.66973164E+03</totfact>
</mgrwt>
</event>
<event>
 5    1  0.3282421E-002  0.1250008E+03  0.7818608E-02  0.1235068E+00
         -4   -1    0    0    0  501 -0.00000000000E+00  0.00000000000E+00  0.39494604914E+02  0.39515018883E+02  0.12700000000E+01 0.  1.
          4   -1    0    0  501    0  0.00000000000E+00 -0.00000000000E+00 -0.98857170040E+02  0.98865327432E+02  0.12700000000E+01 0.  1.
         25    2    1    2    0    0  0.00000000000E+00  0.00000000000E+00 -0.59362565126E+02  0.13838034631E+03  0.12500082443E+03 0.  0.
    9000005    1    3    3    0    0 -0.61580869139E+02 -0.10477657947E+02 -0.31697414818E+02  0.70055055964E+02  0.10000000000E+01 0.  0.
    9000005    1    3    3    0    0  0.61580869139E+02  0.10477657947E+02 -0.27665150308E+02  0.68325290351E+02  0.10000000000E+01 0.  0.
<mgrwt>
<rscale>  0 0.12500082E+03</rscale>
<asrwt>0</asrwt>
<pdfrwt beam="2">  1        4 0.15210993E-01 0.12500082E+03</pdfrwt>
<pdfrwt beam="1">  1       -4 0.60782909E-02 0.12500082E+03</pdfrwt>
<totfact> 0.10167076E+04</totfact>
</mgrwt>
</event>
<event>
 5    1  0.3282421E-002  0.1250479E+03  0.7818608E-02  0.1234994E+00
         -4   -1    0    0    0  501 -0.00000000000E+00  0.00000000000E+00  0.57411513788E+03  0.57411654256E+03  0.12700000000E+01 0. -1.
          4   -1    0    0  501    0  0.00000000000E+00 -0.00000000000E+00 -0.67485250528E+01  0.68669855386E+01  0.12700000000E+01 0. -1.
         25    2    1    2    0    0  0.00000000000E+00  0.00000000000E+00  0.56736661282E+03  0.58098352810E+03  0.12504793710E+03 0.  0.
    9000005    1    3    3    0    0 -0.11442039482E+02 -0.31132246343E+02  0.52988685945E+03  0.53092487307E+03  0.10000000000E+01 0.  0.
    9000005    1    3    3    0    0  0.11442039482E+02  0.31132246343E+02  0.37479753376E+02  0.50058655026E+02  0.10000000000E+01 0.  0.
<mgrwt>
<rscale>  0 0.12504794E+03</rscale>
<asrwt>0</asrwt>
<pdfrwt beam="2">  1        4 0.10474551E-02 0.12504794E+03</pdfrwt>
<pdfrwt beam="1">  1       -4 0.88334619E-01 0.12504794E+03</pdfrwt>
<totfact> 0.50037779E+03</totfact>
</mgrwt>
</event>
<event>
 5    1  0.3282421E-002  0.1249988E+03  0.7818608E-02  0.1235071E+00
          4   -1    0    0  501    0  0.00000000000E+00  0.00000000000E+00  0.17861392591E+02  0.17906486124E+02  0.12700000000E+01 0. -1.
         -4   -1    0    0    0  501 -0.00000000000E+00 -0.00000000000E+00 -0.21837098772E+03  0.21837468072E+03  0.12700000000E+01 0. -1.
         25    2    1    2    0    0  0.00000000000E+00  0.00000000000E+00 -0.20050959513E+03  0.23628116684E+03  0.12499876825E+03 0.  0.
    9000005    1    3    3    0    0  0.89210583011E+01 -0.55830469520E+02 -0.15057096154E+03  0.16083917765E+03  0.10000000000E+01 0.  0.
    9000005    1    3    3    0    0 -0.89210583011E+01  0.55830469520E+02 -0.49938633584E+02  0.75441989186E+02  0.10000000000E+01 0.  0.
<mgrwt>
<rscale>  0 0.12499877E+03</rscale>
<asrwt>0</asrwt>
<pdfrwt beam="1">  1        4 0.27516595E-02 0.12499877E+03</pdfrwt>
<pdfrwt beam="2">  1       -4 0.33599288E-01 0.12499877E+03</pdfrwt>
<totfact> 0.84356675E+03</totfact>
</mgrwt>
</event>
<event>
 5    1  0.3282421E-002  0.1249873E+03  0.7818608E-02  0.1235089E+00
          4   -1    0    0  501    0  0.00000000000E+00  0.00000000000E+00  0.67437609917E+01  0.68623037177E+01  0.12700000000E+01 0. -1.
         -4   -1    0    0    0  501 -0.00000000000E+00 -0.00000000000E+00 -0.57395672276E+03  0.57395812783E+03  0.12700000000E+01 0. -1.
         25    2    1    2    0    0  0.00000000000E+00  0.00000000000E+00 -0.56721296177E+03  0.58082043155E+03  0.12498731817E+03 0.  0.
    9000005    1    3    3    0    0 -0.34506867555E+02 -0.52093121089E+02 -0.28267414110E+03  0.28949971886E+03  0.10000000000E+01 0.  0.
    9000005    1    3    3    0    0  0.34506867555E+02  0.52093121089E+02 -0.28453882066E+03  0.29132071268E+03  0.10000000000E+01 0.  0.
<mgrwt>
<rscale>  0 0.12498732E+03</rscale>
<asrwt>0</asrwt>
<pdfrwt beam="1">  1        4 0.10467289E-02 0.12498732E+03</pdfrwt>
<pdfrwt beam="2">  1       -4 0.88310223E-01 0.12498732E+03</pdfrwt>
<totfact> 0.50115058E+03</totfact>
</mgrwt>
</event>
<event>
 5    1  0.3282421E-002  0.1250016E+03  0.7818608E-02  0.1235067E+00
         -4   -1    0    0    0  501 -0.00000000000E+00  0.00000000000E+00  0.81846143202E+01  0.82825606892E+01  0.12700000000E+01 0. -1.
          4   -1    0    0  501    0  0.00000000000E+00 -0.00000000000E+00 -0.47434181331E+03  0.47434351345E+03  0.12700000000E+01 0. -1.
         25    2    1    2    0    0  0.00000000000E+00  0.00000000000E+00 -0.46615719899E+03  0.48262607414E+03  0.12500157307E+03 0.  0.
    9000005    1    3    3    0    0 -0.27791456811E+02 -0.16965290918E+02 -0.27134755792E+02  0.42396711423E+02  0.10000000000E+01 0.  0.
    9000005    1    3    3    0    0  0.27791456811E+02  0.16965290918E+02 -0.43902244320E+03  0.44022936272E+03  0.10000000000E+01 0.  0.
<mgrwt>
<rscale>  0 0.12500157E+03</rscale>
<asrwt>0</asrwt>
<pdfrwt beam="2">  1        4 0.72983307E-01 0.12500157E+03</pdfrwt>
<pdfrwt beam="1">  1       -4 0.12668369E-02 0.12500157E+03</pdfrwt>
<totfact> 0.57236053E+03</totfact>
</mgrwt>
</event>
<event>
 5    1  0.3282421E-002  0.1249993E+03  0.7818608E-02  0.1235070E+00
         -4   -1    0    0    0  501 -0.00000000000E+00  0.00000000000E+00  0.79410510051E+01  0.80419643786E+01  0.12700000000E+01 0.  1.
          4   -1    0    0  501    0  0.00000000000E+00 -0.00000000000E+00 -0.48869267472E+03  0.48869432494E+03  0.12700000000E+01 0.  1.
         25    2    1    2    0    0  0.00000000000E+00  0.00000000000E+00 -0.48075162372E+03  0.49673628932E+03  0.12499926967E+03 0.  0.
    9000005    1    3    3    0    0  0.32927751726E+02  0.40510937261E+02 -0.10387714694E+03  0.11626192209E+03  0.10000000000E+01 0.  0.
    9000005    1    3    3    0    0 -0.32927751726E+02 -0.40510937261E+02 -0.37687447678E+03  0.38047436723E+03  0.10000000000E+01 0.  0.
<mgrwt>
<rscale>  0 0.12499927E+03</rscale>
<asrwt>0</asrwt>
<pdfrwt beam="2">  1        4 0.75191354E-01 0.12499927E+03</pdfrwt>
<pdfrwt beam="1">  1       -4 0.12295900E-02 0.12499927E+03</pdfrwt>
<totfact> 0.56119394E+03</totfact>
</mgrwt>
</event>
<event>
 5    1  0.3282421E-002  0.1249753E+03  0.7818608E-02  0.1235108E+00
         -4   -1    0    0    0  501 -0.00000000000E+00  0.00000000000E+00  0.14414714025E+03  0.14415273478E+03  0.12700000000E+01 0. -1.
          4   -1    0    0  501    0  0.00000000000E+00 -0.00000000000E+00 -0.27067345664E+02  0.27097123488E+02  0.12700000000E+01 0. -1.
         25    2    1    2    0    0  0.00000000000E+00  0.00000000000E+00  0.11707979459E+03  0.17124985826E+03  0.12497534018E+03 0.  0.
    9000005    1    3    3    0    0  0.71514352677E+01 -0.31437107896E+02  0.13187521600E+03  0.13576268771E+03  0.10000000000E+01 0.  0.
    9000005    1    3    3    0    0 -0.71514352677E+01  0.31437107896E+02 -0.14795421409E+02  0.35487170554E+02  0.10000000000E+01 0.  0.
<mgrwt>
<rscale>  0 0.12497534E+03</rscale>
<asrwt>0</asrwt>
<pdfrwt beam="2">  1        4 0.41669280E-02 0.12497534E+03</pdfrwt>
<pdfrwt beam="1">  1       -4 0.22179204E-01 0.12497534E+03</pdfrwt>
<totfact> 0.95268905E+03</totfact>
</mgrwt>
</event>
<event>
 5    1  0.3282421E-002  0.1249982E+03  0.7818608E-02  0.1235072E+00
          4   -1    0    0  501    0  0.00000000000E+00  0.00000000000E+00  0.73838688078E+02  0.73849609051E+02  0.12700000000E+01 0. -1.
         -4   -1    0    0    0  501 -0.00000000000E+00 -0.00000000000E+00 -0.52878535836E+02  0.52893784627E+02  0.12700000000E+01 0. -1.
         25    2    1    2    0    0  0.00000000000E+00  0.00000000000E+00  0.20960152242E+02  0.12674339368E+03  0.12499823942E+03 0.  0.
    9000005    1    3    3    0    0 -0.24572175533E+02  0.22267188827E+02  0.64186737451E+02  0.72253420495E+02  0.10000000000E+01 0.  0.
    9000005    1    3    3    0    0  0.24572175533E+02 -0.22267188827E+02 -0.43226585209E+02  0.54489973183E+02  0.10000000000E+01 0.  0.
<mgrwt>
<rscale>  0 0.12499824E+03</rscale>
<asrwt>0</asrwt>
<pdfrwt beam="1">  1        4 0.11361811E-01 0.12499824E+03</pdfrwt>
<pdfrwt beam="2">  1       -4 0.81371725E-02 0.12499824E+03</pdfrwt>
<totfact> 0.10415139E+04</totfact>
</mgrwt>
</event>
<event>
 5    1  0.3282421E-002  0.1249996E+03  0.7818608E-02  0.1235070E+00
         -4   -1    0    0    0  501 -0.00000000000E+00  0.00000000000E+00  0.65097120630E+02  0.65109507864E+02  0.12700000000E+01 0.  1.
          4   -1    0    0  501    0  0.00000000000E+00 -0.00000000000E+00 -0.59981297330E+02  0.59994740848E+02  0.12700000000E+01 0.  1.
         25    2    1    2    0    0  0.00000000000E+00  0.00000000000E+00  0.51158233001E+01  0.12510424871E+03  0.12499960559E+03 0.  0.
    9000005    1    3    3    0    0  0.51709370743E+02  0.34628068070E+02  0.82427396396E+01  0.62784591085E+02  0.10000000000E+01 0.  0.
    9000005    1    3    3    0    0 -0.51709370743E+02 -0.34628068070E+02 -0.31269163395E+01  0.62319657627E+02  0.10000000000E+01 0.  0.
<mgrwt>
<rscale>  0 0.12499961E+03</rscale>
<asrwt>0</asrwt>
<pdfrwt beam="2">  1        4 0.92298789E-02 0.12499961E+03</pdfrwt>
<pdfrwt beam="1">  1       -4 0.10016929E-01 0.12499961E+03</pdfrwt>
<totfact> 0.10450692E+04</totfact>
</mgrwt>
</event>
<event>
 5    1  0.3282421E-002  0.1249956E+03  0.7818608E-02  0.1235076E+00
          4   -1    0    0  501    0  0.00000000000E+00  0.00000000000E+00  0.28957573222E+03  0.28957851714E+03  0.12700000000E+01 0. -1.
         -4   -1    0    0    0  501 -0.00000000000E+00 -0.00000000000E+00 -0.13455868076E+02  0.13515668155E+02  0.12700000000E+01 0. -1.
         25    2    1    2    0    0  0.00000000000E+00  0.00000000000E+00  0.27611986414E+03  0.30309418529E+03  0.12499562307E+03 0.  0.
    9000005    1    3    3    0    0 -0.37667631220E+02  0.49412673072E+02  0.15423811957E+03  0.16628547811E+03  0.10000000000E+01 0.  0.
    9000005    1    3    3    0    0  0.37667631220E+02 -0.49412673072E+02  0.12188174458E+03  0.13680870719E+03  0.10000000000E+01 0.  0.
<mgrwt>
<rscale>  0 0.12499562E+03</rscale>
<asrwt>0</asrwt>
<pdfrwt beam="1">  1        4 0.44554927E-01 0.12499562E+03</pdfrwt>
<pdfrwt beam="2">  1       -4 0.20749478E-02 0.12499562E+03</pdfrwt>
<totfact> 0.75219647E+03</totfact>
</mgrwt>
</event>
<event>
 5    1  0.3282421E-002  0.1250009E+03  0.7818608E-02  0.1235068E+00
          4   -1    0    0  501    0  0.00000000000E+00  0.00000000000E+00  0.69668863290E+02  0.69680437801E+02  0.12700000000E+01 0. -1.
         -4   -1    0    0    0  501 -0.00000000000E+00 -0.00000000000E+00 -0.56046192049E+02  0.56060579226E+02  0.12700000000E+01 0. -1.
         25    2    1    2    0    0  0.00000000000E+00  0.00000000000E+00  0.13622671241E+02  0.12574101703E+03  0.12500090476E+03 0.  0.
    9000005    1    3    3    0    0 -0.25846073781E+02 -0.37270735344E+02  0.50056331862E+02  0.67555633388E+02  0.10000000000E+01 0.  0.
    9000005    1    3    3    0    0  0.25846073781E+02  0.37270735344E+02 -0.36433660621E+02  0.58185383639E+02  0.10000000000E+01 0.  0.
<mgrwt>
<rscale>  0 0.12500090E+03</rscale>
<asrwt>0</asrwt>
<pdfrwt beam="1">  1        4 0.10720284E-01 0.12500090E+03</pdfrwt>
<pdfrwt beam="2">  1       -4 0.86244882E-02 0.12500090E+03</pdfrwt>
<totfact> 0.10436429E+04</totfact>
</mgrwt>
</event>
<event>
 5    1  0.3282421E-002  0.1250244E+03  0.7818608E-02  0.1235031E+00
         -4   -1    0    0    0  501 -0.00000000000E+00  0.00000000000E+00  0.12310768389E+03  0.12311423449E+03  0.12700000000E+01 0. -1.
          4   -1    0    0  501    0  0.00000000000E+00 -0.00000000000E+00 -0.31722625507E+02  0.31748037248E+02  0.12700000000E+01 0. -1.
         25    2    1    2    0    0  0.00000000000E+00  0.00000000000E+00  0.91385058383E+02  0.15486227173E+03  0.12502437487E+03 0.  0.
    9000005    1    3    3    0    0  0.32741017930E+02  0.26585489924E+02 -0.11447159941E+02  0.43712698387E+02  0.10000000000E+01 0.  0.
    9000005    1    3    3    0    0 -0.32741017930E+02 -0.26585489924E+02  0.10283221832E+03  0.11114957335E+03  0.10000000000E+01 0.  0.
<mgrwt>
<rscale>  0 0.12502437E+03</rscale>
<asrwt>0</asrwt>
<pdfrwt beam="2">  1        4 0.48828624E-02 0.12502437E+03</pdfrwt>
<pdfrwt beam="1">  1       -4 0.18942103E-01 0.12502437E+03</pdfrwt>
<totfact> 0.98288651E+03</totfact>
</mgrwt>
</event>
<event>
 5    1  0.3282421E-002  0.1250001E+03  0.7818608E-02  0.1235069E+00
         -4   -1    0    0    0  501 -0.00000000000E+00  0.00000000000E+00  0.10784516379E+02  0.10859037413E+02  0.12700000000E+01 0.  1.
          4   -1    0    0  501    0  0.00000000000E+00 -0.00000000000E+00 -0.36088689408E+03  0.36088912871E+03  0.12700000000E+01 0.  1.
         25    2    1    2    0    0  0.00000000000E+00  0.00000000000E+00 -0.35010237770E+03  0.37174816612E+03  0.12500009657E+03 0.  0.
    9000005    1    3    3    0    0  0.32401267001E+02  0.27598120571E+02 -0.31113350556E+03  0.31403273180E+03  0.10000000000E+01 0.  0.
    9000005    1    3    3    0    0 -0.32401267001E+02 -0.27598120571E+02 -0.38968872144E+02  0.57715434318E+02  0.10000000000E+01 0.  0.
<mgrwt>
<rscale>  0 0.12500010E+03</rscale>
<asrwt>0</asrwt>
<pdfrwt beam="2">  1        4 0.55526956E-01 0.12500010E+03</pdfrwt>
<pdfrwt beam="1">  1       -4 0.16650609E-02 0.12500010E+03</pdfrwt>
<totfact> 0.67396302E+03</totfact>
</mgrwt>
</event>
<event>
 5    1  0.3282421E-002  0.1249994E+03  0.7818608E-02  0.1235070E+00
         -4   -1    0    0    0  501 -0.00000000000E+00  0.00000000000E+00  0.29272530744E+03  0.29272806240E+03  0.12700000000E+01 0.  1.
          4   -1    0    0  501    0  0.00000000000E+00 -0.00000000000E+00 -0.13311260831E+02  0.13371707629E+02  0.12700000000E+01 0.  1.
         25    2    1    2    0    0  0.00000000000E+00  0.00000000000E+00  0.27941404661E+03  0.30609977003E+03  0.12499943907E+03 0.  0.
    9000005    1    3    3    0    0  0.51217675226E+02 -0.32123682955E+02  0.10098534295E+03  0.11770395386E+03  0.10000000000E+01 0.  0.
    9000005    1    3    3    0    0 -0.51217675226E+02  0.32123682955E+02  0.17842870366E+03  0.18839581617E+03  0.10000000000E+01 0.  0.
<mgrwt>
<rscale>  0 0.12499944E+03</rscale>
<asrwt>0</asrwt>
<pdfrwt beam="2">  1        4 0.20527479E-02 0.12499944E+03</pdfrwt>
<pdfrwt beam="1">  1       -4 0.45039525E-01 0.12499944E+03</pdfrwt>
<totfact> 0.74840940E+03</totfact>
</mgrwt>
</event>
<event>
 5    1  0.3282421E-002  0.1249994E+03  0.7818608E-02  0.1235070E+00
         -4   -1    0    0    0  501 -0.00000000000E+00  0.00000000000E+00  0.14373428802E+03  0.14373989861E+03  0.12700000000E+01 0. -1.
          4   -1    0    0  501    0  0.00000000000E+00 -0.00000000000E+00 -0.27155645742E+02  0.27185326845E+02  0.12700000000E+01 0. -1.
         25    2    1    2    0    0  0.00000000000E+00  0.00000000000E+00  0.11657864228E+03  0.17092522546E+03  0.12499941145E+03 0.  0.
    9000005    1    3    3    0    0 -0.21551857894E+01  0.17588090008E+01 -0.27077647744E+02  0.27238524965E+02  0.10000000000E+01 0.  0.
    9000005    1    3    3    0    0  0.21551857894E+01 -0.17588090008E+01  0.14365629003E+03  0.14368670049E+03  0.10000000000E+01 0.  0.
<mgrwt>
<rscale>  0 0.12499941E+03</rscale>
<asrwt>0</asrwt>
<pdfrwt beam="2">  1        4 0.41805063E-02 0.12499941E+03</pdfrwt>
<pdfrwt beam="1">  1       -4 0.22115683E-01 0.12499941E+03</pdfrwt>
<totfact> 0.95277725E+03</totfact>
</mgrwt>
</event>
<event>
 5    1  0.3282421E-002  0.1249786E+03  0.7818608E-02  0.1235103E+00
          4   -1    0    0  501    0  0.00000000000E+00  0.00000000000E+00  0.98542723028E+02  0.98550906448E+02  0.12700000000E+01 0. -1.
         -4   -1    0    0    0  501 -0.00000000000E+00 -0.00000000000E+00 -0.39606590131E+02  0.39626946410E+02  0.12700000000E+01 0. -1.
         25    2    1    2    0    0  0.00000000000E+00  0.00000000000E+00  0.58936132897E+02  0.13817785286E+03  0.12497860321E+03 0.  0.
    9000005    1    3    3    0    0 -0.45096514868E+01 -0.48767806123E+02  0.72363491757E+02  0.87384843136E+02  0.10000000000E+01 0.  0.
    9000005    1    3    3    0    0  0.45096514868E+01  0.48767806123E+02 -0.13427358860E+02  0.50793009722E+02  0.10000000000E+01 0.  0.
<mgrwt>
<rscale>  0 0.12497860E+03</rscale>
<asrwt>0</asrwt>
<pdfrwt beam="1">  1        4 0.15162614E-01 0.12497860E+03</pdfrwt>
<pdfrwt beam="2">  1       -4 0.60955170E-02 0.12497860E+03</pdfrwt>
<totfact> 0.10176397E+04</totfact>
</mgrwt>
</event>
<event>
 5    1  0.3282421E-002  0.1249928E+03  0.7818608E-02  0.1235081E+00
         -4   -1    0    0    0  501 -0.00000000000E+00  0.00000000000E+00  0.17489797307E+03  0.17490258398E+03  0.12700000000E+01 0. -1.
          4   -1    0    0  501    0  0.00000000000E+00 -0.00000000000E+00 -0.22308905034E+02  0.22345025035E+02  0.12700000000E+01 0. -1.
         25    2    1    2    0    0  0.00000000000E+00  0.00000000000E+00  0.15258906803E+03  0.19724760901E+03  0.12499278211E+03 0.  0.
    9000005    1    3    3    0    0 -0.40027295759E+02 -0.24681108883E+02  0.14123478232E+03  0.14886102673E+03  0.10000000000E+01 0.  0.
    9000005    1    3    3    0    0  0.40027295759E+02  0.24681108883E+02  0.11354285714E+02  0.48386582288E+02  0.10000000000E+01 0.  0.
<mgrwt>
<rscale>  0 0.12499278E+03</rscale>
<asrwt>0</asrwt>
<pdfrwt beam="2">  1        4 0.34352724E-02 0.12499278E+03</pdfrwt>
<pdfrwt beam="1">  1       -4 0.26910513E-01 0.12499278E+03</pdfrwt>
<totfact> 0.90615962E+03</totfact>
</mgrwt>
</event>
<event>
 4    1  0.3282421E-002  0.1254371E+03  0.7818608E-02  0.1234388E+00
          4   -1    0    0  501    0  0.00000000000E+00  0.00000000000E+00  0.27431347798E+02  0.27460730908E+02  0.12700000000E+01 0.  1.
         -4   -1    0    0    0  501 -0.00000000000E+00 -0.00000000000E+00 -0.14328972653E+03  0.14329535452E+03  0.12700000000E+01 0.  1.
    9000005    1    1    2    0    0  0.38531404429E+02 -0.29487409170E+02 -0.11201264803E+03  0.12207378812E+03  0.10000000000E+01 0.  0.
    9000005    1    1    2    0    0 -0.38531404429E+02  0.29487409170E+02 -0.38457306956E+01  0.48682297310E+02  0.10000000000E+01 0.  0.
<mgrwt>
<rscale>  0 0.12543714E+03</rscale>
<asrwt>0</asrwt>
<pdfrwt beam="1">  1        4 0.42229006E-02 0.12543714E+03</pdfrwt>
<pdfrwt beam="2">  1       -4 0.22047266E-01 0.12543714E+03</pdfrwt>
<totfact> 0.94378838E+03</totfact>
</mgrwt>
</event>
<event>
 5    1  0.3282421E-002  0.1250056E+03  0.7818608E-02  0.1235061E+00
         -4   -1    0    0    0  501 -0.00000000000E+00  0.00000000000E+00  0.13448124210E+02  0.13507958572E+02  0.12700000000E+01 0. -1.
          4   -1    0    0  501    0  0.00000000000E+00 -0.00000000000E+00 -0.28978797064E+03  0.28979075352E+03  0.12700000000E+01 0. -1.
         25    2    1    2    0    0  0.00000000000E+00  0.00000000000E+00 -0.27633984643E+03  0.30329871209E+03  0.12500559201E+03 0.  0.
    9000005    1    3    3    0    0 -0.49843889410E+02 -0.13213149552E+02 -0.52504711922E+02  0.73598542150E+02  0.10000000000E+01 0.  0.
    9000005    1    3    3    0    0  0.49843889410E+02  0.13213149552E+02 -0.22383513450E+03  0.22970016994E+03  0.10000000000E+01 0.  0.
<mgrwt>
<rscale>  0 0.12500559E+03</rscale>
<asrwt>0</asrwt>
<pdfrwt beam="2">  1        4 0.44587577E-01 0.12500559E+03</pdfrwt>
<pdfrwt beam="1">  1       -4 0.20737591E-02 0.12500559E+03</pdfrwt>
<totfact> 0.75177580E+03</totfact>
</mgrwt>
</event>
<event>
 5    1  0.3282421E-002  0.1249988E+03  0.7818608E-02  0.1235071E+00
          4   -1    0    0  501    0  0.00000000000E+00  0.00000000000E+00  0.22517513366E+03  0.22517871507E+03  0.12700000000E+01 0. -1.
         -4   -1    0    0    0  501 -0.00000000000E+00 -0.00000000000E+00 -0.17320309725E+02  0.17366808255E+02  0.12700000000E+01 0. -1.
         25    2    1    2    0    0  0.00000000000E+00  0.00000000000E+00  0.20785482394E+03  0.24254552332E+03  0.12499881220E+03 0.  0.
    9000005    1    3    3    0    0 -0.19296882938E+02 -0.20432682291E+02  0.21222982196E+03  0.21408493998E+03  0.10000000000E+01 0.  0.
    9000005    1    3    3    0    0  0.19296882938E+02  0.20432682291E+02 -0.43749980206E+01  0.28460583346E+02  0.10000000000E+01 0.  0.
<mgrwt>
<rscale>  0 0.12499881E+03</rscale>
<asrwt>0</asrwt>
<pdfrwt beam="1">  1        4 0.34646179E-01 0.12499881E+03</pdfrwt>
<pdfrwt beam="2">  1       -4 0.26685154E-02 0.12499881E+03</pdfrwt>
<totfact> 0.83421920E+03</totfact>
</mgrwt>
</event>
<event>
 5    1  0.3282421E-002  0.1249800E+03  0.7818608E-02  0.1235101E+00
          4   -1    0    0  501    0  0.00000000000E+00  0.00000000000E+00  0.23484678552E+03  0.23485021943E+03  0.12700000000E+01 0.  1.
         -4   -1    0    0    0  501 -0.00000000000E+00 -0.00000000000E+00 -0.16600043446E+02  0.16648553763E+02  0.12700000000E+01 0.  1.
         25    2    1    2    0    0  0.00000000000E+00  0.00000000000E+00  0.21824674207E+03  0.25149877320E+03  0.12497996837E+03 0.  0.
    9000005    1    3    3    0    0 -0.52004025799E+02  0.28870288265E+02  0.70621046568E+02  0.92337665457E+02  0.10000000000E+01 0.  0.
    9000005    1    3    3    0    0  0.52004025799E+02 -0.28870288265E+02  0.14762569550E+03  0.15916110774E+03  0.10000000000E+01 0.  0.
<mgrwt>
<rscale>  0 0.12497997E+03</rscale>
<asrwt>0</asrwt>
<pdfrwt beam="1">  1        4 0.36134268E-01 0.12497997E+03</pdfrwt>
<pdfrwt beam="2">  1       -4 0.25578487E-02 0.12497997E+03</pdfrwt>
<totfact> 0.82150740E+03</totfact>
</mgrwt>
</event>
<event>
 5    1  0.3282421E-002  0.1250019E+03  0.7818608E-02  0.1235066E+00
          4   -1    0    0  501    0  0.00000000000E+00  0.00000000000E+00  0.11597483860E+03  0.11598179205E+03  0.12700000000E+01 0.  1.
         -4   -1    0    0    0  501 -0.00000000000E+00 -0.00000000000E+00 -0.33662965321E+02  0.33686913397E+02  0.12700000000E+01 0.  1.
         25    2    1    2    0    0  0.00000000000E+00  0.00000000000E+00  0.82311873278E+02  0.14966870545E+03  0.12500190762E+03 0.  0.
    9000005    1    3    3    0    0 -0.17404396831E+02  0.44904904045E+02 -0.65274118992E+01  0.48610395415E+02  0.10000000000E+01 0.  0.
    9000005    1    3    3    0    0  0.17404396831E+02 -0.44904904045E+02  0.88839285178E+02  0.10105831004E+03  0.10000000000E+01 0.  0.
<mgrwt>
<rscale>  0 0.12500191E+03</rscale>
<asrwt>0</asrwt>
<pdfrwt beam="1">  1        4 0.17844660E-01 0.12500191E+03</pdfrwt>
<pdfrwt beam="2">  1       -4 0.51812948E-02 0.12500191E+03</pdfrwt>
<totfact> 0.99365511E+03</totfact>
</mgrwt>
</event>
<event>
 5    1  0.3282421E-002  0.1249987E+03  0.7818608E-02  0.1235071E+00
         -4   -1    0    0    0  501 -0.00000000000E+00  0.00000000000E+00  0.78428844724E+02  0.78439126619E+02  0.12700000000E+01 0.  1.
          4   -1    0    0  501    0  0.00000000000E+00 -0.00000000000E+00 -0.49783616510E+02  0.49799812980E+02  0.12700000000E+01 0.  1.
         25    2    1    2    0    0  0.00000000000E+00  0.00000000000E+00  0.28645228215E+02  0.12823893960E+03  0.12499870611E+03 0.  0.
    9000005    1    3    3    0    0 -0.22502076030E+02  0.58027799975E+02  0.20089732703E+02  0.65407693399E+02  0.10000000000E+01 0.  0.
    9000005    1    3    3    0    0  0.22502076030E+02 -0.58027799975E+02  0.85554955112E+01  0.62831246200E+02  0.10000000000E+01 0.  0.
<mgrwt>
<rscale>  0 0.12499871E+03</rscale>
<asrwt>0</asrwt>
<pdfrwt beam="2">  1        4 0.76610547E-02 0.12499871E+03</pdfrwt>
<pdfrwt beam="1">  1       -4 0.12068013E-01 0.12499871E+03</pdfrwt>
<totfact> 0.10382634E+04</totfact>
</mgrwt>
</event>
<event>
 5    1  0.3282421E-002  0.1249999E+03  0.7818608E-02  0.1235069E+00
         -4   -1    0    0    0  501 -0.00000000000E+00  0.00000000000E+00  0.16047192004E+02  0.16097368456E+02  0.12700000000E+01 0. -1.
          4   -1    0    0  501    0  0.00000000000E+00 -0.00000000000E+00 -0.24299048897E+03  0.24299380780E+03  0.12700000000E+01 0. -1.
         25    2    1    2    0    0  0.00000000000E+00  0.00000000000E+00 -0.22694329696E+03  0.25909117625E+03  0.12499991030E+03 0.  0.
    9000005    1    3    3    0    0  0.92175876857E+01  0.52588513578E+02 -0.46156422918E+02  0.70582795777E+02  0.10000000000E+01 0.  0.
    9000005    1    3    3    0    0 -0.92175876857E+01 -0.52588513578E+02 -0.18078687404E+03  0.18850838048E+03  0.10000000000E+01 0.  0.
<mgrwt>
<rscale>  0 0.12499991E+03</rscale>
<asrwt>0</asrwt>
<pdfrwt beam="2">  1        4 0.37387264E-01 0.12499991E+03</pdfrwt>
<pdfrwt beam="1">  1       -4 0.24729140E-02 0.12499991E+03</pdfrwt>
<totfact> 0.81033934E+03</totfact>
</mgrwt>
</event>
<event>
 5    1  0.3282421E-002  0.1250001E+03  0.7818608E-02  0.1235069E+00
          4   -1    0    0  501    0  0.00000000000E+00  0.00000000000E+00  0.31692792059E+02  0.31718227701E+02  0.12700000000E+01 0.  1.
         -4   -1    0    0    0  501 -0.00000000000E+00 -0.00000000000E+00 -0.12317562041E+03  0.12318216739E+03  0.12700000000E+01 0.  1.
         25    2    1    2    0    0  0.00000000000E+00  0.00000000000E+00 -0.91482828354E+02  0.15490039510E+03  0.12500009807E+03 0.  0.
    9000005    1    3    3    0    0 -0.87958505521E+01  0.35379946032E+02  0.17155251640E+02  0.40303972844E+02  0.10000000000E+01 0.  0.
    9000005    1    3    3    0    0  0.87958505521E+01 -0.35379946032E+02 -0.10863807999E+03  0.11459642225E+03  0.10000000000E+01 0.  0.
<mgrwt>
<rscale>  0 0.12500010E+03</rscale>
<asrwt>0</asrwt>
<pdfrwt beam="1">  1        4 0.48782744E-02 0.12500010E+03</pdfrwt>
<pdfrwt beam="2">  1       -4 0.18952555E-01 0.12500010E+03</pdfrwt>
<totfact> 0.98334839E+03</totfact>
</mgrwt>
</event>
<event>
 5    1  0.3282421E-002  0.1250029E+03  0.7818608E-02  0.1235065E+00
          4   -1    0    0  501    0  0.00000000000E+00  0.00000000000E+00  0.57241003674E+02  0.57255090617E+02  0.12700000000E+01 0.  1.
         -4   -1    0    0    0  501 -0.00000000000E+00 -0.00000000000E+00 -0.68216928595E+02  0.68228749416E+02  0.12700000000E+01 0.  1.
         25    2    1    2    0    0  0.00000000000E+00  0.00000000000E+00 -0.10975924921E+02  0.12548384003E+03  0.12500289269E+03 0.  0.
    9000005    1    3    3    0    0 -0.58150371997E+02  0.18887698560E+02  0.74931431950E+01  0.61606477867E+02  0.10000000000E+01 0.  0.
    9000005    1    3    3    0    0  0.58150371997E+02 -0.18887698560E+02 -0.18469068116E+02  0.63877362166E+02  0.10000000000E+01 0.  0.
<mgrwt>
<rscale>  0 0.12500289E+03</rscale>
<asrwt>0</asrwt>
<pdfrwt beam="1">  1        4 0.88083012E-02 0.12500289E+03</pdfrwt>
<pdfrwt beam="2">  1       -4 0.10496905E-01 0.12500289E+03</pdfrwt>
<totfact> 0.10441630E+04</totfact>
</mgrwt>
</event>
<event>
 5    1  0.3282421E-002  0.1250000E+03  0.7818608E-02  0.1235069E+00
          4   -1    0    0  501    0  0.00000000000E+00  0.00000000000E+00  0.24278775380E+02  0.24311968944E+02  0.12700000000E+01 0.  1.
         -4   -1    0    0    0  501 -0.00000000000E+00 -0.00000000000E+00 -0.16074602106E+03  0.16075103790E+03  0.12700000000E+01 0.  1.
         25    2    1    2    0    0  0.00000000000E+00  0.00000000000E+00 -0.13646724568E+03  0.18506300685E+03  0.12500002944E+03 0.  0.
    9000005    1    3    3    0    0 -0.96442709061E+01  0.23448686471E+02  0.16328920261E+02  0.30174268763E+02  0.10000000000E+01 0.  0.
    9000005    1    3    3    0    0  0.96442709061E+01 -0.23448686471E+02 -0.15279616594E+03  0.15488873808E+03  0.10000000000E+01 0.  0.
<mgrwt>
<rscale>  0 0.12500003E+03</rscale>
<asrwt>0</asrwt>
<pdfrwt beam="1">  1        4 0.37381356E-02 0.12500003E+03</pdfrwt>
<pdfrwt beam="2">  1       -4 0.24733096E-01 0.12500003E+03</pdfrwt>
<totfact> 0.92713442E+03</totfact>
</mgrwt>
</event>
<event>
 5    1  0.3282421E-002  0.1249835E+03  0.7818608E-02  0.1235095E+00
          4   -1    0    0  501    0  0.00000000000E+00  0.00000000000E+00  0.29677297125E+03  0.29677568864E+03  0.12700000000E+01 0. -1.
         -4   -1    0    0    0  501 -0.00000000000E+00 -0.00000000000E+00 -0.13125524844E+02  0.13186823061E+02  0.12700000000E+01 0. -1.
         25    2    1    2    0    0  0.00000000000E+00  0.00000000000E+00  0.28364744641E+03  0.30996251170E+03  0.12498353813E+03 0.  0.
    9000005    1    3    3    0    0  0.52706758168E+02  0.11697553291E+02  0.63815702806E+02  0.83595927139E+02  0.10000000000E+01 0.  0.
    9000005    1    3    3    0    0 -0.52706758168E+02 -0.11697553291E+02  0.21983174360E+03  0.22636658456E+03  0.10000000000E+01 0.  0.
<mgrwt>
<rscale>  0 0.12498354E+03</rscale>
<asrwt>0</asrwt>
<pdfrwt beam="1">  1        4 0.45662300E-01 0.12498354E+03</pdfrwt>
<pdfrwt beam="2">  1       -4 0.20242360E-02 0.12498354E+03</pdfrwt>
<totfact> 0.74393082E+03</totfact>
</mgrwt>
</event>
<event>
 5    1  0.3282421E-002  0.1250305E+03  0.7818608E-02  0.1235022E+00
         -4   -1    0    0    0  501 -0.00000000000E+00  0.00000000000E+00  0.35920651061E+02  0.35943094923E+02  0.12700000000E+01 0.  1.
          4   -1    0    0  501    0  0.00000000000E+00 -0.00000000000E+00 -0.10873961305E+03  0.10874702914E+03  0.12700000000E+01 0.  1.
         25    2    1    2    0    0  0.00000000000E+00  0.00000000000E+00 -0.72818961986E+02  0.14469012406E+03  0.12503051938E+03 0.  0.
    9000005    1    3    3    0    0 -0.61750130053E+02 -0.46351897634E+01 -0.46269407103E+02  0.77307319054E+02  0.10000000000E+01 0.  0.
    9000005    1    3    3    0    0  0.61750130053E+02  0.46351897634E+01 -0.26549554883E+02  0.67382805004E+02  0.10000000000E+01 0.  0.
<mgrwt>
<rscale>  0 0.12503052E+03</rscale>
<asrwt>0</asrwt>
<pdfrwt beam="2">  1        4 0.16731468E-01 0.12503052E+03</pdfrwt>
<pdfrwt beam="1">  1       -4 0.55285510E-02 0.12503052E+03</pdfrwt>
<totfact> 0.10030393E+04</totfact>
</mgrwt>
</event>
<event>
 5    1  0.3282421E-002  0.1250010E+03  0.7818608E-02  0.1235068E+00
         -4   -1    0    0    0  501 -0.00000000000E+00  0.00000000000E+00  0.54646026864E+02  0.54660782578E+02  0.12700000000E+01 0. -1.
          4   -1    0    0  501    0  0.00000000000E+00 -0.00000000000E+00 -0.71453847893E+02  0.71465133308E+02  0.12700000000E+01 0. -1.
         25    2    1    2    0    0  0.00000000000E+00  0.00000000000E+00 -0.16807821029E+02  0.12612591589E+03  0.12500097524E+03 0.  0.
    9000005    1    3    3    0    0  0.20929045649E+02 -0.21239548780E+02  0.47009982842E+02  0.55678378846E+02  0.10000000000E+01 0.  0.
    9000005    1    3    3    0    0 -0.20929045649E+02  0.21239548780E+02 -0.63817803871E+02  0.70447537040E+02  0.10000000000E+01 0.  0.
<mgrwt>
<rscale>  0 0.12500098E+03</rscale>
<asrwt>0</asrwt>
<pdfrwt beam="2">  1        4 0.10994903E-01 0.12500098E+03</pdfrwt>
<pdfrwt beam="1">  1       -4 0.84090843E-02 0.12500098E+03</pdfrwt>
<totfact> 0.10427970E+04</totfact>
</mgrwt>
</event>
<event>
 5    1  0.3282421E-002  0.1250031E+03  0.7818608E-02  0.1235064E+00
          4   -1    0    0  501    0  0.00000000000E+00  0.00000000000E+00  0.30858684477E+02  0.30884807069E+02  0.12700000000E+01 0. -1.
         -4   -1    0    0    0  501 -0.00000000000E+00 -0.00000000000E+00 -0.12650854105E+03  0.12651491556E+03  0.12700000000E+01 0. -1.
         25    2    1    2    0    0  0.00000000000E+00  0.00000000000E+00 -0.95649856570E+02  0.15739972262E+03  0.12500311044E+03 0.  0.
    9000005    1    3    3    0    0 -0.11225752928E+02 -0.14700872729E+02 -0.12298895194E+03  0.12437610497E+03  0.10000000000E+01 0.  0.
    9000005    1    3    3    0    0  0.11225752928E+02  0.14700872729E+02  0.27339095367E+02  0.33023617659E+02  0.10000000000E+01 0.  0.
<mgrwt>
<rscale>  0 0.12500311E+03</rscale>
<asrwt>0</asrwt>
<pdfrwt beam="1">  1        4 0.47499897E-02 0.12500311E+03</pdfrwt>
<pdfrwt beam="2">  1       -4 0.19465352E-01 0.12500311E+03</pdfrwt>
<totfact> 0.97839610E+03</totfact>
</mgrwt>
</event>
<event>
 5    1  0.3282421E-002  0.1250011E+03  0.7818608E-02  0.1235068E+00
          4   -1    0    0  501    0  0.00000000000E+00  0.00000000000E+00  0.29399736034E+03  0.29400010337E+03  0.12700000000E+01 0.  1.
         -4   -1    0    0    0  501 -0.00000000000E+00 -0.00000000000E+00 -0.13253753881E+02  0.13314461760E+02  0.12700000000E+01 0.  1.
         25    2    1    2    0    0  0.00000000000E+00  0.00000000000E+00  0.28074360645E+03  0.30731456513E+03  0.12500107751E+03 0.  0.
    9000005    1    3    3    0    0  0.79757476847E+01  0.49240563989E+02  0.23291943127E+03  0.23820307966E+03  0.10000000000E+01 0.  0.
    9000005    1    3    3    0    0 -0.79757476847E+01 -0.49240563989E+02  0.47824175179E+02  0.69111485476E+02  0.10000000000E+01 0.  0.
<mgrwt>
<rscale>  0 0.12500108E+03</rscale>
<asrwt>0</asrwt>
<pdfrwt beam="1">  1        4 0.45235242E-01 0.12500108E+03</pdfrwt>
<pdfrwt beam="2">  1       -4 0.20439200E-02 0.12500108E+03</pdfrwt>
<totfact> 0.74688593E+03</totfact>
</mgrwt>
</event>
<event>
 5    1  0.3282421E-002  0.1249999E+03  0.7818608E-02  0.1235069E+00
          4   -1    0    0  501    0  0.00000000000E+00  0.00000000000E+00  0.25525124512E+03  0.25525440453E+03  0.12700000000E+01 0.  1.
         -4   -1    0    0    0  501 -0.00000000000E+00 -0.00000000000E+00 -0.15273916006E+02  0.15326624225E+02  0.12700000000E+01 0.  1.
         25    2    1    2    0    0  0.00000000000E+00  0.00000000000E+00  0.23997732911E+03  0.27058102876E+03  0.12499989855E+03 0.  0.
    9000005    1    3    3    0    0  0.46105337752E+02 -0.23524240662E+02  0.19578701705E+03  0.20251579719E+03  0.10000000000E+01 0.  0.
    9000005    1    3    3    0    0 -0.46105337752E+02  0.23524240662E+02  0.44190312063E+02  0.68065231566E+02  0.10000000000E+01 0.  0.
<mgrwt>
<rscale>  0 0.12499990E+03</rscale>
<asrwt>0</asrwt>
<pdfrwt beam="1">  1        4 0.39273718E-01 0.12499990E+03</pdfrwt>
<pdfrwt beam="2">  1       -4 0.23541308E-02 0.12499990E+03</pdfrwt>
<totfact> 0.79443898E+03</totfact>
</mgrwt>
</event>
<event>
 5    1  0.3282421E-002  0.1249999E+03  0.7818608E-02  0.1235069E+00
          4   -1    0    0  501    0  0.00000000000E+00  0.00000000000E+00  0.23135393505E+02  0.23170225131E+02  0.12700000000E+01 0. -1.
         -4   -1    0    0    0  501 -0.00000000000E+00 -0.00000000000E+00 -0.16867866249E+03  0.16868344341E+03  0.12700000000E+01 0. -1.
         25    2    1    2    0    0  0.00000000000E+00  0.00000000000E+00 -0.14554326899E+03  0.19185366854E+03  0.12499994794E+03 0.  0.
    9000005    1    3    3    0    0  0.42293309897E+02 -0.25931208700E+02 -0.14446174451E+02  0.51680205137E+02  0.10000000000E+01 0.  0.
    9000005    1    3    3    0    0 -0.42293309897E+02  0.25931208700E+02 -0.13109709454E+03  0.14017346340E+03  0.10000000000E+01 0.  0.
<mgrwt>
<rscale>  0 0.12499995E+03</rscale>
<asrwt>0</asrwt>
<pdfrwt beam="1">  1        4 0.35623385E-02 0.12499995E+03</pdfrwt>
<pdfrwt beam="2">  1       -4 0.25953610E-01 0.12499995E+03</pdfrwt>
<totfact> 0.91525886E+03</totfact>
</mgrwt>
</event>
<event>
 5    1  0.3282421E-002  0.1250031E+03  0.7818608E-02  0.1235064E+00
          4   -1    0    0  501    0  0.00000000000E+00  0.00000000000E+00  0.14530670516E+02  0.14586064776E+02  0.12700000000E+01 0. -1.
         -4   -1    0    0    0  501 -0.00000000000E+00 -0.00000000000E+00 -0.26827305189E+03  0.26827605795E+03  0.12700000000E+01 0. -1.
         25    2    1    2    0    0  0.00000000000E+00  0.00000000000E+00 -0.25374238137E+03  0.28286212272E+03  0.12500313743E+03 0.  0.
    9000005    1    3    3    0    0  0.28290591173E+02 -0.55649935511E+02 -0.12040199183E+03  0.13562784562E+03  0.10000000000E+01 0.  0.
    9000005    1    3    3    0    0 -0.28290591173E+02  0.55649935511E+02 -0.13334038954E+03  0.14723427710E+03  0.10000000000E+01 0.  0.
<mgrwt>
<rscale>  0 0.12500314E+03</rscale>
<asrwt>0</asrwt>
<pdfrwt beam="1">  1        4 0.22399803E-02 0.12500314E+03</pdfrwt>
<pdfrwt beam="2">  1       -4 0.41277266E-01 0.12500314E+03</pdfrwt>
<totfact> 0.77794710E+03</totfact>
</mgrwt>
</event>
<event>
 5    1  0.3282421E-002  0.1250003E+03  0.7818608E-02  0.1235069E+00
          4   -1    0    0  501    0  0.00000000000E+00  0.00000000000E+00  0.18680844600E+03  0.18681276294E+03  0.12700000000E+01 0. -1.
         -4   -1    0    0    0  501 -0.00000000000E+00 -0.00000000000E+00 -0.20886710142E+02  0.20925285197E+02  0.12700000000E+01 0. -1.
         25    2    1    2    0    0  0.00000000000E+00  0.00000000000E+00  0.16592173586E+03  0.20773804814E+03  0.12500029685E+03 0.  0.
    9000005    1    3    3    0    0  0.43454069535E+02  0.80475016871E+01  0.95310028123E+01  0.45220111202E+02  0.10000000000E+01 0.  0.
    9000005    1    3    3    0    0 -0.43454069535E+02 -0.80475016871E+01  0.15639073305E+03  0.16251793693E+03  0.10000000000E+01 0.  0.
<mgrwt>
<rscale>  0 0.12500030E+03</rscale>
<asrwt>0</asrwt>
<pdfrwt beam="1">  1        4 0.28743061E-01 0.12500030E+03</pdfrwt>
<pdfrwt beam="2">  1       -4 0.32166393E-02 0.12500030E+03</pdfrwt>
<totfact> 0.88846033E+03</totfact>
</mgrwt>
</event>
<event>
 5    1  0.3282421E-002  0.1250014E+03  0.7818608E-02  0.1235067E+00
         -4   -1    0    0    0  501 -0.00000000000E+00  0.00000000000E+00  0.15460121472E+02  0.15512197006E+02  0.12700000000E+01 0. -1.
          4   -1    0    0  501    0  0.00000000000E+00 -0.00000000000E+00 -0.25219317819E+03  0.25219637591E+03  0.12700000000E+01 0. -1.
         25    2    1    2    0    0  0.00000000000E+00  0.00000000000E+00 -0.23673305671E+03  0.26770857292E+03  0.12500135948E+03 0.  0.
    9000005    1    3    3    0    0 -0.28550389027E+02 -0.54996855024E+02 -0.10102631637E+03  0.11852044286E+03  0.10000000000E+01 0.  0.
    9000005    1    3    3    0    0  0.28550389027E+02  0.54996855024E+02 -0.13570674035E+03  0.14918813006E+03  0.10000000000E+01 0.  0.
<mgrwt>
<rscale>  0 0.12500136E+03</rscale>
<asrwt>0</asrwt>
<pdfrwt beam="2">  1        4 0.38803199E-01 0.12500136E+03</pdfrwt>
<pdfrwt beam="1">  1       -4 0.23827322E-02 0.12500136E+03</pdfrwt>
<totfact> 0.79833884E+03</totfact>
</mgrwt>
</event>
<event>
 5    1  0.3282421E-002  0.1250015E+03  0.7818608E-02  0.1235067E+00
          4   -1    0    0  501    0  0.00000000000E+00  0.00000000000E+00  0.20520535468E+02  0.20559797565E+02  0.12700000000E+01 0. -1.
         -4   -1    0    0    0  501 -0.00000000000E+00 -0.00000000000E+00 -0.19013930260E+03  0.19014354392E+03  0.12700000000E+01 0. -1.
         25    2    1    2    0    0  0.00000000000E+00  0.00000000000E+00 -0.16961876714E+03  0.21070334148E+03  0.12500148778E+03 0.  0.
    9000005    1    3    3    0    0  0.23644392657E+02 -0.31236398713E+02 -0.27396705200E+01  0.39284547895E+02  0.10000000000E+01 0.  0.
    9000005    1    3    3    0    0 -0.23644392657E+02  0.31236398713E+02 -0.16687909661E+03  0.17141879359E+03  0.10000000000E+01 0.  0.
<mgrwt>
<rscale>  0 0.12500149E+03</rscale>
<asrwt>0</asrwt>
<pdfrwt beam="1">  1        4 0.31603520E-02 0.12500149E+03</pdfrwt>
<pdfrwt beam="2">  1       -4 0.29255546E-01 0.12500149E+03</pdfrwt>
<totfact> 0.88358206E+03</totfact>
</mgrwt>
</event>
<event>
 5    1  0.3282421E-002  0.1249992E+03  0.7818608E-02  0.1235071E+00
         -4   -1    0    0    0  501 -0.00000000000E+00  0.00000000000E+00  0.64978408108E+03  0.64978532218E+03  0.12700000000E+01 0.  1.
          4   -1    0    0  501    0  0.00000000000E+00 -0.00000000000E+00 -0.59431985353E+01  0.60773768050E+01  0.12700000000E+01 0.  1.
         25    2    1    2    0    0  0.00000000000E+00  0.00000000000E+00  0.64384088254E+03  0.65586269899E+03  0.12499919155E+03 0.  0.
    9000005    1    3    3    0    0  0.56776144667E+02  0.92951025249E+00  0.45882473137E+03  0.46232621461E+03  0.10000000000E+01 0.  0.
    9000005    1    3    3    0    0 -0.56776144667E+02 -0.92951025249E+00  0.18501615117E+03  0.19353648438E+03  0.10000000000E+01 0.  0.
<mgrwt>
<rscale>  0 0.12499919E+03</rscale>
<asrwt>0</asrwt>
<pdfrwt beam="2">  1        4 0.92475542E-03 0.12499919E+03</pdfrwt>
<pdfrwt beam="1">  1       -4 0.99977166E-01 0.12499919E+03</pdfrwt>
<totfact> 0.45521720E+03</totfact>
</mgrwt>
</event>
<event>
 5    1  0.3282421E-002  0.1250002E+03  0.7818608E-02  0.1235069E+00
          4   -1    0    0  501    0  0.00000000000E+00  0.00000000000E+00  0.17765597270E+03  0.17766051203E+03  0.12700000000E+01 0.  1.
         -4   -1    0    0    0  501 -0.00000000000E+00 -0.00000000000E+00 -0.21964612010E+02  0.22001297252E+02  0.12700000000E+01 0.  1.
         25    2    1    2    0    0  0.00000000000E+00  0.00000000000E+00  0.15569136069E+03  0.19966180928E+03  0.12500015317E+03 0.  0.
    9000005    1    3    3    0    0  0.43000978653E+02  0.21237076341E+02  0.13850997427E+02  0.49929427259E+02  0.10000000000E+01 0.  0.
    9000005    1    3    3    0    0 -0.43000978653E+02 -0.21237076341E+02  0.14184036326E+03  0.14973238202E+03  0.10000000000E+01 0.  0.
<mgrwt>
<rscale>  0 0.12500015E+03</rscale>
<asrwt>0</asrwt>
<pdfrwt beam="1">  1        4 0.27334859E-01 0.12500015E+03</pdfrwt>
<pdfrwt beam="2">  1       -4 0.33823423E-02 0.12500015E+03</pdfrwt>
<totfact> 0.90192267E+03</totfact>
</mgrwt>
</event>
<event>
 5    1  0.3282421E-002  0.1250004E+03  0.7818608E-02  0.1235069E+00
         -4   -1    0    0    0  501 -0.00000000000E+00  0.00000000000E+00  0.25588263735E+01  0.28566575590E+01  0.12700000000E+01 0. -1.
          4   -1    0    0  501    0  0.00000000000E+00 -0.00000000000E+00 -0.14423343413E+04  0.14423349004E+04  0.12700000000E+01 0. -1.
         25    2    1    2    0    0  0.00000000000E+00  0.00000000000E+00 -0.14397755149E+04  0.14451915580E+04  0.12500042358E+03 0.  0.
    9000005    1    3    3    0    0  0.48922642663E+02  0.28959301938E+02 -0.41990981622E+03  0.42374204405E+03  0.10000000000E+01 0.  0.
    9000005    1    3    3    0    0 -0.48922642663E+02 -0.28959301938E+02 -0.10198656987E+04  0.10214495139E+04  0.10000000000E+01 0.  0.
<mgrwt>
<rscale>  0 0.12500042E+03</rscale>
<asrwt>0</asrwt>
<pdfrwt beam="2">  1        4 0.22191993E+00 0.12500042E+03</pdfrwt>
<pdfrwt beam="1">  1       -4 0.41661985E-03 0.12500042E+03</pdfrwt>
<totfact> 0.19031339E+03</totfact>
</mgrwt>
</event>
<event>
 5    1  0.3282421E-002  0.1250017E+03  0.7818608E-02  0.1235067E+00
          4   -1    0    0  501    0  0.00000000000E+00  0.00000000000E+00  0.55488157994E+02  0.55502689823E+02  0.12700000000E+01 0. -1.
         -4   -1    0    0    0  501 -0.00000000000E+00 -0.00000000000E+00 -0.70370335791E+02  0.70381794943E+02  0.12700000000E+01 0. -1.
         25    2    1    2    0    0  0.00000000000E+00  0.00000000000E+00 -0.14882177797E+02  0.12588448477E+03  0.12500169714E+03 0.  0.
    9000005    1    3    3    0    0 -0.54404391096E+02  0.80080509991E+01 -0.37338956475E+02  0.66476795365E+02  0.10000000000E+01 0.  0.
    9000005    1    3    3    0    0  0.54404391096E+02 -0.80080509991E+01  0.22456778678E+02  0.59407689401E+02  0.10000000000E+01 0.  0.
<mgrwt>
<rscale>  0 0.12500170E+03</rscale>
<asrwt>0</asrwt>
<pdfrwt beam="1">  1        4 0.85386390E-02 0.12500170E+03</pdfrwt>
<pdfrwt beam="2">  1       -4 0.10828205E-01 0.12500170E+03</pdfrwt>
<totfact> 0.10433091E+04</totfact>
</mgrwt>
</event>
<event>
 5    1  0.3282421E-002  0.1250091E+03  0.7818608E-02  0.1235055E+00
         -4   -1    0    0    0  501 -0.00000000000E+00  0.00000000000E+00  0.86519041341E+02  0.86528361909E+02  0.12700000000E+01 0. -1.
          4   -1    0    0  501    0  0.00000000000E+00 -0.00000000000E+00 -0.45134877795E+02  0.45152741817E+02  0.12700000000E+01 0. -1.
         25    2    1    2    0    0  0.00000000000E+00  0.00000000000E+00  0.41384163547E+02  0.13168110373E+03  0.12500905602E+03 0.  0.
    9000005    1    3    3    0    0 -0.15404092183E+01 -0.59862592062E+02  0.39532827329E+02  0.71761739287E+02  0.10000000000E+01 0.  0.
    9000005    1    3    3    0    0  0.15404092183E+01  0.59862592062E+02  0.18513362174E+01  0.59919364438E+02  0.10000000000E+01 0.  0.
<mgrwt>
<rscale>  0 0.12500906E+03</rscale>
<asrwt>0</asrwt>
<pdfrwt beam="2">  1        4 0.69459185E-02 0.12500906E+03</pdfrwt>
<pdfrwt beam="1">  1       -4 0.13312713E-01 0.12500906E+03</pdfrwt>
<totfact> 0.10306404E+04</totfact>
</mgrwt>
</event>
<event>
 5    1  0.3282421E-002  0.1249920E+03  0.7818608E-02  0.1235082E+00
          4   -1    0    0  501    0  0.00000000000E+00  0.00000000000E+00  0.62892352774E+02  0.62905174170E+02  0.12700000000E+01 0.  1.
         -4   -1    0    0    0  501 -0.00000000000E+00 -0.00000000000E+00 -0.62076504289E+02  0.62089494157E+02  0.12700000000E+01 0.  1.
         25    2    1    2    0    0  0.00000000000E+00  0.00000000000E+00  0.81584848480E+00  0.12499466833E+03  0.12499200575E+03 0.  0.
    9000005    1    3    3    0    0  0.14416497498E+01  0.38218644094E+01  0.62763605801E+02  0.62904333830E+02  0.10000000000E+01 0.  0.
    9000005    1    3    3    0    0 -0.14416497498E+01 -0.38218644094E+01 -0.61947757316E+02  0.62090334498E+02  0.10000000000E+01 0.  0.
<mgrwt>
<rscale>  0 0.12499201E+03</rscale>
<asrwt>0</asrwt>
<pdfrwt beam="1">  1        4 0.96777321E-02 0.12499201E+03</pdfrwt>
<pdfrwt beam="2">  1       -4 0.95522169E-02 0.12499201E+03</pdfrwt>
<totfact> 0.10454867E+04</totfact>
</mgrwt>
</event>
<event>
 5    1  0.3282421E-002  0.1249879E+03  0.7818608E-02  0.1235088E+00
         -4   -1    0    0    0  501 -0.00000000000E+00  0.00000000000E+00  0.67539029404E+01  0.68722707258E+01  0.12700000000E+01 0.  1.
          4   -1    0    0  501    0  0.00000000000E+00 -0.00000000000E+00 -0.57311545028E+03  0.57311685741E+03  0.12700000000E+01 0.  1.
         25    2    1    2    0    0  0.00000000000E+00  0.00000000000E+00 -0.56636154734E+03  0.57998912814E+03  0.12498794523E+03 0.  0.
    9000005    1    3    3    0    0  0.50562592974E+01  0.18490049303E+02 -0.55915737270E+03  0.55948674258E+03  0.10000000000E+01 0.  0.
    9000005    1    3    3    0    0 -0.50562592974E+01 -0.18490049303E+02 -0.72041746438E+01  0.20502385559E+02  0.10000000000E+01 0.  0.
<mgrwt>
<rscale>  0 0.12498795E+03</rscale>
<asrwt>0</asrwt>
<pdfrwt beam="2">  1        4 0.88180783E-01 0.12498795E+03</pdfrwt>
<pdfrwt beam="1">  1       -4 0.10482759E-02 0.12498795E+03</pdfrwt>
<totfact> 0.50168900E+03</totfact>
</mgrwt>
</event>
<event>
 5    1  0.3282421E-002  0.1250039E+03  0.7818608E-02  0.1235063E+00
         -4   -1    0    0    0  501 -0.00000000000E+00  0.00000000000E+00  0.66900542614E+03  0.66900663159E+03  0.12700000000E+01 0.  1.
          4   -1    0    0  501    0  0.00000000000E+00 -0.00000000000E+00 -0.57689753742E+01  0.59071123968E+01  0.12700000000E+01 0.  1.
         25    2    1    2    0    0  0.00000000000E+00  0.00000000000E+00  0.66323645077E+03  0.67491374399E+03  0.12500388870E+03 0.  0.
    9000005    1    3    3    0    0  0.58094975078E+02  0.11326675969E+02  0.43989402066E+03  0.44385928978E+03  0.10000000000E+01 0.  0.
    9000005    1    3    3    0    0 -0.58094975078E+02 -0.11326675969E+02  0.22334243011E+03  0.23105445420E+03  0.10000000000E+01 0.  0.
<mgrwt>
<rscale>  0 0.12500389E+03</rscale>
<asrwt>0</asrwt>
<pdfrwt beam="2">  1        4 0.89825359E-03 0.12500389E+03</pdfrwt>
<pdfrwt beam="1">  1       -4 0.10293460E+00 0.12500389E+03</pdfrwt>
<totfact> 0.44440688E+03</totfact>
</mgrwt>
</event>
<event>
 5    1  0.3282421E-002  0.1249999E+03  0.7818608E-02  0.1235069E+00
          4   -1    0    0  501    0  0.00000000000E+00  0.00000000000E+00  0.19141681186E+02  0.19183765496E+02  0.12700000000E+01 0. -1.
         -4   -1    0    0    0  501 -0.00000000000E+00 -0.00000000000E+00 -0.20380197651E+03  0.20380593350E+03  0.12700000000E+01 0. -1.
         25    2    1    2    0    0  0.00000000000E+00  0.00000000000E+00 -0.18466029532E+03  0.22298969899E+03  0.12499992476E+03 0.  0.
    9000005    1    3    3    0    0 -0.48411095130E+02  0.38556811401E+02 -0.10777763288E+03  0.12428708696E+03  0.10000000000E+01 0.  0.
    9000005    1    3    3    0    0  0.48411095130E+02 -0.38556811401E+02 -0.76882662447E+02  0.98702612033E+02  0.10000000000E+01 0.  0.
<mgrwt>
<rscale>  0 0.12499992E+03</rscale>
<asrwt>0</asrwt>
<pdfrwt beam="1">  1        4 0.29484158E-02 0.12499992E+03</pdfrwt>
<pdfrwt beam="2">  1       -4 0.31357690E-01 0.12499992E+03</pdfrwt>
<totfact> 0.86397614E+03</totfact>
</mgrwt>
</event>
<event>
 5    1  0.3282421E-002  0.1250022E+03  0.7818608E-02  0.1235066E+00
         -4   -1    0    0    0  501 -0.00000000000E+00  0.00000000000E+00  0.12035293250E+03  0.12035963302E+03  0.12700000000E+01 0. -1.
          4   -1    0    0  501    0  0.00000000000E+00 -0.00000000000E+00 -0.32437746725E+02  0.32462598672E+02  0.12700000000E+01 0. -1.
         25    2    1    2    0    0  0.00000000000E+00  0.00000000000E+00  0.87915185772E+02  0.15282223169E+03  0.12500221842E+03 0.  0.
    9000005    1    3    3    0    0  0.41376825066E+02 -0.32813389613E+02  0.31046672292E+01  0.52909348409E+02  0.10000000000E+01 0.  0.
    9000005    1    3    3    0    0 -0.41376825066E+02  0.32813389613E+02  0.84810518542E+02  0.99912883283E+02  0.10000000000E+01 0.  0.
<mgrwt>
<rscale>  0 0.12500222E+03</rscale>
<asrwt>0</asrwt>
<pdfrwt beam="2">  1        4 0.49928498E-02 0.12500222E+03</pdfrwt>
<pdfrwt beam="1">  1       -4 0.18518263E-01 0.12500222E+03</pdfrwt>
<totfact> 0.98739146E+03</totfact>
</mgrwt>
</event>
<event>
 5    1  0.3282421E-002  0.1250164E+03  0.7818608E-02  0.1235044E+00
         -4   -1    0    0    0  501 -0.00000000000E+00  0.00000000000E+00  0.43808219022E+01  0.45611950779E+01  0.12700000000E+01 0.  1.
          4   -1    0    0  501    0  0.00000000000E+00 -0.00000000000E+00 -0.87373341077E+03  0.87373433376E+03  0.12700000000E+01 0.  1.
         25    2    1    2    0    0  0.00000000000E+00  0.00000000000E+00 -0.86935258887E+03  0.87829552884E+03  0.12501644776E+03 0.  0.
    9000005    1    3    3    0    0 -0.47193578700E+02 -0.52269261153E+01 -0.72020000660E+03  0.72176423029E+03  0.10000000000E+01 0.  0.
    9000005    1    3    3    0    0  0.47193578700E+02  0.52269261153E+01 -0.14915258227E+03  0.15653129855E+03  0.10000000000E+01 0.  0.
<mgrwt>
<rscale>  0 0.12501645E+03</rscale>
<asrwt>0</asrwt>
<pdfrwt beam="2">  1        4 0.13443433E+00 0.12501645E+03</pdfrwt>
<pdfrwt beam="1">  1       -4 0.68791916E-03 0.12501645E+03</pdfrwt>
<totfact> 0.34984054E+03</totfact>
</mgrwt>
</event>
<event>
 5    1  0.3282421E-002  0.1250003E+03  0.7818608E-02  0.1235069E+00
          4   -1    0    0  501    0  0.00000000000E+00  0.00000000000E+00  0.27220882650E+03  0.27221178910E+03  0.12700000000E+01 0. -1.
         -4   -1    0    0    0  501 -0.00000000000E+00 -0.00000000000E+00 -0.14319129949E+02  0.14375339387E+02  0.12700000000E+01 0. -1.
         25    2    1    2    0    0  0.00000000000E+00  0.00000000000E+00  0.25788969655E+03  0.28658712849E+03  0.12500034651E+03 0.  0.
    9000005    1    3    3    0    0  0.53782372370E+02  0.30388756014E+02  0.10728509840E+03  0.12380271567E+03  0.10000000000E+01 0.  0.
    9000005    1    3    3    0    0 -0.53782372370E+02 -0.30388756014E+02  0.15060459816E+03  0.16278441282E+03  0.10000000000E+01 0.  0.
<mgrwt>
<rscale>  0 0.12500035E+03</rscale>
<asrwt>0</asrwt>
<pdfrwt beam="1">  1        4 0.41882834E-01 0.12500035E+03</pdfrwt>
<pdfrwt beam="2">  1       -4 0.22074947E-02 0.12500035E+03</pdfrwt>
<totfact> 0.77312131E+03</totfact>
</mgrwt>
</event>
<event>
 5    1  0.3282421E-002  0.1250000E+03  0.7818608E-02  0.1235069E+00
          4   -1    0    0  501    0  0.00000000000E+00  0.00000000000E+00  0.44227953857E+02  0.44246184043E+02  0.12700000000E+01 0. -1.
         -4   -1    0    0    0  501 -0.00000000000E+00 -0.00000000000E+00 -0.88279846627E+02  0.88288981309E+02  0.12700000000E+01 0. -1.
         25    2    1    2    0    0  0.00000000000E+00  0.00000000000E+00 -0.44051892770E+02  0.13253516535E+03  0.12500000319E+03 0.  0.
    9000005    1    3    3    0    0 -0.57278396277E+02 -0.95606955655E+01  0.24532053451E+01  0.58131229096E+02  0.10000000000E+01 0.  0.
    9000005    1    3    3    0    0  0.57278396277E+02  0.95606955655E+01 -0.46505098115E+02  0.74403936256E+02  0.10000000000E+01 0.  0.
<mgrwt>
<rscale>  0 0.12500000E+03</rscale>
<asrwt>0</asrwt>
<pdfrwt beam="1">  1        4 0.68064056E-02 0.12500000E+03</pdfrwt>
<pdfrwt beam="2">  1       -4 0.13583620E-01 0.12500000E+03</pdfrwt>
<totfact> 0.10290288E+04</totfact>
</mgrwt>
</event>
<event>
 5    1  0.3282421E-002  0.1249968E+03  0.7818608E-02  0.1235074E+00
         -4   -1    0    0    0  501 -0.00000000000E+00  0.00000000000E+00  0.25801292064E+02  0.25832529341E+02  0.12700000000E+01 0.  1.
          4   -1    0    0  501    0  0.00000000000E+00 -0.00000000000E+00 -0.15126425605E+03  0.15126958736E+03  0.12700000000E+01 0.  1.
         25    2    1    2    0    0  0.00000000000E+00  0.00000000000E+00 -0.12546296399E+03  0.17710211670E+03  0.12499681758E+03 0.  0.
    9000005    1    3    3    0    0  0.27724410527E+02  0.36497727730E+02 -0.25473414860E+01  0.45915313536E+02  0.10000000000E+01 0.  0.
    9000005    1    3    3    0    0 -0.27724410527E+02 -0.36497727730E+02 -0.12291562250E+03  0.13118680316E+03  0.10000000000E+01 0.  0.
<mgrwt>
<rscale>  0 0.12499682E+03</rscale>
<asrwt>0</asrwt>
<pdfrwt beam="2">  1        4 0.23274237E-01 0.12499682E+03</pdfrwt>
<pdfrwt beam="1">  1       -4 0.39722426E-02 0.12499682E+03</pdfrwt>
<totfact> 0.94147967E+03</totfact>
</mgrwt>
</event>
<event>
 5    1  0.3282421E-002  0.1250127E+03  0.7818608E-02  0.1235049E+00
          4   -1    0    0  501    0  0.00000000000E+00  0.00000000000E+00  0.91549306834E+02  0.91558115324E+02  0.12700000000E+01 0. -1.
         -4   -1    0    0    0  501 -0.00000000000E+00 -0.00000000000E+00 -0.42656653974E+02  0.42675555395E+02  0.12700000000E+01 0. -1.
         25    2    1    2    0    0  0.00000000000E+00  0.00000000000E+00  0.48892652860E+02  0.13423367072E+03  0.12501274675E+03 0.  0.
    9000005    1    3    3    0    0 -0.51529187103E+02 -0.23665625079E+02 -0.37739088384E+01  0.56838027075E+02  0.10000000000E+01 0.  0.
    9000005    1    3    3    0    0  0.51529187103E+02  0.23665625079E+02  0.52666561699E+02  0.77395643644E+02  0.10000000000E+01 0.  0.
<mgrwt>
<rscale>  0 0.12501275E+03</rscale>
<asrwt>0</asrwt>
<pdfrwt beam="1">  1        4 0.14086640E-01 0.12501275E+03</pdfrwt>
<pdfrwt beam="2">  1       -4 0.65646936E-02 0.12501275E+03</pdfrwt>
<totfact> 0.10251301E+04</totfact>
</mgrwt>
</event>
<event>
 5    1  0.3282421E-002  0.1250123E+03  0.7818608E-02  0.1235050E+00
          4   -1    0    0  501    0  0.00000000000E+00  0.00000000000E+00  0.89637789326E+02  0.89646785638E+02  0.12700000000E+01 0.  1.
         -4   -1    0    0    0  501 -0.00000000000E+00 -0.00000000000E+00 -0.43566268755E+02  0.43584775705E+02  0.12700000000E+01 0.  1.
         25    2    1    2    0    0  0.00000000000E+00  0.00000000000E+00  0.46071520571E+02  0.13323156134E+03  0.12501225512E+03 0.  0.
    9000005    1    3    3    0    0  0.39525814649E+02 -0.47954717964E+02  0.15960687683E+02  0.64169218088E+02  0.10000000000E+01 0.  0.
    9000005    1    3    3    0    0 -0.39525814649E+02  0.47954717964E+02  0.30110832888E+02  0.69062343255E+02  0.10000000000E+01 0.  0.
<mgrwt>
<rscale>  0 0.12501226E+03</rscale>
<asrwt>0</asrwt>
<pdfrwt beam="1">  1        4 0.13792545E-01 0.12501226E+03</pdfrwt>
<pdfrwt beam="2">  1       -4 0.67046186E-02 0.12501226E+03</pdfrwt>
<totfact> 0.10272641E+04</totfact>
</mgrwt>
</event>
<event>
 5    1  0.3282421E-002  0.1250016E+03  0.7818608E-02  0.1235067E+00
          4   -1    0    0  501    0  0.00000000000E+00  0.00000000000E+00  0.28901082943E+02  0.28928973285E+02  0.12700000000E+01 0.  1.
         -4   -1    0    0    0  501 -0.00000000000E+00 -0.00000000000E+00 -0.13506672305E+03  0.13507269367E+03  0.12700000000E+01 0.  1.
         25    2    1    2    0    0  0.00000000000E+00  0.00000000000E+00 -0.10616564011E+03  0.16400166696E+03  0.12500161449E+03 0.  0.
    9000005    1    3    3    0    0  0.50030638901E+02 -0.12143663923E+02 -0.66074427556E+01  0.51915235742E+02  0.10000000000E+01 0.  0.
    9000005    1    3    3    0    0 -0.50030638901E+02  0.12143663923E+02 -0.99558197351E+02  0.11208643121E+03  0.10000000000E+01 0.  0.
<mgrwt>
<rscale>  0 0.12500161E+03</rscale>
<asrwt>0</asrwt>
<pdfrwt beam="1">  1        4 0.44489252E-02 0.12500161E+03</pdfrwt>
<pdfrwt beam="2">  1       -4 0.20782100E-01 0.12500161E+03</pdfrwt>
<totfact> 0.96573292E+03</totfact>
</mgrwt>
</event>
<event>
 5    1  0.3282421E-002  0.1250030E+03  0.7818608E-02  0.1235065E+00
         -4   -1    0    0    0  501 -0.00000000000E+00  0.00000000000E+00  0.44971142015E+02  0.44989071052E+02  0.12700000000E+01 0.  1.
          4   -1    0    0  501    0  0.00000000000E+00 -0.00000000000E+00 -0.86825609066E+02  0.86834896727E+02  0.12700000000E+01 0.  1.
         25    2    1    2    0    0  0.00000000000E+00  0.00000000000E+00 -0.41854467051E+02  0.13182396778E+03  0.12500304824E+03 0.  0.
    9000005    1    3    3    0    0 -0.38364250588E+01  0.39021996438E+02 -0.72244697861E+02  0.82205417901E+02  0.10000000000E+01 0.  0.
    9000005    1    3    3    0    0  0.38364250588E+01 -0.39021996438E+02  0.30390230811E+02  0.49618549878E+02  0.10000000000E+01 0.  0.
<mgrwt>
<rscale>  0 0.12500305E+03</rscale>
<asrwt>0</asrwt>
<pdfrwt beam="2">  1        4 0.13359880E-01 0.12500305E+03</pdfrwt>
<pdfrwt beam="1">  1       -4 0.69207308E-02 0.12500305E+03</pdfrwt>
<totfact> 0.10304748E+04</totfact>
</mgrwt>
</event>
<event>
 5    1  0.3282421E-002  0.1250154E+03  0.7818608E-02  0.1235045E+00
         -4   -1    0    0    0  501 -0.00000000000E+00  0.00000000000E+00  0.32708211221E+02  0.32732857824E+02  0.12700000000E+01 0.  1.
          4   -1    0    0  501    0  0.00000000000E+00 -0.00000000000E+00 -0.11938362136E+03  0.11939037629E+03  0.12700000000E+01 0.  1.
         25    2    1    2    0    0  0.00000000000E+00  0.00000000000E+00 -0.86675410143E+02  0.15212323411E+03  0.12501540558E+03 0.  0.
    9000005    1    3    3    0    0 -0.34108579864E+02  0.15415830029E+02  0.17566966521E+02  0.41359900248E+02  0.10000000000E+01 0.  0.
    9000005    1    3    3    0    0  0.34108579864E+02 -0.15415830029E+02 -0.10424237666E+03  0.11076333386E+03  0.10000000000E+01 0.  0.
<mgrwt>
<rscale>  0 0.12501541E+03</rscale>
<asrwt>0</asrwt>
<pdfrwt beam="2">  1        4 0.18369126E-01 0.12501541E+03</pdfrwt>
<pdfrwt beam="1">  1       -4 0.50344481E-02 0.12501541E+03</pdfrwt>
<totfact> 0.98847867E+03</totfact>
</mgrwt>
</event>
<event>
 5    1  0.3282421E-002  0.1250098E+03  0.7818608E-02  0.1235054E+00
          4   -1    0    0  501    0  0.00000000000E+00  0.00000000000E+00  0.11990771711E+03  0.11991444251E+03  0.12700000000E+01 0.  1.
         -4   -1    0    0    0  501 -0.00000000000E+00 -0.00000000000E+00 -0.32562210294E+02  0.32586967322E+02  0.12700000000E+01 0.  1.
         25    2    1    2    0    0  0.00000000000E+00  0.00000000000E+00  0.87345506818E+02  0.15250140983E+03  0.12500976938E+03 0.  0.
    9000005    1    3    3    0    0 -0.47396900944E+02  0.10770552942E+02  0.91598367524E+02  0.10370020233E+03  0.10000000000E+01 0.  0.
    9000005    1    3    3    0    0  0.47396900944E+02 -0.10770552942E+02 -0.42528607057E+01  0.48801207506E+02  0.10000000000E+01 0.  0.
<mgrwt>
<rscale>  0 0.12500977E+03</rscale>
<asrwt>0</asrwt>
<pdfrwt beam="1">  1        4 0.18449763E-01 0.12500977E+03</pdfrwt>
<pdfrwt beam="2">  1       -4 0.50119925E-02 0.12500977E+03</pdfrwt>
<totfact> 0.98785681E+03</totfact>
</mgrwt>
</event>
<event>
 5    1  0.3282421E-002  0.1249996E+03  0.7818608E-02  0.1235070E+00
         -4   -1    0    0    0  501 -0.00000000000E+00  0.00000000000E+00  0.11179571635E+03  0.11180292972E+03  0.12700000000E+01 0. -1.
          4   -1    0    0  501    0  0.00000000000E+00 -0.00000000000E+00 -0.34920844997E+02  0.34943931022E+02  0.12700000000E+01 0. -1.
         25    2    1    2    0    0  0.00000000000E+00  0.00000000000E+00  0.76874871353E+02  0.14674686074E+03  0.12499958117E+03 0.  0.
    9000005    1    3    3    0    0  0.37345940250E+02 -0.19455879714E+02  0.92643907856E+02  0.10177005538E+03  0.10000000000E+01 0.  0.
    9000005    1    3    3    0    0 -0.37345940250E+02  0.19455879714E+02 -0.15769036503E+02  0.44976805365E+02  0.10000000000E+01 0.  0.
<mgrwt>
<rscale>  0 0.12499958E+03</rscale>
<asrwt>0</asrwt>
<pdfrwt beam="2">  1        4 0.53747684E-02 0.12499958E+03</pdfrwt>
<pdfrwt beam="1">  1       -4 0.17201672E-01 0.12499958E+03</pdfrwt>
<totfact> 0.99957104E+03</totfact>
</mgrwt>
</event>
<event>
 5    1  0.3282421E-002  0.1249989E+03  0.7818608E-02  0.1235071E+00
          4   -1    0    0  501    0  0.00000000000E+00  0.00000000000E+00  0.24508347169E+02  0.24541230225E+02  0.12700000000E+01 0. -1.
         -4   -1    0    0    0  501 -0.00000000000E+00 -0.00000000000E+00 -0.15923941269E+03  0.15924447700E+03  0.12700000000E+01 0. -1.
         25    2    1    2    0    0  0.00000000000E+00  0.00000000000E+00 -0.13473106552E+03  0.18378570722E+03  0.12499890465E+03 0.  0.
    9000005    1    3    3    0    0  0.79322099302E+01 -0.15858235306E+00 -0.15850312896E+03  0.15870471636E+03  0.10000000000E+01 0.  0.
    9000005    1    3    3    0    0 -0.79322099302E+01  0.15858235306E+00  0.23772063440E+02  0.25080990868E+02  0.10000000000E+01 0.  0.
<mgrwt>
<rscale>  0 0.12499890E+03</rscale>
<asrwt>0</asrwt>
<pdfrwt beam="1">  1        4 0.37734341E-02 0.12499890E+03</pdfrwt>
<pdfrwt beam="2">  1       -4 0.24501290E-01 0.12499890E+03</pdfrwt>
<totfact> 0.92942250E+03</totfact>
</mgrwt>
</event>
<event>
 5    1  0.3282421E-002  0.1249532E+03  0.7818608E-02  0.1235142E+00
         -4   -1    0    0    0  501 -0.00000000000E+00  0.00000000000E+00  0.86217270333E+01  0.87147620183E+01  0.12700000000E+01 0.  1.
          4   -1    0    0  501    0  0.00000000000E+00 -0.00000000000E+00 -0.45020810554E+03  0.45020989682E+03  0.12700000000E+01 0.  1.
         25    2    1    2    0    0  0.00000000000E+00  0.00000000000E+00 -0.44158637851E+03  0.45892465884E+03  0.12495324248E+03 0.  0.
    9000005    1    3    3    0    0 -0.43382641672E+02 -0.13241126816E+02 -0.63037209576E+02  0.77666407339E+02  0.10000000000E+01 0.  0.
    9000005    1    3    3    0    0  0.43382641672E+02  0.13241126816E+02 -0.37854916893E+03  0.38125825150E+03  0.10000000000E+01 0.  0.
<mgrwt>
<rscale>  0 0.12495324E+03</rscale>
<asrwt>0</asrwt>
<pdfrwt beam="2">  1        4 0.69270062E-01 0.12495324E+03</pdfrwt>
<pdfrwt beam="1">  1       -4 0.13337142E-02 0.12495324E+03</pdfrwt>
<totfact> 0.59259375E+03</totfact>
</mgrwt>
</event>
<event>
 5    1  0.3282421E-002  0.1250005E+03  0.7818608E-02  0.1235069E+00
         -4   -1    0    0    0  501 -0.00000000000E+00  0.00000000000E+00  0.27112324570E+02  0.27142053047E+02  0.12700000000E+01 0. -1.
          4   -1    0    0  501    0  0.00000000000E+00 -0.00000000000E+00 -0.14396616425E+03  0.14397176580E+03  0.12700000000E+01 0. -1.
         25    2    1    2    0    0  0.00000000000E+00  0.00000000000E+00 -0.11685383968E+03  0.17111381885E+03  0.12500047661E+03 0.  0.
    9000005    1    3    3    0    0  0.20053660403E+02 -0.56025854427E+02 -0.32301472641E+02  0.67715809045E+02  0.10000000000E+01 0.  0.
    9000005    1    3    3    0    0 -0.20053660403E+02  0.56025854427E+02 -0.84552367035E+02  0.10339800980E+03  0.10000000000E+01 0.  0.
<mgrwt>
<rscale>  0 0.12500048E+03</rscale>
<asrwt>0</asrwt>
<pdfrwt beam="2">  1        4 0.22151358E-01 0.12500048E+03</pdfrwt>
<pdfrwt beam="1">  1       -4 0.41738447E-02 0.12500048E+03</pdfrwt>
<totfact> 0.95240424E+03</totfact>
</mgrwt>
</event>
<event>
 5    1  0.3282421E-002  0.1249986E+03  0.7818608E-02  0.1235071E+00
          4   -1    0    0  501    0  0.00000000000E+00  0.00000000000E+00  0.46067443484E+02  0.46084946015E+02  0.12700000000E+01 0. -1.
         -4   -1    0    0    0  501 -0.00000000000E+00 -0.00000000000E+00 -0.84753958517E+02  0.84763473173E+02  0.12700000000E+01 0. -1.
         25    2    1    2    0    0  0.00000000000E+00  0.00000000000E+00 -0.38686515033E+02  0.13084841919E+03  0.12499864943E+03 0.  0.
    9000005    1    3    3    0    0  0.57953266542E+02  0.19247230983E+02 -0.54508317742E+01  0.61316788651E+02  0.10000000000E+01 0.  0.
    9000005    1    3    3    0    0 -0.57953266542E+02 -0.19247230983E+02 -0.33235683259E+02  0.69531630537E+02  0.10000000000E+01 0.  0.
<mgrwt>
<rscale>  0 0.12499865E+03</rscale>
<asrwt>0</asrwt>
<pdfrwt beam="1">  1        4 0.70893772E-02 0.12499865E+03</pdfrwt>
<pdfrwt beam="2">  1       -4 0.13041149E-01 0.12499865E+03</pdfrwt>
<totfact> 0.10326655E+04</totfact>
</mgrwt>
</event>
<event>
 5    1  0.3282421E-002  0.1250003E+03  0.7818608E-02  0.1235069E+00
         -4   -1    0    0    0  501 -0.00000000000E+00  0.00000000000E+00  0.36364632079E+02  0.36386802089E+02  0.12700000000E+01 0.  1.
          4   -1    0    0  501    0  0.00000000000E+00 -0.00000000000E+00 -0.10736083725E+03  0.10736834857E+03  0.12700000000E+01 0.  1.
         25    2    1    2    0    0  0.00000000000E+00  0.00000000000E+00 -0.70996205172E+02  0.14375515066E+03  0.12500032877E+03 0.  0.
    9000005    1    3    3    0    0  0.45284822909E+02 -0.40551378767E+02 -0.18826870403E+02  0.63644171414E+02  0.10000000000E+01 0.  0.
    9000005    1    3    3    0    0 -0.45284822909E+02  0.40551378767E+02 -0.52169334768E+02  0.80110979247E+02  0.10000000000E+01 0.  0.
<mgrwt>
<rscale>  0 0.12500033E+03</rscale>
<asrwt>0</asrwt>
<pdfrwt beam="2">  1        4 0.16519335E-01 0.12500033E+03</pdfrwt>
<pdfrwt beam="1">  1       -4 0.55968420E-02 0.12500033E+03</pdfrwt>
<totfact> 0.10056268E+04</totfact>
</mgrwt>
</event>
<event>
 5    1  0.3282421E-002  0.1250018E+03  0.7818608E-02  0.1235066E+00
         -4   -1    0    0    0  501 -0.00000000000E+00  0.00000000000E+00  0.27570587084E+02  0.27599821959E+02  0.12700000000E+01 0. -1.
          4   -1    0    0  501    0  0.00000000000E+00 -0.00000000000E+00 -0.14157869659E+03  0.14158439260E+03  0.12700000000E+01 0. -1.
         25    2    1    2    0    0  0.00000000000E+00  0.00000000000E+00 -0.11400810950E+03  0.16918421456E+03  0.12500179768E+03 0.  0.
    9000005    1    3    3    0    0  0.42668009754E+02 -0.41413440620E+02 -0.30979334830E+02  0.67054838057E+02  0.10000000000E+01 0.  0.
    9000005    1    3    3    0    0 -0.42668009754E+02  0.41413440620E+02 -0.83028774673E+02  0.10212937650E+03  0.10000000000E+01 0.  0.
<mgrwt>
<rscale>  0 0.12500180E+03</rscale>
<asrwt>0</asrwt>
<pdfrwt beam="2">  1        4 0.21784025E-01 0.12500180E+03</pdfrwt>
<pdfrwt beam="1">  1       -4 0.42443158E-02 0.12500180E+03</pdfrwt>
<totfact> 0.95596925E+03</totfact>
</mgrwt>
</event>
<event>
 5    1  0.3282421E-002  0.1249908E+03  0.7818608E-02  0.1235084E+00
          4   -1    0    0  501    0  0.00000000000E+00  0.00000000000E+00  0.12620569318E+04  0.12620575708E+04  0.12700000000E+01 0. -1.
         -4   -1    0    0    0  501 -0.00000000000E+00 -0.00000000000E+00 -0.29637276127E+01  0.32243730185E+01  0.12700000000E+01 0. -1.
         25    2    1    2    0    0  0.00000000000E+00  0.00000000000E+00  0.12590932042E+04  0.12652819439E+04  0.12499080172E+03 0.  0.
    9000005    1    3    3    0    0 -0.46867833677E+02 -0.83028940050E+01  0.10393897807E+04  0.10404795279E+04  0.10000000000E+01 0.  0.
    9000005    1    3    3    0    0  0.46867833677E+02  0.83028940050E+01  0.21970342356E+03  0.22480241593E+03  0.10000000000E+01 0.  0.
<mgrwt>
<rscale>  0 0.12499080E+03</rscale>
<asrwt>0</asrwt>
<pdfrwt beam="1">  1        4 0.19418319E+00 0.12499080E+03</pdfrwt>
<pdfrwt beam="2">  1       -4 0.47605570E-03 0.12499080E+03</pdfrwt>
<totfact> 0.23067593E+03</totfact>
</mgrwt>
</event>
<event>
 5    1  0.3282421E-002  0.1250002E+03  0.7818608E-02  0.1235069E+00
         -4   -1    0    0    0  501 -0.00000000000E+00  0.00000000000E+00  0.28078012023E+03  0.28078299240E+03  0.12700000000E+01 0. -1.
          4   -1    0    0  501    0  0.00000000000E+00 -0.00000000000E+00 -0.13880245944E+02  0.13938225406E+02  0.12700000000E+01 0. -1.
         25    2    1    2    0    0  0.00000000000E+00  0.00000000000E+00  0.26689987429E+03  0.29472121780E+03  0.12500021331E+03 0.  0.
    9000005    1    3    3    0    0 -0.51574684557E+02 -0.34707297070E+02  0.14849513832E+03  0.16098556041E+03  0.10000000000E+01 0.  0.
    9000005    1    3    3    0    0  0.51574684557E+02  0.34707297070E+02  0.11840473597E+03  0.13373565739E+03  0.10000000000E+01 0.  0.
<mgrwt>
<rscale>  0 0.12500021E+03</rscale>
<asrwt>0</asrwt>
<pdfrwt beam="2">  1        4 0.21401036E-02 0.12500021E+03</pdfrwt>
<pdfrwt beam="1">  1       -4 0.43201618E-01 0.12500021E+03</pdfrwt>
<totfact> 0.76265447E+03</totfact>
</mgrwt>
</event>
<event>
 5    1  0.3282421E-002  0.1250014E+03  0.7818608E-02  0.1235067E+00
         -4   -1    0    0    0  501 -0.00000000000E+00  0.00000000000E+00  0.10829992082E+02  0.10904202332E+02  0.12700000000E+01 0. -1.
          4   -1    0    0  501    0  0.00000000000E+00 -0.00000000000E+00 -0.35938955346E+03  0.35939179740E+03  0.12700000000E+01 0. -1.
         25    2    1    2    0    0  0.00000000000E+00  0.00000000000E+00 -0.34855956138E+03  0.37029599973E+03  0.12500143834E+03 0.  0.
    9000005    1    3    3    0    0 -0.10156885129E+02  0.53226109106E+02 -0.26650113639E+03  0.27195594625E+03  0.10000000000E+01 0.  0.
    9000005    1    3    3    0    0  0.10156885129E+02 -0.53226109106E+02 -0.82058424993E+02  0.98340053480E+02  0.10000000000E+01 0.  0.
<mgrwt>
<rscale>  0 0.12500144E+03</rscale>
<asrwt>0</asrwt>
<pdfrwt beam="2">  1        4 0.55296572E-01 0.12500144E+03</pdfrwt>
<pdfrwt beam="1">  1       -4 0.16720340E-02 0.12500144E+03</pdfrwt>
<totfact> 0.67545838E+03</totfact>
</mgrwt>
</event>
<event>
 5    1  0.3282421E-002  0.1249996E+03  0.7818608E-02  0.1235070E+00
          4   -1    0    0  501    0  0.00000000000E+00  0.00000000000E+00  0.27895113538E+03  0.27895402638E+03  0.12700000000E+01 0.  1.
         -4   -1    0    0    0  501 -0.00000000000E+00 -0.00000000000E+00 -0.13971500454E+02  0.14029102785E+02  0.12700000000E+01 0.  1.
         25    2    1    2    0    0  0.00000000000E+00  0.00000000000E+00  0.26497963493E+03  0.29298312916E+03  0.12499962818E+03 0.  0.
    9000005    1    3    3    0    0 -0.55810358362E+02  0.21059930136E+02  0.17614565290E+03  0.18597475042E+03  0.10000000000E+01 0.  0.
    9000005    1    3    3    0    0  0.55810358362E+02 -0.21059930136E+02  0.88833982026E+02  0.10700837874E+03  0.10000000000E+01 0.  0.
<mgrwt>
<rscale>  0 0.12499963E+03</rscale>
<asrwt>0</asrwt>
<pdfrwt beam="1">  1        4 0.42920212E-01 0.12499963E+03</pdfrwt>
<pdfrwt beam="2">  1       -4 0.21541150E-02 0.12499963E+03</pdfrwt>
<totfact> 0.76488168E+03</totfact>
</mgrwt>
</event>
<event>
 5    1  0.3282421E-002  0.1250003E+03  0.7818608E-02  0.1235069E+00
          4   -1    0    0  501    0  0.00000000000E+00  0.00000000000E+00  0.56541633322E+02  0.56555894465E+02  0.12700000000E+01 0. -1.
         -4   -1    0    0    0  501 -0.00000000000E+00 -0.00000000000E+00 -0.69057770532E+02  0.69069447449E+02  0.12700000000E+01 0. -1.
         25    2    1    2    0    0  0.00000000000E+00  0.00000000000E+00 -0.12516137210E+02  0.12562534191E+03  0.12500029136E+03 0.  0.
    9000005    1    3    3    0    0 -0.11907543198E+02 -0.47192457168E+02  0.33134236980E+02  0.58887989088E+02  0.10000000000E+01 0.  0.
    9000005    1    3    3    0    0  0.11907543198E+02  0.47192457168E+02 -0.45650374190E+02  0.66737352826E+02  0.10000000000E+01 0.  0.
<mgrwt>
<rscale>  0 0.12500029E+03</rscale>
<asrwt>0</asrwt>
<pdfrwt beam="1">  1        4 0.87007081E-02 0.12500029E+03</pdfrwt>
<pdfrwt beam="2">  1       -4 0.10626268E-01 0.12500029E+03</pdfrwt>
<totfact> 0.10439120E+04</totfact>
</mgrwt>
</event>
<event>
 5    1  0.3282421E-002  0.1250026E+03  0.7818608E-02  0.1235065E+00
          4   -1    0    0  501    0  0.00000000000E+00  0.00000000000E+00  0.31965467461E+02  0.31990686301E+02  0.12700000000E+01 0. -1.
         -4   -1    0    0    0  501 -0.00000000000E+00 -0.00000000000E+00 -0.12213065585E+03  0.12213725885E+03  0.12700000000E+01 0. -1.
         25    2    1    2    0    0  0.00000000000E+00  0.00000000000E+00 -0.90165188391E+02  0.15412794515E+03  0.12500264908E+03 0.  0.
    9000005    1    3    3    0    0 -0.20055881200E+02 -0.25176317397E+02 -0.11112949437E+03  0.11570155508E+03  0.10000000000E+01 0.  0.
    9000005    1    3    3    0    0  0.20055881200E+02  0.25176317397E+02  0.20964305982E+02  0.38426390068E+02  0.10000000000E+01 0.  0.
<mgrwt>
<rscale>  0 0.12500265E+03</rscale>
<asrwt>0</asrwt>
<pdfrwt beam="1">  1        4 0.49202121E-02 0.12500265E+03</pdfrwt>
<pdfrwt beam="2">  1       -4 0.18791779E-01 0.12500265E+03</pdfrwt>
<totfact> 0.98481099E+03</totfact>
</mgrwt>
</event>
<event>
 5    1  0.3282421E-002  0.1249996E+03  0.7818608E-02  0.1235070E+00
         -4   -1    0    0    0  501 -0.00000000000E+00  0.00000000000E+00  0.16148420399E+02  0.16198283285E+02  0.12700000000E+01 0. -1.
          4   -1    0    0  501    0  0.00000000000E+00 -0.00000000000E+00 -0.24147073676E+03  0.24147407648E+03  0.12700000000E+01 0. -1.
         25    2    1    2    0    0  0.00000000000E+00  0.00000000000E+00 -0.22532231636E+03  0.25767235976E+03  0.12499959494E+03 0.  0.
    9000005    1    3    3    0    0 -0.12387787625E+02 -0.58912406536E+02 -0.14722216414E+03  0.15905814829E+03  0.10000000000E+01 0.  0.
    9000005    1    3    3    0    0  0.12387787625E+02  0.58912406536E+02 -0.78100152224E+02  0.98614211469E+02  0.10000000000E+01 0.  0.
<mgrwt>
<rscale>  0 0.12499959E+03</rscale>
<asrwt>0</asrwt>
<pdfrwt beam="2">  1        4 0.37153434E-01 0.12499959E+03</pdfrwt>
<pdfrwt beam="1">  1       -4 0.24884651E-02 0.12499959E+03</pdfrwt>
<totfact> 0.81234559E+03</totfact>
</mgrwt>
</event>
<event>
 5    1  0.3282421E-002  0.1249839E+03  0.7818608E-02  0.1235094E+00
          4   -1    0    0  501    0  0.00000000000E+00  0.00000000000E+00  0.29016319829E+01  0.31673913816E+01  0.12700000000E+01 0.  1.
         -4   -1    0    0    0  501 -0.00000000000E+00 -0.00000000000E+00 -0.12866779745E+04  0.12866786013E+04  0.12700000000E+01 0.  1.
         25    2    1    2    0    0  0.00000000000E+00  0.00000000000E+00 -0.12837763425E+04  0.12898459927E+04  0.12498394757E+03 0.  0.
    9000005    1    3    3    0    0 -0.37949874965E+02  0.39039781975E+02 -0.32548865364E+03  0.33001236528E+03  0.10000000000E+01 0.  0.
    9000005    1    3    3    0    0  0.37949874965E+02 -0.39039781975E+02 -0.95828768890E+03  0.95983362740E+03  0.10000000000E+01 0.  0.
<mgrwt>
<rscale>  0 0.12498395E+03</rscale>
<asrwt>0</asrwt>
<pdfrwt beam="1">  1        4 0.46689719E-03 0.12498395E+03</pdfrwt>
<pdfrwt beam="2">  1       -4 0.19797051E+00 0.12498395E+03</pdfrwt>
<totfact> 0.22477383E+03</totfact>
</mgrwt>
</event>
<event>
 5    1  0.3282421E-002  0.1250008E+03  0.7818608E-02  0.1235068E+00
         -4   -1    0    0    0  501 -0.00000000000E+00  0.00000000000E+00  0.52218992747E+02  0.52234434078E+02  0.12700000000E+01 0.  1.
          4   -1    0    0  501    0  0.00000000000E+00 -0.00000000000E+00 -0.74774231386E+02  0.74785015741E+02  0.12700000000E+01 0.  1.
         25    2    1    2    0    0  0.00000000000E+00  0.00000000000E+00 -0.22555238639E+02  0.12701944982E+03  0.12500080737E+03 0.  0.
    9000005    1    3    3    0    0  0.52091054498E+02  0.11486349813E+02 -0.44359260158E+02  0.69384134732E+02  0.10000000000E+01 0.  0.
    9000005    1    3    3    0    0 -0.52091054498E+02 -0.11486349813E+02  0.21804021519E+02  0.57635315087E+02  0.10000000000E+01 0.  0.
<mgrwt>
<rscale>  0 0.12500081E+03</rscale>
<asrwt>0</asrwt>
<pdfrwt beam="2">  1        4 0.11505745E-01 0.12500081E+03</pdfrwt>
<pdfrwt beam="1">  1       -4 0.80357086E-02 0.12500081E+03</pdfrwt>
<totfact> 0.10408533E+04</totfact>
</mgrwt>
</event>
<event>
 5    1  0.3282421E-002  0.1250012E+03  0.7818608E-02  0.1235067E+00
          4   -1    0    0  501    0  0.00000000000E+00  0.00000000000E+00  0.35073956723E+03  0.35074186651E+03  0.12700000000E+01 0.  1.
         -4   -1    0    0    0  501 -0.00000000000E+00 -0.00000000000E+00 -0.11098847109E+02  0.11171271510E+02  0.12700000000E+01 0.  1.
         25    2    1    2    0    0  0.00000000000E+00  0.00000000000E+00  0.33964072012E+03  0.36191313802E+03  0.12500120281E+03 0.  0.
    9000005    1    3    3    0    0 -0.18555570403E+01 -0.23719219926E-01 -0.11033255756E+02  0.11232826319E+02  0.10000000000E+01 0.  0.
    9000005    1    3    3    0    0  0.18555570403E+01  0.23719219926E-01  0.35067397588E+03  0.35068031170E+03  0.10000000000E+01 0.  0.
<mgrwt>
<rscale>  0 0.12500120E+03</rscale>
<asrwt>0</asrwt>
<pdfrwt beam="1">  1        4 0.53965675E-01 0.12500120E+03</pdfrwt>
<pdfrwt beam="2">  1       -4 0.17132631E-02 0.12500120E+03</pdfrwt>
<totfact> 0.68431729E+03</totfact>
</mgrwt>
</event>
<event>
 5    1  0.3282421E-002  0.1250373E+03  0.7818608E-02  0.1235011E+00
          4   -1    0    0  501    0  0.00000000000E+00  0.00000000000E+00  0.31891931798E+03  0.31892184667E+03  0.12700000000E+01 0. -1.
         -4   -1    0    0    0  501 -0.00000000000E+00 -0.00000000000E+00 -0.12220217285E+02  0.12286033148E+02  0.12700000000E+01 0. -1.
         25    2    1    2    0    0  0.00000000000E+00  0.00000000000E+00  0.30669910070E+03  0.33120787982E+03  0.12503727958E+03 0.  0.
    9000005    1    3    3    0    0  0.42381997445E+02 -0.38468749576E+02  0.21991494051E+03  0.22724361259E+03  0.10000000000E+01 0.  0.
    9000005    1    3    3    0    0 -0.42381997445E+02  0.38468749576E+02  0.86784160185E+02  0.10396426723E+03  0.10000000000E+01 0.  0.
<mgrwt>
<rscale>  0 0.12503728E+03</rscale>
<asrwt>0</asrwt>
<pdfrwt beam="1">  1        4 0.49069766E-01 0.12503728E+03</pdfrwt>
<pdfrwt beam="2">  1       -4 0.18852908E-02 0.12503728E+03</pdfrwt>
<totfact> 0.71783331E+03</totfact>
</mgrwt>
</event>
<event>
 5    1  0.3282421E-002  0.1250021E+03  0.7818608E-02  0.1235066E+00
         -4   -1    0    0    0  501 -0.00000000000E+00  0.00000000000E+00  0.24013043516E+02  0.24046603896E+02  0.12700000000E+01 0. -1.
          4   -1    0    0  501    0  0.00000000000E+00 -0.00000000000E+00 -0.16252791181E+03  0.16253287365E+03  0.12700000000E+01 0. -1.
         25    2    1    2    0    0  0.00000000000E+00  0.00000000000E+00 -0.13851486829E+03  0.18657947755E+03  0.12500213079E+03 0.  0.
    9000005    1    3    3    0    0  0.53871146969E+02 -0.30543184931E+02 -0.81780831414E+02  0.10258699239E+03  0.10000000000E+01 0.  0.
    9000005    1    3    3    0    0 -0.53871146969E+02  0.30543184931E+02 -0.56734036878E+02  0.83992485152E+02  0.10000000000E+01 0.  0.
<mgrwt>
<rscale>  0 0.12500213E+03</rscale>
<asrwt>0</asrwt>
<pdfrwt beam="2">  1        4 0.25007257E-01 0.12500213E+03</pdfrwt>
<pdfrwt beam="1">  1       -4 0.36972777E-02 0.12500213E+03</pdfrwt>
<totfact> 0.92441490E+03</totfact>
</mgrwt>
</event>
<event>
 5    1  0.3282421E-002  0.1250005E+03  0.7818608E-02  0.1235068E+00
          4   -1    0    0  501    0  0.00000000000E+00  0.00000000000E+00  0.20503209782E+01  0.24117869130E+01  0.12700000000E+01 0.  1.
         -4   -1    0    0    0  501 -0.00000000000E+00 -0.00000000000E+00 -0.17505076956E+04  0.17505081563E+04  0.12700000000E+01 0.  1.
         25    2    1    2    0    0  0.00000000000E+00  0.00000000000E+00 -0.17484573746E+04  0.17529199432E+04  0.12500054570E+03 0.  0.
    9000005    1    3    3    0    0  0.31363837828E+02  0.14611020329E+02 -0.16039944315E+04  0.16043678844E+04  0.10000000000E+01 0.  0.
    9000005    1    3    3    0    0 -0.31363837828E+02 -0.14611020329E+02 -0.14446294315E+03  0.14855205883E+03  0.10000000000E+01 0.  0.
<mgrwt>
<rscale>  0 0.12500055E+03</rscale>
<asrwt>0</asrwt>
<pdfrwt beam="1">  1        4 0.34327591E-03 0.12500055E+03</pdfrwt>
<pdfrwt beam="2">  1       -4 0.26933562E+00 0.12500055E+03</pdfrwt>
<totfact> 0.13442920E+03</totfact>
</mgrwt>
</event>
<event>
 5    1  0.3282421E-002  0.1250030E+03  0.7818608E-02  0.1235065E+00
          4   -1    0    0  501    0  0.00000000000E+00  0.00000000000E+00  0.15018495930E+02  0.15072097399E+02  0.12700000000E+01 0.  1.
         -4   -1    0    0    0  501 -0.00000000000E+00 -0.00000000000E+00 -0.25958996898E+03  0.25959307559E+03  0.12700000000E+01 0.  1.
         25    2    1    2    0    0  0.00000000000E+00  0.00000000000E+00 -0.24457147305E+03  0.27466517299E+03  0.12500300726E+03 0.  0.
    9000005    1    3    3    0    0  0.18380843165E+02 -0.19890643206E+02 -0.24603594793E+03  0.24752410136E+03  0.10000000000E+01 0.  0.
    9000005    1    3    3    0    0 -0.18380843165E+02  0.19890643206E+02  0.14644748757E+01  0.27141071630E+02  0.10000000000E+01 0.  0.
<mgrwt>
<rscale>  0 0.12500301E+03</rscale>
<asrwt>0</asrwt>
<pdfrwt beam="1">  1        4 0.23149002E-02 0.12500301E+03</pdfrwt>
<pdfrwt beam="2">  1       -4 0.39941277E-01 0.12500301E+03</pdfrwt>
<totfact> 0.78885550E+03</totfact>
</mgrwt>
</event>
<event>
 5    1  0.3282421E-002  0.1249988E+03  0.7818608E-02  0.1235071E+00
          4   -1    0    0  501    0  0.00000000000E+00  0.00000000000E+00  0.94719288414E+01  0.95566906394E+01  0.12700000000E+01 0.  1.
         -4   -1    0    0    0  501 -0.00000000000E+00 -0.00000000000E+00 -0.41047203003E+03  0.41047399472E+03  0.12700000000E+01 0.  1.
         25    2    1    2    0    0  0.00000000000E+00  0.00000000000E+00 -0.40100010119E+03  0.42003068536E+03  0.12499878194E+03 0.  0.
    9000005    1    3    3    0    0  0.17034918893E+02  0.56019696865E+02 -0.27387262964E+03  0.28006358593E+03  0.10000000000E+01 0.  0.
    9000005    1    3    3    0    0 -0.17034918893E+02 -0.56019696865E+02 -0.12712747155E+03  0.13996709942E+03  0.10000000000E+01 0.  0.
<mgrwt>
<rscale>  0 0.12499878E+03</rscale>
<asrwt>0</asrwt>
<pdfrwt beam="1">  1        4 0.14638914E-02 0.12499878E+03</pdfrwt>
<pdfrwt beam="2">  1       -4 0.63156201E-01 0.12499878E+03</pdfrwt>
<totfact> 0.62651852E+03</totfact>
</mgrwt>
</event>
<event>
 5    1  0.3282421E-002  0.1249978E+03  0.7818608E-02  0.1235073E+00
          4   -1    0    0  501    0  0.00000000000E+00  0.00000000000E+00  0.17005221200E+04  0.17005225942E+04  0.12700000000E+01 0.  1.
         -4   -1    0    0    0  501 -0.00000000000E+00 -0.00000000000E+00 -0.21209538388E+01  0.24721135059E+01  0.12700000000E+01 0.  1.
         25    2    1    2    0    0  0.00000000000E+00  0.00000000000E+00  0.16984011662E+04  0.17029947077E+04  0.12499781351E+03 0.  0.
    9000005    1    3    3    0    0 -0.28522213818E+02 -0.17351625412E+02  0.12949764192E+03  0.13373569026E+03  0.10000000000E+01 0.  0.
    9000005    1    3    3    0    0  0.28522213818E+02  0.17351625412E+02  0.15689035242E+04  0.15692590175E+04  0.10000000000E+01 0.  0.
<mgrwt>
<rscale>  0 0.12499781E+03</rscale>
<asrwt>0</asrwt>
<pdfrwt beam="1">  1        4 0.26164590E+00 0.12499781E+03</pdfrwt>
<pdfrwt beam="2">  1       -4 0.35334926E-03 0.12499781E+03</pdfrwt>
<totfact> 0.14258689E+03</totfact>
</mgrwt>
</event>
<event>
 5    1  0.3282421E-002  0.1250004E+03  0.7818608E-02  0.1235069E+00
          4   -1    0    0  501    0  0.00000000000E+00  0.00000000000E+00  0.29366031345E+03  0.29366305963E+03  0.12700000000E+01 0. -1.
         -4   -1    0    0    0  501 -0.00000000000E+00 -0.00000000000E+00 -0.13268891460E+02  0.13329530396E+02  0.12700000000E+01 0. -1.
         25    2    1    2    0    0  0.00000000000E+00  0.00000000000E+00  0.28039142199E+03  0.30699259003E+03  0.12500040324E+03 0.  0.
    9000005    1    3    3    0    0  0.35841484101E+02  0.51142266618E+02  0.13463217754E+03  0.14841484645E+03  0.10000000000E+01 0.  0.
    9000005    1    3    3    0    0 -0.35841484101E+02 -0.51142266618E+02  0.14575924445E+03  0.15857774358E+03  0.10000000000E+01 0.  0.
<mgrwt>
<rscale>  0 0.12500040E+03</rscale>
<asrwt>0</asrwt>
<pdfrwt beam="1">  1        4 0.45183379E-01 0.12500040E+03</pdfrwt>
<pdfrwt beam="2">  1       -4 0.20462440E-02 0.12500040E+03</pdfrwt>
<totfact> 0.74729325E+03</totfact>
</mgrwt>
</event>
<event>
 5    1  0.3282421E-002  0.1249990E+03  0.7818608E-02  0.1235071E+00
          4   -1    0    0  501    0  0.00000000000E+00  0.00000000000E+00  0.28256734787E+03  0.28257020187E+03  0.12700000000E+01 0.  1.
         -4   -1    0    0    0  501 -0.00000000000E+00 -0.00000000000E+00 -0.13791823078E+02  0.13850172700E+02  0.12700000000E+01 0.  1.
         25    2    1    2    0    0  0.00000000000E+00  0.00000000000E+00  0.26877552480E+03  0.29642037457E+03  0.12499902292E+03 0.  0.
    9000005    1    3    3    0    0 -0.97449011186E+01  0.52408080633E+02  0.57049491091E+02  0.78084662048E+02  0.10000000000E+01 0.  0.
    9000005    1    3    3    0    0  0.97449011186E+01 -0.52408080633E+02  0.21172603371E+03  0.21833571252E+03  0.10000000000E+01 0.  0.
<mgrwt>
<rscale>  0 0.12499902E+03</rscale>
<asrwt>0</asrwt>
<pdfrwt beam="1">  1        4 0.43476605E-01 0.12499902E+03</pdfrwt>
<pdfrwt beam="2">  1       -4 0.21265270E-02 0.12499902E+03</pdfrwt>
<totfact> 0.76051716E+03</totfact>
</mgrwt>
</event>
<event>
 5    1  0.3282421E-002  0.1250183E+03  0.7818608E-02  0.1235041E+00
          4   -1    0    0  501    0  0.00000000000E+00  0.00000000000E+00  0.27205968365E+02  0.27235594627E+02  0.12700000000E+01 0.  1.
         -4   -1    0    0    0  501 -0.00000000000E+00 -0.00000000000E+00 -0.14351212295E+03  0.14351774223E+03  0.12700000000E+01 0.  1.
         25    2    1    2    0    0  0.00000000000E+00  0.00000000000E+00 -0.11630615459E+03  0.17075333686E+03  0.12501832047E+03 0.  0.
    9000005    1    3    3    0    0 -0.29491568672E+02 -0.23593247202E+02 -0.12617070531E+03  0.13170588755E+03  0.10000000000E+01 0.  0.
    9000005    1    3    3    0    0  0.29491568672E+02  0.23593247202E+02  0.98645507248E+01  0.39047449306E+02  0.10000000000E+01 0.  0.
<mgrwt>
<rscale>  0 0.12501832E+03</rscale>
<asrwt>0</asrwt>
<pdfrwt beam="1">  1        4 0.41882449E-02 0.12501832E+03</pdfrwt>
<pdfrwt beam="2">  1       -4 0.22081499E-01 0.12501832E+03</pdfrwt>
<totfact> 0.95269234E+03</totfact>
</mgrwt>
</event>
<event>
 5    1  0.3282421E-002  0.1249978E+03  0.7818608E-02  0.1235073E+00
          4   -1    0    0  501    0  0.00000000000E+00  0.00000000000E+00  0.10276003095E+02  0.10354184643E+02  0.12700000000E+01 0. -1.
         -4   -1    0    0    0  501 -0.00000000000E+00 -0.00000000000E+00 -0.37860031063E+03  0.37860244071E+03  0.12700000000E+01 0. -1.
         25    2    1    2    0    0  0.00000000000E+00  0.00000000000E+00 -0.36832430754E+03  0.38895662535E+03  0.12499784351E+03 0.  0.
    9000005    1    3    3    0    0 -0.56846378122E+02  0.13401721073E+02 -0.11500112918E+03  0.12898595484E+03  0.10000000000E+01 0.  0.
    9000005    1    3    3    0    0  0.56846378122E+02 -0.13401721073E+02 -0.25332317836E+03  0.25997067051E+03  0.10000000000E+01 0.  0.
<mgrwt>
<rscale>  0 0.12499784E+03</rscale>
<asrwt>0</asrwt>
<pdfrwt beam="1">  1        4 0.15871017E-02 0.12499784E+03</pdfrwt>
<pdfrwt beam="2">  1       -4 0.58252369E-01 0.12499784E+03</pdfrwt>
<totfact> 0.65644347E+03</totfact>
</mgrwt>
</event>
<event>
 5    1  0.3282421E-002  0.1250022E+03  0.7818608E-02  0.1235066E+00
         -4   -1    0    0    0  501 -0.00000000000E+00  0.00000000000E+00  0.16817635938E+02  0.16865520405E+02  0.12700000000E+01 0.  1.
          4   -1    0    0  501    0  0.00000000000E+00 -0.00000000000E+00 -0.23189933222E+03  0.23190280978E+03  0.12700000000E+01 0.  1.
         25    2    1    2    0    0  0.00000000000E+00  0.00000000000E+00 -0.21508169628E+03  0.24876833018E+03  0.12500218409E+03 0.  0.
    9000005    1    3    3    0    0  0.47846211850E+02  0.33335843337E+02 -0.62825374133E+02  0.85723777765E+02  0.10000000000E+01 0.  0.
    9000005    1    3    3    0    0 -0.47846211850E+02 -0.33335843337E+02 -0.15225632215E+03  0.16304455242E+03  0.10000000000E+01 0.  0.
<mgrwt>
<rscale>  0 0.12500218E+03</rscale>
<asrwt>0</asrwt>
<pdfrwt beam="2">  1        4 0.35680769E-01 0.12500218E+03</pdfrwt>
<pdfrwt beam="1">  1       -4 0.25912797E-02 0.12500218E+03</pdfrwt>
<totfact> 0.82504555E+03</totfact>
</mgrwt>
</event>
<event>
 5    1  0.3282421E-002  0.1250049E+03  0.7818608E-02  0.1235062E+00
         -4   -1    0    0    0  501 -0.00000000000E+00  0.00000000000E+00  0.10936411754E+02  0.11009904725E+02  0.12700000000E+01 0. -1.
          4   -1    0    0  501    0  0.00000000000E+00 -0.00000000000E+00 -0.35593538732E+03  0.35593765304E+03  0.12700000000E+01 0. -1.
         25    2    1    2    0    0  0.00000000000E+00  0.00000000000E+00 -0.34499897557E+03  0.36694755776E+03  0.12500486792E+03 0.  0.
    9000005    1    3    3    0    0  0.37079818653E+02  0.39294984420E+02 -0.80298486854E+02  0.96787683840E+02  0.10000000000E+01 0.  0.
    9000005    1    3    3    0    0 -0.37079818653E+02 -0.39294984420E+02 -0.26470048871E+03  0.27015987392E+03  0.10000000000E+01 0.  0.
<mgrwt>
<rscale>  0 0.12500487E+03</rscale>
<asrwt>0</asrwt>
<pdfrwt beam="2">  1        4 0.54765109E-01 0.12500487E+03</pdfrwt>
<pdfrwt beam="1">  1       -4 0.16883527E-02 0.12500487E+03</pdfrwt>
<totfact> 0.67892189E+03</totfact>
</mgrwt>
</event>
<event>
 5    1  0.3282421E-002  0.1249948E+03  0.7818608E-02  0.1235077E+00
         -4   -1    0    0    0  501 -0.00000000000E+00  0.00000000000E+00  0.30227534719E+02  0.30254202273E+02  0.12700000000E+01 0. -1.
          4   -1    0    0  501    0  0.00000000000E+00 -0.00000000000E+00 -0.12913061944E+03  0.12913686451E+03  0.12700000000E+01 0. -1.
         25    2    1    2    0    0  0.00000000000E+00  0.00000000000E+00 -0.98903084718E+02  0.15939106679E+03  0.12499476791E+03 0.  0.
    9000005    1    3    3    0    0  0.47224835918E+02  0.40042884680E+02 -0.38683594919E+02  0.73013959328E+02  0.10000000000E+01 0.  0.
    9000005    1    3    3    0    0 -0.47224835918E+02 -0.40042884680E+02 -0.60219489799E+02  0.86377107457E+02  0.10000000000E+01 0.  0.
<mgrwt>
<rscale>  0 0.12499477E+03</rscale>
<asrwt>0</asrwt>
<pdfrwt beam="2">  1        4 0.19868781E-01 0.12499477E+03</pdfrwt>
<pdfrwt beam="1">  1       -4 0.46529218E-02 0.12499477E+03</pdfrwt>
<totfact> 0.97471774E+03</totfact>
</mgrwt>
</event>
<event>
 5    1  0.3282421E-002  0.1249993E+03  0.7818608E-02  0.1235070E+00
          4   -1    0    0  501    0  0.00000000000E+00  0.00000000000E+00  0.11449814307E+03  0.11450518620E+03  0.12700000000E+01 0.  1.
         -4   -1    0    0    0  501 -0.00000000000E+00 -0.00000000000E+00 -0.34095957574E+02  0.34119601739E+02  0.12700000000E+01 0.  1.
         25    2    1    2    0    0  0.00000000000E+00  0.00000000000E+00  0.80402185501E+02  0.14862478794E+03  0.12499926463E+03 0.  0.
    9000005    1    3    3    0    0  0.38255759948E+02  0.46906378549E+02  0.21723915151E+02  0.64316716390E+02  0.10000000000E+01 0.  0.
    9000005    1    3    3    0    0 -0.38255759948E+02 -0.46906378549E+02  0.58678270350E+02  0.84308071553E+02  0.10000000000E+01 0.  0.
<mgrwt>
<rscale>  0 0.12499926E+03</rscale>
<asrwt>0</asrwt>
<pdfrwt beam="1">  1        4 0.17617459E-01 0.12499926E+03</pdfrwt>
<pdfrwt beam="2">  1       -4 0.52478925E-02 0.12499926E+03</pdfrwt>
<totfact> 0.99580183E+03</totfact>
</mgrwt>
</event>
<event>
 5    1  0.3282421E-002  0.1249989E+03  0.7818608E-02  0.1235071E+00
         -4   -1    0    0    0  501 -0.00000000000E+00  0.00000000000E+00  0.83590829597E+03  0.83590926073E+03  0.12700000000E+01 0. -1.
          4   -1    0    0  501    0  0.00000000000E+00 -0.00000000000E+00 -0.45857065006E+01  0.47583194628E+01  0.12700000000E+01 0. -1.
         25    2    1    2    0    0  0.00000000000E+00  0.00000000000E+00  0.83132258947E+03  0.84066758019E+03  0.12499893048E+03 0.  0.
    9000005    1    3    3    0    0 -0.10158990316E+01  0.25192726924E+02  0.80021516488E+03  0.80061290000E+03  0.10000000000E+01 0.  0.
    9000005    1    3    3    0    0  0.10158990316E+01 -0.25192726924E+02  0.31107424589E+02  0.40054680192E+02  0.10000000000E+01 0.  0.
<mgrwt>
<rscale>  0 0.12499893E+03</rscale>
<asrwt>0</asrwt>
<pdfrwt beam="2">  1        4 0.71884518E-03 0.12499893E+03</pdfrwt>
<pdfrwt beam="1">  1       -4 0.12861467E+00 0.12499893E+03</pdfrwt>
<totfact> 0.36513128E+03</totfact>
</mgrwt>
</event>
<event>
 5    1  0.3282421E-002  0.1249994E+03  0.7818608E-02  0.1235070E+00
         -4   -1    0    0    0  501 -0.00000000000E+00  0.00000000000E+00  0.60613188621E+02  0.60626492021E+02  0.12700000000E+01 0. -1.
          4   -1    0    0  501    0  0.00000000000E+00 -0.00000000000E+00 -0.64418266142E+02  0.64430783891E+02  0.12700000000E+01 0. -1.
         25    2    1    2    0    0  0.00000000000E+00  0.00000000000E+00 -0.38050775212E+01  0.12505727591E+03  0.12499937457E+03 0.  0.
    9000005    1    3    3    0    0  0.47560472094E+02  0.32935036585E+02  0.21740923236E+02  0.61809245941E+02  0.10000000000E+01 0.  0.
    9000005    1    3    3    0    0 -0.47560472094E+02 -0.32935036585E+02 -0.25546000757E+02  0.63248029972E+02  0.10000000000E+01 0.  0.
<mgrwt>
<rscale>  0 0.12499937E+03</rscale>
<asrwt>0</asrwt>
<pdfrwt beam="2">  1        4 0.99124888E-02 0.12499937E+03</pdfrwt>
<pdfrwt beam="1">  1       -4 0.93270921E-02 0.12499937E+03</pdfrwt>
<totfact> 0.10451766E+04</totfact>
</mgrwt>
</event>
<event>
 5    1  0.3282421E-002  0.1249995E+03  0.7818608E-02  0.1235070E+00
          4   -1    0    0  501    0  0.00000000000E+00  0.00000000000E+00  0.60907642026E+03  0.60907774431E+03  0.12700000000E+01 0.  1.
         -4   -1    0    0    0  501 -0.00000000000E+00 -0.00000000000E+00 -0.63491353543E+01  0.64749069296E+01  0.12700000000E+01 0.  1.
         25    2    1    2    0    0  0.00000000000E+00  0.00000000000E+00  0.60272728490E+03  0.61555265124E+03  0.12499954592E+03 0.  0.
    9000005    1    3    3    0    0 -0.85534387348E+01  0.51448584719E+02  0.13183819492E+03  0.14178303080E+03  0.10000000000E+01 0.  0.
    9000005    1    3    3    0    0  0.85534387348E+01 -0.51448584719E+02  0.47088908998E+03  0.47376962044E+03  0.10000000000E+01 0.  0.
<mgrwt>
<rscale>  0 0.12499955E+03</rscale>
<asrwt>0</asrwt>
<pdfrwt beam="1">  1        4 0.93713871E-01 0.12499955E+03</pdfrwt>
<pdfrwt beam="2">  1       -4 0.98656633E-03 0.12499955E+03</pdfrwt>
<totfact> 0.47900836E+03</totfact>
</mgrwt>
</event>
<event>
 5    1  0.3282421E-002  0.1249847E+03  0.7818608E-02  0.1235093E+00
         -4   -1    0    0    0  501 -0.00000000000E+00  0.00000000000E+00  0.44697806922E+03  0.44697987344E+03  0.12700000000E+01 0. -1.
          4   -1    0    0  501    0  0.00000000000E+00 -0.00000000000E+00 -0.86891248431E+01  0.87814458114E+01  0.12700000000E+01 0. -1.
         25    2    1    2    0    0  0.00000000000E+00  0.00000000000E+00  0.43828894438E+03  0.45576131926E+03  0.12498472453E+03 0.  0.
    9000005    1    3    3    0    0  0.62227794985E+02 -0.55608874661E+01  0.21536647170E+03  0.22424749512E+03  0.10000000000E+01 0.  0.
    9000005    1    3    3    0    0 -0.62227794985E+02  0.55608874661E+01  0.22292247268E+03  0.23151382413E+03  0.10000000000E+01 0.  0.
<mgrwt>
<rscale>  0 0.12498472E+03</rscale>
<asrwt>0</asrwt>
<pdfrwt beam="2">  1        4 0.13440292E-02 0.12498472E+03</pdfrwt>
<pdfrwt beam="1">  1       -4 0.68773079E-01 0.12498472E+03</pdfrwt>
<totfact> 0.59487939E+03</totfact>
</mgrwt>
</event>
<event>
 5    1  0.3282421E-002  0.1250004E+03  0.7818608E-02  0.1235069E+00
         -4   -1    0    0    0  501 -0.00000000000E+00  0.00000000000E+00  0.63315261403E+01  0.64576406887E+01  0.12700000000E+01 0.  1.
          4   -1    0    0  501    0  0.00000000000E+00 -0.00000000000E+00 -0.61074539935E+03  0.61074671978E+03  0.12700000000E+01 0.  1.
         25    2    1    2    0    0  0.00000000000E+00  0.00000000000E+00 -0.60441387321E+03  0.61720436047E+03  0.12500036983E+03 0.  0.
    9000005    1    3    3    0    0 -0.47995863419E+02  0.38315722022E+02 -0.24514042255E+03  0.25271827047E+03  0.10000000000E+01 0.  0.
    9000005    1    3    3    0    0  0.47995863419E+02 -0.38315722022E+02 -0.35927345065E+03  0.36448609000E+03  0.10000000000E+01 0.  0.
<mgrwt>
<rscale>  0 0.12500037E+03</rscale>
<asrwt>0</asrwt>
<pdfrwt beam="2">  1        4 0.93970588E-01 0.12500037E+03</pdfrwt>
<pdfrwt beam="1">  1       -4 0.98388411E-03 0.12500037E+03</pdfrwt>
<totfact> 0.47798953E+03</totfact>
</mgrwt>
</event>
<event>
 5    1  0.3282421E-002  0.1250019E+03  0.7818608E-02  0.1235066E+00
         -4   -1    0    0    0  501 -0.00000000000E+00  0.00000000000E+00  0.35586499667E+03  0.35586726283E+03  0.12700000000E+01 0. -1.
          4   -1    0    0  501    0  0.00000000000E+00 -0.00000000000E+00 -0.10938071979E+02  0.11011553869E+02  0.12700000000E+01 0. -1.
         25    2    1    2    0    0  0.00000000000E+00  0.00000000000E+00  0.34492692469E+03  0.36687881670E+03  0.12500193105E+03 0.  0.
    9000005    1    3    3    0    0 -0.30459704839E+02  0.18736607482E+02  0.32288013953E+03  0.32485602747E+03  0.10000000000E+01 0.  0.
    9000005    1    3    3    0    0  0.30459704839E+02 -0.18736607482E+02  0.22046785157E+02  0.42022789229E+02  0.10000000000E+01 0.  0.
<mgrwt>
<rscale>  0 0.12500193E+03</rscale>
<asrwt>0</asrwt>
<pdfrwt beam="2">  1        4 0.16886071E-02 0.12500193E+03</pdfrwt>
<pdfrwt beam="1">  1       -4 0.54754289E-01 0.12500193E+03</pdfrwt>
<totfact> 0.67903838E+03</totfact>
</mgrwt>
</event>
<event>
 5    1  0.3282421E-002  0.1250046E+03  0.7818608E-02  0.1235062E+00
          4   -1    0    0  501    0  0.00000000000E+00  0.00000000000E+00  0.14302484220E+03  0.14303048061E+03  0.12700000000E+01 0.  1.
         -4   -1    0    0    0  501 -0.00000000000E+00 -0.00000000000E+00 -0.27292752012E+02  0.27322284173E+02  0.12700000000E+01 0.  1.
         25    2    1    2    0    0  0.00000000000E+00  0.00000000000E+00  0.11573209018E+03  0.17035276479E+03  0.12500459101E+03 0.  0.
    9000005    1    3    3    0    0  0.11761759764E+02  0.17062816429E+02  0.13821250483E+03  0.13976113619E+03  0.10000000000E+01 0.  0.
    9000005    1    3    3    0    0 -0.11761759764E+02 -0.17062816429E+02 -0.22480414651E+02  0.30591628595E+02  0.10000000000E+01 0.  0.
<mgrwt>
<rscale>  0 0.12500459E+03</rscale>
<asrwt>0</asrwt>
<pdfrwt beam="1">  1        4 0.22006527E-01 0.12500459E+03</pdfrwt>
<pdfrwt beam="2">  1       -4 0.42015904E-02 0.12500459E+03</pdfrwt>
<totfact> 0.95373099E+03</totfact>
</mgrwt>
</event>
<event>
 5    1  0.3282421E-002  0.1249930E+03  0.7818608E-02  0.1235080E+00
         -4   -1    0    0    0  501 -0.00000000000E+00  0.00000000000E+00  0.50993344226E+01  0.52551033818E+01  0.12700000000E+01 0.  1.
          4   -1    0    0  501    0  0.00000000000E+00 -0.00000000000E+00 -0.75426615666E+03  0.75426722584E+03  0.12700000000E+01 0.  1.
         25    2    1    2    0    0  0.00000000000E+00  0.00000000000E+00 -0.74916682224E+03  0.75952232922E+03  0.12499296401E+03 0.  0.
    9000005    1    3    3    0    0 -0.12155024089E+02  0.47037398161E+02 -0.13577160104E+03  0.14420537121E+03  0.10000000000E+01 0.  0.
    9000005    1    3    3    0    0  0.12155024089E+02 -0.47037398161E+02 -0.61339522120E+03  0.61531695802E+03  0.10000000000E+01 0.  0.
<mgrwt>
<rscale>  0 0.12499296E+03</rscale>
<asrwt>0</asrwt>
<pdfrwt beam="2">  1        4 0.11605292E+00 0.12499296E+03</pdfrwt>
<pdfrwt beam="1">  1       -4 0.79657806E-03 0.12499296E+03</pdfrwt>
<totfact> 0.40128972E+03</totfact>
</mgrwt>
</event>
<event>
 5    1  0.3282421E-002  0.1249860E+03  0.7818608E-02  0.1235091E+00
          4   -1    0    0  501    0  0.00000000000E+00  0.00000000000E+00  0.30031814635E+03  0.30032083165E+03  0.12700000000E+01 0.  1.
         -4   -1    0    0    0  501 -0.00000000000E+00 -0.00000000000E+00 -0.12970367044E+02  0.13032395070E+02  0.12700000000E+01 0.  1.
         25    2    1    2    0    0  0.00000000000E+00  0.00000000000E+00  0.28734777930E+03  0.31335322672E+03  0.12498599293E+03 0.  0.
    9000005    1    3    3    0    0 -0.14458352478E+02 -0.57448691149E+02  0.93847482291E+02  0.11098534139E+03  0.10000000000E+01 0.  0.
    9000005    1    3    3    0    0  0.14458352478E+02  0.57448691149E+02  0.19350029701E+03  0.20236788533E+03  0.10000000000E+01 0.  0.
<mgrwt>
<rscale>  0 0.12498599E+03</rscale>
<asrwt>0</asrwt>
<pdfrwt beam="1">  1        4 0.46207767E-01 0.12498599E+03</pdfrwt>
<pdfrwt beam="2">  1       -4 0.20004192E-02 0.12498599E+03</pdfrwt>
<totfact> 0.73976684E+03</totfact>
</mgrwt>
</event>
<event>
 5    1  0.3282421E-002  0.1249996E+03  0.7818608E-02  0.1235070E+00
         -4   -1    0    0    0  501 -0.00000000000E+00  0.00000000000E+00  0.99562536912E+02  0.99570636517E+02  0.12700000000E+01 0. -1.
          4   -1    0    0  501    0  0.00000000000E+00 -0.00000000000E+00 -0.39213890561E+02  0.39234450588E+02  0.12700000000E+01 0. -1.
         25    2    1    2    0    0  0.00000000000E+00  0.00000000000E+00  0.60348646351E+02  0.13880508710E+03  0.12499957236E+03 0.  0.
    9000005    1    3    3    0    0  0.30754230226E+02  0.48684973453E+02  0.32206085440E+01  0.57683807401E+02  0.10000000000E+01 0.  0.
    9000005    1    3    3    0    0 -0.30754230226E+02 -0.48684973453E+02  0.57128037807E+02  0.81121279703E+02  0.10000000000E+01 0.  0.
<mgrwt>
<rscale>  0 0.12499957E+03</rscale>
<asrwt>0</asrwt>
<pdfrwt beam="2">  1        4 0.60351109E-02 0.12499957E+03</pdfrwt>
<pdfrwt beam="1">  1       -4 0.15319518E-01 0.12499957E+03</pdfrwt>
<totfact> 0.10158509E+04</totfact>
</mgrwt>
</event>
<event>
 5    1  0.3282421E-002  0.1249976E+03  0.7818608E-02  0.1235073E+00
         -4   -1    0    0    0  501 -0.00000000000E+00  0.00000000000E+00  0.63749669220E+02  0.63762318227E+02  0.12700000000E+01 0. -1.
          4   -1    0    0  501    0  0.00000000000E+00 -0.00000000000E+00 -0.61247168566E+02  0.61260334290E+02  0.12700000000E+01 0. -1.
         25    2    1    2    0    0  0.00000000000E+00  0.00000000000E+00  0.25025006539E+01  0.12502265252E+03  0.12499760451E+03 0.  0.
    9000005    1    3    3    0    0 -0.46895747067E+02 -0.17527572364E+02 -0.36155086140E+02  0.61762586893E+02  0.10000000000E+01 0.  0.
    9000005    1    3    3    0    0  0.46895747067E+02  0.17527572364E+02  0.38657586794E+02  0.63260065624E+02  0.10000000000E+01 0.  0.
<mgrwt>
<rscale>  0 0.12499760E+03</rscale>
<asrwt>0</asrwt>
<pdfrwt beam="2">  1        4 0.94246271E-02 0.12499760E+03</pdfrwt>
<pdfrwt beam="1">  1       -4 0.98096272E-02 0.12499760E+03</pdfrwt>
<totfact> 0.10452936E+04</totfact>
</mgrwt>
</event>
<event>
 5    1  0.3282421E-002  0.1250156E+03  0.7818608E-02  0.1235045E+00
          4   -1    0    0  501    0  0.00000000000E+00  0.00000000000E+00  0.83406150334E+02  0.83415818724E+02  0.12700000000E+01 0. -1.
         -4   -1    0    0    0  501 -0.00000000000E+00 -0.00000000000E+00 -0.46824784610E+02  0.46842004160E+02  0.12700000000E+01 0. -1.
         25    2    1    2    0    0  0.00000000000E+00  0.00000000000E+00  0.36581365724E+02  0.13025782288E+03  0.12501561544E+03 0.  0.
    9000005    1    3    3    0    0  0.40872495801E+02 -0.24796454057E+02  0.60238020055E+02  0.76909323928E+02  0.10000000000E+01 0.  0.
    9000005    1    3    3    0    0 -0.40872495801E+02  0.24796454057E+02 -0.23656654331E+02  0.53348498957E+02  0.10000000000E+01 0.  0.
<mgrwt>
<rscale>  0 0.12501562E+03</rscale>
<asrwt>0</asrwt>
<pdfrwt beam="1">  1        4 0.12833784E-01 0.12501562E+03</pdfrwt>
<pdfrwt beam="2">  1       -4 0.72058814E-02 0.12501562E+03</pdfrwt>
<totfact> 0.10335352E+04</totfact>
</mgrwt>
</event>
<event>
 5    1  0.3282421E-002  0.1250143E+03  0.7818608E-02  0.1235047E+00
          4   -1    0    0  501    0  0.00000000000E+00  0.00000000000E+00  0.47216961086E+01  0.48895106239E+01  0.12700000000E+01 0. -1.
         -4   -1    0    0    0  501 -0.00000000000E+00 -0.00000000000E+00 -0.81287055431E+03  0.81287154641E+03  0.12700000000E+01 0. -1.
         25    2    1    2    0    0  0.00000000000E+00  0.00000000000E+00 -0.80814885820E+03  0.81776105703E+03  0.12501427675E+03 0.  0.
    9000005    1    3    3    0    0  0.15162533693E+02  0.52622500503E+02 -0.20706030842E+03  0.21418216851E+03  0.10000000000E+01 0.  0.
    9000005    1    3    3    0    0 -0.15162533693E+02 -0.52622500503E+02 -0.60108854978E+03  0.60357888852E+03  0.10000000000E+01 0.  0.
<mgrwt>
<rscale>  0 0.12501428E+03</rscale>
<asrwt>0</asrwt>
<pdfrwt beam="1">  1        4 0.73940055E-03 0.12501428E+03</pdfrwt>
<pdfrwt beam="2">  1       -4 0.12506988E+00 0.12501428E+03</pdfrwt>
<totfact> 0.37472365E+03</totfact>
</mgrwt>
</event>
<event>
 5    1  0.3282421E-002  0.1250027E+03  0.7818608E-02  0.1235065E+00
         -4   -1    0    0    0  501 -0.00000000000E+00  0.00000000000E+00  0.26715616146E+01  0.29580638027E+01  0.12700000000E+01 0.  1.
          4   -1    0    0  501    0  0.00000000000E+00 -0.00000000000E+00 -0.13875207837E+04  0.13875213650E+04  0.12700000000E+01 0.  1.
         25    2    1    2    0    0  0.00000000000E+00  0.00000000000E+00 -0.13848492221E+04  0.13904794288E+04  0.12500269509E+03 0.  0.
    9000005    1    3    3    0    0 -0.61573024874E+02  0.71491952552E+01 -0.78076449303E+03  0.78322189829E+03  0.10000000000E+01 0.  0.
    9000005    1    3    3    0    0  0.61573024874E+02 -0.71491952552E+01 -0.60408472911E+03  0.60725753048E+03  0.10000000000E+01 0.  0.
<mgrwt>
<rscale>  0 0.12500270E+03</rscale>
<asrwt>0</asrwt>
<pdfrwt beam="2">  1        4 0.21348627E+00 0.12500270E+03</pdfrwt>
<pdfrwt beam="1">  1       -4 0.43309393E-03 0.12500270E+03</pdfrwt>
<totfact> 0.20185045E+03</totfact>
</mgrwt>
</event>
<event>
 5    1  0.3282421E-002  0.1250019E+03  0.7818608E-02  0.1235066E+00
         -4   -1    0    0    0  501 -0.00000000000E+00  0.00000000000E+00  0.12979712440E+02  0.13041696018E+02  0.12700000000E+01 0. -1.
          4   -1    0    0  501    0  0.00000000000E+00 -0.00000000000E+00 -0.30017922491E+03  0.30018191146E+03  0.12700000000E+01 0. -1.
         25    2    1    2    0    0  0.00000000000E+00  0.00000000000E+00 -0.28719951247E+03  0.31322360748E+03  0.12500187326E+03 0.  0.
    9000005    1    3    3    0    0  0.21031024078E+02  0.19525258997E+02 -0.44949551629E+01  0.29064485796E+02  0.10000000000E+01 0.  0.
    9000005    1    3    3    0    0 -0.21031024078E+02 -0.19525258997E+02 -0.28270455731E+03  0.28415912168E+03  0.10000000000E+01 0.  0.
<mgrwt>
<rscale>  0 0.12500187E+03</rscale>
<asrwt>0</asrwt>
<pdfrwt beam="2">  1        4 0.46186388E-01 0.12500187E+03</pdfrwt>
<pdfrwt beam="1">  1       -4 0.20018537E-02 0.12500187E+03</pdfrwt>
<totfact> 0.73966332E+03</totfact>
</mgrwt>
</event>
<event>
 5    1  0.3282421E-002  0.1249980E+03  0.7818608E-02  0.1235072E+00
          4   -1    0    0  501    0  0.00000000000E+00  0.00000000000E+00  0.28733247696E+01  0.31414797837E+01  0.12700000000E+01 0. -1.
         -4   -1    0    0    0  501 -0.00000000000E+00 -0.00000000000E+00 -0.12985679925E+04  0.12985686135E+04  0.12700000000E+01 0. -1.
         25    2    1    2    0    0  0.00000000000E+00  0.00000000000E+00 -0.12956946677E+04  0.13017100933E+04  0.12499798018E+03 0.  0.
    9000005    1    3    3    0    0  0.20324607916E+02  0.55648547694E+02 -0.44080461125E+03  0.44476910397E+03  0.10000000000E+01 0.  0.
    9000005    1    3    3    0    0 -0.20324607916E+02 -0.55648547694E+02 -0.85489005646E+03  0.85694098933E+03  0.10000000000E+01 0.  0.
<mgrwt>
<rscale>  0 0.12499798E+03</rscale>
<asrwt>0</asrwt>
<pdfrwt beam="1">  1        4 0.46272608E-03 0.12499798E+03</pdfrwt>
<pdfrwt beam="2">  1       -4 0.19979992E+00 0.12499798E+03</pdfrwt>
<totfact> 0.22189235E+03</totfact>
</mgrwt>
</event>
<event>
 5    1  0.3282421E-002  0.1250050E+03  0.7818608E-02  0.1235061E+00
          4   -1    0    0  501    0  0.00000000000E+00  0.00000000000E+00  0.51865319799E+03  0.51865475288E+03  0.12700000000E+01 0.  1.
         -4   -1    0    0    0  501 -0.00000000000E+00 -0.00000000000E+00 -0.74770222472E+01  0.75841124521E+01  0.12700000000E+01 0.  1.
         25    2    1    2    0    0  0.00000000000E+00  0.00000000000E+00  0.51117617575E+03  0.52623886534E+03  0.12500504286E+03 0.  0.
    9000005    1    3    3    0    0  0.46233232706E+02 -0.39737960608E+02  0.19772169903E+03  0.20690937047E+03  0.10000000000E+01 0.  0.
    9000005    1    3    3    0    0 -0.46233232706E+02  0.39737960608E+02  0.31345447671E+03  0.31932949487E+03  0.10000000000E+01 0.  0.
<mgrwt>
<rscale>  0 0.12500504E+03</rscale>
<asrwt>0</asrwt>
<pdfrwt beam="1">  1        4 0.79801190E-01 0.12500504E+03</pdfrwt>
<pdfrwt beam="2">  1       -4 0.11586679E-02 0.12500504E+03</pdfrwt>
<totfact> 0.53878529E+03</totfact>
</mgrwt>
</event>
<event>
 5    1  0.3282421E-002  0.1250030E+03  0.7818608E-02  0.1235065E+00
          4   -1    0    0  501    0  0.00000000000E+00  0.00000000000E+00  0.39063004075E+02  0.39083643476E+02  0.12700000000E+01 0.  1.
         -4   -1    0    0    0  501 -0.00000000000E+00 -0.00000000000E+00 -0.99952412894E+02  0.99960480907E+02  0.12700000000E+01 0.  1.
         25    2    1    2    0    0  0.00000000000E+00  0.00000000000E+00 -0.60889408818E+02  0.13904412438E+03  0.12500299364E+03 0.  0.
    9000005    1    3    3    0    0 -0.23158327411E+02 -0.23936076294E+02 -0.89263458023E+02  0.95279634839E+02  0.10000000000E+01 0.  0.
    9000005    1    3    3    0    0  0.23158327411E+02  0.23936076294E+02  0.28374049205E+02  0.43764489545E+02  0.10000000000E+01 0.  0.
<mgrwt>
<rscale>  0 0.12500299E+03</rscale>
<asrwt>0</asrwt>
<pdfrwt beam="1">  1        4 0.60119012E-02 0.12500299E+03</pdfrwt>
<pdfrwt beam="2">  1       -4 0.15379502E-01 0.12500299E+03</pdfrwt>
<totfact> 0.10152750E+04</totfact>
</mgrwt>
</event>
<event>
 5    1  0.3282421E-002  0.1249905E+03  0.7818608E-02  0.1235084E+00
          4   -1    0    0  501    0  0.00000000000E+00  0.00000000000E+00  0.13392152363E+03  0.13392754531E+03  0.12700000000E+01 0.  1.
         -4   -1    0    0    0  501 -0.00000000000E+00 -0.00000000000E+00 -0.29143272512E+02  0.29170931297E+02  0.12700000000E+01 0.  1.
         25    2    1    2    0    0  0.00000000000E+00  0.00000000000E+00  0.10477825112E+03  0.16309847660E+03  0.12499052429E+03 0.  0.
    9000005    1    3    3    0    0 -0.57173821962E+02 -0.12418700441E+02  0.81025005410E+02  0.99945592900E+02  0.10000000000E+01 0.  0.
    9000005    1    3    3    0    0  0.57173821962E+02  0.12418700441E+02  0.23753245710E+02  0.63152883705E+02  0.10000000000E+01 0.  0.
<mgrwt>
<rscale>  0 0.12499052E+03</rscale>
<asrwt>0</asrwt>
<pdfrwt beam="1">  1        4 0.20605902E-01 0.12499052E+03</pdfrwt>
<pdfrwt beam="2">  1       -4 0.44861712E-02 0.12499052E+03</pdfrwt>
<totfact> 0.96769329E+03</totfact>
</mgrwt>
</event>
<event>
 5    1  0.3282421E-002  0.1250034E+03  0.7818608E-02  0.1235064E+00
         -4   -1    0    0    0  501 -0.00000000000E+00  0.00000000000E+00  0.22362091568E+02  0.22398125798E+02  0.12700000000E+01 0. -1.
          4   -1    0    0  501    0  0.00000000000E+00 -0.00000000000E+00 -0.17451230666E+03  0.17451692776E+03  0.12700000000E+01 0. -1.
         25    2    1    2    0    0  0.00000000000E+00  0.00000000000E+00 -0.15215021509E+03  0.19691505356E+03  0.12500340142E+03 0.  0.
    9000005    1    3    3    0    0  0.13242014154E+02 -0.54105132735E+02 -0.31443119309E+02  0.63971760012E+02  0.10000000000E+01 0.  0.
    9000005    1    3    3    0    0 -0.13242014154E+02  0.54105132735E+02 -0.12070709578E+03  0.13294329355E+03  0.10000000000E+01 0.  0.
<mgrwt>
<rscale>  0 0.12500340E+03</rscale>
<asrwt>0</asrwt>
<pdfrwt beam="2">  1        4 0.26851174E-01 0.12500340E+03</pdfrwt>
<pdfrwt beam="1">  1       -4 0.34434492E-02 0.12500340E+03</pdfrwt>
<totfact> 0.90650942E+03</totfact>
</mgrwt>
</event>
<event>
 5    1  0.3282421E-002  0.1250002E+03  0.7818608E-02  0.1235069E+00
         -4   -1    0    0    0  501 -0.00000000000E+00  0.00000000000E+00  0.80155784158E+02  0.80165844559E+02  0.12700000000E+01 0.  1.
          4   -1    0    0  501    0  0.00000000000E+00 -0.00000000000E+00 -0.48711980762E+02  0.48728533425E+02  0.12700000000E+01 0.  1.
         25    2    1    2    0    0  0.00000000000E+00  0.00000000000E+00  0.31443803396E+02  0.12889437798E+03  0.12500019162E+03 0.  0.
    9000005    1    3    3    0    0 -0.22792418419E+01  0.17212454466E+02  0.77623739505E+02  0.79548151876E+02  0.10000000000E+01 0.  0.
    9000005    1    3    3    0    0  0.22792418419E+01 -0.17212454466E+02 -0.46179936109E+02  0.49346226108E+02  0.10000000000E+01 0.  0.
<mgrwt>
<rscale>  0 0.12500019E+03</rscale>
<asrwt>0</asrwt>
<pdfrwt beam="2">  1        4 0.74961981E-02 0.12500019E+03</pdfrwt>
<pdfrwt beam="1">  1       -4 0.12333706E-01 0.12500019E+03</pdfrwt>
<totfact> 0.10368172E+04</totfact>
</mgrwt>
</event>
<event>
 5    1  0.3282421E-002  0.1249982E+03  0.7818608E-02  0.1235072E+00
         -4   -1    0    0    0  501 -0.00000000000E+00  0.00000000000E+00  0.50420786118E+02  0.50436777977E+02  0.12700000000E+01 0.  1.
          4   -1    0    0  501    0  0.00000000000E+00 -0.00000000000E+00 -0.77437268142E+02  0.77447681678E+02  0.12700000000E+01 0.  1.
         25    2    1    2    0    0  0.00000000000E+00  0.00000000000E+00 -0.27016482024E+02  0.12788445966E+03  0.12499817887E+03 0.  0.
    9000005    1    3    3    0    0 -0.56494391400E+02 -0.24901133908E+02 -0.36178887991E+01  0.61852824098E+02  0.10000000000E+01 0.  0.
    9000005    1    3    3    0    0  0.56494391400E+02  0.24901133908E+02 -0.23398593225E+02  0.66031635557E+02  0.10000000000E+01 0.  0.
<mgrwt>
<rscale>  0 0.12499818E+03</rscale>
<asrwt>0</asrwt>
<pdfrwt beam="2">  1        4 0.11915457E-01 0.12499818E+03</pdfrwt>
<pdfrwt beam="1">  1       -4 0.77590752E-02 0.12499818E+03</pdfrwt>
<totfact> 0.10390411E+04</totfact>
</mgrwt>
</event>
<event>
 5    1  0.3282421E-002  0.1249990E+03  0.7818608E-02  0.1235071E+00
         -4   -1    0    0    0  501 -0.00000000000E+00  0.00000000000E+00  0.15131246421E+03  0.15131779381E+03  0.12700000000E+01 0. -1.
          4   -1    0    0  501    0  0.00000000000E+00 -0.00000000000E+00 -0.25793983094E+02  0.25825229212E+02  0.12700000000E+01 0. -1.
         25    2    1    2    0    0  0.00000000000E+00  0.00000000000E+00  0.12551848111E+03  0.17714302302E+03  0.12499904602E+03 0.  0.
    9000005    1    3    3    0    0 -0.71171131872E+01  0.21666344091E+02 -0.19693202588E+02  0.30148067841E+02  0.10000000000E+01 0.  0.
    9000005    1    3    3    0    0  0.71171131872E+01 -0.21666344091E+02  0.14521168370E+03  0.14699495518E+03  0.10000000000E+01 0.  0.
<mgrwt>
<rscale>  0 0.12499905E+03</rscale>
<asrwt>0</asrwt>
<pdfrwt beam="2">  1        4 0.39711186E-02 0.12499905E+03</pdfrwt>
<pdfrwt beam="1">  1       -4 0.23281654E-01 0.12499905E+03</pdfrwt>
<totfact> 0.94135824E+03</totfact>
</mgrwt>
</event>
<event>
 5    1  0.3282421E-002  0.1250005E+03  0.7818608E-02  0.1235068E+00
         -4   -1    0    0    0  501 -0.00000000000E+00  0.00000000000E+00  0.37735688980E+01  0.39815477177E+01  0.12700000000E+01 0.  1.
          4   -1    0    0  501    0  0.00000000000E+00 -0.00000000000E+00 -0.10071996629E+04  0.10072004636E+04  0.12700000000E+01 0.  1.
         25    2    1    2    0    0  0.00000000000E+00  0.00000000000E+00 -0.10034260940E+04  0.10111820113E+04  0.12500053543E+03 0.  0.
    9000005    1    3    3    0    0  0.11864758989E+02  0.39610444322E+02 -0.88075433791E+03  0.88172499316E+03  0.10000000000E+01 0.  0.
    9000005    1    3    3    0    0 -0.11864758989E+02 -0.39610444322E+02 -0.12267175609E+03  0.12945701815E+03  0.10000000000E+01 0.  0.
<mgrwt>
<rscale>  0 0.12500054E+03</rscale>
<asrwt>0</asrwt>
<pdfrwt beam="2">  1        4 0.15496965E+00 0.12500054E+03</pdfrwt>
<pdfrwt beam="1">  1       -4 0.59660983E-03 0.12500054E+03</pdfrwt>
<totfact> 0.30237782E+03</totfact>
</mgrwt>
</event>
<event>
 5    1  0.3282421E-002  0.1250024E+03  0.7818608E-02  0.1235065E+00
          4   -1    0    0  501    0  0.00000000000E+00  0.00000000000E+00  0.33526542102E+02  0.33550587555E+02  0.12700000000E+01 0. -1.
         -4   -1    0    0    0  501 -0.00000000000E+00 -0.00000000000E+00 -0.11644743035E+03  0.11645435559E+03  0.12700000000E+01 0. -1.
         25    2    1    2    0    0  0.00000000000E+00  0.00000000000E+00 -0.82920888250E+02  0.15000494314E+03  0.12500243701E+03 0.  0.
    9000005    1    3    3    0    0  0.34011255028E+02 -0.51780245194E+02 -0.51315423153E+02  0.80450182811E+02  0.10000000000E+01 0.  0.
    9000005    1    3    3    0    0 -0.34011255028E+02  0.51780245194E+02 -0.31605465097E+02  0.69554760333E+02  0.10000000000E+01 0.  0.
<mgrwt>
<rscale>  0 0.12500244E+03</rscale>
<asrwt>0</asrwt>
<pdfrwt beam="1">  1        4 0.51603120E-02 0.12500244E+03</pdfrwt>
<pdfrwt beam="2">  1       -4 0.17917371E-01 0.12500244E+03</pdfrwt>
<totfact> 0.99297266E+03</totfact>
</mgrwt>
</event>
<event>
 5    1  0.3282421E-002  0.1250004E+03  0.7818608E-02  0.1235069E+00
         -4   -1    0    0    0  501 -0.00000000000E+00  0.00000000000E+00  0.27209974482E+03  0.27210270861E+03  0.12700000000E+01 0. -1.
          4   -1    0    0  501    0  0.00000000000E+00 -0.00000000000E+00 -0.14324916038E+02  0.14381102861E+02  0.12700000000E+01 0. -1.
         25    2    1    2    0    0  0.00000000000E+00  0.00000000000E+00  0.25777482878E+03  0.28648381147E+03  0.12500044752E+03 0.  0.
    9000005    1    3    3    0    0  0.75501130476E+01 -0.38819932232E+02  0.17991432596E+02  0.43458980572E+02  0.10000000000E+01 0.  0.
    9000005    1    3    3    0    0 -0.75501130476E+01  0.38819932232E+02  0.23978339619E+03  0.24302483090E+03  0.10000000000E+01 0.  0.
<mgrwt>
<rscale>  0 0.12500045E+03</rscale>
<asrwt>0</asrwt>
<pdfrwt beam="2">  1        4 0.22083834E-02 0.12500045E+03</pdfrwt>
<pdfrwt beam="1">  1       -4 0.41866047E-01 0.12500045E+03</pdfrwt>
<totfact> 0.77325411E+03</totfact>
</mgrwt>
</event>
<event>
 5    1  0.3282421E-002  0.1250040E+03  0.7818608E-02  0.1235063E+00
         -4   -1    0    0    0  501 -0.00000000000E+00  0.00000000000E+00  0.58483880769E+03  0.58484018662E+03  0.12700000000E+01 0.  1.
          4   -1    0    0  501    0  0.00000000000E+00 -0.00000000000E+00 -0.66178484808E+01  0.67386065707E+01  0.12700000000E+01 0.  1.
         25    2    1    2    0    0  0.00000000000E+00  0.00000000000E+00  0.57822095921E+03  0.59157879319E+03  0.12500396345E+03 0.  0.
    9000005    1    3    3    0    0  0.53046018814E+02  0.32703277510E+02  0.31136483814E+03  0.31754125228E+03  0.10000000000E+01 0.  0.
    9000005    1    3    3    0    0 -0.53046018814E+02 -0.32703277510E+02  0.26685612108E+03  0.27403754091E+03  0.10000000000E+01 0.  0.
<mgrwt>
<rscale>  0 0.12500396E+03</rscale>
<asrwt>0</asrwt>
<pdfrwt beam="2">  1        4 0.10275253E-02 0.12500396E+03</pdfrwt>
<pdfrwt beam="1">  1       -4 0.89984626E-01 0.12500396E+03</pdfrwt>
<totfact> 0.49399226E+03</totfact>
</mgrwt>
</event>
<event>
 5    1  0.3282421E-002  0.1249964E+03  0.7818608E-02  0.1235075E+00
          4   -1    0    0  501    0  0.00000000000E+00  0.00000000000E+00  0.15369796215E+03  0.15370320904E+03  0.12700000000E+01 0. -1.
         -4   -1    0    0    0  501 -0.00000000000E+00 -0.00000000000E+00 -0.25392106737E+02  0.25423846769E+02  0.12700000000E+01 0. -1.
         25    2    1    2    0    0  0.00000000000E+00  0.00000000000E+00  0.12830585541E+03  0.17912705581E+03  0.12499643831E+03 0.  0.
    9000005    1    3    3    0    0  0.48254847652E+02  0.39704205791E+02  0.63765424088E+02  0.89285965238E+02  0.10000000000E+01 0.  0.
    9000005    1    3    3    0    0 -0.48254847652E+02 -0.39704205791E+02  0.64540431325E+02  0.89841090571E+02  0.10000000000E+01 0.  0.
<mgrwt>
<rscale>  0 0.12499644E+03</rscale>
<asrwt>0</asrwt>
<pdfrwt beam="1">  1        4 0.23648685E-01 0.12499644E+03</pdfrwt>
<pdfrwt beam="2">  1       -4 0.39093232E-02 0.12499644E+03</pdfrwt>
<totfact> 0.93781862E+03</totfact>
</mgrwt>
</event>
<event>
 5    1  0.3282421E-002  0.1250044E+03  0.7818608E-02  0.1235062E+00
          4   -1    0    0  501    0  0.00000000000E+00  0.00000000000E+00  0.28323916660E+04  0.28323919507E+04  0.12700000000E+01 0.  1.
         -4   -1    0    0    0  501 -0.00000000000E+00 -0.00000000000E+00 -0.10865327673E+01  0.16713627537E+01  0.12700000000E+01 0.  1.
         25    2    1    2    0    0  0.00000000000E+00  0.00000000000E+00  0.28313051332E+04  0.28340633135E+04  0.12500442924E+03 0.  0.
    9000005    1    3    3    0    0  0.28770848457E+02 -0.53166517887E+02  0.10564033603E+04  0.10581320806E+04  0.10000000000E+01 0.  0.
    9000005    1    3    3    0    0 -0.28770848457E+02  0.53166517887E+02  0.17749017729E+04  0.17759312329E+04  0.10000000000E+01 0.  0.
<mgrwt>
<rscale>  0 0.12500443E+03</rscale>
<asrwt>0</asrwt>
<pdfrwt beam="1">  1        4 0.43579249E+00 0.12500443E+03</pdfrwt>
<pdfrwt beam="2">  1       -4 0.21217018E-03 0.12500443E+03</pdfrwt>
<totfact> 0.25436898E+02</totfact>
</mgrwt>
</event>
<event>
 5    1  0.3282421E-002  0.1249963E+03  0.7818608E-02  0.1235075E+00
          4   -1    0    0  501    0  0.00000000000E+00  0.00000000000E+00  0.15261344274E+03  0.15261872691E+03  0.12700000000E+01 0.  1.
         -4   -1    0    0    0  501 -0.00000000000E+00 -0.00000000000E+00 -0.25572709752E+02  0.25604225902E+02  0.12700000000E+01 0.  1.
         25    2    1    2    0    0  0.00000000000E+00  0.00000000000E+00  0.12704073299E+03  0.17822295282E+03  0.12499629223E+03 0.  0.
    9000005    1    3    3    0    0 -0.53017269723E+02  0.87978354267E+00  0.11066786899E+03  0.12271911886E+03  0.10000000000E+01 0.  0.
    9000005    1    3    3    0    0  0.53017269723E+02 -0.87978354267E+00  0.16372863998E+02  0.55503833952E+02  0.10000000000E+01 0.  0.
<mgrwt>
<rscale>  0 0.12499629E+03</rscale>
<asrwt>0</asrwt>
<pdfrwt beam="1">  1        4 0.23481822E-01 0.12499629E+03</pdfrwt>
<pdfrwt beam="2">  1       -4 0.39370939E-02 0.12499629E+03</pdfrwt>
<totfact> 0.93945670E+03</totfact>
</mgrwt>
</event>
<event>
 5    1  0.3282421E-002  0.1249989E+03  0.7818608E-02  0.1235071E+00
          4   -1    0    0  501    0  0.00000000000E+00  0.00000000000E+00  0.17546935904E+01  0.21660677728E+01  0.12700000000E+01 0. -1.
         -4   -1    0    0    0  501 -0.00000000000E+00 -0.00000000000E+00 -0.19921514206E+04  0.19921518254E+04  0.12700000000E+01 0. -1.
         25    2    1    2    0    0  0.00000000000E+00  0.00000000000E+00 -0.19903967270E+04  0.19943178932E+04  0.12499891277E+03 0.  0.
    9000005    1    3    3    0    0 -0.57296879278E+01 -0.19809253388E+02 -0.19363821030E+04  0.19364921598E+04  0.10000000000E+01 0.  0.
    9000005    1    3    3    0    0  0.57296879278E+01  0.19809253388E+02 -0.54014623966E+02  0.57825733422E+02  0.10000000000E+01 0.  0.
<mgrwt>
<rscale>  0 0.12499891E+03</rscale>
<asrwt>0</asrwt>
<pdfrwt beam="1">  1        4 0.30162976E-03 0.12499891E+03</pdfrwt>
<pdfrwt beam="2">  1       -4 0.30651489E+00 0.12499891E+03</pdfrwt>
<totfact> 0.99359396E+02</totfact>
</mgrwt>
</event>
<event>
 5    1  0.3282421E-002  0.1250015E+03  0.7818608E-02  0.1235067E+00
          4   -1    0    0  501    0  0.00000000000E+00  0.00000000000E+00  0.38526918469E+02  0.38547844903E+02  0.12700000000E+01 0.  1.
         -4   -1    0    0    0  501 -0.00000000000E+00 -0.00000000000E+00 -0.10134011117E+03  0.10134806872E+03  0.12700000000E+01 0.  1.
         25    2    1    2    0    0  0.00000000000E+00  0.00000000000E+00 -0.62813192703E+02  0.13989591362E+03  0.12500147787E+03 0.  0.
    9000005    1    3    3    0    0 -0.53147418474E+02 -0.31679212104E+02 -0.21578295260E+02  0.65535054713E+02  0.10000000000E+01 0.  0.
    9000005    1    3    3    0    0  0.53147418474E+02  0.31679212104E+02 -0.41234897443E+02  0.74360858905E+02  0.10000000000E+01 0.  0.
<mgrwt>
<rscale>  0 0.12500148E+03</rscale>
<asrwt>0</asrwt>
<pdfrwt beam="1">  1        4 0.59294401E-02 0.12500148E+03</pdfrwt>
<pdfrwt beam="2">  1       -4 0.15593008E-01 0.12500148E+03</pdfrwt>
<totfact> 0.10135406E+04</totfact>
</mgrwt>
</event>
<event>
 5    1  0.3282421E-002  0.1249987E+03  0.7818608E-02  0.1235071E+00
         -4   -1    0    0    0  501 -0.00000000000E+00  0.00000000000E+00  0.14161017911E+02  0.14217852449E+02  0.12700000000E+01 0. -1.
          4   -1    0    0  501    0  0.00000000000E+00 -0.00000000000E+00 -0.27522888339E+03  0.27523181348E+03  0.12700000000E+01 0. -1.
         25    2    1    2    0    0  0.00000000000E+00  0.00000000000E+00 -0.26106786548E+03  0.28944966593E+03  0.12499871488E+03 0.  0.
    9000005    1    3    3    0    0 -0.29304131235E+02  0.41826956262E+02 -0.47141239483E+02  0.69509156502E+02  0.10000000000E+01 0.  0.
    9000005    1    3    3    0    0  0.29304131235E+02 -0.41826956262E+02 -0.21392662600E+03  0.21994050943E+03  0.10000000000E+01 0.  0.
<mgrwt>
<rscale>  0 0.12499871E+03</rscale>
<asrwt>0</asrwt>
<pdfrwt beam="2">  1        4 0.42347499E-01 0.12499871E+03</pdfrwt>
<pdfrwt beam="1">  1       -4 0.21832156E-02 0.12499871E+03</pdfrwt>
<totfact> 0.76943801E+03</totfact>
</mgrwt>
</event>
<event>
 5    1  0.3282421E-002  0.1249930E+03  0.7818608E-02  0.1235080E+00
          4   -1    0    0  501    0  0.00000000000E+00  0.00000000000E+00  0.63634092594E+02  0.63646764570E+02  0.12700000000E+01 0. -1.
         -4   -1    0    0    0  501 -0.00000000000E+00 -0.00000000000E+00 -0.61353922964E+02  0.61367065785E+02  0.12700000000E+01 0. -1.
         25    2    1    2    0    0  0.00000000000E+00  0.00000000000E+00  0.22801696297E+01  0.12501383036E+03  0.12499303423E+03 0.  0.
    9000005    1    3    3    0    0 -0.45175249896E+02  0.57394263000E+01 -0.41658043480E+02  0.61726305608E+02  0.10000000000E+01 0.  0.
    9000005    1    3    3    0    0  0.45175249896E+02 -0.57394263000E+01  0.43938213110E+02  0.63287524748E+02  0.10000000000E+01 0.  0.
<mgrwt>
<rscale>  0 0.12499303E+03</rscale>
<asrwt>0</asrwt>
<pdfrwt beam="1">  1        4 0.97918461E-02 0.12499303E+03</pdfrwt>
<pdfrwt beam="2">  1       -4 0.94410509E-02 0.12499303E+03</pdfrwt>
<totfact> 0.10454208E+04</totfact>
</mgrwt>
</event>
<event>
 5    1  0.3282421E-002  0.1250016E+03  0.7818608E-02  0.1235067E+00
          4   -1    0    0  501    0  0.00000000000E+00  0.00000000000E+00  0.13288800967E+02  0.13349349465E+02  0.12700000000E+01 0.  1.
         -4   -1    0    0    0  501 -0.00000000000E+00 -0.00000000000E+00 -0.29322798368E+03  0.29323073392E+03  0.12700000000E+01 0.  1.
         25    2    1    2    0    0  0.00000000000E+00  0.00000000000E+00 -0.27993918271E+03  0.30658008338E+03  0.12500160602E+03 0.  0.
    9000005    1    3    3    0    0 -0.53915070210E+02 -0.14276069240E+02 -0.20911009327E+03  0.21642243889E+03  0.10000000000E+01 0.  0.
    9000005    1    3    3    0    0  0.53915070210E+02  0.14276069240E+02 -0.70829089448E+02  0.90157644494E+02  0.10000000000E+01 0.  0.
<mgrwt>
<rscale>  0 0.12500161E+03</rscale>
<asrwt>0</asrwt>
<pdfrwt beam="1">  1        4 0.20493003E-02 0.12500161E+03</pdfrwt>
<pdfrwt beam="2">  1       -4 0.45116862E-01 0.12500161E+03</pdfrwt>
<totfact> 0.74778126E+03</totfact>
</mgrwt>
</event>
<event>
 5    1  0.3282421E-002  0.1249971E+03  0.7818608E-02  0.1235074E+00
          4   -1    0    0  501    0  0.00000000000E+00  0.00000000000E+00  0.49975083859E+02  0.49991218296E+02  0.12700000000E+01 0.  1.
         -4   -1    0    0    0  501 -0.00000000000E+00 -0.00000000000E+00 -0.78126451798E+02  0.78136773484E+02  0.12700000000E+01 0.  1.
         25    2    1    2    0    0  0.00000000000E+00  0.00000000000E+00 -0.28151367939E+02  0.12812799178E+03  0.12499713101E+03 0.  0.
    9000005    1    3    3    0    0 -0.63360550943E-01  0.49502702859E+02 -0.53169509013E+02  0.72653412127E+02  0.10000000000E+01 0.  0.
    9000005    1    3    3    0    0  0.63360550943E-01 -0.49502702859E+02  0.25018141074E+02  0.55474579653E+02  0.10000000000E+01 0.  0.
<mgrwt>
<rscale>  0 0.12499713E+03</rscale>
<asrwt>0</asrwt>
<pdfrwt beam="1">  1        4 0.76905096E-02 0.12499713E+03</pdfrwt>
<pdfrwt beam="2">  1       -4 0.12021489E-01 0.12499713E+03</pdfrwt>
<totfact> 0.10385397E+04</totfact>
</mgrwt>
</event>
<event>
 5    1  0.3282421E-002  0.1250067E+03  0.7818608E-02  0.1235059E+00
          4   -1    0    0  501    0  0.00000000000E+00  0.00000000000E+00  0.41290580553E+03  0.41290775863E+03  0.12700000000E+01 0. -1.
         -4   -1    0    0    0  501 -0.00000000000E+00 -0.00000000000E+00 -0.94167987457E+01  0.95020523371E+01  0.12700000000E+01 0. -1.
         25    2    1    2    0    0  0.00000000000E+00  0.00000000000E+00  0.40348900678E+03  0.42240981097E+03  0.12500667906E+03 0.  0.
    9000005    1    3    3    0    0  0.66749192879E+01  0.11003067020E+02  0.40839631511E+03  0.40860025970E+03  0.10000000000E+01 0.  0.
    9000005    1    3    3    0    0 -0.66749192879E+01 -0.11003067020E+02 -0.49073083251E+01  0.13809551272E+02  0.10000000000E+01 0.  0.
<mgrwt>
<rscale>  0 0.12500668E+03</rscale>
<asrwt>0</asrwt>
<pdfrwt beam="1">  1        4 0.63530680E-01 0.12500668E+03</pdfrwt>
<pdfrwt beam="2">  1       -4 0.14554464E-02 0.12500668E+03</pdfrwt>
<totfact> 0.62420875E+03</totfact>
</mgrwt>
</event>
<event>
 5    1  0.3282421E-002  0.1250002E+03  0.7818608E-02  0.1235069E+00
         -4   -1    0    0    0  501 -0.00000000000E+00  0.00000000000E+00  0.49633443879E+02  0.49649689337E+02  0.12700000000E+01 0.  1.
          4   -1    0    0  501    0  0.00000000000E+00 -0.00000000000E+00 -0.78667975427E+02  0.78678226071E+02  0.12700000000E+01 0.  1.
         25    2    1    2    0    0  0.00000000000E+00  0.00000000000E+00 -0.29034531548E+02  0.12832791541E+03  0.12500019940E+03 0.  0.
    9000005    1    3    3    0    0 -0.39533082646E+02 -0.29778870187E+02 -0.53685496364E+02  0.73025873860E+02  0.10000000000E+01 0.  0.
    9000005    1    3    3    0    0  0.39533082646E+02  0.29778870187E+02  0.24650964816E+02  0.55302041549E+02  0.10000000000E+01 0.  0.
<mgrwt>
<rscale>  0 0.12500020E+03</rscale>
<asrwt>0</asrwt>
<pdfrwt beam="2">  1        4 0.12104804E-01 0.12500020E+03</pdfrwt>
<pdfrwt beam="1">  1       -4 0.76379526E-02 0.12500020E+03</pdfrwt>
<totfact> 0.10380365E+04</totfact>
</mgrwt>
</event>
<event>
 5    1  0.3282421E-002  0.1250114E+03  0.7818608E-02  0.1235051E+00
          4   -1    0    0  501    0  0.00000000000E+00  0.00000000000E+00  0.42326155948E+02  0.42345204892E+02  0.12700000000E+01 0.  1.
         -4   -1    0    0    0  501 -0.00000000000E+00 -0.00000000000E+00 -0.92261917610E+02  0.92270658072E+02  0.12700000000E+01 0.  1.
         25    2    1    2    0    0  0.00000000000E+00  0.00000000000E+00 -0.49935761662E+02  0.13461586296E+03  0.12501140056E+03 0.  0.
    9000005    1    3    3    0    0  0.51215941485E+02 -0.35490606363E+02 -0.19769266290E+02  0.65379505136E+02  0.10000000000E+01 0.  0.
    9000005    1    3    3    0    0 -0.51215941485E+02  0.35490606363E+02 -0.30166495372E+02  0.69236357828E+02  0.10000000000E+01 0.  0.
<mgrwt>
<rscale>  0 0.12501140E+03</rscale>
<asrwt>0</asrwt>
<pdfrwt beam="1">  1        4 0.65138540E-02 0.12501140E+03</pdfrwt>
<pdfrwt beam="2">  1       -4 0.14196279E-01 0.12501140E+03</pdfrwt>
<totfact> 0.10243540E+04</totfact>
</mgrwt>
</event>
<event>
 5    1  0.3282421E-002  0.1250018E+03  0.7818608E-02  0.1235067E+00
         -4   -1    0    0    0  501 -0.00000000000E+00  0.00000000000E+00  0.32550860768E+02  0.32575626422E+02  0.12700000000E+01 0. -1.
          4   -1    0    0  501    0  0.00000000000E+00 -0.00000000000E+00 -0.11993410930E+03  0.11994083322E+03  0.12700000000E+01 0. -1.
         25    2    1    2    0    0  0.00000000000E+00  0.00000000000E+00 -0.87383248529E+02  0.15251645964E+03  0.12500175334E+03 0.  0.
    9000005    1    3    3    0    0  0.39962317042E+02  0.40794832851E+02 -0.12724875961E+02  0.58516045996E+02  0.10000000000E+01 0.  0.
    9000005    1    3    3    0    0 -0.39962317042E+02 -0.40794832851E+02 -0.74658372568E+02  0.94000413644E+02  0.10000000000E+01 0.  0.
<mgrwt>
<rscale>  0 0.12500175E+03</rscale>
<asrwt>0</asrwt>
<pdfrwt beam="2">  1        4 0.18453823E-01 0.12500175E+03</pdfrwt>
<pdfrwt beam="1">  1       -4 0.50102471E-02 0.12500175E+03</pdfrwt>
<totfact> 0.98800527E+03</totfact>
</mgrwt>
</event>
<event>
 5    1  0.3282421E-002  0.1250026E+03  0.7818608E-02  0.1235065E+00
          4   -1    0    0  501    0  0.00000000000E+00  0.00000000000E+00  0.14155561684E+03  0.14156131378E+03  0.12700000000E+01 0. -1.
         -4   -1    0    0    0  501 -0.00000000000E+00 -0.00000000000E+00 -0.27575425465E+02  0.27604655216E+02  0.12700000000E+01 0. -1.
         25    2    1    2    0    0  0.00000000000E+00  0.00000000000E+00  0.11398019138E+03  0.16916596900E+03  0.12500256414E+03 0.  0.
    9000005    1    3    3    0    0 -0.39276617668E+02 -0.48493367557E+02  0.61509158848E+02  0.87627826714E+02  0.10000000000E+01 0.  0.
    9000005    1    3    3    0    0  0.39276617668E+02  0.48493367557E+02  0.52471032532E+02  0.81538142286E+02  0.10000000000E+01 0.  0.
<mgrwt>
<rscale>  0 0.12500256E+03</rscale>
<asrwt>0</asrwt>
<pdfrwt beam="1">  1        4 0.21780474E-01 0.12500256E+03</pdfrwt>
<pdfrwt beam="2">  1       -4 0.42450598E-02 0.12500256E+03</pdfrwt>
<totfact> 0.95598684E+03</totfact>
</mgrwt>
</event>
<event>
 5    1  0.3282421E-002  0.1250012E+03  0.7818608E-02  0.1235067E+00
         -4   -1    0    0    0  501 -0.00000000000E+00  0.00000000000E+00  0.79833229527E+01  0.80837086394E+01  0.12700000000E+01 0.  1.
          4   -1    0    0  501    0  0.00000000000E+00 -0.00000000000E+00 -0.48615232495E+03  0.48615398379E+03  0.12700000000E+01 0.  1.
         25    2    1    2    0    0  0.00000000000E+00  0.00000000000E+00 -0.47816900200E+03  0.49423769243E+03  0.12500120858E+03 0.  0.
    9000005    1    3    3    0    0  0.62295218585E+02 -0.18864166263E+00 -0.25869330821E+03  0.26609013052E+03  0.10000000000E+01 0.  0.
    9000005    1    3    3    0    0 -0.62295218585E+02  0.18864166263E+00 -0.21947569378E+03  0.22814756191E+03  0.10000000000E+01 0.  0.
<mgrwt>
<rscale>  0 0.12500121E+03</rscale>
<asrwt>0</asrwt>
<pdfrwt beam="2">  1        4 0.74800492E-01 0.12500121E+03</pdfrwt>
<pdfrwt beam="1">  1       -4 0.12360535E-02 0.12500121E+03</pdfrwt>
<totfact> 0.56312752E+03</totfact>
</mgrwt>
</event>
<event>
 5    1  0.3282421E-002  0.1250011E+03  0.7818608E-02  0.1235068E+00
          4   -1    0    0  501    0  0.00000000000E+00  0.00000000000E+00  0.14571872708E+02  0.14627110932E+02  0.12700000000E+01 0. -1.
         -4   -1    0    0    0  501 -0.00000000000E+00 -0.00000000000E+00 -0.26750881064E+03  0.26751182529E+03  0.12700000000E+01 0. -1.
         25    2    1    2    0    0  0.00000000000E+00  0.00000000000E+00 -0.25293693793E+03  0.28213893622E+03  0.12500113904E+03 0.  0.
    9000005    1    3    3    0    0 -0.46297425679E+02 -0.64234948340E+01 -0.32843851040E+02  0.57135203347E+02  0.10000000000E+01 0.  0.
    9000005    1    3    3    0    0  0.46297425679E+02  0.64234948340E+01 -0.22009308689E+03  0.22500373287E+03  0.10000000000E+01 0.  0.
<mgrwt>
<rscale>  0 0.12500114E+03</rscale>
<asrwt>0</asrwt>
<pdfrwt beam="1">  1        4 0.22463078E-02 0.12500114E+03</pdfrwt>
<pdfrwt beam="2">  1       -4 0.41159679E-01 0.12500114E+03</pdfrwt>
<totfact> 0.77893380E+03</totfact>
</mgrwt>
</event>
<event>
 5    1  0.3282421E-002  0.1249996E+03  0.7818608E-02  0.1235070E+00
         -4   -1    0    0    0  501 -0.00000000000E+00  0.00000000000E+00  0.17198970046E+03  0.17199438933E+03  0.12700000000E+01 0. -1.
          4   -1    0    0  501    0  0.00000000000E+00 -0.00000000000E+00 -0.22689197807E+02  0.22724713356E+02  0.12700000000E+01 0. -1.
         25    2    1    2    0    0  0.00000000000E+00  0.00000000000E+00  0.14930050265E+03  0.19471910269E+03  0.12499955545E+03 0.  0.
    9000005    1    3    3    0    0 -0.52006361556E+02  0.25553951749E+02  0.38198834705E+02  0.69410496793E+02  0.10000000000E+01 0.  0.
    9000005    1    3    3    0    0  0.52006361556E+02 -0.25553951749E+02  0.11110166794E+03  0.12530860590E+03  0.10000000000E+01 0.  0.
<mgrwt>
<rscale>  0 0.12499956E+03</rscale>
<asrwt>0</asrwt>
<pdfrwt beam="2">  1        4 0.34937386E-02 0.12499956E+03</pdfrwt>
<pdfrwt beam="1">  1       -4 0.26463046E-01 0.12499956E+03</pdfrwt>
<totfact> 0.91033535E+03</totfact>
</mgrwt>
</event>
<event>
 5    1  0.3282421E-002  0.1249960E+03  0.7818608E-02  0.1235076E+00
         -4   -1    0    0    0  501 -0.00000000000E+00  0.00000000000E+00  0.23694646074E+02  0.23728656779E+02  0.12700000000E+01 0. -1.
          4   -1    0    0  501    0  0.00000000000E+00 -0.00000000000E+00 -0.16469259533E+03  0.16469749196E+03  0.12700000000E+01 0. -1.
         25    2    1    2    0    0  0.00000000000E+00  0.00000000000E+00 -0.14099794926E+03  0.18842614874E+03  0.12499596727E+03 0.  0.
    9000005    1    3    3    0    0  0.58072423663E+02  0.18654776159E+02 -0.50018014725E+02  0.78887317489E+02  0.10000000000E+01 0.  0.
    9000005    1    3    3    0    0 -0.58072423663E+02 -0.18654776159E+02 -0.90979934536E+02  0.10953883125E+03  0.10000000000E+01 0.  0.
<mgrwt>
<rscale>  0 0.12499597E+03</rscale>
<asrwt>0</asrwt>
<pdfrwt beam="2">  1        4 0.25340315E-01 0.12499597E+03</pdfrwt>
<pdfrwt beam="1">  1       -4 0.36483231E-02 0.12499597E+03</pdfrwt>
<totfact> 0.92130206E+03</totfact>
</mgrwt>
</event>
<event>
 5    1  0.3282421E-002  0.1249999E+03  0.7818608E-02  0.1235069E+00
          4   -1    0    0  501    0  0.00000000000E+00  0.00000000000E+00  0.50584083477E+02  0.50600023728E+02  0.12700000000E+01 0. -1.
         -4   -1    0    0    0  501 -0.00000000000E+00 -0.00000000000E+00 -0.77189431317E+02  0.77199878283E+02  0.12700000000E+01 0. -1.
         25    2    1    2    0    0  0.00000000000E+00  0.00000000000E+00 -0.26605347839E+02  0.12779990201E+03  0.12499988168E+03 0.  0.
    9000005    1    3    3    0    0  0.16852221680E+02 -0.22979005013E+02  0.43559788244E+02  0.52062339544E+02  0.10000000000E+01 0.  0.
    9000005    1    3    3    0    0 -0.16852221680E+02  0.22979005013E+02 -0.70165136083E+02  0.75737562467E+02  0.10000000000E+01 0.  0.
<mgrwt>
<rscale>  0 0.12499988E+03</rscale>
<asrwt>0</asrwt>
<pdfrwt beam="1">  1        4 0.77841965E-02 0.12499988E+03</pdfrwt>
<pdfrwt beam="2">  1       -4 0.11877327E-01 0.12499988E+03</pdfrwt>
<totfact> 0.10391839E+04</totfact>
</mgrwt>
</event>
<event>
 5    1  0.3282421E-002  0.1250007E+03  0.7818608E-02  0.1235068E+00
          4   -1    0    0  501    0  0.00000000000E+00  0.00000000000E+00  0.28117985901E+01  0.30853057079E+01  0.12700000000E+01 0. -1.
         -4   -1    0    0    0  501 -0.00000000000E+00 -0.00000000000E+00 -0.13245436345E+04  0.13245442433E+04  0.12700000000E+01 0. -1.
         25    2    1    2    0    0  0.00000000000E+00  0.00000000000E+00 -0.13217318359E+04  0.13276295490E+04  0.12500069390E+03 0.  0.
    9000005    1    3    3    0    0 -0.16186362254E+02 -0.10804206326E+02 -0.12915914061E+04  0.12917383982E+04  0.10000000000E+01 0.  0.
    9000005    1    3    3    0    0  0.16186362254E+02  0.10804206326E+02 -0.30140429806E+02  0.35891150806E+02  0.10000000000E+01 0.  0.
<mgrwt>
<rscale>  0 0.12500069E+03</rscale>
<asrwt>0</asrwt>
<pdfrwt beam="1">  1        4 0.45367130E-03 0.12500069E+03</pdfrwt>
<pdfrwt beam="2">  1       -4 0.20379655E+00 0.12500069E+03</pdfrwt>
<totfact> 0.21585406E+03</totfact>
</mgrwt>
</event>
<event>
 5    1  0.3282421E-002  0.1250075E+03  0.7818608E-02  0.1235058E+00
          4   -1    0    0  501    0  0.00000000000E+00  0.00000000000E+00  0.16835319318E+04  0.16835324108E+04  0.12700000000E+01 0. -1.
         -4   -1    0    0    0  501 -0.00000000000E+00 -0.00000000000E+00 -0.21462708290E+01  0.24938681744E+01  0.12700000000E+01 0. -1.
         25    2    1    2    0    0  0.00000000000E+00  0.00000000000E+00  0.16813856610E+04  0.16860262790E+04  0.12500748997E+03 0.  0.
    9000005    1    3    3    0    0 -0.28151620072E+02  0.55495706753E+02  0.91867632770E+03  0.92078199497E+03  0.10000000000E+01 0.  0.
    9000005    1    3    3    0    0  0.28151620072E+02 -0.55495706753E+02  0.76270933326E+03  0.76524428402E+03  0.10000000000E+01 0.  0.
<mgrwt>
<rscale>  0 0.12500749E+03</rscale>
<asrwt>0</asrwt>
<pdfrwt beam="1">  1        4 0.25903129E+00 0.12500749E+03</pdfrwt>
<pdfrwt beam="2">  1       -4 0.35697116E-03 0.12500749E+03</pdfrwt>
<totfact> 0.14540046E+03</totfact>
</mgrwt>
</event>
<event>
 5    1  0.3282421E-002  0.1249961E+03  0.7818608E-02  0.1235075E+00
         -4   -1    0    0    0  501 -0.00000000000E+00  0.00000000000E+00  0.63172909811E+02  0.63185674278E+02  0.12700000000E+01 0. -1.
          4   -1    0    0  501    0  0.00000000000E+00 -0.00000000000E+00 -0.61804893131E+02  0.61817940074E+02  0.12700000000E+01 0. -1.
         25    2    1    2    0    0  0.00000000000E+00  0.00000000000E+00  0.13680166799E+01  0.12500361435E+03  0.12499612847E+03 0.  0.
    9000005    1    3    3    0    0 -0.42986101266E+02  0.41865341070E+02 -0.16766860432E+02  0.62310828061E+02  0.10000000000E+01 0.  0.
    9000005    1    3    3    0    0  0.42986101266E+02 -0.41865341070E+02  0.18134877112E+02  0.62692786290E+02  0.10000000000E+01 0.  0.
<mgrwt>
<rscale>  0 0.12499613E+03</rscale>
<asrwt>0</asrwt>
<pdfrwt beam="2">  1        4 0.95104306E-02 0.12499613E+03</pdfrwt>
<pdfrwt beam="1">  1       -4 0.97208947E-02 0.12499613E+03</pdfrwt>
<totfact> 0.10453699E+04</totfact>
</mgrwt>
</event>
<event>
 5    1  0.3282421E-002  0.1250052E+03  0.7818608E-02  0.1235061E+00
          4   -1    0    0  501    0  0.00000000000E+00  0.00000000000E+00  0.28731418960E+03  0.28731699645E+03  0.12700000000E+01 0.  1.
         -4   -1    0    0    0  501 -0.00000000000E+00 -0.00000000000E+00 -0.13564344411E+02  0.13623668349E+02  0.12700000000E+01 0.  1.
         25    2    1    2    0    0  0.00000000000E+00  0.00000000000E+00  0.27374984519E+03  0.30094066480E+03  0.12500522383E+03 0.  0.
    9000005    1    3    3    0    0  0.90680351889E+01 -0.61832292027E+02  0.13605889160E+03  0.14972803205E+03  0.10000000000E+01 0.  0.
    9000005    1    3    3    0    0 -0.90680351889E+01  0.61832292027E+02  0.13769095360E+03  0.15121263275E+03  0.10000000000E+01 0.  0.
<mgrwt>
<rscale>  0 0.12500522E+03</rscale>
<asrwt>0</asrwt>
<pdfrwt beam="1">  1        4 0.44206966E-01 0.12500522E+03</pdfrwt>
<pdfrwt beam="2">  1       -4 0.20916013E-02 0.12500522E+03</pdfrwt>
<totfact> 0.75472239E+03</totfact>
</mgrwt>
</event>
<event>
 5    1  0.3282421E-002  0.1249942E+03  0.7818608E-02  0.1235078E+00
         -4   -1    0    0    0  501 -0.00000000000E+00  0.00000000000E+00  0.25799192782E+02  0.25830432598E+02  0.12700000000E+01 0. -1.
          4   -1    0    0  501    0  0.00000000000E+00 -0.00000000000E+00 -0.15127024326E+03  0.15127557436E+03  0.12700000000E+01 0. -1.
         25    2    1    2    0    0  0.00000000000E+00  0.00000000000E+00 -0.12547105048E+03  0.17710600696E+03  0.12499421263E+03 0.  0.
    9000005    1    3    3    0    0  0.39829029197E+02 -0.37710454981E+02 -0.10515921484E+03  0.11860813820E+03  0.10000000000E+01 0.  0.
    9000005    1    3    3    0    0 -0.39829029197E+02  0.37710454981E+02 -0.20311835640E+02  0.58497868753E+02  0.10000000000E+01 0.  0.
<mgrwt>
<rscale>  0 0.12499421E+03</rscale>
<asrwt>0</asrwt>
<pdfrwt beam="2">  1        4 0.23275158E-01 0.12499421E+03</pdfrwt>
<pdfrwt beam="1">  1       -4 0.39719198E-02 0.12499421E+03</pdfrwt>
<totfact> 0.94152761E+03</totfact>
</mgrwt>
</event>
<event>
 5    1  0.3282421E-002  0.1250017E+03  0.7818608E-02  0.1235067E+00
         -4   -1    0    0    0  501 -0.00000000000E+00  0.00000000000E+00  0.21952443355E+02  0.21989148898E+02  0.12700000000E+01 0. -1.
          4   -1    0    0  501    0  0.00000000000E+00 -0.00000000000E+00 -0.17775874502E+03  0.17776328173E+03  0.12700000000E+01 0. -1.
         25    2    1    2    0    0  0.00000000000E+00  0.00000000000E+00 -0.15580630167E+03  0.19975243063E+03  0.12500171960E+03 0.  0.
    9000005    1    3    3    0    0  0.56348730711E+02 -0.26651779028E+02 -0.70781620378E+02  0.94321442745E+02  0.10000000000E+01 0.  0.
    9000005    1    3    3    0    0 -0.56348730711E+02  0.26651779028E+02 -0.85024681291E+02  0.10543098789E+03  0.10000000000E+01 0.  0.
<mgrwt>
<rscale>  0 0.12500172E+03</rscale>
<asrwt>0</asrwt>
<pdfrwt beam="2">  1        4 0.27350671E-01 0.12500172E+03</pdfrwt>
<pdfrwt beam="1">  1       -4 0.33804716E-02 0.12500172E+03</pdfrwt>
<totfact> 0.90173808E+03</totfact>
</mgrwt>
</event>
<event>
 5    1  0.3282421E-002  0.1250291E+03  0.7818608E-02  0.1235024E+00
          4   -1    0    0  501    0  0.00000000000E+00  0.00000000000E+00  0.12438120692E+02  0.12502789543E+02  0.12700000000E+01 0. -1.
         -4   -1    0    0    0  501 -0.00000000000E+00 -0.00000000000E+00 -0.31332048718E+03  0.31332306105E+03  0.12700000000E+01 0. -1.
         25    2    1    2    0    0  0.00000000000E+00  0.00000000000E+00 -0.30088236649E+03  0.32582585060E+03  0.12502914241E+03 0.  0.
    9000005    1    3    3    0    0  0.25418412389E+02  0.28158726151E+02 -0.20976198677E+02  0.43359087372E+02  0.10000000000E+01 0.  0.
    9000005    1    3    3    0    0 -0.25418412389E+02 -0.28158726151E+02 -0.27990616781E+03  0.28246676322E+03  0.10000000000E+01 0.  0.
<mgrwt>
<rscale>  0 0.12502914E+03</rscale>
<asrwt>0</asrwt>
<pdfrwt beam="1">  1        4 0.19187298E-02 0.12502914E+03</pdfrwt>
<pdfrwt beam="2">  1       -4 0.48208318E-01 0.12502914E+03</pdfrwt>
<totfact> 0.72421757E+03</totfact>
</mgrwt>
</event>
<event>
 5    1  0.3282421E-002  0.1249957E+03  0.7818608E-02  0.1235076E+00
          4   -1    0    0  501    0  0.00000000000E+00  0.00000000000E+00  0.22523708117E+03  0.22524066159E+03  0.12700000000E+01 0.  1.
         -4   -1    0    0    0  501 -0.00000000000E+00 -0.00000000000E+00 -0.17314667131E+02  0.17361180774E+02  0.12700000000E+01 0.  1.
         25    2    1    2    0    0  0.00000000000E+00  0.00000000000E+00  0.20792241404E+03  0.24260184237E+03  0.12499569456E+03 0.  0.
    9000005    1    3    3    0    0  0.51483743155E+02  0.29521350904E+02  0.14193979883E+03  0.15385055236E+03  0.10000000000E+01 0.  0.
    9000005    1    3    3    0    0 -0.51483743155E+02 -0.29521350904E+02  0.65982615210E+02  0.88751290009E+02  0.10000000000E+01 0.  0.
<mgrwt>
<rscale>  0 0.12499569E+03</rscale>
<asrwt>0</asrwt>
<pdfrwt beam="1">  1        4 0.34655710E-01 0.12499569E+03</pdfrwt>
<pdfrwt beam="2">  1       -4 0.26676485E-02 0.12499569E+03</pdfrwt>
<totfact> 0.83419395E+03</totfact>
</mgrwt>
</event>
<event>
 5    1  0.3282421E-002  0.1249981E+03  0.7818608E-02  0.1235072E+00
          4   -1    0    0  501    0  0.00000000000E+00  0.00000000000E+00  0.49031322183E+03  0.49031486659E+03  0.12700000000E+01 0. -1.
         -4   -1    0    0    0  501 -0.00000000000E+00 -0.00000000000E+00 -0.79143252066E+01  0.80155750559E+01  0.12700000000E+01 0. -1.
         25    2    1    2    0    0  0.00000000000E+00  0.00000000000E+00  0.48239889662E+03  0.49833044164E+03  0.12499813442E+03 0.  0.
    9000005    1    3    3    0    0  0.43643227269E+02  0.38886576170E+02  0.32928991762E+03  0.33443945183E+03  0.10000000000E+01 0.  0.
    9000005    1    3    3    0    0 -0.43643227269E+02 -0.38886576170E+02  0.15310897900E+03  0.16389098981E+03  0.10000000000E+01 0.  0.
<mgrwt>
<rscale>  0 0.12499813E+03</rscale>
<asrwt>0</asrwt>
<pdfrwt beam="1">  1        4 0.75440726E-01 0.12499813E+03</pdfrwt>
<pdfrwt beam="2">  1       -4 0.12255033E-02 0.12499813E+03</pdfrwt>
<totfact> 0.55996428E+03</totfact>
</mgrwt>
</event>
<event>
 5    1  0.3282421E-002  0.1250163E+03  0.7818608E-02  0.1235044E+00
          4   -1    0    0  501    0  0.00000000000E+00  0.00000000000E+00  0.34110887691E+02  0.34134521515E+02  0.12700000000E+01 0.  1.
         -4   -1    0    0    0  501 -0.00000000000E+00 -0.00000000000E+00 -0.11447924170E+03  0.11448628599E+03  0.12700000000E+01 0.  1.
         25    2    1    2    0    0  0.00000000000E+00  0.00000000000E+00 -0.80368354006E+02  0.14862080750E+03  0.12501628733E+03 0.  0.
    9000005    1    3    3    0    0  0.32421994071E+02 -0.13443523285E+02 -0.10166256432E+03  0.10755552520E+03  0.10000000000E+01 0.  0.
    9000005    1    3    3    0    0 -0.32421994071E+02  0.13443523285E+02  0.21294210311E+02  0.41065282303E+02  0.10000000000E+01 0.  0.
<mgrwt>
<rscale>  0 0.12501629E+03</rscale>
<asrwt>0</asrwt>
<pdfrwt beam="1">  1        4 0.52501888E-02 0.12501629E+03</pdfrwt>
<pdfrwt beam="2">  1       -4 0.17614551E-01 0.12501629E+03</pdfrwt>
<totfact> 0.99542834E+03</totfact>
</mgrwt>
</event>
<event>
 5    1  0.3282421E-002  0.1250027E+03  0.7818608E-02  0.1235065E+00
          4   -1    0    0  501    0  0.00000000000E+00  0.00000000000E+00  0.19955472489E+02  0.19995844124E+02  0.12700000000E+01 0.  1.
         -4   -1    0    0    0  501 -0.00000000000E+00 -0.00000000000E+00 -0.19551658133E+03  0.19552070600E+03  0.12700000000E+01 0.  1.
         25    2    1    2    0    0  0.00000000000E+00  0.00000000000E+00 -0.17556110884E+03  0.21551655013E+03  0.12500272173E+03 0.  0.
    9000005    1    3    3    0    0 -0.58416536891E+02  0.56001765928E+01 -0.50739936167E+02  0.77584759344E+02  0.10000000000E+01 0.  0.
    9000005    1    3    3    0    0  0.58416536891E+02 -0.56001765928E+01 -0.12482117268E+03  0.13793179078E+03  0.10000000000E+01 0.  0.
<mgrwt>
<rscale>  0 0.12500272E+03</rscale>
<asrwt>0</asrwt>
<pdfrwt beam="1">  1        4 0.30734956E-02 0.12500272E+03</pdfrwt>
<pdfrwt beam="2">  1       -4 0.30082896E-01 0.12500272E+03</pdfrwt>
<totfact> 0.87577481E+03</totfact>
</mgrwt>
</event>
<event>
 5    1  0.3282421E-002  0.1249949E+03  0.7818608E-02  0.1235077E+00
         -4   -1    0    0    0  501 -0.00000000000E+00  0.00000000000E+00  0.52754791761E+02  0.52770076310E+02  0.12700000000E+01 0. -1.
          4   -1    0    0  501    0  0.00000000000E+00 -0.00000000000E+00 -0.74007867566E+02  0.74018763578E+02  0.12700000000E+01 0. -1.
         25    2    1    2    0    0  0.00000000000E+00  0.00000000000E+00 -0.21253075805E+02  0.12678883989E+03  0.12499486665E+03 0.  0.
    9000005    1    3    3    0    0 -0.51003025961E+02 -0.24022526118E+02  0.16714704352E+02  0.58811323398E+02  0.10000000000E+01 0.  0.
    9000005    1    3    3    0    0  0.51003025961E+02  0.24022526118E+02 -0.37967780156E+02  0.67977516490E+02  0.10000000000E+01 0.  0.
<mgrwt>
<rscale>  0 0.12499487E+03</rscale>
<asrwt>0</asrwt>
<pdfrwt beam="2">  1        4 0.11387840E-01 0.12499487E+03</pdfrwt>
<pdfrwt beam="1">  1       -4 0.81181358E-02 0.12499487E+03</pdfrwt>
<totfact> 0.10414943E+04</totfact>
</mgrwt>
</event>
<event>
 5    1  0.3282421E-002  0.1249953E+03  0.7818608E-02  0.1235077E+00
         -4   -1    0    0    0  501 -0.00000000000E+00  0.00000000000E+00  0.61351892794E+03  0.61352024241E+03  0.12700000000E+01 0. -1.
          4   -1    0    0  501    0  0.00000000000E+00 -0.00000000000E+00 -0.63018100001E+01  0.64285075466E+01  0.12700000000E+01 0. -1.
         25    2    1    2    0    0  0.00000000000E+00  0.00000000000E+00  0.60721711794E+03  0.61994874996E+03  0.12499529690E+03 0.  0.
    9000005    1    3    3    0    0 -0.26905909660E+02 -0.48069591428E+02  0.15728737602E+03  0.16665812986E+03  0.10000000000E+01 0.  0.
    9000005    1    3    3    0    0  0.26905909660E+02  0.48069591428E+02  0.44992974192E+03  0.45329062009E+03  0.10000000000E+01 0.  0.
<mgrwt>
<rscale>  0 0.12499530E+03</rscale>
<asrwt>0</asrwt>
<pdfrwt beam="2">  1        4 0.97935595E-03 0.12499530E+03</pdfrwt>
<pdfrwt beam="1">  1       -4 0.94397409E-01 0.12499530E+03</pdfrwt>
<totfact> 0.47637019E+03</totfact>
</mgrwt>
</event>
<event>
 5    1  0.3282421E-002  0.1249994E+03  0.7818608E-02  0.1235070E+00
          4   -1    0    0  501    0  0.00000000000E+00  0.00000000000E+00  0.18992062687E+03  0.18992487307E+03  0.12700000000E+01 0. -1.
         -4   -1    0    0    0  501 -0.00000000000E+00 -0.00000000000E+00 -0.20543509243E+02  0.20582727517E+02  0.12700000000E+01 0. -1.
         25    2    1    2    0    0  0.00000000000E+00  0.00000000000E+00  0.16937711763E+03  0.21050760059E+03  0.12499936772E+03 0.  0.
    9000005    1    3    3    0    0 -0.71813478680E+01 -0.44089897067E+02  0.15828296054E+03  0.16446880062E+03  0.10000000000E+01 0.  0.
    9000005    1    3    3    0    0  0.71813478680E+01  0.44089897067E+02  0.11094157083E+02  0.46038799962E+02  0.10000000000E+01 0.  0.
<mgrwt>
<rscale>  0 0.12499937E+03</rscale>
<asrwt>0</asrwt>
<pdfrwt beam="1">  1        4 0.29221901E-01 0.12499937E+03</pdfrwt>
<pdfrwt beam="2">  1       -4 0.31638834E-02 0.12499937E+03</pdfrwt>
<totfact> 0.88394300E+03</totfact>
</mgrwt>
</event>
<event>
 5    1  0.3282421E-002  0.1250001E+03  0.7818608E-02  0.1235069E+00
         -4   -1    0    0    0  501 -0.00000000000E+00  0.00000000000E+00  0.66457087805E+02  0.66469221596E+02  0.12700000000E+01 0. -1.
          4   -1    0    0  501    0  0.00000000000E+00 -0.00000000000E+00 -0.58754241835E+02  0.58767966050E+02  0.12700000000E+01 0. -1.
         25    2    1    2    0    0  0.00000000000E+00  0.00000000000E+00  0.77028459698E+01  0.12523718765E+03  0.12500007733E+03 0.  0.
    9000005    1    3    3    0    0 -0.44484481190E+02  0.32694108529E+02  0.33189746028E+02  0.64423078478E+02  0.10000000000E+01 0.  0.
    9000005    1    3    3    0    0  0.44484481190E+02 -0.32694108529E+02 -0.25486900059E+02  0.60814109167E+02  0.10000000000E+01 0.  0.
<mgrwt>
<rscale>  0 0.12500008E+03</rscale>
<asrwt>0</asrwt>
<pdfrwt beam="2">  1        4 0.90411032E-02 0.12500008E+03</pdfrwt>
<pdfrwt beam="1">  1       -4 0.10226156E-01 0.12500008E+03</pdfrwt>
<totfact> 0.10447695E+04</totfact>
</mgrwt>
</event>
<event>
 5    1  0.3282421E-002  0.1249972E+03  0.7818608E-02  0.1235074E+00
         -4   -1    0    0    0  501 -0.00000000000E+00  0.00000000000E+00  0.47097633731E+02  0.47114753561E+02  0.12700000000E+01 0. -1.
          4   -1    0    0  501    0  0.00000000000E+00 -0.00000000000E+00 -0.82898672825E+02  0.82908400396E+02  0.12700000000E+01 0. -1.
         25    2    1    2    0    0  0.00000000000E+00  0.00000000000E+00 -0.35801039094E+02  0.13002315396E+03  0.12499722463E+03 0.  0.
    9000005    1    3    3    0    0 -0.20422430384E+02 -0.81956876925E+01  0.42939055608E+02  0.48259791298E+02  0.10000000000E+01 0.  0.
    9000005    1    3    3    0    0  0.20422430384E+02  0.81956876925E+01 -0.78740094702E+02  0.81763362659E+02  0.10000000000E+01 0.  0.
<mgrwt>
<rscale>  0 0.12499722E+03</rscale>
<asrwt>0</asrwt>
<pdfrwt beam="2">  1        4 0.12755707E-01 0.12499722E+03</pdfrwt>
<pdfrwt beam="1">  1       -4 0.72478550E-02 0.12499722E+03</pdfrwt>
<totfact> 0.10344660E+04</totfact>
</mgrwt>
</event>
<event>
 5    1  0.3282421E-002  0.1250082E+03  0.7818608E-02  0.1235057E+00
         -4   -1    0    0    0  501 -0.00000000000E+00  0.00000000000E+00  0.15636455073E+02  0.15687945285E+02  0.12700000000E+01 0. -1.
          4   -1    0    0  501    0  0.00000000000E+00 -0.00000000000E+00 -0.24938563038E+03  0.24938886411E+03  0.12700000000E+01 0. -1.
         25    2    1    2    0    0  0.00000000000E+00  0.00000000000E+00 -0.23374917531E+03  0.26507680940E+03  0.12500815142E+03 0.  0.
    9000005    1    3    3    0    0  0.27645431539E+02 -0.40282248808E+02 -0.19951414622E+03  0.20541135313E+03  0.10000000000E+01 0.  0.
    9000005    1    3    3    0    0 -0.27645431539E+02  0.40282248808E+02 -0.34235029089E+02  0.59665456260E+02  0.10000000000E+01 0.  0.
<mgrwt>
<rscale>  0 0.12500815E+03</rscale>
<asrwt>0</asrwt>
<pdfrwt beam="2">  1        4 0.38371227E-01 0.12500815E+03</pdfrwt>
<pdfrwt beam="1">  1       -4 0.24098182E-02 0.12500815E+03</pdfrwt>
<totfact> 0.80184296E+03</totfact>
</mgrwt>
</event>
<event>
 5    1  0.3282421E-002  0.1249991E+03  0.7818608E-02  0.1235071E+00
         -4   -1    0    0    0  501 -0.00000000000E+00  0.00000000000E+00  0.19306340027E+03  0.19306757735E+03  0.12700000000E+01 0.  1.
          4   -1    0    0  501    0  0.00000000000E+00 -0.00000000000E+00 -0.20208383986E+02  0.20248251365E+02  0.12700000000E+01 0.  1.
         25    2    1    2    0    0  0.00000000000E+00  0.00000000000E+00  0.17285501629E+03  0.21331582872E+03  0.12499914450E+03 0.  0.
    9000005    1    3    3    0    0 -0.82477391166E+01  0.53365202203E+02  0.32750800649E+02  0.63162369730E+02  0.10000000000E+01 0.  0.
    9000005    1    3    3    0    0  0.82477391166E+01 -0.53365202203E+02  0.14010421564E+03  0.15015345899E+03  0.10000000000E+01 0.  0.
<mgrwt>
<rscale>  0 0.12499914E+03</rscale>
<asrwt>0</asrwt>
<pdfrwt beam="2">  1        4 0.31123701E-02 0.12499914E+03</pdfrwt>
<pdfrwt beam="1">  1       -4 0.29705450E-01 0.12499914E+03</pdfrwt>
<totfact> 0.87938890E+03</totfact>
</mgrwt>
</event>
<event>
 5    1  0.3282421E-002  0.1249995E+03  0.7818608E-02  0.1235070E+00
         -4   -1    0    0    0  501 -0.00000000000E+00  0.00000000000E+00  0.25250310272E+02  0.25282228320E+02  0.12700000000E+01 0. -1.
          4   -1    0    0  501    0  0.00000000000E+00 -0.00000000000E+00 -0.15456753366E+03  0.15457275103E+03  0.12700000000E+01 0. -1.
         25    2    1    2    0    0  0.00000000000E+00  0.00000000000E+00 -0.12931722338E+03  0.17985497935E+03  0.12499947733E+03 0.  0.
    9000005    1    3    3    0    0 -0.40341171809E+02  0.11969013928E+01 -0.13330791530E+03  0.13928690893E+03  0.10000000000E+01 0.  0.
    9000005    1    3    3    0    0  0.40341171809E+02 -0.11969013928E+01  0.39906919172E+01  0.40568070423E+02  0.10000000000E+01 0.  0.
<mgrwt>
<rscale>  0 0.12499948E+03</rscale>
<asrwt>0</asrwt>
<pdfrwt beam="2">  1        4 0.23782477E-01 0.12499948E+03</pdfrwt>
<pdfrwt beam="1">  1       -4 0.38875198E-02 0.12499948E+03</pdfrwt>
<totfact> 0.93644212E+03</totfact>
</mgrwt>
</event>
<event>
 5    1  0.3282421E-002  0.1250007E+03  0.7818608E-02  0.1235068E+00
         -4   -1    0    0    0  501 -0.00000000000E+00  0.00000000000E+00  0.70039923442E+02  0.70051436643E+02  0.12700000000E+01 0.  1.
          4   -1    0    0  501    0  0.00000000000E+00 -0.00000000000E+00 -0.55749071734E+02  0.55763535569E+02  0.12700000000E+01 0.  1.
         25    2    1    2    0    0  0.00000000000E+00  0.00000000000E+00  0.14290851708E+02  0.12581497221E+03  0.12500071516E+03 0.  0.
    9000005    1    3    3    0    0 -0.22318250117E+02 -0.42467585049E+02 -0.33161591812E+02  0.58329162858E+02  0.10000000000E+01 0.  0.
    9000005    1    3    3    0    0  0.22318250117E+02  0.42467585049E+02  0.47452443520E+02  0.67485809354E+02  0.10000000000E+01 0.  0.
<mgrwt>
<rscale>  0 0.12500072E+03</rscale>
<asrwt>0</asrwt>
<pdfrwt beam="2">  1        4 0.85787785E-02 0.12500072E+03</pdfrwt>
<pdfrwt beam="1">  1       -4 0.10777371E-01 0.12500072E+03</pdfrwt>
<totfact> 0.10434848E+04</totfact>
</mgrwt>
</event>
<event>
 5    1  0.3282421E-002  0.1249996E+03  0.7818608E-02  0.1235070E+00
         -4   -1    0    0    0  501 -0.00000000000E+00  0.00000000000E+00  0.27464958061E+03  0.27465251688E+03  0.12700000000E+01 0.  1.
          4   -1    0    0  501    0  0.00000000000E+00 -0.00000000000E+00 -0.14191218108E+02  0.14247932180E+02  0.12700000000E+01 0.  1.
         25    2    1    2    0    0  0.00000000000E+00  0.00000000000E+00  0.26045836250E+03  0.28890044906E+03  0.12499964348E+03 0.  0.
    9000005    1    3    3    0    0 -0.42612925699E+02  0.64518081775E+01  0.23481598658E+03  0.23874051775E+03  0.10000000000E+01 0.  0.
    9000005    1    3    3    0    0  0.42612925699E+02 -0.64518081775E+01  0.25642375920E+02  0.50159931302E+02  0.10000000000E+01 0.  0.
<mgrwt>
<rscale>  0 0.12499964E+03</rscale>
<asrwt>0</asrwt>
<pdfrwt beam="2">  1        4 0.21878528E-02 0.12499964E+03</pdfrwt>
<pdfrwt beam="1">  1       -4 0.42258371E-01 0.12499964E+03</pdfrwt>
<totfact> 0.77013188E+03</totfact>
</mgrwt>
</event>
<event>
 5    1  0.3282421E-002  0.1249791E+03  0.7818608E-02  0.1235102E+00
         -4   -1    0    0    0  501 -0.00000000000E+00  0.00000000000E+00  0.40949067060E+01  0.42873256153E+01  0.12700000000E+01 0. -1.
          4   -1    0    0  501    0  0.00000000000E+00 -0.00000000000E+00 -0.93152654989E+03  0.93152741562E+03  0.12700000000E+01 0. -1.
         25    2    1    2    0    0  0.00000000000E+00  0.00000000000E+00 -0.92743164318E+03  0.93581474123E+03  0.12497910678E+03 0.  0.
    9000005    1    3    3    0    0  0.11534705921E+02 -0.49243157966E+02 -0.73842679106E+03  0.74015745879E+03  0.10000000000E+01 0.  0.
    9000005    1    3    3    0    0 -0.11534705921E+02  0.49243157966E+02 -0.18900485212E+03  0.19565728244E+03  0.10000000000E+01 0.  0.
<mgrwt>
<rscale>  0 0.12497911E+03</rscale>
<asrwt>0</asrwt>
<pdfrwt beam="2">  1        4 0.14332648E+00 0.12497911E+03</pdfrwt>
<pdfrwt beam="1">  1       -4 0.64485444E-03 0.12497911E+03</pdfrwt>
<totfact> 0.32840027E+03</totfact>
</mgrwt>
</event>
<event>
 5    1  0.3282421E-002  0.1249999E+03  0.7818608E-02  0.1235069E+00
         -4   -1    0    0    0  501 -0.00000000000E+00  0.00000000000E+00  0.67009479520E+02  0.67021513303E+02  0.12700000000E+01 0. -1.
          4   -1    0    0  501    0  0.00000000000E+00 -0.00000000000E+00 -0.58269682513E+02  0.58283520829E+02  0.12700000000E+01 0. -1.
         25    2    1    2    0    0  0.00000000000E+00  0.00000000000E+00  0.87397970062E+01  0.12530503413E+03  0.12499987011E+03 0.  0.
    9000005    1    3    3    0    0 -0.37010089753E+02 -0.16582081499E+02  0.52030999132E+02  0.65976791685E+02  0.10000000000E+01 0.  0.
    9000005    1    3    3    0    0  0.37010089753E+02  0.16582081499E+02 -0.43291202126E+02  0.59328242447E+02  0.10000000000E+01 0.  0.
<mgrwt>
<rscale>  0 0.12499987E+03</rscale>
<asrwt>0</asrwt>
<pdfrwt beam="2">  1        4 0.89665567E-02 0.12499987E+03</pdfrwt>
<pdfrwt beam="1">  1       -4 0.10311141E-01 0.12499987E+03</pdfrwt>
<totfact> 0.10446271E+04</totfact>
</mgrwt>
</event>
<event>
 5    1  0.3282421E-002  0.1249968E+03  0.7818608E-02  0.1235074E+00
          4   -1    0    0  501    0  0.00000000000E+00  0.00000000000E+00  0.41810148961E+01  0.43696436424E+01  0.12700000000E+01 0. -1.
         -4   -1    0    0    0  501 -0.00000000000E+00 -0.00000000000E+00 -0.91343585026E+03  0.91343673314E+03  0.12700000000E+01 0. -1.
         25    2    1    2    0    0  0.00000000000E+00  0.00000000000E+00 -0.90925483537E+03  0.91780637678E+03  0.12499675844E+03 0.  0.
    9000005    1    3    3    0    0 -0.60926457716E+01 -0.27117458853E+02 -0.43664395014E+02  0.51769260175E+02  0.10000000000E+01 0.  0.
    9000005    1    3    3    0    0  0.60926457716E+01  0.27117458853E+02 -0.86559044035E+03  0.86603711660E+03  0.10000000000E+01 0.  0.
<mgrwt>
<rscale>  0 0.12499676E+03</rscale>
<asrwt>0</asrwt>
<pdfrwt beam="1">  1        4 0.65781161E-03 0.12499676E+03</pdfrwt>
<pdfrwt beam="2">  1       -4 0.14054301E+00 0.12499676E+03</pdfrwt>
<totfact> 0.33489617E+03</totfact>
</mgrwt>
</event>
<event>
 5    1  0.3282421E-002  0.1249996E+03  0.7818608E-02  0.1235070E+00
         -4   -1    0    0    0  501 -0.00000000000E+00  0.00000000000E+00  0.24600180182E+03  0.24600508003E+03  0.12700000000E+01 0. -1.
          4   -1    0    0  501    0  0.00000000000E+00 -0.00000000000E+00 -0.15850055185E+02  0.15900853730E+02  0.12700000000E+01 0. -1.
         25    2    1    2    0    0  0.00000000000E+00  0.00000000000E+00  0.23015174663E+03  0.26190593376E+03  0.12499956663E+03 0.  0.
    9000005    1    3    3    0    0 -0.13299623808E+02  0.35226784308E+01  0.24279937199E+03  0.24319092149E+03  0.10000000000E+01 0.  0.
    9000005    1    3    3    0    0  0.13299623808E+02 -0.35226784308E+01 -0.12647625359E+02  0.18715012262E+02  0.10000000000E+01 0.  0.
<mgrwt>
<rscale>  0 0.12499957E+03</rscale>
<asrwt>0</asrwt>
<pdfrwt beam="2">  1        4 0.24426298E-02 0.12499957E+03</pdfrwt>
<pdfrwt beam="1">  1       -4 0.37850591E-01 0.12499957E+03</pdfrwt>
<totfact> 0.80640109E+03</totfact>
</mgrwt>
</event>
<event>
 5    1  0.3282421E-002  0.1249891E+03  0.7818608E-02  0.1235086E+00
          4   -1    0    0  501    0  0.00000000000E+00  0.00000000000E+00  0.66016615655E+02  0.66028830389E+02  0.12700000000E+01 0.  1.
         -4   -1    0    0    0  501 -0.00000000000E+00 -0.00000000000E+00 -0.59135842222E+02  0.59149477896E+02  0.12700000000E+01 0.  1.
         25    2    1    2    0    0  0.00000000000E+00  0.00000000000E+00  0.68807734326E+01  0.12517830828E+03  0.12498905481E+03 0.  0.
    9000005    1    3    3    0    0 -0.20991738400E+02 -0.53693023544E+02 -0.20699472418E+02  0.61262239730E+02  0.10000000000E+01 0.  0.
    9000005    1    3    3    0    0  0.20991738400E+02  0.53693023544E+02  0.27580245851E+02  0.63916068555E+02  0.10000000000E+01 0.  0.
<mgrwt>
<rscale>  0 0.12498905E+03</rscale>
<asrwt>0</asrwt>
<pdfrwt beam="1">  1        4 0.10158391E-01 0.12498905E+03</pdfrwt>
<pdfrwt beam="2">  1       -4 0.90998103E-02 0.12498905E+03</pdfrwt>
<totfact> 0.10451576E+04</totfact>
</mgrwt>
</event>
<event>
 5    1  0.3282421E-002  0.1249968E+03  0.7818608E-02  0.1235074E+00
         -4   -1    0    0    0  501 -0.00000000000E+00  0.00000000000E+00  0.15779057655E+03  0.15779568736E+03  0.12700000000E+01 0. -1.
          4   -1    0    0  501    0  0.00000000000E+00 -0.00000000000E+00 -0.24732861345E+02  0.24765446297E+02  0.12700000000E+01 0. -1.
         25    2    1    2    0    0  0.00000000000E+00  0.00000000000E+00  0.13305771521E+03  0.18256113365E+03  0.12499684774E+03 0.  0.
    9000005    1    3    3    0    0  0.91389574281E+01 -0.41865878923E+02  0.98516372105E-01  0.42863528393E+02  0.10000000000E+01 0.  0.
    9000005    1    3    3    0    0 -0.91389574281E+01  0.41865878923E+02  0.13295919884E+03  0.13969760526E+03  0.10000000000E+01 0.  0.
<mgrwt>
<rscale>  0 0.12499685E+03</rscale>
<asrwt>0</asrwt>
<pdfrwt beam="2">  1        4 0.38079553E-02 0.12499685E+03</pdfrwt>
<pdfrwt beam="1">  1       -4 0.24278373E-01 0.12499685E+03</pdfrwt>
<totfact> 0.93164594E+03</totfact>
</mgrwt>
</event>
<event>
 5    1  0.3282421E-002  0.1250034E+03  0.7818608E-02  0.1235064E+00
          4   -1    0    0  501    0  0.00000000000E+00  0.00000000000E+00  0.19148308590E+03  0.19148729745E+03  0.12700000000E+01 0. -1.
         -4   -1    0    0    0  501 -0.00000000000E+00 -0.00000000000E+00 -0.20376877795E+02  0.20416416156E+02  0.12700000000E+01 0. -1.
         25    2    1    2    0    0  0.00000000000E+00  0.00000000000E+00  0.17110620810E+03  0.21190371361E+03  0.12500339751E+03 0.  0.
    9000005    1    3    3    0    0  0.47321833938E+02 -0.33298673768E+01  0.16589784325E+02  0.50265942027E+02  0.10000000000E+01 0.  0.
    9000005    1    3    3    0    0 -0.47321833938E+02  0.33298673768E+01  0.15451642378E+03  0.16163777158E+03  0.10000000000E+01 0.  0.
<mgrwt>
<rscale>  0 0.12500340E+03</rscale>
<asrwt>0</asrwt>
<pdfrwt beam="1">  1        4 0.29462301E-01 0.12500340E+03</pdfrwt>
<pdfrwt beam="2">  1       -4 0.31382697E-02 0.12500340E+03</pdfrwt>
<totfact> 0.88159225E+03</totfact>
</mgrwt>
</event>
<event>
 5    1  0.3282421E-002  0.1249997E+03  0.7818608E-02  0.1235070E+00
          4   -1    0    0  501    0  0.00000000000E+00  0.00000000000E+00  0.10035450558E+02  0.10115491481E+02  0.12700000000E+01 0.  1.
         -4   -1    0    0    0  501 -0.00000000000E+00 -0.00000000000E+00 -0.38761607719E+03  0.38761815772E+03  0.12700000000E+01 0.  1.
         25    2    1    2    0    0  0.00000000000E+00  0.00000000000E+00 -0.37758062663E+03  0.39773364921E+03  0.12499970440E+03 0.  0.
    9000005    1    3    3    0    0 -0.52209510228E+02  0.26465055573E+02 -0.11915158467E+03  0.13275666558E+03  0.10000000000E+01 0.  0.
    9000005    1    3    3    0    0  0.52209510228E+02 -0.26465055573E+02 -0.25842904196E+03  0.26497698363E+03  0.10000000000E+01 0.  0.
<mgrwt>
<rscale>  0 0.12499970E+03</rscale>
<asrwt>0</asrwt>
<pdfrwt beam="1">  1        4 0.15502328E-02 0.12499970E+03</pdfrwt>
<pdfrwt beam="2">  1       -4 0.59639548E-01 0.12499970E+03</pdfrwt>
<totfact> 0.64774238E+03</totfact>
</mgrwt>
</event>
<event>
 5    1  0.3282421E-002  0.1250002E+03  0.7818608E-02  0.1235069E+00
          4   -1    0    0  501    0  0.00000000000E+00  0.00000000000E+00  0.19213317440E+01  0.23031317094E+01  0.12700000000E+01 0. -1.
         -4   -1    0    0    0  501 -0.00000000000E+00 -0.00000000000E+00 -0.18489720245E+04  0.18489724607E+04  0.12700000000E+01 0. -1.
         25    2    1    2    0    0  0.00000000000E+00  0.00000000000E+00 -0.18470506927E+04  0.18512755924E+04  0.12500022919E+03 0.  0.
    9000005    1    3    3    0    0  0.61683738153E+02 -0.86199614519E+01 -0.99915452457E+03  0.10010943768E+04  0.10000000000E+01 0.  0.
    9000005    1    3    3    0    0 -0.61683738153E+02  0.86199614519E+01 -0.84789616818E+03  0.85018121556E+03  0.10000000000E+01 0.  0.
<mgrwt>
<rscale>  0 0.12500023E+03</rscale>
<asrwt>0</asrwt>
<pdfrwt beam="1">  1        4 0.32499376E-03 0.12500023E+03</pdfrwt>
<pdfrwt beam="2">  1       -4 0.28448534E+00 0.12500023E+03</pdfrwt>
<totfact> 0.11929886E+03</totfact>
</mgrwt>
</event>
<event>
 5    1  0.3282421E-002  0.1249970E+03  0.7818608E-02  0.1235074E+00
          4   -1    0    0  501    0  0.00000000000E+00  0.00000000000E+00  0.13621834798E+02  0.13680909446E+02  0.12700000000E+01 0.  1.
         -4   -1    0    0    0  501 -0.00000000000E+00 -0.00000000000E+00 -0.28606926373E+03  0.28607208279E+03  0.12700000000E+01 0.  1.
         25    2    1    2    0    0  0.00000000000E+00  0.00000000000E+00 -0.27244742893E+03  0.29975299223E+03  0.12499701925E+03 0.  0.
    9000005    1    3    3    0    0  0.39458150745E+02  0.20390940684E+02 -0.30808269322E+02  0.54063717786E+02  0.10000000000E+01 0.  0.
    9000005    1    3    3    0    0 -0.39458150745E+02 -0.20390940684E+02 -0.24163915961E+03  0.24568927445E+03  0.10000000000E+01 0.  0.
<mgrwt>
<rscale>  0 0.12499702E+03</rscale>
<asrwt>0</asrwt>
<pdfrwt beam="1">  1        4 0.21004282E-02 0.12499702E+03</pdfrwt>
<pdfrwt beam="2">  1       -4 0.44015413E-01 0.12499702E+03</pdfrwt>
<totfact> 0.75634840E+03</totfact>
</mgrwt>
</event>
<event>
 5    1  0.3282421E-002  0.1250216E+03  0.7818608E-02  0.1235036E+00
          4   -1    0    0  501    0  0.00000000000E+00  0.00000000000E+00  0.16905113377E+03  0.16905590416E+03  0.12700000000E+01 0.  1.
         -4   -1    0    0    0  501 -0.00000000000E+00 -0.00000000000E+00 -0.23092348661E+02  0.23127245117E+02  0.12700000000E+01 0.  1.
         25    2    1    2    0    0  0.00000000000E+00  0.00000000000E+00  0.14595878511E+03  0.19218314927E+03  0.12502158179E+03 0.  0.
    9000005    1    3    3    0    0 -0.30528352250E+02  0.53724233351E+02  0.58532540797E+02  0.85119515226E+02  0.10000000000E+01 0.  0.
    9000005    1    3    3    0    0  0.30528352250E+02 -0.53724233351E+02  0.87426244316E+02  0.10706363405E+03  0.10000000000E+01 0.  0.
<mgrwt>
<rscale>  0 0.12502158E+03</rscale>
<asrwt>0</asrwt>
<pdfrwt beam="1">  1        4 0.26010918E-01 0.12502158E+03</pdfrwt>
<pdfrwt beam="2">  1       -4 0.35557204E-02 0.12502158E+03</pdfrwt>
<totfact> 0.91424640E+03</totfact>
</mgrwt>
</event>
<event>
 5    1  0.3282421E-002  0.1249960E+03  0.7818608E-02  0.1235075E+00
         -4   -1    0    0    0  501 -0.00000000000E+00  0.00000000000E+00  0.11868225121E+02  0.11935982051E+02  0.12700000000E+01 0.  1.
          4   -1    0    0  501    0  0.00000000000E+00 -0.00000000000E+00 -0.32810845873E+03  0.32811091660E+03  0.12700000000E+01 0.  1.
         25    2    1    2    0    0  0.00000000000E+00  0.00000000000E+00 -0.31624023361E+03  0.34004689865E+03  0.12499603165E+03 0.  0.
    9000005    1    3    3    0    0 -0.54855955344E+02  0.11877543449E+02 -0.83381649983E+02  0.10051741853E+03  0.10000000000E+01 0.  0.
    9000005    1    3    3    0    0  0.54855955344E+02 -0.11877543449E+02 -0.23285858363E+03  0.23952948012E+03  0.10000000000E+01 0.  0.
<mgrwt>
<rscale>  0 0.12499603E+03</rscale>
<asrwt>0</asrwt>
<pdfrwt beam="2">  1        4 0.50483619E-01 0.12499603E+03</pdfrwt>
<pdfrwt beam="1">  1       -4 0.18312822E-02 0.12499603E+03</pdfrwt>
<totfact> 0.70839806E+03</totfact>
</mgrwt>
</event>
<event>
 5    1  0.3282421E-002  0.1250078E+03  0.7818608E-02  0.1235057E+00
         -4   -1    0    0    0  501 -0.00000000000E+00  0.00000000000E+00  0.51713870487E+02  0.51729462599E+02  0.12700000000E+01 0. -1.
          4   -1    0    0  501    0  0.00000000000E+00 -0.00000000000E+00 -0.75512979463E+02  0.75523658329E+02  0.12700000000E+01 0. -1.
         25    2    1    2    0    0  0.00000000000E+00  0.00000000000E+00 -0.23799108976E+02  0.12725312093E+03  0.12500783655E+03 0.  0.
    9000005    1    3    3    0    0  0.45734774333E+02  0.27263684555E+02  0.21410674768E+02  0.57396821104E+02  0.10000000000E+01 0.  0.
    9000005    1    3    3    0    0 -0.45734774333E+02 -0.27263684555E+02 -0.45209783744E+02  0.69856299824E+02  0.10000000000E+01 0.  0.
<mgrwt>
<rscale>  0 0.12500784E+03</rscale>
<asrwt>0</asrwt>
<pdfrwt beam="2">  1        4 0.11619402E-01 0.12500784E+03</pdfrwt>
<pdfrwt beam="1">  1       -4 0.79580009E-02 0.12500784E+03</pdfrwt>
<totfact> 0.10401811E+04</totfact>
</mgrwt>
</event>
<event>
 5    1  0.3282421E-002  0.1249979E+03  0.7818608E-02  0.1235073E+00
         -4   -1    0    0    0  501 -0.00000000000E+00  0.00000000000E+00  0.80381884544E+03  0.80381984871E+03  0.12700000000E+01 0.  1.
          4   -1    0    0  501    0  0.00000000000E+00 -0.00000000000E+00 -0.47754526798E+01  0.49414419248E+01  0.12700000000E+01 0.  1.
         25    2    1    2    0    0  0.00000000000E+00  0.00000000000E+00  0.79904339276E+03  0.80876129064E+03  0.12499792686E+03 0.  0.
    9000005    1    3    3    0    0 -0.15269968472E+02 -0.59493523126E+02  0.32505278563E+03  0.33080653663E+03  0.10000000000E+01 0.  0.
    9000005    1    3    3    0    0  0.15269968472E+02  0.59493523126E+02  0.47399060714E+03  0.47795475401E+03  0.10000000000E+01 0.  0.
<mgrwt>
<rscale>  0 0.12499793E+03</rscale>
<asrwt>0</asrwt>
<pdfrwt beam="2">  1        4 0.74753064E-03 0.12499793E+03</pdfrwt>
<pdfrwt beam="1">  1       -4 0.12367728E+00 0.12499793E+03</pdfrwt>
<totfact> 0.37878295E+03</totfact>
</mgrwt>
</event>
<event>
 5    1  0.3282421E-002  0.1250009E+03  0.7818608E-02  0.1235068E+00
          4   -1    0    0  501    0  0.00000000000E+00  0.00000000000E+00  0.15709196416E+02  0.15760448980E+02  0.12700000000E+01 0.  1.
         -4   -1    0    0    0  501 -0.00000000000E+00 -0.00000000000E+00 -0.24820561711E+03  0.24820886621E+03  0.12700000000E+01 0.  1.
         25    2    1    2    0    0  0.00000000000E+00  0.00000000000E+00 -0.23249642069E+03  0.26396931519E+03  0.12500085490E+03 0.  0.
    9000005    1    3    3    0    0  0.60923429389E+02  0.46238320272E+01 -0.14396429490E+03  0.15639617092E+03  0.10000000000E+01 0.  0.
    9000005    1    3    3    0    0 -0.60923429389E+02 -0.46238320272E+01 -0.88532125787E+02  0.10757314427E+03  0.10000000000E+01 0.  0.
<mgrwt>
<rscale>  0 0.12500085E+03</rscale>
<asrwt>0</asrwt>
<pdfrwt beam="1">  1        4 0.24209921E-02 0.12500085E+03</pdfrwt>
<pdfrwt beam="2">  1       -4 0.38189669E-01 0.12500085E+03</pdfrwt>
<totfact> 0.80350703E+03</totfact>
</mgrwt>
</event>
<event>
 5    1  0.3282421E-002  0.1250004E+03  0.7818608E-02  0.1235069E+00
          4   -1    0    0  501    0  0.00000000000E+00  0.00000000000E+00  0.40163859379E+02  0.40183933359E+02  0.12700000000E+01 0. -1.
         -4   -1    0    0    0  501 -0.00000000000E+00 -0.00000000000E+00 -0.97209925507E+02  0.97218221117E+02  0.12700000000E+01 0. -1.
         25    2    1    2    0    0  0.00000000000E+00  0.00000000000E+00 -0.57046066128E+02  0.13740215448E+03  0.12500039358E+03 0.  0.
    9000005    1    3    3    0    0 -0.13071886464E+02 -0.55875017372E+02 -0.13214825446E+01  0.57407648429E+02  0.10000000000E+01 0.  0.
    9000005    1    3    3    0    0  0.13071886464E+02  0.55875017372E+02 -0.55724583583E+02  0.79994506047E+02  0.10000000000E+01 0.  0.
<mgrwt>
<rscale>  0 0.12500039E+03</rscale>
<asrwt>0</asrwt>
<pdfrwt beam="1">  1        4 0.61812376E-02 0.12500039E+03</pdfrwt>
<pdfrwt beam="2">  1       -4 0.14957555E-01 0.12500039E+03</pdfrwt>
<totfact> 0.10187594E+04</totfact>
</mgrwt>
</event>
<event>
 5    1  0.3282421E-002  0.1250001E+03  0.7818608E-02  0.1235069E+00
          4   -1    0    0  501    0  0.00000000000E+00  0.00000000000E+00  0.33069139708E+03  0.33069383575E+03  0.12700000000E+01 0.  1.
         -4   -1    0    0    0  501 -0.00000000000E+00 -0.00000000000E+00 -0.11775772569E+02  0.11844058409E+02  0.12700000000E+01 0.  1.
         25    2    1    2    0    0  0.00000000000E+00  0.00000000000E+00  0.31891562451E+03  0.34253789416E+03  0.12500013351E+03 0.  0.
    9000005    1    3    3    0    0 -0.27508098070E+02 -0.32411105466E+02  0.33938806013E+02  0.54406045350E+02  0.10000000000E+01 0.  0.
    9000005    1    3    3    0    0  0.27508098070E+02  0.32411105466E+02  0.28497681850E+03  0.28813184881E+03  0.10000000000E+01 0.  0.
<mgrwt>
<rscale>  0 0.12500013E+03</rscale>
<asrwt>0</asrwt>
<pdfrwt beam="1">  1        4 0.50881031E-01 0.12500013E+03</pdfrwt>
<pdfrwt beam="2">  1       -4 0.18170980E-02 0.12500013E+03</pdfrwt>
<totfact> 0.70553152E+03</totfact>
</mgrwt>
</event>
<event>
 5    1  0.3282421E-002  0.1249959E+03  0.7818608E-02  0.1235076E+00
          4   -1    0    0  501    0  0.00000000000E+00  0.00000000000E+00  0.79455952119E+01  0.80464515951E+01  0.12700000000E+01 0.  1.
         -4   -1    0    0    0  501 -0.00000000000E+00 -0.00000000000E+00 -0.48839003243E+03  0.48839168367E+03  0.12700000000E+01 0.  1.
         25    2    1    2    0    0  0.00000000000E+00  0.00000000000E+00 -0.48044443722E+03  0.49643813526E+03  0.12499585949E+03 0.  0.
    9000005    1    3    3    0    0  0.22025277096E+02 -0.20407608159E+02 -0.45788123856E+03  0.45886578857E+03  0.10000000000E+01 0.  0.
    9000005    1    3    3    0    0 -0.22025277096E+02  0.20407608159E+02 -0.22563198661E+02  0.37572346689E+02  0.10000000000E+01 0.  0.
<mgrwt>
<rscale>  0 0.12499586E+03</rscale>
<asrwt>0</asrwt>
<pdfrwt beam="1">  1        4 0.12302848E-02 0.12499586E+03</pdfrwt>
<pdfrwt beam="2">  1       -4 0.75144790E-01 0.12499586E+03</pdfrwt>
<totfact> 0.56146908E+03</totfact>
</mgrwt>
</event>
<event>
 5    1  0.3282421E-002  0.1250045E+03  0.7818608E-02  0.1235062E+00
         -4   -1    0    0    0  501 -0.00000000000E+00  0.00000000000E+00  0.22229445315E+04  0.22229448943E+04  0.12700000000E+01 0.  1.
          4   -1    0    0  501    0  0.00000000000E+00 -0.00000000000E+00 -0.15275101144E+01  0.19865012332E+01  0.12700000000E+01 0.  1.
         25    2    1    2    0    0  0.00000000000E+00  0.00000000000E+00  0.22214170214E+04  0.22249313955E+04  0.12500452735E+03 0.  0.
    9000005    1    3    3    0    0 -0.13521196635E+02  0.11490391514E+02  0.21772537963E+04  0.21773263295E+04  0.10000000000E+01 0.  0.
    9000005    1    3    3    0    0  0.13521196635E+02 -0.11490391514E+02  0.44163225073E+02  0.47605065954E+02  0.10000000000E+01 0.  0.
<mgrwt>
<rscale>  0 0.12500453E+03</rscale>
<asrwt>0</asrwt>
<pdfrwt beam="2">  1        4 0.27033631E-03 0.12500453E+03</pdfrwt>
<pdfrwt beam="1">  1       -4 0.34202701E+00 0.12500453E+03</pdfrwt>
<totfact> 0.72029237E+02</totfact>
</mgrwt>
</event>
<event>
 5    1  0.3282421E-002  0.1249993E+03  0.7818608E-02  0.1235070E+00
          4   -1    0    0  501    0  0.00000000000E+00  0.00000000000E+00  0.68289092761E+03  0.68289210855E+03  0.12700000000E+01 0.  1.
         -4   -1    0    0    0  501 -0.00000000000E+00 -0.00000000000E+00 -0.56484135598E+01  0.57894279287E+01  0.12700000000E+01 0.  1.
         25    2    1    2    0    0  0.00000000000E+00  0.00000000000E+00  0.67724251405E+03  0.68868153648E+03  0.12499934337E+03 0.  0.
    9000005    1    3    3    0    0 -0.12735865254E+02 -0.52129610238E+02  0.16218787886E+03  0.17083795414E+03  0.10000000000E+01 0.  0.
    9000005    1    3    3    0    0  0.12735865254E+02  0.52129610238E+02  0.51505463519E+03  0.51784358233E+03  0.10000000000E+01 0.  0.
<mgrwt>
<rscale>  0 0.12499934E+03</rscale>
<asrwt>0</asrwt>
<pdfrwt beam="1">  1        4 0.10507101E+00 0.12499934E+03</pdfrwt>
<pdfrwt beam="2">  1       -4 0.87992535E-03 0.12499934E+03</pdfrwt>
<totfact> 0.43691600E+03</totfact>
</mgrwt>
</event>
<event>
 5    1  0.3282421E-002  0.1249989E+03  0.7818608E-02  0.1235071E+00
          4   -1    0    0  501    0  0.00000000000E+00  0.00000000000E+00  0.45943768077E+02  0.45961317705E+02  0.12700000000E+01 0.  1.
         -4   -1    0    0    0  501 -0.00000000000E+00 -0.00000000000E+00 -0.84982321617E+02  0.84991810708E+02  0.12700000000E+01 0.  1.
         25    2    1    2    0    0  0.00000000000E+00  0.00000000000E+00 -0.39038553540E+02  0.13095312841E+03  0.12499885271E+03 0.  0.
    9000005    1    3    3    0    0  0.22935638913E+02 -0.58111939009E+02 -0.21050869492E+02  0.65933148674E+02  0.10000000000E+01 0.  0.
    9000005    1    3    3    0    0 -0.22935638913E+02  0.58111939009E+02 -0.17987684048E+02  0.65019979738E+02  0.10000000000E+01 0.  0.
<mgrwt>
<rscale>  0 0.12499885E+03</rscale>
<asrwt>0</asrwt>
<pdfrwt beam="1">  1        4 0.70703519E-02 0.12499885E+03</pdfrwt>
<pdfrwt beam="2">  1       -4 0.13076283E-01 0.12499885E+03</pdfrwt>
<totfact> 0.10324361E+04</totfact>
</mgrwt>
</event>
<event>
 5    1  0.3282421E-002  0.1249990E+03  0.7818608E-02  0.1235071E+00
         -4   -1    0    0    0  501 -0.00000000000E+00  0.00000000000E+00  0.10631550853E+03  0.10632309370E+03  0.12700000000E+01 0. -1.
          4   -1    0    0  501    0  0.00000000000E+00 -0.00000000000E+00 -0.36721614049E+02  0.36743568667E+02  0.12700000000E+01 0. -1.
         25    2    1    2    0    0  0.00000000000E+00  0.00000000000E+00  0.69593894477E+02  0.14306666236E+03  0.12499903892E+03 0.  0.
    9000005    1    3    3    0    0 -0.36379549011E+02  0.21454952157E+02 -0.17919168076E+02  0.45889902406E+02  0.10000000000E+01 0.  0.
    9000005    1    3    3    0    0  0.36379549011E+02 -0.21454952157E+02  0.87513062553E+02  0.97176759957E+02  0.10000000000E+01 0.  0.
<mgrwt>
<rscale>  0 0.12499904E+03</rscale>
<asrwt>0</asrwt>
<pdfrwt beam="2">  1        4 0.56517514E-02 0.12499904E+03</pdfrwt>
<pdfrwt beam="1">  1       -4 0.16358504E-01 0.12499904E+03</pdfrwt>
<totfact> 0.10070636E+04</totfact>
</mgrwt>
</event>
<event>
 5    1  0.3282421E-002  0.1250005E+03  0.7818608E-02  0.1235068E+00
          4   -1    0    0  501    0  0.00000000000E+00  0.00000000000E+00  0.38597961548E+02  0.38618849487E+02  0.12700000000E+01 0.  1.
         -4   -1    0    0    0  501 -0.00000000000E+00 -0.00000000000E+00 -0.10115213087E+03  0.10116010320E+03  0.12700000000E+01 0.  1.
         25    2    1    2    0    0  0.00000000000E+00  0.00000000000E+00 -0.62554169324E+02  0.13977895269E+03  0.12500052606E+03 0.  0.
    9000005    1    3    3    0    0  0.12489403857E+02 -0.98056763430E+01 -0.98864132758E+02  0.10013617350E+03  0.10000000000E+01 0.  0.
    9000005    1    3    3    0    0 -0.12489403857E+02  0.98056763430E+01  0.36309963434E+02  0.39642779189E+02  0.10000000000E+01 0.  0.
<mgrwt>
<rscale>  0 0.12500053E+03</rscale>
<asrwt>0</asrwt>
<pdfrwt beam="1">  1        4 0.59403680E-02 0.12500053E+03</pdfrwt>
<pdfrwt beam="2">  1       -4 0.15564086E-01 0.12500053E+03</pdfrwt>
<totfact> 0.10138049E+04</totfact>
</mgrwt>
</event>
<event>
 5    1  0.3282421E-002  0.1250060E+03  0.7818608E-02  0.1235060E+00
         -4   -1    0    0    0  501 -0.00000000000E+00  0.00000000000E+00  0.21714871172E+02  0.21751977611E+02  0.12700000000E+01 0.  1.
          4   -1    0    0  501    0  0.00000000000E+00 -0.00000000000E+00 -0.17971263262E+03  0.17971712001E+03  0.12700000000E+01 0.  1.
         25    2    1    2    0    0  0.00000000000E+00  0.00000000000E+00 -0.15799776145E+03  0.20146909762E+03  0.12500601855E+03 0.  0.
    9000005    1    3    3    0    0 -0.59647027366E+01  0.86840355748E+01  0.20281304865E+02  0.22876220833E+02  0.10000000000E+01 0.  0.
    9000005    1    3    3    0    0  0.59647027366E+01 -0.86840355748E+01 -0.17827906632E+03  0.17859287679E+03  0.10000000000E+01 0.  0.
<mgrwt>
<rscale>  0 0.12500602E+03</rscale>
<asrwt>0</asrwt>
<pdfrwt beam="2">  1        4 0.27651296E-01 0.12500602E+03</pdfrwt>
<pdfrwt beam="1">  1       -4 0.33439490E-02 0.12500602E+03</pdfrwt>
<totfact> 0.89876219E+03</totfact>
</mgrwt>
</event>
<event>
 5    1  0.3282421E-002  0.1249944E+03  0.7818608E-02  0.1235078E+00
         -4   -1    0    0    0  501 -0.00000000000E+00  0.00000000000E+00  0.45251580554E+03  0.45251758769E+03  0.12700000000E+01 0.  1.
          4   -1    0    0  501    0  0.00000000000E+00 -0.00000000000E+00 -0.85829980510E+01  0.86764483254E+01  0.12700000000E+01 0.  1.
         25    2    1    2    0    0  0.00000000000E+00  0.00000000000E+00  0.44393280749E+03  0.46119403601E+03  0.12499440502E+03 0.  0.
    9000005    1    3    3    0    0 -0.48534896354E+02  0.38267332277E+02  0.25595898329E+03  0.26331734848E+03  0.10000000000E+01 0.  0.
    9000005    1    3    3    0    0  0.48534896354E+02 -0.38267332277E+02  0.18797382420E+03  0.19787668753E+03  0.10000000000E+01 0.  0.
<mgrwt>
<rscale>  0 0.12499441E+03</rscale>
<asrwt>0</asrwt>
<pdfrwt beam="2">  1        4 0.13277869E-02 0.12499441E+03</pdfrwt>
<pdfrwt beam="1">  1       -4 0.69625136E-01 0.12499441E+03</pdfrwt>
<totfact> 0.59013447E+03</totfact>
</mgrwt>
</event>
<event>
 5    1  0.3282421E-002  0.1249947E+03  0.7818608E-02  0.1235078E+00
          4   -1    0    0  501    0  0.00000000000E+00  0.00000000000E+00  0.17631838985E+02  0.17677518095E+02  0.12700000000E+01 0.  1.
         -4   -1    0    0    0  501 -0.00000000000E+00 -0.00000000000E+00 -0.22119236748E+03  0.22119601337E+03  0.12700000000E+01 0.  1.
         25    2    1    2    0    0  0.00000000000E+00  0.00000000000E+00 -0.20356052850E+03  0.23887353147E+03  0.12499470098E+03 0.  0.
    9000005    1    3    3    0    0  0.40983363158E+02 -0.10478196401E+02 -0.13881669235E+02  0.44532341016E+02  0.10000000000E+01 0.  0.
    9000005    1    3    3    0    0 -0.40983363158E+02  0.10478196401E+02 -0.18967885926E+03  0.19434119045E+03  0.10000000000E+01 0.  0.
<mgrwt>
<rscale>  0 0.12499470E+03</rscale>
<asrwt>0</asrwt>
<pdfrwt beam="1">  1        4 0.27163850E-02 0.12499470E+03</pdfrwt>
<pdfrwt beam="2">  1       -4 0.34033387E-01 0.12499470E+03</pdfrwt>
<totfact> 0.83975343E+03</totfact>
</mgrwt>
</event>
<event>
 5    1  0.3282421E-002  0.1249986E+03  0.7818608E-02  0.1235071E+00
          4   -1    0    0  501    0  0.00000000000E+00  0.00000000000E+00  0.97391063399E+02  0.97399343581E+02  0.12700000000E+01 0.  1.
         -4   -1    0    0    0  501 -0.00000000000E+00 -0.00000000000E+00 -0.40087965893E+02  0.40108077858E+02  0.12700000000E+01 0.  1.
         25    2    1    2    0    0  0.00000000000E+00  0.00000000000E+00  0.57303097506E+02  0.13750742144E+03  0.12499858386E+03 0.  0.
    9000005    1    3    3    0    0 -0.58740805798E+02 -0.16743490878E+02  0.43176444153E+02  0.74806631272E+02  0.10000000000E+01 0.  0.
    9000005    1    3    3    0    0  0.58740805798E+02  0.16743490878E+02  0.14126653352E+02  0.62700790166E+02  0.10000000000E+01 0.  0.
<mgrwt>
<rscale>  0 0.12499858E+03</rscale>
<asrwt>0</asrwt>
<pdfrwt beam="1">  1        4 0.14985424E-01 0.12499858E+03</pdfrwt>
<pdfrwt beam="2">  1       -4 0.61695634E-02 0.12499858E+03</pdfrwt>
<totfact> 0.10185812E+04</totfact>
</mgrwt>
</event>
<event>
 5    1  0.3282421E-002  0.1250191E+03  0.7818608E-02  0.1235039E+00
         -4   -1    0    0    0  501 -0.00000000000E+00  0.00000000000E+00  0.94101645366E+01  0.94954776923E+01  0.12700000000E+01 0.  1.
          4   -1    0    0  501    0  0.00000000000E+00 -0.00000000000E+00 -0.41327626340E+03  0.41327821476E+03  0.12700000000E+01 0.  1.
         25    2    1    2    0    0  0.00000000000E+00  0.00000000000E+00 -0.40386609887E+03  0.42277369245E+03  0.12501907540E+03 0.  0.
    9000005    1    3    3    0    0 -0.48943388800E+02  0.64390112953E+01 -0.72298629505E+02  0.87550031422E+02  0.10000000000E+01 0.  0.
    9000005    1    3    3    0    0  0.48943388800E+02 -0.64390112953E+01 -0.33156746936E+03  0.33522366103E+03  0.10000000000E+01 0.  0.
<mgrwt>
<rscale>  0 0.12501908E+03</rscale>
<asrwt>0</asrwt>
<pdfrwt beam="2">  1        4 0.63587662E-01 0.12501908E+03</pdfrwt>
<pdfrwt beam="1">  1       -4 0.14544306E-02 0.12501908E+03</pdfrwt>
<totfact> 0.62370281E+03</totfact>
</mgrwt>
</event>
<event>
 5    1  0.3282421E-002  0.1250030E+03  0.7818608E-02  0.1235065E+00
          4   -1    0    0  501    0  0.00000000000E+00  0.00000000000E+00  0.31138085428E+02  0.31163973817E+02  0.12700000000E+01 0. -1.
         -4   -1    0    0    0  501 -0.00000000000E+00 -0.00000000000E+00 -0.12537414504E+03  0.12538057722E+03  0.12700000000E+01 0. -1.
         25    2    1    2    0    0  0.00000000000E+00  0.00000000000E+00 -0.94236059609E+02  0.15654455104E+03  0.12500304608E+03 0.  0.
    9000005    1    3    3    0    0  0.20436744525E+02 -0.57904451159E+02 -0.61660892570E+02  0.87026729591E+02  0.10000000000E+01 0.  0.
    9000005    1    3    3    0    0 -0.20436744525E+02  0.57904451159E+02 -0.32575167039E+02  0.69517821444E+02  0.10000000000E+01 0.  0.
<mgrwt>
<rscale>  0 0.12500305E+03</rscale>
<asrwt>0</asrwt>
<pdfrwt beam="1">  1        4 0.47929609E-02 0.12500305E+03</pdfrwt>
<pdfrwt beam="2">  1       -4 0.19290816E-01 0.12500305E+03</pdfrwt>
<totfact> 0.98006422E+03</totfact>
</mgrwt>
</event>
<event>
 5    1  0.3282421E-002  0.1249989E+03  0.7818608E-02  0.1235071E+00
          4   -1    0    0  501    0  0.00000000000E+00  0.00000000000E+00  0.10591727874E+02  0.10667595762E+02  0.12700000000E+01 0. -1.
         -4   -1    0    0    0  501 -0.00000000000E+00 -0.00000000000E+00 -0.36740230705E+03  0.36740450205E+03  0.12700000000E+01 0. -1.
         25    2    1    2    0    0  0.00000000000E+00  0.00000000000E+00 -0.35681057918E+03  0.37807209781E+03  0.12499888692E+03 0.  0.
    9000005    1    3    3    0    0 -0.10530488732E+02 -0.55038274258E+02 -0.94744641111E+02  0.11008019734E+03  0.10000000000E+01 0.  0.
    9000005    1    3    3    0    0  0.10530488732E+02  0.55038274258E+02 -0.26206593807E+03  0.26799190048E+03  0.10000000000E+01 0.  0.
<mgrwt>
<rscale>  0 0.12499889E+03</rscale>
<asrwt>0</asrwt>
<pdfrwt beam="1">  1        4 0.16355017E-02 0.12499889E+03</pdfrwt>
<pdfrwt beam="2">  1       -4 0.56529427E-01 0.12499889E+03</pdfrwt>
<totfact> 0.66744462E+03</totfact>
</mgrwt>
</event>
<event>
 5    1  0.3282421E-002  0.1249959E+03  0.7818608E-02  0.1235076E+00
          4   -1    0    0  501    0  0.00000000000E+00  0.00000000000E+00  0.86889332105E+02  0.86898612956E+02  0.12700000000E+01 0. -1.
         -4   -1    0    0    0  501 -0.00000000000E+00 -0.00000000000E+00 -0.44932975764E+02  0.44950920024E+02  0.12700000000E+01 0. -1.
         25    2    1    2    0    0  0.00000000000E+00  0.00000000000E+00  0.41956356341E+02  0.13184953298E+03  0.12499585397E+03 0.  0.
    9000005    1    3    3    0    0  0.56754617707E+02  0.26114919432E+02  0.19518378078E+02  0.65460237785E+02  0.10000000000E+01 0.  0.
    9000005    1    3    3    0    0 -0.56754617707E+02 -0.26114919432E+02  0.22437978263E+02  0.66389295195E+02  0.10000000000E+01 0.  0.
<mgrwt>
<rscale>  0 0.12499585E+03</rscale>
<asrwt>0</asrwt>
<pdfrwt beam="1">  1        4 0.13369684E-01 0.12499585E+03</pdfrwt>
<pdfrwt beam="2">  1       -4 0.69148598E-02 0.12499585E+03</pdfrwt>
<totfact> 0.10305875E+04</totfact>
</mgrwt>
</event>
<event>
 5    1  0.3282421E-002  0.1250004E+03  0.7818608E-02  0.1235069E+00
          4   -1    0    0  501    0  0.00000000000E+00  0.00000000000E+00  0.12879215330E+03  0.12879841479E+03  0.12700000000E+01 0.  1.
         -4   -1    0    0    0  501 -0.00000000000E+00 -0.00000000000E+00 -0.30309767209E+02  0.30336362476E+02  0.12700000000E+01 0.  1.
         25    2    1    2    0    0  0.00000000000E+00  0.00000000000E+00  0.98482386091E+02  0.15913477726E+03  0.12500038786E+03 0.  0.
    9000005    1    3    3    0    0  0.42523784925E+02 -0.24662445385E+02  0.12022424238E+00  0.49168312464E+02  0.10000000000E+01 0.  0.
    9000005    1    3    3    0    0 -0.42523784925E+02  0.24662445385E+02  0.98362161849E+02  0.10996646480E+03  0.10000000000E+01 0.  0.
<mgrwt>
<rscale>  0 0.12500039E+03</rscale>
<asrwt>0</asrwt>
<pdfrwt beam="1">  1        4 0.19816704E-01 0.12500039E+03</pdfrwt>
<pdfrwt beam="2">  1       -4 0.46655687E-02 0.12500039E+03</pdfrwt>
<totfact> 0.97509003E+03</totfact>
</mgrwt>
</event>
<event>
 5    1  0.3282421E-002  0.1249982E+03  0.7818608E-02  0.1235072E+00
          4   -1    0    0  501    0  0.00000000000E+00  0.00000000000E+00  0.51083370066E+03  0.51083527935E+03  0.12700000000E+01 0.  1.
         -4   -1    0    0    0  501 -0.00000000000E+00 -0.00000000000E+00 -0.75922585915E+01  0.76977458077E+01  0.12700000000E+01 0.  1.
         25    2    1    2    0    0  0.00000000000E+00  0.00000000000E+00  0.50324144207E+03  0.51853302516E+03  0.12499819665E+03 0.  0.
    9000005    1    3    3    0    0  0.30481009911E+02  0.53567020589E+02  0.29445498044E+03  0.30083758602E+03  0.10000000000E+01 0.  0.
    9000005    1    3    3    0    0 -0.30481009911E+02 -0.53567020589E+02  0.20878646163E+03  0.21769543913E+03  0.10000000000E+01 0.  0.
<mgrwt>
<rscale>  0 0.12499820E+03</rscale>
<asrwt>0</asrwt>
<pdfrwt beam="1">  1        4 0.78598068E-01 0.12499820E+03</pdfrwt>
<pdfrwt beam="2">  1       -4 0.11762751E-02 0.12499820E+03</pdfrwt>
<totfact> 0.54456709E+03</totfact>
</mgrwt>
</event>
<event>
 5    1  0.3282421E-002  0.1249425E+03  0.7818608E-02  0.1235159E+00
         -4   -1    0    0    0  501 -0.00000000000E+00  0.00000000000E+00  0.44101527981E+02  0.44119810406E+02  0.12700000000E+01 0.  1.
          4   -1    0    0  501    0  0.00000000000E+00 -0.00000000000E+00 -0.88451429727E+02  0.88460546691E+02  0.12700000000E+01 0.  1.
         25    2    1    2    0    0  0.00000000000E+00  0.00000000000E+00 -0.44349901747E+02  0.13258035710E+03  0.12494253600E+03 0.  0.
    9000005    1    3    3    0    0 -0.85997617290E+00  0.62034792323E+02 -0.29871207214E+02  0.68864679176E+02  0.10000000000E+01 0.  0.
    9000005    1    3    3    0    0  0.85997617290E+00 -0.62034792323E+02 -0.14478694532E+02  0.63715677921E+02  0.10000000000E+01 0.  0.
<mgrwt>
<rscale>  0 0.12494254E+03</rscale>
<asrwt>0</asrwt>
<pdfrwt beam="2">  1        4 0.13610020E-01 0.12494254E+03</pdfrwt>
<pdfrwt beam="1">  1       -4 0.67869581E-02 0.12494254E+03</pdfrwt>
<totfact> 0.10302676E+04</totfact>
</mgrwt>
</event>
<event>
 5    1  0.3282421E-002  0.1250008E+03  0.7818608E-02  0.1235068E+00
          4   -1    0    0  501    0  0.00000000000E+00  0.00000000000E+00  0.41532547160E+01  0.43430893078E+01  0.12700000000E+01 0. -1.
         -4   -1    0    0    0  501 -0.00000000000E+00 -0.00000000000E+00 -0.91933490566E+03  0.91933578287E+03  0.12700000000E+01 0. -1.
         25    2    1    2    0    0  0.00000000000E+00  0.00000000000E+00 -0.91518165095E+03  0.92367887218E+03  0.12500081873E+03 0.  0.
    9000005    1    3    3    0    0  0.47226663420E+02  0.40061226686E+02 -0.39574846977E+03  0.40056598825E+03  0.10000000000E+01 0.  0.
    9000005    1    3    3    0    0 -0.47226663420E+02 -0.40061226686E+02 -0.51943318118E+03  0.52311288392E+03  0.10000000000E+01 0.  0.
<mgrwt>
<rscale>  0 0.12500082E+03</rscale>
<asrwt>0</asrwt>
<pdfrwt beam="1">  1        4 0.65363314E-03 0.12500082E+03</pdfrwt>
<pdfrwt beam="2">  1       -4 0.14145065E+00 0.12500082E+03</pdfrwt>
<totfact> 0.33268723E+03</totfact>
</mgrwt>
</event>
<event>
 5    1  0.3282421E-002  0.1249989E+03  0.7818608E-02  0.1235071E+00
         -4   -1    0    0    0  501 -0.00000000000E+00  0.00000000000E+00  0.36629008385E+02  0.36651018475E+02  0.12700000000E+01 0. -1.
          4   -1    0    0  501    0  0.00000000000E+00 -0.00000000000E+00 -0.10658386688E+03  0.10659143295E+03  0.12700000000E+01 0. -1.
         25    2    1    2    0    0  0.00000000000E+00  0.00000000000E+00 -0.69954858494E+02  0.14324245143E+03  0.12499887065E+03 0.  0.
    9000005    1    3    3    0    0 -0.61622921056E+02  0.85291546187E+01 -0.28193198529E+02  0.68308032627E+02  0.10000000000E+01 0.  0.
    9000005    1    3    3    0    0  0.61622921056E+02 -0.85291546187E+01 -0.41761659965E+02  0.74934418801E+02  0.10000000000E+01 0.  0.
<mgrwt>
<rscale>  0 0.12499887E+03</rscale>
<asrwt>0</asrwt>
<pdfrwt beam="2">  1        4 0.16399793E-01 0.12499887E+03</pdfrwt>
<pdfrwt beam="1">  1       -4 0.56375072E-02 0.12499887E+03</pdfrwt>
<totfact> 0.10067077E+04</totfact>
</mgrwt>
</event>
<event>
 5    1  0.3282421E-002  0.1249963E+03  0.7818608E-02  0.1235075E+00
         -4   -1    0    0    0  501 -0.00000000000E+00  0.00000000000E+00  0.28478038700E+03  0.28478321882E+03  0.12700000000E+01 0. -1.
          4   -1    0    0  501    0  0.00000000000E+00 -0.00000000000E+00 -0.13683593765E+02  0.13742402931E+02  0.12700000000E+01 0. -1.
         25    2    1    2    0    0  0.00000000000E+00  0.00000000000E+00  0.27109679324E+03  0.29852562175E+03  0.12499630210E+03 0.  0.
    9000005    1    3    3    0    0 -0.55914686761E+02 -0.27050958045E+02  0.11920792058E+03  0.13442371389E+03  0.10000000000E+01 0.  0.
    9000005    1    3    3    0    0  0.55914686761E+02  0.27050958045E+02  0.15188887266E+03  0.16410190787E+03  0.10000000000E+01 0.  0.
<mgrwt>
<rscale>  0 0.12499630E+03</rscale>
<asrwt>0</asrwt>
<pdfrwt beam="2">  1        4 0.21099101E-02 0.12499630E+03</pdfrwt>
<pdfrwt beam="1">  1       -4 0.43817104E-01 0.12499630E+03</pdfrwt>
<totfact> 0.75790380E+03</totfact>
</mgrwt>
</event>
<event>
 5    1  0.3282421E-002  0.1249995E+03  0.7818608E-02  0.1235070E+00
          4   -1    0    0  501    0  0.00000000000E+00  0.00000000000E+00  0.19293386844E+02  0.19335140959E+02  0.12700000000E+01 0.  1.
         -4   -1    0    0    0  501 -0.00000000000E+00 -0.00000000000E+00 -0.20220149855E+03  0.20220548685E+03  0.12700000000E+01 0.  1.
         25    2    1    2    0    0  0.00000000000E+00  0.00000000000E+00 -0.18290811170E+03  0.22154062781E+03  0.12499948978E+03 0.  0.
    9000005    1    3    3    0    0 -0.31043046465E+01 -0.14328326608E+02 -0.19911912623E+03  0.19966062226E+03  0.10000000000E+01 0.  0.
    9000005    1    3    3    0    0  0.31043046465E+01  0.14328326608E+02  0.16211014532E+02  0.21880005550E+02  0.10000000000E+01 0.  0.
<mgrwt>
<rscale>  0 0.12499949E+03</rscale>
<asrwt>0</asrwt>
<pdfrwt beam="1">  1        4 0.29717321E-02 0.12499949E+03</pdfrwt>
<pdfrwt beam="2">  1       -4 0.31111440E-01 0.12499949E+03</pdfrwt>
<totfact> 0.86626139E+03</totfact>
</mgrwt>
</event>
<event>
 5    1  0.3282421E-002  0.1249994E+03  0.7818608E-02  0.1235070E+00
          4   -1    0    0  501    0  0.00000000000E+00  0.00000000000E+00  0.55178342732E+03  0.55178488886E+03  0.12700000000E+01 0.  1.
         -4   -1    0    0    0  501 -0.00000000000E+00 -0.00000000000E+00 -0.70208100331E+01  0.71347511183E+01  0.12700000000E+01 0.  1.
         25    2    1    2    0    0  0.00000000000E+00  0.00000000000E+00  0.54476261729E+03  0.55891963997E+03  0.12499941900E+03 0.  0.
    9000005    1    3    3    0    0  0.62068242711E+02 -0.64679159073E+01  0.28715242847E+03  0.29385679823E+03  0.10000000000E+01 0.  0.
    9000005    1    3    3    0    0 -0.62068242711E+02  0.64679159073E+01  0.25761018882E+03  0.26506284175E+03  0.10000000000E+01 0.  0.
<mgrwt>
<rscale>  0 0.12499942E+03</rscale>
<asrwt>0</asrwt>
<pdfrwt beam="1">  1        4 0.84898636E-01 0.12499942E+03</pdfrwt>
<pdfrwt beam="2">  1       -4 0.10890017E-02 0.12499942E+03</pdfrwt>
<totfact> 0.51568485E+03</totfact>
</mgrwt>
</event>
<event>
 5    1  0.3282421E-002  0.1249978E+03  0.7818608E-02  0.1235073E+00
          4   -1    0    0  501    0  0.00000000000E+00  0.00000000000E+00  0.20480210595E+02  0.20519549849E+02  0.12700000000E+01 0.  1.
         -4   -1    0    0    0  501 -0.00000000000E+00 -0.00000000000E+00 -0.19050158960E+03  0.19050582286E+03  0.12700000000E+01 0.  1.
         25    2    1    2    0    0  0.00000000000E+00  0.00000000000E+00 -0.17002137901E+03  0.21102537270E+03  0.12499775440E+03 0.  0.
    9000005    1    3    3    0    0 -0.48667607574E+02 -0.72974272096E+01 -0.15003115346E+03  0.15789913071E+03  0.10000000000E+01 0.  0.
    9000005    1    3    3    0    0  0.48667607574E+02  0.72974272096E+01 -0.19990225552E+02  0.53126241995E+02  0.10000000000E+01 0.  0.
<mgrwt>
<rscale>  0 0.12499775E+03</rscale>
<asrwt>0</asrwt>
<pdfrwt beam="1">  1        4 0.31541535E-02 0.12499775E+03</pdfrwt>
<pdfrwt beam="2">  1       -4 0.29311287E-01 0.12499775E+03</pdfrwt>
<totfact> 0.88313131E+03</totfact>
</mgrwt>
</event>
<event>
 5    1  0.3282421E-002  0.1249985E+03  0.7818608E-02  0.1235072E+00
         -4   -1    0    0    0  501 -0.00000000000E+00  0.00000000000E+00  0.74717069158E+03  0.74717177092E+03  0.12700000000E+01 0. -1.
          4   -1    0    0  501    0  0.00000000000E+00 -0.00000000000E+00 -0.51496996216E+01  0.53039896486E+01  0.12700000000E+01 0. -1.
         25    2    1    2    0    0  0.00000000000E+00  0.00000000000E+00  0.74202099196E+03  0.75247576057E+03  0.12499847092E+03 0.  0.
    9000005    1    3    3    0    0  0.58060636972E+02 -0.91314371487E+01  0.24320549721E+03  0.25020858216E+03  0.10000000000E+01 0.  0.
    9000005    1    3    3    0    0 -0.58060636972E+02  0.91314371487E+01  0.49881549475E+03  0.50226717841E+03  0.10000000000E+01 0.  0.
<mgrwt>
<rscale>  0 0.12499847E+03</rscale>
<asrwt>0</asrwt>
<pdfrwt beam="2">  1        4 0.80421275E-03 0.12499847E+03</pdfrwt>
<pdfrwt beam="1">  1       -4 0.11496132E+00 0.12499847E+03</pdfrwt>
<totfact> 0.40457341E+03</totfact>
</mgrwt>
</event>
<event>
 5    1  0.3282421E-002  0.1250365E+03  0.7818608E-02  0.1235012E+00
          4   -1    0    0  501    0  0.00000000000E+00  0.00000000000E+00  0.77043768833E+03  0.77043873507E+03  0.12700000000E+01 0.  1.
         -4   -1    0    0    0  501 -0.00000000000E+00 -0.00000000000E+00 -0.49925822297E+01  0.51515800799E+01  0.12700000000E+01 0.  1.
         25    2    1    2    0    0  0.00000000000E+00  0.00000000000E+00  0.76544510610E+03  0.77559031515E+03  0.12503650069E+03 0.  0.
    9000005    1    3    3    0    0  0.45283717741E+02 -0.10060990440E+02  0.64263067787E+03  0.64430352068E+03  0.10000000000E+01 0.  0.
    9000005    1    3    3    0    0 -0.45283717741E+02  0.10060990440E+02  0.12281442823E+03  0.13128679447E+03  0.10000000000E+01 0.  0.
<mgrwt>
<rscale>  0 0.12503650E+03</rscale>
<asrwt>0</asrwt>
<pdfrwt beam="1">  1        4 0.11854111E+00 0.12503650E+03</pdfrwt>
<pdfrwt beam="2">  1       -4 0.78040117E-03 0.12503650E+03</pdfrwt>
<totfact> 0.39346549E+03</totfact>
</mgrwt>
</event>
<event>
 5    1  0.3282421E-002  0.1249977E+03  0.7818608E-02  0.1235073E+00
          4   -1    0    0  501    0  0.00000000000E+00  0.00000000000E+00  0.12832108188E+02  0.12894801299E+02  0.12700000000E+01 0. -1.
         -4   -1    0    0    0  501 -0.00000000000E+00 -0.00000000000E+00 -0.30359505586E+03  0.30359771219E+03  0.12700000000E+01 0. -1.
         25    2    1    2    0    0  0.00000000000E+00  0.00000000000E+00 -0.29076294767E+03  0.31649251348E+03  0.12499767738E+03 0.  0.
    9000005    1    3    3    0    0  0.15898757268E+02 -0.38232807927E+02 -0.26875095305E+02  0.49373969177E+02  0.10000000000E+01 0.  0.
    9000005    1    3    3    0    0 -0.15898757268E+02  0.38232807927E+02 -0.26388785237E+03  0.26711854431E+03  0.10000000000E+01 0.  0.
<mgrwt>
<rscale>  0 0.12499768E+03</rscale>
<asrwt>0</asrwt>
<pdfrwt beam="1">  1        4 0.19791976E-02 0.12499768E+03</pdfrwt>
<pdfrwt beam="2">  1       -4 0.46711953E-01 0.12499768E+03</pdfrwt>
<totfact> 0.73579036E+03</totfact>
</mgrwt>
</event>
<event>
 5    1  0.3282421E-002  0.1250040E+03  0.7818608E-02  0.1235063E+00
         -4   -1    0    0    0  501 -0.00000000000E+00  0.00000000000E+00  0.20684684840E+02  0.20723635948E+02  0.12700000000E+01 0.  1.
          4   -1    0    0  501    0  0.00000000000E+00 -0.00000000000E+00 -0.18864093833E+03  0.18864521334E+03  0.12700000000E+01 0.  1.
         25    2    1    2    0    0  0.00000000000E+00  0.00000000000E+00 -0.16795625349E+03  0.20936884928E+03  0.12500404779E+03 0.  0.
    9000005    1    3    3    0    0 -0.90922504050E+00  0.30864071076E+02 -0.17498044367E+03  0.17768672781E+03  0.10000000000E+01 0.  0.
    9000005    1    3    3    0    0  0.90922504050E+00 -0.30864071076E+02  0.70241901753E+01  0.31682121475E+02  0.10000000000E+01 0.  0.
<mgrwt>
<rscale>  0 0.12500405E+03</rscale>
<asrwt>0</asrwt>
<pdfrwt beam="2">  1        4 0.29025007E-01 0.12500405E+03</pdfrwt>
<pdfrwt beam="1">  1       -4 0.31855844E-02 0.12500405E+03</pdfrwt>
<totfact> 0.88571044E+03</totfact>
</mgrwt>
</event>
<event>
 5    1  0.3282421E-002  0.1249940E+03  0.7818608E-02  0.1235079E+00
          4   -1    0    0  501    0  0.00000000000E+00  0.00000000000E+00  0.10549388204E+04  0.10549395848E+04  0.12700000000E+01 0. -1.
         -4   -1    0    0    0  501 -0.00000000000E+00 -0.00000000000E+00 -0.35927689120E+01  0.38106283544E+01  0.12700000000E+01 0. -1.
         25    2    1    2    0    0  0.00000000000E+00  0.00000000000E+00  0.10513460515E+04  0.10587502132E+04  0.12499397579E+03 0.  0.
    9000005    1    3    3    0    0  0.95896959900E+01 -0.43853111294E+02  0.15744726094E+03  0.16372445638E+03  0.10000000000E+01 0.  0.
    9000005    1    3    3    0    0 -0.95896959900E+01  0.43853111294E+02  0.89389879051E+03  0.89502575679E+03  0.10000000000E+01 0.  0.
<mgrwt>
<rscale>  0 0.12499398E+03</rscale>
<asrwt>0</asrwt>
<pdfrwt beam="1">  1        4 0.16231500E+00 0.12499398E+03</pdfrwt>
<pdfrwt beam="2">  1       -4 0.56955124E-03 0.12499398E+03</pdfrwt>
<totfact> 0.28726912E+03</totfact>
</mgrwt>
</event>
<event>
 5    1  0.3282421E-002  0.1250336E+03  0.7818608E-02  0.1235017E+00
          4   -1    0    0  501    0  0.00000000000E+00  0.00000000000E+00  0.18081804134E+02  0.18126349349E+02  0.12700000000E+01 0.  1.
         -4   -1    0    0    0  501 -0.00000000000E+00 -0.00000000000E+00 -0.21583579065E+03  0.21583952703E+03  0.12700000000E+01 0.  1.
         25    2    1    2    0    0  0.00000000000E+00  0.00000000000E+00 -0.19775398652E+03  0.23396587637E+03  0.12503356399E+03 0.  0.
    9000005    1    3    3    0    0  0.54294167893E+02 -0.20864905094E+02 -0.56036693258E+02  0.80773212905E+02  0.10000000000E+01 0.  0.
    9000005    1    3    3    0    0 -0.54294167893E+02  0.20864905094E+02 -0.14171729326E+03  0.15319266347E+03  0.10000000000E+01 0.  0.
<mgrwt>
<rscale>  0 0.12503356E+03</rscale>
<asrwt>0</asrwt>
<pdfrwt beam="1">  1        4 0.27855301E-02 0.12503356E+03</pdfrwt>
<pdfrwt beam="2">  1       -4 0.33209218E-01 0.12503356E+03</pdfrwt>
<totfact> 0.84640950E+03</totfact>
</mgrwt>
</event>
<event>
 5    1  0.3282421E-002  0.1250069E+03  0.7818608E-02  0.1235058E+00
          4   -1    0    0  501    0  0.00000000000E+00  0.00000000000E+00  0.26504379224E+02  0.26534788826E+02  0.12700000000E+01 0.  1.
         -4   -1    0    0    0  501 -0.00000000000E+00 -0.00000000000E+00 -0.14727996405E+03  0.14728543957E+03  0.12700000000E+01 0.  1.
         25    2    1    2    0    0  0.00000000000E+00  0.00000000000E+00 -0.12077558483E+03  0.17382022840E+03  0.12500691945E+03 0.  0.
    9000005    1    3    3    0    0 -0.39914508058E+02 -0.10169665826E+02  0.49663629388E+01  0.41500058041E+02  0.10000000000E+01 0.  0.
    9000005    1    3    3    0    0  0.39914508058E+02  0.10169665826E+02 -0.12574194776E+03  0.13232017036E+03  0.10000000000E+01 0.  0.
<mgrwt>
<rscale>  0 0.12500692E+03</rscale>
<asrwt>0</asrwt>
<pdfrwt beam="1">  1        4 0.40803573E-02 0.12500692E+03</pdfrwt>
<pdfrwt beam="2">  1       -4 0.22661216E-01 0.12500692E+03</pdfrwt>
<totfact> 0.94726652E+03</totfact>
</mgrwt>
</event>
<event>
 5    1  0.3282421E-002  0.1250007E+03  0.7818608E-02  0.1235068E+00
         -4   -1    0    0    0  501 -0.00000000000E+00  0.00000000000E+00  0.60959756984E+02  0.60972984768E+02  0.12700000000E+01 0.  1.
          4   -1    0    0  501    0  0.00000000000E+00 -0.00000000000E+00 -0.64053443908E+02  0.64066032938E+02  0.12700000000E+01 0.  1.
         25    2    1    2    0    0  0.00000000000E+00  0.00000000000E+00 -0.30936869238E+01  0.12503901771E+03  0.12500074020E+03 0.  0.
    9000005    1    3    3    0    0 -0.26769926005E+02 -0.41947340775E+02  0.36268011897E+02  0.61583902307E+02  0.10000000000E+01 0.  0.
    9000005    1    3    3    0    0  0.26769926005E+02  0.41947340775E+02 -0.39361698821E+02  0.63455115400E+02  0.10000000000E+01 0.  0.
<mgrwt>
<rscale>  0 0.12500074E+03</rscale>
<asrwt>0</asrwt>
<pdfrwt beam="2">  1        4 0.98563619E-02 0.12500074E+03</pdfrwt>
<pdfrwt beam="1">  1       -4 0.93804101E-02 0.12500074E+03</pdfrwt>
<totfact> 0.10451840E+04</totfact>
</mgrwt>
</event>
<event>
 5    1  0.3282421E-002  0.1250145E+03  0.7818608E-02  0.1235047E+00
          4   -1    0    0  501    0  0.00000000000E+00  0.00000000000E+00  0.82689178742E+02  0.82698930955E+02  0.12700000000E+01 0.  1.
         -4   -1    0    0    0  501 -0.00000000000E+00 -0.00000000000E+00 -0.47230079942E+02  0.47247151780E+02  0.12700000000E+01 0.  1.
         25    2    1    2    0    0  0.00000000000E+00  0.00000000000E+00  0.35459098800E+02  0.12994608273E+03  0.12501454608E+03 0.  0.
    9000005    1    3    3    0    0 -0.22915785925E+02 -0.53148907016E+02 -0.67851061918E+01  0.58283593125E+02  0.10000000000E+01 0.  0.
    9000005    1    3    3    0    0  0.22915785925E+02  0.53148907016E+02  0.42244204992E+02  0.71662489609E+02  0.10000000000E+01 0.  0.
<mgrwt>
<rscale>  0 0.12501455E+03</rscale>
<asrwt>0</asrwt>
<pdfrwt beam="1">  1        4 0.12723475E-01 0.12501455E+03</pdfrwt>
<pdfrwt beam="2">  1       -4 0.72682296E-02 0.12501455E+03</pdfrwt>
<totfact> 0.10342265E+04</totfact>
</mgrwt>
</event>
<event>
 5    1  0.3282421E-002  0.1249810E+03  0.7818608E-02  0.1235099E+00
         -4   -1    0    0    0  501 -0.00000000000E+00  0.00000000000E+00  0.10648151295E+02  0.10723620004E+02  0.12700000000E+01 0. -1.
          4   -1    0    0  501    0  0.00000000000E+00 -0.00000000000E+00 -0.36536472372E+03  0.36536693096E+03  0.12700000000E+01 0. -1.
         25    2    1    2    0    0  0.00000000000E+00  0.00000000000E+00 -0.35471657242E+03  0.37609055096E+03  0.12498102164E+03 0.  0.
    9000005    1    3    3    0    0 -0.17737177006E+02  0.53044956095E+02 -0.93548988038E+02  0.10899902742E+03  0.10000000000E+01 0.  0.
    9000005    1    3    3    0    0  0.17737177006E+02 -0.53044956095E+02 -0.26116758438E+03  0.26709152354E+03  0.10000000000E+01 0.  0.
<mgrwt>
<rscale>  0 0.12498102E+03</rscale>
<asrwt>0</asrwt>
<pdfrwt beam="2">  1        4 0.56215923E-01 0.12498102E+03</pdfrwt>
<pdfrwt beam="1">  1       -4 0.16441525E-02 0.12498102E+03</pdfrwt>
<totfact> 0.66974621E+03</totfact>
</mgrwt>
</event>
<event>
 5    1  0.3282421E-002  0.1250004E+03  0.7818608E-02  0.1235069E+00
          4   -1    0    0  501    0  0.00000000000E+00  0.00000000000E+00  0.70061237606E+03  0.70061352713E+03  0.12700000000E+01 0. -1.
         -4   -1    0    0    0  501 -0.00000000000E+00 -0.00000000000E+00 -0.55020272577E+01  0.56466984995E+01  0.12700000000E+01 0. -1.
         25    2    1    2    0    0  0.00000000000E+00  0.00000000000E+00  0.69511034880E+03  0.70626022563E+03  0.12500043714E+03 0.  0.
    9000005    1    3    3    0    0  0.46455642054E+02  0.18125801764E+02  0.13474905805E+03  0.14368361081E+03  0.10000000000E+01 0.  0.
    9000005    1    3    3    0    0 -0.46455642054E+02 -0.18125801764E+02  0.56036129075E+03  0.56257661482E+03  0.10000000000E+01 0.  0.
<mgrwt>
<rscale>  0 0.12500044E+03</rscale>
<asrwt>0</asrwt>
<pdfrwt beam="1">  1        4 0.10779776E+00 0.12500044E+03</pdfrwt>
<pdfrwt beam="2">  1       -4 0.85768267E-03 0.12500044E+03</pdfrwt>
<totfact> 0.42757864E+03</totfact>
</mgrwt>
</event>
<event>
 5    1  0.3282421E-002  0.1250031E+03  0.7818608E-02  0.1235064E+00
         -4   -1    0    0    0  501 -0.00000000000E+00  0.00000000000E+00  0.21151516813E+03  0.21151898082E+03  0.12700000000E+01 0.  1.
          4   -1    0    0  501    0  0.00000000000E+00 -0.00000000000E+00 -0.18443041244E+02  0.18486716050E+02  0.12700000000E+01 0.  1.
         25    2    1    2    0    0  0.00000000000E+00  0.00000000000E+00  0.19307212688E+03  0.23000569687E+03  0.12500309762E+03 0.  0.
    9000005    1    3    3    0    0  0.45633162935E+02 -0.34196397236E+02  0.14357908995E+03  0.15449185809E+03  0.10000000000E+01 0.  0.
    9000005    1    3    3    0    0 -0.45633162935E+02  0.34196397236E+02  0.49493036930E+02  0.75513838784E+02  0.10000000000E+01 0.  0.
<mgrwt>
<rscale>  0 0.12500310E+03</rscale>
<asrwt>0</asrwt>
<pdfrwt beam="2">  1        4 0.28410440E-02 0.12500310E+03</pdfrwt>
<pdfrwt beam="1">  1       -4 0.32544446E-01 0.12500310E+03</pdfrwt>
<totfact> 0.85302827E+03</totfact>
</mgrwt>
</event>
<event>
 5    1  0.3282421E-002  0.1249969E+03  0.7818608E-02  0.1235074E+00
         -4   -1    0    0    0  501 -0.00000000000E+00  0.00000000000E+00  0.12419383070E+04  0.12419389564E+04  0.12700000000E+01 0. -1.
          4   -1    0    0  501    0  0.00000000000E+00 -0.00000000000E+00 -0.30162458753E+01  0.32727112889E+01  0.12700000000E+01 0. -1.
         25    2    1    2    0    0  0.00000000000E+00  0.00000000000E+00  0.12389220612E+04  0.12452116677E+04  0.12499689467E+03 0.  0.
    9000005    1    3    3    0    0 -0.56098767108E+02 -0.90339068771E+01  0.87854289675E+03  0.88037906868E+03  0.10000000000E+01 0.  0.
    9000005    1    3    3    0    0  0.56098767108E+02  0.90339068771E+01  0.36037916442E+03  0.36483259900E+03  0.10000000000E+01 0.  0.
<mgrwt>
<rscale>  0 0.12499689E+03</rscale>
<asrwt>0</asrwt>
<pdfrwt beam="2">  1        4 0.48381475E-03 0.12499689E+03</pdfrwt>
<pdfrwt beam="1">  1       -4 0.19108766E+00 0.12499689E+03</pdfrwt>
<totfact> 0.23560562E+03</totfact>
</mgrwt>
</event>
<event>
 5    1  0.3282421E-002  0.1249905E+03  0.7818608E-02  0.1235084E+00
         -4   -1    0    0    0  501 -0.00000000000E+00  0.00000000000E+00  0.47690727660E+02  0.47707634659E+02  0.12700000000E+01 0.  1.
          4   -1    0    0  501    0  0.00000000000E+00 -0.00000000000E+00 -0.81859187738E+02  0.81869038819E+02  0.12700000000E+01 0.  1.
         25    2    1    2    0    0  0.00000000000E+00  0.00000000000E+00 -0.34168460077E+02  0.12957667348E+03  0.12499052222E+03 0.  0.
    9000005    1    3    3    0    0 -0.20969703151E+02 -0.58638228510E+02 -0.22419656637E+02  0.66195251316E+02  0.10000000000E+01 0.  0.
    9000005    1    3    3    0    0  0.20969703151E+02  0.58638228510E+02 -0.11748803440E+02  0.63381422162E+02  0.10000000000E+01 0.  0.
<mgrwt>
<rscale>  0 0.12499052E+03</rscale>
<asrwt>0</asrwt>
<pdfrwt beam="2">  1        4 0.12595779E-01 0.12499052E+03</pdfrwt>
<pdfrwt beam="1">  1       -4 0.73390933E-02 0.12499052E+03</pdfrwt>
<totfact> 0.10355787E+04</totfact>
</mgrwt>
</event>
<event>
 5    1  0.3282421E-002  0.1249980E+03  0.7818608E-02  0.1235072E+00
         -4   -1    0    0    0  501 -0.00000000000E+00  0.00000000000E+00  0.15530177264E+02  0.15582018670E+02  0.12700000000E+01 0. -1.
          4   -1    0    0  501    0  0.00000000000E+00 -0.00000000000E+00 -0.25104579300E+03  0.25104900534E+03  0.12700000000E+01 0. -1.
         25    2    1    2    0    0  0.00000000000E+00  0.00000000000E+00 -0.23551561573E+03  0.26663102401E+03  0.12499799082E+03 0.  0.
    9000005    1    3    3    0    0 -0.38411322716E+02 -0.49290659710E+02 -0.11851371416E+03  0.13398320526E+03  0.10000000000E+01 0.  0.
    9000005    1    3    3    0    0  0.38411322716E+02  0.49290659710E+02 -0.11700190158E+03  0.13264781875E+03  0.10000000000E+01 0.  0.
<mgrwt>
<rscale>  0 0.12499799E+03</rscale>
<asrwt>0</asrwt>
<pdfrwt beam="2">  1        4 0.38626662E-01 0.12499799E+03</pdfrwt>
<pdfrwt beam="1">  1       -4 0.23934931E-02 0.12499799E+03</pdfrwt>
<totfact> 0.79987981E+03</totfact>
</mgrwt>
</event>
<event>
 5    1  0.3282421E-002  0.1250019E+03  0.7818608E-02  0.1235066E+00
         -4   -1    0    0    0  501 -0.00000000000E+00  0.00000000000E+00  0.21676692599E+02  0.21713864282E+02  0.12700000000E+01 0. -1.
          4   -1    0    0  501    0  0.00000000000E+00 -0.00000000000E+00 -0.18001685325E+03  0.18002133306E+03  0.12700000000E+01 0. -1.
         25    2    1    2    0    0  0.00000000000E+00  0.00000000000E+00 -0.15834016065E+03  0.20173519734E+03  0.12500193346E+03 0.  0.
    9000005    1    3    3    0    0  0.22004684629E+02 -0.71252626873E+01 -0.17286269718E+03  0.17440609964E+03  0.10000000000E+01 0.  0.
    9000005    1    3    3    0    0 -0.22004684629E+02  0.71252626873E+01  0.14522536526E+02  0.27329097701E+02  0.10000000000E+01 0.  0.
<mgrwt>
<rscale>  0 0.12500193E+03</rscale>
<asrwt>0</asrwt>
<pdfrwt beam="2">  1        4 0.27698103E-01 0.12500193E+03</pdfrwt>
<pdfrwt beam="1">  1       -4 0.33380799E-02 0.12500193E+03</pdfrwt>
<totfact> 0.89839788E+03</totfact>
</mgrwt>
</event>
<event>
 5    1  0.3282421E-002  0.1249982E+03  0.7818608E-02  0.1235072E+00
         -4   -1    0    0    0  501 -0.00000000000E+00  0.00000000000E+00  0.17801736242E+02  0.17846980507E+02  0.12700000000E+01 0. -1.
          4   -1    0    0  501    0  0.00000000000E+00 -0.00000000000E+00 -0.21909885552E+03  0.21910253625E+03  0.12700000000E+01 0. -1.
         25    2    1    2    0    0  0.00000000000E+00  0.00000000000E+00 -0.20129711928E+03  0.23694951676E+03  0.12499817303E+03 0.  0.
    9000005    1    3    3    0    0 -0.52868505583E+02  0.32702400007E+02 -0.88568516734E+02  0.10821232834E+03  0.10000000000E+01 0.  0.
    9000005    1    3    3    0    0  0.52868505583E+02 -0.32702400007E+02 -0.11272860255E+03  0.12873718842E+03  0.10000000000E+01 0.  0.
<mgrwt>
<rscale>  0 0.12499817E+03</rscale>
<asrwt>0</asrwt>
<pdfrwt beam="2">  1        4 0.33711278E-01 0.12499817E+03</pdfrwt>
<pdfrwt beam="1">  1       -4 0.27424923E-02 0.12499817E+03</pdfrwt>
<totfact> 0.84257224E+03</totfact>
</mgrwt>
</event>
<event>
 5    1  0.3282421E-002  0.1249985E+03  0.7818608E-02  0.1235072E+00
         -4   -1    0    0    0  501 -0.00000000000E+00  0.00000000000E+00  0.54133522808E+02  0.54148418182E+02  0.12700000000E+01 0.  1.
          4   -1    0    0  501    0  0.00000000000E+00 -0.00000000000E+00 -0.72127446874E+02  0.72138626911E+02  0.12700000000E+01 0.  1.
         25    2    1    2    0    0  0.00000000000E+00  0.00000000000E+00 -0.17993924066E+02  0.12628704509E+03  0.12499854581E+03 0.  0.
    9000005    1    3    3    0    0 -0.31372725396E+02  0.28893177345E+01  0.45527515075E+02  0.55374639363E+02  0.10000000000E+01 0.  0.
    9000005    1    3    3    0    0  0.31372725396E+02 -0.28893177345E+01 -0.63521439141E+02  0.70912405729E+02  0.10000000000E+01 0.  0.
<mgrwt>
<rscale>  0 0.12499855E+03</rscale>
<asrwt>0</asrwt>
<pdfrwt beam="2">  1        4 0.11098536E-01 0.12499855E+03</pdfrwt>
<pdfrwt beam="1">  1       -4 0.83302400E-02 0.12499855E+03</pdfrwt>
<totfact> 0.10425018E+04</totfact>
</mgrwt>
</event>
<event>
 5    1  0.3282421E-002  0.1250041E+03  0.7818608E-02  0.1235063E+00
          4   -1    0    0  501    0  0.00000000000E+00  0.00000000000E+00  0.69885099403E+02  0.69896638106E+02  0.12700000000E+01 0. -1.
         -4   -1    0    0    0  501 -0.00000000000E+00 -0.00000000000E+00 -0.55875616587E+02  0.55890047673E+02  0.12700000000E+01 0. -1.
         25    2    1    2    0    0  0.00000000000E+00  0.00000000000E+00  0.14009482816E+02  0.12578668578E+03  0.12500409878E+03 0.  0.
    9000005    1    3    3    0    0  0.42395954423E+02  0.40466443437E+02  0.28832852868E+02  0.65324447188E+02  0.10000000000E+01 0.  0.
    9000005    1    3    3    0    0 -0.42395954423E+02 -0.40466443437E+02 -0.14823370052E+02  0.60462238592E+02  0.10000000000E+01 0.  0.
<mgrwt>
<rscale>  0 0.12500410E+03</rscale>
<asrwt>0</asrwt>
<pdfrwt beam="1">  1        4 0.10753551E-01 0.12500410E+03</pdfrwt>
<pdfrwt beam="2">  1       -4 0.85982463E-02 0.12500410E+03</pdfrwt>
<totfact> 0.10434673E+04</totfact>
</mgrwt>
</event>
<event>
 5    1  0.3282421E-002  0.1249974E+03  0.7818608E-02  0.1235073E+00
         -4   -1    0    0    0  501 -0.00000000000E+00  0.00000000000E+00  0.17918430607E+03  0.17918880669E+03  0.12700000000E+01 0.  1.
          4   -1    0    0  501    0  0.00000000000E+00 -0.00000000000E+00 -0.21776002766E+02  0.21813005214E+02  0.12700000000E+01 0.  1.
         25    2    1    2    0    0  0.00000000000E+00  0.00000000000E+00  0.15740830331E+03  0.20100181191E+03  0.12499741773E+03 0.  0.
    9000005    1    3    3    0    0 -0.58510598674E+02 -0.17410030035E+02  0.10018765147E+03  0.11732503915E+03  0.10000000000E+01 0.  0.
    9000005    1    3    3    0    0  0.58510598674E+02  0.17410030035E+02  0.57220651835E+02  0.83676772760E+02  0.10000000000E+01 0.  0.
<mgrwt>
<rscale>  0 0.12499742E+03</rscale>
<asrwt>0</asrwt>
<pdfrwt beam="2">  1        4 0.33533470E-02 0.12499742E+03</pdfrwt>
<pdfrwt beam="1">  1       -4 0.27570008E-01 0.12499742E+03</pdfrwt>
<totfact> 0.89972016E+03</totfact>
</mgrwt>
</event>
<event>
 5    1  0.3282421E-002  0.1249984E+03  0.7818608E-02  0.1235072E+00
         -4   -1    0    0    0  501 -0.00000000000E+00  0.00000000000E+00  0.17588669242E+02  0.17634460177E+02  0.12700000000E+01 0.  1.
          4   -1    0    0  501    0  0.00000000000E+00 -0.00000000000E+00 -0.22174683127E+03  0.22175046804E+03  0.12700000000E+01 0.  1.
         25    2    1    2    0    0  0.00000000000E+00  0.00000000000E+00 -0.20415816202E+03  0.23938492822E+03  0.12499835494E+03 0.  0.
    9000005    1    3    3    0    0 -0.18267302731E+02 -0.47961614817E+02 -0.33799857527E+02  0.61460891742E+02  0.10000000000E+01 0.  0.
    9000005    1    3    3    0    0  0.18267302731E+02  0.47961614817E+02 -0.17035830450E+03  0.17792403648E+03  0.10000000000E+01 0.  0.
<mgrwt>
<rscale>  0 0.12499835E+03</rscale>
<asrwt>0</asrwt>
<pdfrwt beam="2">  1        4 0.34118697E-01 0.12499835E+03</pdfrwt>
<pdfrwt beam="1">  1       -4 0.27097514E-02 0.12499835E+03</pdfrwt>
<totfact> 0.83892135E+03</totfact>
</mgrwt>
</event>
<event>
 5    1  0.3282421E-002  0.1249951E+03  0.7818608E-02  0.1235077E+00
         -4   -1    0    0    0  501 -0.00000000000E+00  0.00000000000E+00  0.31095544114E+02  0.31121467892E+02  0.12700000000E+01 0. -1.
          4   -1    0    0  501    0  0.00000000000E+00 -0.00000000000E+00 -0.12552956394E+03  0.12553598816E+03  0.12700000000E+01 0. -1.
         25    2    1    2    0    0  0.00000000000E+00  0.00000000000E+00 -0.94434019823E+02  0.15665745605E+03  0.12499509765E+03 0.  0.
    9000005    1    3    3    0    0  0.37072467345E+02 -0.35756155340E+02 -0.28691224041E+01  0.51595565150E+02  0.10000000000E+01 0.  0.
    9000005    1    3    3    0    0 -0.37072467345E+02  0.35756155340E+02 -0.91564897419E+02  0.10506189090E+03  0.10000000000E+01 0.  0.
<mgrwt>
<rscale>  0 0.12499510E+03</rscale>
<asrwt>0</asrwt>
<pdfrwt beam="2">  1        4 0.19314729E-01 0.12499510E+03</pdfrwt>
<pdfrwt beam="1">  1       -4 0.47864182E-02 0.12499510E+03</pdfrwt>
<totfact> 0.98001901E+03</totfact>
</mgrwt>
</event>
<event>
 5    1  0.3282421E-002  0.1250008E+03  0.7818608E-02  0.1235068E+00
          4   -1    0    0  501    0  0.00000000000E+00  0.00000000000E+00  0.18981961054E+02  0.19024398689E+02  0.12700000000E+01 0. -1.
         -4   -1    0    0    0  501 -0.00000000000E+00 -0.00000000000E+00 -0.20551578334E+03  0.20551970733E+03  0.12700000000E+01 0. -1.
         25    2    1    2    0    0  0.00000000000E+00  0.00000000000E+00 -0.18653382229E+03  0.22454410602E+03  0.12500075477E+03 0.  0.
    9000005    1    3    3    0    0 -0.34160216881E+02 -0.48940131828E+02 -0.12654727999E+03  0.13991880143E+03  0.10000000000E+01 0.  0.
    9000005    1    3    3    0    0  0.34160216881E+02  0.48940131828E+02 -0.59986542299E+02  0.84625304594E+02  0.10000000000E+01 0.  0.
<mgrwt>
<rscale>  0 0.12500075E+03</rscale>
<asrwt>0</asrwt>
<pdfrwt beam="1">  1        4 0.29238681E-02 0.12500075E+03</pdfrwt>
<pdfrwt beam="2">  1       -4 0.31621378E-01 0.12500075E+03</pdfrwt>
<totfact> 0.86152921E+03</totfact>
</mgrwt>
</event>
<event>
 5    1  0.3282421E-002  0.1250001E+03  0.7818608E-02  0.1235069E+00
         -4   -1    0    0    0  501 -0.00000000000E+00  0.00000000000E+00  0.11951081067E+03  0.11951755840E+03  0.12700000000E+01 0.  1.
          4   -1    0    0  501    0  0.00000000000E+00 -0.00000000000E+00 -0.32665345299E+02  0.32690024220E+02  0.12700000000E+01 0.  1.
         25    2    1    2    0    0  0.00000000000E+00  0.00000000000E+00  0.86845465367E+02  0.15220758262E+03  0.12500005341E+03 0.  0.
    9000005    1    3    3    0    0  0.61294352595E+02 -0.46407947877E+01  0.57129860026E+02  0.83924701626E+02  0.10000000000E+01 0.  0.
    9000005    1    3    3    0    0 -0.61294352595E+02  0.46407947877E+01  0.29715605340E+02  0.68282880995E+02  0.10000000000E+01 0.  0.
<mgrwt>
<rscale>  0 0.12500005E+03</rscale>
<asrwt>0</asrwt>
<pdfrwt beam="2">  1        4 0.50278552E-02 0.12500005E+03</pdfrwt>
<pdfrwt beam="1">  1       -4 0.18388696E-01 0.12500005E+03</pdfrwt>
<totfact> 0.98865337E+03</totfact>
</mgrwt>
</event>
<event>
 5    1  0.3282421E-002  0.1249941E+03  0.7818608E-02  0.1235079E+00
          4   -1    0    0  501    0  0.00000000000E+00  0.00000000000E+00  0.81074626951E+01  0.82063299564E+01  0.12700000000E+01 0. -1.
         -4   -1    0    0    0  501 -0.00000000000E+00 -0.00000000000E+00 -0.47874429576E+03  0.47874598027E+03  0.12700000000E+01 0. -1.
         25    2    1    2    0    0  0.00000000000E+00  0.00000000000E+00 -0.47063683307E+03  0.48695231023E+03  0.12499409504E+03 0.  0.
    9000005    1    3    3    0    0  0.36637541348E+02  0.37731494309E+02 -0.10384412300E+03  0.11640694559E+03  0.10000000000E+01 0.  0.
    9000005    1    3    3    0    0 -0.36637541348E+02 -0.37731494309E+02 -0.36679271007E+03  0.37054536464E+03  0.10000000000E+01 0.  0.
<mgrwt>
<rscale>  0 0.12499410E+03</rscale>
<asrwt>0</asrwt>
<pdfrwt beam="1">  1        4 0.12550371E-02 0.12499410E+03</pdfrwt>
<pdfrwt beam="2">  1       -4 0.73660681E-01 0.12499410E+03</pdfrwt>
<totfact> 0.56898511E+03</totfact>
</mgrwt>
</event>
<event>
 5    1  0.3282421E-002  0.1250001E+03  0.7818608E-02  0.1235069E+00
         -4   -1    0    0    0  501 -0.00000000000E+00  0.00000000000E+00  0.81585686283E+02  0.81595570384E+02  0.12700000000E+01 0.  1.
          4   -1    0    0  501    0  0.00000000000E+00 -0.00000000000E+00 -0.47857995613E+02  0.47874843541E+02  0.12700000000E+01 0.  1.
         25    2    1    2    0    0  0.00000000000E+00  0.00000000000E+00  0.33727690670E+02  0.12947041392E+03  0.12500012386E+03 0.  0.
    9000005    1    3    3    0    0  0.35796507661E+02  0.33475067588E+02  0.57022683070E+02  0.75196785139E+02  0.10000000000E+01 0.  0.
    9000005    1    3    3    0    0 -0.35796507661E+02 -0.33475067588E+02 -0.23294992399E+02  0.54273628786E+02  0.10000000000E+01 0.  0.
<mgrwt>
<rscale>  0 0.12500012E+03</rscale>
<asrwt>0</asrwt>
<pdfrwt beam="2">  1        4 0.73648250E-02 0.12500012E+03</pdfrwt>
<pdfrwt beam="1">  1       -4 0.12553700E-01 0.12500012E+03</pdfrwt>
<totfact> 0.10355820E+04</totfact>
</mgrwt>
</event>
<event>
 5    1  0.3282421E-002  0.1250032E+03  0.7818608E-02  0.1235064E+00
         -4   -1    0    0    0  501 -0.00000000000E+00  0.00000000000E+00  0.63194876441E+01  0.64458377333E+01  0.12700000000E+01 0.  1.
          4   -1    0    0  501    0  0.00000000000E+00 -0.00000000000E+00 -0.61191354442E+03  0.61191486234E+03  0.12700000000E+01 0.  1.
         25    2    1    2    0    0  0.00000000000E+00  0.00000000000E+00 -0.60559405678E+03  0.61836070007E+03  0.12500317510E+03 0.  0.
    9000005    1    3    3    0    0  0.21669897614E+01 -0.15627395488E+02 -0.36698814494E+01  0.16228966825E+02  0.10000000000E+01 0.  0.
    9000005    1    3    3    0    0 -0.21669897614E+01  0.15627395488E+02 -0.60192417533E+03  0.60213173325E+03  0.10000000000E+01 0.  0.
<mgrwt>
<rscale>  0 0.12500318E+03</rscale>
<asrwt>0</asrwt>
<pdfrwt beam="2">  1        4 0.94150320E-01 0.12500318E+03</pdfrwt>
<pdfrwt beam="1">  1       -4 0.98204997E-03 0.12500318E+03</pdfrwt>
<totfact> 0.47725464E+03</totfact>
</mgrwt>
</event>
<event>
 5    1  0.3282421E-002  0.1250058E+03  0.7818608E-02  0.1235060E+00
         -4   -1    0    0    0  501 -0.00000000000E+00  0.00000000000E+00  0.87335571797E+01  0.88254133621E+01  0.12700000000E+01 0.  1.
          4   -1    0    0  501    0  0.00000000000E+00 -0.00000000000E+00 -0.44487791125E+03  0.44487972399E+03  0.12700000000E+01 0.  1.
         25    2    1    2    0    0  0.00000000000E+00  0.00000000000E+00 -0.43614435407E+03  0.45370513735E+03  0.12500581616E+03 0.  0.
    9000005    1    3    3    0    0 -0.33059524027E+02  0.52180815710E+02 -0.25247449307E+03  0.25992333352E+03  0.10000000000E+01 0.  0.
    9000005    1    3    3    0    0  0.33059524027E+02 -0.52180815710E+02 -0.18366986100E+03  0.19378180383E+03  0.10000000000E+01 0.  0.
<mgrwt>
<rscale>  0 0.12500582E+03</rscale>
<asrwt>0</asrwt>
<pdfrwt beam="2">  1        4 0.68449943E-01 0.12500582E+03</pdfrwt>
<pdfrwt beam="1">  1       -4 0.13508298E-02 0.12500582E+03</pdfrwt>
<totfact> 0.59636526E+03</totfact>
</mgrwt>
</event>
<event>
 5    1  0.3282421E-002  0.1250031E+03  0.7818608E-02  0.1235064E+00
         -4   -1    0    0    0  501 -0.00000000000E+00  0.00000000000E+00  0.17645845438E+02  0.17691488384E+02  0.12700000000E+01 0. -1.
          4   -1    0    0  501    0  0.00000000000E+00 -0.00000000000E+00 -0.22104712844E+03  0.22105077673E+03  0.12700000000E+01 0. -1.
         25    2    1    2    0    0  0.00000000000E+00  0.00000000000E+00 -0.20340128300E+03  0.23874226511E+03  0.12500314885E+03 0.  0.
    9000005    1    3    3    0    0 -0.40636791826E+02  0.38161297672E+02 -0.47754672660E+02  0.73410777483E+02  0.10000000000E+01 0.  0.
    9000005    1    3    3    0    0  0.40636791826E+02 -0.38161297672E+02 -0.15564661034E+03  0.16533148763E+03  0.10000000000E+01 0.  0.
<mgrwt>
<rscale>  0 0.12500315E+03</rscale>
<asrwt>0</asrwt>
<pdfrwt beam="2">  1        4 0.34011040E-01 0.12500315E+03</pdfrwt>
<pdfrwt beam="1">  1       -4 0.27185372E-02 0.12500315E+03</pdfrwt>
<totfact> 0.83979147E+03</totfact>
</mgrwt>
</event>
<event>
 5    1  0.3282421E-002  0.1250120E+03  0.7818608E-02  0.1235051E+00
          4   -1    0    0  501    0  0.00000000000E+00  0.00000000000E+00  0.15368940716E+02  0.15421324156E+02  0.12700000000E+01 0. -1.
         -4   -1    0    0    0  501 -0.00000000000E+00 -0.00000000000E+00 -0.25372750585E+03  0.25373068424E+03  0.12700000000E+01 0. -1.
         25    2    1    2    0    0  0.00000000000E+00  0.00000000000E+00 -0.23835856513E+03  0.26915200839E+03  0.12501199163E+03 0.  0.
    9000005    1    3    3    0    0  0.33662393508E+01 -0.47185088940E+02 -0.20711688233E+03  0.21245274094E+03  0.10000000000E+01 0.  0.
    9000005    1    3    3    0    0 -0.33662393508E+01  0.47185088940E+02 -0.31241682798E+02  0.56699267453E+02  0.10000000000E+01 0.  0.
<mgrwt>
<rscale>  0 0.12501199E+03</rscale>
<asrwt>0</asrwt>
<pdfrwt beam="1">  1        4 0.23687266E-02 0.12501199E+03</pdfrwt>
<pdfrwt beam="2">  1       -4 0.39039272E-01 0.12501199E+03</pdfrwt>
<totfact> 0.79617379E+03</totfact>
</mgrwt>
</event>
<event>
 5    1  0.3282421E-002  0.1250001E+03  0.7818608E-02  0.1235069E+00
          4   -1    0    0  501    0  0.00000000000E+00  0.00000000000E+00  0.18978658593E+03  0.18979083513E+03  0.12700000000E+01 0.  1.
         -4   -1    0    0    0  501 -0.00000000000E+00 -0.00000000000E+00 -0.20558299115E+02  0.20597489228E+02  0.12700000000E+01 0.  1.
         25    2    1    2    0    0  0.00000000000E+00  0.00000000000E+00  0.16922828682E+03  0.21038832436E+03  0.12500013587E+03 0.  0.
    9000005    1    3    3    0    0 -0.55856892175E+02 -0.24096987250E+02  0.60539196526E+02  0.85829199658E+02  0.10000000000E+01 0.  0.
    9000005    1    3    3    0    0  0.55856892175E+02  0.24096987250E+02  0.10868909029E+03  0.12455912470E+03  0.10000000000E+01 0.  0.
<mgrwt>
<rscale>  0 0.12500014E+03</rscale>
<asrwt>0</asrwt>
<pdfrwt beam="1">  1        4 0.29201277E-01 0.12500014E+03</pdfrwt>
<pdfrwt beam="2">  1       -4 0.31661568E-02 0.12500014E+03</pdfrwt>
<totfact> 0.88412233E+03</totfact>
</mgrwt>
</event>
<event>
 5    1  0.3282421E-002  0.1249997E+03  0.7818608E-02  0.1235070E+00
          4   -1    0    0  501    0  0.00000000000E+00  0.00000000000E+00  0.14995267007E+03  0.14995804800E+03  0.12700000000E+01 0. -1.
         -4   -1    0    0    0  501 -0.00000000000E+00 -0.00000000000E+00 -0.26028445323E+02  0.26059410314E+02  0.12700000000E+01 0. -1.
         25    2    1    2    0    0  0.00000000000E+00  0.00000000000E+00  0.12392422474E+03  0.17601745831E+03  0.12499972861E+03 0.  0.
    9000005    1    3    3    0    0 -0.60812203355E+02  0.74581100281E+01  0.79293458201E+02  0.10021077784E+03  0.10000000000E+01 0.  0.
    9000005    1    3    3    0    0  0.60812203355E+02 -0.74581100281E+01  0.44630766542E+02  0.75806680472E+02  0.10000000000E+01 0.  0.
<mgrwt>
<rscale>  0 0.12499973E+03</rscale>
<asrwt>0</asrwt>
<pdfrwt beam="1">  1        4 0.23072437E-01 0.12499973E+03</pdfrwt>
<pdfrwt beam="2">  1       -4 0.40071718E-02 0.12499973E+03</pdfrwt>
<totfact> 0.94339399E+03</totfact>
</mgrwt>
</event>
<event>
 5    1  0.3282421E-002  0.1249997E+03  0.7818608E-02  0.1235070E+00
         -4   -1    0    0    0  501 -0.00000000000E+00  0.00000000000E+00  0.11585517185E+02  0.11654917780E+02  0.12700000000E+01 0. -1.
          4   -1    0    0  501    0  0.00000000000E+00 -0.00000000000E+00 -0.33608745173E+03  0.33608985125E+03  0.12700000000E+01 0. -1.
         25    2    1    2    0    0  0.00000000000E+00  0.00000000000E+00 -0.32450193454E+03  0.34774476902E+03  0.12499967544E+03 0.  0.
    9000005    1    3    3    0    0 -0.37693062874E+02 -0.45308447342E+02 -0.22004674660E+03  0.22780516473E+03  0.10000000000E+01 0.  0.
    9000005    1    3    3    0    0  0.37693062874E+02  0.45308447342E+02 -0.10445518794E+03  0.11993960429E+03  0.10000000000E+01 0.  0.
<mgrwt>
<rscale>  0 0.12499968E+03</rscale>
<asrwt>0</asrwt>
<pdfrwt beam="2">  1        4 0.51711277E-01 0.12499968E+03</pdfrwt>
<pdfrwt beam="1">  1       -4 0.17879106E-02 0.12499968E+03</pdfrwt>
<totfact> 0.69973879E+03</totfact>
</mgrwt>
</event>
<event>
 5    1  0.3282421E-002  0.1250183E+03  0.7818608E-02  0.1235041E+00
          4   -1    0    0  501    0  0.00000000000E+00  0.00000000000E+00  0.18739927000E+02  0.18782911488E+02  0.12700000000E+01 0. -1.
         -4   -1    0    0    0  501 -0.00000000000E+00 -0.00000000000E+00 -0.20822252713E+03  0.20822640012E+03  0.12700000000E+01 0. -1.
         25    2    1    2    0    0  0.00000000000E+00  0.00000000000E+00 -0.18948260013E+03  0.22700931161E+03  0.12501828587E+03 0.  0.
    9000005    1    3    3    0    0 -0.47249583028E+02  0.38730278990E+02 -0.11868212836E+03  0.13348784663E+03  0.10000000000E+01 0.  0.
    9000005    1    3    3    0    0  0.47249583028E+02 -0.38730278990E+02 -0.70800471774E+02  0.93521464972E+02  0.10000000000E+01 0.  0.
<mgrwt>
<rscale>  0 0.12501829E+03</rscale>
<asrwt>0</asrwt>
<pdfrwt beam="1">  1        4 0.28866703E-02 0.12501829E+03</pdfrwt>
<pdfrwt beam="2">  1       -4 0.32037838E-01 0.12501829E+03</pdfrwt>
<totfact> 0.85735953E+03</totfact>
</mgrwt>
</event>
<event>
 5    1  0.3282421E-002  0.1250212E+03  0.7818608E-02  0.1235036E+00
          4   -1    0    0  501    0  0.00000000000E+00  0.00000000000E+00  0.39994566203E+02  0.40014725112E+02  0.12700000000E+01 0.  1.
         -4   -1    0    0    0  501 -0.00000000000E+00 -0.00000000000E+00 -0.97653815661E+02  0.97662073566E+02  0.12700000000E+01 0.  1.
         25    2    1    2    0    0  0.00000000000E+00  0.00000000000E+00 -0.57659249458E+02  0.13767679868E+03  0.12502124558E+03 0.  0.
    9000005    1    3    3    0    0  0.30544665971E+02 -0.43996657997E+02 -0.64307184212E+02  0.83696454378E+02  0.10000000000E+01 0.  0.
    9000005    1    3    3    0    0 -0.30544665971E+02  0.43996657997E+02  0.66479347544E+01  0.53980344299E+02  0.10000000000E+01 0.  0.
<mgrwt>
<rscale>  0 0.12502125E+03</rscale>
<asrwt>0</asrwt>
<pdfrwt beam="1">  1        4 0.61551961E-02 0.12502125E+03</pdfrwt>
<pdfrwt beam="2">  1       -4 0.15025850E-01 0.12502125E+03</pdfrwt>
<totfact> 0.10177078E+04</totfact>
</mgrwt>
</event>
<event>
 5    1  0.3282421E-002  0.1250035E+03  0.7818608E-02  0.1235064E+00
         -4   -1    0    0    0  501 -0.00000000000E+00  0.00000000000E+00  0.10157117445E+03  0.10157911390E+03  0.12700000000E+01 0. -1.
          4   -1    0    0  501    0  0.00000000000E+00 -0.00000000000E+00 -0.38440473380E+02  0.38461446849E+02  0.12700000000E+01 0. -1.
         25    2    1    2    0    0  0.00000000000E+00  0.00000000000E+00  0.63130701074E+02  0.14004056075E+03  0.12500349289E+03 0.  0.
    9000005    1    3    3    0    0 -0.36008368232E+01  0.62082828394E+02  0.38491689558E+02  0.73142694593E+02  0.10000000000E+01 0.  0.
    9000005    1    3    3    0    0  0.36008368232E+01 -0.62082828394E+02  0.24639011516E+02  0.66897866153E+02  0.10000000000E+01 0.  0.
<mgrwt>
<rscale>  0 0.12500349E+03</rscale>
<asrwt>0</asrwt>
<pdfrwt beam="2">  1        4 0.59161431E-02 0.12500349E+03</pdfrwt>
<pdfrwt beam="1">  1       -4 0.15628558E-01 0.12500349E+03</pdfrwt>
<totfact> 0.10131948E+04</totfact>
</mgrwt>
</event>
<event>
 5    1  0.3282421E-002  0.1250003E+03  0.7818608E-02  0.1235069E+00
         -4   -1    0    0    0  501 -0.00000000000E+00  0.00000000000E+00  0.10876849195E+02  0.10950741911E+02  0.12700000000E+01 0.  1.
          4   -1    0    0  501    0  0.00000000000E+00 -0.00000000000E+00 -0.35784525486E+03  0.35784750848E+03  0.12700000000E+01 0.  1.
         25    2    1    2    0    0  0.00000000000E+00  0.00000000000E+00 -0.34696840567E+03  0.36879825039E+03  0.12500029985E+03 0.  0.
    9000005    1    3    3    0    0 -0.14324185120E+02  0.56337177580E+02 -0.24116366286E+03  0.24807251388E+03  0.10000000000E+01 0.  0.
    9000005    1    3    3    0    0  0.14324185120E+02 -0.56337177580E+02 -0.10580474281E+03  0.12072573652E+03  0.10000000000E+01 0.  0.
<mgrwt>
<rscale>  0 0.12500030E+03</rscale>
<asrwt>0</asrwt>
<pdfrwt beam="2">  1        4 0.55058965E-01 0.12500030E+03</pdfrwt>
<pdfrwt beam="1">  1       -4 0.16792191E-02 0.12500030E+03</pdfrwt>
<totfact> 0.67704405E+03</totfact>
</mgrwt>
</event>
<event>
 5    1  0.3282421E-002  0.1250015E+03  0.7818608E-02  0.1235067E+00
          4   -1    0    0  501    0  0.00000000000E+00  0.00000000000E+00  0.31076835346E+02  0.31102774718E+02  0.12700000000E+01 0.  1.
         -4   -1    0    0    0  501 -0.00000000000E+00 -0.00000000000E+00 -0.12561785995E+03  0.12562427966E+03  0.12700000000E+01 0.  1.
         25    2    1    2    0    0  0.00000000000E+00  0.00000000000E+00 -0.94541024608E+02  0.15672705438E+03  0.12500145695E+03 0.  0.
    9000005    1    3    3    0    0  0.56969317615E+02 -0.24240623395E+02 -0.57926359092E+02  0.84791355985E+02  0.10000000000E+01 0.  0.
    9000005    1    3    3    0    0 -0.56969317615E+02  0.24240623395E+02 -0.36614665516E+02  0.71935698391E+02  0.10000000000E+01 0.  0.
<mgrwt>
<rscale>  0 0.12500146E+03</rscale>
<asrwt>0</asrwt>
<pdfrwt beam="1">  1        4 0.47835408E-02 0.12500146E+03</pdfrwt>
<pdfrwt beam="2">  1       -4 0.19328313E-01 0.12500146E+03</pdfrwt>
<totfact> 0.97974310E+03</totfact>
</mgrwt>
</event>
<event>
 5    1  0.3282421E-002  0.1249959E+03  0.7818608E-02  0.1235076E+00
          4   -1    0    0  501    0  0.00000000000E+00  0.00000000000E+00  0.72259345314E+02  0.72270504947E+02  0.12700000000E+01 0.  1.
         -4   -1    0    0    0  501 -0.00000000000E+00 -0.00000000000E+00 -0.54032425238E+02  0.54047348474E+02  0.12700000000E+01 0.  1.
         25    2    1    2    0    0  0.00000000000E+00  0.00000000000E+00  0.18226920076E+02  0.12631785342E+03  0.12499591784E+03 0.  0.
    9000005    1    3    3    0    0 -0.16275786167E+02  0.20360938012E+02 -0.48280893802E+02  0.54877260485E+02  0.10000000000E+01 0.  0.
    9000005    1    3    3    0    0  0.16275786167E+02 -0.20360938012E+02  0.66507813878E+02  0.71440592935E+02  0.10000000000E+01 0.  0.
<mgrwt>
<rscale>  0 0.12499592E+03</rscale>
<asrwt>0</asrwt>
<pdfrwt beam="1">  1        4 0.11118829E-01 0.12499592E+03</pdfrwt>
<pdfrwt beam="2">  1       -4 0.83146872E-02 0.12499592E+03</pdfrwt>
<totfact> 0.10424964E+04</totfact>
</mgrwt>
</event>
<event>
 5    1  0.3282421E-002  0.1250027E+03  0.7818608E-02  0.1235065E+00
         -4   -1    0    0    0  501 -0.00000000000E+00  0.00000000000E+00  0.69240319839E+03  0.69240436310E+03  0.12700000000E+01 0.  1.
          4   -1    0    0  501    0  0.00000000000E+00 -0.00000000000E+00 -0.55691685557E+01  0.57121395643E+01  0.12700000000E+01 0.  1.
         25    2    1    2    0    0  0.00000000000E+00  0.00000000000E+00  0.68683402984E+03  0.69811650267E+03  0.12500266699E+03 0.  0.
    9000005    1    3    3    0    0 -0.16477737582E+02  0.54379327309E+02  0.48870692941E+03  0.49200009139E+03  0.10000000000E+01 0.  0.
    9000005    1    3    3    0    0  0.16477737582E+02 -0.54379327309E+02  0.19812710043E+03  0.20611641128E+03  0.10000000000E+01 0.  0.
<mgrwt>
<rscale>  0 0.12500267E+03</rscale>
<asrwt>0</asrwt>
<pdfrwt beam="2">  1        4 0.86788271E-03 0.12500267E+03</pdfrwt>
<pdfrwt beam="1">  1       -4 0.10653463E+00 0.12500267E+03</pdfrwt>
<totfact> 0.43183789E+03</totfact>
</mgrwt>
</event>
<event>
 5    1  0.3282421E-002  0.1249995E+03  0.7818608E-02  0.1235070E+00
         -4   -1    0    0    0  501 -0.00000000000E+00  0.00000000000E+00  0.56709925918E+02  0.56724144751E+02  0.12700000000E+01 0.  1.
          4   -1    0    0  501    0  0.00000000000E+00 -0.00000000000E+00 -0.68851929419E+02  0.68863641239E+02  0.12700000000E+01 0.  1.
         25    2    1    2    0    0  0.00000000000E+00  0.00000000000E+00 -0.12142003500E+02  0.12558778599E+03  0.12499945496E+03 0.  0.
    9000005    1    3    3    0    0 -0.33026044533E+02 -0.44392470516E+02 -0.35256042300E+02  0.65615543697E+02  0.10000000000E+01 0.  0.
    9000005    1    3    3    0    0  0.33026044533E+02  0.44392470516E+02  0.23114038800E+02  0.59972242293E+02  0.10000000000E+01 0.  0.
<mgrwt>
<rscale>  0 0.12499945E+03</rscale>
<asrwt>0</asrwt>
<pdfrwt beam="2">  1        4 0.10594599E-01 0.12499945E+03</pdfrwt>
<pdfrwt beam="1">  1       -4 0.87265986E-02 0.12499945E+03</pdfrwt>
<totfact> 0.10440145E+04</totfact>
</mgrwt>
</event>
<event>
 5    1  0.3282421E-002  0.1250008E+03  0.7818608E-02  0.1235068E+00
          4   -1    0    0  501    0  0.00000000000E+00  0.00000000000E+00  0.15974769877E+01  0.20407921810E+01  0.12700000000E+01 0. -1.
         -4   -1    0    0    0  501 -0.00000000000E+00 -0.00000000000E+00 -0.21468976473E+04  0.21468980229E+04  0.12700000000E+01 0. -1.
         25    2    1    2    0    0  0.00000000000E+00  0.00000000000E+00 -0.21453001703E+04  0.21489388151E+04  0.12500084148E+03 0.  0.
    9000005    1    3    3    0    0 -0.38899327030E+02 -0.41263656441E+02 -0.62124726555E+03  0.62383091615E+03  0.10000000000E+01 0.  0.
    9000005    1    3    3    0    0  0.38899327030E+02  0.41263656441E+02 -0.15240529047E+04  0.15251078990E+04  0.10000000000E+01 0.  0.
<mgrwt>
<rscale>  0 0.12500084E+03</rscale>
<asrwt>0</asrwt>
<pdfrwt beam="1">  1        4 0.27989747E-03 0.12500084E+03</pdfrwt>
<pdfrwt beam="2">  1       -4 0.33032405E+00 0.12500084E+03</pdfrwt>
<totfact> 0.80403436E+02</totfact>
</mgrwt>
</event>
<event>
 5    1  0.3282421E-002  0.1250019E+03  0.7818608E-02  0.1235066E+00
         -4   -1    0    0    0  501 -0.00000000000E+00  0.00000000000E+00  0.30369121525E+02  0.30395664858E+02  0.12700000000E+01 0. -1.
          4   -1    0    0  501    0  0.00000000000E+00 -0.00000000000E+00 -0.12854377477E+03  0.12855004836E+03  0.12700000000E+01 0. -1.
         25    2    1    2    0    0  0.00000000000E+00  0.00000000000E+00 -0.98174653250E+02  0.15894571322E+03  0.12500190882E+03 0.  0.
    9000005    1    3    3    0    0  0.62114051350E+02 -0.16499676787E+00 -0.40352747301E+02  0.74077842934E+02  0.10000000000E+01 0.  0.
    9000005    1    3    3    0    0 -0.62114051350E+02  0.16499676787E+00 -0.57821905949E+02  0.84867870284E+02  0.10000000000E+01 0.  0.
<mgrwt>
<rscale>  0 0.12500191E+03</rscale>
<asrwt>0</asrwt>
<pdfrwt beam="2">  1        4 0.19778489E-01 0.12500191E+03</pdfrwt>
<pdfrwt beam="1">  1       -4 0.46746970E-02 0.12500191E+03</pdfrwt>
<totfact> 0.97542243E+03</totfact>
</mgrwt>
</event>
<event>
 5    1  0.3282421E-002  0.1249960E+03  0.7818608E-02  0.1235076E+00
          4   -1    0    0  501    0  0.00000000000E+00  0.00000000000E+00  0.67747529066E+02  0.67759431776E+02  0.12700000000E+01 0.  1.
         -4   -1    0    0    0  501 -0.00000000000E+00 -0.00000000000E+00 -0.57631282946E+02  0.57645274516E+02  0.12700000000E+01 0.  1.
         25    2    1    2    0    0  0.00000000000E+00  0.00000000000E+00  0.10116246120E+02  0.12540470629E+03  0.12499600763E+03 0.  0.
    9000005    1    3    3    0    0 -0.59590666069E+02 -0.17701154039E+02  0.11452512982E+02  0.63218180854E+02  0.10000000000E+01 0.  0.
    9000005    1    3    3    0    0  0.59590666069E+02  0.17701154039E+02 -0.13362668620E+01  0.62186525438E+02  0.10000000000E+01 0.  0.
<mgrwt>
<rscale>  0 0.12499601E+03</rscale>
<asrwt>0</asrwt>
<pdfrwt beam="1">  1        4 0.10424689E-01 0.12499601E+03</pdfrwt>
<pdfrwt beam="2">  1       -4 0.88683431E-02 0.12499601E+03</pdfrwt>
<totfact> 0.10445003E+04</totfact>
</mgrwt>
</event>
<event>
 5    1  0.3282421E-002  0.1249979E+03  0.7818608E-02  0.1235073E+00
         -4   -1    0    0    0  501 -0.00000000000E+00  0.00000000000E+00  0.86528617382E+02  0.86537936918E+02  0.12700000000E+01 0.  1.
          4   -1    0    0  501    0  0.00000000000E+00 -0.00000000000E+00 -0.45121799157E+02  0.45139668355E+02  0.12700000000E+01 0.  1.
         25    2    1    2    0    0  0.00000000000E+00  0.00000000000E+00  0.41406818225E+02  0.13167760527E+03  0.12499786852E+03 0.  0.
    9000005    1    3    3    0    0 -0.17745201453E+02 -0.17255113606E+01  0.83797685824E+02  0.85679178997E+02  0.10000000000E+01 0.  0.
    9000005    1    3    3    0    0  0.17745201453E+02  0.17255113606E+01 -0.42390867599E+02  0.45998426276E+02  0.10000000000E+01 0.  0.
<mgrwt>
<rscale>  0 0.12499787E+03</rscale>
<asrwt>0</asrwt>
<pdfrwt beam="2">  1        4 0.69439067E-02 0.12499787E+03</pdfrwt>
<pdfrwt beam="1">  1       -4 0.13314186E-01 0.12499787E+03</pdfrwt>
<totfact> 0.10309080E+04</totfact>
</mgrwt>
</event>
<event>
 5    1  0.3282421E-002  0.1249968E+03  0.7818608E-02  0.1235074E+00
         -4   -1    0    0    0  501 -0.00000000000E+00  0.00000000000E+00  0.97086755508E+01  0.97913881013E+01  0.12700000000E+01 0.  1.
          4   -1    0    0  501    0  0.00000000000E+00 -0.00000000000E+00 -0.40053565826E+03  0.40053767168E+03  0.12700000000E+01 0.  1.
         25    2    1    2    0    0  0.00000000000E+00  0.00000000000E+00 -0.39082698271E+03  0.41032905978E+03  0.12499682752E+03 0.  0.
    9000005    1    3    3    0    0  0.13330867080E+01 -0.59385567902E+02 -0.13170605614E+03  0.14448497506E+03  0.10000000000E+01 0.  0.
    9000005    1    3    3    0    0 -0.13330867080E+01  0.59385567902E+02 -0.25912092657E+03  0.26584408472E+03  0.10000000000E+01 0.  0.
<mgrwt>
<rscale>  0 0.12499683E+03</rscale>
<asrwt>0</asrwt>
<pdfrwt beam="2">  1        4 0.61627375E-01 0.12499683E+03</pdfrwt>
<pdfrwt beam="1">  1       -4 0.15001601E-02 0.12499683E+03</pdfrwt>
<totfact> 0.63564900E+03</totfact>
</mgrwt>
</event>
<event>
 5    1  0.3282421E-002  0.1250022E+03  0.7818608E-02  0.1235066E+00
         -4   -1    0    0    0  501 -0.00000000000E+00  0.00000000000E+00  0.40296925847E+02  0.40316933573E+02  0.12700000000E+01 0.  1.
          4   -1    0    0  501    0  0.00000000000E+00 -0.00000000000E+00 -0.96891802988E+02  0.96900125832E+02  0.12700000000E+01 0.  1.
         25    2    1    2    0    0  0.00000000000E+00  0.00000000000E+00 -0.56594877141E+02  0.13721705940E+03  0.12500216507E+03 0.  0.
    9000005    1    3    3    0    0  0.52638184677E+02  0.13619874981E+02 -0.62115436653E+02  0.82556689319E+02  0.10000000000E+01 0.  0.
    9000005    1    3    3    0    0 -0.52638184677E+02 -0.13619874981E+02  0.55205595126E+01  0.54660370086E+02  0.10000000000E+01 0.  0.
<mgrwt>
<rscale>  0 0.12500217E+03</rscale>
<asrwt>0</asrwt>
<pdfrwt beam="2">  1        4 0.14908610E-01 0.12500217E+03</pdfrwt>
<pdfrwt beam="1">  1       -4 0.62017063E-02 0.12500217E+03</pdfrwt>
<totfact> 0.10191052E+04</totfact>
</mgrwt>
</event>
<event>
 5    1  0.3282421E-002  0.1250014E+03  0.7818608E-02  0.1235067E+00
         -4   -1    0    0    0  501 -0.00000000000E+00  0.00000000000E+00  0.91595796902E+03  0.91595884946E+03  0.12700000000E+01 0.  1.
          4   -1    0    0  501    0  0.00000000000E+00 -0.00000000000E+00 -0.41693027089E+01  0.43584383762E+01  0.12700000000E+01 0.  1.
         25    2    1    2    0    0  0.00000000000E+00  0.00000000000E+00  0.91178866631E+03  0.92031728784E+03  0.12500135313E+03 0.  0.
    9000005    1    3    3    0    0 -0.51874895114E+02  0.24180837807E+01  0.71183723202E+03  0.71372970847E+03  0.10000000000E+01 0.  0.
    9000005    1    3    3    0    0  0.51874895114E+02 -0.24180837807E+01  0.19995143429E+03  0.20658757936E+03  0.10000000000E+01 0.  0.
<mgrwt>
<rscale>  0 0.12500135E+03</rscale>
<asrwt>0</asrwt>
<pdfrwt beam="2">  1        4 0.65604759E-03 0.12500135E+03</pdfrwt>
<pdfrwt beam="1">  1       -4 0.14093127E+00 0.12500135E+03</pdfrwt>
<totfact> 0.33392794E+03</totfact>
</mgrwt>
</event>
<event>
 5    1  0.3282421E-002  0.1250003E+03  0.7818608E-02  0.1235069E+00
         -4   -1    0    0    0  501 -0.00000000000E+00  0.00000000000E+00  0.28372878556E+03  0.28373162788E+03  0.12700000000E+01 0. -1.
          4   -1    0    0  501    0  0.00000000000E+00 -0.00000000000E+00 -0.13735399411E+02  0.13793987711E+02  0.12700000000E+01 0. -1.
         25    2    1    2    0    0  0.00000000000E+00  0.00000000000E+00  0.26999338615E+03  0.29752561559E+03  0.12500025346E+03 0.  0.
    9000005    1    3    3    0    0  0.36066830445E+02  0.11752766464E+02  0.16791008406E+02  0.41495562910E+02  0.10000000000E+01 0.  0.
    9000005    1    3    3    0    0 -0.36066830445E+02 -0.11752766464E+02  0.25320237775E+03  0.25603005268E+03  0.10000000000E+01 0.  0.
<mgrwt>
<rscale>  0 0.12500025E+03</rscale>
<asrwt>0</asrwt>
<pdfrwt beam="2">  1        4 0.21178639E-02 0.12500025E+03</pdfrwt>
<pdfrwt beam="1">  1       -4 0.43655306E-01 0.12500025E+03</pdfrwt>
<totfact> 0.75909846E+03</totfact>
</mgrwt>
</event>
<event>
 5    1  0.3282421E-002  0.1250028E+03  0.7818608E-02  0.1235065E+00
          4   -1    0    0  501    0  0.00000000000E+00  0.00000000000E+00  0.14357036505E+02  0.14413098112E+02  0.12700000000E+01 0. -1.
         -4   -1    0    0    0  501 -0.00000000000E+00 -0.00000000000E+00 -0.27150350007E+03  0.27150647036E+03  0.12700000000E+01 0. -1.
         25    2    1    2    0    0  0.00000000000E+00  0.00000000000E+00 -0.25714646356E+03  0.28591956847E+03  0.12500278362E+03 0.  0.
    9000005    1    3    3    0    0  0.49815985323E+02  0.16084761871E+01 -0.21480205625E+03  0.22051109486E+03  0.10000000000E+01 0.  0.
    9000005    1    3    3    0    0 -0.49815985323E+02 -0.16084761871E+01 -0.42344407312E+02  0.65408473610E+02  0.10000000000E+01 0.  0.
<mgrwt>
<rscale>  0 0.12500278E+03</rscale>
<asrwt>0</asrwt>
<pdfrwt beam="1">  1        4 0.22133160E-02 0.12500278E+03</pdfrwt>
<pdfrwt beam="2">  1       -4 0.41774306E-01 0.12500278E+03</pdfrwt>
<totfact> 0.77394919E+03</totfact>
</mgrwt>
</event>
<event>
 5    1  0.3282421E-002  0.1249740E+03  0.7818608E-02  0.1235110E+00
         -4   -1    0    0    0  501 -0.00000000000E+00  0.00000000000E+00  0.77589561744E+03  0.77589665682E+03  0.12700000000E+01 0. -1.
          4   -1    0    0  501    0  0.00000000000E+00 -0.00000000000E+00 -0.49512231332E+01  0.51115076558E+01  0.12700000000E+01 0. -1.
         25    2    1    2    0    0  0.00000000000E+00  0.00000000000E+00  0.77094439431E+03  0.78100816448E+03  0.12497397274E+03 0.  0.
    9000005    1    3    3    0    0 -0.54738308718E+02  0.19580491843E+02  0.52851927783E+03  0.53170791337E+03  0.10000000000E+01 0.  0.
    9000005    1    3    3    0    0  0.54738308718E+02 -0.19580491843E+02  0.24242511648E+03  0.24930025111E+03  0.10000000000E+01 0.  0.
<mgrwt>
<rscale>  0 0.12497397E+03</rscale>
<asrwt>0</asrwt>
<pdfrwt beam="2">  1        4 0.77413669E-03 0.12497397E+03</pdfrwt>
<pdfrwt beam="1">  1       -4 0.11938089E+00 0.12497397E+03</pdfrwt>
<totfact> 0.39149044E+03</totfact>
</mgrwt>
</event>
<event>
 5    1  0.3282421E-002  0.1250011E+03  0.7818608E-02  0.1235068E+00
          4   -1    0    0  501    0  0.00000000000E+00  0.00000000000E+00  0.28048156246E+02  0.28076893859E+02  0.12700000000E+01 0.  1.
         -4   -1    0    0    0  501 -0.00000000000E+00 -0.00000000000E+00 -0.13916890669E+03  0.13917470133E+03  0.12700000000E+01 0.  1.
         25    2    1    2    0    0  0.00000000000E+00  0.00000000000E+00 -0.11112075045E+03  0.16725159519E+03  0.12500109965E+03 0.  0.
    9000005    1    3    3    0    0 -0.36060703072E+01 -0.17427861452E+02 -0.13571305215E+03  0.13687865656E+03  0.10000000000E+01 0.  0.
    9000005    1    3    3    0    0  0.36060703072E+01  0.17427861452E+02  0.24592301703E+02  0.30372938628E+02  0.10000000000E+01 0.  0.
<mgrwt>
<rscale>  0 0.12500110E+03</rscale>
<asrwt>0</asrwt>
<pdfrwt beam="1">  1        4 0.43177574E-02 0.12500110E+03</pdfrwt>
<pdfrwt beam="2">  1       -4 0.21413257E-01 0.12500110E+03</pdfrwt>
<totfact> 0.95960297E+03</totfact>
</mgrwt>
</event>
<event>
 5    1  0.3282421E-002  0.1249978E+03  0.7818608E-02  0.1235073E+00
         -4   -1    0    0    0  501 -0.00000000000E+00  0.00000000000E+00  0.29750786815E+02  0.29777881324E+02  0.12700000000E+01 0.  1.
          4   -1    0    0  501    0  0.00000000000E+00 -0.00000000000E+00 -0.13120442595E+03  0.13121057232E+03  0.12700000000E+01 0.  1.
         25    2    1    2    0    0  0.00000000000E+00  0.00000000000E+00 -0.10145363913E+03  0.16098845364E+03  0.12499776523E+03 0.  0.
    9000005    1    3    3    0    0  0.24174984929E+02 -0.56892094474E+02 -0.38924846903E+02  0.73056717805E+02  0.10000000000E+01 0.  0.
    9000005    1    3    3    0    0 -0.24174984929E+02  0.56892094474E+02 -0.62528792231E+02  0.87931735840E+02  0.10000000000E+01 0.  0.
<mgrwt>
<rscale>  0 0.12499777E+03</rscale>
<asrwt>0</asrwt>
<pdfrwt beam="2">  1        4 0.20187853E-01 0.12499777E+03</pdfrwt>
<pdfrwt beam="1">  1       -4 0.45796012E-02 0.12499777E+03</pdfrwt>
<totfact> 0.97157437E+03</totfact>
</mgrwt>
</event>
<event>
 5    1  0.3282421E-002  0.1250052E+03  0.7818608E-02  0.1235061E+00
          4   -1    0    0  501    0  0.00000000000E+00  0.00000000000E+00  0.70063747882E+02  0.70075257169E+02  0.12700000000E+01 0. -1.
         -4   -1    0    0    0  501 -0.00000000000E+00 -0.00000000000E+00 -0.55734086404E+02  0.55748554127E+02  0.12700000000E+01 0. -1.
         25    2    1    2    0    0  0.00000000000E+00  0.00000000000E+00  0.14329661478E+02  0.12582381130E+03  0.12500516906E+03 0.  0.
    9000005    1    3    3    0    0  0.47946432972E+02  0.21275333950E+02  0.41358953591E+02  0.66806162228E+02  0.10000000000E+01 0.  0.
    9000005    1    3    3    0    0 -0.47946432972E+02 -0.21275333950E+02 -0.27029292113E+02  0.59017649068E+02  0.10000000000E+01 0.  0.
<mgrwt>
<rscale>  0 0.12500517E+03</rscale>
<asrwt>0</asrwt>
<pdfrwt beam="1">  1        4 0.10781036E-01 0.12500517E+03</pdfrwt>
<pdfrwt beam="2">  1       -4 0.85764731E-02 0.12500517E+03</pdfrwt>
<totfact> 0.10433605E+04</totfact>
</mgrwt>
</event>
<event>
 5    1  0.3282421E-002  0.1250004E+03  0.7818608E-02  0.1235069E+00
          4   -1    0    0  501    0  0.00000000000E+00  0.00000000000E+00  0.53395699568E+03  0.53395850600E+03  0.12700000000E+01 0. -1.
         -4   -1    0    0    0  501 -0.00000000000E+00 -0.00000000000E+00 -0.72590668418E+01  0.73693250311E+01  0.12700000000E+01 0. -1.
         25    2    1    2    0    0  0.00000000000E+00  0.00000000000E+00  0.52669792883E+03  0.54132783103E+03  0.12500044965E+03 0.  0.
    9000005    1    3    3    0    0 -0.20089024702E+02 -0.32994731193E+02  0.47608083662E+03  0.47764650548E+03  0.10000000000E+01 0.  0.
    9000005    1    3    3    0    0  0.20089024702E+02  0.32994731193E+02  0.50617092212E+02  0.63681325551E+02  0.10000000000E+01 0.  0.
<mgrwt>
<rscale>  0 0.12500045E+03</rscale>
<asrwt>0</asrwt>
<pdfrwt beam="1">  1        4 0.82155845E-01 0.12500045E+03</pdfrwt>
<pdfrwt beam="2">  1       -4 0.11253769E-02 0.12500045E+03</pdfrwt>
<totfact> 0.52794076E+03</totfact>
</mgrwt>
</event>
<event>
 5    1  0.3282421E-002  0.1250001E+03  0.7818608E-02  0.1235069E+00
          4   -1    0    0  501    0  0.00000000000E+00  0.00000000000E+00  0.21607307741E+01  0.25063234983E+01  0.12700000000E+01 0.  1.
         -4   -1    0    0    0  501 -0.00000000000E+00 -0.00000000000E+00 -0.16736247063E+04  0.16736251882E+04  0.12700000000E+01 0.  1.
         25    2    1    2    0    0  0.00000000000E+00  0.00000000000E+00 -0.16714639756E+04  0.16761315117E+04  0.12500009155E+03 0.  0.
    9000005    1    3    3    0    0 -0.20545379099E+02 -0.37162692151E+02 -0.22094861289E+03  0.22499437288E+03  0.10000000000E+01 0.  0.
    9000005    1    3    3    0    0  0.20545379099E+02  0.37162692151E+02 -0.14505153627E+04  0.14511371388E+04  0.10000000000E+01 0.  0.
<mgrwt>
<rscale>  0 0.12500009E+03</rscale>
<asrwt>0</asrwt>
<pdfrwt beam="1">  1        4 0.35904258E-03 0.12500009E+03</pdfrwt>
<pdfrwt beam="2">  1       -4 0.25750639E+00 0.12500009E+03</pdfrwt>
<totfact> 0.14710122E+03</totfact>
</mgrwt>
</event>
<event>
 5    1  0.3282421E-002  0.1250039E+03  0.7818608E-02  0.1235063E+00
          4   -1    0    0  501    0  0.00000000000E+00  0.00000000000E+00  0.10934320824E+02  0.11007827755E+02  0.12700000000E+01 0. -1.
         -4   -1    0    0    0  501 -0.00000000000E+00 -0.00000000000E+00 -0.35599730935E+03  0.35599957467E+03  0.12700000000E+01 0. -1.
         25    2    1    2    0    0  0.00000000000E+00  0.00000000000E+00 -0.34506298852E+03  0.36700740242E+03  0.12500386947E+03 0.  0.
    9000005    1    3    3    0    0  0.66326252784E+01 -0.48161475741E+02 -0.57242018381E+02  0.75107710203E+02  0.10000000000E+01 0.  0.
    9000005    1    3    3    0    0 -0.66326252784E+01  0.48161475741E+02 -0.28782097014E+03  0.29189969222E+03  0.10000000000E+01 0.  0.
<mgrwt>
<rscale>  0 0.12500387E+03</rscale>
<asrwt>0</asrwt>
<pdfrwt beam="1">  1        4 0.16880321E-02 0.12500387E+03</pdfrwt>
<pdfrwt beam="2">  1       -4 0.54774637E-01 0.12500387E+03</pdfrwt>
<totfact> 0.67887380E+03</totfact>
</mgrwt>
</event>
<event>
 5    1  0.3282421E-002  0.1250018E+03  0.7818608E-02  0.1235066E+00
         -4   -1    0    0    0  501 -0.00000000000E+00  0.00000000000E+00  0.15881730252E+03  0.15882238028E+03  0.12700000000E+01 0. -1.
          4   -1    0    0  501    0  0.00000000000E+00 -0.00000000000E+00 -0.24574705205E+02  0.24607499587E+02  0.12700000000E+01 0. -1.
         25    2    1    2    0    0  0.00000000000E+00  0.00000000000E+00  0.13424259731E+03  0.18342987987E+03  0.12500178357E+03 0.  0.
    9000005    1    3    3    0    0 -0.13650236224E+02  0.13387620443E+02 -0.20184580220E+02  0.27820399148E+02  0.10000000000E+01 0.  0.
    9000005    1    3    3    0    0  0.13650236224E+02 -0.13387620443E+02  0.15442717753E+03  0.15560948072E+03  0.10000000000E+01 0.  0.
<mgrwt>
<rscale>  0 0.12500178E+03</rscale>
<asrwt>0</asrwt>
<pdfrwt beam="2">  1        4 0.37836369E-02 0.12500178E+03</pdfrwt>
<pdfrwt beam="1">  1       -4 0.24436346E-01 0.12500178E+03</pdfrwt>
<totfact> 0.92999512E+03</totfact>
</mgrwt>
</event>
<event>
 5    1  0.3282421E-002  0.1249963E+03  0.7818608E-02  0.1235075E+00
         -4   -1    0    0    0  501 -0.00000000000E+00  0.00000000000E+00  0.14017575497E+04  0.14017581250E+04  0.12700000000E+01 0.  1.
          4   -1    0    0  501    0  0.00000000000E+00 -0.00000000000E+00 -0.26412047854E+01  0.29306761538E+01  0.12700000000E+01 0.  1.
         25    2    1    2    0    0  0.00000000000E+00  0.00000000000E+00  0.13991163449E+04  0.14046888012E+04  0.12499632602E+03 0.  0.
    9000005    1    3    3    0    0  0.48707429120E+02  0.36506604515E+02  0.54068095451E+03  0.54409745486E+03  0.10000000000E+01 0.  0.
    9000005    1    3    3    0    0 -0.48707429120E+02 -0.36506604515E+02  0.85843539044E+03  0.86059134633E+03  0.10000000000E+01 0.  0.
<mgrwt>
<rscale>  0 0.12499633E+03</rscale>
<asrwt>0</asrwt>
<pdfrwt beam="2">  1        4 0.42864944E-03 0.12499633E+03</pdfrwt>
<pdfrwt beam="1">  1       -4 0.21567784E+00 0.12499633E+03</pdfrwt>
<totfact> 0.19882051E+03</totfact>
</mgrwt>
</event>
<event>
 5    1  0.3282421E-002  0.1250031E+03  0.7818608E-02  0.1235064E+00
         -4   -1    0    0    0  501 -0.00000000000E+00  0.00000000000E+00  0.24673717151E+02  0.24706380108E+02  0.12700000000E+01 0.  1.
          4   -1    0    0  501    0  0.00000000000E+00 -0.00000000000E+00 -0.15818409196E+03  0.15818919005E+03  0.12700000000E+01 0.  1.
         25    2    1    2    0    0  0.00000000000E+00  0.00000000000E+00 -0.13351037481E+03  0.18289557016E+03  0.12500307757E+03 0.  0.
    9000005    1    3    3    0    0  0.88354038512E+01 -0.51258107328E+02 -0.16071257051E+02  0.54449455748E+02  0.10000000000E+01 0.  0.
    9000005    1    3    3    0    0 -0.88354038512E+01  0.51258107328E+02 -0.11743911776E+03  0.12844611441E+03  0.10000000000E+01 0.  0.
<mgrwt>
<rscale>  0 0.12500308E+03</rscale>
<asrwt>0</asrwt>
<pdfrwt beam="2">  1        4 0.24338918E-01 0.12500308E+03</pdfrwt>
<pdfrwt beam="1">  1       -4 0.37988613E-02 0.12500308E+03</pdfrwt>
<totfact> 0.93091951E+03</totfact>
</mgrwt>
</event>
<event>
 5    1  0.3282421E-002  0.1250005E+03  0.7818608E-02  0.1235068E+00
          4   -1    0    0  501    0  0.00000000000E+00  0.00000000000E+00  0.13936283376E+03  0.13936862034E+03  0.12700000000E+01 0.  1.
         -4   -1    0    0    0  501 -0.00000000000E+00 -0.00000000000E+00 -0.28008839843E+02  0.28037617755E+02  0.12700000000E+01 0.  1.
         25    2    1    2    0    0  0.00000000000E+00  0.00000000000E+00  0.11135399392E+03  0.16740623809E+03  0.12500054636E+03 0.  0.
    9000005    1    3    3    0    0 -0.10530160714E+02 -0.55770335177E+02  0.90704555214E+02  0.10700248085E+03  0.10000000000E+01 0.  0.
    9000005    1    3    3    0    0  0.10530160714E+02  0.55770335177E+02  0.20649438705E+02  0.60403757245E+02  0.10000000000E+01 0.  0.
<mgrwt>
<rscale>  0 0.12500055E+03</rscale>
<asrwt>0</asrwt>
<pdfrwt beam="1">  1        4 0.21443095E-01 0.12500055E+03</pdfrwt>
<pdfrwt beam="2">  1       -4 0.43117110E-02 0.12500055E+03</pdfrwt>
<totfact> 0.95932442E+03</totfact>
</mgrwt>
</event>
<event>
 5    1  0.3282421E-002  0.1249993E+03  0.7818608E-02  0.1235070E+00
         -4   -1    0    0    0  501 -0.00000000000E+00  0.00000000000E+00  0.76059635566E+03  0.76059741595E+03  0.12700000000E+01 0.  1.
          4   -1    0    0  501    0  0.00000000000E+00 -0.00000000000E+00 -0.50561195091E+01  0.52131798828E+01  0.12700000000E+01 0.  1.
         25    2    1    2    0    0  0.00000000000E+00  0.00000000000E+00  0.75554023615E+03  0.76581059583E+03  0.12499928096E+03 0.  0.
    9000005    1    3    3    0    0  0.28400895405E+02 -0.48952062935E+02  0.21541274479E+03  0.22272531500E+03  0.10000000000E+01 0.  0.
    9000005    1    3    3    0    0 -0.28400895405E+02  0.48952062935E+02  0.54012749136E+03  0.54308528083E+03  0.10000000000E+01 0.  0.
<mgrwt>
<rscale>  0 0.12499928E+03</rscale>
<asrwt>0</asrwt>
<pdfrwt beam="2">  1        4 0.79002738E-03 0.12499928E+03</pdfrwt>
<pdfrwt beam="1">  1       -4 0.11702703E+00 0.12499928E+03</pdfrwt>
<totfact> 0.39829704E+03</totfact>
</mgrwt>
</event>
<event>
 5    1  0.3282421E-002  0.1250025E+03  0.7818608E-02  0.1235065E+00
          4   -1    0    0  501    0  0.00000000000E+00  0.00000000000E+00  0.84119664980E+03  0.84119760849E+03  0.12700000000E+01 0. -1.
         -4   -1    0    0    0  501 -0.00000000000E+00 -0.00000000000E+00 -0.45560560875E+01  0.47297512697E+01  0.12700000000E+01 0. -1.
         25    2    1    2    0    0  0.00000000000E+00  0.00000000000E+00  0.83664059371E+03  0.84592735976E+03  0.12500245977E+03 0.  0.
    9000005    1    3    3    0    0 -0.22177722402E+02  0.58125891368E+02  0.45831782863E+03  0.46252211045E+03  0.10000000000E+01 0.  0.
    9000005    1    3    3    0    0  0.22177722402E+02 -0.58125891368E+02  0.37832276508E+03  0.38340524931E+03  0.10000000000E+01 0.  0.
<mgrwt>
<rscale>  0 0.12500246E+03</rscale>
<asrwt>0</asrwt>
<pdfrwt beam="1">  1        4 0.12942821E+00 0.12500246E+03</pdfrwt>
<pdfrwt beam="2">  1       -4 0.71436713E-03 0.12500246E+03</pdfrwt>
<totfact> 0.36292635E+03</totfact>
</mgrwt>
</event>
<event>
 5    1  0.3282421E-002  0.1250016E+03  0.7818608E-02  0.1235067E+00
         -4   -1    0    0    0  501 -0.00000000000E+00  0.00000000000E+00  0.11112319971E+03  0.11113045673E+03  0.12700000000E+01 0.  1.
          4   -1    0    0  501    0  0.00000000000E+00 -0.00000000000E+00 -0.35133463032E+02  0.35156409439E+02  0.12700000000E+01 0.  1.
         25    2    1    2    0    0  0.00000000000E+00  0.00000000000E+00  0.75989736675E+02  0.14628686617E+03  0.12500162852E+03 0.  0.
    9000005    1    3    3    0    0 -0.22374698265E+02  0.50551365895E+02  0.72099719112E+02  0.90859436561E+02  0.10000000000E+01 0.  0.
    9000005    1    3    3    0    0  0.22374698265E+02 -0.50551365895E+02  0.38900175629E+01  0.55427429607E+02  0.10000000000E+01 0.  0.
<mgrwt>
<rscale>  0 0.12500163E+03</rscale>
<asrwt>0</asrwt>
<pdfrwt beam="2">  1        4 0.54074715E-02 0.12500163E+03</pdfrwt>
<pdfrwt beam="1">  1       -4 0.17098200E-01 0.12500163E+03</pdfrwt>
<totfact> 0.10004541E+04</totfact>
</mgrwt>
</event>
<event>
 5    1  0.3282421E-002  0.1250000E+03  0.7818608E-02  0.1235069E+00
         -4   -1    0    0    0  501 -0.00000000000E+00  0.00000000000E+00  0.39875058072E+02  0.39895277368E+02  0.12700000000E+01 0. -1.
          4   -1    0    0  501    0  0.00000000000E+00 -0.00000000000E+00 -0.97913009373E+02  0.97921245419E+02  0.12700000000E+01 0. -1.
         25    2    1    2    0    0  0.00000000000E+00  0.00000000000E+00 -0.58037951301E+02  0.13781652279E+03  0.12499996065E+03 0.  0.
    9000005    1    3    3    0    0  0.56130600421E+02  0.80464042577E+01 -0.60782664626E-01  0.56713249067E+02  0.10000000000E+01 0.  0.
    9000005    1    3    3    0    0 -0.56130600421E+02 -0.80464042577E+01 -0.57977168636E+02  0.81103273721E+02  0.10000000000E+01 0.  0.
<mgrwt>
<rscale>  0 0.12499996E+03</rscale>
<asrwt>0</asrwt>
<pdfrwt beam="2">  1        4 0.15065729E-01 0.12499996E+03</pdfrwt>
<pdfrwt beam="1">  1       -4 0.61368132E-02 0.12499996E+03</pdfrwt>
<totfact> 0.10179050E+04</totfact>
</mgrwt>
</event>
<event>
 5    1  0.3282421E-002  0.1250055E+03  0.7818608E-02  0.1235061E+00
         -4   -1    0    0    0  501 -0.00000000000E+00  0.00000000000E+00  0.15171169763E+03  0.15171701321E+03  0.12700000000E+01 0. -1.
          4   -1    0    0  501    0  0.00000000000E+00 -0.00000000000E+00 -0.25728684005E+02  0.25760009329E+02  0.12700000000E+01 0. -1.
         25    2    1    2    0    0  0.00000000000E+00  0.00000000000E+00  0.12598301362E+03  0.17747702254E+03  0.12500549511E+03 0.  0.
    9000005    1    3    3    0    0 -0.36701539159E+02 -0.31444260211E+02  0.11924402470E+03  0.12866966194E+03  0.10000000000E+01 0.  0.
    9000005    1    3    3    0    0  0.36701539159E+02  0.31444260211E+02  0.67389889224E+01  0.48807360598E+02  0.10000000000E+01 0.  0.
<mgrwt>
<rscale>  0 0.12500550E+03</rscale>
<asrwt>0</asrwt>
<pdfrwt beam="2">  1        4 0.39610775E-02 0.12500550E+03</pdfrwt>
<pdfrwt beam="1">  1       -4 0.23343080E-01 0.12500550E+03</pdfrwt>
<totfact> 0.94061535E+03</totfact>
</mgrwt>
</event>
<event>
 5    1  0.3282421E-002  0.1249933E+03  0.7818608E-02  0.1235080E+00
         -4   -1    0    0    0  501 -0.00000000000E+00  0.00000000000E+00  0.25503387709E+02  0.25534989419E+02  0.12700000000E+01 0.  1.
          4   -1    0    0  501    0  0.00000000000E+00 -0.00000000000E+00 -0.15302045199E+03  0.15302572211E+03  0.12700000000E+01 0.  1.
         25    2    1    2    0    0  0.00000000000E+00  0.00000000000E+00 -0.12751706428E+03  0.17856071153E+03  0.12499330390E+03 0.  0.
    9000005    1    3    3    0    0 -0.14233048317E+02 -0.12114963273E+02  0.21423549684E+02  0.28448558498E+02  0.10000000000E+01 0.  0.
    9000005    1    3    3    0    0  0.14233048317E+02  0.12114963273E+02 -0.14894061397E+03  0.15011215303E+03  0.10000000000E+01 0.  0.
<mgrwt>
<rscale>  0 0.12499330E+03</rscale>
<asrwt>0</asrwt>
<pdfrwt beam="2">  1        4 0.23544444E-01 0.12499330E+03</pdfrwt>
<pdfrwt beam="1">  1       -4 0.39264345E-02 0.12499330E+03</pdfrwt>
<totfact> 0.93890821E+03</totfact>
</mgrwt>
</event>
<event>
 5    1  0.3282421E-002  0.1250095E+03  0.7818608E-02  0.1235054E+00
          4   -1    0    0  501    0  0.00000000000E+00  0.00000000000E+00  0.13777799562E+03  0.13778384875E+03  0.12700000000E+01 0.  1.
         -4   -1    0    0    0  501 -0.00000000000E+00 -0.00000000000E+00 -0.28335389931E+02  0.28363836528E+02  0.12700000000E+01 0.  1.
         25    2    1    2    0    0  0.00000000000E+00  0.00000000000E+00  0.10944260569E+03  0.16614768528E+03  0.12500947718E+03 0.  0.
    9000005    1    3    3    0    0 -0.17028391659E+02 -0.41972429402E+02 -0.25093416677E+01  0.45375629451E+02  0.10000000000E+01 0.  0.
    9000005    1    3    3    0    0  0.17028391659E+02  0.41972429402E+02  0.11195194736E+03  0.12077205583E+03  0.10000000000E+01 0.  0.
<mgrwt>
<rscale>  0 0.12500948E+03</rscale>
<asrwt>0</asrwt>
<pdfrwt beam="1">  1        4 0.21199253E-01 0.12500948E+03</pdfrwt>
<pdfrwt beam="2">  1       -4 0.43619293E-02 0.12500948E+03</pdfrwt>
<totfact> 0.96150010E+03</totfact>
</mgrwt>
</event>
<event>
 5    1  0.3282421E-002  0.1250023E+03  0.7818608E-02  0.1235066E+00
          4   -1    0    0  501    0  0.00000000000E+00  0.00000000000E+00  0.81364575254E+02  0.81374486212E+02  0.12700000000E+01 0.  1.
         -4   -1    0    0    0  501 -0.00000000000E+00 -0.00000000000E+00 -0.47989725636E+02  0.48006527333E+02  0.12700000000E+01 0.  1.
         25    2    1    2    0    0  0.00000000000E+00  0.00000000000E+00  0.33374849619E+02  0.12938101355E+03  0.12500226430E+03 0.  0.
    9000005    1    3    3    0    0  0.24752887100E+02 -0.44442909854E+02  0.54256479368E+02  0.74381739758E+02  0.10000000000E+01 0.  0.
    9000005    1    3    3    0    0 -0.24752887100E+02  0.44442909854E+02 -0.20881629749E+02  0.54999273787E+02  0.10000000000E+01 0.  0.
<mgrwt>
<rscale>  0 0.12500226E+03</rscale>
<asrwt>0</asrwt>
<pdfrwt beam="1">  1        4 0.12519682E-01 0.12500226E+03</pdfrwt>
<pdfrwt beam="2">  1       -4 0.73850896E-02 0.12500226E+03</pdfrwt>
<totfact> 0.10357237E+04</totfact>
</mgrwt>
</event>
<event>
 5    1  0.3282421E-002  0.1250351E+03  0.7818608E-02  0.1235014E+00
         -4   -1    0    0    0  501 -0.00000000000E+00  0.00000000000E+00  0.32582839671E+03  0.32583087177E+03  0.12700000000E+01 0.  1.
          4   -1    0    0  501    0  0.00000000000E+00 -0.00000000000E+00 -0.11959262554E+02  0.12026506593E+02  0.12700000000E+01 0.  1.
         25    2    1    2    0    0  0.00000000000E+00  0.00000000000E+00  0.31386913415E+03  0.33785737836E+03  0.12503509404E+03 0.  0.
    9000005    1    3    3    0    0 -0.10367124958E+01  0.31892056038E+02  0.11691563393E+02  0.33998097972E+02  0.10000000000E+01 0.  0.
    9000005    1    3    3    0    0  0.10367124958E+01 -0.31892056038E+02  0.30217757076E+03  0.30385928039E+03  0.10000000000E+01 0.  0.
<mgrwt>
<rscale>  0 0.12503509E+03</rscale>
<asrwt>0</asrwt>
<pdfrwt beam="2">  1        4 0.18452496E-02 0.12503509E+03</pdfrwt>
<pdfrwt beam="1">  1       -4 0.50132807E-01 0.12503509E+03</pdfrwt>
<totfact> 0.71026166E+03</totfact>
</mgrwt>
</event>
<event>
 5    1  0.3282421E-002  0.1249992E+03  0.7818608E-02  0.1235071E+00
         -4   -1    0    0    0  501 -0.00000000000E+00  0.00000000000E+00  0.82832415868E+02  0.82842151219E+02  0.12700000000E+01 0. -1.
          4   -1    0    0  501    0  0.00000000000E+00 -0.00000000000E+00 -0.47136804708E+02  0.47153910316E+02  0.12700000000E+01 0. -1.
         25    2    1    2    0    0  0.00000000000E+00  0.00000000000E+00  0.35695611160E+02  0.12999606153E+03  0.12499919743E+03 0.  0.
    9000005    1    3    3    0    0 -0.61228043636E+02  0.44818700523E+01  0.29986563663E+02  0.68331211661E+02  0.10000000000E+01 0.  0.
    9000005    1    3    3    0    0  0.61228043636E+02 -0.44818700523E+01  0.57090474970E+01  0.61664849874E+02  0.10000000000E+01 0.  0.
<mgrwt>
<rscale>  0 0.12499920E+03</rscale>
<asrwt>0</asrwt>
<pdfrwt beam="2">  1        4 0.72538810E-02 0.12499920E+03</pdfrwt>
<pdfrwt beam="1">  1       -4 0.12745513E-01 0.12499920E+03</pdfrwt>
<totfact> 0.10344779E+04</totfact>
</mgrwt>
</event>
<event>
 5    1  0.3282421E-002  0.1249999E+03  0.7818608E-02  0.1235069E+00
         -4   -1    0    0    0  501 -0.00000000000E+00  0.00000000000E+00  0.22270799645E+03  0.22271161753E+03  0.12700000000E+01 0.  1.
          4   -1    0    0  501    0  0.00000000000E+00 -0.00000000000E+00 -0.17512989714E+02  0.17558978009E+02  0.12700000000E+01 0.  1.
         25    2    1    2    0    0  0.00000000000E+00  0.00000000000E+00  0.20519500673E+03  0.24027059554E+03  0.12499987316E+03 0.  0.
    9000005    1    3    3    0    0 -0.27740272521E+02 -0.50757508941E+02  0.14805967766E+03  0.15896073597E+03  0.10000000000E+01 0.  0.
    9000005    1    3    3    0    0  0.27740272521E+02  0.50757508941E+02  0.57135329080E+02  0.81309859565E+02  0.10000000000E+01 0.  0.
<mgrwt>
<rscale>  0 0.12499987E+03</rscale>
<asrwt>0</asrwt>
<pdfrwt beam="2">  1        4 0.26981220E-02 0.12499987E+03</pdfrwt>
<pdfrwt beam="1">  1       -4 0.34266587E-01 0.12499987E+03</pdfrwt>
<totfact> 0.83757318E+03</totfact>
</mgrwt>
</event>
<event>
 5    1  0.3282421E-002  0.1250002E+03  0.7818608E-02  0.1235069E+00
          4   -1    0    0  501    0  0.00000000000E+00  0.00000000000E+00  0.50158551302E+02  0.50174626742E+02  0.12700000000E+01 0.  1.
         -4   -1    0    0    0  501 -0.00000000000E+00 -0.00000000000E+00 -0.77844621154E+02  0.77854980204E+02  0.12700000000E+01 0.  1.
         25    2    1    2    0    0  0.00000000000E+00  0.00000000000E+00 -0.27686069852E+02  0.12802960695E+03  0.12500024716E+03 0.  0.
    9000005    1    3    3    0    0  0.16676810939E+02  0.33576220648E+02 -0.65052593052E+02  0.75088737364E+02  0.10000000000E+01 0.  0.
    9000005    1    3    3    0    0 -0.16676810939E+02 -0.33576220648E+02  0.37366523200E+02  0.52940869583E+02  0.10000000000E+01 0.  0.
<mgrwt>
<rscale>  0 0.12500025E+03</rscale>
<asrwt>0</asrwt>
<pdfrwt beam="1">  1        4 0.77187336E-02 0.12500025E+03</pdfrwt>
<pdfrwt beam="2">  1       -4 0.11978129E-01 0.12500025E+03</pdfrwt>
<totfact> 0.10386790E+04</totfact>
</mgrwt>
</event>
<event>
 5    1  0.3282421E-002  0.1250001E+03  0.7818608E-02  0.1235069E+00
          4   -1    0    0  501    0  0.00000000000E+00  0.00000000000E+00  0.19377637886E+03  0.19378054057E+03  0.12700000000E+01 0.  1.
         -4   -1    0    0    0  501 -0.00000000000E+00 -0.00000000000E+00 -0.20134206346E+02  0.20174220312E+02  0.12700000000E+01 0.  1.
         25    2    1    2    0    0  0.00000000000E+00  0.00000000000E+00  0.17364217251E+03  0.21395476088E+03  0.12500014252E+03 0.  0.
    9000005    1    3    3    0    0  0.34204510982E+02 -0.52134572654E+02  0.93939655196E+02  0.11275469416E+03  0.10000000000E+01 0.  0.
    9000005    1    3    3    0    0 -0.34204510982E+02  0.52134572654E+02  0.79702517316E+02  0.10120006672E+03  0.10000000000E+01 0.  0.
<mgrwt>
<rscale>  0 0.12500014E+03</rscale>
<asrwt>0</asrwt>
<pdfrwt beam="1">  1        4 0.29815150E-01 0.12500014E+03</pdfrwt>
<pdfrwt beam="2">  1       -4 0.31009682E-02 0.12500014E+03</pdfrwt>
<totfact> 0.87833781E+03</totfact>
</mgrwt>
</event>
<event>
 5    1  0.3282421E-002  0.1249869E+03  0.7818608E-02  0.1235090E+00
         -4   -1    0    0    0  501 -0.00000000000E+00  0.00000000000E+00  0.21166492773E+02  0.21204558857E+02  0.12700000000E+01 0. -1.
          4   -1    0    0  501    0  0.00000000000E+00 -0.00000000000E+00 -0.18430399197E+03  0.18430836757E+03  0.12700000000E+01 0. -1.
         25    2    1    2    0    0  0.00000000000E+00  0.00000000000E+00 -0.16313749920E+03  0.20551292643E+03  0.12498687645E+03 0.  0.
    9000005    1    3    3    0    0  0.39015694823E+02 -0.31994461122E+02 -0.14217453927E+03  0.15086573369E+03  0.10000000000E+01 0.  0.
    9000005    1    3    3    0    0 -0.39015694823E+02  0.31994461122E+02 -0.20962959925E+02  0.54647192735E+02  0.10000000000E+01 0.  0.
<mgrwt>
<rscale>  0 0.12498688E+03</rscale>
<asrwt>0</asrwt>
<pdfrwt beam="2">  1        4 0.28357724E-01 0.12498688E+03</pdfrwt>
<pdfrwt beam="1">  1       -4 0.32596484E-02 0.12498688E+03</pdfrwt>
<totfact> 0.89240154E+03</totfact>
</mgrwt>
</event>
<event>
 5    1  0.3282421E-002  0.1250031E+03  0.7818608E-02  0.1235064E+00
         -4   -1    0    0    0  501 -0.00000000000E+00  0.00000000000E+00  0.33194451846E+01  0.35540985261E+01  0.12700000000E+01 0.  1.
          4   -1    0    0  501    0  0.00000000000E+00 -0.00000000000E+00 -0.11364266111E+04  0.11364273208E+04  0.12700000000E+01 0.  1.
         25    2    1    2    0    0  0.00000000000E+00  0.00000000000E+00 -0.11331071659E+04  0.11399814193E+04  0.12500314722E+03 0.  0.
    9000005    1    3    3    0    0 -0.97397756363E+01  0.41537122095E+02 -0.15011017633E+03  0.15605851716E+03  0.10000000000E+01 0.  0.
    9000005    1    3    3    0    0  0.97397756363E+01 -0.41537122095E+02 -0.98299698961E+03  0.98392290212E+03  0.10000000000E+01 0.  0.
<mgrwt>
<rscale>  0 0.12500315E+03</rscale>
<asrwt>0</asrwt>
<pdfrwt beam="2">  1        4 0.17485267E+00 0.12500315E+03</pdfrwt>
<pdfrwt beam="1">  1       -4 0.52878963E-03 0.12500315E+03</pdfrwt>
<totfact> 0.26338100E+03</totfact>
</mgrwt>
</event>
<event>
 5    1  0.3282421E-002  0.1250010E+03  0.7818608E-02  0.1235068E+00
          4   -1    0    0  501    0  0.00000000000E+00  0.00000000000E+00  0.57362597298E+02  0.57376654388E+02  0.12700000000E+01 0. -1.
         -4   -1    0    0    0  501 -0.00000000000E+00 -0.00000000000E+00 -0.68070305860E+02  0.68082152138E+02  0.12700000000E+01 0. -1.
         25    2    1    2    0    0  0.00000000000E+00  0.00000000000E+00 -0.10707708562E+02  0.12545880653E+03  0.12500102845E+03 0.  0.
    9000005    1    3    3    0    0  0.12951586727E+02  0.97536845397E+01 -0.65927477163E+02  0.67899265135E+02  0.10000000000E+01 0.  0.
    9000005    1    3    3    0    0 -0.12951586727E+02 -0.97536845397E+01  0.55219768601E+02  0.57559541391E+02  0.10000000000E+01 0.  0.
<mgrwt>
<rscale>  0 0.12500103E+03</rscale>
<asrwt>0</asrwt>
<pdfrwt beam="1">  1        4 0.88270075E-02 0.12500103E+03</pdfrwt>
<pdfrwt beam="2">  1       -4 0.10474347E-01 0.12500103E+03</pdfrwt>
<totfact> 0.10442623E+04</totfact>
</mgrwt>
</event>
<event>
 5    1  0.3282421E-002  0.1249971E+03  0.7818608E-02  0.1235074E+00
         -4   -1    0    0    0  501 -0.00000000000E+00  0.00000000000E+00  0.70215090344E+02  0.70226574827E+02  0.12700000000E+01 0.  1.
          4   -1    0    0  501    0  0.00000000000E+00 -0.00000000000E+00 -0.55606789649E+02  0.55621290484E+02  0.12700000000E+01 0.  1.
         25    2    1    2    0    0  0.00000000000E+00  0.00000000000E+00  0.14608300695E+02  0.12584786531E+03  0.12499713098E+03 0.  0.
    9000005    1    3    3    0    0 -0.36462400935E+02 -0.19695991883E+02 -0.39786309689E+02  0.57457716774E+02  0.10000000000E+01 0.  0.
    9000005    1    3    3    0    0  0.36462400935E+02  0.19695991883E+02  0.54394610383E+02  0.68390148537E+02  0.10000000000E+01 0.  0.
<mgrwt>
<rscale>  0 0.12499713E+03</rscale>
<asrwt>0</asrwt>
<pdfrwt beam="2">  1        4 0.85568896E-02 0.12499713E+03</pdfrwt>
<pdfrwt beam="1">  1       -4 0.10804320E-01 0.12499713E+03</pdfrwt>
<totfact> 0.10434970E+04</totfact>
</mgrwt>
</event>
<event>
 5    1  0.3282421E-002  0.1249989E+03  0.7818608E-02  0.1235071E+00
          4   -1    0    0  501    0  0.00000000000E+00  0.00000000000E+00  0.12647978883E+02  0.12711580147E+02  0.12700000000E+01 0.  1.
         -4   -1    0    0    0  501 -0.00000000000E+00 -0.00000000000E+00 -0.30799881946E+03  0.30800143780E+03  0.12700000000E+01 0.  1.
         25    2    1    2    0    0  0.00000000000E+00  0.00000000000E+00 -0.29535084057E+03  0.32071301795E+03  0.12499888340E+03 0.  0.
    9000005    1    3    3    0    0 -0.10329035655E+02  0.42530522934E+02 -0.26212082143E+03  0.26575149931E+03  0.10000000000E+01 0.  0.
    9000005    1    3    3    0    0  0.10329035655E+02 -0.42530522934E+02 -0.33230019147E+02  0.54961518639E+02  0.10000000000E+01 0.  0.
<mgrwt>
<rscale>  0 0.12499888E+03</rscale>
<asrwt>0</asrwt>
<pdfrwt beam="1">  1        4 0.19509370E-02 0.12499888E+03</pdfrwt>
<pdfrwt beam="2">  1       -4 0.47389522E-01 0.12499888E+03</pdfrwt>
<totfact> 0.73073212E+03</totfact>
</mgrwt>
</event>
<event>
 5    1  0.3282421E-002  0.1249990E+03  0.7818608E-02  0.1235071E+00
         -4   -1    0    0    0  501 -0.00000000000E+00  0.00000000000E+00  0.48309886364E+02  0.48326576752E+02  0.12700000000E+01 0. -1.
          4   -1    0    0  501    0  0.00000000000E+00 -0.00000000000E+00 -0.80821195094E+02  0.80831172678E+02  0.12700000000E+01 0. -1.
         25    2    1    2    0    0  0.00000000000E+00  0.00000000000E+00 -0.32511308730E+02  0.12915774943E+03  0.12499895617E+03 0.  0.
    9000005    1    3    3    0    0 -0.16603771692E+02  0.46690236735E+02 -0.55594932476E+02  0.74481272531E+02  0.10000000000E+01 0.  0.
    9000005    1    3    3    0    0  0.16603771692E+02 -0.46690236735E+02  0.23083623746E+02  0.54676476899E+02  0.10000000000E+01 0.  0.
<mgrwt>
<rscale>  0 0.12499896E+03</rscale>
<asrwt>0</asrwt>
<pdfrwt beam="2">  1        4 0.12436081E-01 0.12499896E+03</pdfrwt>
<pdfrwt beam="1">  1       -4 0.74343416E-02 0.12499896E+03</pdfrwt>
<totfact> 0.10362802E+04</totfact>
</mgrwt>
</event>
<event>
 5    1  0.3282421E-002  0.1249996E+03  0.7818608E-02  0.1235070E+00
          4   -1    0    0  501    0  0.00000000000E+00  0.00000000000E+00  0.64613145359E+02  0.64625625360E+02  0.12700000000E+01 0.  1.
         -4   -1    0    0    0  501 -0.00000000000E+00 -0.00000000000E+00 -0.60430616003E+02  0.60443959586E+02  0.12700000000E+01 0.  1.
         25    2    1    2    0    0  0.00000000000E+00  0.00000000000E+00  0.41825293562E+01  0.12506958495E+03  0.12499963011E+03 0.  0.
    9000005    1    3    3    0    0 -0.46846554765E+01 -0.59826976732E+02  0.19537012349E+02  0.63118206513E+02  0.10000000000E+01 0.  0.
    9000005    1    3    3    0    0  0.46846554765E+01  0.59826976732E+02 -0.15354482993E+02  0.61951378434E+02  0.10000000000E+01 0.  0.
<mgrwt>
<rscale>  0 0.12499963E+03</rscale>
<asrwt>0</asrwt>
<pdfrwt beam="1">  1        4 0.99424704E-02 0.12499963E+03</pdfrwt>
<pdfrwt beam="2">  1       -4 0.92990042E-02 0.12499963E+03</pdfrwt>
<totfact> 0.10451439E+04</totfact>
</mgrwt>
</event>
<event>
 5    1  0.3282421E-002  0.1250010E+03  0.7818608E-02  0.1235068E+00
          4   -1    0    0  501    0  0.00000000000E+00  0.00000000000E+00  0.22004890009E+02  0.22041508213E+02  0.12700000000E+01 0. -1.
         -4   -1    0    0    0  501 -0.00000000000E+00 -0.00000000000E+00 -0.17733369253E+03  0.17733824011E+03  0.12700000000E+01 0. -1.
         25    2    1    2    0    0  0.00000000000E+00  0.00000000000E+00 -0.15532880252E+03  0.19937974833E+03  0.12500098860E+03 0.  0.
    9000005    1    3    3    0    0  0.20951269481E+01 -0.49267423306E+02 -0.13889433262E+03  0.14739166934E+03  0.10000000000E+01 0.  0.
    9000005    1    3    3    0    0 -0.20951269481E+01  0.49267423306E+02 -0.16434469903E+02  0.51988078991E+02  0.10000000000E+01 0.  0.
<mgrwt>
<rscale>  0 0.12500099E+03</rscale>
<asrwt>0</asrwt>
<pdfrwt beam="1">  1        4 0.33885344E-02 0.12500099E+03</pdfrwt>
<pdfrwt beam="2">  1       -4 0.27285272E-01 0.12500099E+03</pdfrwt>
<totfact> 0.90238226E+03</totfact>
</mgrwt>
</event>
<event>
 5    1  0.3282421E-002  0.1250028E+03  0.7818608E-02  0.1235065E+00
         -4   -1    0    0    0  501 -0.00000000000E+00  0.00000000000E+00  0.28180224364E+02  0.28208827434E+02  0.12700000000E+01 0. -1.
          4   -1    0    0  501    0  0.00000000000E+00 -0.00000000000E+00 -0.13852105688E+03  0.13852687861E+03  0.12700000000E+01 0. -1.
         25    2    1    2    0    0  0.00000000000E+00  0.00000000000E+00 -0.11034083251E+03  0.16673570605E+03  0.12500278538E+03 0.  0.
    9000005    1    3    3    0    0 -0.16842376618E+02 -0.39101032837E+02 -0.11619148463E+03  0.12374981826E+03  0.10000000000E+01 0.  0.
    9000005    1    3    3    0    0  0.16842376618E+02  0.39101032837E+02  0.58506521116E+01  0.42985887791E+02  0.10000000000E+01 0.  0.
<mgrwt>
<rscale>  0 0.12500279E+03</rscale>
<asrwt>0</asrwt>
<pdfrwt beam="2">  1        4 0.21313580E-01 0.12500279E+03</pdfrwt>
<pdfrwt beam="1">  1       -4 0.43380673E-02 0.12500279E+03</pdfrwt>
<totfact> 0.96053674E+03</totfact>
</mgrwt>
</event>
<event>
 5    1  0.3282421E-002  0.1249990E+03  0.7818608E-02  0.1235071E+00
         -4   -1    0    0    0  501 -0.00000000000E+00  0.00000000000E+00  0.19329339053E+02  0.19371015673E+02  0.12700000000E+01 0.  1.
          4   -1    0    0  501    0  0.00000000000E+00 -0.00000000000E+00 -0.20182456451E+03  0.20182856026E+03  0.12700000000E+01 0.  1.
         25    2    1    2    0    0  0.00000000000E+00  0.00000000000E+00 -0.18249522545E+03  0.22119957594E+03  0.12499898032E+03 0.  0.
    9000005    1    3    3    0    0  0.93688366597E+01  0.23058440064E+02  0.10188608726E+02  0.26912348584E+02  0.10000000000E+01 0.  0.
    9000005    1    3    3    0    0 -0.93688366597E+01 -0.23058440064E+02 -0.19268383418E+03  0.19428722735E+03  0.10000000000E+01 0.  0.
<mgrwt>
<rscale>  0 0.12499898E+03</rscale>
<asrwt>0</asrwt>
<pdfrwt beam="2">  1        4 0.31053445E-01 0.12499898E+03</pdfrwt>
<pdfrwt beam="1">  1       -4 0.29772579E-02 0.12499898E+03</pdfrwt>
<totfact> 0.86680862E+03</totfact>
</mgrwt>
</event>
<event>
 5    1  0.3282421E-002  0.1250005E+03  0.7818608E-02  0.1235068E+00
         -4   -1    0    0    0  501 -0.00000000000E+00  0.00000000000E+00  0.77158360425E+02  0.77168811598E+02  0.12700000000E+01 0.  1.
          4   -1    0    0  501    0  0.00000000000E+00 -0.00000000000E+00 -0.50604988066E+02  0.50620921733E+02  0.12700000000E+01 0.  1.
         25    2    1    2    0    0  0.00000000000E+00  0.00000000000E+00  0.26553372359E+02  0.12778973333E+03  0.12500053744E+03 0.  0.
    9000005    1    3    3    0    0 -0.37922551344E+01  0.65328149452E+01  0.76694942378E+02  0.77072518166E+02  0.10000000000E+01 0.  0.
    9000005    1    3    3    0    0  0.37922551344E+01 -0.65328149452E+01 -0.50141570019E+02  0.50717215165E+02  0.10000000000E+01 0.  0.
<mgrwt>
<rscale>  0 0.12500054E+03</rscale>
<asrwt>0</asrwt>
<pdfrwt beam="2">  1        4 0.77874124E-02 0.12500054E+03</pdfrwt>
<pdfrwt beam="1">  1       -4 0.11872547E-01 0.12500054E+03</pdfrwt>
<totfact> 0.10391905E+04</totfact>
</mgrwt>
</event>
<event>
 5    1  0.3282421E-002  0.1250023E+03  0.7818608E-02  0.1235066E+00
         -4   -1    0    0    0  501 -0.00000000000E+00  0.00000000000E+00  0.42397443368E+02  0.42416460297E+02  0.12700000000E+01 0. -1.
          4   -1    0    0  501    0  0.00000000000E+00 -0.00000000000E+00 -0.92093438320E+02  0.92102194771E+02  0.12700000000E+01 0. -1.
         25    2    1    2    0    0  0.00000000000E+00  0.00000000000E+00 -0.49695994952E+02  0.13451865507E+03  0.12500230657E+03 0.  0.
    9000005    1    3    3    0    0 -0.55772985165E+02 -0.28069501256E+02 -0.27668890965E+02  0.68301466325E+02  0.10000000000E+01 0.  0.
    9000005    1    3    3    0    0  0.55772985165E+02  0.28069501256E+02 -0.22027103987E+02  0.66217188743E+02  0.10000000000E+01 0.  0.
<mgrwt>
<rscale>  0 0.12500231E+03</rscale>
<asrwt>0</asrwt>
<pdfrwt beam="2">  1        4 0.14170358E-01 0.12500231E+03</pdfrwt>
<pdfrwt beam="1">  1       -4 0.65248200E-02 0.12500231E+03</pdfrwt>
<totfact> 0.10247693E+04</totfact>
</mgrwt>
</event>
<event>
 5    1  0.3282421E-002  0.1250006E+03  0.7818608E-02  0.1235068E+00
          4   -1    0    0  501    0  0.00000000000E+00  0.00000000000E+00  0.77881292373E+02  0.77891646546E+02  0.12700000000E+01 0. -1.
         -4   -1    0    0    0  501 -0.00000000000E+00 -0.00000000000E+00 -0.50135235731E+02  0.50151318644E+02  0.12700000000E+01 0. -1.
         25    2    1    2    0    0  0.00000000000E+00  0.00000000000E+00  0.27746056642E+02  0.12804296519E+03  0.12500062910E+03 0.  0.
    9000005    1    3    3    0    0 -0.16068413966E+02 -0.48113997483E+02 -0.23513766673E+02  0.55920013451E+02  0.10000000000E+01 0.  0.
    9000005    1    3    3    0    0  0.16068413966E+02  0.48113997483E+02  0.51259823315E+02  0.72122951739E+02  0.10000000000E+01 0.  0.
<mgrwt>
<rscale>  0 0.12500063E+03</rscale>
<asrwt>0</asrwt>
<pdfrwt beam="1">  1        4 0.11983771E-01 0.12500063E+03</pdfrwt>
<pdfrwt beam="2">  1       -4 0.77151468E-02 0.12500063E+03</pdfrwt>
<totfact> 0.10386412E+04</totfact>
</mgrwt>
</event>
<event>
 5    1  0.3282421E-002  0.1250001E+03  0.7818608E-02  0.1235069E+00
          4   -1    0    0  501    0  0.00000000000E+00  0.00000000000E+00  0.32228265468E+02  0.32253278826E+02  0.12700000000E+01 0. -1.
         -4   -1    0    0    0  501 -0.00000000000E+00 -0.00000000000E+00 -0.12113049037E+03  0.12113714789E+03  0.12700000000E+01 0. -1.
         25    2    1    2    0    0  0.00000000000E+00  0.00000000000E+00 -0.88902224906E+02  0.15339042671E+03  0.12500006966E+03 0.  0.
    9000005    1    3    3    0    0 -0.26137705160E+02 -0.45440114288E+02 -0.86196210573E+02  0.10088989213E+03  0.10000000000E+01 0.  0.
    9000005    1    3    3    0    0  0.26137705160E+02  0.45440114288E+02 -0.27060143327E+01  0.52500534580E+02  0.10000000000E+01 0.  0.
<mgrwt>
<rscale>  0 0.12500007E+03</rscale>
<asrwt>0</asrwt>
<pdfrwt beam="1">  1        4 0.49606310E-02 0.12500007E+03</pdfrwt>
<pdfrwt beam="2">  1       -4 0.18637896E-01 0.12500007E+03</pdfrwt>
<totfact> 0.98631956E+03</totfact>
</mgrwt>
</event>
<event>
 5    1  0.3282421E-002  0.1250010E+03  0.7818608E-02  0.1235068E+00
         -4   -1    0    0    0  501 -0.00000000000E+00  0.00000000000E+00  0.25895726050E+03  0.25896037470E+03  0.12700000000E+01 0.  1.
          4   -1    0    0  501    0  0.00000000000E+00 -0.00000000000E+00 -0.15054839026E+02  0.15108311557E+02  0.12700000000E+01 0.  1.
         25    2    1    2    0    0  0.00000000000E+00  0.00000000000E+00  0.24390242147E+03  0.27406868626E+03  0.12500101434E+03 0.  0.
    9000005    1    3    3    0    0 -0.44892271751E+02 -0.25533282820E+02  0.19909745055E+03  0.20568923018E+03  0.10000000000E+01 0.  0.
    9000005    1    3    3    0    0  0.44892271751E+02  0.25533282820E+02  0.44804970922E+02  0.68379456080E+02  0.10000000000E+01 0.  0.
<mgrwt>
<rscale>  0 0.12500101E+03</rscale>
<asrwt>0</asrwt>
<pdfrwt beam="2">  1        4 0.23204821E-02 0.12500101E+03</pdfrwt>
<pdfrwt beam="1">  1       -4 0.39843928E-01 0.12500101E+03</pdfrwt>
<totfact> 0.78969405E+03</totfact>
</mgrwt>
</event>
<event>
 5    1  0.3282421E-002  0.1250016E+03  0.7818608E-02  0.1235067E+00
         -4   -1    0    0    0  501 -0.00000000000E+00  0.00000000000E+00  0.25865220545E+02  0.25896380709E+02  0.12700000000E+01 0. -1.
          4   -1    0    0  501    0  0.00000000000E+00 -0.00000000000E+00 -0.15090237839E+03  0.15090772248E+03  0.12700000000E+01 0. -1.
         25    2    1    2    0    0  0.00000000000E+00  0.00000000000E+00 -0.12503715784E+03  0.17680410319E+03  0.12500160024E+03 0.  0.
    9000005    1    3    3    0    0  0.13094655758E+02 -0.31615797983E+02  0.11442211123E+02  0.36096438701E+02  0.10000000000E+01 0.  0.
    9000005    1    3    3    0    0 -0.13094655758E+02  0.31615797983E+02 -0.13647936897E+03  0.14070766449E+03  0.10000000000E+01 0.  0.
<mgrwt>
<rscale>  0 0.12500160E+03</rscale>
<asrwt>0</asrwt>
<pdfrwt beam="2">  1        4 0.23218558E-01 0.12500160E+03</pdfrwt>
<pdfrwt beam="1">  1       -4 0.39820728E-02 0.12500160E+03</pdfrwt>
<totfact> 0.94192078E+03</totfact>
</mgrwt>
</event>
<event>
 5    1  0.3282421E-002  0.1249955E+03  0.7818608E-02  0.1235076E+00
          4   -1    0    0  501    0  0.00000000000E+00  0.00000000000E+00  0.97834240194E+01  0.98655098978E+01  0.12700000000E+01 0.  1.
         -4   -1    0    0    0  501 -0.00000000000E+00 -0.00000000000E+00 -0.39749237087E+03  0.39749439971E+03  0.12700000000E+01 0.  1.
         25    2    1    2    0    0  0.00000000000E+00  0.00000000000E+00 -0.38770894685E+03  0.40735990961E+03  0.12499547387E+03 0.  0.
    9000005    1    3    3    0    0  0.34484123376E+02  0.45588321719E+02 -0.11156771039E+03  0.12536268920E+03  0.10000000000E+01 0.  0.
    9000005    1    3    3    0    0 -0.34484123376E+02 -0.45588321719E+02 -0.27614123647E+03  0.28199722041E+03  0.10000000000E+01 0.  0.
<mgrwt>
<rscale>  0 0.12499547E+03</rscale>
<asrwt>0</asrwt>
<pdfrwt beam="1">  1        4 0.15116128E-02 0.12499547E+03</pdfrwt>
<pdfrwt beam="2">  1       -4 0.61159130E-01 0.12499547E+03</pdfrwt>
<totfact> 0.63849596E+03</totfact>
</mgrwt>
</event>
<event>
 5    1  0.3282421E-002  0.1250007E+03  0.7818608E-02  0.1235068E+00
         -4   -1    0    0    0  501 -0.00000000000E+00  0.00000000000E+00  0.30034688412E+03  0.30034956917E+03  0.12700000000E+01 0. -1.
          4   -1    0    0  501    0  0.00000000000E+00 -0.00000000000E+00 -0.12972185975E+02  0.13034205345E+02  0.12700000000E+01 0. -1.
         25    2    1    2    0    0  0.00000000000E+00  0.00000000000E+00  0.28737469815E+03  0.31338377452E+03  0.12500069198E+03 0.  0.
    9000005    1    3    3    0    0  0.46671318003E+02 -0.95655283737E+01  0.42296152145E+02  0.63715584777E+02  0.10000000000E+01 0.  0.
    9000005    1    3    3    0    0 -0.46671318003E+02  0.95655283737E+01  0.24507854600E+03  0.24966818974E+03  0.10000000000E+01 0.  0.
<mgrwt>
<rscale>  0 0.12500069E+03</rscale>
<asrwt>0</asrwt>
<pdfrwt beam="2">  1        4 0.20006982E-02 0.12500069E+03</pdfrwt>
<pdfrwt beam="1">  1       -4 0.46212189E-01 0.12500069E+03</pdfrwt>
<totfact> 0.73948874E+03</totfact>
</mgrwt>
</event>
<event>
 4    1  0.3282421E-002  0.1248468E+03  0.7818608E-02  0.1235309E+00
         -4   -1    0    0    0  501 -0.00000000000E+00  0.00000000000E+00  0.15070017113E+02  0.15123435979E+02  0.12700000000E+01 0.  1.
          4   -1    0    0  501    0  0.00000000000E+00 -0.00000000000E+00 -0.25805926282E+03  0.25806238786E+03  0.12700000000E+01 0.  1.
    9000005    1    1    2    0    0 -0.44280008883E+02 -0.38416309630E+02 -0.74607108444E+02  0.94888106013E+02  0.10000000000E+01 0.  0.
    9000005    1    1    2    0    0  0.44280008883E+02  0.38416309630E+02 -0.16838213726E+03  0.17829771782E+03  0.10000000000E+01 0.  0.
<mgrwt>
<rscale>  0 0.12484679E+03</rscale>
<asrwt>0</asrwt>
<pdfrwt beam="2">  1        4 0.39705771E-01 0.12484679E+03</pdfrwt>
<pdfrwt beam="1">  1       -4 0.23228139E-02 0.12484679E+03</pdfrwt>
<totfact> 0.79360463E+03</totfact>
</mgrwt>
</event>
<event>
 5    1  0.3282421E-002  0.1249995E+03  0.7818608E-02  0.1235070E+00
          4   -1    0    0  501    0  0.00000000000E+00  0.00000000000E+00  0.36510344585E+02  0.36532426168E+02  0.12700000000E+01 0.  1.
         -4   -1    0    0    0  501 -0.00000000000E+00 -0.00000000000E+00 -0.10693124759E+03  0.10693878909E+03  0.12700000000E+01 0.  1.
         25    2    1    2    0    0  0.00000000000E+00  0.00000000000E+00 -0.70420903007E+02  0.14347121526E+03  0.12499954411E+03 0.  0.
    9000005    1    3    3    0    0 -0.51451909170E+02  0.17042645125E+02 -0.70911032190E+02  0.89258754172E+02  0.10000000000E+01 0.  0.
    9000005    1    3    3    0    0  0.51451909170E+02 -0.17042645125E+02  0.49012918328E+00  0.54212461084E+02  0.10000000000E+01 0.  0.
<mgrwt>
<rscale>  0 0.12499954E+03</rscale>
<asrwt>0</asrwt>
<pdfrwt beam="1">  1        4 0.56192548E-02 0.12499954E+03</pdfrwt>
<pdfrwt beam="2">  1       -4 0.16453240E-01 0.12499954E+03</pdfrwt>
<totfact> 0.10062246E+04</totfact>
</mgrwt>
</event>
<event>
 5    1  0.3282421E-002  0.1250003E+03  0.7818608E-02  0.1235069E+00
          4   -1    0    0  501    0  0.00000000000E+00  0.00000000000E+00  0.41697380793E+02  0.41716716853E+02  0.12700000000E+01 0.  1.
         -4   -1    0    0    0  501 -0.00000000000E+00 -0.00000000000E+00 -0.93636104242E+02  0.93644716443E+02  0.12700000000E+01 0.  1.
         25    2    1    2    0    0  0.00000000000E+00  0.00000000000E+00 -0.51938723449E+02  0.13536143330E+03  0.12500034652E+03 0.  0.
    9000005    1    3    3    0    0 -0.35583376851E+02  0.16130028232E+01  0.29633488311E+02  0.46345680659E+02  0.10000000000E+01 0.  0.
    9000005    1    3    3    0    0  0.35583376851E+02 -0.16130028232E+01 -0.81572211759E+02  0.89015752637E+02  0.10000000000E+01 0.  0.
<mgrwt>
<rscale>  0 0.12500035E+03</rscale>
<asrwt>0</asrwt>
<pdfrwt beam="1">  1        4 0.64171316E-02 0.12500035E+03</pdfrwt>
<pdfrwt beam="2">  1       -4 0.14407704E-01 0.12500035E+03</pdfrwt>
<totfact> 0.10230378E+04</totfact>
</mgrwt>
</event>
<event>
 5    1  0.3282421E-002  0.1250013E+03  0.7818608E-02  0.1235067E+00
          4   -1    0    0  501    0  0.00000000000E+00  0.00000000000E+00  0.15650930535E+02  0.15702373280E+02  0.12700000000E+01 0. -1.
         -4   -1    0    0    0  501 -0.00000000000E+00 -0.00000000000E+00 -0.24912860639E+03  0.24913184345E+03  0.12700000000E+01 0. -1.
         25    2    1    2    0    0  0.00000000000E+00  0.00000000000E+00 -0.23347767586E+03  0.26483421673E+03  0.12500134891E+03 0.  0.
    9000005    1    3    3    0    0 -0.27948389627E+02 -0.48928403083E+02 -0.59486901291E+02  0.81943837695E+02  0.10000000000E+01 0.  0.
    9000005    1    3    3    0    0  0.27948389627E+02  0.48928403083E+02 -0.17399077457E+03  0.18289037904E+03  0.10000000000E+01 0.  0.
<mgrwt>
<rscale>  0 0.12500135E+03</rscale>
<asrwt>0</asrwt>
<pdfrwt beam="1">  1        4 0.24120418E-02 0.12500135E+03</pdfrwt>
<pdfrwt beam="2">  1       -4 0.38331681E-01 0.12500135E+03</pdfrwt>
<totfact> 0.80229991E+03</totfact>
</mgrwt>
</event>
<event>
 5    1  0.3282421E-002  0.1249986E+03  0.7818608E-02  0.1235071E+00
         -4   -1    0    0    0  501 -0.00000000000E+00  0.00000000000E+00  0.11207628140E+03  0.11208347671E+03  0.12700000000E+01 0. -1.
          4   -1    0    0  501    0  0.00000000000E+00 -0.00000000000E+00 -0.34832824624E+02  0.34855968948E+02  0.12700000000E+01 0. -1.
         25    2    1    2    0    0  0.00000000000E+00  0.00000000000E+00  0.77243456775E+02  0.14693944566E+03  0.12499859630E+03 0.  0.
    9000005    1    3    3    0    0  0.38032757074E+02  0.48895561565E+01 -0.19382771670E+02  0.42977787375E+02  0.10000000000E+01 0.  0.
    9000005    1    3    3    0    0 -0.38032757074E+02 -0.48895561565E+01  0.96626228445E+02  0.10396165829E+03  0.10000000000E+01 0.  0.
<mgrwt>
<rscale>  0 0.12499860E+03</rscale>
<asrwt>0</asrwt>
<pdfrwt beam="2">  1        4 0.53612299E-02 0.12499860E+03</pdfrwt>
<pdfrwt beam="1">  1       -4 0.17244839E-01 0.12499860E+03</pdfrwt>
<totfact> 0.99920468E+03</totfact>
</mgrwt>
</event>
<event>
 5    1  0.3282421E-002  0.1249990E+03  0.7818608E-02  0.1235071E+00
         -4   -1    0    0    0  501 -0.00000000000E+00  0.00000000000E+00  0.10845826282E+03  0.10846569814E+03  0.12700000000E+01 0. -1.
          4   -1    0    0  501    0  0.00000000000E+00 -0.00000000000E+00 -0.35995717399E+02  0.36018114486E+02  0.12700000000E+01 0. -1.
         25    2    1    2    0    0  0.00000000000E+00  0.00000000000E+00  0.72462545417E+02  0.14448381263E+03  0.12499900649E+03 0.  0.
    9000005    1    3    3    0    0 -0.14677877782E+02 -0.51898560654E+02 -0.25293419052E+00  0.53944088368E+02  0.10000000000E+01 0.  0.
    9000005    1    3    3    0    0  0.14677877782E+02  0.51898560654E+02  0.72715479607E+02  0.90539724258E+02  0.10000000000E+01 0.  0.
<mgrwt>
<rscale>  0 0.12499901E+03</rscale>
<asrwt>0</asrwt>
<pdfrwt beam="2">  1        4 0.55400975E-02 0.12499901E+03</pdfrwt>
<pdfrwt beam="1">  1       -4 0.16688181E-01 0.12499901E+03</pdfrwt>
<totfact> 0.10041711E+04</totfact>
</mgrwt>
</event>
<event>
 5    1  0.3282421E-002  0.1249963E+03  0.7818608E-02  0.1235075E+00
         -4   -1    0    0    0  501 -0.00000000000E+00  0.00000000000E+00  0.34501828792E+03  0.34502062532E+03  0.12700000000E+01 0.  1.
          4   -1    0    0  501    0  0.00000000000E+00 -0.00000000000E+00 -0.11283192869E+02  0.11354441480E+02  0.12700000000E+01 0.  1.
         25    2    1    2    0    0  0.00000000000E+00  0.00000000000E+00  0.33373509505E+03  0.35637506680E+03  0.12499629823E+03 0.  0.
    9000005    1    3    3    0    0 -0.40379864743E+02  0.36232455639E+02  0.78451990641E+02  0.95388883807E+02  0.10000000000E+01 0.  0.
    9000005    1    3    3    0    0  0.40379864743E+02 -0.36232455639E+02  0.25528310441E+03  0.26098618300E+03  0.10000000000E+01 0.  0.
<mgrwt>
<rscale>  0 0.12499630E+03</rscale>
<asrwt>0</asrwt>
<pdfrwt beam="2">  1        4 0.17415363E-02 0.12499630E+03</pdfrwt>
<pdfrwt beam="1">  1       -4 0.53085398E-01 0.12499630E+03</pdfrwt>
<totfact> 0.69034519E+03</totfact>
</mgrwt>
</event>
<event>
 5    1  0.3282421E-002  0.1249983E+03  0.7818608E-02  0.1235072E+00
          4   -1    0    0  501    0  0.00000000000E+00  0.00000000000E+00  0.16042105079E+03  0.16042607779E+03  0.12700000000E+01 0. -1.
         -4   -1    0    0    0  501 -0.00000000000E+00 -0.00000000000E+00 -0.24327341816E+02  0.24360469204E+02  0.12700000000E+01 0. -1.
         25    2    1    2    0    0  0.00000000000E+00  0.00000000000E+00  0.13609370897E+03  0.18478654700E+03  0.12499828131E+03 0.  0.
    9000005    1    3    3    0    0 -0.20438749652E+02 -0.16697116166E+01 -0.19218836589E+02  0.28122839545E+02  0.10000000000E+01 0.  0.
    9000005    1    3    3    0    0  0.20438749652E+02  0.16697116166E+01  0.15531254556E+03  0.15666370745E+03  0.10000000000E+01 0.  0.
<mgrwt>
<rscale>  0 0.12499828E+03</rscale>
<asrwt>0</asrwt>
<pdfrwt beam="1">  1        4 0.24683097E-01 0.12499828E+03</pdfrwt>
<pdfrwt beam="2">  1       -4 0.37456029E-02 0.12499828E+03</pdfrwt>
<totfact> 0.92766008E+03</totfact>
</mgrwt>
</event>
<event>
 5    1  0.3282421E-002  0.1250193E+03  0.7818608E-02  0.1235039E+00
          4   -1    0    0  501    0  0.00000000000E+00  0.00000000000E+00  0.95204662955E+02  0.95213133277E+02  0.12700000000E+01 0.  1.
         -4   -1    0    0    0  501 -0.00000000000E+00 -0.00000000000E+00 -0.41022559513E+02  0.41042213500E+02  0.12700000000E+01 0.  1.
         25    2    1    2    0    0  0.00000000000E+00  0.00000000000E+00  0.54182103442E+02  0.13625534678E+03  0.12501927528E+03 0.  0.
    9000005    1    3    3    0    0 -0.29519211471E+02 -0.42772543733E+02  0.64933103495E+02  0.83175611045E+02  0.10000000000E+01 0.  0.
    9000005    1    3    3    0    0  0.29519211471E+02  0.42772543733E+02 -0.10751000052E+02  0.53079735732E+02  0.10000000000E+01 0.  0.
<mgrwt>
<rscale>  0 0.12501928E+03</rscale>
<asrwt>0</asrwt>
<pdfrwt beam="1">  1        4 0.14649034E-01 0.12501928E+03</pdfrwt>
<pdfrwt beam="2">  1       -4 0.63133265E-02 0.12501928E+03</pdfrwt>
<totfact> 0.10207241E+04</totfact>
</mgrwt>
</event>
<event>
 5    1  0.3282421E-002  0.1250533E+03  0.7818608E-02  0.1234986E+00
          4   -1    0    0  501    0  0.00000000000E+00  0.00000000000E+00  0.41158823215E+01  0.43073643083E+01  0.12700000000E+01 0.  1.
         -4   -1    0    0    0  501 -0.00000000000E+00 -0.00000000000E+00 -0.92809125345E+03  0.92809212239E+03  0.12700000000E+01 0.  1.
         25    2    1    2    0    0  0.00000000000E+00  0.00000000000E+00 -0.92397537113E+03  0.93239948669E+03  0.12505325398E+03 0.  0.
    9000005    1    3    3    0    0 -0.20026982862E+02  0.52210639611E+02 -0.25354584516E+03  0.25964114953E+03  0.10000000000E+01 0.  0.
    9000005    1    3    3    0    0  0.20026982862E+02 -0.52210639611E+02 -0.67042952597E+03  0.67275833716E+03  0.10000000000E+01 0.  0.
<mgrwt>
<rscale>  0 0.12505325E+03</rscale>
<asrwt>0</asrwt>
<pdfrwt beam="1">  1        4 0.64800963E-03 0.12505325E+03</pdfrwt>
<pdfrwt beam="2">  1       -4 0.14279790E+00 0.12505325E+03</pdfrwt>
<totfact> 0.32910998E+03</totfact>
</mgrwt>
</event>
<event>
 5    1  0.3282421E-002  0.1250053E+03  0.7818608E-02  0.1235061E+00
          4   -1    0    0  501    0  0.00000000000E+00  0.00000000000E+00  0.20943891101E+02  0.20982361032E+02  0.12700000000E+01 0. -1.
         -4   -1    0    0    0  501 -0.00000000000E+00 -0.00000000000E+00 -0.18631429577E+03  0.18631862416E+03  0.12700000000E+01 0. -1.
         25    2    1    2    0    0  0.00000000000E+00  0.00000000000E+00 -0.16537040467E+03  0.20730098519E+03  0.12500531077E+03 0.  0.
    9000005    1    3    3    0    0 -0.46695345879E+02  0.38806488959E+02 -0.58133797180E+02  0.84065077687E+02  0.10000000000E+01 0.  0.
    9000005    1    3    3    0    0  0.46695345879E+02 -0.38806488959E+02 -0.10723660749E+03  0.12323590750E+03  0.10000000000E+01 0.  0.
<mgrwt>
<rscale>  0 0.12500531E+03</rscale>
<asrwt>0</asrwt>
<pdfrwt beam="1">  1        4 0.32254294E-02 0.12500531E+03</pdfrwt>
<pdfrwt beam="2">  1       -4 0.28667029E-01 0.12500531E+03</pdfrwt>
<totfact> 0.88908012E+03</totfact>
</mgrwt>
</event>
<event>
 5    1  0.3282421E-002  0.1250023E+03  0.7818608E-02  0.1235066E+00
         -4   -1    0    0    0  501 -0.00000000000E+00  0.00000000000E+00  0.29970916763E+03  0.29971185839E+03  0.12700000000E+01 0. -1.
          4   -1    0    0  501    0  0.00000000000E+00 -0.00000000000E+00 -0.13000252535E+02  0.13062138645E+02  0.12700000000E+01 0. -1.
         25    2    1    2    0    0  0.00000000000E+00  0.00000000000E+00  0.28670891509E+03  0.31277399704E+03  0.12500228489E+03 0.  0.
    9000005    1    3    3    0    0  0.16866566312E+02  0.85662100802E+00 -0.71944637133E+01  0.18384100925E+02  0.10000000000E+01 0.  0.
    9000005    1    3    3    0    0 -0.16866566312E+02 -0.85662100802E+00  0.29390337881E+03  0.29438989611E+03  0.10000000000E+01 0.  0.
<mgrwt>
<rscale>  0 0.12500228E+03</rscale>
<asrwt>0</asrwt>
<pdfrwt beam="2">  1        4 0.20050063E-02 0.12500228E+03</pdfrwt>
<pdfrwt beam="1">  1       -4 0.46114069E-01 0.12500228E+03</pdfrwt>
<totfact> 0.74020134E+03</totfact>
</mgrwt>
</event>
<event>
 5    1  0.3282421E-002  0.1249924E+03  0.7818608E-02  0.1235081E+00
          4   -1    0    0  501    0  0.00000000000E+00  0.00000000000E+00  0.34777937157E+02  0.34801117984E+02  0.12700000000E+01 0.  1.
         -4   -1    0    0    0  501 -0.00000000000E+00 -0.00000000000E+00 -0.11224195527E+03  0.11224913996E+03  0.12700000000E+01 0.  1.
         25    2    1    2    0    0  0.00000000000E+00  0.00000000000E+00 -0.77464018111E+02  0.14705025795E+03  0.12499241681E+03 0.  0.
    9000005    1    3    3    0    0  0.54752966733E+02 -0.24118581007E+02 -0.59947147701E+02  0.84700967133E+02  0.10000000000E+01 0.  0.
    9000005    1    3    3    0    0 -0.54752966733E+02  0.24118581007E+02 -0.17516870410E+02  0.62349290813E+02  0.10000000000E+01 0.  0.
<mgrwt>
<rscale>  0 0.12499242E+03</rscale>
<asrwt>0</asrwt>
<pdfrwt beam="1">  1        4 0.53527877E-02 0.12499242E+03</pdfrwt>
<pdfrwt beam="2">  1       -4 0.17270329E-01 0.12499242E+03</pdfrwt>
<totfact> 0.99912025E+03</totfact>
</mgrwt>
</event>
<event>
 5    1  0.3282421E-002  0.1250017E+03  0.7818608E-02  0.1235067E+00
         -4   -1    0    0    0  501 -0.00000000000E+00  0.00000000000E+00  0.32216765950E+02  0.32241788230E+02  0.12700000000E+01 0.  1.
          4   -1    0    0  501    0  0.00000000000E+00 -0.00000000000E+00 -0.12117684267E+03  0.12118349763E+03  0.12700000000E+01 0.  1.
         25    2    1    2    0    0  0.00000000000E+00  0.00000000000E+00 -0.88960076717E+02  0.15342528586E+03  0.12500169236E+03 0.  0.
    9000005    1    3    3    0    0  0.39769339929E+02 -0.48009264627E+02 -0.39148903882E+02  0.73621508838E+02  0.10000000000E+01 0.  0.
    9000005    1    3    3    0    0 -0.39769339929E+02  0.48009264627E+02 -0.49811172835E+02  0.79803777026E+02  0.10000000000E+01 0.  0.
<mgrwt>
<rscale>  0 0.12500169E+03</rscale>
<asrwt>0</asrwt>
<pdfrwt beam="2">  1        4 0.18645028E-01 0.12500169E+03</pdfrwt>
<pdfrwt beam="1">  1       -4 0.49588623E-02 0.12500169E+03</pdfrwt>
<totfact> 0.98621494E+03</totfact>
</mgrwt>
</event>
<event>
 5    1  0.3282421E-002  0.1249947E+03  0.7818608E-02  0.1235078E+00
          4   -1    0    0  501    0  0.00000000000E+00  0.00000000000E+00  0.36495827833E+02  0.36517918194E+02  0.12700000000E+01 0. -1.
         -4   -1    0    0    0  501 -0.00000000000E+00 -0.00000000000E+00 -0.10696550117E+03  0.10697304025E+03  0.12700000000E+01 0. -1.
         25    2    1    2    0    0  0.00000000000E+00  0.00000000000E+00 -0.70469673341E+02  0.14349095845E+03  0.12499472107E+03 0.  0.
    9000005    1    3    3    0    0  0.41657702994E+02 -0.44780260751E+02 -0.49948832688E+02  0.78971652247E+02  0.10000000000E+01 0.  0.
    9000005    1    3    3    0    0 -0.41657702994E+02  0.44780260751E+02 -0.20520840652E+02  0.64519306202E+02  0.10000000000E+01 0.  0.
<mgrwt>
<rscale>  0 0.12499472E+03</rscale>
<asrwt>0</asrwt>
<pdfrwt beam="1">  1        4 0.56170220E-02 0.12499472E+03</pdfrwt>
<pdfrwt beam="2">  1       -4 0.16458510E-01 0.12499472E+03</pdfrwt>
<totfact> 0.10062936E+04</totfact>
</mgrwt>
</event>
<event>
 5    1  0.3282421E-002  0.1249953E+03  0.7818608E-02  0.1235077E+00
         -4   -1    0    0    0  501 -0.00000000000E+00  0.00000000000E+00  0.79192338799E+02  0.79202521579E+02  0.12700000000E+01 0. -1.
          4   -1    0    0  501    0  0.00000000000E+00 -0.00000000000E+00 -0.49300849128E+02  0.49317204146E+02  0.12700000000E+01 0. -1.
         25    2    1    2    0    0  0.00000000000E+00  0.00000000000E+00  0.29891489671E+02  0.12851972572E+03  0.12499527489E+03 0.  0.
    9000005    1    3    3    0    0  0.47841378114E+02 -0.28422915189E+01  0.56177310944E+02  0.73849619808E+02  0.10000000000E+01 0.  0.
    9000005    1    3    3    0    0 -0.47841378114E+02  0.28422915189E+01 -0.26285821273E+02  0.54670105916E+02  0.10000000000E+01 0.  0.
<mgrwt>
<rscale>  0 0.12499527E+03</rscale>
<asrwt>0</asrwt>
<pdfrwt beam="2">  1        4 0.75867875E-02 0.12499527E+03</pdfrwt>
<pdfrwt beam="1">  1       -4 0.12185478E-01 0.12499527E+03</pdfrwt>
<totfact> 0.10377386E+04</totfact>
</mgrwt>
</event>
<event>
 5    1  0.3282421E-002  0.1250030E+03  0.7818608E-02  0.1235065E+00
          4   -1    0    0  501    0  0.00000000000E+00  0.00000000000E+00  0.26910058087E+03  0.26910357769E+03  0.12700000000E+01 0.  1.
         -4   -1    0    0    0  501 -0.00000000000E+00 -0.00000000000E+00 -0.14485790201E+02  0.14541355430E+02  0.12700000000E+01 0.  1.
         25    2    1    2    0    0  0.00000000000E+00  0.00000000000E+00  0.25461479067E+03  0.28364493312E+03  0.12500302579E+03 0.  0.
    9000005    1    3    3    0    0  0.90250009752E+01  0.52544073096E+02  0.53322447491E+02  0.75409639082E+02  0.10000000000E+01 0.  0.
    9000005    1    3    3    0    0 -0.90250009752E+01 -0.52544073096E+02  0.20129234318E+03  0.20823529404E+03  0.10000000000E+01 0.  0.
<mgrwt>
<rscale>  0 0.12500303E+03</rscale>
<asrwt>0</asrwt>
<pdfrwt beam="1">  1        4 0.41404597E-01 0.12500303E+03</pdfrwt>
<pdfrwt beam="2">  1       -4 0.22330877E-02 0.12500303E+03</pdfrwt>
<totfact> 0.77692055E+03</totfact>
</mgrwt>
</event>
<event>
 5    1  0.3282421E-002  0.1249977E+03  0.7818608E-02  0.1235073E+00
         -4   -1    0    0    0  501 -0.00000000000E+00  0.00000000000E+00  0.60739717251E+01  0.62053229180E+01  0.12700000000E+01 0. -1.
          4   -1    0    0  501    0  0.00000000000E+00 -0.00000000000E+00 -0.63607821057E+03  0.63607947842E+03  0.12700000000E+01 0. -1.
         25    2    1    2    0    0  0.00000000000E+00  0.00000000000E+00 -0.63000423885E+03  0.64228480134E+03  0.12499770023E+03 0.  0.
    9000005    1    3    3    0    0  0.16019459446E+02 -0.29493519251E+01 -0.50008597226E+01  0.17068402259E+02  0.10000000000E+01 0.  0.
    9000005    1    3    3    0    0 -0.16019459446E+02  0.29493519251E+01 -0.62500337912E+03  0.62521639908E+03  0.10000000000E+01 0.  0.
<mgrwt>
<rscale>  0 0.12499770E+03</rscale>
<asrwt>0</asrwt>
<pdfrwt beam="2">  1        4 0.97868336E-01 0.12499770E+03</pdfrwt>
<pdfrwt beam="1">  1       -4 0.94465916E-03 0.12499770E+03</pdfrwt>
<totfact> 0.46305081E+03</totfact>
</mgrwt>
</event>
<event>
 5    1  0.3282421E-002  0.1249888E+03  0.7818608E-02  0.1235087E+00
         -4   -1    0    0    0  501 -0.00000000000E+00  0.00000000000E+00  0.30171974341E+02  0.30198690959E+02  0.12700000000E+01 0. -1.
          4   -1    0    0  501    0  0.00000000000E+00 -0.00000000000E+00 -0.12935591359E+03  0.12936214779E+03  0.12700000000E+01 0. -1.
         25    2    1    2    0    0  0.00000000000E+00  0.00000000000E+00 -0.99183939252E+02  0.15956083875E+03  0.12498882933E+03 0.  0.
    9000005    1    3    3    0    0 -0.50320786177E+02 -0.35564774973E+02 -0.36354836717E+02  0.71552141079E+02  0.10000000000E+01 0.  0.
    9000005    1    3    3    0    0  0.50320786177E+02  0.35564774973E+02 -0.62829102536E+02  0.88008697671E+02  0.10000000000E+01 0.  0.
<mgrwt>
<rscale>  0 0.12498883E+03</rscale>
<asrwt>0</asrwt>
<pdfrwt beam="2">  1        4 0.19903444E-01 0.12498883E+03</pdfrwt>
<pdfrwt beam="1">  1       -4 0.46443770E-02 0.12498883E+03</pdfrwt>
<totfact> 0.97451987E+03</totfact>
</mgrwt>
</event>
<event>
 5    1  0.3282421E-002  0.1250016E+03  0.7818608E-02  0.1235067E+00
          4   -1    0    0  501    0  0.00000000000E+00  0.00000000000E+00  0.52476082433E+02  0.52491448137E+02  0.12700000000E+01 0.  1.
         -4   -1    0    0    0  501 -0.00000000000E+00 -0.00000000000E+00 -0.74408841305E+02  0.74419678610E+02  0.12700000000E+01 0.  1.
         25    2    1    2    0    0  0.00000000000E+00  0.00000000000E+00 -0.21932758873E+02  0.12691112675E+03  0.12500155271E+03 0.  0.
    9000005    1    3    3    0    0 -0.36306188253E+02  0.50183943665E+02 -0.25463440051E+01  0.62000414313E+02  0.10000000000E+01 0.  0.
    9000005    1    3    3    0    0  0.36306188253E+02 -0.50183943665E+02 -0.19386414868E+02  0.64910712433E+02  0.10000000000E+01 0.  0.
<mgrwt>
<rscale>  0 0.12500155E+03</rscale>
<asrwt>0</asrwt>
<pdfrwt beam="1">  1        4 0.80752590E-02 0.12500155E+03</pdfrwt>
<pdfrwt beam="2">  1       -4 0.11449530E-01 0.12500155E+03</pdfrwt>
<totfact> 0.10410712E+04</totfact>
</mgrwt>
</event>
<event>
 5    1  0.3282421E-002  0.1249980E+03  0.7818608E-02  0.1235072E+00
         -4   -1    0    0    0  501 -0.00000000000E+00  0.00000000000E+00  0.10169149062E+03  0.10169942067E+03  0.12700000000E+01 0. -1.
          4   -1    0    0  501    0  0.00000000000E+00 -0.00000000000E+00 -0.38391617997E+02  0.38412618141E+02  0.12700000000E+01 0. -1.
         25    2    1    2    0    0  0.00000000000E+00  0.00000000000E+00  0.63299872625E+02  0.14011203881E+03  0.12499803817E+03 0.  0.
    9000005    1    3    3    0    0 -0.38980765925E+02  0.44653630713E+02  0.94660182524E+01  0.60033760081E+02  0.10000000000E+01 0.  0.
    9000005    1    3    3    0    0  0.38980765925E+02 -0.44653630713E+02  0.53833854372E+02  0.80078278731E+02  0.10000000000E+01 0.  0.
<mgrwt>
<rscale>  0 0.12499804E+03</rscale>
<asrwt>0</asrwt>
<pdfrwt beam="2">  1        4 0.59086282E-02 0.12499804E+03</pdfrwt>
<pdfrwt beam="1">  1       -4 0.15647070E-01 0.12499804E+03</pdfrwt>
<totfact> 0.10131712E+04</totfact>
</mgrwt>
</event>
<event>
 5    1  0.3282421E-002  0.1250000E+03  0.7818608E-02  0.1235069E+00
          4   -1    0    0  501    0  0.00000000000E+00  0.00000000000E+00  0.47784189276E+02  0.47801063218E+02  0.12700000000E+01 0. -1.
         -4   -1    0    0    0  501 -0.00000000000E+00 -0.00000000000E+00 -0.81711524092E+02  0.81721392973E+02  0.12700000000E+01 0. -1.
         25    2    1    2    0    0  0.00000000000E+00  0.00000000000E+00 -0.33927334816E+02  0.12952245619E+03  0.12500001044E+03 0.  0.
    9000005    1    3    3    0    0 -0.28986501919E+02 -0.38674371672E+02 -0.58011634511E+02  0.75513403157E+02  0.10000000000E+01 0.  0.
    9000005    1    3    3    0    0  0.28986501919E+02  0.38674371672E+02  0.24084299695E+02  0.54009053033E+02  0.10000000000E+01 0.  0.
<mgrwt>
<rscale>  0 0.12500001E+03</rscale>
<asrwt>0</asrwt>
<pdfrwt beam="1">  1        4 0.73534708E-02 0.12500001E+03</pdfrwt>
<pdfrwt beam="2">  1       -4 0.12573061E-01 0.12500001E+03</pdfrwt>
<totfact> 0.10354731E+04</totfact>
</mgrwt>
</event>
<event>
 5    1  0.3282421E-002  0.1250000E+03  0.7818608E-02  0.1235069E+00
          4   -1    0    0  501    0  0.00000000000E+00  0.00000000000E+00  0.82935593664E+01  0.83902340232E+01  0.12700000000E+01 0.  1.
         -4   -1    0    0    0  501 -0.00000000000E+00 -0.00000000000E+00 -0.46817156109E+03  0.46817328364E+03  0.12700000000E+01 0.  1.
         25    2    1    2    0    0  0.00000000000E+00  0.00000000000E+00 -0.45987800172E+03  0.47656351766E+03  0.12500003959E+03 0.  0.
    9000005    1    3    3    0    0  0.33882529111E+02  0.51997191571E+02 -0.25782997482E+03  0.26519620968E+03  0.10000000000E+01 0.  0.
    9000005    1    3    3    0    0 -0.33882529111E+02 -0.51997191571E+02 -0.20204802690E+03  0.21136730799E+03  0.10000000000E+01 0.  0.
<mgrwt>
<rscale>  0 0.12500004E+03</rscale>
<asrwt>0</asrwt>
<pdfrwt beam="1">  1        4 0.12835016E-02 0.12500004E+03</pdfrwt>
<pdfrwt beam="2">  1       -4 0.72033943E-01 0.12500004E+03</pdfrwt>
<totfact> 0.57729691E+03</totfact>
</mgrwt>
</event>
<event>
 5    1  0.3282421E-002  0.1250033E+03  0.7818608E-02  0.1235064E+00
          4   -1    0    0  501    0  0.00000000000E+00  0.00000000000E+00  0.99391584069E+02  0.99399697604E+02  0.12700000000E+01 0. -1.
         -4   -1    0    0    0  501 -0.00000000000E+00 -0.00000000000E+00 -0.39283717058E+02  0.39304240559E+02  0.12700000000E+01 0. -1.
         25    2    1    2    0    0  0.00000000000E+00  0.00000000000E+00  0.60107867011E+02  0.13870393816E+03  0.12500330710E+03 0.  0.
    9000005    1    3    3    0    0  0.13184679304E+02  0.28274710167E+02 -0.30030399842E+02  0.43314199959E+02  0.10000000000E+01 0.  0.
    9000005    1    3    3    0    0 -0.13184679304E+02 -0.28274710167E+02  0.90138266853E+02  0.95389738204E+02  0.10000000000E+01 0.  0.
<mgrwt>
<rscale>  0 0.12500331E+03</rscale>
<asrwt>0</asrwt>
<pdfrwt beam="1">  1        4 0.15293216E-01 0.12500331E+03</pdfrwt>
<pdfrwt beam="2">  1       -4 0.60458517E-02 0.12500331E+03</pdfrwt>
<totfact> 0.10159761E+04</totfact>
</mgrwt>
</event>
<event>
 5    1  0.3282421E-002  0.1249995E+03  0.7818608E-02  0.1235070E+00
          4   -1    0    0  501    0  0.00000000000E+00  0.00000000000E+00  0.60683724140E+02  0.60697012081E+02  0.12700000000E+01 0.  1.
         -4   -1    0    0    0  501 -0.00000000000E+00 -0.00000000000E+00 -0.64343479010E+02  0.64356011305E+02  0.12700000000E+01 0.  1.
         25    2    1    2    0    0  0.00000000000E+00  0.00000000000E+00 -0.36597548695E+01  0.12505302339E+03  0.12499945941E+03 0.  0.
    9000005    1    3    3    0    0  0.48975373180E+02  0.30234329156E+02  0.22522171457E+02  0.61813833765E+02  0.10000000000E+01 0.  0.
    9000005    1    3    3    0    0 -0.48975373180E+02 -0.30234329156E+02 -0.26181926327E+02  0.63239189620E+02  0.10000000000E+01 0.  0.
<mgrwt>
<rscale>  0 0.12499946E+03</rscale>
<asrwt>0</asrwt>
<pdfrwt beam="1">  1        4 0.93379437E-02 0.12499946E+03</pdfrwt>
<pdfrwt beam="2">  1       -4 0.99009830E-02 0.12499946E+03</pdfrwt>
<totfact> 0.10451839E+04</totfact>
</mgrwt>
</event>
<event>
 5    1  0.3282421E-002  0.1249958E+03  0.7818608E-02  0.1235076E+00
          4   -1    0    0  501    0  0.00000000000E+00  0.00000000000E+00  0.17715953978E+04  0.17715958530E+04  0.12700000000E+01 0.  1.
         -4   -1    0    0    0  501 -0.00000000000E+00 -0.00000000000E+00 -0.20214060387E+01  0.23872541493E+01  0.12700000000E+01 0.  1.
         25    2    1    2    0    0  0.00000000000E+00  0.00000000000E+00  0.17695739918E+04  0.17739831072E+04  0.12499580862E+03 0.  0.
    9000005    1    3    3    0    0 -0.17812554975E+02  0.59187923290E+02  0.10152412943E+04  0.10171216166E+04  0.10000000000E+01 0.  0.
    9000005    1    3    3    0    0  0.17812554975E+02 -0.59187923290E+02  0.75433269748E+03  0.75686149055E+03  0.10000000000E+01 0.  0.
<mgrwt>
<rscale>  0 0.12499581E+03</rscale>
<asrwt>0</asrwt>
<pdfrwt beam="1">  1        4 0.27258089E+00 0.12499581E+03</pdfrwt>
<pdfrwt beam="2">  1       -4 0.33916326E-03 0.12499581E+03</pdfrwt>
<totfact> 0.13109860E+03</totfact>
</mgrwt>
</event>
<event>
 5    1  0.3282421E-002  0.1249988E+03  0.7818608E-02  0.1235071E+00
          4   -1    0    0  501    0  0.00000000000E+00  0.00000000000E+00  0.16939981023E+02  0.16987520627E+02  0.12700000000E+01 0. -1.
         -4   -1    0    0    0  501 -0.00000000000E+00 -0.00000000000E+00 -0.23021654712E+03  0.23022005010E+03  0.12700000000E+01 0. -1.
         25    2    1    2    0    0  0.00000000000E+00  0.00000000000E+00 -0.21327656610E+03  0.24720757073E+03  0.12499875751E+03 0.  0.
    9000005    1    3    3    0    0 -0.60909163600E+02 -0.99596140958E+01 -0.87255783739E+02  0.10688167251E+03  0.10000000000E+01 0.  0.
    9000005    1    3    3    0    0  0.60909163600E+02  0.99596140958E+01 -0.12602078236E+03  0.14032589822E+03  0.10000000000E+01 0.  0.
<mgrwt>
<rscale>  0 0.12499876E+03</rscale>
<asrwt>0</asrwt>
<pdfrwt beam="1">  1        4 0.26100774E-02 0.12499876E+03</pdfrwt>
<pdfrwt beam="2">  1       -4 0.35421854E-01 0.12499876E+03</pdfrwt>
<totfact> 0.82737795E+03</totfact>
</mgrwt>
</event>
<event>
 5    1  0.3282421E-002  0.1249988E+03  0.7818608E-02  0.1235071E+00
         -4   -1    0    0    0  501 -0.00000000000E+00  0.00000000000E+00  0.34741837268E+03  0.34742069393E+03  0.12700000000E+01 0. -1.
          4   -1    0    0  501    0  0.00000000000E+00 -0.00000000000E+00 -0.11205199380E+02  0.11276940771E+02  0.12700000000E+01 0. -1.
         25    2    1    2    0    0  0.00000000000E+00  0.00000000000E+00  0.33621317330E+03  0.35869763470E+03  0.12499878097E+03 0.  0.
    9000005    1    3    3    0    0  0.12636387476E+02 -0.26053859052E+02  0.32701899587E+03  0.32830002364E+03  0.10000000000E+01 0.  0.
    9000005    1    3    3    0    0 -0.12636387476E+02  0.26053859052E+02  0.91941774222E+01  0.30397611064E+02  0.10000000000E+01 0.  0.
<mgrwt>
<rscale>  0 0.12499878E+03</rscale>
<asrwt>0</asrwt>
<pdfrwt beam="2">  1        4 0.17295739E-02 0.12499878E+03</pdfrwt>
<pdfrwt beam="1">  1       -4 0.53454681E-01 0.12499878E+03</pdfrwt>
<totfact> 0.68780041E+03</totfact>
</mgrwt>
</event>
<event>
 5    1  0.3282421E-002  0.1249999E+03  0.7818608E-02  0.1235069E+00
          4   -1    0    0  501    0  0.00000000000E+00  0.00000000000E+00  0.68220061058E+02  0.68231881337E+02  0.12700000000E+01 0.  1.
         -4   -1    0    0    0  501 -0.00000000000E+00 -0.00000000000E+00 -0.57235603594E+02  0.57249691867E+02  0.12700000000E+01 0.  1.
         25    2    1    2    0    0  0.00000000000E+00  0.00000000000E+00  0.10984457464E+02  0.12548157320E+03  0.12499986763E+03 0.  0.
    9000005    1    3    3    0    0  0.56677175086E+02 -0.19854717451E+02 -0.11858177068E+02  0.61221959657E+02  0.10000000000E+01 0.  0.
    9000005    1    3    3    0    0 -0.56677175086E+02  0.19854717451E+02  0.22842634532E+02  0.64259613547E+02  0.10000000000E+01 0.  0.
<mgrwt>
<rscale>  0 0.12499987E+03</rscale>
<asrwt>0</asrwt>
<pdfrwt beam="1">  1        4 0.10497387E-01 0.12499987E+03</pdfrwt>
<pdfrwt beam="2">  1       -4 0.88074704E-02 0.12499987E+03</pdfrwt>
<totfact> 0.10442393E+04</totfact>
</mgrwt>
</event>
<event>
 5    1  0.3282421E-002  0.1250009E+03  0.7818608E-02  0.1235068E+00
         -4   -1    0    0    0  501 -0.00000000000E+00  0.00000000000E+00  0.22907223025E+03  0.22907575073E+03  0.12700000000E+01 0.  1.
          4   -1    0    0  501    0  0.00000000000E+00 -0.00000000000E+00 -0.17025430204E+02  0.17072731873E+02  0.12700000000E+01 0.  1.
         25    2    1    2    0    0  0.00000000000E+00  0.00000000000E+00  0.21204680005E+03  0.24614848260E+03  0.12500092031E+03 0.  0.
    9000005    1    3    3    0    0 -0.31445502281E+02  0.32075228215E+02  0.20468139538E+02  0.49371901066E+02  0.10000000000E+01 0.  0.
    9000005    1    3    3    0    0  0.31445502281E+02 -0.32075228215E+02  0.19157866051E+03  0.19677658154E+03  0.10000000000E+01 0.  0.
<mgrwt>
<rscale>  0 0.12500092E+03</rscale>
<asrwt>0</asrwt>
<pdfrwt beam="2">  1        4 0.26232061E-02 0.12500092E+03</pdfrwt>
<pdfrwt beam="1">  1       -4 0.35245794E-01 0.12500092E+03</pdfrwt>
<totfact> 0.82888395E+03</totfact>
</mgrwt>
</event>
<event>
 5    1  0.3282421E-002  0.1249993E+03  0.7818608E-02  0.1235070E+00
         -4   -1    0    0    0  501 -0.00000000000E+00  0.00000000000E+00  0.44375782783E+02  0.44393952264E+02  0.12700000000E+01 0.  1.
          4   -1    0    0  501    0  0.00000000000E+00 -0.00000000000E+00 -0.87984823340E+02  0.87993988648E+02  0.12700000000E+01 0.  1.
         25    2    1    2    0    0  0.00000000000E+00  0.00000000000E+00 -0.43609040557E+02  0.13238794091E+03  0.12499927392E+03 0.  0.
    9000005    1    3    3    0    0 -0.60363848986E+02  0.37585390915E+01 -0.51497473078E+01  0.60707831273E+02  0.10000000000E+01 0.  0.
    9000005    1    3    3    0    0  0.60363848986E+02 -0.37585390915E+01 -0.38459293249E+02  0.71680109638E+02  0.10000000000E+01 0.  0.
<mgrwt>
<rscale>  0 0.12499927E+03</rscale>
<asrwt>0</asrwt>
<pdfrwt beam="2">  1        4 0.13538229E-01 0.12499927E+03</pdfrwt>
<pdfrwt beam="1">  1       -4 0.68291462E-02 0.12499927E+03</pdfrwt>
<totfact> 0.10293594E+04</totfact>
</mgrwt>
</event>
<event>
 5    1  0.3282421E-002  0.1249987E+03  0.7818608E-02  0.1235071E+00
          4   -1    0    0  501    0  0.00000000000E+00  0.00000000000E+00  0.28080278857E+02  0.28108983630E+02  0.12700000000E+01 0.  1.
         -4   -1    0    0    0  501 -0.00000000000E+00 -0.00000000000E+00 -0.13900457714E+03  0.13901037863E+03  0.12700000000E+01 0.  1.
         25    2    1    2    0    0  0.00000000000E+00  0.00000000000E+00 -0.11092429829E+03  0.16711936226E+03  0.12499872516E+03 0.  0.
    9000005    1    3    3    0    0  0.57745171688E+02 -0.13291822449E+02 -0.28924319745E+02  0.65945383993E+02  0.10000000000E+01 0.  0.
    9000005    1    3    3    0    0 -0.57745171688E+02  0.13291822449E+02 -0.81999978541E+02  0.10117397827E+03  0.10000000000E+01 0.  0.
<mgrwt>
<rscale>  0 0.12499873E+03</rscale>
<asrwt>0</asrwt>
<pdfrwt beam="1">  1        4 0.43226973E-02 0.12499873E+03</pdfrwt>
<pdfrwt beam="2">  1       -4 0.21387974E-01 0.12499873E+03</pdfrwt>
<totfact> 0.95990266E+03</totfact>
</mgrwt>
</event>
<event>
 5    1  0.3282421E-002  0.1249981E+03  0.7818608E-02  0.1235072E+00
         -4   -1    0    0    0  501 -0.00000000000E+00  0.00000000000E+00  0.46490342454E+02  0.46507685833E+02  0.12700000000E+01 0. -1.
          4   -1    0    0  501    0  0.00000000000E+00 -0.00000000000E+00 -0.83982495777E+02  0.83992097825E+02  0.12700000000E+01 0. -1.
         25    2    1    2    0    0  0.00000000000E+00  0.00000000000E+00 -0.37492153323E+02  0.13049978366E+03  0.12499812788E+03 0.  0.
    9000005    1    3    3    0    0 -0.33862002368E+02 -0.31272485626E+02  0.25307468303E+02  0.52593455044E+02  0.10000000000E+01 0.  0.
    9000005    1    3    3    0    0  0.33862002368E+02  0.31272485626E+02 -0.62799621626E+02  0.77906328613E+02  0.10000000000E+01 0.  0.
<mgrwt>
<rscale>  0 0.12499813E+03</rscale>
<asrwt>0</asrwt>
<pdfrwt beam="2">  1        4 0.12922457E-01 0.12499813E+03</pdfrwt>
<pdfrwt beam="1">  1       -4 0.71544331E-02 0.12499813E+03</pdfrwt>
<totfact> 0.10334261E+04</totfact>
</mgrwt>
</event>
<event>
 5    1  0.3282421E-002  0.1250089E+03  0.7818608E-02  0.1235055E+00
         -4   -1    0    0    0  501 -0.00000000000E+00  0.00000000000E+00  0.63091312083E+02  0.63104093055E+02  0.12700000000E+01 0.  1.
          4   -1    0    0  501    0  0.00000000000E+00 -0.00000000000E+00 -0.61897516784E+02  0.61910544207E+02  0.12700000000E+01 0.  1.
         25    2    1    2    0    0  0.00000000000E+00  0.00000000000E+00  0.11937952983E+01  0.12501463726E+03  0.12500893721E+03 0.  0.
    9000005    1    3    3    0    0  0.37134206458E+01  0.15697226726E+02 -0.59784793640E+02  0.61930719117E+02  0.10000000000E+01 0.  0.
    9000005    1    3    3    0    0 -0.37134206458E+01 -0.15697226726E+02  0.60978588938E+02  0.63083918146E+02  0.10000000000E+01 0.  0.
<mgrwt>
<rscale>  0 0.12500894E+03</rscale>
<asrwt>0</asrwt>
<pdfrwt beam="2">  1        4 0.95246801E-02 0.12500894E+03</pdfrwt>
<pdfrwt beam="1">  1       -4 0.97083410E-02 0.12500894E+03</pdfrwt>
<totfact> 0.10450434E+04</totfact>
</mgrwt>
</event>
<event>
 5    1  0.3282421E-002  0.1250003E+03  0.7818608E-02  0.1235069E+00
         -4   -1    0    0    0  501 -0.00000000000E+00  0.00000000000E+00  0.70024619610E+02  0.70036135327E+02  0.12700000000E+01 0.  1.
          4   -1    0    0  501    0  0.00000000000E+00 -0.00000000000E+00 -0.55760880102E+02  0.55775340875E+02  0.12700000000E+01 0.  1.
         25    2    1    2    0    0  0.00000000000E+00  0.00000000000E+00  0.14263739508E+02  0.12581147620E+03  0.12500029312E+03 0.  0.
    9000005    1    3    3    0    0  0.61590708835E+02  0.77170711878E+01 -0.14691534853E+00  0.62080513743E+02  0.10000000000E+01 0.  0.
    9000005    1    3    3    0    0 -0.61590708835E+02 -0.77170711878E+01  0.14410654857E+02  0.63730962459E+02  0.10000000000E+01 0.  0.
<mgrwt>
<rscale>  0 0.12500029E+03</rscale>
<asrwt>0</asrwt>
<pdfrwt beam="2">  1        4 0.85805952E-02 0.12500029E+03</pdfrwt>
<pdfrwt beam="1">  1       -4 0.10775016E-01 0.12500029E+03</pdfrwt>
<totfact> 0.10435024E+04</totfact>
</mgrwt>
</event>
<event>
 5    1  0.3282421E-002  0.1249973E+03  0.7818608E-02  0.1235074E+00
         -4   -1    0    0    0  501 -0.00000000000E+00  0.00000000000E+00  0.11405010341E+03  0.11405717421E+03  0.12700000000E+01 0. -1.
          4   -1    0    0  501    0  0.00000000000E+00 -0.00000000000E+00 -0.34228883527E+02  0.34252435935E+02  0.12700000000E+01 0. -1.
         25    2    1    2    0    0  0.00000000000E+00  0.00000000000E+00  0.79821219887E+02  0.14830961014E+03  0.12499725324E+03 0.  0.
    9000005    1    3    3    0    0 -0.39833693744E+02  0.36679941551E+02  0.76919937714E+02  0.94073471752E+02  0.10000000000E+01 0.  0.
    9000005    1    3    3    0    0  0.39833693744E+02 -0.36679941551E+02  0.29012821726E+01  0.54236138392E+02  0.10000000000E+01 0.  0.
<mgrwt>
<rscale>  0 0.12499725E+03</rscale>
<asrwt>0</asrwt>
<pdfrwt beam="2">  1        4 0.52683378E-02 0.12499725E+03</pdfrwt>
<pdfrwt beam="1">  1       -4 0.17548525E-01 0.12499725E+03</pdfrwt>
<totfact> 0.99647886E+03</totfact>
</mgrwt>
</event>
<event>
 5    1  0.3282421E-002  0.1250011E+03  0.7818608E-02  0.1235068E+00
         -4   -1    0    0    0  501 -0.00000000000E+00  0.00000000000E+00  0.42599228026E+02  0.42618154916E+02  0.12700000000E+01 0. -1.
          4   -1    0    0  501    0  0.00000000000E+00 -0.00000000000E+00 -0.91655590860E+02  0.91664389137E+02  0.12700000000E+01 0. -1.
         25    2    1    2    0    0  0.00000000000E+00  0.00000000000E+00 -0.49056362834E+02  0.13428254405E+03  0.12500109961E+03 0.  0.
    9000005    1    3    3    0    0  0.18159062887E+02  0.45258190761E+02  0.17453776536E+02  0.51804340660E+02  0.10000000000E+01 0.  0.
    9000005    1    3    3    0    0 -0.18159062887E+02 -0.45258190761E+02 -0.66510139370E+02  0.82478203392E+02  0.10000000000E+01 0.  0.
<mgrwt>
<rscale>  0 0.12500110E+03</rscale>
<asrwt>0</asrwt>
<pdfrwt beam="2">  1        4 0.14102993E-01 0.12500110E+03</pdfrwt>
<pdfrwt beam="1">  1       -4 0.65558601E-02 0.12500110E+03</pdfrwt>
<totfact> 0.10252961E+04</totfact>
</mgrwt>
</event>
<event>
 5    1  0.3282421E-002  0.1249999E+03  0.7818608E-02  0.1235069E+00
         -4   -1    0    0    0  501 -0.00000000000E+00  0.00000000000E+00  0.13093581088E+04  0.13093587247E+04  0.12700000000E+01 0.  1.
          4   -1    0    0  501    0  0.00000000000E+00 -0.00000000000E+00 -0.28475247237E+01  0.31178994615E+01  0.12700000000E+01 0.  1.
         25    2    1    2    0    0  0.00000000000E+00  0.00000000000E+00  0.13065105841E+04  0.13124766242E+04  0.12499993080E+03 0.  0.
    9000005    1    3    3    0    0  0.32014455586E+02 -0.52897720606E+02  0.55808761786E+03  0.56150323545E+03  0.10000000000E+01 0.  0.
    9000005    1    3    3    0    0 -0.32014455586E+02  0.52897720606E+02  0.74842296619E+03  0.75097338870E+03  0.10000000000E+01 0.  0.
<mgrwt>
<rscale>  0 0.12499993E+03</rscale>
<asrwt>0</asrwt>
<pdfrwt beam="2">  1        4 0.45892748E-03 0.12499993E+03</pdfrwt>
<pdfrwt beam="1">  1       -4 0.20145998E+00 0.12499993E+03</pdfrwt>
<totfact> 0.21936069E+03</totfact>
</mgrwt>
</event>
<event>
 5    1  0.3282421E-002  0.1250075E+03  0.7818608E-02  0.1235058E+00
          4   -1    0    0  501    0  0.00000000000E+00  0.00000000000E+00  0.71211588595E+02  0.71222912397E+02  0.12700000000E+01 0. -1.
         -4   -1    0    0    0  501 -0.00000000000E+00 -0.00000000000E+00 -0.54837690487E+02  0.54852394642E+02  0.12700000000E+01 0. -1.
         25    2    1    2    0    0  0.00000000000E+00  0.00000000000E+00  0.16373898108E+02  0.12607530704E+03  0.12500751380E+03 0.  0.
    9000005    1    3    3    0    0 -0.57700603817E+02 -0.11890912750E+01 -0.15995899046E+02  0.59896931517E+02  0.10000000000E+01 0.  0.
    9000005    1    3    3    0    0  0.57700603817E+02  0.11890912750E+01  0.32369797154E+02  0.66178375522E+02  0.10000000000E+01 0.  0.
<mgrwt>
<rscale>  0 0.12500751E+03</rscale>
<asrwt>0</asrwt>
<pdfrwt beam="1">  1        4 0.10957631E-01 0.12500751E+03</pdfrwt>
<pdfrwt beam="2">  1       -4 0.84385700E-02 0.12500751E+03</pdfrwt>
<totfact> 0.10427539E+04</totfact>
</mgrwt>
</event>
<event>
 5    1  0.3282421E-002  0.1250026E+03  0.7818608E-02  0.1235065E+00
         -4   -1    0    0    0  501 -0.00000000000E+00  0.00000000000E+00  0.36811717694E+03  0.36811936768E+03  0.12700000000E+01 0.  1.
          4   -1    0    0  501    0  0.00000000000E+00 -0.00000000000E+00 -0.10571650926E+02  0.10647661870E+02  0.12700000000E+01 0.  1.
         25    2    1    2    0    0  0.00000000000E+00  0.00000000000E+00  0.35754552601E+03  0.37876702955E+03  0.12500263797E+03 0.  0.
    9000005    1    3    3    0    0 -0.19651349199E+02  0.14955834286E+02  0.48254367751E+01  0.25182083802E+02  0.10000000000E+01 0.  0.
    9000005    1    3    3    0    0  0.19651349199E+02 -0.14955834286E+02  0.35272008924E+03  0.35358494574E+03  0.10000000000E+01 0.  0.
<mgrwt>
<rscale>  0 0.12500264E+03</rscale>
<asrwt>0</asrwt>
<pdfrwt beam="2">  1        4 0.16324231E-02 0.12500264E+03</pdfrwt>
<pdfrwt beam="1">  1       -4 0.56639437E-01 0.12500264E+03</pdfrwt>
<totfact> 0.66667712E+03</totfact>
</mgrwt>
</event>
<event>
 5    1  0.3282421E-002  0.1250015E+03  0.7818608E-02  0.1235067E+00
         -4   -1    0    0    0  501 -0.00000000000E+00  0.00000000000E+00  0.96740508765E+02  0.96748844625E+02  0.12700000000E+01 0.  1.
          4   -1    0    0  501    0  0.00000000000E+00 -0.00000000000E+00 -0.40359556896E+02  0.40379533588E+02  0.12700000000E+01 0.  1.
         25    2    1    2    0    0  0.00000000000E+00  0.00000000000E+00  0.56380951870E+02  0.13712837821E+03  0.12500152150E+03 0.  0.
    9000005    1    3    3    0    0  0.53863646155E+02  0.31540557867E+02  0.31526178072E+02  0.69935678102E+02  0.10000000000E+01 0.  0.
    9000005    1    3    3    0    0 -0.53863646155E+02 -0.31540557867E+02  0.24854773798E+02  0.67192700111E+02  0.10000000000E+01 0.  0.
<mgrwt>
<rscale>  0 0.12500152E+03</rscale>
<asrwt>0</asrwt>
<pdfrwt beam="2">  1        4 0.62113405E-02 0.12500152E+03</pdfrwt>
<pdfrwt beam="1">  1       -4 0.14885333E-01 0.12500152E+03</pdfrwt>
<totfact> 0.10193053E+04</totfact>
</mgrwt>
</event>
<event>
 5    1  0.3282421E-002  0.1250367E+03  0.7818608E-02  0.1235012E+00
          4   -1    0    0  501    0  0.00000000000E+00  0.00000000000E+00  0.44300324707E+02  0.44318525123E+02  0.12700000000E+01 0.  1.
         -4   -1    0    0    0  501 -0.00000000000E+00 -0.00000000000E+00 -0.88187491893E+02  0.88196636140E+02  0.12700000000E+01 0.  1.
         25    2    1    2    0    0  0.00000000000E+00  0.00000000000E+00 -0.43887167187E+02  0.13251516126E+03  0.12503673269E+03 0.  0.
    9000005    1    3    3    0    0 -0.19208148162E+02  0.44514672385E+02 -0.63762948729E+02  0.80107569206E+02  0.10000000000E+01 0.  0.
    9000005    1    3    3    0    0  0.19208148162E+02 -0.44514672385E+02  0.19875781543E+02  0.52407592058E+02  0.10000000000E+01 0.  0.
<mgrwt>
<rscale>  0 0.12503673E+03</rscale>
<asrwt>0</asrwt>
<pdfrwt beam="1">  1        4 0.68175380E-02 0.12503673E+03</pdfrwt>
<pdfrwt beam="2">  1       -4 0.13569410E-01 0.12503673E+03</pdfrwt>
<totfact> 0.10282192E+04</totfact>
</mgrwt>
</event>
<event>
 5    1  0.3282421E-002  0.1250028E+03  0.7818608E-02  0.1235065E+00
          4   -1    0    0  501    0  0.00000000000E+00  0.00000000000E+00  0.43790446405E+02  0.43808858652E+02  0.12700000000E+01 0.  1.
         -4   -1    0    0    0  501 -0.00000000000E+00 -0.00000000000E+00 -0.89165494163E+02  0.89174538123E+02  0.12700000000E+01 0.  1.
         25    2    1    2    0    0  0.00000000000E+00  0.00000000000E+00 -0.45375047758E+02  0.13298339677E+03  0.12500275540E+03 0.  0.
    9000005    1    3    3    0    0  0.40629410885E+02 -0.27046277545E+02 -0.64207043262E+02  0.80658505828E+02  0.10000000000E+01 0.  0.
    9000005    1    3    3    0    0 -0.40629410885E+02  0.27046277545E+02  0.18831995504E+02  0.52324890947E+02  0.10000000000E+01 0.  0.
<mgrwt>
<rscale>  0 0.12500276E+03</rscale>
<asrwt>0</asrwt>
<pdfrwt beam="1">  1        4 0.67391038E-02 0.12500276E+03</pdfrwt>
<pdfrwt beam="2">  1       -4 0.13719880E-01 0.12500276E+03</pdfrwt>
<totfact> 0.10280114E+04</totfact>
</mgrwt>
</event>
<event>
 5    1  0.3282421E-002  0.1249992E+03  0.7818608E-02  0.1235071E+00
          4   -1    0    0  501    0  0.00000000000E+00  0.00000000000E+00  0.94429753492E+02  0.94438293316E+02  0.12700000000E+01 0.  1.
         -4   -1    0    0    0  501 -0.00000000000E+00 -0.00000000000E+00 -0.41346013938E+02  0.41365514243E+02  0.12700000000E+01 0.  1.
         25    2    1    2    0    0  0.00000000000E+00  0.00000000000E+00  0.53083739554E+02  0.13580380756E+03  0.12499916297E+03 0.  0.
    9000005    1    3    3    0    0 -0.55367331188E+02 -0.23340064183E+02  0.78849237981E+01  0.60609174076E+02  0.10000000000E+01 0.  0.
    9000005    1    3    3    0    0  0.55367331188E+02  0.23340064183E+02  0.45198815756E+02  0.75194633483E+02  0.10000000000E+01 0.  0.
<mgrwt>
<rscale>  0 0.12499916E+03</rscale>
<asrwt>0</asrwt>
<pdfrwt beam="1">  1        4 0.14529811E-01 0.12499916E+03</pdfrwt>
<pdfrwt beam="2">  1       -4 0.63630822E-02 0.12499916E+03</pdfrwt>
<totfact> 0.10221349E+04</totfact>
</mgrwt>
</event>
<event>
 5    1  0.3282421E-002  0.1250424E+03  0.7818608E-02  0.1235003E+00
          4   -1    0    0  501    0  0.00000000000E+00  0.00000000000E+00  0.34552283290E+02  0.34575615404E+02  0.12700000000E+01 0.  1.
         -4   -1    0    0    0  501 -0.00000000000E+00 -0.00000000000E+00 -0.11306500304E+03  0.11307213544E+03  0.12700000000E+01 0.  1.
         25    2    1    2    0    0  0.00000000000E+00  0.00000000000E+00 -0.78512719749E+02  0.14764775084E+03  0.12504243746E+03 0.  0.
    9000005    1    3    3    0    0 -0.31269805719E+02 -0.10265475904E+02  0.23499930605E+02  0.40452780914E+02  0.10000000000E+01 0.  0.
    9000005    1    3    3    0    0  0.31269805719E+02  0.10265475904E+02 -0.10201265035E+03  0.10719496993E+03  0.10000000000E+01 0.  0.
<mgrwt>
<rscale>  0 0.12504244E+03</rscale>
<asrwt>0</asrwt>
<pdfrwt beam="1">  1        4 0.53180794E-02 0.12504244E+03</pdfrwt>
<pdfrwt beam="2">  1       -4 0.17396959E-01 0.12504244E+03</pdfrwt>
<totfact> 0.99679409E+03</totfact>
</mgrwt>
</event>
<event>
 5    1  0.3282421E-002  0.1249959E+03  0.7818608E-02  0.1235076E+00
         -4   -1    0    0    0  501 -0.00000000000E+00  0.00000000000E+00  0.13843232573E+03  0.13843815120E+03  0.12700000000E+01 0. -1.
          4   -1    0    0  501    0  0.00000000000E+00 -0.00000000000E+00 -0.28195190478E+02  0.28223778381E+02  0.12700000000E+01 0. -1.
         25    2    1    2    0    0  0.00000000000E+00  0.00000000000E+00  0.11023713525E+03  0.16666192958E+03  0.12499589106E+03 0.  0.
    9000005    1    3    3    0    0  0.19222404563E+02  0.50791873095E+02  0.96337473528E+02  0.11059486433E+03  0.10000000000E+01 0.  0.
    9000005    1    3    3    0    0 -0.19222404563E+02 -0.50791873095E+02  0.13899661721E+02  0.56067065249E+02  0.10000000000E+01 0.  0.
<mgrwt>
<rscale>  0 0.12499589E+03</rscale>
<asrwt>0</asrwt>
<pdfrwt beam="2">  1        4 0.43403688E-02 0.12499589E+03</pdfrwt>
<pdfrwt beam="1">  1       -4 0.21299928E-01 0.12499589E+03</pdfrwt>
<totfact> 0.96082439E+03</totfact>
</mgrwt>
</event>
<event>
 5    1  0.3282421E-002  0.1249978E+03  0.7818608E-02  0.1235073E+00
         -4   -1    0    0    0  501 -0.00000000000E+00  0.00000000000E+00  0.17200283534E+03  0.17200752386E+03  0.12700000000E+01 0.  1.
          4   -1    0    0  501    0  0.00000000000E+00 -0.00000000000E+00 -0.22686817260E+02  0.22722336530E+02  0.12700000000E+01 0.  1.
         25    2    1    2    0    0  0.00000000000E+00  0.00000000000E+00  0.14931601808E+03  0.19472986039E+03  0.12499778107E+03 0.  0.
    9000005    1    3    3    0    0 -0.44478088469E+02 -0.43040950970E+02  0.61230726366E+02  0.87069085591E+02  0.10000000000E+01 0.  0.
    9000005    1    3    3    0    0  0.44478088469E+02  0.43040950970E+02  0.88085291709E+02  0.10766077480E+03  0.10000000000E+01 0.  0.
<mgrwt>
<rscale>  0 0.12499778E+03</rscale>
<asrwt>0</asrwt>
<pdfrwt beam="2">  1        4 0.34933725E-02 0.12499778E+03</pdfrwt>
<pdfrwt beam="1">  1       -4 0.26465068E-01 0.12499778E+03</pdfrwt>
<totfact> 0.91035307E+03</totfact>
</mgrwt>
</event>
<event>
 5    1  0.3282421E-002  0.1250006E+03  0.7818608E-02  0.1235068E+00
         -4   -1    0    0    0  501 -0.00000000000E+00  0.00000000000E+00  0.10918531912E+02  0.10992144427E+02  0.12700000000E+01 0. -1.
          4   -1    0    0  501    0  0.00000000000E+00 -0.00000000000E+00 -0.35649022102E+03  0.35649248320E+03  0.12700000000E+01 0. -1.
         25    2    1    2    0    0  0.00000000000E+00  0.00000000000E+00 -0.34557168911E+03  0.36748462763E+03  0.12500063693E+03 0.  0.
    9000005    1    3    3    0    0  0.28529318063E+02  0.30920463068E+01 -0.33598942197E+03  0.33721413733E+03  0.10000000000E+01 0.  0.
    9000005    1    3    3    0    0 -0.28529318063E+02 -0.30920463068E+01 -0.95822671321E+01  0.30270490298E+02  0.10000000000E+01 0.  0.
<mgrwt>
<rscale>  0 0.12500064E+03</rscale>
<asrwt>0</asrwt>
<pdfrwt beam="2">  1        4 0.54850477E-01 0.12500064E+03</pdfrwt>
<pdfrwt beam="1">  1       -4 0.16856109E-02 0.12500064E+03</pdfrwt>
<totfact> 0.67841964E+03</totfact>
</mgrwt>
</event>
<event>
 5    1  0.3282421E-002  0.1250040E+03  0.7818608E-02  0.1235063E+00
          4   -1    0    0  501    0  0.00000000000E+00  0.00000000000E+00  0.17661868338E+03  0.17662324937E+03  0.12700000000E+01 0.  1.
         -4   -1    0    0    0  501 -0.00000000000E+00 -0.00000000000E+00 -0.22095173329E+02  0.22131642154E+02  0.12700000000E+01 0.  1.
         25    2    1    2    0    0  0.00000000000E+00  0.00000000000E+00  0.15452351005E+03  0.19875489152E+03  0.12500396692E+03 0.  0.
    9000005    1    3    3    0    0 -0.41781252391E+02  0.36060904337E+02  0.30649424501E+02  0.63138333009E+02  0.10000000000E+01 0.  0.
    9000005    1    3    3    0    0  0.41781252391E+02 -0.36060904337E+02  0.12387408555E+03  0.13561655852E+03  0.10000000000E+01 0.  0.
<mgrwt>
<rscale>  0 0.12500397E+03</rscale>
<asrwt>0</asrwt>
<pdfrwt beam="1">  1        4 0.27175262E-01 0.12500397E+03</pdfrwt>
<pdfrwt beam="2">  1       -4 0.34024139E-02 0.12500397E+03</pdfrwt>
<totfact> 0.90337890E+03</totfact>
</mgrwt>
</event>
<event>
 5    1  0.3282421E-002  0.1250008E+03  0.7818608E-02  0.1235068E+00
          4   -1    0    0  501    0  0.00000000000E+00  0.00000000000E+00  0.64274593822E+02  0.64287139545E+02  0.12700000000E+01 0.  1.
         -4   -1    0    0    0  501 -0.00000000000E+00 -0.00000000000E+00 -0.60750023116E+02  0.60763296558E+02  0.12700000000E+01 0.  1.
         25    2    1    2    0    0  0.00000000000E+00  0.00000000000E+00  0.35245707059E+01  0.12505043610E+03  0.12500075588E+03 0.  0.
    9000005    1    3    3    0    0 -0.68119003877E+01 -0.61808030580E+02 -0.44581125316E+01  0.62349894935E+02  0.10000000000E+01 0.  0.
    9000005    1    3    3    0    0  0.68119003877E+01  0.61808030580E+02  0.79826832375E+01  0.62700541168E+02  0.10000000000E+01 0.  0.
<mgrwt>
<rscale>  0 0.12500076E+03</rscale>
<asrwt>0</asrwt>
<pdfrwt beam="1">  1        4 0.98903851E-02 0.12500076E+03</pdfrwt>
<pdfrwt beam="2">  1       -4 0.93481435E-02 0.12500076E+03</pdfrwt>
<totfact> 0.10451589E+04</totfact>
</mgrwt>
</event>
<event>
 5    1  0.3282421E-002  0.1250007E+03  0.7818608E-02  0.1235068E+00
         -4   -1    0    0    0  501 -0.00000000000E+00  0.00000000000E+00  0.71636209670E+03  0.71636322245E+03  0.12700000000E+01 0.  1.
          4   -1    0    0  501    0  0.00000000000E+00 -0.00000000000E+00 -0.53778721046E+01  0.55257948183E+01  0.12700000000E+01 0.  1.
         25    2    1    2    0    0  0.00000000000E+00  0.00000000000E+00  0.71098422459E+03  0.72188901727E+03  0.12500074255E+03 0.  0.
    9000005    1    3    3    0    0  0.40631016647E+02 -0.42252392483E+02  0.23040437634E+03  0.23774633714E+03  0.10000000000E+01 0.  0.
    9000005    1    3    3    0    0 -0.40631016647E+02  0.42252392483E+02  0.48057984825E+03  0.48414268013E+03  0.10000000000E+01 0.  0.
<mgrwt>
<rscale>  0 0.12500074E+03</rscale>
<asrwt>0</asrwt>
<pdfrwt beam="2">  1        4 0.83883057E-03 0.12500074E+03</pdfrwt>
<pdfrwt beam="1">  1       -4 0.11022097E+00 0.12500074E+03</pdfrwt>
<totfact> 0.41955418E+03</totfact>
</mgrwt>
</event>
<event>
 5    1  0.3282421E-002  0.1249883E+03  0.7818608E-02  0.1235088E+00
          4   -1    0    0  501    0  0.00000000000E+00  0.00000000000E+00  0.10111913269E+04  0.10111921244E+04  0.12700000000E+01 0. -1.
         -4   -1    0    0    0  501 -0.00000000000E+00 -0.00000000000E+00 -0.37570743034E+01  0.39659182192E+01  0.12700000000E+01 0. -1.
         25    2    1    2    0    0  0.00000000000E+00  0.00000000000E+00  0.10074342526E+04  0.10151580426E+04  0.12498831241E+03 0.  0.
    9000005    1    3    3    0    0  0.29271333513E+01  0.61519744185E+02  0.58939293803E+03  0.59260297201E+03  0.10000000000E+01 0.  0.
    9000005    1    3    3    0    0 -0.29271333513E+01 -0.61519744185E+02  0.41804131454E+03  0.42255507061E+03  0.10000000000E+01 0.  0.
<mgrwt>
<rscale>  0 0.12498831E+03</rscale>
<asrwt>0</asrwt>
<pdfrwt beam="1">  1        4 0.15558389E+00 0.12498831E+03</pdfrwt>
<pdfrwt beam="2">  1       -4 0.59413821E-03 0.12498831E+03</pdfrwt>
<totfact> 0.30115764E+03</totfact>
</mgrwt>
</event>
<event>
 5    1  0.3282421E-002  0.1249997E+03  0.7818608E-02  0.1235070E+00
          4   -1    0    0  501    0  0.00000000000E+00  0.00000000000E+00  0.12103898499E+03  0.12104564753E+03  0.12700000000E+01 0. -1.
         -4   -1    0    0    0  501 -0.00000000000E+00 -0.00000000000E+00 -0.32252462934E+02  0.32277457541E+02  0.12700000000E+01 0. -1.
         25    2    1    2    0    0  0.00000000000E+00  0.00000000000E+00  0.88786522053E+02  0.15332310507E+03  0.12499971221E+03 0.  0.
    9000005    1    3    3    0    0  0.90776549824E+01 -0.37393822944E+02 -0.16003325183E+02  0.41687027133E+02  0.10000000000E+01 0.  0.
    9000005    1    3    3    0    0 -0.90776549824E+01  0.37393822944E+02  0.10478984724E+03  0.11163607794E+03  0.10000000000E+01 0.  0.
<mgrwt>
<rscale>  0 0.12499971E+03</rscale>
<asrwt>0</asrwt>
<pdfrwt beam="1">  1        4 0.18623818E-01 0.12499971E+03</pdfrwt>
<pdfrwt beam="2">  1       -4 0.49643525E-02 0.12499971E+03</pdfrwt>
<totfact> 0.98646002E+03</totfact>
</mgrwt>
</event>
<event>
 5    1  0.3282421E-002  0.1250055E+03  0.7818608E-02  0.1235061E+00
          4   -1    0    0  501    0  0.00000000000E+00  0.00000000000E+00  0.11416451280E+03  0.11417157651E+03  0.12700000000E+01 0.  1.
         -4   -1    0    0    0  501 -0.00000000000E+00 -0.00000000000E+00 -0.34199070584E+02  0.34222643510E+02  0.12700000000E+01 0.  1.
         25    2    1    2    0    0  0.00000000000E+00  0.00000000000E+00  0.79965442214E+02  0.14839422002E+03  0.12500549022E+03 0.  0.
    9000005    1    3    3    0    0  0.36543068872E+02  0.47238314102E+02  0.61831162598E+02  0.85970616317E+02  0.10000000000E+01 0.  0.
    9000005    1    3    3    0    0 -0.36543068872E+02 -0.47238314102E+02  0.18134279615E+02  0.62423603700E+02  0.10000000000E+01 0.  0.
<mgrwt>
<rscale>  0 0.12500549E+03</rscale>
<asrwt>0</asrwt>
<pdfrwt beam="1">  1        4 0.17566128E-01 0.12500549E+03</pdfrwt>
<pdfrwt beam="2">  1       -4 0.52637522E-02 0.12500549E+03</pdfrwt>
<totfact> 0.99612443E+03</totfact>
</mgrwt>
</event>
<event>
 5    1  0.3282421E-002  0.1249963E+03  0.7818608E-02  0.1235075E+00
         -4   -1    0    0    0  501 -0.00000000000E+00  0.00000000000E+00  0.91732942565E+03  0.91733030477E+03  0.12700000000E+01 0. -1.
          4   -1    0    0  501    0  0.00000000000E+00 -0.00000000000E+00 -0.41624342464E+01  0.43518684327E+01  0.12700000000E+01 0. -1.
         25    2    1    2    0    0  0.00000000000E+00  0.00000000000E+00  0.91316699140E+03  0.92168217321E+03  0.12499629684E+03 0.  0.
    9000005    1    3    3    0    0 -0.59632350949E+02 -0.18236706097E+02  0.48646629128E+03  0.49044780281E+03  0.10000000000E+01 0.  0.
    9000005    1    3    3    0    0  0.59632350949E+02  0.18236706097E+02  0.42670070012E+03  0.43123437040E+03  0.10000000000E+01 0.  0.
<mgrwt>
<rscale>  0 0.12499630E+03</rscale>
<asrwt>0</asrwt>
<pdfrwt beam="2">  1        4 0.65501351E-03 0.12499630E+03</pdfrwt>
<pdfrwt beam="1">  1       -4 0.14114235E+00 0.12499630E+03</pdfrwt>
<totfact> 0.33345830E+03</totfact>
</mgrwt>
</event>
<event>
 5    1  0.3282421E-002  0.1249932E+03  0.7818608E-02  0.1235080E+00
         -4   -1    0    0    0  501 -0.00000000000E+00  0.00000000000E+00  0.93288617586E+01  0.94149116677E+01  0.12700000000E+01 0. -1.
          4   -1    0    0  501    0  0.00000000000E+00 -0.00000000000E+00 -0.41667275693E+03  0.41667469238E+03  0.12700000000E+01 0. -1.
         25    2    1    2    0    0  0.00000000000E+00  0.00000000000E+00 -0.40734389518E+03  0.42608960405E+03  0.12499320678E+03 0.  0.
    9000005    1    3    3    0    0 -0.91186741108E+01 -0.61801067815E+02 -0.19849845725E+03  0.20809891814E+03  0.10000000000E+01 0.  0.
    9000005    1    3    3    0    0  0.91186741108E+01  0.61801067815E+02 -0.20884543793E+03  0.21799068591E+03  0.10000000000E+01 0.  0.
<mgrwt>
<rscale>  0 0.12499321E+03</rscale>
<asrwt>0</asrwt>
<pdfrwt beam="2">  1        4 0.64110255E-01 0.12499321E+03</pdfrwt>
<pdfrwt beam="1">  1       -4 0.14419779E-02 0.12499321E+03</pdfrwt>
<totfact> 0.62101360E+03</totfact>
</mgrwt>
</event>
<event>
 5    1  0.3282421E-002  0.1249979E+03  0.7818608E-02  0.1235073E+00
         -4   -1    0    0    0  501 -0.00000000000E+00  0.00000000000E+00  0.96391204244E+02  0.96399570309E+02  0.12700000000E+01 0. -1.
          4   -1    0    0  501    0  0.00000000000E+00 -0.00000000000E+00 -0.40503544003E+02  0.40523449715E+02  0.12700000000E+01 0. -1.
         25    2    1    2    0    0  0.00000000000E+00  0.00000000000E+00  0.55887660242E+02  0.13692302002E+03  0.12499793136E+03 0.  0.
    9000005    1    3    3    0    0 -0.34071648183E+02  0.36269317983E+01 -0.29301697128E+02  0.45095690468E+02  0.10000000000E+01 0.  0.
    9000005    1    3    3    0    0  0.34071648183E+02 -0.36269317983E+01  0.85189357370E+02  0.91827329555E+02  0.10000000000E+01 0.  0.
<mgrwt>
<rscale>  0 0.12499793E+03</rscale>
<asrwt>0</asrwt>
<pdfrwt beam="2">  1        4 0.62334893E-02 0.12499793E+03</pdfrwt>
<pdfrwt beam="1">  1       -4 0.14831591E-01 0.12499793E+03</pdfrwt>
<totfact> 0.10198171E+04</totfact>
</mgrwt>
</event>
<event>
 5    1  0.3282421E-002  0.1249987E+03  0.7818608E-02  0.1235071E+00
         -4   -1    0    0    0  501 -0.00000000000E+00  0.00000000000E+00  0.41380677796E+02  0.41400161773E+02  0.12700000000E+01 0. -1.
          4   -1    0    0  501    0  0.00000000000E+00 -0.00000000000E+00 -0.94350034429E+02  0.94358581469E+02  0.12700000000E+01 0. -1.
         25    2    1    2    0    0  0.00000000000E+00  0.00000000000E+00 -0.52969356633E+02  0.13575874324E+03  0.12499873449E+03 0.  0.
    9000005    1    3    3    0    0  0.54037613300E+01  0.33105234657E+02 -0.83749203159E+02  0.90222426413E+02  0.10000000000E+01 0.  0.
    9000005    1    3    3    0    0 -0.54037613300E+01 -0.33105234657E+02  0.30779846525E+02  0.45536316829E+02  0.10000000000E+01 0.  0.
<mgrwt>
<rscale>  0 0.12499873E+03</rscale>
<asrwt>0</asrwt>
<pdfrwt beam="2">  1        4 0.14517546E-01 0.12499873E+03</pdfrwt>
<pdfrwt beam="1">  1       -4 0.63684144E-02 0.12499873E+03</pdfrwt>
<totfact> 0.10222395E+04</totfact>
</mgrwt>
</event>
<event>
 5    1  0.3282421E-002  0.1249999E+03  0.7818608E-02  0.1235069E+00
         -4   -1    0    0    0  501 -0.00000000000E+00  0.00000000000E+00  0.99898030398E+02  0.99906102803E+02  0.12700000000E+01 0.  1.
          4   -1    0    0  501    0  0.00000000000E+00 -0.00000000000E+00 -0.39082323934E+02  0.39102953137E+02  0.12700000000E+01 0.  1.
         25    2    1    2    0    0  0.00000000000E+00  0.00000000000E+00  0.60815706464E+02  0.13900905594E+03  0.12499986992E+03 0.  0.
    9000005    1    3    3    0    0 -0.17470964245E+02  0.26916175650E+02  0.90041619683E+02  0.95593976685E+02  0.10000000000E+01 0.  0.
    9000005    1    3    3    0    0  0.17470964245E+02 -0.26916175650E+02 -0.29225913219E+02  0.43415079255E+02  0.10000000000E+01 0.  0.
<mgrwt>
<rscale>  0 0.12499987E+03</rscale>
<asrwt>0</asrwt>
<pdfrwt beam="2">  1        4 0.60148731E-02 0.12499987E+03</pdfrwt>
<pdfrwt beam="1">  1       -4 0.15371135E-01 0.12499987E+03</pdfrwt>
<totfact> 0.10154195E+04</totfact>
</mgrwt>
</event>
<event>
 5    1  0.3282421E-002  0.1249926E+03  0.7818608E-02  0.1235081E+00
          4   -1    0    0  501    0  0.00000000000E+00  0.00000000000E+00  0.10698599107E+03  0.10699352871E+03  0.12700000000E+01 0.  1.
         -4   -1    0    0    0  501 -0.00000000000E+00 -0.00000000000E+00 -0.36487611023E+02  0.36509706356E+02  0.12700000000E+01 0.  1.
         25    2    1    2    0    0  0.00000000000E+00  0.00000000000E+00  0.70498380046E+02  0.14350323506E+03  0.12499262732E+03 0.  0.
    9000005    1    3    3    0    0  0.34560620193E+02  0.36136034108E+02 -0.77781321693E+01  0.50613721156E+02  0.10000000000E+01 0.  0.
    9000005    1    3    3    0    0 -0.34560620193E+02 -0.36136034108E+02  0.78276512216E+02  0.92889513907E+02  0.10000000000E+01 0.  0.
<mgrwt>
<rscale>  0 0.12499263E+03</rscale>
<asrwt>0</asrwt>
<pdfrwt beam="1">  1        4 0.16461663E-01 0.12499263E+03</pdfrwt>
<pdfrwt beam="2">  1       -4 0.56157581E-02 0.12499263E+03</pdfrwt>
<totfact> 0.10063159E+04</totfact>
</mgrwt>
</event>
<event>
 5    1  0.3282421E-002  0.1250407E+03  0.7818608E-02  0.1235006E+00
         -4   -1    0    0    0  501 -0.00000000000E+00  0.00000000000E+00  0.76773756899E+02  0.76784260421E+02  0.12700000000E+01 0.  1.
          4   -1    0    0  501    0  0.00000000000E+00 -0.00000000000E+00 -0.50891206528E+02  0.50907050611E+02  0.12700000000E+01 0.  1.
         25    2    1    2    0    0  0.00000000000E+00  0.00000000000E+00  0.25882550371E+02  0.12769131103E+03  0.12504065139E+03 0.  0.
    9000005    1    3    3    0    0  0.15905432693E+01  0.34418701457E+02 -0.40323930172E+02  0.53048997940E+02  0.10000000000E+01 0.  0.
    9000005    1    3    3    0    0 -0.15905432693E+01 -0.34418701457E+02  0.66206480543E+02  0.74642313092E+02  0.10000000000E+01 0.  0.
<mgrwt>
<rscale>  0 0.12504065E+03</rscale>
<asrwt>0</asrwt>
<pdfrwt beam="2">  1        4 0.78314431E-02 0.12504065E+03</pdfrwt>
<pdfrwt beam="1">  1       -4 0.11813374E-01 0.12504065E+03</pdfrwt>
<totfact> 0.10384627E+04</totfact>
</mgrwt>
</event>
<event>
 5    1  0.3282421E-002  0.1250005E+03  0.7818608E-02  0.1235069E+00
          4   -1    0    0  501    0  0.00000000000E+00  0.00000000000E+00  0.55517027720E+01  0.56951122613E+01  0.12700000000E+01 0.  1.
         -4   -1    0    0    0  501 -0.00000000000E+00 -0.00000000000E+00 -0.69450211600E+03  0.69450327719E+03  0.12700000000E+01 0.  1.
         25    2    1    2    0    0  0.00000000000E+00  0.00000000000E+00 -0.68895041323E+03  0.70019838945E+03  0.12500045081E+03 0.  0.
    9000005    1    3    3    0    0  0.57964950945E+02 -0.12737048021E+02 -0.45411580863E+03  0.45797853179E+03  0.10000000000E+01 0.  0.
    9000005    1    3    3    0    0 -0.57964950945E+02  0.12737048021E+02 -0.23483460460E+03  0.24221985767E+03  0.10000000000E+01 0.  0.
<mgrwt>
<rscale>  0 0.12500045E+03</rscale>
<asrwt>0</asrwt>
<pdfrwt beam="1">  1        4 0.86522949E-03 0.12500045E+03</pdfrwt>
<pdfrwt beam="2">  1       -4 0.10685753E+00 0.12500045E+03</pdfrwt>
<totfact> 0.43075817E+03</totfact>
</mgrwt>
</event>
<event>
 5    1  0.3282421E-002  0.1249924E+03  0.7818608E-02  0.1235081E+00
         -4   -1    0    0    0  501 -0.00000000000E+00  0.00000000000E+00  0.70960150020E+02  0.70971513940E+02  0.12700000000E+01 0. -1.
          4   -1    0    0  501    0  0.00000000000E+00 -0.00000000000E+00 -0.55018666849E+02  0.55033322649E+02  0.12700000000E+01 0. -1.
         25    2    1    2    0    0  0.00000000000E+00  0.00000000000E+00  0.15941483172E+02  0.12600483659E+03  0.12499235160E+03 0.  0.
    9000005    1    3    3    0    0 -0.48541747889E+02  0.34701243336E+02 -0.10734734394E+02  0.60635897781E+02  0.10000000000E+01 0.  0.
    9000005    1    3    3    0    0  0.48541747889E+02 -0.34701243336E+02  0.26676217565E+02  0.65368938808E+02  0.10000000000E+01 0.  0.
<mgrwt>
<rscale>  0 0.12499235E+03</rscale>
<asrwt>0</asrwt>
<pdfrwt beam="2">  1        4 0.84664119E-02 0.12499235E+03</pdfrwt>
<pdfrwt beam="1">  1       -4 0.10918948E-01 0.12499235E+03</pdfrwt>
<totfact> 0.10432651E+04</totfact>
</mgrwt>
</event>
<event>
 5    1  0.3282421E-002  0.1249999E+03  0.7818608E-02  0.1235069E+00
          4   -1    0    0  501    0  0.00000000000E+00  0.00000000000E+00  0.55196293305E+02  0.55210901955E+02  0.12700000000E+01 0. -1.
         -4   -1    0    0    0  501 -0.00000000000E+00 -0.00000000000E+00 -0.70740356159E+02  0.70751755381E+02  0.12700000000E+01 0. -1.
         25    2    1    2    0    0  0.00000000000E+00  0.00000000000E+00 -0.15544062854E+02  0.12596265734E+03  0.12499989261E+03 0.  0.
    9000005    1    3    3    0    0  0.44944505366E+02 -0.36337350363E+02  0.16177206755E+02  0.60025941163E+02  0.10000000000E+01 0.  0.
    9000005    1    3    3    0    0 -0.44944505366E+02  0.36337350363E+02 -0.31721269609E+02  0.65936716173E+02  0.10000000000E+01 0.  0.
<mgrwt>
<rscale>  0 0.12499989E+03</rscale>
<asrwt>0</asrwt>
<pdfrwt beam="1">  1        4 0.84937381E-02 0.12499989E+03</pdfrwt>
<pdfrwt beam="2">  1       -4 0.10885132E-01 0.12499989E+03</pdfrwt>
<totfact> 0.10431801E+04</totfact>
</mgrwt>
</event>
<event>
 5    1  0.3282421E-002  0.1250041E+03  0.7818608E-02  0.1235063E+00
         -4   -1    0    0    0  501 -0.00000000000E+00  0.00000000000E+00  0.14785969333E+02  0.14840410679E+02  0.12700000000E+01 0.  1.
          4   -1    0    0  501    0  0.00000000000E+00 -0.00000000000E+00 -0.26366205662E+03  0.26366511525E+03  0.12700000000E+01 0.  1.
         25    2    1    2    0    0  0.00000000000E+00  0.00000000000E+00 -0.24887608729E+03  0.27850552593E+03  0.12500408454E+03 0.  0.
    9000005    1    3    3    0    0  0.88357263712E+01 -0.20301979024E+02  0.57652014624E+01  0.22901483810E+02  0.10000000000E+01 0.  0.
    9000005    1    3    3    0    0 -0.88357263712E+01  0.20301979024E+02 -0.25464128875E+03  0.25560404212E+03  0.10000000000E+01 0.  0.
<mgrwt>
<rscale>  0 0.12500408E+03</rscale>
<asrwt>0</asrwt>
<pdfrwt beam="2">  1        4 0.40567813E-01 0.12500408E+03</pdfrwt>
<pdfrwt beam="1">  1       -4 0.22791878E-02 0.12500408E+03</pdfrwt>
<totfact> 0.78369565E+03</totfact>
</mgrwt>
</event>
<event>
 5    1  0.3282421E-002  0.1249979E+03  0.7818608E-02  0.1235073E+00
         -4   -1    0    0    0  501 -0.00000000000E+00  0.00000000000E+00  0.55712913500E+01  0.57142092460E+01  0.12700000000E+01 0. -1.
          4   -1    0    0  501    0  0.00000000000E+00 -0.00000000000E+00 -0.69209323733E+03  0.69209440256E+03  0.12700000000E+01 0. -1.
         25    2    1    2    0    0  0.00000000000E+00  0.00000000000E+00 -0.68652194598E+03  0.69780861180E+03  0.12499790559E+03 0.  0.
    9000005    1    3    3    0    0  0.52205652402E+02 -0.21424955419E+01 -0.53462960665E+03  0.53717765845E+03  0.10000000000E+01 0.  0.
    9000005    1    3    3    0    0 -0.52205652402E+02  0.21424955419E+01 -0.15189233932E+03  0.16063095335E+03  0.10000000000E+01 0.  0.
<mgrwt>
<rscale>  0 0.12499791E+03</rscale>
<asrwt>0</asrwt>
<pdfrwt beam="2">  1        4 0.10648690E+00 0.12499791E+03</pdfrwt>
<pdfrwt beam="1">  1       -4 0.86820561E-03 0.12499791E+03</pdfrwt>
<totfact> 0.43204624E+03</totfact>
</mgrwt>
</event>
<event>
 5    1  0.3282421E-002  0.1250000E+03  0.7818608E-02  0.1235069E+00
          4   -1    0    0  501    0  0.00000000000E+00  0.00000000000E+00  0.82903841643E+02  0.82913568607E+02  0.12700000000E+01 0.  1.
         -4   -1    0    0    0  501 -0.00000000000E+00 -0.00000000000E+00 -0.47096784724E+02  0.47113904862E+02  0.12700000000E+01 0.  1.
         25    2    1    2    0    0  0.00000000000E+00  0.00000000000E+00  0.35807056919E+02  0.13002747347E+03  0.12499999413E+03 0.  0.
    9000005    1    3    3    0    0 -0.41331738077E+02  0.39342170349E+02 -0.85992376248E+01  0.57715386406E+02  0.10000000000E+01 0.  0.
    9000005    1    3    3    0    0  0.41331738077E+02 -0.39342170349E+02  0.44406294544E+02  0.72312087063E+02  0.10000000000E+01 0.  0.
<mgrwt>
<rscale>  0 0.12499999E+03</rscale>
<asrwt>0</asrwt>
<pdfrwt beam="1">  1        4 0.12756502E-01 0.12499999E+03</pdfrwt>
<pdfrwt beam="2">  1       -4 0.72477244E-02 0.12499999E+03</pdfrwt>
<totfact> 0.10343921E+04</totfact>
</mgrwt>
</event>
<event>
 5    1  0.3282421E-002  0.1249982E+03  0.7818608E-02  0.1235072E+00
         -4   -1    0    0    0  501 -0.00000000000E+00  0.00000000000E+00  0.57099920351E+01  0.58495221207E+01  0.12700000000E+01 0.  1.
          4   -1    0    0  501    0  0.00000000000E+00 -0.00000000000E+00 -0.67569021359E+03  0.67569140711E+03  0.12700000000E+01 0.  1.
         25    2    1    2    0    0  0.00000000000E+00  0.00000000000E+00 -0.66998022155E+03  0.68154092923E+03  0.12499816375E+03 0.  0.
    9000005    1    3    3    0    0 -0.18799918314E+02  0.86745283873E+01 -0.13508336466E+02  0.24741857761E+02  0.10000000000E+01 0.  0.
    9000005    1    3    3    0    0  0.18799918314E+02 -0.86745283873E+01 -0.65647188509E+03  0.65679907147E+03  0.10000000000E+01 0.  0.
<mgrwt>
<rscale>  0 0.12499816E+03</rscale>
<asrwt>0</asrwt>
<pdfrwt beam="2">  1        4 0.10396310E+00 0.12499816E+03</pdfrwt>
<pdfrwt beam="1">  1       -4 0.88928574E-03 0.12499816E+03</pdfrwt>
<totfact> 0.44080998E+03</totfact>
</mgrwt>
</event>
<event>
 4    1  0.3282421E-002  0.1250835E+03  0.7818608E-02  0.1234939E+00
         -4   -1    0    0    0  501 -0.00000000000E+00  0.00000000000E+00  0.45663016185E+02  0.45680673672E+02  0.12700000000E+01 0.  1.
          4   -1    0    0  501    0  0.00000000000E+00 -0.00000000000E+00 -0.85620544620E+02  0.85629962986E+02  0.12700000000E+01 0.  1.
    9000005    1    1    2    0    0 -0.39635901688E+02 -0.48255804101E+02 -0.23435483396E+02  0.66707190123E+02  0.10000000000E+01 0.  0.
    9000005    1    1    2    0    0  0.39635901688E+02  0.48255804101E+02 -0.16522045039E+02  0.64603446536E+02  0.10000000000E+01 0.  0.
<mgrwt>
<rscale>  0 0.12508349E+03</rscale>
<asrwt>0</asrwt>
<pdfrwt beam="2">  1        4 0.13174474E-01 0.12508349E+03</pdfrwt>
<pdfrwt beam="1">  1       -4 0.70271622E-02 0.12508349E+03</pdfrwt>
<totfact> 0.10297027E+04</totfact>
</mgrwt>
</event>
<event>
 5    1  0.3282421E-002  0.1249985E+03  0.7818608E-02  0.1235072E+00
          4   -1    0    0  501    0  0.00000000000E+00  0.00000000000E+00  0.50875056219E+02  0.50890905330E+02  0.12700000000E+01 0. -1.
         -4   -1    0    0    0  501 -0.00000000000E+00 -0.00000000000E+00 -0.76746396882E+02  0.76756904148E+02  0.12700000000E+01 0. -1.
         25    2    1    2    0    0  0.00000000000E+00  0.00000000000E+00 -0.25871340664E+02  0.12764780948E+03  0.12499854798E+03 0.  0.
    9000005    1    3    3    0    0  0.31002082397E+02 -0.19795567838E+02 -0.64525349396E+02  0.74279972628E+02  0.10000000000E+01 0.  0.
    9000005    1    3    3    0    0 -0.31002082397E+02  0.19795567838E+02  0.38654008733E+02  0.53367836850E+02  0.10000000000E+01 0.  0.
<mgrwt>
<rscale>  0 0.12499855E+03</rscale>
<asrwt>0</asrwt>
<pdfrwt beam="1">  1        4 0.78289591E-02 0.12499855E+03</pdfrwt>
<pdfrwt beam="2">  1       -4 0.11809165E-01 0.12499855E+03</pdfrwt>
<totfact> 0.10395442E+04</totfact>
</mgrwt>
</event>
<event>
 5    1  0.3282421E-002  0.1249980E+03  0.7818608E-02  0.1235072E+00
          4   -1    0    0  501    0  0.00000000000E+00  0.00000000000E+00  0.11519006515E+04  0.11519013517E+04  0.12700000000E+01 0.  1.
         -4   -1    0    0    0  501 -0.00000000000E+00 -0.00000000000E+00 -0.32713885568E+01  0.35092567717E+01  0.12700000000E+01 0.  1.
         25    2    1    2    0    0  0.00000000000E+00  0.00000000000E+00  0.11486292630E+04  0.11554106084E+04  0.12499796101E+03 0.  0.
    9000005    1    3    3    0    0  0.44588513067E+02  0.24040614790E+02  0.23607107391E+03  0.24144696849E+03  0.10000000000E+01 0.  0.
    9000005    1    3    3    0    0 -0.44588513067E+02 -0.24040614790E+02  0.91255818908E+03  0.91396363993E+03  0.10000000000E+01 0.  0.
<mgrwt>
<rscale>  0 0.12499796E+03</rscale>
<asrwt>0</asrwt>
<pdfrwt beam="1">  1        4 0.17723414E+00 0.12499796E+03</pdfrwt>
<pdfrwt beam="2">  1       -4 0.52164107E-03 0.12499796E+03</pdfrwt>
<totfact> 0.25911683E+03</totfact>
</mgrwt>
</event>
<event>
 5    1  0.3282421E-002  0.1249978E+03  0.7818608E-02  0.1235073E+00
          4   -1    0    0  501    0  0.00000000000E+00  0.00000000000E+00  0.89909842100E+01  0.90802366194E+01  0.12700000000E+01 0.  1.
         -4   -1    0    0    0  501 -0.00000000000E+00 -0.00000000000E+00 -0.43221206977E+03  0.43221393563E+03  0.12700000000E+01 0.  1.
         25    2    1    2    0    0  0.00000000000E+00  0.00000000000E+00 -0.42322108556E+03  0.44129417225E+03  0.12499783678E+03 0.  0.
    9000005    1    3    3    0    0  0.37728817691E+02  0.39889660679E+02 -0.31696050569E+03  0.32168246903E+03  0.10000000000E+01 0.  0.
    9000005    1    3    3    0    0 -0.37728817691E+02 -0.39889660679E+02 -0.10626057987E+03  0.11961170322E+03  0.10000000000E+01 0.  0.
<mgrwt>
<rscale>  0 0.12499784E+03</rscale>
<asrwt>0</asrwt>
<pdfrwt beam="1">  1        4 0.13902378E-02 0.12499784E+03</pdfrwt>
<pdfrwt beam="2">  1       -4 0.66501157E-01 0.12499784E+03</pdfrwt>
<totfact> 0.60728319E+03</totfact>
</mgrwt>
</event>
<event>
 5    1  0.3282421E-002  0.1249992E+03  0.7818608E-02  0.1235070E+00
          4   -1    0    0  501    0  0.00000000000E+00  0.00000000000E+00  0.60106527567E+02  0.60119943082E+02  0.12700000000E+01 0.  1.
         -4   -1    0    0    0  501 -0.00000000000E+00 -0.00000000000E+00 -0.64961109997E+02  0.64973523161E+02  0.12700000000E+01 0.  1.
         25    2    1    2    0    0  0.00000000000E+00  0.00000000000E+00 -0.48545824295E+01  0.12509346624E+03  0.12499923330E+03 0.  0.
    9000005    1    3    3    0    0 -0.40071386078E+02  0.39029951605E+02 -0.30307743974E+02  0.63628707745E+02  0.10000000000E+01 0.  0.
    9000005    1    3    3    0    0  0.40071386078E+02 -0.39029951605E+02  0.25453161545E+02  0.61464758498E+02  0.10000000000E+01 0.  0.
<mgrwt>
<rscale>  0 0.12499923E+03</rscale>
<asrwt>0</asrwt>
<pdfrwt beam="1">  1        4 0.92491450E-02 0.12499923E+03</pdfrwt>
<pdfrwt beam="2">  1       -4 0.99960037E-02 0.12499923E+03</pdfrwt>
<totfact> 0.10451014E+04</totfact>
</mgrwt>
</event>
<event>
 5    1  0.3282421E-002  0.1249991E+03  0.7818608E-02  0.1235071E+00
          4   -1    0    0  501    0  0.00000000000E+00  0.00000000000E+00  0.23617309446E+02  0.23651431361E+02  0.12700000000E+01 0.  1.
         -4   -1    0    0    0  501 -0.00000000000E+00 -0.00000000000E+00 -0.16523936390E+03  0.16524424432E+03  0.12700000000E+01 0.  1.
         25    2    1    2    0    0  0.00000000000E+00  0.00000000000E+00 -0.14162205445E+03  0.18889567569E+03  0.12499907994E+03 0.  0.
    9000005    1    3    3    0    0  0.61001257306E+02  0.10184556697E+02 -0.84353893167E+02  0.10460142389E+03  0.10000000000E+01 0.  0.
    9000005    1    3    3    0    0 -0.61001257306E+02 -0.10184556697E+02 -0.57268161288E+02  0.84294251793E+02  0.10000000000E+01 0.  0.
<mgrwt>
<rscale>  0 0.12499908E+03</rscale>
<asrwt>0</asrwt>
<pdfrwt beam="1">  1        4 0.36364325E-02 0.12499908E+03</pdfrwt>
<pdfrwt beam="2">  1       -4 0.25424440E-01 0.12499908E+03</pdfrwt>
<totfact> 0.92041716E+03</totfact>
</mgrwt>
</event>
<event>
 5    1  0.3282421E-002  0.1249994E+03  0.7818608E-02  0.1235070E+00
          4   -1    0    0  501    0  0.00000000000E+00  0.00000000000E+00  0.49141666076E+03  0.49141830183E+03  0.12700000000E+01 0.  1.
         -4   -1    0    0    0  501 -0.00000000000E+00 -0.00000000000E+00 -0.78964839469E+01  0.79979596601E+01  0.12700000000E+01 0.  1.
         25    2    1    2    0    0  0.00000000000E+00  0.00000000000E+00  0.48352017681E+03  0.49941626149E+03  0.12499936342E+03 0.  0.
    9000005    1    3    3    0    0  0.10019866981E+02  0.27644831915E+02  0.46206936863E+03  0.46300511433E+03  0.10000000000E+01 0.  0.
    9000005    1    3    3    0    0 -0.10019866981E+02 -0.27644831915E+02  0.21450808179E+02  0.36411147159E+02  0.10000000000E+01 0.  0.
<mgrwt>
<rscale>  0 0.12499936E+03</rscale>
<asrwt>0</asrwt>
<pdfrwt beam="1">  1        4 0.75610505E-01 0.12499936E+03</pdfrwt>
<pdfrwt beam="2">  1       -4 0.12227756E-02 0.12499936E+03</pdfrwt>
<totfact> 0.55910462E+03</totfact>
</mgrwt>
</event>
<event>
 5    1  0.3282421E-002  0.1250007E+03  0.7818608E-02  0.1235068E+00
         -4   -1    0    0    0  501 -0.00000000000E+00  0.00000000000E+00  0.21422366710E+03  0.21422743159E+03  0.12700000000E+01 0. -1.
          4   -1    0    0  501    0  0.00000000000E+00 -0.00000000000E+00 -0.18208612419E+02  0.18252848167E+02  0.12700000000E+01 0. -1.
         25    2    1    2    0    0  0.00000000000E+00  0.00000000000E+00  0.19601505468E+03  0.23248027976E+03  0.12500071526E+03 0.  0.
    9000005    1    3    3    0    0  0.74693438828E+01 -0.49639915479E+02  0.16723180841E+03  0.17460638605E+03  0.10000000000E+01 0.  0.
    9000005    1    3    3    0    0 -0.74693438828E+01  0.49639915479E+02  0.28783246275E+02  0.57873893708E+02  0.10000000000E+01 0.  0.
<mgrwt>
<rscale>  0 0.12500072E+03</rscale>
<asrwt>0</asrwt>
<pdfrwt beam="2">  1        4 0.28050173E-02 0.12500072E+03</pdfrwt>
<pdfrwt beam="1">  1       -4 0.32961180E-01 0.12500072E+03</pdfrwt>
<totfact> 0.84928841E+03</totfact>
</mgrwt>
</event>
<event>
 5    1  0.3282421E-002  0.1250041E+03  0.7818608E-02  0.1235063E+00
          4   -1    0    0  501    0  0.00000000000E+00  0.00000000000E+00  0.11494528531E+02  0.11564475178E+02  0.12700000000E+01 0.  1.
         -4   -1    0    0    0  501 -0.00000000000E+00 -0.00000000000E+00 -0.33875587064E+03  0.33875825125E+03  0.12700000000E+01 0.  1.
         25    2    1    2    0    0  0.00000000000E+00  0.00000000000E+00 -0.32726134211E+03  0.35032272643E+03  0.12500410640E+03 0.  0.
    9000005    1    3    3    0    0  0.32151619186E+02 -0.88395044292E+01 -0.15505282980E+02  0.36786916901E+02  0.10000000000E+01 0.  0.
    9000005    1    3    3    0    0 -0.32151619186E+02  0.88395044292E+01 -0.31175605913E+03  0.31353580953E+03  0.10000000000E+01 0.  0.
<mgrwt>
<rscale>  0 0.12500411E+03</rscale>
<asrwt>0</asrwt>
<pdfrwt beam="1">  1        4 0.17739529E-02 0.12500411E+03</pdfrwt>
<pdfrwt beam="2">  1       -4 0.52121844E-01 0.12500411E+03</pdfrwt>
<totfact> 0.69682737E+03</totfact>
</mgrwt>
</event>
<event>
 5    1  0.3282421E-002  0.1249982E+03  0.7818608E-02  0.1235072E+00
         -4   -1    0    0    0  501 -0.00000000000E+00  0.00000000000E+00  0.52500826908E+01  0.54015061103E+01  0.12700000000E+01 0.  1.
          4   -1    0    0  501    0  0.00000000000E+00 -0.00000000000E+00 -0.73328590286E+03  0.73328700263E+03  0.12700000000E+01 0.  1.
         25    2    1    2    0    0  0.00000000000E+00  0.00000000000E+00 -0.72803582017E+03  0.73868850874E+03  0.12499823000E+03 0.  0.
    9000005    1    3    3    0    0 -0.10647366267E+02  0.25600162354E+02 -0.69497639867E+03  0.69552996300E+03  0.10000000000E+01 0.  0.
    9000005    1    3    3    0    0  0.10647366267E+02 -0.25600162354E+02 -0.33059421494E+02  0.43158545741E+02  0.10000000000E+01 0.  0.
<mgrwt>
<rscale>  0 0.12499823E+03</rscale>
<asrwt>0</asrwt>
<pdfrwt beam="2">  1        4 0.11282487E+00 0.12499823E+03</pdfrwt>
<pdfrwt beam="1">  1       -4 0.81943817E-03 0.12499823E+03</pdfrwt>
<totfact> 0.41122714E+03</totfact>
</mgrwt>
</event>
<event>
 5    1  0.3282421E-002  0.1249997E+03  0.7818608E-02  0.1235070E+00
          4   -1    0    0  501    0  0.00000000000E+00  0.00000000000E+00  0.22725428374E+03  0.22725783238E+03  0.12700000000E+01 0. -1.
         -4   -1    0    0    0  501 -0.00000000000E+00 -0.00000000000E+00 -0.17161676052E+02  0.17208603224E+02  0.12700000000E+01 0. -1.
         25    2    1    2    0    0  0.00000000000E+00  0.00000000000E+00  0.21009260769E+03  0.24446643560E+03  0.12499973733E+03 0.  0.
    9000005    1    3    3    0    0  0.29543664259E+02  0.77471554487E-01 -0.26506319850E+01  0.29679284857E+02  0.10000000000E+01 0.  0.
    9000005    1    3    3    0    0 -0.29543664259E+02 -0.77471554487E-01  0.21274323967E+03  0.21478715075E+03  0.10000000000E+01 0.  0.
<mgrwt>
<rscale>  0 0.12499974E+03</rscale>
<asrwt>0</asrwt>
<pdfrwt beam="1">  1        4 0.34966078E-01 0.12499974E+03</pdfrwt>
<pdfrwt beam="2">  1       -4 0.26441407E-02 0.12499974E+03</pdfrwt>
<totfact> 0.83137123E+03</totfact>
</mgrwt>
</event>
<event>
 5    1  0.3282421E-002  0.1249996E+03  0.7818608E-02  0.1235070E+00
         -4   -1    0    0    0  501 -0.00000000000E+00  0.00000000000E+00  0.59959874991E+02  0.59973323311E+02  0.12700000000E+01 0. -1.
          4   -1    0    0  501    0  0.00000000000E+00 -0.00000000000E+00 -0.65120406454E+02  0.65132789259E+02  0.12700000000E+01 0. -1.
         25    2    1    2    0    0  0.00000000000E+00  0.00000000000E+00 -0.51605314626E+01  0.12510611257E+03  0.12499963327E+03 0.  0.
    9000005    1    3    3    0    0  0.17544729630E+02 -0.54244432353E+02 -0.28194078385E+02  0.63609606468E+02  0.10000000000E+01 0.  0.
    9000005    1    3    3    0    0 -0.17544729630E+02  0.54244432353E+02  0.23033546922E+02  0.61496506103E+02  0.10000000000E+01 0.  0.
<mgrwt>
<rscale>  0 0.12499963E+03</rscale>
<asrwt>0</asrwt>
<pdfrwt beam="2">  1        4 0.10020511E-01 0.12499963E+03</pdfrwt>
<pdfrwt beam="1">  1       -4 0.92265832E-02 0.12499963E+03</pdfrwt>
<totfact> 0.10450645E+04</totfact>
</mgrwt>
</event>
<event>
 5    1  0.3282421E-002  0.1249998E+03  0.7818608E-02  0.1235070E+00
          4   -1    0    0  501    0  0.00000000000E+00  0.00000000000E+00  0.12577521615E+02  0.12641477365E+02  0.12700000000E+01 0. -1.
         -4   -1    0    0    0  501 -0.00000000000E+00 -0.00000000000E+00 -0.30972001761E+03  0.30972262140E+03  0.12700000000E+01 0. -1.
         25    2    1    2    0    0  0.00000000000E+00  0.00000000000E+00 -0.29714249600E+03  0.32236409877E+03  0.12499979699E+03 0.  0.
    9000005    1    3    3    0    0 -0.11017636928E+02  0.61093379660E+02 -0.16706910424E+03  0.17823264278E+03  0.10000000000E+01 0.  0.
    9000005    1    3    3    0    0  0.11017636928E+02 -0.61093379660E+02 -0.13007339176E+03  0.14413145599E+03  0.10000000000E+01 0.  0.
<mgrwt>
<rscale>  0 0.12499980E+03</rscale>
<asrwt>0</asrwt>
<pdfrwt beam="1">  1        4 0.19401235E-02 0.12499980E+03</pdfrwt>
<pdfrwt beam="2">  1       -4 0.47654348E-01 0.12499980E+03</pdfrwt>
<totfact> 0.72876157E+03</totfact>
</mgrwt>
</event>
<event>
 5    1  0.3282421E-002  0.1249919E+03  0.7818608E-02  0.1235082E+00
         -4   -1    0    0    0  501 -0.00000000000E+00  0.00000000000E+00  0.46137627256E+03  0.46137802048E+03  0.12700000000E+01 0. -1.
          4   -1    0    0  501    0  0.00000000000E+00 -0.00000000000E+00 -0.84160185853E+01  0.85113024167E+01  0.12700000000E+01 0. -1.
         25    2    1    2    0    0  0.00000000000E+00  0.00000000000E+00  0.45296025397E+03  0.46988932289E+03  0.12499193610E+03 0.  0.
    9000005    1    3    3    0    0 -0.57091755623E+01 -0.48167981691E+02  0.78378781837E+02  0.92179078907E+02  0.10000000000E+01 0.  0.
    9000005    1    3    3    0    0  0.57091755623E+01  0.48167981691E+02  0.37458147214E+03  0.37771024399E+03  0.10000000000E+01 0.  0.
<mgrwt>
<rscale>  0 0.12499194E+03</rscale>
<asrwt>0</asrwt>
<pdfrwt beam="2">  1        4 0.13022360E-02 0.12499194E+03</pdfrwt>
<pdfrwt beam="1">  1       -4 0.70988431E-01 0.12499194E+03</pdfrwt>
<totfact> 0.58289033E+03</totfact>
</mgrwt>
</event>
<event>
 5    1  0.3282421E-002  0.1250019E+03  0.7818608E-02  0.1235066E+00
         -4   -1    0    0    0  501 -0.00000000000E+00  0.00000000000E+00  0.19325593794E+02  0.19367278474E+02  0.12700000000E+01 0. -1.
          4   -1    0    0  501    0  0.00000000000E+00 -0.00000000000E+00 -0.20187309563E+03  0.20187709043E+03  0.12700000000E+01 0. -1.
         25    2    1    2    0    0  0.00000000000E+00  0.00000000000E+00 -0.18254750184E+03  0.22124436890E+03  0.12500192136E+03 0.  0.
    9000005    1    3    3    0    0 -0.29083752558E+02  0.55271949990E+02 -0.95035406364E+02  0.11372590550E+03  0.10000000000E+01 0.  0.
    9000005    1    3    3    0    0  0.29083752558E+02 -0.55271949990E+02 -0.87512095473E+02  0.10751846340E+03  0.10000000000E+01 0.  0.
<mgrwt>
<rscale>  0 0.12500192E+03</rscale>
<asrwt>0</asrwt>
<pdfrwt beam="2">  1        4 0.31060912E-01 0.12500192E+03</pdfrwt>
<pdfrwt beam="1">  1       -4 0.29766822E-02 0.12500192E+03</pdfrwt>
<totfact> 0.86668108E+03</totfact>
</mgrwt>
</event>
<event>
 5    1  0.3282421E-002  0.1250005E+03  0.7818608E-02  0.1235069E+00
          4   -1    0    0  501    0  0.00000000000E+00  0.00000000000E+00  0.20886626913E+03  0.20887013018E+03  0.12700000000E+01 0.  1.
         -4   -1    0    0    0  501 -0.00000000000E+00 -0.00000000000E+00 -0.18676704003E+02  0.18719833664E+02  0.12700000000E+01 0.  1.
         25    2    1    2    0    0  0.00000000000E+00  0.00000000000E+00  0.19018956513E+03  0.22758996384E+03  0.12500048383E+03 0.  0.
    9000005    1    3    3    0    0  0.27228942154E+02  0.49925399671E+02  0.47920422558E+02  0.74372896416E+02  0.10000000000E+01 0.  0.
    9000005    1    3    3    0    0 -0.27228942154E+02 -0.49925399671E+02  0.14226914257E+03  0.15321706743E+03  0.10000000000E+01 0.  0.
<mgrwt>
<rscale>  0 0.12500048E+03</rscale>
<asrwt>0</asrwt>
<pdfrwt beam="1">  1        4 0.32136889E-01 0.12500048E+03</pdfrwt>
<pdfrwt beam="2">  1       -4 0.28769536E-02 0.12500048E+03</pdfrwt>
<totfact> 0.85680112E+03</totfact>
</mgrwt>
</event>
<event>
 5    1  0.3282421E-002  0.1250005E+03  0.7818608E-02  0.1235068E+00
         -4   -1    0    0    0  501 -0.00000000000E+00  0.00000000000E+00  0.99944440479E+02  0.99952509137E+02  0.12700000000E+01 0. -1.
          4   -1    0    0  501    0  0.00000000000E+00 -0.00000000000E+00 -0.39064582710E+02  0.39085221277E+02  0.12700000000E+01 0. -1.
         25    2    1    2    0    0  0.00000000000E+00  0.00000000000E+00  0.60879857770E+02  0.13903773041E+03  0.12500053359E+03 0.  0.
    9000005    1    3    3    0    0 -0.27040067223E+02 -0.11574538706E+02 -0.30889395187E+02  0.42664855756E+02  0.10000000000E+01 0.  0.
    9000005    1    3    3    0    0  0.27040067223E+02  0.11574538706E+02  0.91769252956E+02  0.96372874658E+02  0.10000000000E+01 0.  0.
<mgrwt>
<rscale>  0 0.12500053E+03</rscale>
<asrwt>0</asrwt>
<pdfrwt beam="2">  1        4 0.60121441E-02 0.12500053E+03</pdfrwt>
<pdfrwt beam="1">  1       -4 0.15378276E-01 0.12500053E+03</pdfrwt>
<totfact> 0.10153446E+04</totfact>
</mgrwt>
</event>
<event>
 5    1  0.3282421E-002  0.1249998E+03  0.7818608E-02  0.1235070E+00
         -4   -1    0    0    0  501 -0.00000000000E+00  0.00000000000E+00  0.14094804054E+03  0.14095376204E+03  0.12700000000E+01 0.  1.
          4   -1    0    0  501    0  0.00000000000E+00 -0.00000000000E+00 -0.27693198674E+02  0.27722304248E+02  0.12700000000E+01 0.  1.
         25    2    1    2    0    0  0.00000000000E+00  0.00000000000E+00  0.11325484187E+03  0.16867606628E+03  0.12499982452E+03 0.  0.
    9000005    1    3    3    0    0  0.37663861541E+02  0.82273472773E+01  0.12299569107E+03  0.12889994465E+03  0.10000000000E+01 0.  0.
    9000005    1    3    3    0    0 -0.37663861541E+02 -0.82273472773E+01 -0.97408491985E+01  0.39776121638E+02  0.10000000000E+01 0.  0.
<mgrwt>
<rscale>  0 0.12499982E+03</rscale>
<asrwt>0</asrwt>
<pdfrwt beam="2">  1        4 0.42631710E-02 0.12499982E+03</pdfrwt>
<pdfrwt beam="1">  1       -4 0.21686993E-01 0.12499982E+03</pdfrwt>
<totfact> 0.95696074E+03</totfact>
</mgrwt>
</event>
<event>
 5    1  0.3282421E-002  0.1249890E+03  0.7818608E-02  0.1235086E+00
         -4   -1    0    0    0  501 -0.00000000000E+00  0.00000000000E+00  0.43260377312E+03  0.43260563729E+03  0.12700000000E+01 0.  1.
          4   -1    0    0  501    0  0.00000000000E+00 -0.00000000000E+00 -0.89814782539E+01  0.90708241977E+01  0.12700000000E+01 0.  1.
         25    2    1    2    0    0  0.00000000000E+00  0.00000000000E+00  0.42362229487E+03  0.44167646149E+03  0.12498899122E+03 0.  0.
    9000005    1    3    3    0    0 -0.52563170379E+02  0.17425977715E+02  0.31410680459E+03  0.31895240439E+03  0.10000000000E+01 0.  0.
    9000005    1    3    3    0    0  0.52563170379E+02 -0.17425977715E+02  0.10951549028E+03  0.12272405710E+03  0.10000000000E+01 0.  0.
<mgrwt>
<rscale>  0 0.12498899E+03</rscale>
<asrwt>0</asrwt>
<pdfrwt beam="2">  1        4 0.13887823E-02 0.12498899E+03</pdfrwt>
<pdfrwt beam="1">  1       -4 0.66561433E-01 0.12498899E+03</pdfrwt>
<totfact> 0.60706396E+03</totfact>
</mgrwt>
</event>
<event>
 5    1  0.3282421E-002  0.1250007E+03  0.7818608E-02  0.1235068E+00
          4   -1    0    0  501    0  0.00000000000E+00  0.00000000000E+00  0.11956108982E+02  0.12023370658E+02  0.12700000000E+01 0.  1.
         -4   -1    0    0    0  501 -0.00000000000E+00 -0.00000000000E+00 -0.32573439734E+03  0.32573687312E+03  0.12700000000E+01 0.  1.
         25    2    1    2    0    0  0.00000000000E+00  0.00000000000E+00 -0.31377828836E+03  0.33776024378E+03  0.12500067213E+03 0.  0.
    9000005    1    3    3    0    0 -0.36127992905E+02 -0.46290641741E+01 -0.19677535257E+02  0.41410934549E+02  0.10000000000E+01 0.  0.
    9000005    1    3    3    0    0  0.36127992905E+02  0.46290641741E+01 -0.29410075310E+03  0.29634930923E+03  0.10000000000E+01 0.  0.
<mgrwt>
<rscale>  0 0.12500067E+03</rscale>
<asrwt>0</asrwt>
<pdfrwt beam="1">  1        4 0.18447661E-02 0.12500067E+03</pdfrwt>
<pdfrwt beam="2">  1       -4 0.50118342E-01 0.12500067E+03</pdfrwt>
<totfact> 0.71091350E+03</totfact>
</mgrwt>
</event>
<event>
 5    1  0.3282421E-002  0.1249988E+03  0.7818608E-02  0.1235071E+00
         -4   -1    0    0    0  501 -0.00000000000E+00  0.00000000000E+00  0.35021893240E+02  0.35044912700E+02  0.12700000000E+01 0.  1.
          4   -1    0    0  501    0  0.00000000000E+00 -0.00000000000E+00 -0.11147199903E+03  0.11147923335E+03  0.12700000000E+01 0.  1.
         25    2    1    2    0    0  0.00000000000E+00  0.00000000000E+00 -0.76450105790E+02  0.14652414605E+03  0.12499882679E+03 0.  0.
    9000005    1    3    3    0    0 -0.10835074954E+02  0.38501128419E+01  0.33776861483E+02  0.35694517643E+02  0.10000000000E+01 0.  0.
    9000005    1    3    3    0    0  0.10835074954E+02 -0.38501128419E+01 -0.11022696727E+03  0.11082962840E+03  0.10000000000E+01 0.  0.
<mgrwt>
<rscale>  0 0.12499883E+03</rscale>
<asrwt>0</asrwt>
<pdfrwt beam="2">  1        4 0.17151865E-01 0.12499883E+03</pdfrwt>
<pdfrwt beam="1">  1       -4 0.53903108E-02 0.12499883E+03</pdfrwt>
<totfact> 0.10000377E+04</totfact>
</mgrwt>
</event>
<event>
 5    1  0.3282421E-002  0.1249994E+03  0.7818608E-02  0.1235070E+00
          4   -1    0    0  501    0  0.00000000000E+00  0.00000000000E+00  0.14677779528E+03  0.14678328954E+03  0.12700000000E+01 0.  1.
         -4   -1    0    0    0  501 -0.00000000000E+00 -0.00000000000E+00 -0.26591950248E+02  0.26622259821E+02  0.12700000000E+01 0.  1.
         25    2    1    2    0    0  0.00000000000E+00  0.00000000000E+00  0.12018584503E+03  0.17340554936E+03  0.12499938881E+03 0.  0.
    9000005    1    3    3    0    0 -0.33640141757E+02  0.17000834067E+01  0.13311377623E+03  0.13731287938E+03  0.10000000000E+01 0.  0.
    9000005    1    3    3    0    0  0.33640141757E+02 -0.17000834067E+01 -0.12927931200E+02  0.36092669978E+02  0.10000000000E+01 0.  0.
<mgrwt>
<rscale>  0 0.12499939E+03</rscale>
<asrwt>0</asrwt>
<pdfrwt beam="1">  1        4 0.22583954E-01 0.12499939E+03</pdfrwt>
<pdfrwt beam="2">  1       -4 0.40938234E-02 0.12499939E+03</pdfrwt>
<totfact> 0.94818974E+03</totfact>
</mgrwt>
</event>
<event>
 5    1  0.3282421E-002  0.1249979E+03  0.7818608E-02  0.1235073E+00
         -4   -1    0    0    0  501 -0.00000000000E+00  0.00000000000E+00  0.17831748733E+01  0.21892036517E+01  0.12700000000E+01 0.  1.
          4   -1    0    0  501    0  0.00000000000E+00 -0.00000000000E+00 -0.19662346176E+04  0.19662350277E+04  0.12700000000E+01 0.  1.
         25    2    1    2    0    0  0.00000000000E+00  0.00000000000E+00 -0.19644514427E+04  0.19684242314E+04  0.12499793573E+03 0.  0.
    9000005    1    3    3    0    0 -0.36108344141E+02  0.31957255311E+02 -0.35626047963E+03  0.35951023355E+03  0.10000000000E+01 0.  0.
    9000005    1    3    3    0    0  0.36108344141E+02 -0.31957255311E+02 -0.16081909631E+04  0.16089139978E+04  0.10000000000E+01 0.  0.
<mgrwt>
<rscale>  0 0.12499794E+03</rscale>
<asrwt>0</asrwt>
<pdfrwt beam="2">  1        4 0.30252734E+00 0.12499794E+03</pdfrwt>
<pdfrwt beam="1">  1       -4 0.30560070E-03 0.12499794E+03</pdfrwt>
<totfact> 0.10279703E+03</totfact>
</mgrwt>
</event>
<event>
 5    1  0.3282421E-002  0.1249973E+03  0.7818608E-02  0.1235074E+00
         -4   -1    0    0    0  501 -0.00000000000E+00  0.00000000000E+00  0.14183549602E+02  0.14240294215E+02  0.12700000000E+01 0.  1.
          4   -1    0    0  501    0  0.00000000000E+00 -0.00000000000E+00 -0.27478695851E+03  0.27478989331E+03  0.12700000000E+01 0.  1.
         25    2    1    2    0    0  0.00000000000E+00  0.00000000000E+00 -0.26060340891E+03  0.28903018753E+03  0.12499725024E+03 0.  0.
    9000005    1    3    3    0    0 -0.31480033592E+02 -0.53506905280E+02 -0.14683042485E+03  0.15941817679E+03  0.10000000000E+01 0.  0.
    9000005    1    3    3    0    0  0.31480033592E+02  0.53506905280E+02 -0.11377298406E+03  0.12961201074E+03  0.10000000000E+01 0.  0.
<mgrwt>
<rscale>  0 0.12499725E+03</rscale>
<asrwt>0</asrwt>
<pdfrwt beam="2">  1        4 0.42279503E-01 0.12499725E+03</pdfrwt>
<pdfrwt beam="1">  1       -4 0.21866755E-02 0.12499725E+03</pdfrwt>
<totfact> 0.77000508E+03</totfact>
</mgrwt>
</event>
<event>
 5    1  0.3282421E-002  0.1249949E+03  0.7818608E-02  0.1235077E+00
         -4   -1    0    0    0  501 -0.00000000000E+00  0.00000000000E+00  0.50150323327E+01  0.51733402458E+01  0.12700000000E+01 0. -1.
          4   -1    0    0  501    0  0.00000000000E+00 -0.00000000000E+00 -0.76658369766E+03  0.76658474967E+03  0.12700000000E+01 0. -1.
         25    2    1    2    0    0  0.00000000000E+00  0.00000000000E+00 -0.76156866533E+03  0.77175808991E+03  0.12499486923E+03 0.  0.
    9000005    1    3    3    0    0 -0.40049811950E+02  0.29386004335E+02 -0.61487199581E+03  0.61687607825E+03  0.10000000000E+01 0.  0.
    9000005    1    3    3    0    0  0.40049811950E+02 -0.29386004335E+02 -0.14669666952E+03  0.15488201166E+03  0.10000000000E+01 0.  0.
<mgrwt>
<rscale>  0 0.12499487E+03</rscale>
<asrwt>0</asrwt>
<pdfrwt beam="2">  1        4 0.11794812E+00 0.12499487E+03</pdfrwt>
<pdfrwt beam="1">  1       -4 0.78380250E-03 0.12499487E+03</pdfrwt>
<totfact> 0.39558885E+03</totfact>
</mgrwt>
</event>
<event>
 5    1  0.3282421E-002  0.1250025E+03  0.7818608E-02  0.1235065E+00
          4   -1    0    0  501    0  0.00000000000E+00  0.00000000000E+00  0.23537616338E+02  0.23571853616E+02  0.12700000000E+01 0. -1.
         -4   -1    0    0    0  501 -0.00000000000E+00 -0.00000000000E+00 -0.16580701097E+03  0.16581187469E+03  0.12700000000E+01 0. -1.
         25    2    1    2    0    0  0.00000000000E+00  0.00000000000E+00 -0.14226939463E+03  0.18938372830E+03  0.12500246356E+03 0.  0.
    9000005    1    3    3    0    0  0.55692009443E+02  0.13511532986E+02 -0.10889667066E+03  0.12305952348E+03  0.10000000000E+01 0.  0.
    9000005    1    3    3    0    0 -0.55692009443E+02 -0.13511532986E+02 -0.33372723973E+02  0.66324204818E+02  0.10000000000E+01 0.  0.
<mgrwt>
<rscale>  0 0.12500246E+03</rscale>
<asrwt>0</asrwt>
<pdfrwt beam="1">  1        4 0.36241796E-02 0.12500246E+03</pdfrwt>
<pdfrwt beam="2">  1       -4 0.25511778E-01 0.12500246E+03</pdfrwt>
<totfact> 0.91949580E+03</totfact>
</mgrwt>
</event>
<event>
 5    1  0.3282421E-002  0.1249977E+03  0.7818608E-02  0.1235073E+00
         -4   -1    0    0    0  501 -0.00000000000E+00  0.00000000000E+00  0.47704691967E+01  0.49366260094E+01  0.12700000000E+01 0.  1.
          4   -1    0    0  501    0  0.00000000000E+00 -0.00000000000E+00 -0.80462797388E+03  0.80462897614E+03  0.12700000000E+01 0.  1.
         25    2    1    2    0    0  0.00000000000E+00  0.00000000000E+00 -0.79985750468E+03  0.80956560215E+03  0.12499774554E+03 0.  0.
    9000005    1    3    3    0    0  0.61044768557E+02 -0.10526793400E+02 -0.34658703188E+03  0.35208074047E+03  0.10000000000E+01 0.  0.
    9000005    1    3    3    0    0 -0.61044768557E+02  0.10526793400E+02 -0.45327047280E+03  0.45748486168E+03  0.10000000000E+01 0.  0.
<mgrwt>
<rscale>  0 0.12499775E+03</rscale>
<asrwt>0</asrwt>
<pdfrwt beam="2">  1        4 0.12380167E+00 0.12499775E+03</pdfrwt>
<pdfrwt beam="1">  1       -4 0.74677737E-03 0.12499775E+03</pdfrwt>
<totfact> 0.37843137E+03</totfact>
</mgrwt>
</event>
<event>
 5    1  0.3282421E-002  0.1250029E+03  0.7818608E-02  0.1235065E+00
         -4   -1    0    0    0  501 -0.00000000000E+00  0.00000000000E+00  0.12664896918E+04  0.12664903286E+04  0.12700000000E+01 0.  1.
          4   -1    0    0  501    0  0.00000000000E+00 -0.00000000000E+00 -0.29530649318E+01  0.32145750094E+01  0.12700000000E+01 0.  1.
         25    2    1    2    0    0  0.00000000000E+00  0.00000000000E+00  0.12635366269E+04  0.12697049036E+04  0.12500293881E+03 0.  0.
    9000005    1    3    3    0    0 -0.18246289520E+02 -0.53763034331E+02  0.36649817294E+03  0.37087100414E+03  0.10000000000E+01 0.  0.
    9000005    1    3    3    0    0  0.18246289520E+02  0.53763034331E+02  0.89703845393E+03  0.89883389943E+03  0.10000000000E+01 0.  0.
<mgrwt>
<rscale>  0 0.12500294E+03</rscale>
<asrwt>0</asrwt>
<pdfrwt beam="2">  1        4 0.47448202E-03 0.12500294E+03</pdfrwt>
<pdfrwt beam="1">  1       -4 0.19486506E+00 0.12500294E+03</pdfrwt>
<totfact> 0.22953495E+03</totfact>
</mgrwt>
</event>
<event>
 5    1  0.3282421E-002  0.1250013E+03  0.7818608E-02  0.1235067E+00
          4   -1    0    0  501    0  0.00000000000E+00  0.00000000000E+00  0.26328563723E+03  0.26328870023E+03  0.12700000000E+01 0. -1.
         -4   -1    0    0    0  501 -0.00000000000E+00 -0.00000000000E+00 -0.14806527904E+02  0.14860893936E+02  0.12700000000E+01 0. -1.
         25    2    1    2    0    0  0.00000000000E+00  0.00000000000E+00  0.24847910932E+03  0.27814959417E+03  0.12500131586E+03 0.  0.
    9000005    1    3    3    0    0  0.25449328383E+02 -0.55430168673E+02  0.93960813481E+02  0.11202591836E+03  0.10000000000E+01 0.  0.
    9000005    1    3    3    0    0 -0.25449328383E+02  0.55430168673E+02  0.15451829584E+03  0.16612367581E+03  0.10000000000E+01 0.  0.
<mgrwt>
<rscale>  0 0.12500132E+03</rscale>
<asrwt>0</asrwt>
<pdfrwt beam="1">  1        4 0.40509896E-01 0.12500132E+03</pdfrwt>
<pdfrwt beam="2">  1       -4 0.22823452E-02 0.12500132E+03</pdfrwt>
<totfact> 0.78421805E+03</totfact>
</mgrwt>
</event>
<event>
 5    1  0.3282421E-002  0.1249920E+03  0.7818608E-02  0.1235082E+00
          4   -1    0    0  501    0  0.00000000000E+00  0.00000000000E+00  0.72384432392E+03  0.72384543804E+03  0.12700000000E+01 0.  1.
         -4   -1    0    0    0  501 -0.00000000000E+00 -0.00000000000E+00 -0.53199814767E+01  0.54694700760E+01  0.12700000000E+01 0.  1.
         25    2    1    2    0    0  0.00000000000E+00  0.00000000000E+00  0.71852434244E+03  0.72931490811E+03  0.12499201781E+03 0.  0.
    9000005    1    3    3    0    0  0.31800751079E+02  0.52842915153E+02  0.41792813621E+03  0.42245542781E+03  0.10000000000E+01 0.  0.
    9000005    1    3    3    0    0 -0.31800751079E+02 -0.52842915153E+02  0.30059620623E+03  0.30685948030E+03  0.10000000000E+01 0.  0.
<mgrwt>
<rscale>  0 0.12499202E+03</rscale>
<asrwt>0</asrwt>
<pdfrwt beam="1">  1        4 0.11137221E+00 0.12499202E+03</pdfrwt>
<pdfrwt beam="2">  1       -4 0.83004381E-03 0.12499202E+03</pdfrwt>
<totfact> 0.41590852E+03</totfact>
</mgrwt>
</event>
<event>
 5    1  0.3282421E-002  0.1249988E+03  0.7818608E-02  0.1235071E+00
         -4   -1    0    0    0  501 -0.00000000000E+00  0.00000000000E+00  0.12950565487E+02  0.13012687902E+02  0.12700000000E+01 0.  1.
          4   -1    0    0  501    0  0.00000000000E+00 -0.00000000000E+00 -0.30083703936E+03  0.30083972003E+03  0.12700000000E+01 0.  1.
         25    2    1    2    0    0  0.00000000000E+00  0.00000000000E+00 -0.28788647387E+03  0.31385240793E+03  0.12499884851E+03 0.  0.
    9000005    1    3    3    0    0 -0.41188730563E+02  0.83182981632E+01 -0.27805649750E+02  0.50397021418E+02  0.10000000000E+01 0.  0.
    9000005    1    3    3    0    0  0.41188730563E+02 -0.83182981632E+01 -0.26008082412E+03  0.26345538652E+03  0.10000000000E+01 0.  0.
<mgrwt>
<rscale>  0 0.12499885E+03</rscale>
<asrwt>0</asrwt>
<pdfrwt beam="2">  1        4 0.46287601E-01 0.12499885E+03</pdfrwt>
<pdfrwt beam="1">  1       -4 0.19973798E-02 0.12499885E+03</pdfrwt>
<totfact> 0.73895204E+03</totfact>
</mgrwt>
</event>
<event>
 5    1  0.3282421E-002  0.1250001E+03  0.7818608E-02  0.1235069E+00
          4   -1    0    0  501    0  0.00000000000E+00  0.00000000000E+00  0.31906957237E+03  0.31907209987E+03  0.12700000000E+01 0.  1.
         -4   -1    0    0    0  501 -0.00000000000E+00 -0.00000000000E+00 -0.12207122753E+02  0.12273008837E+02  0.12700000000E+01 0.  1.
         25    2    1    2    0    0  0.00000000000E+00  0.00000000000E+00  0.30686244962E+03  0.33134510870E+03  0.12500007230E+03 0.  0.
    9000005    1    3    3    0    0 -0.46690557182E+02  0.30819455068E+02  0.79617806107E+02  0.97313113145E+02  0.10000000000E+01 0.  0.
    9000005    1    3    3    0    0  0.46690557182E+02 -0.30819455068E+02  0.22724464351E+03  0.23403199556E+03  0.10000000000E+01 0.  0.
<mgrwt>
<rscale>  0 0.12500007E+03</rscale>
<asrwt>0</asrwt>
<pdfrwt beam="1">  1        4 0.49092876E-01 0.12500007E+03</pdfrwt>
<pdfrwt beam="2">  1       -4 0.18832820E-02 0.12500007E+03</pdfrwt>
<totfact> 0.71826680E+03</totfact>
</mgrwt>
</event>
<event>
 5    1  0.3282421E-002  0.1249901E+03  0.7818608E-02  0.1235085E+00
          4   -1    0    0  501    0  0.00000000000E+00  0.00000000000E+00  0.12683545614E+02  0.12746969418E+02  0.12700000000E+01 0.  1.
         -4   -1    0    0    0  501 -0.00000000000E+00 -0.00000000000E+00 -0.30709618056E+03  0.30709880660E+03  0.12700000000E+01 0.  1.
         25    2    1    2    0    0  0.00000000000E+00  0.00000000000E+00 -0.29441263495E+03  0.31984577602E+03  0.12499008289E+03 0.  0.
    9000005    1    3    3    0    0 -0.30049950732E+02  0.46724988138E+02 -0.73999840751E+02  0.92537562571E+02  0.10000000000E+01 0.  0.
    9000005    1    3    3    0    0  0.30049950732E+02 -0.46724988138E+02 -0.22041279420E+03  0.22730821345E+03  0.10000000000E+01 0.  0.
<mgrwt>
<rscale>  0 0.12499008E+03</rscale>
<asrwt>0</asrwt>
<pdfrwt beam="1">  1        4 0.19563957E-02 0.12499008E+03</pdfrwt>
<pdfrwt beam="2">  1       -4 0.47250641E-01 0.12499008E+03</pdfrwt>
<totfact> 0.73190563E+03</totfact>
</mgrwt>
</event>
<event>
 5    1  0.3282421E-002  0.1249987E+03  0.7818608E-02  0.1235071E+00
         -4   -1    0    0    0  501 -0.00000000000E+00  0.00000000000E+00  0.76338398379E+02  0.76348961794E+02  0.12700000000E+01 0. -1.
          4   -1    0    0  501    0  0.00000000000E+00 -0.00000000000E+00 -0.51147170242E+02  0.51162935058E+02  0.12700000000E+01 0. -1.
         25    2    1    2    0    0  0.00000000000E+00  0.00000000000E+00  0.25191228137E+02  0.12751189685E+03  0.12499874345E+03 0.  0.
    9000005    1    3    3    0    0 -0.19211916308E+02 -0.17624029871E+01  0.73229428584E+02  0.75734754263E+02  0.10000000000E+01 0.  0.
    9000005    1    3    3    0    0  0.19211916308E+02  0.17624029871E+01 -0.48038200447E+02  0.51777142589E+02  0.10000000000E+01 0.  0.
<mgrwt>
<rscale>  0 0.12499874E+03</rscale>
<asrwt>0</asrwt>
<pdfrwt beam="2">  1        4 0.78708207E-02 0.12499874E+03</pdfrwt>
<pdfrwt beam="1">  1       -4 0.11746394E-01 0.12499874E+03</pdfrwt>
<totfact> 0.10398338E+04</totfact>
</mgrwt>
</event>
<event>
 5    1  0.3282421E-002  0.1250032E+03  0.7818608E-02  0.1235064E+00
          4   -1    0    0  501    0  0.00000000000E+00  0.00000000000E+00  0.70402783170E+02  0.70414237041E+02  0.12700000000E+01 0. -1.
         -4   -1    0    0    0  501 -0.00000000000E+00 -0.00000000000E+00 -0.55463873731E+02  0.55478411920E+02  0.12700000000E+01 0. -1.
         25    2    1    2    0    0  0.00000000000E+00  0.00000000000E+00  0.14938909439E+02  0.12589264896E+03  0.12500315215E+03 0.  0.
    9000005    1    3    3    0    0  0.33239661904E+00  0.30549763849E+02  0.62373880013E+02  0.69461496288E+02  0.10000000000E+01 0.  0.
    9000005    1    3    3    0    0 -0.33239661904E+00 -0.30549763849E+02 -0.47434970573E+02  0.56431152673E+02  0.10000000000E+01 0.  0.
<mgrwt>
<rscale>  0 0.12500315E+03</rscale>
<asrwt>0</asrwt>
<pdfrwt beam="1">  1        4 0.10833197E-01 0.12500315E+03</pdfrwt>
<pdfrwt beam="2">  1       -4 0.85349030E-02 0.12500315E+03</pdfrwt>
<totfact> 0.10432569E+04</totfact>
</mgrwt>
</event>
<event>
 5    1  0.3282421E-002  0.1250029E+03  0.7818608E-02  0.1235065E+00
         -4   -1    0    0    0  501 -0.00000000000E+00  0.00000000000E+00  0.81670097204E+02  0.81679971091E+02  0.12700000000E+01 0.  1.
          4   -1    0    0  501    0  0.00000000000E+00 -0.00000000000E+00 -0.47810648983E+02  0.47827513589E+02  0.12700000000E+01 0.  1.
         25    2    1    2    0    0  0.00000000000E+00  0.00000000000E+00  0.33859448221E+02  0.12950748468E+03  0.12500290538E+03 0.  0.
    9000005    1    3    3    0    0  0.55871193190E+02  0.25267691221E+02  0.29421804529E+02  0.68019769405E+02  0.10000000000E+01 0.  0.
    9000005    1    3    3    0    0 -0.55871193190E+02 -0.25267691221E+02  0.44376436927E+01  0.61487715275E+02  0.10000000000E+01 0.  0.
<mgrwt>
<rscale>  0 0.12500291E+03</rscale>
<asrwt>0</asrwt>
<pdfrwt beam="2">  1        4 0.73575413E-02 0.12500291E+03</pdfrwt>
<pdfrwt beam="1">  1       -4 0.12566687E-01 0.12500291E+03</pdfrwt>
<totfact> 0.10354376E+04</totfact>
</mgrwt>
</event>
<event>
 5    1  0.3282421E-002  0.1250101E+03  0.7818608E-02  0.1235053E+00
         -4   -1    0    0    0  501 -0.00000000000E+00  0.00000000000E+00  0.76612143470E+01  0.77657649507E+01  0.12700000000E+01 0. -1.
          4   -1    0    0  501    0  0.00000000000E+00 -0.00000000000E+00 -0.50639454467E+03  0.50639613720E+03  0.12700000000E+01 0. -1.
         25    2    1    2    0    0  0.00000000000E+00  0.00000000000E+00 -0.49873333032E+03  0.51416190215E+03  0.12501010699E+03 0.  0.
    9000005    1    3    3    0    0  0.37517738861E+01  0.62264039034E+02 -0.23343969958E+03  0.24163190953E+03  0.10000000000E+01 0.  0.
    9000005    1    3    3    0    0 -0.37517738861E+01 -0.62264039034E+02 -0.26529363075E+03  0.27252999262E+03  0.10000000000E+01 0.  0.
<mgrwt>
<rscale>  0 0.12501011E+03</rscale>
<asrwt>0</asrwt>
<pdfrwt beam="2">  1        4 0.77914992E-01 0.12501011E+03</pdfrwt>
<pdfrwt beam="1">  1       -4 0.11868136E-02 0.12501011E+03</pdfrwt>
<totfact> 0.54769923E+03</totfact>
</mgrwt>
</event>
<event>
 5    1  0.3282421E-002  0.1250019E+03  0.7818608E-02  0.1235066E+00
         -4   -1    0    0    0  501 -0.00000000000E+00  0.00000000000E+00  0.62616123183E+02  0.62629001129E+02  0.12700000000E+01 0.  1.
          4   -1    0    0  501    0  0.00000000000E+00 -0.00000000000E+00 -0.62360245940E+02  0.62373176716E+02  0.12700000000E+01 0.  1.
         25    2    1    2    0    0  0.00000000000E+00  0.00000000000E+00  0.25587724280E+00  0.12500217785E+03  0.12500191596E+03 0.  0.
    9000005    1    3    3    0    0 -0.26408176300E+02  0.51085688034E+02 -0.24330862608E+02  0.62451022190E+02  0.10000000000E+01 0.  0.
    9000005    1    3    3    0    0  0.26408176300E+02 -0.51085688034E+02  0.24586739850E+02  0.62551155655E+02  0.10000000000E+01 0.  0.
<mgrwt>
<rscale>  0 0.12500192E+03</rscale>
<asrwt>0</asrwt>
<pdfrwt beam="2">  1        4 0.95958693E-02 0.12500192E+03</pdfrwt>
<pdfrwt beam="1">  1       -4 0.96352349E-02 0.12500192E+03</pdfrwt>
<totfact> 0.10452363E+04</totfact>
</mgrwt>
</event>
<event>
 5    1  0.3282421E-002  0.1250029E+03  0.7818608E-02  0.1235065E+00
          4   -1    0    0  501    0  0.00000000000E+00  0.00000000000E+00  0.36721966343E+02  0.36743920750E+02  0.12700000000E+01 0.  1.
         -4   -1    0    0    0  501 -0.00000000000E+00 -0.00000000000E+00 -0.10632112673E+03  0.10632871150E+03  0.12700000000E+01 0.  1.
         25    2    1    2    0    0  0.00000000000E+00  0.00000000000E+00 -0.69599160389E+02  0.14307263225E+03  0.12500293986E+03 0.  0.
    9000005    1    3    3    0    0 -0.58309744483E+02  0.14579362191E+02 -0.54386163647E+02  0.81064412043E+02  0.10000000000E+01 0.  0.
    9000005    1    3    3    0    0  0.58309744483E+02 -0.14579362191E+02 -0.15212996742E+02  0.62008220209E+02  0.10000000000E+01 0.  0.
<mgrwt>
<rscale>  0 0.12500294E+03</rscale>
<asrwt>0</asrwt>
<pdfrwt beam="1">  1        4 0.56518056E-02 0.12500294E+03</pdfrwt>
<pdfrwt beam="2">  1       -4 0.16359369E-01 0.12500294E+03</pdfrwt>
<totfact> 0.10069629E+04</totfact>
</mgrwt>
</event>
<event>
 5    1  0.3282421E-002  0.1249959E+03  0.7818608E-02  0.1235076E+00
         -4   -1    0    0    0  501 -0.00000000000E+00  0.00000000000E+00  0.79890340520E+02  0.79900434344E+02  0.12700000000E+01 0.  1.
          4   -1    0    0  501    0  0.00000000000E+00 -0.00000000000E+00 -0.48870522824E+02  0.48887021806E+02  0.12700000000E+01 0.  1.
         25    2    1    2    0    0  0.00000000000E+00  0.00000000000E+00  0.31019817696E+02  0.12878745615E+03  0.12499591902E+03 0.  0.
    9000005    1    3    3    0    0  0.50336790180E+02  0.24005294119E+02  0.44559979135E+02  0.71390744021E+02  0.10000000000E+01 0.  0.
    9000005    1    3    3    0    0 -0.50336790180E+02 -0.24005294119E+02 -0.13540161439E+02  0.57396712129E+02  0.10000000000E+01 0.  0.
<mgrwt>
<rscale>  0 0.12499592E+03</rscale>
<asrwt>0</asrwt>
<pdfrwt beam="2">  1        4 0.75205877E-02 0.12499592E+03</pdfrwt>
<pdfrwt beam="1">  1       -4 0.12292867E-01 0.12499592E+03</pdfrwt>
<totfact> 0.10371472E+04</totfact>
</mgrwt>
</event>
<event>
 4    1  0.3282421E-002  0.1252498E+03  0.7818608E-02  0.1234679E+00
          4   -1    0    0  501    0  0.00000000000E+00  0.00000000000E+00  0.45764234363E+02  0.45781852811E+02  0.12700000000E+01 0.  1.
         -4   -1    0    0    0  501 -0.00000000000E+00 -0.00000000000E+00 -0.85658633142E+02  0.85668047321E+02  0.12700000000E+01 0.  1.
    9000005    1    1    2    0    0 -0.52105296047E+02  0.33044974019E+02 -0.87442346978E+01  0.62324905331E+02  0.10000000000E+01 0.  0.
    9000005    1    1    2    0    0  0.52105296047E+02 -0.33044974019E+02 -0.31150164081E+02  0.69124994802E+02  0.10000000000E+01 0.  0.
<mgrwt>
<rscale>  0 0.12524980E+03</rscale>
<asrwt>0</asrwt>
<pdfrwt beam="1">  1        4 0.70427309E-02 0.12524980E+03</pdfrwt>
<pdfrwt beam="2">  1       -4 0.13180331E-01 0.12524980E+03</pdfrwt>
<totfact> 0.10255547E+04</totfact>
</mgrwt>
</event>
<event>
 5    1  0.3282421E-002  0.1250033E+03  0.7818608E-02  0.1235064E+00
          4   -1    0    0  501    0  0.00000000000E+00  0.00000000000E+00  0.19827806036E+03  0.19828212759E+03  0.12700000000E+01 0.  1.
         -4   -1    0    0    0  501 -0.00000000000E+00 -0.00000000000E+00 -0.19677160327E+02  0.19718101799E+02  0.12700000000E+01 0.  1.
         25    2    1    2    0    0  0.00000000000E+00  0.00000000000E+00  0.17860090003E+03  0.21800022939E+03  0.12500327403E+03 0.  0.
    9000005    1    3    3    0    0 -0.58811086885E+02 -0.25671883236E+01  0.52713919305E+02  0.79025892498E+02  0.10000000000E+01 0.  0.
    9000005    1    3    3    0    0  0.58811086885E+02  0.25671883236E+01  0.12588698073E+03  0.13897433689E+03  0.10000000000E+01 0.  0.
<mgrwt>
<rscale>  0 0.12500327E+03</rscale>
<asrwt>0</asrwt>
<pdfrwt beam="1">  1        4 0.30507779E-01 0.12500327E+03</pdfrwt>
<pdfrwt beam="2">  1       -4 0.30307177E-02 0.12500327E+03</pdfrwt>
<totfact> 0.87179403E+03</totfact>
</mgrwt>
</event>
<event>
 5    1  0.3282421E-002  0.1250030E+03  0.7818608E-02  0.1235065E+00
         -4   -1    0    0    0  501 -0.00000000000E+00  0.00000000000E+00  0.95965250685E+03  0.95965334721E+03  0.12700000000E+01 0. -1.
          4   -1    0    0  501    0  0.00000000000E+00 -0.00000000000E+00 -0.39707613488E+01  0.41689142099E+01  0.12700000000E+01 0. -1.
         25    2    1    2    0    0  0.00000000000E+00  0.00000000000E+00  0.95568174551E+03  0.96382226142E+03  0.12500301163E+03 0.  0.
    9000005    1    3    3    0    0 -0.32659805644E+02 -0.52922915425E+02  0.43034814349E+03  0.43481952864E+03  0.10000000000E+01 0.  0.
    9000005    1    3    3    0    0  0.32659805644E+02  0.52922915425E+02  0.52533360201E+03  0.52900273278E+03  0.10000000000E+01 0.  0.
<mgrwt>
<rscale>  0 0.12500301E+03</rscale>
<asrwt>0</asrwt>
<pdfrwt beam="2">  1        4 0.62619338E-03 0.12500301E+03</pdfrwt>
<pdfrwt beam="1">  1       -4 0.14765419E+00 0.12500301E+03</pdfrwt>
<totfact> 0.31828153E+03</totfact>
</mgrwt>
</event>
<event>
 5    1  0.3282421E-002  0.1250010E+03  0.7818608E-02  0.1235068E+00
          4   -1    0    0  501    0  0.00000000000E+00  0.00000000000E+00  0.23522604185E+02  0.23556863282E+02  0.12700000000E+01 0. -1.
         -4   -1    0    0    0  501 -0.00000000000E+00 -0.00000000000E+00 -0.16590872914E+03  0.16591358987E+03  0.12700000000E+01 0. -1.
         25    2    1    2    0    0  0.00000000000E+00  0.00000000000E+00 -0.14238612495E+03  0.18947045316E+03  0.12500097615E+03 0.  0.
    9000005    1    3    3    0    0 -0.45052055856E+00 -0.34952464938E+02 -0.14971183226E+03  0.15374170057E+03  0.10000000000E+01 0.  0.
    9000005    1    3    3    0    0  0.45052055856E+00  0.34952464938E+02  0.73257073067E+01  0.35728752589E+02  0.10000000000E+01 0.  0.
<mgrwt>
<rscale>  0 0.12500098E+03</rscale>
<asrwt>0</asrwt>
<pdfrwt beam="1">  1        4 0.36218715E-02 0.12500098E+03</pdfrwt>
<pdfrwt beam="2">  1       -4 0.25527428E-01 0.12500098E+03</pdfrwt>
<totfact> 0.91937526E+03</totfact>
</mgrwt>
</event>
<event>
 5    1  0.3282421E-002  0.1249979E+03  0.7818608E-02  0.1235072E+00
         -4   -1    0    0    0  501 -0.00000000000E+00  0.00000000000E+00  0.44771657603E+02  0.44789666493E+02  0.12700000000E+01 0.  1.
          4   -1    0    0  501    0  0.00000000000E+00 -0.00000000000E+00 -0.87205227990E+02  0.87214475225E+02  0.12700000000E+01 0.  1.
         25    2    1    2    0    0  0.00000000000E+00  0.00000000000E+00 -0.42433570386E+02  0.13200414172E+03  0.12499794212E+03 0.  0.
    9000005    1    3    3    0    0  0.62184482855E+02 -0.17085253492E+01 -0.27490508998E+02  0.68018799252E+02  0.10000000000E+01 0.  0.
    9000005    1    3    3    0    0 -0.62184482855E+02  0.17085253492E+01 -0.14943061389E+02  0.63985342466E+02  0.10000000000E+01 0.  0.
<mgrwt>
<rscale>  0 0.12499794E+03</rscale>
<asrwt>0</asrwt>
<pdfrwt beam="2">  1        4 0.13418285E-01 0.12499794E+03</pdfrwt>
<pdfrwt beam="1">  1       -4 0.68900440E-02 0.12499794E+03</pdfrwt>
<totfact> 0.10302088E+04</totfact>
</mgrwt>
</event>
<event>
 5    1  0.3282421E-002  0.1250032E+03  0.7818608E-02  0.1235064E+00
          4   -1    0    0  501    0  0.00000000000E+00  0.00000000000E+00  0.11612478995E+04  0.11612485940E+04  0.12700000000E+01 0. -1.
         -4   -1    0    0    0  501 -0.00000000000E+00 -0.00000000000E+00 -0.32434236025E+01  0.34832020707E+01  0.12700000000E+01 0. -1.
         25    2    1    2    0    0  0.00000000000E+00  0.00000000000E+00  0.11580044759E+04  0.11647317960E+04  0.12500316198E+03 0.  0.
    9000005    1    3    3    0    0  0.34114716230E+02 -0.40403660998E+02  0.88931922121E+03  0.89089053587E+03  0.10000000000E+01 0.  0.
    9000005    1    3    3    0    0 -0.34114716230E+02  0.40403660998E+02  0.26868525468E+03  0.27384126016E+03  0.10000000000E+01 0.  0.
<mgrwt>
<rscale>  0 0.12500316E+03</rscale>
<asrwt>0</asrwt>
<pdfrwt beam="1">  1        4 0.17867211E+00 0.12500316E+03</pdfrwt>
<pdfrwt beam="2">  1       -4 0.51748591E-03 0.12500316E+03</pdfrwt>
<totfact> 0.25653213E+03</totfact>
</mgrwt>
</event>
<event>
 5    1  0.3282421E-002  0.1249990E+03  0.7818608E-02  0.1235071E+00
          4   -1    0    0  501    0  0.00000000000E+00  0.00000000000E+00  0.47773761629E+01  0.49433008205E+01  0.12700000000E+01 0. -1.
         -4   -1    0    0    0  501 -0.00000000000E+00 -0.00000000000E+00 -0.80352007159E+03  0.80352107523E+03  0.12700000000E+01 0. -1.
         25    2    1    2    0    0  0.00000000000E+00  0.00000000000E+00 -0.79874269543E+03  0.80846437606E+03  0.12499901541E+03 0.  0.
    9000005    1    3    3    0    0 -0.42635899375E+02  0.36996621139E+02 -0.22598954491E+03  0.23293527921E+03  0.10000000000E+01 0.  0.
    9000005    1    3    3    0    0  0.42635899375E+02 -0.36996621139E+02 -0.57275315052E+03  0.57552909685E+03  0.10000000000E+01 0.  0.
<mgrwt>
<rscale>  0 0.12499902E+03</rscale>
<asrwt>0</asrwt>
<pdfrwt beam="1">  1        4 0.74782223E-03 0.12499902E+03</pdfrwt>
<pdfrwt beam="2">  1       -4 0.12363121E+00 0.12499902E+03</pdfrwt>
<totfact> 0.37890480E+03</totfact>
</mgrwt>
</event>
<event>
 5    1  0.3282421E-002  0.1250016E+03  0.7818608E-02  0.1235067E+00
          4   -1    0    0  501    0  0.00000000000E+00  0.00000000000E+00  0.58085339896E+01  0.59457520221E+01  0.12700000000E+01 0. -1.
         -4   -1    0    0    0  501 -0.00000000000E+00 -0.00000000000E+00 -0.66452991938E+03  0.66453113295E+03  0.12700000000E+01 0. -1.
         25    2    1    2    0    0  0.00000000000E+00  0.00000000000E+00 -0.65872138539E+03  0.67047688497E+03  0.12500155880E+03 0.  0.
    9000005    1    3    3    0    0  0.17585949678E+02  0.36269439139E+02 -0.73210991461E+02  0.83579824792E+02  0.10000000000E+01 0.  0.
    9000005    1    3    3    0    0 -0.17585949678E+02 -0.36269439139E+02 -0.58551039393E+03  0.58689706018E+03  0.10000000000E+01 0.  0.
<mgrwt>
<rscale>  0 0.12500156E+03</rscale>
<asrwt>0</asrwt>
<pdfrwt beam="1">  1        4 0.90426972E-03 0.12500156E+03</pdfrwt>
<pdfrwt beam="2">  1       -4 0.10224596E+00 0.12500156E+03</pdfrwt>
<totfact> 0.44690150E+03</totfact>
</mgrwt>
</event>
<event>
 5    1  0.3282421E-002  0.1250007E+03  0.7818608E-02  0.1235068E+00
          4   -1    0    0  501    0  0.00000000000E+00  0.00000000000E+00  0.10749981251E+02  0.10824740039E+02  0.12700000000E+01 0. -1.
         -4   -1    0    0    0  501 -0.00000000000E+00 -0.00000000000E+00 -0.36204194146E+03  0.36204416896E+03  0.12700000000E+01 0. -1.
         25    2    1    2    0    0  0.00000000000E+00  0.00000000000E+00 -0.35129196021E+03  0.37286890899E+03  0.12500072795E+03 0.  0.
    9000005    1    3    3    0    0 -0.34828856343E+02  0.49869094172E+02 -0.13290357558E+03  0.14616544116E+03  0.10000000000E+01 0.  0.
    9000005    1    3    3    0    0  0.34828856343E+02 -0.49869094172E+02 -0.21838838463E+03  0.22670346784E+03  0.10000000000E+01 0.  0.
<mgrwt>
<rscale>  0 0.12500073E+03</rscale>
<asrwt>0</asrwt>
<pdfrwt beam="1">  1        4 0.16597656E-02 0.12500073E+03</pdfrwt>
<pdfrwt beam="2">  1       -4 0.55704673E-01 0.12500073E+03</pdfrwt>
<totfact> 0.67278781E+03</totfact>
</mgrwt>
</event>
<event>
 5    1  0.3282421E-002  0.1250004E+03  0.7818608E-02  0.1235069E+00
          4   -1    0    0  501    0  0.00000000000E+00  0.00000000000E+00  0.19890076619E+02  0.19930580722E+02  0.12700000000E+01 0. -1.
         -4   -1    0    0    0  501 -0.00000000000E+00 -0.00000000000E+00 -0.19615097697E+03  0.19615508830E+03  0.12700000000E+01 0. -1.
         25    2    1    2    0    0  0.00000000000E+00  0.00000000000E+00 -0.17626090035E+03  0.21608566902E+03  0.12500044546E+03 0.  0.
    9000005    1    3    3    0    0 -0.50927750317E+02 -0.35341023170E+02 -0.74447195965E+02  0.96881415442E+02  0.10000000000E+01 0.  0.
    9000005    1    3    3    0    0  0.50927750317E+02  0.35341023170E+02 -0.10181370438E+03  0.11920425358E+03  0.10000000000E+01 0.  0.
<mgrwt>
<rscale>  0 0.12500045E+03</rscale>
<asrwt>0</asrwt>
<pdfrwt beam="1">  1        4 0.30634439E-02 0.12500045E+03</pdfrwt>
<pdfrwt beam="2">  1       -4 0.30180504E-01 0.12500045E+03</pdfrwt>
<totfact> 0.87490686E+03</totfact>
</mgrwt>
</event>
<event>
 5    1  0.3282421E-002  0.1250030E+03  0.7818608E-02  0.1235065E+00
         -4   -1    0    0    0  501 -0.00000000000E+00  0.00000000000E+00  0.30369868117E+03  0.30370133658E+03  0.12700000000E+01 0.  1.
          4   -1    0    0  501    0  0.00000000000E+00 -0.00000000000E+00 -0.12828803798E+02  0.12891512979E+02  0.12700000000E+01 0.  1.
         25    2    1    2    0    0  0.00000000000E+00  0.00000000000E+00  0.29086987737E+03  0.31659284956E+03  0.12500298730E+03 0.  0.
    9000005    1    3    3    0    0  0.23670413319E+02  0.54601383207E+02  0.19374462933E+03  0.20268098310E+03  0.10000000000E+01 0.  0.
    9000005    1    3    3    0    0 -0.23670413319E+02 -0.54601383207E+02  0.97125248039E+02  0.11391186646E+03  0.10000000000E+01 0.  0.
<mgrwt>
<rscale>  0 0.12500299E+03</rscale>
<asrwt>0</asrwt>
<pdfrwt beam="2">  1        4 0.19786903E-02 0.12500299E+03</pdfrwt>
<pdfrwt beam="1">  1       -4 0.46727898E-01 0.12500299E+03</pdfrwt>
<totfact> 0.73558330E+03</totfact>
</mgrwt>
</event>
<event>
 5    1  0.3282421E-002  0.1249972E+03  0.7818608E-02  0.1235074E+00
         -4   -1    0    0    0  501 -0.00000000000E+00  0.00000000000E+00  0.89209939475E+03  0.89210029874E+03  0.12700000000E+01 0. -1.
          4   -1    0    0  501    0  0.00000000000E+00 -0.00000000000E+00 -0.42855018483E+01  0.44697232679E+01  0.12700000000E+01 0. -1.
         25    2    1    2    0    0  0.00000000000E+00  0.00000000000E+00  0.88781389291E+03  0.89657002201E+03  0.12499718371E+03 0.  0.
    9000005    1    3    3    0    0  0.60405186077E+02 -0.73782222286E+01  0.54581244688E+03  0.54919527660E+03  0.10000000000E+01 0.  0.
    9000005    1    3    3    0    0 -0.60405186077E+02  0.73782222286E+01  0.34200144603E+03  0.34737474541E+03  0.10000000000E+01 0.  0.
<mgrwt>
<rscale>  0 0.12499718E+03</rscale>
<asrwt>0</asrwt>
<pdfrwt beam="2">  1        4 0.67354865E-03 0.12499718E+03</pdfrwt>
<pdfrwt beam="1">  1       -4 0.13726025E+00 0.12499718E+03</pdfrwt>
<totfact> 0.34293715E+03</totfact>
</mgrwt>
</event>
<event>
 5    1  0.3282421E-002  0.1250020E+03  0.7818608E-02  0.1235066E+00
          4   -1    0    0  501    0  0.00000000000E+00  0.00000000000E+00  0.31191779767E+02  0.31217623629E+02  0.12700000000E+01 0. -1.
         -4   -1    0    0    0  501 -0.00000000000E+00 -0.00000000000E+00 -0.12515642804E+03  0.12516287141E+03  0.12700000000E+01 0. -1.
         25    2    1    2    0    0  0.00000000000E+00  0.00000000000E+00 -0.93964648276E+02  0.15638049504E+03  0.12500201640E+03 0.  0.
    9000005    1    3    3    0    0  0.37409722998E+02 -0.46895682270E+02 -0.25073913801E+02  0.65026098942E+02  0.10000000000E+01 0.  0.
    9000005    1    3    3    0    0 -0.37409722998E+02  0.46895682270E+02 -0.68890734475E+02  0.91354396100E+02  0.10000000000E+01 0.  0.
<mgrwt>
<rscale>  0 0.12500202E+03</rscale>
<asrwt>0</asrwt>
<pdfrwt beam="1">  1        4 0.48012190E-02 0.12500202E+03</pdfrwt>
<pdfrwt beam="2">  1       -4 0.19257319E-01 0.12500202E+03</pdfrwt>
<totfact> 0.98040725E+03</totfact>
</mgrwt>
</event>
<event>
 5    1  0.3282421E-002  0.1250033E+03  0.7818608E-02  0.1235064E+00
          4   -1    0    0  501    0  0.00000000000E+00  0.00000000000E+00  0.40038544819E+01  0.42004464897E+01  0.12700000000E+01 0.  1.
         -4   -1    0    0    0  501 -0.00000000000E+00 -0.00000000000E+00 -0.95209834733E+03  0.95209919436E+03  0.12700000000E+01 0.  1.
         25    2    1    2    0    0  0.00000000000E+00  0.00000000000E+00 -0.94809449285E+03  0.95629964084E+03  0.12500334279E+03 0.  0.
    9000005    1    3    3    0    0 -0.25051503376E+02 -0.42352786218E+02 -0.76876564983E+03  0.77033951001E+03  0.10000000000E+01 0.  0.
    9000005    1    3    3    0    0  0.25051503376E+02  0.42352786218E+02 -0.17932884302E+03  0.18596013084E+03  0.10000000000E+01 0.  0.
<mgrwt>
<rscale>  0 0.12500334E+03</rscale>
<asrwt>0</asrwt>
<pdfrwt beam="1">  1        4 0.63116599E-03 0.12500334E+03</pdfrwt>
<pdfrwt beam="2">  1       -4 0.14649168E+00 0.12500334E+03</pdfrwt>
<totfact> 0.32091056E+03</totfact>
</mgrwt>
</event>
<event>
 5    1  0.3282421E-002  0.1249991E+03  0.7818608E-02  0.1235071E+00
          4   -1    0    0  501    0  0.00000000000E+00  0.00000000000E+00  0.24723818028E+02  0.24756414884E+02  0.12700000000E+01 0. -1.
         -4   -1    0    0    0  501 -0.00000000000E+00 -0.00000000000E+00 -0.15785385766E+03  0.15785896641E+03  0.12700000000E+01 0. -1.
         25    2    1    2    0    0  0.00000000000E+00  0.00000000000E+00 -0.13313003963E+03  0.18261538130E+03  0.12499908014E+03 0.  0.
    9000005    1    3    3    0    0 -0.47841291509E+02 -0.13427311023E+02 -0.11201398499E+02  0.50946571846E+02  0.10000000000E+01 0.  0.
    9000005    1    3    3    0    0  0.47841291509E+02  0.13427311023E+02 -0.12192864113E+03  0.13166880945E+03  0.10000000000E+01 0.  0.
<mgrwt>
<rscale>  0 0.12499908E+03</rscale>
<asrwt>0</asrwt>
<pdfrwt beam="1">  1        4 0.38065648E-02 0.12499908E+03</pdfrwt>
<pdfrwt beam="2">  1       -4 0.24288109E-01 0.12499908E+03</pdfrwt>
<totfact> 0.93150254E+03</totfact>
</mgrwt>
</event>
<event>
 5    1  0.3282421E-002  0.1250013E+03  0.7818608E-02  0.1235067E+00
          4   -1    0    0  501    0  0.00000000000E+00  0.00000000000E+00  0.47015739721E+03  0.47015911248E+03  0.12700000000E+01 0.  1.
         -4   -1    0    0    0  501 -0.00000000000E+00 -0.00000000000E+00 -0.82582847100E+01  0.83553675174E+01  0.12700000000E+01 0.  1.
         25    2    1    2    0    0  0.00000000000E+00  0.00000000000E+00  0.46189911250E+03  0.47851448000E+03  0.12500126976E+03 0.  0.
    9000005    1    3    3    0    0 -0.99097576905E+01  0.39224153620E+02  0.41327985435E+03  0.41525651776E+03  0.10000000000E+01 0.  0.
    9000005    1    3    3    0    0  0.99097576905E+01 -0.39224153620E+02  0.48619258148E+02  0.63257962246E+02  0.10000000000E+01 0.  0.
<mgrwt>
<rscale>  0 0.12500127E+03</rscale>
<asrwt>0</asrwt>
<pdfrwt beam="1">  1        4 0.72339512E-01 0.12500127E+03</pdfrwt>
<pdfrwt beam="2">  1       -4 0.12781051E-02 0.12500127E+03</pdfrwt>
<totfact> 0.57569171E+03</totfact>
</mgrwt>
</event>
<event>
 5    1  0.3282421E-002  0.1249979E+03  0.7818608E-02  0.1235073E+00
         -4   -1    0    0    0  501 -0.00000000000E+00  0.00000000000E+00  0.19150716801E+02  0.19192781299E+02  0.12700000000E+01 0.  1.
          4   -1    0    0  501    0  0.00000000000E+00 -0.00000000000E+00 -0.20369928088E+03  0.20370323987E+03  0.12700000000E+01 0.  1.
         25    2    1    2    0    0  0.00000000000E+00  0.00000000000E+00 -0.18454856408E+03  0.22289602116E+03  0.12499785497E+03 0.  0.
    9000005    1    3    3    0    0  0.51738617323E+00  0.52212291660E+02 -0.31052498838E+02  0.60758939860E+02  0.10000000000E+01 0.  0.
    9000005    1    3    3    0    0 -0.51738617323E+00 -0.52212291660E+02 -0.15349606524E+03  0.16213708130E+03  0.10000000000E+01 0.  0.
<mgrwt>
<rscale>  0 0.12499785E+03</rscale>
<asrwt>0</asrwt>
<pdfrwt beam="2">  1        4 0.31341890E-01 0.12499785E+03</pdfrwt>
<pdfrwt beam="1">  1       -4 0.29498045E-02 0.12499785E+03</pdfrwt>
<totfact> 0.86416296E+03</totfact>
</mgrwt>
</event>
<event>
 5    1  0.3282421E-002  0.1250037E+03  0.7818608E-02  0.1235063E+00
          4   -1    0    0  501    0  0.00000000000E+00  0.00000000000E+00  0.61614567827E+01  0.62909816154E+01  0.12700000000E+01 0. -1.
         -4   -1    0    0    0  501 -0.00000000000E+00 -0.00000000000E+00 -0.62729429942E+03  0.62729558502E+03  0.12700000000E+01 0. -1.
         25    2    1    2    0    0  0.00000000000E+00  0.00000000000E+00 -0.62113284264E+03  0.63358656664E+03  0.12500371681E+03 0.  0.
    9000005    1    3    3    0    0 -0.39480959090E+02 -0.39526592527E+02 -0.16861243939E+03  0.17762953686E+03  0.10000000000E+01 0.  0.
    9000005    1    3    3    0    0  0.39480959090E+02  0.39526592527E+02 -0.45252040325E+03  0.45595702978E+03  0.10000000000E+01 0.  0.
<mgrwt>
<rscale>  0 0.12500372E+03</rscale>
<asrwt>0</asrwt>
<pdfrwt beam="1">  1        4 0.95797926E-03 0.12500372E+03</pdfrwt>
<pdfrwt beam="2">  1       -4 0.96516828E-01 0.12500372E+03</pdfrwt>
<totfact> 0.46810124E+03</totfact>
</mgrwt>
</event>
<event>
 5    1  0.3282421E-002  0.1250006E+03  0.7818608E-02  0.1235068E+00
         -4   -1    0    0    0  501 -0.00000000000E+00  0.00000000000E+00  0.12758872353E+03  0.12759504407E+03  0.12700000000E+01 0.  1.
          4   -1    0    0  501    0  0.00000000000E+00 -0.00000000000E+00 -0.30595967754E+02  0.30622314458E+02  0.12700000000E+01 0.  1.
         25    2    1    2    0    0  0.00000000000E+00  0.00000000000E+00  0.96992755777E+02  0.15821735853E+03  0.12500055147E+03 0.  0.
    9000005    1    3    3    0    0 -0.16772975804E+02  0.47112718671E+02  0.95929190006E+02  0.10818664646E+03  0.10000000000E+01 0.  0.
    9000005    1    3    3    0    0  0.16772975804E+02 -0.47112718671E+02  0.10635657709E+01  0.50030712068E+02  0.10000000000E+01 0.  0.
<mgrwt>
<rscale>  0 0.12500055E+03</rscale>
<asrwt>0</asrwt>
<pdfrwt beam="2">  1        4 0.47095849E-02 0.12500055E+03</pdfrwt>
<pdfrwt beam="1">  1       -4 0.19631547E-01 0.12500055E+03</pdfrwt>
<totfact> 0.97686358E+03</totfact>
</mgrwt>
</event>
<event>
 5    1  0.3282421E-002  0.1249944E+03  0.7818608E-02  0.1235078E+00
         -4   -1    0    0    0  501 -0.00000000000E+00  0.00000000000E+00  0.10871814344E+02  0.10945741050E+02  0.12700000000E+01 0. -1.
          4   -1    0    0  501    0  0.00000000000E+00 -0.00000000000E+00 -0.35797593335E+03  0.35797818615E+03  0.12700000000E+01 0. -1.
         25    2    1    2    0    0  0.00000000000E+00  0.00000000000E+00 -0.34710411901E+03  0.36892392720E+03  0.12499437838E+03 0.  0.
    9000005    1    3    3    0    0 -0.55125885496E+01  0.49362475515E+02 -0.61633001964E+02  0.79162298808E+02  0.10000000000E+01 0.  0.
    9000005    1    3    3    0    0  0.55125885496E+01 -0.49362475515E+02 -0.28547111704E+03  0.28976162839E+03  0.10000000000E+01 0.  0.
<mgrwt>
<rscale>  0 0.12499438E+03</rscale>
<asrwt>0</asrwt>
<pdfrwt beam="2">  1        4 0.55079071E-01 0.12499438E+03</pdfrwt>
<pdfrwt beam="1">  1       -4 0.16784471E-02 0.12499438E+03</pdfrwt>
<totfact> 0.67700083E+03</totfact>
</mgrwt>
</event>
<event>
 5    1  0.3282421E-002  0.1249998E+03  0.7818608E-02  0.1235070E+00
          4   -1    0    0  501    0  0.00000000000E+00  0.00000000000E+00  0.47769992027E+03  0.47770160846E+03  0.12700000000E+01 0.  1.
         -4   -1    0    0    0  501 -0.00000000000E+00 -0.00000000000E+00 -0.81261581624E+01  0.82248006955E+01  0.12700000000E+01 0.  1.
         25    2    1    2    0    0  0.00000000000E+00  0.00000000000E+00  0.46957376211E+03  0.48592640916E+03  0.12499982822E+03 0.  0.
    9000005    1    3    3    0    0  0.43083425403E+02 -0.24022760420E+02  0.38393225395E+03  0.38708946018E+03  0.10000000000E+01 0.  0.
    9000005    1    3    3    0    0 -0.43083425403E+02  0.24022760420E+02  0.85641508160E+02  0.98836948974E+02  0.10000000000E+01 0.  0.
<mgrwt>
<rscale>  0 0.12499983E+03</rscale>
<asrwt>0</asrwt>
<pdfrwt beam="1">  1        4 0.73500028E-01 0.12499983E+03</pdfrwt>
<pdfrwt beam="2">  1       -4 0.12578957E-02 0.12499983E+03</pdfrwt>
<totfact> 0.56973286E+03</totfact>
</mgrwt>
</event>
<event>
 5    1  0.3282421E-002  0.1250104E+03  0.7818608E-02  0.1235053E+00
         -4   -1    0    0    0  501 -0.00000000000E+00  0.00000000000E+00  0.49074437325E+01  0.50691127417E+01  0.12700000000E+01 0. -1.
          4   -1    0    0  501    0  0.00000000000E+00 -0.00000000000E+00 -0.78305393365E+03  0.78305496353E+03  0.12700000000E+01 0. -1.
         25    2    1    2    0    0  0.00000000000E+00  0.00000000000E+00 -0.77814648992E+03  0.78812407627E+03  0.12501039886E+03 0.  0.
    9000005    1    3    3    0    0 -0.46798295992E+00  0.57191475584E+02 -0.54791782822E+03  0.55089566196E+03  0.10000000000E+01 0.  0.
    9000005    1    3    3    0    0  0.46798295992E+00 -0.57191475584E+02 -0.23022866170E+03  0.23722841431E+03  0.10000000000E+01 0.  0.
<mgrwt>
<rscale>  0 0.12501040E+03</rscale>
<asrwt>0</asrwt>
<pdfrwt beam="2">  1        4 0.12048225E+00 0.12501040E+03</pdfrwt>
<pdfrwt beam="1">  1       -4 0.76750726E-03 0.12501040E+03</pdfrwt>
<totfact> 0.38791644E+03</totfact>
</mgrwt>
</event>
<event>
 5    1  0.3282421E-002  0.1250023E+03  0.7818608E-02  0.1235066E+00
          4   -1    0    0  501    0  0.00000000000E+00  0.00000000000E+00  0.12402626186E+03  0.12403276394E+03  0.12700000000E+01 0.  1.
         -4   -1    0    0    0  501 -0.00000000000E+00 -0.00000000000E+00 -0.31476367423E+02  0.31501977813E+02  0.12700000000E+01 0.  1.
         25    2    1    2    0    0  0.00000000000E+00  0.00000000000E+00  0.92549894439E+02  0.15553474176E+03  0.12500229171E+03 0.  0.
    9000005    1    3    3    0    0  0.50836786140E+02 -0.26905682038E+02  0.76679071119E+02  0.95859138837E+02  0.10000000000E+01 0.  0.
    9000005    1    3    3    0    0 -0.50836786140E+02  0.26905682038E+02  0.15870823320E+02  0.59675602919E+02  0.10000000000E+01 0.  0.
<mgrwt>
<rscale>  0 0.12500229E+03</rscale>
<asrwt>0</asrwt>
<pdfrwt beam="1">  1        4 0.19083433E-01 0.12500229E+03</pdfrwt>
<pdfrwt beam="2">  1       -4 0.48449883E-02 0.12500229E+03</pdfrwt>
<totfact> 0.98205563E+03</totfact>
</mgrwt>
</event>
<event>
 5    1  0.3282421E-002  0.1250003E+03  0.7818608E-02  0.1235069E+00
          4   -1    0    0  501    0  0.00000000000E+00  0.00000000000E+00  0.64465872635E+01  0.65704936912E+01  0.12700000000E+01 0. -1.
         -4   -1    0    0    0  501 -0.00000000000E+00 -0.00000000000E+00 -0.60005148065E+03  0.60005282462E+03  0.12700000000E+01 0. -1.
         25    2    1    2    0    0  0.00000000000E+00  0.00000000000E+00 -0.59360489339E+03  0.60662331831E+03  0.12500032345E+03 0.  0.
    9000005    1    3    3    0    0  0.50964361235E+02  0.34664886270E+02 -0.34682570094E+03  0.35226139057E+03  0.10000000000E+01 0.  0.
    9000005    1    3    3    0    0 -0.50964361235E+02 -0.34664886270E+02 -0.24677919244E+03  0.25436192773E+03  0.10000000000E+01 0.  0.
<mgrwt>
<rscale>  0 0.12500032E+03</rscale>
<asrwt>0</asrwt>
<pdfrwt beam="1">  1        4 0.10014178E-02 0.12500032E+03</pdfrwt>
<pdfrwt beam="2">  1       -4 0.92325204E-01 0.12500032E+03</pdfrwt>
<totfact> 0.48451852E+03</totfact>
</mgrwt>
</event>
<event>
 5    1  0.3282421E-002  0.1250000E+03  0.7818608E-02  0.1235069E+00
          4   -1    0    0  501    0  0.00000000000E+00  0.00000000000E+00  0.21708987935E+01  0.25150947441E+01  0.12700000000E+01 0.  1.
         -4   -1    0    0    0  501 -0.00000000000E+00 -0.00000000000E+00 -0.16668591515E+04  0.16668596354E+04  0.12700000000E+01 0.  1.
         25    2    1    2    0    0  0.00000000000E+00  0.00000000000E+00 -0.16646882527E+04  0.16693747301E+04  0.12500004263E+03 0.  0.
    9000005    1    3    3    0    0 -0.50972627116E+02 -0.33252536753E+02 -0.10218310800E+04  0.10236423672E+04  0.10000000000E+01 0.  0.
    9000005    1    3    3    0    0  0.50972627116E+02  0.33252536753E+02 -0.64285717279E+03  0.64573236292E+03  0.10000000000E+01 0.  0.
<mgrwt>
<rscale>  0 0.12500004E+03</rscale>
<asrwt>0</asrwt>
<pdfrwt beam="1">  1        4 0.36049959E-03 0.12500004E+03</pdfrwt>
<pdfrwt beam="2">  1       -4 0.25646543E+00 0.12500004E+03</pdfrwt>
<totfact> 0.14825407E+03</totfact>
</mgrwt>
</event>
<event>
 5    1  0.3282421E-002  0.1250037E+03  0.7818608E-02  0.1235064E+00
         -4   -1    0    0    0  501 -0.00000000000E+00  0.00000000000E+00  0.19228864865E+04  0.19228869059E+04  0.12700000000E+01 0.  1.
          4   -1    0    0  501    0  0.00000000000E+00 -0.00000000000E+00 -0.18326298959E+01  0.22296709029E+01  0.12700000000E+01 0.  1.
         25    2    1    2    0    0  0.00000000000E+00  0.00000000000E+00  0.19210538566E+04  0.19251165768E+04  0.12500365711E+03 0.  0.
    9000005    1    3    3    0    0 -0.44951413031E+02  0.38208188178E+02  0.64304405971E+03  0.64574542809E+03  0.10000000000E+01 0.  0.
    9000005    1    3    3    0    0  0.44951413031E+02 -0.38208188178E+02  0.12780097969E+04  0.12793711487E+04  0.10000000000E+01 0.  0.
<mgrwt>
<rscale>  0 0.12500366E+03</rscale>
<asrwt>0</asrwt>
<pdfrwt beam="2">  1        4 0.31251387E-03 0.12500366E+03</pdfrwt>
<pdfrwt beam="1">  1       -4 0.29586217E+00 0.12500366E+03</pdfrwt>
<totfact> 0.10869323E+03</totfact>
</mgrwt>
</event>
<event>
 5    1  0.3282421E-002  0.1250008E+03  0.7818608E-02  0.1235068E+00
          4   -1    0    0  501    0  0.00000000000E+00  0.00000000000E+00  0.13532222213E+02  0.13591686357E+02  0.12700000000E+01 0.  1.
         -4   -1    0    0    0  501 -0.00000000000E+00 -0.00000000000E+00 -0.28797274675E+03  0.28797554717E+03  0.12700000000E+01 0.  1.
         25    2    1    2    0    0  0.00000000000E+00  0.00000000000E+00 -0.27444052453E+03  0.30156723353E+03  0.12500077932E+03 0.  0.
    9000005    1    3    3    0    0  0.13842985613E+02  0.42681803997E+01  0.94375757098E+01  0.17318009409E+02  0.10000000000E+01 0.  0.
    9000005    1    3    3    0    0 -0.13842985613E+02 -0.42681803997E+01 -0.28387810024E+03  0.28424922412E+03  0.10000000000E+01 0.  0.
<mgrwt>
<rscale>  0 0.12500078E+03</rscale>
<asrwt>0</asrwt>
<pdfrwt beam="1">  1        4 0.20866701E-02 0.12500078E+03</pdfrwt>
<pdfrwt beam="2">  1       -4 0.44308284E-01 0.12500078E+03</pdfrwt>
<totfact> 0.75401365E+03</totfact>
</mgrwt>
</event>
<event>
 5    1  0.3282421E-002  0.1249975E+03  0.7818608E-02  0.1235073E+00
         -4   -1    0    0    0  501 -0.00000000000E+00  0.00000000000E+00  0.18420113696E+02  0.18463842736E+02  0.12700000000E+01 0. -1.
          4   -1    0    0  501    0  0.00000000000E+00 -0.00000000000E+00 -0.21175894935E+03  0.21176275766E+03  0.12700000000E+01 0. -1.
         25    2    1    2    0    0  0.00000000000E+00  0.00000000000E+00 -0.19333883565E+03  0.23022660039E+03  0.12499752860E+03 0.  0.
    9000005    1    3    3    0    0  0.19274512210E+02 -0.53291080088E+02 -0.14517861792E+03  0.15585017530E+03  0.10000000000E+01 0.  0.
    9000005    1    3    3    0    0 -0.19274512210E+02  0.53291080088E+02 -0.48160217731E+02  0.74376425094E+02  0.10000000000E+01 0.  0.
<mgrwt>
<rscale>  0 0.12499753E+03</rscale>
<asrwt>0</asrwt>
<pdfrwt beam="2">  1        4 0.32581955E-01 0.12499753E+03</pdfrwt>
<pdfrwt beam="1">  1       -4 0.28375205E-02 0.12499753E+03</pdfrwt>
<totfact> 0.85279517E+03</totfact>
</mgrwt>
</event>
<event>
 4    1  0.3282421E-002  0.1249317E+03  0.7818608E-02  0.1235176E+00
         -4   -1    0    0    0  501 -0.00000000000E+00  0.00000000000E+00  0.41271804997E+02  0.41291340348E+02  0.12700000000E+01 0.  1.
          4   -1    0    0  501    0  0.00000000000E+00 -0.00000000000E+00 -0.94497294291E+02  0.94505828012E+02  0.12700000000E+01 0.  1.
    9000005    1    1    2    0    0 -0.14743641688E+02  0.65339420359E+01 -0.92200584256E+02  0.93605636080E+02  0.10000000000E+01 0.  0.
    9000005    1    1    2    0    0  0.14743641688E+02 -0.65339420359E+01  0.38975094963E+02  0.42191532280E+02  0.10000000000E+01 0.  0.
<mgrwt>
<rscale>  0 0.12493165E+03</rscale>
<asrwt>0</asrwt>
<pdfrwt beam="2">  1        4 0.14540204E-01 0.12493165E+03</pdfrwt>
<pdfrwt beam="1">  1       -4 0.63516676E-02 0.12493165E+03</pdfrwt>
<totfact> 0.10237065E+04</totfact>
</mgrwt>
</event>
<event>
 5    1  0.3282421E-002  0.1249999E+03  0.7818608E-02  0.1235069E+00
         -4   -1    0    0    0  501 -0.00000000000E+00  0.00000000000E+00  0.20437920686E+02  0.20477341184E+02  0.12700000000E+01 0.  1.
          4   -1    0    0  501    0  0.00000000000E+00 -0.00000000000E+00 -0.19090168035E+03  0.19090590473E+03  0.12700000000E+01 0.  1.
         25    2    1    2    0    0  0.00000000000E+00  0.00000000000E+00 -0.17046375967E+03  0.21138324592E+03  0.12499993318E+03 0.  0.
    9000005    1    3    3    0    0 -0.58375870207E+02  0.37305981173E+01 -0.48044314283E+02  0.75702811834E+02  0.10000000000E+01 0.  0.
    9000005    1    3    3    0    0  0.58375870207E+02 -0.37305981173E+01 -0.12241944538E+03  0.13568043408E+03  0.10000000000E+01 0.  0.
<mgrwt>
<rscale>  0 0.12499993E+03</rscale>
<asrwt>0</asrwt>
<pdfrwt beam="2">  1        4 0.29372845E-01 0.12499993E+03</pdfrwt>
<pdfrwt beam="1">  1       -4 0.31476529E-02 0.12499993E+03</pdfrwt>
<totfact> 0.88250608E+03</totfact>
</mgrwt>
</event>
<event>
 5    1  0.3282421E-002  0.1250027E+03  0.7818608E-02  0.1235065E+00
          4   -1    0    0  501    0  0.00000000000E+00  0.00000000000E+00  0.91986703991E+01  0.92859268310E+01  0.12700000000E+01 0.  1.
         -4   -1    0    0    0  501 -0.00000000000E+00 -0.00000000000E+00 -0.42257954952E+03  0.42258145792E+03  0.12700000000E+01 0.  1.
         25    2    1    2    0    0  0.00000000000E+00  0.00000000000E+00 -0.41338087913E+03  0.43186738475E+03  0.12500274710E+03 0.  0.
    9000005    1    3    3    0    0 -0.88651784284E+01 -0.33332439338E+02 -0.26646691238E+02  0.43596892719E+02  0.10000000000E+01 0.  0.
    9000005    1    3    3    0    0  0.88651784284E+01  0.33332439338E+02 -0.38673418789E+03  0.38827049203E+03  0.10000000000E+01 0.  0.
<mgrwt>
<rscale>  0 0.12500275E+03</rscale>
<asrwt>0</asrwt>
<pdfrwt beam="1">  1        4 0.14220392E-02 0.12500275E+03</pdfrwt>
<pdfrwt beam="2">  1       -4 0.65019082E-01 0.12500275E+03</pdfrwt>
<totfact> 0.61563367E+03</totfact>
</mgrwt>
</event>
<event>
 5    1  0.3282421E-002  0.1250023E+03  0.7818608E-02  0.1235066E+00
          4   -1    0    0  501    0  0.00000000000E+00  0.00000000000E+00  0.22837254101E+02  0.22872539756E+02  0.12700000000E+01 0. -1.
         -4   -1    0    0    0  501 -0.00000000000E+00 -0.00000000000E+00 -0.17088382901E+03  0.17088854823E+03  0.12700000000E+01 0. -1.
         25    2    1    2    0    0  0.00000000000E+00  0.00000000000E+00 -0.14804657490E+03  0.19376108798E+03  0.12500228348E+03 0.  0.
    9000005    1    3    3    0    0 -0.53647156590E+02 -0.17770132636E+02 -0.11537237059E+03  0.12847403987E+03  0.10000000000E+01 0.  0.
    9000005    1    3    3    0    0  0.53647156590E+02  0.17770132636E+02 -0.32674204309E+02  0.65287048113E+02  0.10000000000E+01 0.  0.
<mgrwt>
<rscale>  0 0.12500228E+03</rscale>
<asrwt>0</asrwt>
<pdfrwt beam="1">  1        4 0.35165011E-02 0.12500228E+03</pdfrwt>
<pdfrwt beam="2">  1       -4 0.26292896E-01 0.12500228E+03</pdfrwt>
<totfact> 0.91192323E+03</totfact>
</mgrwt>
</event>
<event>
 5    1  0.3282421E-002  0.1249998E+03  0.7818608E-02  0.1235070E+00
          4   -1    0    0  501    0  0.00000000000E+00  0.00000000000E+00  0.76716675192E+03  0.76716780312E+03  0.12700000000E+01 0. -1.
         -4   -1    0    0    0  501 -0.00000000000E+00 -0.00000000000E+00 -0.50115120896E+01  0.51699277968E+01  0.12700000000E+01 0. -1.
         25    2    1    2    0    0  0.00000000000E+00  0.00000000000E+00  0.76215523983E+03  0.77233773092E+03  0.12499984402E+03 0.  0.
    9000005    1    3    3    0    0  0.31103610499E+02 -0.91801457283E+01  0.71113469527E+03  0.71187447242E+03  0.10000000000E+01 0.  0.
    9000005    1    3    3    0    0 -0.31103610499E+02  0.91801457283E+01  0.51020544553E+02  0.60463258497E+02  0.10000000000E+01 0.  0.
<mgrwt>
<rscale>  0 0.12499984E+03</rscale>
<asrwt>0</asrwt>
<pdfrwt beam="1">  1        4 0.11803796E+00 0.12499984E+03</pdfrwt>
<pdfrwt beam="2">  1       -4 0.78326830E-03 0.12499984E+03</pdfrwt>
<totfact> 0.39527934E+03</totfact>
</mgrwt>
</event>
<event>
 5    1  0.3282421E-002  0.1249991E+03  0.7818608E-02  0.1235071E+00
          4   -1    0    0  501    0  0.00000000000E+00  0.00000000000E+00  0.67335492445E+02  0.67347467976E+02  0.12700000000E+01 0.  1.
         -4   -1    0    0    0  501 -0.00000000000E+00 -0.00000000000E+00 -0.57986867871E+02  0.58000773663E+02  0.12700000000E+01 0.  1.
         25    2    1    2    0    0  0.00000000000E+00  0.00000000000E+00  0.93486245744E+01  0.12534824164E+03  0.12499913960E+03 0.  0.
    9000005    1    3    3    0    0  0.38056243955E+02  0.46007938586E+02 -0.13821388309E+02  0.61294688936E+02  0.10000000000E+01 0.  0.
    9000005    1    3    3    0    0 -0.38056243955E+02 -0.46007938586E+02  0.23170012884E+02  0.64053552704E+02  0.10000000000E+01 0.  0.
<mgrwt>
<rscale>  0 0.12499914E+03</rscale>
<asrwt>0</asrwt>
<pdfrwt beam="1">  1        4 0.10361297E-01 0.12499914E+03</pdfrwt>
<pdfrwt beam="2">  1       -4 0.89230475E-02 0.12499914E+03</pdfrwt>
<totfact> 0.10445506E+04</totfact>
</mgrwt>
</event>
<event>
 5    1  0.3282421E-002  0.1250013E+03  0.7818608E-02  0.1235067E+00
         -4   -1    0    0    0  501 -0.00000000000E+00  0.00000000000E+00  0.51525308209E+02  0.51540957365E+02  0.12700000000E+01 0. -1.
          4   -1    0    0  501    0  0.00000000000E+00 -0.00000000000E+00 -0.75781307505E+02  0.75791948564E+02  0.12700000000E+01 0. -1.
         25    2    1    2    0    0  0.00000000000E+00  0.00000000000E+00 -0.24255999296E+02  0.12733290593E+03  0.12500126172E+03 0.  0.
    9000005    1    3    3    0    0 -0.18807706453E+02  0.57282652590E+02  0.46193722301E+01  0.60476199530E+02  0.10000000000E+01 0.  0.
    9000005    1    3    3    0    0  0.18807706453E+02 -0.57282652590E+02 -0.28875371526E+02  0.66856706399E+02  0.10000000000E+01 0.  0.
<mgrwt>
<rscale>  0 0.12500126E+03</rscale>
<asrwt>0</asrwt>
<pdfrwt beam="2">  1        4 0.11660685E-01 0.12500126E+03</pdfrwt>
<pdfrwt beam="1">  1       -4 0.79289928E-02 0.12500126E+03</pdfrwt>
<totfact> 0.10401625E+04</totfact>
</mgrwt>
</event>
<event>
 5    1  0.3282421E-002  0.1249894E+03  0.7818608E-02  0.1235086E+00
          4   -1    0    0  501    0  0.00000000000E+00  0.00000000000E+00  0.92896044558E+01  0.93760146621E+01  0.12700000000E+01 0.  1.
         -4   -1    0    0    0  501 -0.00000000000E+00 -0.00000000000E+00 -0.41839175452E+03  0.41839368202E+03  0.12700000000E+01 0.  1.
         25    2    1    2    0    0  0.00000000000E+00  0.00000000000E+00 -0.40910215007E+03  0.42776969668E+03  0.12498937638E+03 0.  0.
    9000005    1    3    3    0    0  0.30843063083E+02 -0.28925134753E+02 -0.47095083030E+02  0.63300116954E+02  0.10000000000E+01 0.  0.
    9000005    1    3    3    0    0 -0.30843063083E+02  0.28925134753E+02 -0.36200706704E+03  0.36446957973E+03  0.10000000000E+01 0.  0.
<mgrwt>
<rscale>  0 0.12498938E+03</rscale>
<asrwt>0</asrwt>
<pdfrwt beam="1">  1        4 0.14359654E-02 0.12498938E+03</pdfrwt>
<pdfrwt beam="2">  1       -4 0.64374743E-01 0.12498938E+03</pdfrwt>
<totfact> 0.61953194E+03</totfact>
</mgrwt>
</event>
<event>
 5    1  0.3282421E-002  0.1250002E+03  0.7818608E-02  0.1235069E+00
          4   -1    0    0  501    0  0.00000000000E+00  0.00000000000E+00  0.76128880722E+01  0.77180933397E+01  0.12700000000E+01 0.  1.
         -4   -1    0    0    0  501 -0.00000000000E+00 -0.00000000000E+00 -0.50948473469E+03  0.50948631756E+03  0.12700000000E+01 0.  1.
         25    2    1    2    0    0  0.00000000000E+00  0.00000000000E+00 -0.50187184662E+03  0.51720441090E+03  0.12500020891E+03 0.  0.
    9000005    1    3    3    0    0 -0.13974240260E+02 -0.60897824939E+02 -0.24597321142E+03  0.25378661353E+03  0.10000000000E+01 0.  0.
    9000005    1    3    3    0    0  0.13974240260E+02  0.60897824939E+02 -0.25589863520E+03  0.26341779737E+03  0.10000000000E+01 0.  0.
<mgrwt>
<rscale>  0 0.12500021E+03</rscale>
<asrwt>0</asrwt>
<pdfrwt beam="1">  1        4 0.11794284E-02 0.12500021E+03</pdfrwt>
<pdfrwt beam="2">  1       -4 0.78390455E-01 0.12500021E+03</pdfrwt>
<totfact> 0.54553556E+03</totfact>
</mgrwt>
</event>
<event>
 5    1  0.3282421E-002  0.1250002E+03  0.7818608E-02  0.1235069E+00
          4   -1    0    0  501    0  0.00000000000E+00  0.00000000000E+00  0.79574070733E+02  0.79584204671E+02  0.12700000000E+01 0.  1.
         -4   -1    0    0    0  501 -0.00000000000E+00 -0.00000000000E+00 -0.49068196593E+02  0.49084629131E+02  0.12700000000E+01 0.  1.
         25    2    1    2    0    0  0.00000000000E+00  0.00000000000E+00  0.30505874140E+02  0.12866883380E+03  0.12500024174E+03 0.  0.
    9000005    1    3    3    0    0  0.49248503806E+02 -0.27460712915E+02 -0.12477632833E+02  0.57759823425E+02  0.10000000000E+01 0.  0.
    9000005    1    3    3    0    0 -0.49248503806E+02  0.27460712915E+02  0.42983506973E+02  0.70909010377E+02  0.10000000000E+01 0.  0.
<mgrwt>
<rscale>  0 0.12500024E+03</rscale>
<asrwt>0</asrwt>
<pdfrwt beam="1">  1        4 0.12244208E-01 0.12500024E+03</pdfrwt>
<pdfrwt beam="2">  1       -4 0.75509970E-02 0.12500024E+03</pdfrwt>
<totfact> 0.10373012E+04</totfact>
</mgrwt>
</event>
<event>
 5    1  0.3282421E-002  0.1250005E+03  0.7818608E-02  0.1235068E+00
         -4   -1    0    0    0  501 -0.00000000000E+00  0.00000000000E+00  0.36583836790E+03  0.36584057229E+03  0.12700000000E+01 0. -1.
          4   -1    0    0  501    0  0.00000000000E+00 -0.00000000000E+00 -0.10637613215E+02  0.10713156160E+02  0.12700000000E+01 0. -1.
         25    2    1    2    0    0  0.00000000000E+00  0.00000000000E+00  0.35520075469E+03  0.37655372845E+03  0.12500053710E+03 0.  0.
    9000005    1    3    3    0    0 -0.35049472981E+02  0.16253035137E+02  0.32556669045E+03  0.32785255319E+03  0.10000000000E+01 0.  0.
    9000005    1    3    3    0    0  0.35049472981E+02 -0.16253035137E+02  0.29634064244E+02  0.48701175253E+02  0.10000000000E+01 0.  0.
<mgrwt>
<rscale>  0 0.12500054E+03</rscale>
<asrwt>0</asrwt>
<pdfrwt beam="2">  1        4 0.16425365E-02 0.12500054E+03</pdfrwt>
<pdfrwt beam="1">  1       -4 0.56288806E-01 0.12500054E+03</pdfrwt>
<totfact> 0.66898027E+03</totfact>
</mgrwt>
</event>
<event>
 5    1  0.3282421E-002  0.1249988E+03  0.7818608E-02  0.1235071E+00
         -4   -1    0    0    0  501 -0.00000000000E+00  0.00000000000E+00  0.29395998615E+01  0.32022097598E+01  0.12700000000E+01 0.  1.
          4   -1    0    0  501    0  0.00000000000E+00 -0.00000000000E+00 -0.12717311675E+04  0.12717318016E+04  0.12700000000E+01 0.  1.
         25    2    1    2    0    0  0.00000000000E+00  0.00000000000E+00 -0.12687915676E+04  0.12749340114E+04  0.12499876520E+03 0.  0.
    9000005    1    3    3    0    0 -0.11361274626E+01 -0.16020031862E+02 -0.12503723522E+04  0.12504758900E+04  0.10000000000E+01 0.  0.
    9000005    1    3    3    0    0  0.11361274626E+01  0.16020031862E+02 -0.18419215385E+02  0.24458121389E+02  0.10000000000E+01 0.  0.
<mgrwt>
<rscale>  0 0.12499877E+03</rscale>
<asrwt>0</asrwt>
<pdfrwt beam="2">  1        4 0.19567078E+00 0.12499877E+03</pdfrwt>
<pdfrwt beam="1">  1       -4 0.47249669E-03 0.12499877E+03</pdfrwt>
<totfact> 0.22828639E+03</totfact>
</mgrwt>
</event>
<event>
 5    1  0.3282421E-002  0.1250004E+03  0.7818608E-02  0.1235069E+00
         -4   -1    0    0    0  501 -0.00000000000E+00  0.00000000000E+00  0.41467176007E+02  0.41486619361E+02  0.12700000000E+01 0. -1.
          4   -1    0    0  501    0  0.00000000000E+00 -0.00000000000E+00 -0.94155838197E+02  0.94164402863E+02  0.12700000000E+01 0. -1.
         25    2    1    2    0    0  0.00000000000E+00  0.00000000000E+00 -0.52688662190E+02  0.13565102222E+03  0.12500041883E+03 0.  0.
    9000005    1    3    3    0    0 -0.42318422165E+02  0.34898716615E+02  0.61485649509E+01  0.55204837893E+02  0.10000000000E+01 0.  0.
    9000005    1    3    3    0    0  0.42318422165E+02 -0.34898716615E+02 -0.58837227141E+02  0.80446184331E+02  0.10000000000E+01 0.  0.
<mgrwt>
<rscale>  0 0.12500042E+03</rscale>
<asrwt>0</asrwt>
<pdfrwt beam="2">  1        4 0.14487668E-01 0.12500042E+03</pdfrwt>
<pdfrwt beam="1">  1       -4 0.63817200E-02 0.12500042E+03</pdfrwt>
<totfact> 0.10224271E+04</totfact>
</mgrwt>
</event>
<event>
 5    1  0.3282421E-002  0.1249901E+03  0.7818608E-02  0.1235085E+00
          4   -1    0    0  501    0  0.00000000000E+00  0.00000000000E+00  0.36513179290E+02  0.36535259160E+02  0.12700000000E+01 0.  1.
         -4   -1    0    0    0  501 -0.00000000000E+00 -0.00000000000E+00 -0.10690677530E+03  0.10691431853E+03  0.12700000000E+01 0.  1.
         25    2    1    2    0    0  0.00000000000E+00  0.00000000000E+00 -0.70393596013E+02  0.14344957768E+03  0.12499009152E+03 0.  0.
    9000005    1    3    3    0    0  0.39348572620E+02  0.30132564621E+02  0.84809580967E+01  0.50291234506E+02  0.10000000000E+01 0.  0.
    9000005    1    3    3    0    0 -0.39348572620E+02 -0.30132564621E+02 -0.78874554109E+02  0.93158343179E+02  0.10000000000E+01 0.  0.
<mgrwt>
<rscale>  0 0.12499009E+03</rscale>
<asrwt>0</asrwt>
<pdfrwt beam="1">  1        4 0.56196909E-02 0.12499009E+03</pdfrwt>
<pdfrwt beam="2">  1       -4 0.16449475E-01 0.12499009E+03</pdfrwt>
<totfact> 0.10064831E+04</totfact>
</mgrwt>
</event>
<event>
 5    1  0.3282421E-002  0.1249887E+03  0.7818608E-02  0.1235087E+00
         -4   -1    0    0    0  501 -0.00000000000E+00  0.00000000000E+00  0.58408653271E+02  0.58422458669E+02  0.12700000000E+01 0. -1.
          4   -1    0    0  501    0  0.00000000000E+00 -0.00000000000E+00 -0.66838076542E+02  0.66850141181E+02  0.12700000000E+01 0. -1.
         25    2    1    2    0    0  0.00000000000E+00  0.00000000000E+00 -0.84294232710E+01  0.12527259985E+03  0.12498867587E+03 0.  0.
    9000005    1    3    3    0    0 -0.48973511716E+02 -0.29366190511E+02 -0.29644858075E+02  0.64347459975E+02  0.10000000000E+01 0.  0.
    9000005    1    3    3    0    0  0.48973511716E+02  0.29366190511E+02  0.21215434804E+02  0.60925139875E+02  0.10000000000E+01 0.  0.
<mgrwt>
<rscale>  0 0.12498868E+03</rscale>
<asrwt>0</asrwt>
<pdfrwt beam="2">  1        4 0.10284771E-01 0.12498868E+03</pdfrwt>
<pdfrwt beam="1">  1       -4 0.89879367E-02 0.12498868E+03</pdfrwt>
<totfact> 0.10449619E+04</totfact>
</mgrwt>
</event>
<event>
 5    1  0.3282421E-002  0.1249915E+03  0.7818608E-02  0.1235083E+00
          4   -1    0    0  501    0  0.00000000000E+00  0.00000000000E+00  0.45303352786E+02  0.45321150401E+02  0.12700000000E+01 0. -1.
         -4   -1    0    0    0  501 -0.00000000000E+00 -0.00000000000E+00 -0.86173135102E+02  0.86182493078E+02  0.12700000000E+01 0. -1.
         25    2    1    2    0    0  0.00000000000E+00  0.00000000000E+00 -0.40869782315E+02  0.13150364348E+03  0.12499147628E+03 0.  0.
    9000005    1    3    3    0    0  0.50145811366E+02  0.37223346983E+02 -0.18193810711E+02  0.65055320353E+02  0.10000000000E+01 0.  0.
    9000005    1    3    3    0    0 -0.50145811366E+02 -0.37223346983E+02 -0.22675971605E+02  0.66448323126E+02  0.10000000000E+01 0.  0.
<mgrwt>
<rscale>  0 0.12499148E+03</rscale>
<asrwt>0</asrwt>
<pdfrwt beam="1">  1        4 0.69718355E-02 0.12499148E+03</pdfrwt>
<pdfrwt beam="2">  1       -4 0.13259494E-01 0.12499148E+03</pdfrwt>
<totfact> 0.10314287E+04</totfact>
</mgrwt>
</event>
<event>
 5    1  0.3282421E-002  0.1250032E+03  0.7818608E-02  0.1235064E+00
         -4   -1    0    0    0  501 -0.00000000000E+00  0.00000000000E+00  0.65804908321E+01  0.67019220818E+01  0.12700000000E+01 0.  1.
          4   -1    0    0  501    0  0.00000000000E+00 -0.00000000000E+00 -0.58809202194E+03  0.58809339324E+03  0.12700000000E+01 0.  1.
         25    2    1    2    0    0  0.00000000000E+00  0.00000000000E+00 -0.58151153111E+03  0.59479531532E+03  0.12500322522E+03 0.  0.
    9000005    1    3    3    0    0 -0.33727797498E+02 -0.15294463339E+02 -0.53027851482E+03  0.53157105660E+03  0.10000000000E+01 0.  0.
    9000005    1    3    3    0    0  0.33727797498E+02  0.15294463339E+02 -0.51233016287E+02  0.63224258721E+02  0.10000000000E+01 0.  0.
<mgrwt>
<rscale>  0 0.12500323E+03</rscale>
<asrwt>0</asrwt>
<pdfrwt beam="2">  1        4 0.90485101E-01 0.12500323E+03</pdfrwt>
<pdfrwt beam="1">  1       -4 0.10218300E-02 0.12500323E+03</pdfrwt>
<totfact> 0.49194339E+03</totfact>
</mgrwt>
</event>
<event>
 5    1  0.3282421E-002  0.1249965E+03  0.7818608E-02  0.1235075E+00
         -4   -1    0    0    0  501 -0.00000000000E+00  0.00000000000E+00  0.47497807073E+02  0.47514782718E+02  0.12700000000E+01 0. -1.
          4   -1    0    0  501    0  0.00000000000E+00 -0.00000000000E+00 -0.82199401683E+02  0.82209211997E+02  0.12700000000E+01 0. -1.
         25    2    1    2    0    0  0.00000000000E+00  0.00000000000E+00 -0.34701594611E+02  0.12972399471E+03  0.12499645649E+03 0.  0.
    9000005    1    3    3    0    0  0.61607487218E+02 -0.45471010094E+01 -0.27134427297E+02  0.67479150510E+02  0.10000000000E+01 0.  0.
    9000005    1    3    3    0    0 -0.61607487218E+02  0.45471010094E+01 -0.75671673134E+01  0.62244844204E+02  0.10000000000E+01 0.  0.
<mgrwt>
<rscale>  0 0.12499646E+03</rscale>
<asrwt>0</asrwt>
<pdfrwt beam="2">  1        4 0.12648122E-01 0.12499646E+03</pdfrwt>
<pdfrwt beam="1">  1       -4 0.73094154E-02 0.12499646E+03</pdfrwt>
<totfact> 0.10351243E+04</totfact>
</mgrwt>
</event>
<event>
 5    1  0.3282421E-002  0.1249979E+03  0.7818608E-02  0.1235073E+00
         -4   -1    0    0    0  501 -0.00000000000E+00  0.00000000000E+00  0.11980749572E+03  0.11981422675E+03  0.12700000000E+01 0.  1.
          4   -1    0    0  501    0  0.00000000000E+00 -0.00000000000E+00 -0.32583287349E+02  0.32608028374E+02  0.12700000000E+01 0.  1.
         25    2    1    2    0    0  0.00000000000E+00  0.00000000000E+00  0.87224208375E+02  0.15242225512E+03  0.12499792530E+03 0.  0.
    9000005    1    3    3    0    0 -0.39553634516E+02 -0.30317923154E+02 -0.23618609788E+01  0.49902353202E+02  0.10000000000E+01 0.  0.
    9000005    1    3    3    0    0  0.39553634516E+02  0.30317923154E+02  0.89586069354E+02  0.10251990192E+03  0.10000000000E+01 0.  0.
<mgrwt>
<rscale>  0 0.12499793E+03</rscale>
<asrwt>0</asrwt>
<pdfrwt beam="2">  1        4 0.50152343E-02 0.12499793E+03</pdfrwt>
<pdfrwt beam="1">  1       -4 0.18434344E-01 0.12499793E+03</pdfrwt>
<totfact> 0.98827644E+03</totfact>
</mgrwt>
</event>
<event>
 5    1  0.3282421E-002  0.1250000E+03  0.7818608E-02  0.1235069E+00
         -4   -1    0    0    0  501 -0.00000000000E+00  0.00000000000E+00  0.58110559113E+02  0.58124435313E+02  0.12700000000E+01 0. -1.
          4   -1    0    0  501    0  0.00000000000E+00 -0.00000000000E+00 -0.67193150811E+02  0.67205151707E+02  0.12700000000E+01 0. -1.
         25    2    1    2    0    0  0.00000000000E+00  0.00000000000E+00 -0.90825916979E+01  0.12532958702E+03  0.12500004764E+03 0.  0.
    9000005    1    3    3    0    0 -0.27180539052E+01  0.59724472181E+02 -0.22778602265E+02  0.63986444780E+02  0.10000000000E+01 0.  0.
    9000005    1    3    3    0    0  0.27180539052E+01 -0.59724472181E+02  0.13696010567E+02  0.61343142240E+02  0.10000000000E+01 0.  0.
<mgrwt>
<rscale>  0 0.12500005E+03</rscale>
<asrwt>0</asrwt>
<pdfrwt beam="2">  1        4 0.10339398E-01 0.12500005E+03</pdfrwt>
<pdfrwt beam="1">  1       -4 0.89420766E-02 0.12500005E+03</pdfrwt>
<totfact> 0.10445697E+04</totfact>
</mgrwt>
</event>
<event>
 5    1  0.3282421E-002  0.1250054E+03  0.7818608E-02  0.1235061E+00
         -4   -1    0    0    0  501 -0.00000000000E+00  0.00000000000E+00  0.45735873471E+03  0.45736049799E+03  0.12700000000E+01 0.  1.
          4   -1    0    0  501    0  0.00000000000E+00 -0.00000000000E+00 -0.84926311992E+01  0.85870649634E+01  0.12700000000E+01 0.  1.
         25    2    1    2    0    0  0.00000000000E+00  0.00000000000E+00  0.44886610351E+03  0.46594756295E+03  0.12500541002E+03 0.  0.
    9000005    1    3    3    0    0 -0.18842812420E+02 -0.40249168684E+02  0.38820810430E+03  0.39074490323E+03  0.10000000000E+01 0.  0.
    9000005    1    3    3    0    0  0.18842812420E+02  0.40249168684E+02  0.60657999215E+02  0.75202659716E+02  0.10000000000E+01 0.  0.
<mgrwt>
<rscale>  0 0.12500541E+03</rscale>
<asrwt>0</asrwt>
<pdfrwt beam="2">  1        4 0.13139581E-02 0.12500541E+03</pdfrwt>
<pdfrwt beam="1">  1       -4 0.70370297E-01 0.12500541E+03</pdfrwt>
<totfact> 0.58599743E+03</totfact>
</mgrwt>
</event>
<event>
 5    1  0.3282421E-002  0.1249997E+03  0.7818608E-02  0.1235070E+00
          4   -1    0    0  501    0  0.00000000000E+00  0.00000000000E+00  0.19405993782E+03  0.19406409345E+03  0.12700000000E+01 0.  1.
         -4   -1    0    0    0  501 -0.00000000000E+00 -0.00000000000E+00 -0.20104592627E+02  0.20144665415E+02  0.12700000000E+01 0.  1.
         25    2    1    2    0    0  0.00000000000E+00  0.00000000000E+00  0.17395534520E+03  0.21420875887E+03  0.12499972101E+03 0.  0.
    9000005    1    3    3    0    0  0.61744463161E+02 -0.77299751122E+01  0.77118265049E+02  0.99097719703E+02  0.10000000000E+01 0.  0.
    9000005    1    3    3    0    0 -0.61744463161E+02  0.77299751122E+01  0.96837080149E+02  0.11511103917E+03  0.10000000000E+01 0.  0.
<mgrwt>
<rscale>  0 0.12499972E+03</rscale>
<asrwt>0</asrwt>
<pdfrwt beam="1">  1        4 0.29858778E-01 0.12499972E+03</pdfrwt>
<pdfrwt beam="2">  1       -4 0.30964164E-02 0.12499972E+03</pdfrwt>
<totfact> 0.87793662E+03</totfact>
</mgrwt>
</event>
<event>
 5    1  0.3282421E-002  0.1250034E+03  0.7818608E-02  0.1235064E+00
         -4   -1    0    0    0  501 -0.00000000000E+00  0.00000000000E+00  0.80958847715E+03  0.80958947327E+03  0.12700000000E+01 0. -1.
          4   -1    0    0  501    0  0.00000000000E+00 -0.00000000000E+00 -0.47406610501E+01  0.49078271355E+01  0.12700000000E+01 0. -1.
         25    2    1    2    0    0  0.00000000000E+00  0.00000000000E+00  0.80484781610E+03  0.81449730040E+03  0.12500338112E+03 0.  0.
    9000005    1    3    3    0    0  0.20116309442E+02 -0.48659441478E+02  0.18309633836E+03  0.19051949053E+03  0.10000000000E+01 0.  0.
    9000005    1    3    3    0    0 -0.20116309442E+02  0.48659441478E+02  0.62175147773E+03  0.62397780987E+03  0.10000000000E+01 0.  0.
<mgrwt>
<rscale>  0 0.12500338E+03</rscale>
<asrwt>0</asrwt>
<pdfrwt beam="2">  1        4 0.74226749E-03 0.12500338E+03</pdfrwt>
<pdfrwt beam="1">  1       -4 0.12456510E+00 0.12500338E+03</pdfrwt>
<totfact> 0.37622863E+03</totfact>
</mgrwt>
</event>
<event>
 5    1  0.3282421E-002  0.1250004E+03  0.7818608E-02  0.1235069E+00
         -4   -1    0    0    0  501 -0.00000000000E+00  0.00000000000E+00  0.16080661456E+03  0.16081162951E+03  0.12700000000E+01 0.  1.
          4   -1    0    0  501    0  0.00000000000E+00 -0.00000000000E+00 -0.24269749221E+02  0.24302955113E+02  0.12700000000E+01 0.  1.
         25    2    1    2    0    0  0.00000000000E+00  0.00000000000E+00  0.13653686534E+03  0.18511458463E+03  0.12500037538E+03 0.  0.
    9000005    1    3    3    0    0 -0.55527760261E+02 -0.21092462437E+02  0.97024428125E+02  0.11376714721E+03  0.10000000000E+01 0.  0.
    9000005    1    3    3    0    0  0.55527760261E+02  0.21092462437E+02  0.39512437216E+02  0.71347437417E+02  0.10000000000E+01 0.  0.
<mgrwt>
<rscale>  0 0.12500038E+03</rscale>
<asrwt>0</asrwt>
<pdfrwt beam="2">  1        4 0.37367477E-02 0.12500038E+03</pdfrwt>
<pdfrwt beam="1">  1       -4 0.24742419E-01 0.12500038E+03</pdfrwt>
<totfact> 0.92703599E+03</totfact>
</mgrwt>
</event>
<event>
 5    1  0.3282421E-002  0.1249995E+03  0.7818608E-02  0.1235070E+00
          4   -1    0    0  501    0  0.00000000000E+00  0.00000000000E+00  0.53702465551E+02  0.53717480453E+02  0.12700000000E+01 0.  1.
         -4   -1    0    0    0  501 -0.00000000000E+00 -0.00000000000E+00 -0.72707428381E+02  0.72718519249E+02  0.12700000000E+01 0.  1.
         25    2    1    2    0    0  0.00000000000E+00  0.00000000000E+00 -0.19004962830E+02  0.12643599970E+03  0.12499949363E+03 0.  0.
    9000005    1    3    3    0    0 -0.50066529944E+02  0.11899373911E+02 -0.45363632806E+02  0.68608393812E+02  0.10000000000E+01 0.  0.
    9000005    1    3    3    0    0  0.50066529944E+02 -0.11899373911E+02  0.26358669976E+02  0.57827605890E+02  0.10000000000E+01 0.  0.
<mgrwt>
<rscale>  0 0.12499949E+03</rscale>
<asrwt>0</asrwt>
<pdfrwt beam="1">  1        4 0.82639259E-02 0.12499949E+03</pdfrwt>
<pdfrwt beam="2">  1       -4 0.11187766E-01 0.12499949E+03</pdfrwt>
<totfact> 0.10421543E+04</totfact>
</mgrwt>
</event>
<event>
 5    1  0.3282421E-002  0.1250015E+03  0.7818608E-02  0.1235067E+00
          4   -1    0    0  501    0  0.00000000000E+00  0.00000000000E+00  0.52650195256E+02  0.52665510161E+02  0.12700000000E+01 0. -1.
         -4   -1    0    0    0  501 -0.00000000000E+00 -0.00000000000E+00 -0.74162805071E+02  0.74173678323E+02  0.12700000000E+01 0. -1.
         25    2    1    2    0    0  0.00000000000E+00  0.00000000000E+00 -0.21512609815E+02  0.12683918848E+03  0.12500154941E+03 0.  0.
    9000005    1    3    3    0    0  0.10299459994E+02  0.56876944527E+02 -0.34860122246E+02  0.67507731542E+02  0.10000000000E+01 0.  0.
    9000005    1    3    3    0    0 -0.10299459994E+02 -0.56876944527E+02  0.13347512431E+02  0.59331456943E+02  0.10000000000E+01 0.  0.
<mgrwt>
<rscale>  0 0.12500155E+03</rscale>
<asrwt>0</asrwt>
<pdfrwt beam="1">  1        4 0.81020445E-02 0.12500155E+03</pdfrwt>
<pdfrwt beam="2">  1       -4 0.11411677E-01 0.12500155E+03</pdfrwt>
<totfact> 0.10412277E+04</totfact>
</mgrwt>
</event>
<event>
 5    1  0.3282421E-002  0.1249972E+03  0.7818608E-02  0.1235074E+00
          4   -1    0    0  501    0  0.00000000000E+00  0.00000000000E+00  0.17296099012E+02  0.17342662455E+02  0.12700000000E+01 0. -1.
         -4   -1    0    0    0  501 -0.00000000000E+00 -0.00000000000E+00 -0.22548364992E+03  0.22548722642E+03  0.12700000000E+01 0. -1.
         25    2    1    2    0    0  0.00000000000E+00  0.00000000000E+00 -0.20818755090E+03  0.24282988888E+03  0.12499719429E+03 0.  0.
    9000005    1    3    3    0    0 -0.47226037860E+02 -0.27336271741E+02 -0.16325808875E+03  0.17213882173E+03  0.10000000000E+01 0.  0.
    9000005    1    3    3    0    0  0.47226037860E+02  0.27336271741E+02 -0.44929462151E+02  0.70691067143E+02  0.10000000000E+01 0.  0.
<mgrwt>
<rscale>  0 0.12499719E+03</rscale>
<asrwt>0</asrwt>
<pdfrwt beam="1">  1        4 0.26647954E-02 0.12499719E+03</pdfrwt>
<pdfrwt beam="2">  1       -4 0.34693647E-01 0.12499719E+03</pdfrwt>
<totfact> 0.83382918E+03</totfact>
</mgrwt>
</event>
<event>
 5    1  0.3282421E-002  0.1249939E+03  0.7818608E-02  0.1235079E+00
         -4   -1    0    0    0  501 -0.00000000000E+00  0.00000000000E+00  0.56035602014E+03  0.56035745931E+03  0.12700000000E+01 0. -1.
          4   -1    0    0  501    0  0.00000000000E+00 -0.00000000000E+00 -0.69110297862E+01  0.70267512199E+01  0.12700000000E+01 0. -1.
         25    2    1    2    0    0  0.00000000000E+00  0.00000000000E+00  0.55344499035E+03  0.56738421053E+03  0.12499393991E+03 0.  0.
    9000005    1    3    3    0    0 -0.49403591453E+02  0.33590093287E+02  0.19353295041E+03  0.20254632090E+03  0.10000000000E+01 0.  0.
    9000005    1    3    3    0    0  0.49403591453E+02 -0.33590093287E+02  0.35991203994E+03  0.36483788963E+03  0.10000000000E+01 0.  0.
<mgrwt>
<rscale>  0 0.12499394E+03</rscale>
<asrwt>0</asrwt>
<pdfrwt beam="2">  1        4 0.10722474E-02 0.12499394E+03</pdfrwt>
<pdfrwt beam="1">  1       -4 0.86217653E-01 0.12499394E+03</pdfrwt>
<totfact> 0.51000105E+03</totfact>
</mgrwt>
</event>
<event>
 5    1  0.3282421E-002  0.1250041E+03  0.7818608E-02  0.1235063E+00
         -4   -1    0    0    0  501 -0.00000000000E+00  0.00000000000E+00  0.23259359357E+02  0.23294005617E+02  0.12700000000E+01 0.  1.
          4   -1    0    0  501    0  0.00000000000E+00 -0.00000000000E+00 -0.16779218877E+03  0.16779699494E+03  0.12700000000E+01 0.  1.
         25    2    1    2    0    0  0.00000000000E+00  0.00000000000E+00 -0.14453282941E+03  0.19109100056E+03  0.12500412680E+03 0.  0.
    9000005    1    3    3    0    0  0.25090799876E+02 -0.31829112722E+02 -0.14498500054E+03  0.15054664073E+03  0.10000000000E+01 0.  0.
    9000005    1    3    3    0    0 -0.25090799876E+02  0.31829112722E+02  0.45217112441E+00  0.40544359828E+02  0.10000000000E+01 0.  0.
<mgrwt>
<rscale>  0 0.12500413E+03</rscale>
<asrwt>0</asrwt>
<pdfrwt beam="2">  1        4 0.25817217E-01 0.12500413E+03</pdfrwt>
<pdfrwt beam="1">  1       -4 0.35813979E-02 0.12500413E+03</pdfrwt>
<totfact> 0.91649359E+03</totfact>
</mgrwt>
</event>
<event>
 5    1  0.3282421E-002  0.1250088E+03  0.7818608E-02  0.1235056E+00
         -4   -1    0    0    0  501 -0.00000000000E+00  0.00000000000E+00  0.38777976608E+02  0.38798767633E+02  0.12700000000E+01 0.  1.
          4   -1    0    0  501    0  0.00000000000E+00 -0.00000000000E+00 -0.10069610249E+03  0.10070411092E+03  0.12700000000E+01 0.  1.
         25    2    1    2    0    0  0.00000000000E+00  0.00000000000E+00 -0.61918125881E+02  0.13950287855E+03  0.12500879494E+03 0.  0.
    9000005    1    3    3    0    0  0.18379410459E+02  0.54761820912E+02 -0.43363607480E+01  0.57934996185E+02  0.10000000000E+01 0.  0.
    9000005    1    3    3    0    0 -0.18379410459E+02 -0.54761820912E+02 -0.57581765133E+02  0.81567882370E+02  0.10000000000E+01 0.  0.
<mgrwt>
<rscale>  0 0.12500879E+03</rscale>
<asrwt>0</asrwt>
<pdfrwt beam="2">  1        4 0.15493923E-01 0.12500879E+03</pdfrwt>
<pdfrwt beam="1">  1       -4 0.59680579E-02 0.12500879E+03</pdfrwt>
<totfact> 0.10141889E+04</totfact>
</mgrwt>
</event>
<event>
 5    1  0.3282421E-002  0.1250030E+03  0.7818608E-02  0.1235065E+00
         -4   -1    0    0    0  501 -0.00000000000E+00  0.00000000000E+00  0.83325091969E+02  0.83334769764E+02  0.12700000000E+01 0.  1.
          4   -1    0    0  501    0  0.00000000000E+00 -0.00000000000E+00 -0.46860880750E+02  0.46878087042E+02  0.12700000000E+01 0.  1.
         25    2    1    2    0    0  0.00000000000E+00  0.00000000000E+00  0.36464211219E+02  0.13021285681E+03  0.12500299747E+03 0.  0.
    9000005    1    3    3    0    0 -0.51760652268E+02 -0.34574150465E+02  0.24022592394E+02  0.66727969765E+02  0.10000000000E+01 0.  0.
    9000005    1    3    3    0    0  0.51760652268E+02  0.34574150465E+02  0.12441618825E+02  0.63484887041E+02  0.10000000000E+01 0.  0.
<mgrwt>
<rscale>  0 0.12500300E+03</rscale>
<asrwt>0</asrwt>
<pdfrwt beam="2">  1        4 0.72114343E-02 0.12500300E+03</pdfrwt>
<pdfrwt beam="1">  1       -4 0.12821313E-01 0.12500300E+03</pdfrwt>
<totfact> 0.10339257E+04</totfact>
</mgrwt>
</event>
<event>
 5    1  0.3282421E-002  0.1250008E+03  0.7818608E-02  0.1235068E+00
          4   -1    0    0  501    0  0.00000000000E+00  0.00000000000E+00  0.13525839882E+02  0.13585331961E+02  0.12700000000E+01 0. -1.
         -4   -1    0    0    0  501 -0.00000000000E+00 -0.00000000000E+00 -0.28810808002E+03  0.28811087913E+03  0.12700000000E+01 0. -1.
         25    2    1    2    0    0  0.00000000000E+00  0.00000000000E+00 -0.27458224014E+03  0.30169621109E+03  0.12500078875E+03 0.  0.
    9000005    1    3    3    0    0 -0.26661730286E+02 -0.52090219559E+02 -0.19022782858E+03  0.19902729864E+03  0.10000000000E+01 0.  0.
    9000005    1    3    3    0    0  0.26661730286E+02  0.52090219559E+02 -0.84354411556E+02  0.10266891245E+03  0.10000000000E+01 0.  0.
<mgrwt>
<rscale>  0 0.12500079E+03</rscale>
<asrwt>0</asrwt>
<pdfrwt beam="1">  1        4 0.20856903E-02 0.12500079E+03</pdfrwt>
<pdfrwt beam="2">  1       -4 0.44329107E-01 0.12500079E+03</pdfrwt>
<totfact> 0.75385243E+03</totfact>
</mgrwt>
</event>
<event>
 5    1  0.3282421E-002  0.1250047E+03  0.7818608E-02  0.1235062E+00
          4   -1    0    0  501    0  0.00000000000E+00  0.00000000000E+00  0.11423462123E+02  0.11493841259E+02  0.12700000000E+01 0.  1.
         -4   -1    0    0    0  501 -0.00000000000E+00 -0.00000000000E+00 -0.34085344732E+03  0.34085581328E+03  0.12700000000E+01 0.  1.
         25    2    1    2    0    0  0.00000000000E+00  0.00000000000E+00 -0.32942998519E+03  0.35234965454E+03  0.12500465555E+03 0.  0.
    9000005    1    3    3    0    0  0.50741222212E+02  0.36357118450E+02 -0.17318481524E+03  0.18409370419E+03  0.10000000000E+01 0.  0.
    9000005    1    3    3    0    0 -0.50741222212E+02 -0.36357118450E+02 -0.15624516995E+03  0.16825595034E+03  0.10000000000E+01 0.  0.
<mgrwt>
<rscale>  0 0.12500466E+03</rscale>
<asrwt>0</asrwt>
<pdfrwt beam="1">  1        4 0.17630518E-02 0.12500466E+03</pdfrwt>
<pdfrwt beam="2">  1       -4 0.52444580E-01 0.12500466E+03</pdfrwt>
<totfact> 0.69459684E+03</totfact>
</mgrwt>
</event>
<event>
 5    1  0.3282421E-002  0.1249988E+03  0.7818608E-02  0.1235071E+00
          4   -1    0    0  501    0  0.00000000000E+00  0.00000000000E+00  0.59330572936E+02  0.59344163866E+02  0.12700000000E+01 0. -1.
         -4   -1    0    0    0  501 -0.00000000000E+00 -0.00000000000E+00 -0.65810235531E+02  0.65822488563E+02  0.12700000000E+01 0. -1.
         25    2    1    2    0    0  0.00000000000E+00  0.00000000000E+00 -0.64796625946E+01  0.12516665243E+03  0.12499881941E+03 0.  0.
    9000005    1    3    3    0    0  0.31505669278E+02 -0.53945819258E+02 -0.47967826817E+01  0.62663926913E+02  0.10000000000E+01 0.  0.
    9000005    1    3    3    0    0 -0.31505669278E+02  0.53945819258E+02 -0.16828799129E+01  0.62502725516E+02  0.10000000000E+01 0.  0.
<mgrwt>
<rscale>  0 0.12499882E+03</rscale>
<asrwt>0</asrwt>
<pdfrwt beam="1">  1        4 0.91297684E-02 0.12499882E+03</pdfrwt>
<pdfrwt beam="2">  1       -4 0.10126640E-01 0.12499882E+03</pdfrwt>
<totfact> 0.10449523E+04</totfact>
</mgrwt>
</event>
<event>
 5    1  0.3282421E-002  0.1250027E+03  0.7818608E-02  0.1235065E+00
          4   -1    0    0  501    0  0.00000000000E+00  0.00000000000E+00  0.61562481580E+01  0.62858803189E+01  0.12700000000E+01 0. -1.
         -4   -1    0    0    0  501 -0.00000000000E+00 -0.00000000000E+00 -0.62780365517E+03  0.62780493972E+03  0.12700000000E+01 0. -1.
         25    2    1    2    0    0  0.00000000000E+00  0.00000000000E+00 -0.62164740701E+03  0.63409082004E+03  0.12500267765E+03 0.  0.
    9000005    1    3    3    0    0 -0.33480224274E+02 -0.50763511690E+02 -0.38390423525E+03  0.38869180771E+03  0.10000000000E+01 0.  0.
    9000005    1    3    3    0    0  0.33480224274E+02  0.50763511690E+02 -0.23774317176E+03  0.24539901233E+03  0.10000000000E+01 0.  0.
<mgrwt>
<rscale>  0 0.12500268E+03</rscale>
<asrwt>0</asrwt>
<pdfrwt beam="1">  1        4 0.95718611E-03 0.12500268E+03</pdfrwt>
<pdfrwt beam="2">  1       -4 0.96595198E-01 0.12500268E+03</pdfrwt>
<totfact> 0.46781337E+03</totfact>
</mgrwt>
</event>
<event>
 5    1  0.3282421E-002  0.1249876E+03  0.7818608E-02  0.1235089E+00
          4   -1    0    0  501    0  0.00000000000E+00  0.00000000000E+00  0.97573616603E+03  0.97573699253E+03  0.12700000000E+01 0. -1.
         -4   -1    0    0    0  501 -0.00000000000E+00 -0.00000000000E+00 -0.39010035345E+01  0.41025270964E+01  0.12700000000E+01 0. -1.
         25    2    1    2    0    0  0.00000000000E+00  0.00000000000E+00  0.97183516249E+03  0.97983951963E+03  0.12498760405E+03 0.  0.
    9000005    1    3    3    0    0  0.40943473439E+02 -0.45588443273E+02  0.38996745934E+03  0.39475345917E+03  0.10000000000E+01 0.  0.
    9000005    1    3    3    0    0 -0.40943473439E+02  0.45588443273E+02  0.58186770315E+03  0.58508606046E+03  0.10000000000E+01 0.  0.
<mgrwt>
<rscale>  0 0.12498760E+03</rscale>
<asrwt>0</asrwt>
<pdfrwt beam="1">  1        4 0.15012857E+00 0.12498760E+03</pdfrwt>
<pdfrwt beam="2">  1       -4 0.61572082E-03 0.12498760E+03</pdfrwt>
<totfact> 0.31288186E+03</totfact>
</mgrwt>
</event>
<event>
 5    1  0.3282421E-002  0.1249883E+03  0.7818608E-02  0.1235087E+00
          4   -1    0    0  501    0  0.00000000000E+00  0.00000000000E+00  0.71062156579E+01  0.72188088337E+01  0.12700000000E+01 0. -1.
         -4   -1    0    0    0  501 -0.00000000000E+00 -0.00000000000E+00 -0.54515925649E+03  0.54516073578E+03  0.12700000000E+01 0. -1.
         25    2    1    2    0    0  0.00000000000E+00  0.00000000000E+00 -0.53805304083E+03  0.55237954461E+03  0.12498834569E+03 0.  0.
    9000005    1    3    3    0    0 -0.21191268599E+02 -0.58615056654E+02 -0.24939754721E+03  0.25706989572E+03  0.10000000000E+01 0.  0.
    9000005    1    3    3    0    0  0.21191268599E+02  0.58615056654E+02 -0.28865549362E+03  0.29530964889E+03  0.10000000000E+01 0.  0.
<mgrwt>
<rscale>  0 0.12498835E+03</rscale>
<asrwt>0</asrwt>
<pdfrwt beam="1">  1        4 0.11020392E-02 0.12498835E+03</pdfrwt>
<pdfrwt beam="2">  1       -4 0.83879397E-01 0.12498835E+03</pdfrwt>
<totfact> 0.52031801E+03</totfact>
</mgrwt>
</event>
<event>
 5    1  0.3282421E-002  0.1249978E+03  0.7818608E-02  0.1235073E+00
          4   -1    0    0  501    0  0.00000000000E+00  0.00000000000E+00  0.26872119850E+02  0.26902113768E+02  0.12700000000E+01 0.  1.
         -4   -1    0    0    0  501 -0.00000000000E+00 -0.00000000000E+00 -0.14524554938E+03  0.14525110160E+03  0.12700000000E+01 0.  1.
         25    2    1    2    0    0  0.00000000000E+00  0.00000000000E+00 -0.11837342953E+03  0.17215321537E+03  0.12499784295E+03 0.  0.
    9000005    1    3    3    0    0 -0.40926032181E+02 -0.46933511750E+02 -0.66398631468E+02  0.91035558416E+02  0.10000000000E+01 0.  0.
    9000005    1    3    3    0    0  0.40926032181E+02  0.46933511750E+02 -0.51974798065E+02  0.81117656951E+02  0.10000000000E+01 0.  0.
<mgrwt>
<rscale>  0 0.12499784E+03</rscale>
<asrwt>0</asrwt>
<pdfrwt beam="1">  1        4 0.41369067E-02 0.12499784E+03</pdfrwt>
<pdfrwt beam="2">  1       -4 0.22348203E-01 0.12499784E+03</pdfrwt>
<totfact> 0.95053424E+03</totfact>
</mgrwt>
</event>
<event>
 4    1  0.3282421E-002  0.1250667E+03  0.7818608E-02  0.1234965E+00
         -4   -1    0    0    0  501 -0.00000000000E+00  0.00000000000E+00  0.23443159091E+02  0.23477534116E+02  0.12700000000E+01 0. -1.
          4   -1    0    0  501    0  0.00000000000E+00 -0.00000000000E+00 -0.16664543728E+03  0.16665027653E+03  0.12700000000E+01 0. -1.
    9000005    1    1    2    0    0 -0.51508714530E+02  0.11733274044E+02 -0.12244543937E+03  0.13335930045E+03  0.10000000000E+01 0.  0.
    9000005    1    1    2    0    0  0.51508714530E+02 -0.11733274044E+02 -0.20756838816E+02  0.56768510196E+02  0.10000000000E+01 0.  0.
<mgrwt>
<rscale>  0 0.12506675E+03</rscale>
<asrwt>0</asrwt>
<pdfrwt beam="2">  1        4 0.25640775E-01 0.12506675E+03</pdfrwt>
<pdfrwt beam="1">  1       -4 0.36096564E-02 0.12506675E+03</pdfrwt>
<totfact> 0.91687922E+03</totfact>
</mgrwt>
</event>
<event>
 5    1  0.3282421E-002  0.1249966E+03  0.7818608E-02  0.1235075E+00
         -4   -1    0    0    0  501 -0.00000000000E+00  0.00000000000E+00  0.47632544608E+02  0.47649472251E+02  0.12700000000E+01 0. -1.
          4   -1    0    0  501    0  0.00000000000E+00 -0.00000000000E+00 -0.81967118604E+02  0.81976956715E+02  0.12700000000E+01 0. -1.
         25    2    1    2    0    0  0.00000000000E+00  0.00000000000E+00 -0.34334573996E+02  0.12962642897E+03  0.12499659241E+03 0.  0.
    9000005    1    3    3    0    0  0.39778264502E+02 -0.46855293671E+02 -0.28868300994E+02  0.67912500131E+02  0.10000000000E+01 0.  0.
    9000005    1    3    3    0    0 -0.39778264502E+02  0.46855293671E+02 -0.54662730016E+01  0.61713928835E+02  0.10000000000E+01 0.  0.
<mgrwt>
<rscale>  0 0.12499659E+03</rscale>
<asrwt>0</asrwt>
<pdfrwt beam="2">  1        4 0.12612385E-01 0.12499659E+03</pdfrwt>
<pdfrwt beam="1">  1       -4 0.73301427E-02 0.12499659E+03</pdfrwt>
<totfact> 0.10353302E+04</totfact>
</mgrwt>
</event>
<event>
 5    1  0.3282421E-002  0.1249985E+03  0.7818608E-02  0.1235072E+00
          4   -1    0    0  501    0  0.00000000000E+00  0.00000000000E+00  0.40861203742E+03  0.40861401105E+03  0.12700000000E+01 0.  1.
         -4   -1    0    0    0  501 -0.00000000000E+00 -0.00000000000E+00 -0.95153888965E+01  0.95997669686E+01  0.12700000000E+01 0.  1.
         25    2    1    2    0    0  0.00000000000E+00  0.00000000000E+00  0.39909664852E+03  0.41821377802E+03  0.12499851703E+03 0.  0.
    9000005    1    3    3    0    0  0.32250993326E+02 -0.50178139684E+02  0.13720729345E+03  0.14961555283E+03  0.10000000000E+01 0.  0.
    9000005    1    3    3    0    0 -0.32250993326E+02  0.50178139684E+02  0.26188935507E+03  0.26859822518E+03  0.10000000000E+01 0.  0.
<mgrwt>
<rscale>  0 0.12499852E+03</rscale>
<asrwt>0</asrwt>
<pdfrwt beam="1">  1        4 0.62870052E-01 0.12499852E+03</pdfrwt>
<pdfrwt beam="2">  1       -4 0.14705480E-02 0.12499852E+03</pdfrwt>
<totfact> 0.62821109E+03</totfact>
</mgrwt>
</event>
<event>
 5    1  0.3282421E-002  0.1250000E+03  0.7818608E-02  0.1235069E+00
         -4   -1    0    0    0  501 -0.00000000000E+00  0.00000000000E+00  0.83193050482E+02  0.83202743635E+02  0.12700000000E+01 0. -1.
          4   -1    0    0  501    0  0.00000000000E+00 -0.00000000000E+00 -0.46933017485E+02  0.46950197340E+02  0.12700000000E+01 0. -1.
         25    2    1    2    0    0  0.00000000000E+00  0.00000000000E+00  0.36260032997E+02  0.13015294098E+03  0.12499999221E+03 0.  0.
    9000005    1    3    3    0    0  0.39191560190E+01 -0.56127527007E+02  0.46446521225E+02  0.72965323310E+02  0.10000000000E+01 0.  0.
    9000005    1    3    3    0    0 -0.39191560190E+01  0.56127527007E+02 -0.10186488229E+02  0.57187617665E+02  0.10000000000E+01 0.  0.
<mgrwt>
<rscale>  0 0.12499999E+03</rscale>
<asrwt>0</asrwt>
<pdfrwt beam="2">  1        4 0.72225314E-02 0.12499999E+03</pdfrwt>
<pdfrwt beam="1">  1       -4 0.12800998E-01 0.12499999E+03</pdfrwt>
<totfact> 0.10341239E+04</totfact>
</mgrwt>
</event>
<event>
 5    1  0.3282421E-002  0.1250015E+03  0.7818608E-02  0.1235067E+00
          4   -1    0    0  501    0  0.00000000000E+00  0.00000000000E+00  0.24609713145E+02  0.24642460938E+02  0.12700000000E+01 0.  1.
         -4   -1    0    0    0  501 -0.00000000000E+00 -0.00000000000E+00 -0.15859103832E+03  0.15859612333E+03  0.12700000000E+01 0.  1.
         25    2    1    2    0    0  0.00000000000E+00  0.00000000000E+00 -0.13398132517E+03  0.18323858427E+03  0.12500153307E+03 0.  0.
    9000005    1    3    3    0    0  0.14904673334E+02  0.57169173241E+02 -0.37132438777E+02  0.69787403346E+02  0.10000000000E+01 0.  0.
    9000005    1    3    3    0    0 -0.14904673334E+02 -0.57169173241E+02 -0.96848886396E+02  0.11345118092E+03  0.10000000000E+01 0.  0.
<mgrwt>
<rscale>  0 0.12500153E+03</rscale>
<asrwt>0</asrwt>
<pdfrwt beam="1">  1        4 0.37890200E-02 0.12500153E+03</pdfrwt>
<pdfrwt beam="2">  1       -4 0.24401531E-01 0.12500153E+03</pdfrwt>
<totfact> 0.93034078E+03</totfact>
</mgrwt>
</event>
<event>
 5    1  0.3282421E-002  0.1250004E+03  0.7818608E-02  0.1235069E+00
          4   -1    0    0  501    0  0.00000000000E+00  0.00000000000E+00  0.61218888879E+03  0.61219020611E+03  0.12700000000E+01 0.  1.
         -4   -1    0    0    0  501 -0.00000000000E+00 -0.00000000000E+00 -0.63163035899E+01  0.64427161229E+01  0.12700000000E+01 0.  1.
         25    2    1    2    0    0  0.00000000000E+00  0.00000000000E+00  0.60587258520E+03  0.61863292224E+03  0.12500041190E+03 0.  0.
    9000005    1    3    3    0    0  0.24107588012E+02 -0.27163401491E+02  0.51251601819E+02  0.62823187354E+02  0.10000000000E+01 0.  0.
    9000005    1    3    3    0    0 -0.24107588012E+02  0.27163401491E+02  0.55462098338E+03  0.55580973488E+03  0.10000000000E+01 0.  0.
<mgrwt>
<rscale>  0 0.12500041E+03</rscale>
<asrwt>0</asrwt>
<pdfrwt beam="1">  1        4 0.94192750E-01 0.12500041E+03</pdfrwt>
<pdfrwt beam="2">  1       -4 0.98156419E-03 0.12500041E+03</pdfrwt>
<totfact> 0.47711742E+03</totfact>
</mgrwt>
</event>
<event>
 5    1  0.3282421E-002  0.1249999E+03  0.7818608E-02  0.1235070E+00
          4   -1    0    0  501    0  0.00000000000E+00  0.00000000000E+00  0.86655621740E+01  0.87581315240E+01  0.12700000000E+01 0.  1.
         -4   -1    0    0    0  501 -0.00000000000E+00 -0.00000000000E+00 -0.44828914514E+03  0.44829094409E+03  0.12700000000E+01 0.  1.
         25    2    1    2    0    0  0.00000000000E+00  0.00000000000E+00 -0.43962358297E+03  0.45704907561E+03  0.12499985127E+03 0.  0.
    9000005    1    3    3    0    0 -0.90074192447E+01 -0.20743355944E+02 -0.43282069625E+03  0.43341224662E+03  0.10000000000E+01 0.  0.
    9000005    1    3    3    0    0  0.90074192447E+01  0.20743355944E+02 -0.68028867204E+01  0.23636828996E+02  0.10000000000E+01 0.  0.
<mgrwt>
<rscale>  0 0.12499985E+03</rscale>
<asrwt>0</asrwt>
<pdfrwt beam="1">  1        4 0.13404229E-02 0.12499985E+03</pdfrwt>
<pdfrwt beam="2">  1       -4 0.68974802E-01 0.12499985E+03</pdfrwt>
<totfact> 0.59358164E+03</totfact>
</mgrwt>
</event>
<event>
 5    1  0.3282421E-002  0.1250011E+03  0.7818608E-02  0.1235068E+00
          4   -1    0    0  501    0  0.00000000000E+00  0.00000000000E+00  0.35904645030E+02  0.35927098891E+02  0.12700000000E+01 0.  1.
         -4   -1    0    0    0  501 -0.00000000000E+00 -0.00000000000E+00 -0.10873691454E+03  0.10874433081E+03  0.12700000000E+01 0.  1.
         25    2    1    2    0    0  0.00000000000E+00  0.00000000000E+00 -0.72832269509E+02  0.14467142970E+03  0.12500113235E+03 0.  0.
    9000005    1    3    3    0    0 -0.57910693510E+02  0.19317843586E+02 -0.20953633504E+02  0.64551392398E+02  0.10000000000E+01 0.  0.
    9000005    1    3    3    0    0  0.57910693510E+02 -0.19317843586E+02 -0.51878636005E+02  0.80120037302E+02  0.10000000000E+01 0.  0.
<mgrwt>
<rscale>  0 0.12500113E+03</rscale>
<asrwt>0</asrwt>
<pdfrwt beam="1">  1        4 0.55260893E-02 0.12500113E+03</pdfrwt>
<pdfrwt beam="2">  1       -4 0.16731054E-01 0.12500113E+03</pdfrwt>
<totfact> 0.10037413E+04</totfact>
</mgrwt>
</event>
<event>
 5    1  0.3282421E-002  0.1250012E+03  0.7818608E-02  0.1235067E+00
         -4   -1    0    0    0  501 -0.00000000000E+00  0.00000000000E+00  0.26020572453E+01  0.28954450276E+01  0.12700000000E+01 0.  1.
          4   -1    0    0  501    0  0.00000000000E+00 -0.00000000000E+00 -0.14208325500E+04  0.14208331176E+04  0.12700000000E+01 0.  1.
         25    2    1    2    0    0  0.00000000000E+00  0.00000000000E+00 -0.14182304928E+04  0.14237285626E+04  0.12500115773E+03 0.  0.
    9000005    1    3    3    0    0 -0.33143240470E+02 -0.30477214499E+02 -0.21553303928E+03  0.22018816048E+03  0.10000000000E+01 0.  0.
    9000005    1    3    3    0    0  0.33143240470E+02  0.30477214499E+02 -0.12026974535E+04  0.12035404022E+04  0.10000000000E+01 0.  0.
<mgrwt>
<rscale>  0 0.12500116E+03</rscale>
<asrwt>0</asrwt>
<pdfrwt beam="2">  1        4 0.21861165E+00 0.12500116E+03</pdfrwt>
<pdfrwt beam="1">  1       -4 0.42292959E-03 0.12500116E+03</pdfrwt>
<totfact> 0.19476968E+03</totfact>
</mgrwt>
</event>
<event>
 5    1  0.3282421E-002  0.1249821E+03  0.7818608E-02  0.1235097E+00
         -4   -1    0    0    0  501 -0.00000000000E+00  0.00000000000E+00  0.21085657443E+02  0.21123869196E+02  0.12700000000E+01 0. -1.
          4   -1    0    0  501    0  0.00000000000E+00 -0.00000000000E+00 -0.18499510849E+03  0.18499946774E+03  0.12700000000E+01 0. -1.
         25    2    1    2    0    0  0.00000000000E+00  0.00000000000E+00 -0.16390945105E+03  0.20612333694E+03  0.12498208627E+03 0.  0.
    9000005    1    3    3    0    0  0.57304967719E+02  0.18158397246E+02 -0.53843151176E+02  0.80707320885E+02  0.10000000000E+01 0.  0.
    9000005    1    3    3    0    0 -0.57304967719E+02 -0.18158397246E+02 -0.11006629987E+03  0.12541601605E+03  0.10000000000E+01 0.  0.
<mgrwt>
<rscale>  0 0.12498209E+03</rscale>
<asrwt>0</asrwt>
<pdfrwt beam="2">  1        4 0.28464060E-01 0.12498209E+03</pdfrwt>
<pdfrwt beam="1">  1       -4 0.32472221E-02 0.12498209E+03</pdfrwt>
<totfact> 0.89148642E+03</totfact>
</mgrwt>
</event>
<event>
 5    1  0.3282421E-002  0.1250042E+03  0.7818608E-02  0.1235063E+00
         -4   -1    0    0    0  501 -0.00000000000E+00  0.00000000000E+00  0.46952781399E+02  0.46969954025E+02  0.12700000000E+01 0. -1.
          4   -1    0    0  501    0  0.00000000000E+00 -0.00000000000E+00 -0.83163660810E+02  0.83173357389E+02  0.12700000000E+01 0. -1.
         25    2    1    2    0    0  0.00000000000E+00  0.00000000000E+00 -0.36210879411E+02  0.13014331141E+03  0.12500421480E+03 0.  0.
    9000005    1    3    3    0    0  0.31202069041E+02 -0.54022512014E+02 -0.21932499567E+02  0.66136491092E+02  0.10000000000E+01 0.  0.
    9000005    1    3    3    0    0 -0.31202069041E+02  0.54022512014E+02 -0.14278379845E+02  0.64006820322E+02  0.10000000000E+01 0.  0.
<mgrwt>
<rscale>  0 0.12500421E+03</rscale>
<asrwt>0</asrwt>
<pdfrwt beam="2">  1        4 0.12796476E-01 0.12500421E+03</pdfrwt>
<pdfrwt beam="1">  1       -4 0.72255717E-02 0.12500421E+03</pdfrwt>
<totfact> 0.10340459E+04</totfact>
</mgrwt>
</event>
<event>
 5    1  0.3282421E-002  0.1250010E+03  0.7818608E-02  0.1235068E+00
          4   -1    0    0  501    0  0.00000000000E+00  0.00000000000E+00  0.40098139629E+03  0.40098340747E+03  0.12700000000E+01 0. -1.
         -4   -1    0    0    0  501 -0.00000000000E+00 -0.00000000000E+00 -0.96984484388E+01  0.97812474726E+01  0.12700000000E+01 0. -1.
         25    2    1    2    0    0  0.00000000000E+00  0.00000000000E+00  0.39128294785E+03  0.41076465495E+03  0.12500102590E+03 0.  0.
    9000005    1    3    3    0    0  0.48055820703E+02 -0.39411448960E+02  0.17417097731E+03  0.18493013153E+03  0.10000000000E+01 0.  0.
    9000005    1    3    3    0    0 -0.48055820703E+02  0.39411448960E+02  0.21711197054E+03  0.22583452341E+03  0.10000000000E+01 0.  0.
<mgrwt>
<rscale>  0 0.12500103E+03</rscale>
<asrwt>0</asrwt>
<pdfrwt beam="1">  1        4 0.61695974E-01 0.12500103E+03</pdfrwt>
<pdfrwt beam="2">  1       -4 0.14985927E-02 0.12500103E+03</pdfrwt>
<totfact> 0.63517684E+03</totfact>
</mgrwt>
</event>
<event>
 5    1  0.3282421E-002  0.1249988E+03  0.7818608E-02  0.1235071E+00
         -4   -1    0    0    0  501 -0.00000000000E+00  0.00000000000E+00  0.50486507819E+03  0.50486667555E+03  0.12700000000E+01 0.  1.
          4   -1    0    0  501    0  0.00000000000E+00 -0.00000000000E+00 -0.76833349396E+01  0.77875885737E+01  0.12700000000E+01 0.  1.
         25    2    1    2    0    0  0.00000000000E+00  0.00000000000E+00  0.49718174325E+03  0.51265426412E+03  0.12499883478E+03 0.  0.
    9000005    1    3    3    0    0  0.58089586181E+02 -0.22155688941E+01  0.34264051415E+03  0.34753824352E+03  0.10000000000E+01 0.  0.
    9000005    1    3    3    0    0 -0.58089586181E+02  0.22155688941E+01  0.15454122910E+03  0.16511602060E+03  0.10000000000E+01 0.  0.
<mgrwt>
<rscale>  0 0.12499883E+03</rscale>
<asrwt>0</asrwt>
<pdfrwt beam="2">  1        4 0.11901941E-02 0.12499883E+03</pdfrwt>
<pdfrwt beam="1">  1       -4 0.77679680E-01 0.12499883E+03</pdfrwt>
<totfact> 0.54897157E+03</totfact>
</mgrwt>
</event>
<event>
 5    1  0.3282421E-002  0.1250001E+03  0.7818608E-02  0.1235069E+00
          4   -1    0    0  501    0  0.00000000000E+00  0.00000000000E+00  0.35225726704E+02  0.35248613048E+02  0.12700000000E+01 0.  1.
         -4   -1    0    0    0  501 -0.00000000000E+00 -0.00000000000E+00 -0.11082959700E+03  0.11083687325E+03  0.12700000000E+01 0.  1.
         25    2    1    2    0    0  0.00000000000E+00  0.00000000000E+00 -0.75603870298E+02  0.14608548630E+03  0.12500009641E+03 0.  0.
    9000005    1    3    3    0    0  0.32754661674E+02 -0.48609911455E+02 -0.12479924849E+02  0.59937800070E+02  0.10000000000E+01 0.  0.
    9000005    1    3    3    0    0 -0.32754661674E+02  0.48609911455E+02 -0.63123945449E+02  0.86147686226E+02  0.10000000000E+01 0.  0.
<mgrwt>
<rscale>  0 0.12500010E+03</rscale>
<asrwt>0</asrwt>
<pdfrwt beam="1">  1        4 0.54216628E-02 0.12500010E+03</pdfrwt>
<pdfrwt beam="2">  1       -4 0.17053027E-01 0.12500010E+03</pdfrwt>
<totfact> 0.10008959E+04</totfact>
</mgrwt>
</event>
<event>
 5    1  0.3282421E-002  0.1249996E+03  0.7818608E-02  0.1235070E+00
          4   -1    0    0  501    0  0.00000000000E+00  0.00000000000E+00  0.40226163890E+02  0.40246206794E+02  0.12700000000E+01 0. -1.
         -4   -1    0    0    0  501 -0.00000000000E+00 -0.00000000000E+00 -0.97058174066E+02  0.97066482645E+02  0.12700000000E+01 0. -1.
         25    2    1    2    0    0  0.00000000000E+00  0.00000000000E+00 -0.56832010176E+02  0.13731268944E+03  0.12499958920E+03 0.  0.
    9000005    1    3    3    0    0 -0.58044327648E+02 -0.40408376188E+01 -0.33722086130E+01  0.58291029599E+02  0.10000000000E+01 0.  0.
    9000005    1    3    3    0    0  0.58044327648E+02  0.40408376188E+01 -0.53459801563E+02  0.79021659840E+02  0.10000000000E+01 0.  0.
<mgrwt>
<rscale>  0 0.12499959E+03</rscale>
<asrwt>0</asrwt>
<pdfrwt beam="1">  1        4 0.61908215E-02 0.12499959E+03</pdfrwt>
<pdfrwt beam="2">  1       -4 0.14934208E-01 0.12499959E+03</pdfrwt>
<totfact> 0.10189646E+04</totfact>
</mgrwt>
</event>
<event>
 5    1  0.3282421E-002  0.1249956E+03  0.7818608E-02  0.1235076E+00
         -4   -1    0    0    0  501 -0.00000000000E+00  0.00000000000E+00  0.21168088937E+02  0.21206152156E+02  0.12700000000E+01 0. -1.
          4   -1    0    0  501    0  0.00000000000E+00 -0.00000000000E+00 -0.18431598100E+03  0.18432035632E+03  0.12700000000E+01 0. -1.
         25    2    1    2    0    0  0.00000000000E+00  0.00000000000E+00 -0.16314789207E+03  0.20552650847E+03  0.12499564392E+03 0.  0.
    9000005    1    3    3    0    0 -0.31649800170E+02 -0.48432039177E+02 -0.42746709363E+02  0.71942014366E+02  0.10000000000E+01 0.  0.
    9000005    1    3    3    0    0  0.31649800170E+02  0.48432039177E+02 -0.12040118270E+03  0.13358449411E+03  0.10000000000E+01 0.  0.
<mgrwt>
<rscale>  0 0.12499564E+03</rscale>
<asrwt>0</asrwt>
<pdfrwt beam="2">  1        4 0.28359568E-01 0.12499564E+03</pdfrwt>
<pdfrwt beam="1">  1       -4 0.32598937E-02 0.12499564E+03</pdfrwt>
<totfact> 0.89220405E+03</totfact>
</mgrwt>
</event>
<event>
 5    1  0.3282421E-002  0.1250004E+03  0.7818608E-02  0.1235069E+00
          4   -1    0    0  501    0  0.00000000000E+00  0.00000000000E+00  0.63659164205E+02  0.63671831191E+02  0.12700000000E+01 0.  1.
         -4   -1    0    0    0  501 -0.00000000000E+00 -0.00000000000E+00 -0.61337006319E+02  0.61350152764E+02  0.12700000000E+01 0.  1.
         25    2    1    2    0    0  0.00000000000E+00  0.00000000000E+00  0.23221578856E+01  0.12502198396E+03  0.12500041622E+03 0.  0.
    9000005    1    3    3    0    0 -0.41140636843E+02 -0.40870361980E+02  0.24453238417E+02  0.62943620465E+02  0.10000000000E+01 0.  0.
    9000005    1    3    3    0    0  0.41140636843E+02  0.40870361980E+02 -0.22131080531E+02  0.62078363490E+02  0.10000000000E+01 0.  0.
<mgrwt>
<rscale>  0 0.12500042E+03</rscale>
<asrwt>0</asrwt>
<pdfrwt beam="1">  1        4 0.97957031E-02 0.12500042E+03</pdfrwt>
<pdfrwt beam="2">  1       -4 0.94384482E-02 0.12500042E+03</pdfrwt>
<totfact> 0.10452287E+04</totfact>
</mgrwt>
</event>
<event>
 5    1  0.3282421E-002  0.1249993E+03  0.7818608E-02  0.1235070E+00
         -4   -1    0    0    0  501 -0.00000000000E+00  0.00000000000E+00  0.15817237356E+03  0.15817747203E+03  0.12700000000E+01 0. -1.
          4   -1    0    0  501    0  0.00000000000E+00 -0.00000000000E+00 -0.24674063847E+02  0.24706726346E+02  0.12700000000E+01 0. -1.
         25    2    1    2    0    0  0.00000000000E+00  0.00000000000E+00  0.13349830972E+03  0.18288419838E+03  0.12499932528E+03 0.  0.
    9000005    1    3    3    0    0 -0.39303759180E+02  0.41071223673E+02  0.28777273401E+02  0.63724111324E+02  0.10000000000E+01 0.  0.
    9000005    1    3    3    0    0  0.39303759180E+02 -0.41071223673E+02  0.10472103632E+03  0.11916008706E+03  0.10000000000E+01 0.  0.
<mgrwt>
<rscale>  0 0.12499933E+03</rscale>
<asrwt>0</asrwt>
<pdfrwt beam="2">  1        4 0.37989145E-02 0.12499933E+03</pdfrwt>
<pdfrwt beam="1">  1       -4 0.24337116E-01 0.12499933E+03</pdfrwt>
<totfact> 0.93101807E+03</totfact>
</mgrwt>
</event>
<event>
 5    1  0.3282421E-002  0.1249992E+03  0.7818608E-02  0.1235071E+00
          4   -1    0    0  501    0  0.00000000000E+00  0.00000000000E+00  0.16298102863E+02  0.16347509196E+02  0.12700000000E+01 0. -1.
         -4   -1    0    0    0  501 -0.00000000000E+00 -0.00000000000E+00 -0.23925809407E+03  0.23926146467E+03  0.12700000000E+01 0. -1.
         25    2    1    2    0    0  0.00000000000E+00  0.00000000000E+00 -0.22295999120E+03  0.25560897387E+03  0.12499915937E+03 0.  0.
    9000005    1    3    3    0    0  0.43432401283E+02 -0.44652052234E+02 -0.10125184464E+03  0.11888277963E+03  0.10000000000E+01 0.  0.
    9000005    1    3    3    0    0 -0.43432401283E+02  0.44652052234E+02 -0.12170814657E+03  0.13672619424E+03  0.10000000000E+01 0.  0.
<mgrwt>
<rscale>  0 0.12499916E+03</rscale>
<asrwt>0</asrwt>
<pdfrwt beam="1">  1        4 0.25114604E-02 0.12499916E+03</pdfrwt>
<pdfrwt beam="2">  1       -4 0.36812995E-01 0.12499916E+03</pdfrwt>
<totfact> 0.81527782E+03</totfact>
</mgrwt>
</event>
<event>
 5    1  0.3282421E-002  0.1250063E+03  0.7818608E-02  0.1235059E+00
         -4   -1    0    0    0  501 -0.00000000000E+00  0.00000000000E+00  0.59675011214E+02  0.59688523716E+02  0.12700000000E+01 0.  1.
          4   -1    0    0  501    0  0.00000000000E+00 -0.00000000000E+00 -0.65438269388E+02  0.65450592056E+02  0.12700000000E+01 0.  1.
         25    2    1    2    0    0  0.00000000000E+00  0.00000000000E+00 -0.57632581746E+01  0.12513911577E+03  0.12500633245E+03 0.  0.
    9000005    1    3    3    0    0  0.54635641871E+02 -0.13607795920E+02  0.24265810773E+02  0.61319287707E+02  0.10000000000E+01 0.  0.
    9000005    1    3    3    0    0 -0.54635641871E+02  0.13607795920E+02 -0.30029068947E+02  0.63819828065E+02  0.10000000000E+01 0.  0.
<mgrwt>
<rscale>  0 0.12500633E+03</rscale>
<asrwt>0</asrwt>
<pdfrwt beam="2">  1        4 0.10069413E-01 0.12500633E+03</pdfrwt>
<pdfrwt beam="1">  1       -4 0.91827583E-02 0.12500633E+03</pdfrwt>
<totfact> 0.10448346E+04</totfact>
</mgrwt>
</event>
<event>
 5    1  0.3282421E-002  0.1249718E+03  0.7818608E-02  0.1235113E+00
         -4   -1    0    0    0  501 -0.00000000000E+00  0.00000000000E+00  0.16186753964E+03  0.16187252172E+03  0.12700000000E+01 0. -1.
          4   -1    0    0  501    0  0.00000000000E+00 -0.00000000000E+00 -0.24099439553E+02  0.24132879786E+02  0.12700000000E+01 0. -1.
         25    2    1    2    0    0  0.00000000000E+00  0.00000000000E+00  0.13776810008E+03  0.18600540151E+03  0.12497183678E+03 0.  0.
    9000005    1    3    3    0    0  0.20416491308E+02  0.19514622676E+02  0.15183143325E+03  0.15443910690E+03  0.10000000000E+01 0.  0.
    9000005    1    3    3    0    0 -0.20416491308E+02 -0.19514622676E+02 -0.14063333169E+02  0.31566294609E+02  0.10000000000E+01 0.  0.
<mgrwt>
<rscale>  0 0.12497184E+03</rscale>
<asrwt>0</asrwt>
<pdfrwt beam="2">  1        4 0.37105616E-02 0.12497184E+03</pdfrwt>
<pdfrwt beam="1">  1       -4 0.24905654E-01 0.12497184E+03</pdfrwt>
<totfact> 0.92605474E+03</totfact>
</mgrwt>
</event>
<event>
 5    1  0.3282421E-002  0.1250042E+03  0.7818608E-02  0.1235063E+00
         -4   -1    0    0    0  501 -0.00000000000E+00  0.00000000000E+00  0.46390743171E+03  0.46390917009E+03  0.12700000000E+01 0. -1.
          4   -1    0    0  501    0  0.00000000000E+00 -0.00000000000E+00 -0.83712454512E+01  0.84670331524E+01  0.12700000000E+01 0. -1.
         25    2    1    2    0    0  0.00000000000E+00  0.00000000000E+00  0.45553618626E+03  0.47237620324E+03  0.12500424153E+03 0.  0.
    9000005    1    3    3    0    0 -0.43675685633E+01  0.61954193640E+02  0.25398093133E+03  0.26146646294E+03  0.10000000000E+01 0.  0.
    9000005    1    3    3    0    0  0.43675685633E+01 -0.61954193640E+02  0.20155525493E+03  0.21090974030E+03  0.10000000000E+01 0.  0.
<mgrwt>
<rscale>  0 0.12500424E+03</rscale>
<asrwt>0</asrwt>
<pdfrwt beam="2">  1        4 0.12953861E-02 0.12500424E+03</pdfrwt>
<pdfrwt beam="1">  1       -4 0.71377865E-01 0.12500424E+03</pdfrwt>
<totfact> 0.58067779E+03</totfact>
</mgrwt>
</event>
<event>
 5    1  0.3282421E-002  0.1250002E+03  0.7818608E-02  0.1235069E+00
          4   -1    0    0  501    0  0.00000000000E+00  0.00000000000E+00  0.16646904027E+02  0.16695278185E+02  0.12700000000E+01 0.  1.
         -4   -1    0    0    0  501 -0.00000000000E+00 -0.00000000000E+00 -0.23426355691E+03  0.23426699937E+03  0.12700000000E+01 0.  1.
         25    2    1    2    0    0  0.00000000000E+00  0.00000000000E+00 -0.21761665288E+03  0.25096227756E+03  0.12500022858E+03 0.  0.
    9000005    1    3    3    0    0 -0.44553979519E+02  0.26435290350E+02 -0.17897380760E+03  0.18632365784E+03  0.10000000000E+01 0.  0.
    9000005    1    3    3    0    0  0.44553979519E+02 -0.26435290350E+02 -0.38642845284E+02  0.64638619714E+02  0.10000000000E+01 0.  0.
<mgrwt>
<rscale>  0 0.12500023E+03</rscale>
<asrwt>0</asrwt>
<pdfrwt beam="1">  1        4 0.25650482E-02 0.12500023E+03</pdfrwt>
<pdfrwt beam="2">  1       -4 0.36044531E-01 0.12500023E+03</pdfrwt>
<totfact> 0.82190930E+03</totfact>
</mgrwt>
</event>
<event>
 5    1  0.3282421E-002  0.1250001E+03  0.7818608E-02  0.1235069E+00
          4   -1    0    0  501    0  0.00000000000E+00  0.00000000000E+00  0.51226661371E+03  0.51226818799E+03  0.12700000000E+01 0. -1.
         -4   -1    0    0    0  501 -0.00000000000E+00 -0.00000000000E+00 -0.75709546197E+01  0.76767345827E+01  0.12700000000E+01 0. -1.
         25    2    1    2    0    0  0.00000000000E+00  0.00000000000E+00  0.50469565909E+03  0.51994492257E+03  0.12500005680E+03 0.  0.
    9000005    1    3    3    0    0 -0.25154758662E+02  0.33152723509E+02  0.58430856854E+02  0.71742804463E+02  0.10000000000E+01 0.  0.
    9000005    1    3    3    0    0  0.25154758662E+02 -0.33152723509E+02  0.44626480224E+03  0.44820211811E+03  0.10000000000E+01 0.  0.
<mgrwt>
<rscale>  0 0.12500006E+03</rscale>
<asrwt>0</asrwt>
<pdfrwt beam="1">  1        4 0.78818513E-01 0.12500006E+03</pdfrwt>
<pdfrwt beam="2">  1       -4 0.11730202E-02 0.12500006E+03</pdfrwt>
<totfact> 0.54349353E+03</totfact>
</mgrwt>
</event>
<event>
 5    1  0.3282421E-002  0.1250021E+03  0.7818608E-02  0.1235066E+00
          4   -1    0    0  501    0  0.00000000000E+00  0.00000000000E+00  0.17507588258E+02  0.17553590704E+02  0.12700000000E+01 0. -1.
         -4   -1    0    0    0  501 -0.00000000000E+00 -0.00000000000E+00 -0.22278446874E+03  0.22278808858E+03  0.12700000000E+01 0. -1.
         25    2    1    2    0    0  0.00000000000E+00  0.00000000000E+00 -0.20527688048E+03  0.24034167928E+03  0.12500210054E+03 0.  0.
    9000005    1    3    3    0    0  0.33321695383E+01 -0.41369982950E+02 -0.19246794301E+03  0.19689461123E+03  0.10000000000E+01 0.  0.
    9000005    1    3    3    0    0 -0.33321695383E+01  0.41369982950E+02 -0.12808937468E+02  0.43447068051E+02  0.10000000000E+01 0.  0.
<mgrwt>
<rscale>  0 0.12500210E+03</rscale>
<asrwt>0</asrwt>
<pdfrwt beam="1">  1        4 0.26972924E-02 0.12500210E+03</pdfrwt>
<pdfrwt beam="2">  1       -4 0.34278349E-01 0.12500210E+03</pdfrwt>
<totfact> 0.83742586E+03</totfact>
</mgrwt>
</event>
<event>
 5    1  0.3282421E-002  0.1249886E+03  0.7818608E-02  0.1235087E+00
         -4   -1    0    0    0  501 -0.00000000000E+00  0.00000000000E+00  0.29793471188E+02  0.29820526914E+02  0.12700000000E+01 0. -1.
          4   -1    0    0  501    0  0.00000000000E+00 -0.00000000000E+00 -0.13099730653E+03  0.13100346262E+03  0.12700000000E+01 0. -1.
         25    2    1    2    0    0  0.00000000000E+00  0.00000000000E+00 -0.10120383534E+03  0.16082398953E+03  0.12498855676E+03 0.  0.
    9000005    1    3    3    0    0  0.56832953302E+01 -0.38604145556E+02 -0.11340013970E+03  0.11992986110E+03  0.10000000000E+01 0.  0.
    9000005    1    3    3    0    0 -0.56832953302E+01  0.38604145556E+02  0.12196304360E+02  0.40894128429E+02  0.10000000000E+01 0.  0.
<mgrwt>
<rscale>  0 0.12498856E+03</rscale>
<asrwt>0</asrwt>
<pdfrwt beam="2">  1        4 0.20155986E-01 0.12498856E+03</pdfrwt>
<pdfrwt beam="1">  1       -4 0.45861658E-02 0.12498856E+03</pdfrwt>
<totfact> 0.97209160E+03</totfact>
</mgrwt>
</event>
<event>
 5    1  0.3282421E-002  0.1250002E+03  0.7818608E-02  0.1235069E+00
          4   -1    0    0  501    0  0.00000000000E+00  0.00000000000E+00  0.96561954682E+01  0.97393537219E+01  0.12700000000E+01 0. -1.
         -4   -1    0    0    0  501 -0.00000000000E+00 -0.00000000000E+00 -0.40271551398E+03  0.40271751650E+03  0.12700000000E+01 0. -1.
         25    2    1    2    0    0  0.00000000000E+00  0.00000000000E+00 -0.39305931851E+03  0.41245687022E+03  0.12500016771E+03 0.  0.
    9000005    1    3    3    0    0 -0.28437973531E+02 -0.44019165768E+02 -0.84203080567E+02  0.99184495111E+02  0.10000000000E+01 0.  0.
    9000005    1    3    3    0    0  0.28437973531E+02  0.44019165768E+02 -0.30885623794E+03  0.31327237511E+03  0.10000000000E+01 0.  0.
<mgrwt>
<rscale>  0 0.12500017E+03</rscale>
<asrwt>0</asrwt>
<pdfrwt beam="1">  1        4 0.14921197E-02 0.12500017E+03</pdfrwt>
<pdfrwt beam="2">  1       -4 0.61962771E-01 0.12500017E+03</pdfrwt>
<totfact> 0.63358787E+03</totfact>
</mgrwt>
</event>
<event>
 5    1  0.3282421E-002  0.1249999E+03  0.7818608E-02  0.1235069E+00
          4   -1    0    0  501    0  0.00000000000E+00  0.00000000000E+00  0.13356839422E+03  0.13357443182E+03  0.12700000000E+01 0.  1.
         -4   -1    0    0    0  501 -0.00000000000E+00 -0.00000000000E+00 -0.29224795600E+02  0.29252377302E+02  0.12700000000E+01 0.  1.
         25    2    1    2    0    0  0.00000000000E+00  0.00000000000E+00  0.10434359862E+03  0.16282680912E+03  0.12499993278E+03 0.  0.
    9000005    1    3    3    0    0  0.30335244510E+02  0.40922979496E+02  0.50191363855E+01  0.51196767871E+02  0.10000000000E+01 0.  0.
    9000005    1    3    3    0    0 -0.30335244510E+02 -0.40922979496E+02  0.99324462237E+02  0.11163004125E+03  0.10000000000E+01 0.  0.
<mgrwt>
<rscale>  0 0.12499993E+03</rscale>
<asrwt>0</asrwt>
<pdfrwt beam="1">  1        4 0.20551569E-01 0.12499993E+03</pdfrwt>
<pdfrwt beam="2">  1       -4 0.44987086E-02 0.12499993E+03</pdfrwt>
<totfact> 0.96800697E+03</totfact>
</mgrwt>
</event>
<event>
 5    1  0.3282421E-002  0.1250011E+03  0.7818608E-02  0.1235068E+00
          4   -1    0    0  501    0  0.00000000000E+00  0.00000000000E+00  0.18416566003E+03  0.18417003891E+03  0.12700000000E+01 0.  1.
         -4   -1    0    0    0  501 -0.00000000000E+00 -0.00000000000E+00 -0.21187262117E+02  0.21225290953E+02  0.12700000000E+01 0.  1.
         25    2    1    2    0    0  0.00000000000E+00  0.00000000000E+00  0.16297839791E+03  0.20539532986E+03  0.12500113338E+03 0.  0.
    9000005    1    3    3    0    0  0.43271114297E+02  0.45086030378E+02  0.80789425342E+02  0.10214240410E+03  0.10000000000E+01 0.  0.
    9000005    1    3    3    0    0 -0.43271114297E+02 -0.45086030378E+02  0.82188972568E+02  0.10325292577E+03  0.10000000000E+01 0.  0.
<mgrwt>
<rscale>  0 0.12500113E+03</rscale>
<asrwt>0</asrwt>
<pdfrwt beam="1">  1        4 0.28336441E-01 0.12500113E+03</pdfrwt>
<pdfrwt beam="2">  1       -4 0.32628409E-02 0.12500113E+03</pdfrwt>
<totfact> 0.89231186E+03</totfact>
</mgrwt>
</event>
<event>
 5    1  0.3282421E-002  0.1249984E+03  0.7818608E-02  0.1235072E+00
          4   -1    0    0  501    0  0.00000000000E+00  0.00000000000E+00  0.60775382877E+02  0.60788650781E+02  0.12700000000E+01 0.  1.
         -4   -1    0    0    0  501 -0.00000000000E+00 -0.00000000000E+00 -0.64245315457E+02  0.64257866897E+02  0.12700000000E+01 0.  1.
         25    2    1    2    0    0  0.00000000000E+00  0.00000000000E+00 -0.34699325802E+01  0.12504651768E+03  0.12499836459E+03 0.  0.
    9000005    1    3    3    0    0 -0.62350813523E+02 -0.11225001387E+01 -0.57693643088E+01  0.62635209891E+02  0.10000000000E+01 0.  0.
    9000005    1    3    3    0    0  0.62350813523E+02  0.11225001387E+01  0.22994317286E+01  0.62411307788E+02  0.10000000000E+01 0.  0.
<mgrwt>
<rscale>  0 0.12499836E+03</rscale>
<asrwt>0</asrwt>
<pdfrwt beam="1">  1        4 0.93520450E-02 0.12499836E+03</pdfrwt>
<pdfrwt beam="2">  1       -4 0.98858808E-02 0.12499836E+03</pdfrwt>
<totfact> 0.10452239E+04</totfact>
</mgrwt>
</event>
<event>
 5    1  0.3282421E-002  0.1250037E+03  0.7818608E-02  0.1235064E+00
          4   -1    0    0  501    0  0.00000000000E+00  0.00000000000E+00  0.14128593080E+02  0.14185557529E+02  0.12700000000E+01 0.  1.
         -4   -1    0    0    0  501 -0.00000000000E+00 -0.00000000000E+00 -0.27587980312E+03  0.27588272630E+03  0.12700000000E+01 0.  1.
         25    2    1    2    0    0  0.00000000000E+00  0.00000000000E+00 -0.26175121004E+03  0.29006828383E+03  0.12500365325E+03 0.  0.
    9000005    1    3    3    0    0  0.37209659890E+02  0.41897467968E+01 -0.24697759856E+03  0.24980201552E+03  0.10000000000E+01 0.  0.
    9000005    1    3    3    0    0 -0.37209659890E+02 -0.41897467968E+01 -0.14773611484E+02  0.40266268311E+02  0.10000000000E+01 0.  0.
<mgrwt>
<rscale>  0 0.12500365E+03</rscale>
<asrwt>0</asrwt>
<pdfrwt beam="1">  1        4 0.21782367E-02 0.12500365E+03</pdfrwt>
<pdfrwt beam="2">  1       -4 0.42447649E-01 0.12500365E+03</pdfrwt>
<totfact> 0.76855551E+03</totfact>
</mgrwt>
</event>
<event>
 5    1  0.3282421E-002  0.1250030E+03  0.7818608E-02  0.1235065E+00
          4   -1    0    0  501    0  0.00000000000E+00  0.00000000000E+00  0.25002322889E+02  0.25034557114E+02  0.12700000000E+01 0. -1.
         -4   -1    0    0    0  501 -0.00000000000E+00 -0.00000000000E+00 -0.15610756300E+03  0.15611272891E+03  0.12700000000E+01 0. -1.
         25    2    1    2    0    0  0.00000000000E+00  0.00000000000E+00 -0.13110524011E+03  0.18114728602E+03  0.12500302095E+03 0.  0.
    9000005    1    3    3    0    0 -0.94820048614E+01 -0.51718066140E+02 -0.16607347050E+02  0.55149530891E+02  0.10000000000E+01 0.  0.
    9000005    1    3    3    0    0  0.94820048614E+01  0.51718066140E+02 -0.11449789306E+03  0.12599775513E+03  0.10000000000E+01 0.  0.
<mgrwt>
<rscale>  0 0.12500302E+03</rscale>
<asrwt>0</asrwt>
<pdfrwt beam="1">  1        4 0.38493882E-02 0.12500302E+03</pdfrwt>
<pdfrwt beam="2">  1       -4 0.24019424E-01 0.12500302E+03</pdfrwt>
<totfact> 0.93404569E+03</totfact>
</mgrwt>
</event>
<event>
 5    1  0.3282421E-002  0.1250008E+03  0.7818608E-02  0.1235068E+00
          4   -1    0    0  501    0  0.00000000000E+00  0.00000000000E+00  0.13284792959E+03  0.13285399993E+03  0.12700000000E+01 0. -1.
         -4   -1    0    0    0  501 -0.00000000000E+00 -0.00000000000E+00 -0.29383850839E+02  0.29411283381E+02  0.12700000000E+01 0. -1.
         25    2    1    2    0    0  0.00000000000E+00  0.00000000000E+00  0.10346407875E+03  0.16226528331E+03  0.12500082630E+03 0.  0.
    9000005    1    3    3    0    0 -0.16097092854E+02 -0.60380467910E+02  0.52536807490E+02  0.81645780323E+02  0.10000000000E+01 0.  0.
    9000005    1    3    3    0    0  0.16097092854E+02  0.60380467910E+02  0.50927271264E+02  0.80619502986E+02  0.10000000000E+01 0.  0.
<mgrwt>
<rscale>  0 0.12500083E+03</rscale>
<asrwt>0</asrwt>
<pdfrwt beam="1">  1        4 0.20440720E-01 0.12500083E+03</pdfrwt>
<pdfrwt beam="2">  1       -4 0.45231697E-02 0.12500083E+03</pdfrwt>
<totfact> 0.96906026E+03</totfact>
</mgrwt>
</event>
<event>
 5    1  0.3282421E-002  0.1249970E+03  0.7818608E-02  0.1235074E+00
          4   -1    0    0  501    0  0.00000000000E+00  0.00000000000E+00  0.34888258854E+02  0.34911366427E+02  0.12700000000E+01 0.  1.
         -4   -1    0    0    0  501 -0.00000000000E+00 -0.00000000000E+00 -0.11189550136E+03  0.11190270830E+03  0.12700000000E+01 0.  1.
         25    2    1    2    0    0  0.00000000000E+00  0.00000000000E+00 -0.77007242504E+02  0.14681407472E+03  0.12499702852E+03 0.  0.
    9000005    1    3    3    0    0 -0.44545920908E+02  0.43527303178E+02 -0.44504028307E+02  0.76554384114E+02  0.10000000000E+01 0.  0.
    9000005    1    3    3    0    0  0.44545920908E+02 -0.43527303178E+02 -0.32503214197E+02  0.70259690610E+02  0.10000000000E+01 0.  0.
<mgrwt>
<rscale>  0 0.12499703E+03</rscale>
<asrwt>0</asrwt>
<pdfrwt beam="1">  1        4 0.53697564E-02 0.12499703E+03</pdfrwt>
<pdfrwt beam="2">  1       -4 0.17217024E-01 0.12499703E+03</pdfrwt>
<totfact> 0.99949285E+03</totfact>
</mgrwt>
</event>
<event>
 5    1  0.3282421E-002  0.1250034E+03  0.7818608E-02  0.1235064E+00
          4   -1    0    0  501    0  0.00000000000E+00  0.00000000000E+00  0.36829359787E+03  0.36829578755E+03  0.12700000000E+01 0.  1.
         -4   -1    0    0    0  501 -0.00000000000E+00 -0.00000000000E+00 -0.10566680368E+02  0.10642726812E+02  0.12700000000E+01 0.  1.
         25    2    1    2    0    0  0.00000000000E+00  0.00000000000E+00  0.35772691750E+03  0.37893851436E+03  0.12500340062E+03 0.  0.
    9000005    1    3    3    0    0 -0.51321642413E+02  0.33478374692E+02  0.14164352757E+03  0.15433276209E+03  0.10000000000E+01 0.  0.
    9000005    1    3    3    0    0  0.51321642413E+02 -0.33478374692E+02  0.21608338993E+03  0.22460575228E+03  0.10000000000E+01 0.  0.
<mgrwt>
<rscale>  0 0.12500340E+03</rscale>
<asrwt>0</asrwt>
<pdfrwt beam="1">  1        4 0.56666562E-01 0.12500340E+03</pdfrwt>
<pdfrwt beam="2">  1       -4 0.16316616E-02 0.12500340E+03</pdfrwt>
<totfact> 0.66649050E+03</totfact>
</mgrwt>
</event>
<event>
 5    1  0.3282421E-002  0.1249988E+03  0.7818608E-02  0.1235071E+00
          4   -1    0    0  501    0  0.00000000000E+00  0.00000000000E+00  0.11958098436E+03  0.11958772813E+03  0.12700000000E+01 0. -1.
         -4   -1    0    0    0  501 -0.00000000000E+00 -0.00000000000E+00 -0.32645531980E+02  0.32670225868E+02  0.12700000000E+01 0. -1.
         25    2    1    2    0    0  0.00000000000E+00  0.00000000000E+00  0.86935452379E+02  0.15225795400E+03  0.12499884670E+03 0.  0.
    9000005    1    3    3    0    0 -0.20500188416E+02  0.35526678137E+02  0.10089547181E+03  0.10891877165E+03  0.10000000000E+01 0.  0.
    9000005    1    3    3    0    0  0.20500188416E+02 -0.35526678137E+02 -0.13960019435E+02  0.43339182355E+02  0.10000000000E+01 0.  0.
<mgrwt>
<rscale>  0 0.12499885E+03</rscale>
<asrwt>0</asrwt>
<pdfrwt beam="1">  1        4 0.18399493E-01 0.12499885E+03</pdfrwt>
<pdfrwt beam="2">  1       -4 0.50248078E-02 0.12499885E+03</pdfrwt>
<totfact> 0.98858064E+03</totfact>
</mgrwt>
</event>
<event>
 5    1  0.3282421E-002  0.1250061E+03  0.7818608E-02  0.1235060E+00
         -4   -1    0    0    0  501 -0.00000000000E+00  0.00000000000E+00  0.35482087163E+03  0.35482314446E+03  0.12700000000E+01 0.  1.
          4   -1    0    0  501    0  0.00000000000E+00 -0.00000000000E+00 -0.10971217562E+02  0.11044478928E+02  0.12700000000E+01 0.  1.
         25    2    1    2    0    0  0.00000000000E+00  0.00000000000E+00  0.34384965407E+03  0.36586762339E+03  0.12500613281E+03 0.  0.
    9000005    1    3    3    0    0 -0.48376341303E+02  0.29409810772E+02  0.94465490830E+02  0.11013599015E+03  0.10000000000E+01 0.  0.
    9000005    1    3    3    0    0  0.48376341303E+02 -0.29409810772E+02  0.24938416324E+03  0.25573163325E+03  0.10000000000E+01 0.  0.
<mgrwt>
<rscale>  0 0.12500613E+03</rscale>
<asrwt>0</asrwt>
<pdfrwt beam="2">  1        4 0.16936900E-02 0.12500613E+03</pdfrwt>
<pdfrwt beam="1">  1       -4 0.54593636E-01 0.12500613E+03</pdfrwt>
<totfact> 0.68004264E+03</totfact>
</mgrwt>
</event>
<event>
 5    1  0.3282421E-002  0.1250084E+03  0.7818608E-02  0.1235056E+00
          4   -1    0    0  501    0  0.00000000000E+00  0.00000000000E+00  0.10269825888E+03  0.10270611120E+03  0.12700000000E+01 0. -1.
         -4   -1    0    0    0  501 -0.00000000000E+00 -0.00000000000E+00 -0.38021379928E+02  0.38042584450E+02  0.12700000000E+01 0. -1.
         25    2    1    2    0    0  0.00000000000E+00  0.00000000000E+00  0.64676878955E+02  0.14074869565E+03  0.12500838634E+03 0.  0.
    9000005    1    3    3    0    0 -0.59260740220E+02  0.14226784234E+02  0.16756121150E+02  0.63213956663E+02  0.10000000000E+01 0.  0.
    9000005    1    3    3    0    0  0.59260740220E+02 -0.14226784234E+02  0.47920757805E+02  0.77534738986E+02  0.10000000000E+01 0.  0.
<mgrwt>
<rscale>  0 0.12500839E+03</rscale>
<asrwt>0</asrwt>
<pdfrwt beam="1">  1        4 0.15801967E-01 0.12500839E+03</pdfrwt>
<pdfrwt beam="2">  1       -4 0.58516782E-02 0.12500839E+03</pdfrwt>
<totfact> 0.10116181E+04</totfact>
</mgrwt>
</event>
<event>
 5    1  0.3282421E-002  0.1250020E+03  0.7818608E-02  0.1235066E+00
          4   -1    0    0  501    0  0.00000000000E+00  0.00000000000E+00  0.18925607406E+03  0.18926033517E+03  0.12700000000E+01 0.  1.
         -4   -1    0    0    0  501 -0.00000000000E+00 -0.00000000000E+00 -0.20616637501E+02  0.20655716929E+02  0.12700000000E+01 0.  1.
         25    2    1    2    0    0  0.00000000000E+00  0.00000000000E+00  0.16863943656E+03  0.20991605209E+03  0.12500195745E+03 0.  0.
    9000005    1    3    3    0    0  0.87133968050E+01 -0.14902774540E+02 -0.16541302738E+02  0.23929702655E+02  0.10000000000E+01 0.  0.
    9000005    1    3    3    0    0 -0.87133968050E+01  0.14902774540E+02  0.18518073929E+03  0.18598634944E+03  0.10000000000E+01 0.  0.
<mgrwt>
<rscale>  0 0.12500196E+03</rscale>
<asrwt>0</asrwt>
<pdfrwt beam="1">  1        4 0.29119652E-01 0.12500196E+03</pdfrwt>
<pdfrwt beam="2">  1       -4 0.31751243E-02 0.12500196E+03</pdfrwt>
<totfact> 0.88485720E+03</totfact>
</mgrwt>
</event>
<event>
 5    1  0.3282421E-002  0.1250014E+03  0.7818608E-02  0.1235067E+00
         -4   -1    0    0    0  501 -0.00000000000E+00  0.00000000000E+00  0.30232944743E+03  0.30233211487E+03  0.12700000000E+01 0.  1.
          4   -1    0    0  501    0  0.00000000000E+00 -0.00000000000E+00 -0.12886860455E+02  0.12949288489E+02  0.12700000000E+01 0.  1.
         25    2    1    2    0    0  0.00000000000E+00  0.00000000000E+00  0.28944258697E+03  0.31528140336E+03  0.12500140859E+03 0.  0.
    9000005    1    3    3    0    0 -0.58980853945E+02  0.18981654116E+02  0.16525747142E+03  0.17649384178E+03  0.10000000000E+01 0.  0.
    9000005    1    3    3    0    0  0.58980853945E+02 -0.18981654116E+02  0.12418511555E+03  0.13878756158E+03  0.10000000000E+01 0.  0.
<mgrwt>
<rscale>  0 0.12500141E+03</rscale>
<asrwt>0</asrwt>
<pdfrwt beam="2">  1        4 0.19876013E-02 0.12500141E+03</pdfrwt>
<pdfrwt beam="1">  1       -4 0.46517229E-01 0.12500141E+03</pdfrwt>
<totfact> 0.73718573E+03</totfact>
</mgrwt>
</event>
<event>
 5    1  0.3282421E-002  0.1249968E+03  0.7818608E-02  0.1235074E+00
         -4   -1    0    0    0  501 -0.00000000000E+00  0.00000000000E+00  0.32042881307E+02  0.32068039268E+02  0.12700000000E+01 0. -1.
          4   -1    0    0  501    0  0.00000000000E+00 -0.00000000000E+00 -0.12182442755E+03  0.12183104714E+03  0.12700000000E+01 0. -1.
         25    2    1    2    0    0  0.00000000000E+00  0.00000000000E+00 -0.89781546242E+02  0.15389908641E+03  0.12499681097E+03 0.  0.
    9000005    1    3    3    0    0 -0.19745701467E+02  0.55733957545E+02 -0.69787206432E+02  0.91473607842E+02  0.10000000000E+01 0.  0.
    9000005    1    3    3    0    0  0.19745701467E+02 -0.55733957545E+02 -0.19994339811E+02  0.62425478568E+02  0.10000000000E+01 0.  0.
<mgrwt>
<rscale>  0 0.12499681E+03</rscale>
<asrwt>0</asrwt>
<pdfrwt beam="2">  1        4 0.18744664E-01 0.12499681E+03</pdfrwt>
<pdfrwt beam="1">  1       -4 0.49321185E-02 0.12499681E+03</pdfrwt>
<totfact> 0.98539124E+03</totfact>
</mgrwt>
</event>
<event>
 5    1  0.3282421E-002  0.1249972E+03  0.7818608E-02  0.1235074E+00
          4   -1    0    0  501    0  0.00000000000E+00  0.00000000000E+00  0.10959122928E+03  0.10959858774E+03  0.12700000000E+01 0. -1.
         -4   -1    0    0    0  501 -0.00000000000E+00 -0.00000000000E+00 -0.35622368736E+02  0.35645000412E+02  0.12700000000E+01 0. -1.
         25    2    1    2    0    0  0.00000000000E+00  0.00000000000E+00  0.73968860543E+02  0.14524358815E+03  0.12499723025E+03 0.  0.
    9000005    1    3    3    0    0  0.49343049775E+02 -0.38219819262E+02  0.33386857736E+02  0.70789642003E+02  0.10000000000E+01 0.  0.
    9000005    1    3    3    0    0 -0.49343049775E+02  0.38219819262E+02  0.40582002807E+02  0.74453946150E+02  0.10000000000E+01 0.  0.
<mgrwt>
<rscale>  0 0.12499723E+03</rscale>
<asrwt>0</asrwt>
<pdfrwt beam="1">  1        4 0.16862496E-01 0.12499723E+03</pdfrwt>
<pdfrwt beam="2">  1       -4 0.54826713E-02 0.12499723E+03</pdfrwt>
<totfact> 0.10026667E+04</totfact>
</mgrwt>
</event>
<event>
 5    1  0.3282421E-002  0.1250099E+03  0.7818608E-02  0.1235054E+00
          4   -1    0    0  501    0  0.00000000000E+00  0.00000000000E+00  0.23859098940E+01  0.27028625607E+01  0.12700000000E+01 0. -1.
         -4   -1    0    0    0  501 -0.00000000000E+00 -0.00000000000E+00 -0.15351682180E+04  0.15351687433E+04  0.12700000000E+01 0. -1.
         25    2    1    2    0    0  0.00000000000E+00  0.00000000000E+00 -0.15327823081E+04  0.15378716059E+04  0.12500988810E+03 0.  0.
    9000005    1    3    3    0    0 -0.55545667763E+02  0.20861475759E+02 -0.10078821507E+04  0.10096276304E+04  0.10000000000E+01 0.  0.
    9000005    1    3    3    0    0  0.55545667763E+02 -0.20861475759E+02 -0.52490015742E+03  0.52824397548E+03  0.10000000000E+01 0.  0.
<mgrwt>
<rscale>  0 0.12500989E+03</rscale>
<asrwt>0</asrwt>
<pdfrwt beam="1">  1        4 0.39148567E-03 0.12500989E+03</pdfrwt>
<pdfrwt beam="2">  1       -4 0.23620341E+00 0.12500989E+03</pdfrwt>
<totfact> 0.17194223E+03</totfact>
</mgrwt>
</event>
<event>
 5    1  0.3282421E-002  0.1249996E+03  0.7818608E-02  0.1235070E+00
         -4   -1    0    0    0  501 -0.00000000000E+00  0.00000000000E+00  0.55331816243E+02  0.55346389121E+02  0.12700000000E+01 0.  1.
          4   -1    0    0  501    0  0.00000000000E+00 -0.00000000000E+00 -0.70566725444E+02  0.70578152709E+02  0.12700000000E+01 0.  1.
         25    2    1    2    0    0  0.00000000000E+00  0.00000000000E+00 -0.15234909201E+02  0.12592454183E+03  0.12499955111E+03 0.  0.
    9000005    1    3    3    0    0  0.48749379956E+02 -0.39078067900E+02 -0.63334612914E+01  0.62806927714E+02  0.10000000000E+01 0.  0.
    9000005    1    3    3    0    0 -0.48749379956E+02  0.39078067900E+02 -0.89014479094E+01  0.63117614117E+02  0.10000000000E+01 0.  0.
<mgrwt>
<rscale>  0 0.12499955E+03</rscale>
<asrwt>0</asrwt>
<pdfrwt beam="2">  1        4 0.10858419E-01 0.12499955E+03</pdfrwt>
<pdfrwt beam="1">  1       -4 0.85145871E-02 0.12499955E+03</pdfrwt>
<totfact> 0.10432717E+04</totfact>
</mgrwt>
</event>
<event>
 5    1  0.3282421E-002  0.1250082E+03  0.7818608E-02  0.1235057E+00
         -4   -1    0    0    0  501 -0.00000000000E+00  0.00000000000E+00  0.47030832194E+02  0.47047976331E+02  0.12700000000E+01 0.  1.
          4   -1    0    0  501    0  0.00000000000E+00 -0.00000000000E+00 -0.83030941347E+02  0.83040653423E+02  0.12700000000E+01 0.  1.
         25    2    1    2    0    0  0.00000000000E+00  0.00000000000E+00 -0.36000109153E+02  0.13008862975E+03  0.12500817466E+03 0.  0.
    9000005    1    3    3    0    0  0.20970468008E+02  0.83846551817E+01  0.42640819482E+02  0.48262847586E+02  0.10000000000E+01 0.  0.
    9000005    1    3    3    0    0 -0.20970468008E+02 -0.83846551817E+01 -0.78640928635E+02  0.81825782169E+02  0.10000000000E+01 0.  0.
<mgrwt>
<rscale>  0 0.12500817E+03</rscale>
<asrwt>0</asrwt>
<pdfrwt beam="2">  1        4 0.12776057E-01 0.12500817E+03</pdfrwt>
<pdfrwt beam="1">  1       -4 0.72375785E-02 0.12500817E+03</pdfrwt>
<totfact> 0.10340704E+04</totfact>
</mgrwt>
</event>
<event>
 5    1  0.3282421E-002  0.1249997E+03  0.7818608E-02  0.1235070E+00
          4   -1    0    0  501    0  0.00000000000E+00  0.00000000000E+00  0.18042508922E+03  0.18042955889E+03  0.12700000000E+01 0. -1.
         -4   -1    0    0    0  501 -0.00000000000E+00 -0.00000000000E+00 -0.21626796202E+02  0.21664053498E+02  0.12700000000E+01 0. -1.
         25    2    1    2    0    0  0.00000000000E+00  0.00000000000E+00  0.15879829302E+03  0.20209361238E+03  0.12499972120E+03 0.  0.
    9000005    1    3    3    0    0 -0.31210759337E+02  0.18365616883E+02  0.16173972135E+03  0.16574723179E+03  0.10000000000E+01 0.  0.
    9000005    1    3    3    0    0  0.31210759337E+02 -0.18365616883E+02 -0.29414283344E+01  0.36346380597E+02  0.10000000000E+01 0.  0.
<mgrwt>
<rscale>  0 0.12499972E+03</rscale>
<asrwt>0</asrwt>
<pdfrwt beam="1">  1        4 0.27760916E-01 0.12499972E+03</pdfrwt>
<pdfrwt beam="2">  1       -4 0.33304091E-02 0.12499972E+03</pdfrwt>
<totfact> 0.89784158E+03</totfact>
</mgrwt>
</event>
<event>
 5    1  0.3282421E-002  0.1250109E+03  0.7818608E-02  0.1235052E+00
          4   -1    0    0  501    0  0.00000000000E+00  0.00000000000E+00  0.80463248417E+03  0.80463348643E+03  0.12700000000E+01 0. -1.
         -4   -1    0    0    0  501 -0.00000000000E+00 -0.00000000000E+00 -0.47714799684E+01  0.49376027675E+01  0.12700000000E+01 0. -1.
         25    2    1    2    0    0  0.00000000000E+00  0.00000000000E+00  0.79986100420E+03  0.80957108920E+03  0.12501088920E+03 0.  0.
    9000005    1    3    3    0    0  0.54070997165E+02 -0.17374847017E+02  0.56885029552E+03  0.57167929537E+03  0.10000000000E+01 0.  0.
    9000005    1    3    3    0    0 -0.54070997165E+02  0.17374847017E+02  0.23101070868E+03  0.23789179382E+03  0.10000000000E+01 0.  0.
<mgrwt>
<rscale>  0 0.12501089E+03</rscale>
<asrwt>0</asrwt>
<pdfrwt beam="1">  1        4 0.12380241E+00 0.12501089E+03</pdfrwt>
<pdfrwt beam="2">  1       -4 0.74692994E-03 0.12501089E+03</pdfrwt>
<totfact> 0.37832018E+03</totfact>
</mgrwt>
</event>
<event>
 5    1  0.3282421E-002  0.1250006E+03  0.7818608E-02  0.1235068E+00
         -4   -1    0    0    0  501 -0.00000000000E+00  0.00000000000E+00  0.16679809189E+02  0.16728088192E+02  0.12700000000E+01 0.  1.
          4   -1    0    0  501    0  0.00000000000E+00 -0.00000000000E+00 -0.23380394502E+03  0.23380739425E+03  0.12700000000E+01 0.  1.
         25    2    1    2    0    0  0.00000000000E+00  0.00000000000E+00 -0.21712413583E+03  0.25053548245E+03  0.12500055041E+03 0.  0.
    9000005    1    3    3    0    0 -0.11988891555E+02 -0.76100687354E+01  0.13413139952E+02  0.19559115272E+02  0.10000000000E+01 0.  0.
    9000005    1    3    3    0    0  0.11988891555E+02  0.76100687354E+01 -0.23053727578E+03  0.23097636717E+03  0.10000000000E+01 0.  0.
<mgrwt>
<rscale>  0 0.12500055E+03</rscale>
<asrwt>0</asrwt>
<pdfrwt beam="2">  1        4 0.35973815E-01 0.12500055E+03</pdfrwt>
<pdfrwt beam="1">  1       -4 0.25701037E-02 0.12500055E+03</pdfrwt>
<totfact> 0.82251888E+03</totfact>
</mgrwt>
</event>
<event>
 5    1  0.3282421E-002  0.1249850E+03  0.7818608E-02  0.1235093E+00
         -4   -1    0    0    0  501 -0.00000000000E+00  0.00000000000E+00  0.46791224740E+02  0.46808456637E+02  0.12700000000E+01 0. -1.
          4   -1    0    0  501    0  0.00000000000E+00 -0.00000000000E+00 -0.83425052888E+02  0.83434719088E+02  0.12700000000E+01 0. -1.
         25    2    1    2    0    0  0.00000000000E+00  0.00000000000E+00 -0.36633828148E+02  0.13024317572E+03  0.12498498893E+03 0.  0.
    9000005    1    3    3    0    0  0.56912097000E+02 -0.21162346918E+02 -0.33684545484E+02  0.69444080500E+02  0.10000000000E+01 0.  0.
    9000005    1    3    3    0    0 -0.56912097000E+02  0.21162346918E+02 -0.29492826636E+01  0.60799095225E+02  0.10000000000E+01 0.  0.
<mgrwt>
<rscale>  0 0.12498499E+03</rscale>
<asrwt>0</asrwt>
<pdfrwt beam="2">  1        4 0.12836693E-01 0.12498499E+03</pdfrwt>
<pdfrwt beam="1">  1       -4 0.72007190E-02 0.12498499E+03</pdfrwt>
<totfact> 0.10342812E+04</totfact>
</mgrwt>
</event>
<event>
 5    1  0.3282421E-002  0.1249996E+03  0.7818608E-02  0.1235070E+00
          4   -1    0    0  501    0  0.00000000000E+00  0.00000000000E+00  0.42586857931E+03  0.42587047296E+03  0.12700000000E+01 0.  1.
         -4   -1    0    0    0  501 -0.00000000000E+00 -0.00000000000E+00 -0.91264936917E+01  0.92144336290E+01  0.12700000000E+01 0.  1.
         25    2    1    2    0    0  0.00000000000E+00  0.00000000000E+00  0.41674208562E+03  0.43508490659E+03  0.12499964008E+03 0.  0.
    9000005    1    3    3    0    0 -0.57526368799E+02 -0.14482861567E+02  0.27677266416E+03  0.28306031868E+03  0.10000000000E+01 0.  0.
    9000005    1    3    3    0    0  0.57526368799E+02  0.14482861567E+02  0.13996942146E+03  0.15202458791E+03  0.10000000000E+01 0.  0.
<mgrwt>
<rscale>  0 0.12499964E+03</rscale>
<asrwt>0</asrwt>
<pdfrwt beam="1">  1        4 0.65525149E-01 0.12499964E+03</pdfrwt>
<pdfrwt beam="2">  1       -4 0.14109863E-02 0.12499964E+03</pdfrwt>
<totfact> 0.61278252E+03</totfact>
</mgrwt>
</event>
<event>
 5    1  0.3282421E-002  0.1250007E+03  0.7818608E-02  0.1235068E+00
         -4   -1    0    0    0  501 -0.00000000000E+00  0.00000000000E+00  0.51329331748E+03  0.51329488861E+03  0.12700000000E+01 0. -1.
          4   -1    0    0  501    0  0.00000000000E+00 -0.00000000000E+00 -0.75556785262E+01  0.76616693997E+01  0.12700000000E+01 0. -1.
         25    2    1    2    0    0  0.00000000000E+00  0.00000000000E+00  0.50573763895E+03  0.52095655801E+03  0.12500070350E+03 0.  0.
    9000005    1    3    3    0    0  0.22303594720E+01  0.62448164823E+02  0.24978878765E+03  0.25748822541E+03  0.10000000000E+01 0.  0.
    9000005    1    3    3    0    0 -0.22303594720E+01 -0.62448164823E+02  0.25594885131E+03  0.26346833259E+03  0.10000000000E+01 0.  0.
<mgrwt>
<rscale>  0 0.12500070E+03</rscale>
<asrwt>0</asrwt>
<pdfrwt beam="2">  1        4 0.11706855E-02 0.12500070E+03</pdfrwt>
<pdfrwt beam="1">  1       -4 0.78976515E-01 0.12500070E+03</pdfrwt>
<totfact> 0.54273425E+03</totfact>
</mgrwt>
</event>
<event>
 5    1  0.3282421E-002  0.1250014E+03  0.7818608E-02  0.1235067E+00
          4   -1    0    0  501    0  0.00000000000E+00  0.00000000000E+00  0.28810619644E+02  0.28838597474E+02  0.12700000000E+01 0. -1.
         -4   -1    0    0    0  501 -0.00000000000E+00 -0.00000000000E+00 -0.13548993727E+03  0.13549588924E+03  0.12700000000E+01 0. -1.
         25    2    1    2    0    0  0.00000000000E+00  0.00000000000E+00 -0.10667931763E+03  0.16433448672E+03  0.12500138685E+03 0.  0.
    9000005    1    3    3    0    0  0.55543139884E+02 -0.23764936316E+00 -0.90991334052E+02  0.10660919162E+03  0.10000000000E+01 0.  0.
    9000005    1    3    3    0    0 -0.55543139884E+02  0.23764936316E+00 -0.15687983575E+02  0.57725295097E+02  0.10000000000E+01 0.  0.
<mgrwt>
<rscale>  0 0.12500139E+03</rscale>
<asrwt>0</asrwt>
<pdfrwt beam="1">  1        4 0.44350131E-02 0.12500139E+03</pdfrwt>
<pdfrwt beam="2">  1       -4 0.20847215E-01 0.12500139E+03</pdfrwt>
<totfact> 0.96510572E+03</totfact>
</mgrwt>
</event>
<event>
 5    1  0.3282421E-002  0.1249980E+03  0.7818608E-02  0.1235072E+00
         -4   -1    0    0    0  501 -0.00000000000E+00  0.00000000000E+00  0.27352572001E+02  0.27382039644E+02  0.12700000000E+01 0.  1.
          4   -1    0    0  501    0  0.00000000000E+00 -0.00000000000E+00 -0.14269722113E+03  0.14270287250E+03  0.12700000000E+01 0.  1.
         25    2    1    2    0    0  0.00000000000E+00  0.00000000000E+00 -0.11534464913E+03  0.17008491214E+03  0.12499795700E+03 0.  0.
    9000005    1    3    3    0    0 -0.38606516418E+02 -0.13084437014E+02 -0.12212214656E+03  0.12874969624E+03  0.10000000000E+01 0.  0.
    9000005    1    3    3    0    0  0.38606516418E+02  0.13084437014E+02  0.67774974306E+01  0.41335215897E+02  0.10000000000E+01 0.  0.
<mgrwt>
<rscale>  0 0.12499796E+03</rscale>
<asrwt>0</asrwt>
<pdfrwt beam="2">  1        4 0.21956120E-01 0.12499796E+03</pdfrwt>
<pdfrwt beam="1">  1       -4 0.42107896E-02 0.12499796E+03</pdfrwt>
<totfact> 0.95437189E+03</totfact>
</mgrwt>
</event>
<event>
 5    1  0.3282421E-002  0.1250031E+03  0.7818608E-02  0.1235064E+00
          4   -1    0    0  501    0  0.00000000000E+00  0.00000000000E+00  0.36600232493E+02  0.36622259877E+02  0.12700000000E+01 0.  1.
         -4   -1    0    0    0  501 -0.00000000000E+00 -0.00000000000E+00 -0.10667478509E+03  0.10668234471E+03  0.12700000000E+01 0.  1.
         25    2    1    2    0    0  0.00000000000E+00  0.00000000000E+00 -0.70074552595E+02  0.14330460459E+03  0.12500306706E+03 0.  0.
    9000005    1    3    3    0    0 -0.29124714813E+02  0.19283676761E+01 -0.98385814096E+02  0.10262911882E+03  0.10000000000E+01 0.  0.
    9000005    1    3    3    0    0  0.29124714813E+02 -0.19283676761E+01  0.28311261500E+02  0.40675485769E+02  0.10000000000E+01 0.  0.
<mgrwt>
<rscale>  0 0.12500307E+03</rscale>
<asrwt>0</asrwt>
<pdfrwt beam="1">  1        4 0.56330809E-02 0.12500307E+03</pdfrwt>
<pdfrwt beam="2">  1       -4 0.16413781E-01 0.12500307E+03</pdfrwt>
<totfact> 0.10064854E+04</totfact>
</mgrwt>
</event>
<event>
 5    1  0.3282421E-002  0.1249974E+03  0.7818608E-02  0.1235073E+00
         -4   -1    0    0    0  501 -0.00000000000E+00  0.00000000000E+00  0.24222297186E+03  0.24222630121E+03  0.12700000000E+01 0.  1.
          4   -1    0    0  501    0  0.00000000000E+00 -0.00000000000E+00 -0.16097554296E+02  0.16147574255E+02  0.12700000000E+01 0.  1.
         25    2    1    2    0    0  0.00000000000E+00  0.00000000000E+00  0.22612541756E+03  0.25837387546E+03  0.12499742019E+03 0.  0.
    9000005    1    3    3    0    0  0.90406609890E+00  0.58001891409E+02  0.65026873443E+02  0.87146606430E+02  0.10000000000E+01 0.  0.
    9000005    1    3    3    0    0 -0.90406609890E+00 -0.58001891409E+02  0.16109854412E+03  0.17122726903E+03  0.10000000000E+01 0.  0.
<mgrwt>
<rscale>  0 0.12499742E+03</rscale>
<asrwt>0</asrwt>
<pdfrwt beam="2">  1        4 0.24806509E-02 0.12499742E+03</pdfrwt>
<pdfrwt beam="1">  1       -4 0.37269173E-01 0.12499742E+03</pdfrwt>
<totfact> 0.81139469E+03</totfact>
</mgrwt>
</event>
<event>
 5    1  0.3282421E-002  0.1249987E+03  0.7818608E-02  0.1235071E+00
          4   -1    0    0  501    0  0.00000000000E+00  0.00000000000E+00  0.12440036945E+04  0.12440043428E+04  0.12700000000E+01 0.  1.
         -4   -1    0    0    0  501 -0.00000000000E+00 -0.00000000000E+00 -0.30109082709E+01  0.32677926213E+01  0.12700000000E+01 0.  1.
         25    2    1    2    0    0  0.00000000000E+00  0.00000000000E+00  0.12409927862E+04  0.12472721354E+04  0.12499873699E+03 0.  0.
    9000005    1    3    3    0    0 -0.38883922645E+02 -0.33668640990E+02  0.97463870921E+03  0.97599546634E+03  0.10000000000E+01 0.  0.
    9000005    1    3    3    0    0  0.38883922645E+02  0.33668640990E+02  0.26635407701E+03  0.27127666904E+03  0.10000000000E+01 0.  0.
<mgrwt>
<rscale>  0 0.12499874E+03</rscale>
<asrwt>0</asrwt>
<pdfrwt beam="1">  1        4 0.19140499E+00 0.12499874E+03</pdfrwt>
<pdfrwt beam="2">  1       -4 0.48302686E-03 0.12499874E+03</pdfrwt>
<totfact> 0.23508468E+03</totfact>
</mgrwt>
</event>
<event>
 5    1  0.3282421E-002  0.1250482E+03  0.7818608E-02  0.1234994E+00
          4   -1    0    0  501    0  0.00000000000E+00  0.00000000000E+00  0.53724792409E+02  0.53739801073E+02  0.12700000000E+01 0. -1.
         -4   -1    0    0    0  501 -0.00000000000E+00 -0.00000000000E+00 -0.72733841573E+02  0.72744928414E+02  0.12700000000E+01 0. -1.
         25    2    1    2    0    0  0.00000000000E+00  0.00000000000E+00 -0.19009049164E+02  0.12648472949E+03  0.12504816210E+03 0.  0.
    9000005    1    3    3    0    0  0.35760782258E+02  0.54512923501E+01 -0.61077630101E+02  0.70993147802E+02  0.10000000000E+01 0.  0.
    9000005    1    3    3    0    0 -0.35760782258E+02 -0.54512923501E+01  0.42068580937E+02  0.55491581686E+02  0.10000000000E+01 0.  0.
<mgrwt>
<rscale>  0 0.12504816E+03</rscale>
<asrwt>0</asrwt>
<pdfrwt beam="1">  1        4 0.82673600E-02 0.12504816E+03</pdfrwt>
<pdfrwt beam="2">  1       -4 0.11191829E-01 0.12504816E+03</pdfrwt>
<totfact> 0.10409042E+04</totfact>
</mgrwt>
</event>
<event>
 5    1  0.3282421E-002  0.1250007E+03  0.7818608E-02  0.1235068E+00
         -4   -1    0    0    0  501 -0.00000000000E+00  0.00000000000E+00  0.10772076213E+03  0.10772824836E+03  0.12700000000E+01 0. -1.
          4   -1    0    0  501    0  0.00000000000E+00 -0.00000000000E+00 -0.36243300229E+02  0.36265544412E+02  0.12700000000E+01 0. -1.
         25    2    1    2    0    0  0.00000000000E+00  0.00000000000E+00  0.71477461902E+02  0.14399379277E+03  0.12500073918E+03 0.  0.
    9000005    1    3    3    0    0 -0.48867507373E+02  0.34717818536E+02  0.56084023459E+02  0.82096150263E+02  0.10000000000E+01 0.  0.
    9000005    1    3    3    0    0  0.48867507373E+02 -0.34717818536E+02  0.15393438444E+02  0.61897642506E+02  0.10000000000E+01 0.  0.
<mgrwt>
<rscale>  0 0.12500074E+03</rscale>
<asrwt>0</asrwt>
<pdfrwt beam="2">  1        4 0.55781793E-02 0.12500074E+03</pdfrwt>
<pdfrwt beam="1">  1       -4 0.16574712E-01 0.12500074E+03</pdfrwt>
<totfact> 0.10051305E+04</totfact>
</mgrwt>
</event>
<event>
 5    1  0.3282421E-002  0.1249962E+03  0.7818608E-02  0.1235075E+00
          4   -1    0    0  501    0  0.00000000000E+00  0.00000000000E+00  0.55740287654E+02  0.55754753768E+02  0.12700000000E+01 0. -1.
         -4   -1    0    0    0  501 -0.00000000000E+00 -0.00000000000E+00 -0.70045862814E+02  0.70057375039E+02  0.12700000000E+01 0. -1.
         25    2    1    2    0    0  0.00000000000E+00  0.00000000000E+00 -0.14305575160E+02  0.12581212881E+03  0.12499616904E+03 0.  0.
    9000005    1    3    3    0    0  0.96946322757E+01 -0.61296025813E+02  0.23144374621E+00  0.62066434098E+02  0.10000000000E+01 0.  0.
    9000005    1    3    3    0    0 -0.96946322757E+01  0.61296025813E+02 -0.14537018906E+02  0.63745694710E+02  0.10000000000E+01 0.  0.
<mgrwt>
<rscale>  0 0.12499617E+03</rscale>
<asrwt>0</asrwt>
<pdfrwt beam="1">  1        4 0.85774271E-02 0.12499617E+03</pdfrwt>
<pdfrwt beam="2">  1       -4 0.10778285E-01 0.12499617E+03</pdfrwt>
<totfact> 0.10435981E+04</totfact>
</mgrwt>
</event>
<event>
 5    1  0.3282421E-002  0.1249992E+03  0.7818608E-02  0.1235071E+00
          4   -1    0    0  501    0  0.00000000000E+00  0.00000000000E+00  0.34882054572E+03  0.34882285765E+03  0.12700000000E+01 0. -1.
         -4   -1    0    0    0  501 -0.00000000000E+00 -0.00000000000E+00 -0.11159944954E+02  0.11231975400E+02  0.12700000000E+01 0. -1.
         25    2    1    2    0    0  0.00000000000E+00  0.00000000000E+00  0.33766060076E+03  0.36005483304E+03  0.12499920596E+03 0.  0.
    9000005    1    3    3    0    0  0.61127341308E+02  0.16683307899E+01  0.20592731963E+03  0.21481712258E+03  0.10000000000E+01 0.  0.
    9000005    1    3    3    0    0 -0.61127341308E+02 -0.16683307899E+01  0.13173328114E+03  0.14523771047E+03  0.10000000000E+01 0.  0.
<mgrwt>
<rscale>  0 0.12499921E+03</rscale>
<asrwt>0</asrwt>
<pdfrwt beam="1">  1        4 0.53670427E-01 0.12499921E+03</pdfrwt>
<pdfrwt beam="2">  1       -4 0.17226330E-02 0.12499921E+03</pdfrwt>
<totfact> 0.68633581E+03</totfact>
</mgrwt>
</event>
<event>
 5    1  0.3282421E-002  0.1250035E+03  0.7818608E-02  0.1235064E+00
         -4   -1    0    0    0  501 -0.00000000000E+00  0.00000000000E+00  0.28474487967E+03  0.28474771184E+03  0.12700000000E+01 0. -1.
          4   -1    0    0  501    0  0.00000000000E+00 -0.00000000000E+00 -0.13686896220E+02  0.13745691257E+02  0.12700000000E+01 0. -1.
         25    2    1    2    0    0  0.00000000000E+00  0.00000000000E+00  0.27105798345E+03  0.29849340310E+03  0.12500352515E+03 0.  0.
    9000005    1    3    3    0    0 -0.55437119722E+00 -0.46597664117E+02  0.36099649052E+02  0.58956206546E+02  0.10000000000E+01 0.  0.
    9000005    1    3    3    0    0  0.55437119722E+00  0.46597664117E+02  0.23495833440E+03  0.23953719655E+03  0.10000000000E+01 0.  0.
<mgrwt>
<rscale>  0 0.12500353E+03</rscale>
<asrwt>0</asrwt>
<pdfrwt beam="2">  1        4 0.21104169E-02 0.12500353E+03</pdfrwt>
<pdfrwt beam="1">  1       -4 0.43811645E-01 0.12500353E+03</pdfrwt>
<totfact> 0.75782281E+03</totfact>
</mgrwt>
</event>
<event>
 5    1  0.3282421E-002  0.1250011E+03  0.7818608E-02  0.1235068E+00
          4   -1    0    0  501    0  0.00000000000E+00  0.00000000000E+00  0.96924748658E+02  0.96933068673E+02  0.12700000000E+01 0. -1.
         -4   -1    0    0    0  501 -0.00000000000E+00 -0.00000000000E+00 -0.40282544244E+02  0.40302559110E+02  0.12700000000E+01 0. -1.
         25    2    1    2    0    0  0.00000000000E+00  0.00000000000E+00  0.56642204414E+02  0.13723562778E+03  0.12500111284E+03 0.  0.
    9000005    1    3    3    0    0 -0.22346529534E+02  0.28687825927E+02  0.84118237570E+02  0.91647349282E+02  0.10000000000E+01 0.  0.
    9000005    1    3    3    0    0  0.22346529534E+02 -0.28687825927E+02 -0.27476033156E+02  0.45588278500E+02  0.10000000000E+01 0.  0.
<mgrwt>
<rscale>  0 0.12500111E+03</rscale>
<asrwt>0</asrwt>
<pdfrwt beam="1">  1        4 0.14913679E-01 0.12500111E+03</pdfrwt>
<pdfrwt beam="2">  1       -4 0.61994942E-02 0.12500111E+03</pdfrwt>
<totfact> 0.10190906E+04</totfact>
</mgrwt>
</event>
<event>
 5    1  0.3282421E-002  0.1250119E+03  0.7818608E-02  0.1235051E+00
          4   -1    0    0  501    0  0.00000000000E+00  0.00000000000E+00  0.14058534548E+02  0.14115781722E+02  0.12700000000E+01 0.  1.
         -4   -1    0    0    0  501 -0.00000000000E+00 -0.00000000000E+00 -0.27728543019E+03  0.27728833855E+03  0.12700000000E+01 0.  1.
         25    2    1    2    0    0  0.00000000000E+00  0.00000000000E+00 -0.26322689564E+03  0.29140412027E+03  0.12501185033E+03 0.  0.
    9000005    1    3    3    0    0 -0.29498161440E+02 -0.45863565932E+02 -0.60436140370E+02  0.81407218790E+02  0.10000000000E+01 0.  0.
    9000005    1    3    3    0    0  0.29498161440E+02  0.45863565932E+02 -0.20279075527E+03  0.20999690148E+03  0.10000000000E+01 0.  0.
<mgrwt>
<rscale>  0 0.12501185E+03</rscale>
<asrwt>0</asrwt>
<pdfrwt beam="1">  1        4 0.21674790E-02 0.12501185E+03</pdfrwt>
<pdfrwt beam="2">  1       -4 0.42663920E-01 0.12501185E+03</pdfrwt>
<totfact> 0.76669717E+03</totfact>
</mgrwt>
</event>
<event>
 5    1  0.3282421E-002  0.1250017E+03  0.7818608E-02  0.1235067E+00
         -4   -1    0    0    0  501 -0.00000000000E+00  0.00000000000E+00  0.68705082884E+01  0.69869008968E+01  0.12700000000E+01 0. -1.
          4   -1    0    0  501    0  0.00000000000E+00 -0.00000000000E+00 -0.56367599141E+03  0.56367742211E+03  0.12700000000E+01 0. -1.
         25    2    1    2    0    0  0.00000000000E+00  0.00000000000E+00 -0.55680548313E+03  0.57066432301E+03  0.12500169404E+03 0.  0.
    9000005    1    3    3    0    0  0.11575960473E+02  0.12665464201E+02 -0.40717322464E+01  0.17663404196E+02  0.10000000000E+01 0.  0.
    9000005    1    3    3    0    0 -0.11575960473E+02 -0.12665464201E+02 -0.55273375088E+03  0.55300091881E+03  0.10000000000E+01 0.  0.
<mgrwt>
<rscale>  0 0.12500169E+03</rscale>
<asrwt>0</asrwt>
<pdfrwt beam="2">  1        4 0.86728410E-01 0.12500169E+03</pdfrwt>
<pdfrwt beam="1">  1       -4 0.10660651E-02 0.12500169E+03</pdfrwt>
<totfact> 0.50771442E+03</totfact>
</mgrwt>
</event>
<event>
 5    1  0.3282421E-002  0.1249726E+03  0.7818608E-02  0.1235112E+00
          4   -1    0    0  501    0  0.00000000000E+00  0.00000000000E+00  0.12103083998E+03  0.12103750297E+03  0.12700000000E+01 0. -1.
         -4   -1    0    0    0  501 -0.00000000000E+00 -0.00000000000E+00 -0.32240620327E+02  0.32265624108E+02  0.12700000000E+01 0. -1.
         25    2    1    2    0    0  0.00000000000E+00  0.00000000000E+00  0.88790219649E+02  0.15330312708E+03  0.12497257966E+03 0.  0.
    9000005    1    3    3    0    0  0.28482915613E+02 -0.43951582874E+02  0.26060812854E+01  0.52448162777E+02  0.10000000000E+01 0.  0.
    9000005    1    3    3    0    0 -0.28482915613E+02  0.43951582874E+02  0.86184138363E+02  0.10085496430E+03  0.10000000000E+01 0.  0.
<mgrwt>
<rscale>  0 0.12497258E+03</rscale>
<asrwt>0</asrwt>
<pdfrwt beam="1">  1        4 0.18622565E-01 0.12497258E+03</pdfrwt>
<pdfrwt beam="2">  1       -4 0.49625313E-02 0.12497258E+03</pdfrwt>
<totfact> 0.98710177E+03</totfact>
</mgrwt>
</event>
<event>
 5    1  0.3282421E-002  0.1249928E+03  0.7818608E-02  0.1235081E+00
          4   -1    0    0  501    0  0.00000000000E+00  0.00000000000E+00  0.39782650305E+03  0.39782853019E+03  0.12700000000E+01 0.  1.
         -4   -1    0    0    0  501 -0.00000000000E+00 -0.00000000000E+00 -0.97747139571E+01  0.98568723713E+01  0.12700000000E+01 0.  1.
         25    2    1    2    0    0  0.00000000000E+00  0.00000000000E+00  0.38805178909E+03  0.40768540256E+03  0.12499278555E+03 0.  0.
    9000005    1    3    3    0    0 -0.57213693784E+02 -0.77199907418E+01  0.27201968878E+03  0.27808041300E+03  0.10000000000E+01 0.  0.
    9000005    1    3    3    0    0  0.57213693784E+02  0.77199907418E+01  0.11603210032E+03  0.12960498955E+03  0.10000000000E+01 0.  0.
<mgrwt>
<rscale>  0 0.12499279E+03</rscale>
<asrwt>0</asrwt>
<pdfrwt beam="1">  1        4 0.61210546E-01 0.12499279E+03</pdfrwt>
<pdfrwt beam="2">  1       -4 0.15102781E-02 0.12499279E+03</pdfrwt>
<totfact> 0.63822281E+03</totfact>
</mgrwt>
</event>
<event>
 5    1  0.3282421E-002  0.1250047E+03  0.7818608E-02  0.1235062E+00
         -4   -1    0    0    0  501 -0.00000000000E+00  0.00000000000E+00  0.70656888345E+03  0.70657002481E+03  0.12700000000E+01 0. -1.
          4   -1    0    0  501    0  0.00000000000E+00 -0.00000000000E+00 -0.54548044061E+01  0.56006955915E+01  0.12700000000E+01 0. -1.
         25    2    1    2    0    0  0.00000000000E+00  0.00000000000E+00  0.70111407905E+03  0.71217072041E+03  0.12500473256E+03 0.  0.
    9000005    1    3    3    0    0  0.23956447241E+01  0.18159643574E+02  0.69096039831E+03  0.69120386559E+03  0.10000000000E+01 0.  0.
    9000005    1    3    3    0    0 -0.23956447241E+01 -0.18159643574E+02  0.10153680733E+02  0.20966854814E+02  0.10000000000E+01 0.  0.
<mgrwt>
<rscale>  0 0.12500473E+03</rscale>
<asrwt>0</asrwt>
<pdfrwt beam="2">  1        4 0.85051132E-03 0.12500473E+03</pdfrwt>
<pdfrwt beam="1">  1       -4 0.10871416E+00 0.12500473E+03</pdfrwt>
<totfact> 0.42447587E+03</totfact>
</mgrwt>
</event>
<event>
 5    1  0.3282421E-002  0.1250024E+03  0.7818608E-02  0.1235065E+00
         -4   -1    0    0    0  501 -0.00000000000E+00  0.00000000000E+00  0.15724143705E+03  0.15724656570E+03  0.12700000000E+01 0. -1.
          4   -1    0    0  501    0  0.00000000000E+00 -0.00000000000E+00 -0.24821574219E+02  0.24854042864E+02  0.12700000000E+01 0. -1.
         25    2    1    2    0    0  0.00000000000E+00  0.00000000000E+00  0.13241986283E+03  0.18210060857E+03  0.12500244625E+03 0.  0.
    9000005    1    3    3    0    0 -0.37621038560E+02  0.39430020775E+02  0.21657008429E+02  0.58652323865E+02  0.10000000000E+01 0.  0.
    9000005    1    3    3    0    0  0.37621038560E+02 -0.39430020775E+02  0.11076285440E+03  0.12344828470E+03  0.10000000000E+01 0.  0.
<mgrwt>
<rscale>  0 0.12500245E+03</rscale>
<asrwt>0</asrwt>
<pdfrwt beam="2">  1        4 0.38215959E-02 0.12500245E+03</pdfrwt>
<pdfrwt beam="1">  1       -4 0.24193882E-01 0.12500245E+03</pdfrwt>
<totfact> 0.93235135E+03</totfact>
</mgrwt>
</event>
<event>
 5    1  0.3282421E-002  0.1249990E+03  0.7818608E-02  0.1235071E+00
          4   -1    0    0  501    0  0.00000000000E+00  0.00000000000E+00  0.56548333065E+02  0.56562592519E+02  0.12700000000E+01 0.  1.
         -4   -1    0    0    0  501 -0.00000000000E+00 -0.00000000000E+00 -0.69048216552E+02  0.69059895084E+02  0.12700000000E+01 0.  1.
         25    2    1    2    0    0  0.00000000000E+00  0.00000000000E+00 -0.12499883487E+02  0.12562248760E+03  0.12499904921E+03 0.  0.
    9000005    1    3    3    0    0 -0.48899512924E+01 -0.18183220447E+02  0.53634578955E+02  0.56852521397E+02  0.10000000000E+01 0.  0.
    9000005    1    3    3    0    0  0.48899512924E+01  0.18183220447E+02 -0.66134462442E+02  0.68769966206E+02  0.10000000000E+01 0.  0.
<mgrwt>
<rscale>  0 0.12499905E+03</rscale>
<asrwt>0</asrwt>
<pdfrwt beam="1">  1        4 0.87017388E-02 0.12499905E+03</pdfrwt>
<pdfrwt beam="2">  1       -4 0.10624798E-01 0.12499905E+03</pdfrwt>
<totfact> 0.10439475E+04</totfact>
</mgrwt>
</event>
<event>
 5    1  0.3282421E-002  0.1250036E+03  0.7818608E-02  0.1235064E+00
          4   -1    0    0  501    0  0.00000000000E+00  0.00000000000E+00  0.23354165426E+02  0.23388671248E+02  0.12700000000E+01 0. -1.
         -4   -1    0    0    0  501 -0.00000000000E+00 -0.00000000000E+00 -0.16711071840E+03  0.16711554417E+03  0.12700000000E+01 0. -1.
         25    2    1    2    0    0  0.00000000000E+00  0.00000000000E+00 -0.14375655297E+03  0.19050421542E+03  0.12500363823E+03 0.  0.
    9000005    1    3    3    0    0 -0.17480990846E+02  0.57652983071E+02 -0.97197877031E+02  0.11435855367E+03  0.10000000000E+01 0.  0.
    9000005    1    3    3    0    0  0.17480990846E+02 -0.57652983071E+02 -0.46558675940E+02  0.76145661749E+02  0.10000000000E+01 0.  0.
<mgrwt>
<rscale>  0 0.12500364E+03</rscale>
<asrwt>0</asrwt>
<pdfrwt beam="1">  1        4 0.35959741E-02 0.12500364E+03</pdfrwt>
<pdfrwt beam="2">  1       -4 0.25712366E-01 0.12500364E+03</pdfrwt>
<totfact> 0.91752180E+03</totfact>
</mgrwt>
</event>
<event>
 5    1  0.3282421E-002  0.1250085E+03  0.7818608E-02  0.1235056E+00
         -4   -1    0    0    0  501 -0.00000000000E+00  0.00000000000E+00  0.26255139379E+02  0.26285837324E+02  0.12700000000E+01 0.  1.
          4   -1    0    0  501    0  0.00000000000E+00 -0.00000000000E+00 -0.14868022093E+03  0.14868564489E+03  0.12700000000E+01 0.  1.
         25    2    1    2    0    0  0.00000000000E+00  0.00000000000E+00 -0.12242508155E+03  0.17497148221E+03  0.12500847569E+03 0.  0.
    9000005    1    3    3    0    0 -0.60385409381E+02 -0.15993244733E+02 -0.63867579101E+02  0.89343434025E+02  0.10000000000E+01 0.  0.
    9000005    1    3    3    0    0  0.60385409381E+02  0.15993244733E+02 -0.58557502453E+02  0.85628048189E+02  0.10000000000E+01 0.  0.
<mgrwt>
<rscale>  0 0.12500848E+03</rscale>
<asrwt>0</asrwt>
<pdfrwt beam="2">  1        4 0.22876658E-01 0.12500848E+03</pdfrwt>
<pdfrwt beam="1">  1       -4 0.40420309E-02 0.12500848E+03</pdfrwt>
<totfact> 0.94512092E+03</totfact>
</mgrwt>
</event>
<event>
 5    1  0.3282421E-002  0.1250004E+03  0.7818608E-02  0.1235069E+00
          4   -1    0    0  501    0  0.00000000000E+00  0.00000000000E+00  0.47567859152E+03  0.47568028688E+03  0.12700000000E+01 0. -1.
         -4   -1    0    0    0  501 -0.00000000000E+00 -0.00000000000E+00 -0.81611824787E+01  0.82594067251E+01  0.12700000000E+01 0. -1.
         25    2    1    2    0    0  0.00000000000E+00  0.00000000000E+00  0.46751740904E+03  0.48393969361E+03  0.12500039718E+03 0.  0.
    9000005    1    3    3    0    0  0.59574301541E+02 -0.94158252574E+01  0.29708115301E+03  0.30314347535E+03  0.10000000000E+01 0.  0.
    9000005    1    3    3    0    0 -0.59574301541E+02  0.94158252574E+01  0.17043625603E+03  0.18079621826E+03  0.10000000000E+01 0.  0.
<mgrwt>
<rscale>  0 0.12500040E+03</rscale>
<asrwt>0</asrwt>
<pdfrwt beam="1">  1        4 0.73189034E-01 0.12500040E+03</pdfrwt>
<pdfrwt beam="2">  1       -4 0.12632522E-02 0.12500040E+03</pdfrwt>
<totfact> 0.57131827E+03</totfact>
</mgrwt>
</event>
<event>
 5    1  0.3282421E-002  0.1249980E+03  0.7818608E-02  0.1235072E+00
          4   -1    0    0  501    0  0.00000000000E+00  0.00000000000E+00  0.64587431297E+02  0.64599916266E+02  0.12700000000E+01 0.  1.
         -4   -1    0    0    0  501 -0.00000000000E+00 -0.00000000000E+00 -0.60453064990E+02  0.60466403620E+02  0.12700000000E+01 0.  1.
         25    2    1    2    0    0  0.00000000000E+00  0.00000000000E+00  0.41343663069E+01  0.12506631989E+03  0.12499796552E+03 0.  0.
    9000005    1    3    3    0    0 -0.41324203720E+02  0.24164818774E+02 -0.38123110554E+02  0.61204573667E+02  0.10000000000E+01 0.  0.
    9000005    1    3    3    0    0  0.41324203720E+02 -0.24164818774E+02  0.42257476861E+02  0.63861746219E+02  0.10000000000E+01 0.  0.
<mgrwt>
<rscale>  0 0.12499797E+03</rscale>
<asrwt>0</asrwt>
<pdfrwt beam="1">  1        4 0.99385142E-02 0.12499797E+03</pdfrwt>
<pdfrwt beam="2">  1       -4 0.93024581E-02 0.12499797E+03</pdfrwt>
<totfact> 0.10451903E+04</totfact>
</mgrwt>
</event>
<event>
 5    1  0.3282421E-002  0.1249998E+03  0.7818608E-02  0.1235070E+00
         -4   -1    0    0    0  501 -0.00000000000E+00  0.00000000000E+00  0.52075178928E+02  0.52090662890E+02  0.12700000000E+01 0.  1.
          4   -1    0    0  501    0  0.00000000000E+00 -0.00000000000E+00 -0.74979528640E+02  0.74990283471E+02  0.12700000000E+01 0.  1.
         25    2    1    2    0    0  0.00000000000E+00  0.00000000000E+00 -0.22904349713E+02  0.12708094636E+03  0.12499983077E+03 0.  0.
    9000005    1    3    3    0    0 -0.61283956039E+02 -0.11320546331E+02 -0.67533881698E+01  0.62693590492E+02  0.10000000000E+01 0.  0.
    9000005    1    3    3    0    0  0.61283956039E+02  0.11320546331E+02 -0.16150961543E+02  0.64387355869E+02  0.10000000000E+01 0.  0.
<mgrwt>
<rscale>  0 0.12499983E+03</rscale>
<asrwt>0</asrwt>
<pdfrwt beam="2">  1        4 0.11537331E-01 0.12499983E+03</pdfrwt>
<pdfrwt beam="1">  1       -4 0.80135843E-02 0.12499983E+03</pdfrwt>
<totfact> 0.10407427E+04</totfact>
</mgrwt>
</event>
<event>
 5    1  0.3282421E-002  0.1249911E+03  0.7818608E-02  0.1235083E+00
         -4   -1    0    0    0  501 -0.00000000000E+00  0.00000000000E+00  0.34024267707E+02  0.34047961657E+02  0.12700000000E+01 0. -1.
          4   -1    0    0  501    0  0.00000000000E+00 -0.00000000000E+00 -0.11472422995E+03  0.11473125920E+03  0.12700000000E+01 0. -1.
         25    2    1    2    0    0  0.00000000000E+00  0.00000000000E+00 -0.80699962245E+02  0.14877922086E+03  0.12499109029E+03 0.  0.
    9000005    1    3    3    0    0  0.33702082258E+02  0.47020800939E+02 -0.12234587680E+02  0.59139421752E+02  0.10000000000E+01 0.  0.
    9000005    1    3    3    0    0 -0.33702082258E+02 -0.47020800939E+02 -0.68465374564E+02  0.89639799106E+02  0.10000000000E+01 0.  0.
<mgrwt>
<rscale>  0 0.12499109E+03</rscale>
<asrwt>0</asrwt>
<pdfrwt beam="2">  1        4 0.17652245E-01 0.12499109E+03</pdfrwt>
<pdfrwt beam="1">  1       -4 0.52368661E-02 0.12499109E+03</pdfrwt>
<totfact> 0.99567567E+03</totfact>
</mgrwt>
</event>
<event>
 5    1  0.3282421E-002  0.1250198E+03  0.7818608E-02  0.1235038E+00
          4   -1    0    0  501    0  0.00000000000E+00  0.00000000000E+00  0.40704843629E+03  0.40705041750E+03  0.12700000000E+01 0.  1.
         -4   -1    0    0    0  501 -0.00000000000E+00 -0.00000000000E+00 -0.95555465125E+01  0.96395730794E+01  0.12700000000E+01 0.  1.
         25    2    1    2    0    0  0.00000000000E+00  0.00000000000E+00  0.39749288978E+03  0.41668999058E+03  0.12501980173E+03 0.  0.
    9000005    1    3    3    0    0  0.22640177208E+02 -0.23686431385E+02  0.21349125758E+02  0.39120452789E+02  0.10000000000E+01 0.  0.
    9000005    1    3    3    0    0 -0.22640177208E+02  0.23686431385E+02  0.37614376402E+03  0.37756953779E+03  0.10000000000E+01 0.  0.
<mgrwt>
<rscale>  0 0.12501980E+03</rscale>
<asrwt>0</asrwt>
<pdfrwt beam="1">  1        4 0.62629443E-01 0.12501980E+03</pdfrwt>
<pdfrwt beam="2">  1       -4 0.14767003E-02 0.12501980E+03</pdfrwt>
<totfact> 0.62933784E+03</totfact>
</mgrwt>
</event>
<event>
 5    1  0.3282421E-002  0.1249999E+03  0.7818608E-02  0.1235069E+00
         -4   -1    0    0    0  501 -0.00000000000E+00  0.00000000000E+00  0.15709184844E+03  0.15709698198E+03  0.12700000000E+01 0. -1.
          4   -1    0    0  501    0  0.00000000000E+00 -0.00000000000E+00 -0.24844218598E+02  0.24876657688E+02  0.12700000000E+01 0. -1.
         25    2    1    2    0    0  0.00000000000E+00  0.00000000000E+00  0.13224762984E+03  0.18197363967E+03  0.12499987974E+03 0.  0.
    9000005    1    3    3    0    0 -0.39582964793E+02  0.33585745741E+02  0.11677254469E+03  0.12779530747E+03  0.10000000000E+01 0.  0.
    9000005    1    3    3    0    0  0.39582964793E+02 -0.33585745741E+02  0.15475085154E+02  0.54178332193E+02  0.10000000000E+01 0.  0.
<mgrwt>
<rscale>  0 0.12499988E+03</rscale>
<asrwt>0</asrwt>
<pdfrwt beam="2">  1        4 0.38250778E-02 0.12499988E+03</pdfrwt>
<pdfrwt beam="1">  1       -4 0.24170866E-01 0.12499988E+03</pdfrwt>
<totfact> 0.93263195E+03</totfact>
</mgrwt>
</event>
<event>
 5    1  0.3282421E-002  0.1249976E+03  0.7818608E-02  0.1235073E+00
          4   -1    0    0  501    0  0.00000000000E+00  0.00000000000E+00  0.13983079219E+04  0.13983084987E+04  0.12700000000E+01 0. -1.
         -4   -1    0    0    0  501 -0.00000000000E+00 -0.00000000000E+00 -0.26484922451E+01  0.29372455077E+01  0.12700000000E+01 0. -1.
         25    2    1    2    0    0  0.00000000000E+00  0.00000000000E+00  0.13956594297E+04  0.14012457442E+04  0.12499756753E+03 0.  0.
    9000005    1    3    3    0    0  0.58768335510E+02 -0.18710223567E+02  0.58499697192E+03  0.58823995689E+03  0.10000000000E+01 0.  0.
    9000005    1    3    3    0    0 -0.58768335510E+02  0.18710223567E+02  0.81066245776E+03  0.81300578728E+03  0.10000000000E+01 0.  0.
<mgrwt>
<rscale>  0 0.12499757E+03</rscale>
<asrwt>0</asrwt>
<pdfrwt beam="1">  1        4 0.21514641E+00 0.12499757E+03</pdfrwt>
<pdfrwt beam="2">  1       -4 0.42971677E-03 0.12499757E+03</pdfrwt>
<totfact> 0.19955287E+03</totfact>
</mgrwt>
</event>
<event>
 5    1  0.3282421E-002  0.1249969E+03  0.7818608E-02  0.1235074E+00
         -4   -1    0    0    0  501 -0.00000000000E+00  0.00000000000E+00  0.77123183244E+02  0.77133639183E+02  0.12700000000E+01 0. -1.
          4   -1    0    0  501    0  0.00000000000E+00 -0.00000000000E+00 -0.50625160523E+02  0.50641087844E+02  0.12700000000E+01 0. -1.
         25    2    1    2    0    0  0.00000000000E+00  0.00000000000E+00  0.26498022721E+02  0.12777472703E+03  0.12499694260E+03 0.  0.
    9000005    1    3    3    0    0  0.41681929256E+02 -0.97874417088E+01  0.59778474952E+02  0.73536680026E+02  0.10000000000E+01 0.  0.
    9000005    1    3    3    0    0 -0.41681929256E+02  0.97874417088E+01 -0.33280452232E+02  0.54238047000E+02  0.10000000000E+01 0.  0.
<mgrwt>
<rscale>  0 0.12499694E+03</rscale>
<asrwt>0</asrwt>
<pdfrwt beam="2">  1        4 0.77905157E-02 0.12499694E+03</pdfrwt>
<pdfrwt beam="1">  1       -4 0.11867135E-01 0.12499694E+03</pdfrwt>
<totfact> 0.10393073E+04</totfact>
</mgrwt>
</event>
<event>
 5    1  0.3282421E-002  0.1249973E+03  0.7818608E-02  0.1235073E+00
          4   -1    0    0  501    0  0.00000000000E+00  0.00000000000E+00  0.43894238095E+03  0.43894421820E+03  0.12700000000E+01 0.  1.
         -4   -1    0    0    0  501 -0.00000000000E+00 -0.00000000000E+00 -0.88516763488E+01  0.89423192844E+01  0.12700000000E+01 0.  1.
         25    2    1    2    0    0  0.00000000000E+00  0.00000000000E+00  0.43009070460E+03  0.44788653749E+03  0.12499734508E+03 0.  0.
    9000005    1    3    3    0    0 -0.17373463122E+02  0.23360963084E+02  0.16914858046E+02  0.33685074437E+02  0.10000000000E+01 0.  0.
    9000005    1    3    3    0    0  0.17373463122E+02 -0.23360963084E+02  0.41317584655E+03  0.41420146305E+03  0.10000000000E+01 0.  0.
<mgrwt>
<rscale>  0 0.12499735E+03</rscale>
<asrwt>0</asrwt>
<pdfrwt beam="1">  1        4 0.67536699E-01 0.12499735E+03</pdfrwt>
<pdfrwt beam="2">  1       -4 0.13689105E-02 0.12499735E+03</pdfrwt>
<totfact> 0.60150844E+03</totfact>
</mgrwt>
</event>
<event>
 5    1  0.3282421E-002  0.1250007E+03  0.7818608E-02  0.1235068E+00
         -4   -1    0    0    0  501 -0.00000000000E+00  0.00000000000E+00  0.87131056564E+02  0.87140311671E+02  0.12700000000E+01 0. -1.
          4   -1    0    0  501    0  0.00000000000E+00 -0.00000000000E+00 -0.44811728393E+02  0.44829721185E+02  0.12700000000E+01 0. -1.
         25    2    1    2    0    0  0.00000000000E+00  0.00000000000E+00  0.42319328172E+02  0.13197003286E+03  0.12500065614E+03 0.  0.
    9000005    1    3    3    0    0  0.12267504009E+02  0.52396059250E+02  0.54702975903E+02  0.76741476740E+02  0.10000000000E+01 0.  0.
    9000005    1    3    3    0    0 -0.12267504009E+02 -0.52396059250E+02 -0.12383647731E+02  0.55228556116E+02  0.10000000000E+01 0.  0.
<mgrwt>
<rscale>  0 0.12500066E+03</rscale>
<asrwt>0</asrwt>
<pdfrwt beam="2">  1        4 0.68962081E-02 0.12500066E+03</pdfrwt>
<pdfrwt beam="1">  1       -4 0.13406874E-01 0.12500066E+03</pdfrwt>
<totfact> 0.10302186E+04</totfact>
</mgrwt>
</event>
<event>
 5    1  0.3282421E-002  0.1250034E+03  0.7818608E-02  0.1235064E+00
          4   -1    0    0  501    0  0.00000000000E+00  0.00000000000E+00  0.38301145018E+02  0.38322194740E+02  0.12700000000E+01 0.  1.
         -4   -1    0    0    0  501 -0.00000000000E+00 -0.00000000000E+00 -0.10194038273E+03  0.10194829342E+03  0.12700000000E+01 0.  1.
         25    2    1    2    0    0  0.00000000000E+00  0.00000000000E+00 -0.63639237709E+02  0.14027048816E+03  0.12500342904E+03 0.  0.
    9000005    1    3    3    0    0 -0.19529517042E+02 -0.50268477682E+02 -0.67253847310E+02  0.86211378961E+02  0.10000000000E+01 0.  0.
    9000005    1    3    3    0    0  0.19529517042E+02  0.50268477682E+02  0.36146096010E+01  0.54059109195E+02  0.10000000000E+01 0.  0.
<mgrwt>
<rscale>  0 0.12500343E+03</rscale>
<asrwt>0</asrwt>
<pdfrwt beam="1">  1        4 0.58947116E-02 0.12500343E+03</pdfrwt>
<pdfrwt beam="2">  1       -4 0.15685363E-01 0.12500343E+03</pdfrwt>
<totfact> 0.10127200E+04</totfact>
</mgrwt>
</event>
<event>
 5    1  0.3282421E-002  0.1250011E+03  0.7818608E-02  0.1235068E+00
         -4   -1    0    0    0  501 -0.00000000000E+00  0.00000000000E+00  0.38765205140E+03  0.38765413174E+03  0.12700000000E+01 0.  1.
          4   -1    0    0  501    0  0.00000000000E+00 -0.00000000000E+00 -0.10034734935E+02  0.10114781521E+02  0.12700000000E+01 0.  1.
         25    2    1    2    0    0  0.00000000000E+00  0.00000000000E+00  0.37761731647E+03  0.39776891326E+03  0.12500108265E+03 0.  0.
    9000005    1    3    3    0    0  0.55469437006E+02 -0.10603478167E+02  0.27395800121E+03  0.27972000039E+03  0.10000000000E+01 0.  0.
    9000005    1    3    3    0    0 -0.55469437006E+02  0.10603478167E+02  0.10365931526E+03  0.11804891287E+03  0.10000000000E+01 0.  0.
<mgrwt>
<rscale>  0 0.12500108E+03</rscale>
<asrwt>0</asrwt>
<pdfrwt beam="2">  1        4 0.15501227E-02 0.12500108E+03</pdfrwt>
<pdfrwt beam="1">  1       -4 0.59645099E-01 0.12500108E+03</pdfrwt>
<totfact> 0.64768809E+03</totfact>
</mgrwt>
</event>
<event>
 5    1  0.3282421E-002  0.1250023E+03  0.7818608E-02  0.1235066E+00
         -4   -1    0    0    0  501 -0.00000000000E+00  0.00000000000E+00  0.83109428622E+02  0.83119131528E+02  0.12700000000E+01 0.  1.
          4   -1    0    0  501    0  0.00000000000E+00 -0.00000000000E+00 -0.46981997845E+02  0.46999159796E+02  0.12700000000E+01 0.  1.
         25    2    1    2    0    0  0.00000000000E+00  0.00000000000E+00  0.36127430777E+02  0.13011829132E+03  0.12500231391E+03 0.  0.
    9000005    1    3    3    0    0 -0.46535638199E+02  0.19455949498E+02  0.56469481110E+02  0.75722532250E+02  0.10000000000E+01 0.  0.
    9000005    1    3    3    0    0  0.46535638199E+02 -0.19455949498E+02 -0.20342050333E+02  0.54395759074E+02  0.10000000000E+01 0.  0.
<mgrwt>
<rscale>  0 0.12500231E+03</rscale>
<asrwt>0</asrwt>
<pdfrwt beam="2">  1        4 0.72300663E-02 0.12500231E+03</pdfrwt>
<pdfrwt beam="1">  1       -4 0.12788132E-01 0.12500231E+03</pdfrwt>
<totfact> 0.10341438E+04</totfact>
</mgrwt>
</event>
<event>
 5    1  0.3282421E-002  0.1250074E+03  0.7818608E-02  0.1235058E+00
          4   -1    0    0  501    0  0.00000000000E+00  0.00000000000E+00  0.35935015175E+02  0.35957450071E+02  0.12700000000E+01 0. -1.
         -4   -1    0    0    0  501 -0.00000000000E+00 -0.00000000000E+00 -0.10865591679E+03  0.10866333859E+03  0.12700000000E+01 0. -1.
         25    2    1    2    0    0  0.00000000000E+00  0.00000000000E+00 -0.72720901616E+02  0.14462078866E+03  0.12500737171E+03 0.  0.
    9000005    1    3    3    0    0  0.60558715637E+02 -0.14071926655E+02 -0.29013138187E+02  0.68615882613E+02  0.10000000000E+01 0.  0.
    9000005    1    3    3    0    0 -0.60558715637E+02  0.14071926655E+02 -0.43707763429E+02  0.76004906048E+02  0.10000000000E+01 0.  0.
<mgrwt>
<rscale>  0 0.12500737E+03</rscale>
<asrwt>0</asrwt>
<pdfrwt beam="1">  1        4 0.55307606E-02 0.12500737E+03</pdfrwt>
<pdfrwt beam="2">  1       -4 0.16718591E-01 0.12500737E+03</pdfrwt>
<totfact> 0.10037033E+04</totfact>
</mgrwt>
</event>
<event>
 5    1  0.3282421E-002  0.1249908E+03  0.7818608E-02  0.1235084E+00
          4   -1    0    0  501    0  0.00000000000E+00  0.00000000000E+00  0.19401595934E+02  0.19443117671E+02  0.12700000000E+01 0.  1.
         -4   -1    0    0    0  501 -0.00000000000E+00 -0.00000000000E+00 -0.20104821739E+03  0.20105222858E+03  0.12700000000E+01 0.  1.
         25    2    1    2    0    0  0.00000000000E+00  0.00000000000E+00 -0.18164662146E+03  0.22049534625E+03  0.12499081018E+03 0.  0.
    9000005    1    3    3    0    0  0.44713941071E+02 -0.23978907620E+02 -0.15516678163E+03  0.16325457010E+03  0.10000000000E+01 0.  0.
    9000005    1    3    3    0    0 -0.44713941071E+02  0.23978907620E+02 -0.26479839822E+02  0.57240776145E+02  0.10000000000E+01 0.  0.
<mgrwt>
<rscale>  0 0.12499081E+03</rscale>
<asrwt>0</asrwt>
<pdfrwt beam="1">  1        4 0.29883636E-02 0.12499081E+03</pdfrwt>
<pdfrwt beam="2">  1       -4 0.30933996E-01 0.12499081E+03</pdfrwt>
<totfact> 0.86807846E+03</totfact>
</mgrwt>
</event>
<event>
 5    1  0.3282421E-002  0.1249981E+03  0.7818608E-02  0.1235072E+00
          4   -1    0    0  501    0  0.00000000000E+00  0.00000000000E+00  0.29251285968E+03  0.29251561664E+03  0.12700000000E+01 0.  1.
         -4   -1    0    0    0  501 -0.00000000000E+00 -0.00000000000E+00 -0.13320687329E+02  0.13381091544E+02  0.12700000000E+01 0.  1.
         25    2    1    2    0    0  0.00000000000E+00  0.00000000000E+00  0.27919217235E+03  0.30589670819E+03  0.12499810789E+03 0.  0.
    9000005    1    3    3    0    0 -0.49481682006E+02  0.37904772652E+02  0.12867288778E+03  0.14297874210E+03  0.10000000000E+01 0.  0.
    9000005    1    3    3    0    0  0.49481682006E+02 -0.37904772652E+02  0.15051928457E+03  0.16291796608E+03  0.10000000000E+01 0.  0.
<mgrwt>
<rscale>  0 0.12499811E+03</rscale>
<asrwt>0</asrwt>
<pdfrwt beam="1">  1        4 0.45006836E-01 0.12499811E+03</pdfrwt>
<pdfrwt beam="2">  1       -4 0.20541951E-02 0.12499811E+03</pdfrwt>
<totfact> 0.74868213E+03</totfact>
</mgrwt>
</event>
<event>
 5    1  0.3282421E-002  0.1250014E+03  0.7818608E-02  0.1235067E+00
         -4   -1    0    0    0  501 -0.00000000000E+00  0.00000000000E+00  0.30942680527E+01  0.33447563113E+01  0.12700000000E+01 0. -1.
          4   -1    0    0  501    0  0.00000000000E+00 -0.00000000000E+00 -0.12130805140E+04  0.12130811788E+04  0.12700000000E+01 0. -1.
         25    2    1    2    0    0  0.00000000000E+00  0.00000000000E+00 -0.12099862460E+04  0.12164259351E+04  0.12500136086E+03 0.  0.
    9000005    1    3    3    0    0 -0.52533507971E+01  0.38310744876E+02 -0.12726409539E+03  0.13301301005E+03  0.10000000000E+01 0.  0.
    9000005    1    3    3    0    0  0.52533507971E+01 -0.38310744876E+02 -0.10827221506E+04  0.10834129251E+04  0.10000000000E+01 0.  0.
<mgrwt>
<rscale>  0 0.12500136E+03</rscale>
<asrwt>0</asrwt>
<pdfrwt beam="2">  1        4 0.18664673E+00 0.12500136E+03</pdfrwt>
<pdfrwt beam="1">  1       -4 0.49536167E-03 0.12500136E+03</pdfrwt>
<totfact> 0.24286149E+03</totfact>
</mgrwt>
</event>
<event>
 5    1  0.3282421E-002  0.1249962E+03  0.7818608E-02  0.1235075E+00
          4   -1    0    0  501    0  0.00000000000E+00  0.00000000000E+00  0.40766140564E+02  0.40785918115E+02  0.12700000000E+01 0. -1.
         -4   -1    0    0    0  501 -0.00000000000E+00 -0.00000000000E+00 -0.95767839736E+02  0.95776260251E+02  0.12700000000E+01 0. -1.
         25    2    1    2    0    0  0.00000000000E+00  0.00000000000E+00 -0.55001699172E+02  0.13656217837E+03  0.12499616653E+03 0.  0.
    9000005    1    3    3    0    0 -0.20133736188E+02  0.36643837545E+02  0.23238623534E+02  0.47845290120E+02  0.10000000000E+01 0.  0.
    9000005    1    3    3    0    0  0.20133736188E+02 -0.36643837545E+02 -0.78240322706E+02  0.88716888246E+02  0.10000000000E+01 0.  0.
<mgrwt>
<rscale>  0 0.12499617E+03</rscale>
<asrwt>0</asrwt>
<pdfrwt beam="1">  1        4 0.62738831E-02 0.12499617E+03</pdfrwt>
<pdfrwt beam="2">  1       -4 0.14735683E-01 0.12499617E+03</pdfrwt>
<totfact> 0.10206130E+04</totfact>
</mgrwt>
</event>
<event>
 5    1  0.3282421E-002  0.1250016E+03  0.7818608E-02  0.1235067E+00
         -4   -1    0    0    0  501 -0.00000000000E+00  0.00000000000E+00  0.31647416960E+01  0.34100571846E+01  0.12700000000E+01 0. -1.
          4   -1    0    0  501    0  0.00000000000E+00 -0.00000000000E+00 -0.11880337285E+04  0.11880344073E+04  0.12700000000E+01 0. -1.
         25    2    1    2    0    0  0.00000000000E+00  0.00000000000E+00 -0.11848689868E+04  0.11914444645E+04  0.12500158433E+03 0.  0.
    9000005    1    3    3    0    0  0.96505249148E+01  0.16013801979E+02 -0.24072021868E+02  0.30496503435E+02  0.10000000000E+01 0.  0.
    9000005    1    3    3    0    0 -0.96505249148E+01 -0.16013801979E+02 -0.11607969650E+04  0.11609479611E+04  0.10000000000E+01 0.  0.
<mgrwt>
<rscale>  0 0.12500158E+03</rscale>
<asrwt>0</asrwt>
<pdfrwt beam="2">  1        4 0.18279300E+00 0.12500158E+03</pdfrwt>
<pdfrwt beam="1">  1       -4 0.50580692E-03 0.12500158E+03</pdfrwt>
<totfact> 0.24936989E+03</totfact>
</mgrwt>
</event>
<event>
 5    1  0.3282421E-002  0.1249996E+03  0.7818608E-02  0.1235070E+00
          4   -1    0    0  501    0  0.00000000000E+00  0.00000000000E+00  0.11582995394E+02  0.11652411008E+02  0.12700000000E+01 0.  1.
         -4   -1    0    0    0  501 -0.00000000000E+00 -0.00000000000E+00 -0.33615994937E+03  0.33616234837E+03  0.12700000000E+01 0.  1.
         25    2    1    2    0    0  0.00000000000E+00  0.00000000000E+00 -0.32457695398E+03  0.34781475938E+03  0.12499963115E+03 0.  0.
    9000005    1    3    3    0    0 -0.12490312254E+01  0.52976040445E+02 -0.70119797799E+02  0.87896569806E+02  0.10000000000E+01 0.  0.
    9000005    1    3    3    0    0  0.12490312254E+01 -0.52976040445E+02 -0.25445715618E+03  0.25991818958E+03  0.10000000000E+01 0.  0.
<mgrwt>
<rscale>  0 0.12499963E+03</rscale>
<asrwt>0</asrwt>
<pdfrwt beam="1">  1        4 0.17875238E-02 0.12499963E+03</pdfrwt>
<pdfrwt beam="2">  1       -4 0.51722432E-01 0.12499963E+03</pdfrwt>
<totfact> 0.69966204E+03</totfact>
</mgrwt>
</event>
<event>
 5    1  0.3282421E-002  0.1250012E+03  0.7818608E-02  0.1235067E+00
         -4   -1    0    0    0  501 -0.00000000000E+00  0.00000000000E+00  0.16082503152E+03  0.16083004590E+03  0.12700000000E+01 0. -1.
          4   -1    0    0  501    0  0.00000000000E+00 -0.00000000000E+00 -0.24267281499E+02  0.24300490763E+02  0.12700000000E+01 0. -1.
         25    2    1    2    0    0  0.00000000000E+00  0.00000000000E+00  0.13655775002E+03  0.18513053666E+03  0.12500118605E+03 0.  0.
    9000005    1    3    3    0    0  0.54412694647E+02 -0.30413830345E+02  0.74832615964E+02  0.97399501164E+02  0.10000000000E+01 0.  0.
    9000005    1    3    3    0    0 -0.54412694647E+02  0.30413830345E+02  0.61725134059E+02  0.87731035499E+02  0.10000000000E+01 0.  0.
<mgrwt>
<rscale>  0 0.12500119E+03</rscale>
<asrwt>0</asrwt>
<pdfrwt beam="2">  1        4 0.37363682E-02 0.12500119E+03</pdfrwt>
<pdfrwt beam="1">  1       -4 0.24745253E-01 0.12500119E+03</pdfrwt>
<totfact> 0.92699092E+03</totfact>
</mgrwt>
</event>
<event>
 5    1  0.3282421E-002  0.1250002E+03  0.7818608E-02  0.1235069E+00
          4   -1    0    0  501    0  0.00000000000E+00  0.00000000000E+00  0.53641200596E+02  0.53656232643E+02  0.12700000000E+01 0.  1.
         -4   -1    0    0    0  501 -0.00000000000E+00 -0.00000000000E+00 -0.72791313076E+02  0.72802391165E+02  0.12700000000E+01 0.  1.
         25    2    1    2    0    0  0.00000000000E+00  0.00000000000E+00 -0.19150112480E+02  0.12645862381E+03  0.12500022691E+03 0.  0.
    9000005    1    3    3    0    0 -0.69569821009E+01 -0.31317949879E+01  0.53173238660E+02  0.53727097906E+02  0.10000000000E+01 0.  0.
    9000005    1    3    3    0    0  0.69569821009E+01  0.31317949879E+01 -0.72323351140E+02  0.72731525901E+02  0.10000000000E+01 0.  0.
<mgrwt>
<rscale>  0 0.12500023E+03</rscale>
<asrwt>0</asrwt>
<pdfrwt beam="1">  1        4 0.82545008E-02 0.12500023E+03</pdfrwt>
<pdfrwt beam="2">  1       -4 0.11200672E-01 0.12500023E+03</pdfrwt>
<totfact> 0.10420877E+04</totfact>
</mgrwt>
</event>
<event>
 5    1  0.3282421E-002  0.1249990E+03  0.7818608E-02  0.1235071E+00
         -4   -1    0    0    0  501 -0.00000000000E+00  0.00000000000E+00  0.30053740644E+03  0.30054008979E+03  0.12700000000E+01 0.  1.
          4   -1    0    0  501    0  0.00000000000E+00 -0.00000000000E+00 -0.12963566123E+02  0.13025626535E+02  0.12700000000E+01 0.  1.
         25    2    1    2    0    0  0.00000000000E+00  0.00000000000E+00  0.28757384031E+03  0.31356571632E+03  0.12499897927E+03 0.  0.
    9000005    1    3    3    0    0 -0.21937875468E+02  0.49384064774E+02  0.65051731502E+02  0.84574133191E+02  0.10000000000E+01 0.  0.
    9000005    1    3    3    0    0  0.21937875468E+02 -0.49384064774E+02  0.22252210881E+03  0.22899158313E+03  0.10000000000E+01 0.  0.
<mgrwt>
<rscale>  0 0.12499898E+03</rscale>
<asrwt>0</asrwt>
<pdfrwt beam="2">  1        4 0.19993751E-02 0.12499898E+03</pdfrwt>
<pdfrwt beam="1">  1       -4 0.46241505E-01 0.12499898E+03</pdfrwt>
<totfact> 0.73929661E+03</totfact>
</mgrwt>
</event>
<event>
 5    1  0.3282421E-002  0.1250017E+03  0.7818608E-02  0.1235067E+00
          4   -1    0    0  501    0  0.00000000000E+00  0.00000000000E+00  0.28446486099E+02  0.28474821710E+02  0.12700000000E+01 0. -1.
         -4   -1    0    0    0  501 -0.00000000000E+00 -0.00000000000E+00 -0.13722328807E+03  0.13722916486E+03  0.12700000000E+01 0. -1.
         25    2    1    2    0    0  0.00000000000E+00  0.00000000000E+00 -0.10877680197E+03  0.16570398657E+03  0.12500167406E+03 0.  0.
    9000005    1    3    3    0    0  0.22590737290E+02  0.14785499555E+02  0.20322654717E+02  0.33807731411E+02  0.10000000000E+01 0.  0.
    9000005    1    3    3    0    0 -0.22590737290E+02 -0.14785499555E+02 -0.12909945669E+03  0.13189625516E+03  0.10000000000E+01 0.  0.
<mgrwt>
<rscale>  0 0.12500167E+03</rscale>
<asrwt>0</asrwt>
<pdfrwt beam="1">  1        4 0.43790143E-02 0.12500167E+03</pdfrwt>
<pdfrwt beam="2">  1       -4 0.21113906E-01 0.12500167E+03</pdfrwt>
<totfact> 0.96250615E+03</totfact>
</mgrwt>
</event>
<event>
 5    1  0.3282421E-002  0.1249981E+03  0.7818608E-02  0.1235072E+00
         -4   -1    0    0    0  501 -0.00000000000E+00  0.00000000000E+00  0.29062079504E+01  0.31715839341E+01  0.12700000000E+01 0. -1.
          4   -1    0    0  501    0  0.00000000000E+00 -0.00000000000E+00 -0.12851128915E+04  0.12851135191E+04  0.12700000000E+01 0. -1.
         25    2    1    2    0    0  0.00000000000E+00  0.00000000000E+00 -0.12822066836E+04  0.12882851030E+04  0.12499810873E+03 0.  0.
    9000005    1    3    3    0    0  0.14203139593E+01 -0.50572821263E+02 -0.10191549418E+04  0.10204104189E+04  0.10000000000E+01 0.  0.
    9000005    1    3    3    0    0 -0.14203139593E+01  0.50572821263E+02 -0.26305174173E+03  0.26787468407E+03  0.10000000000E+01 0.  0.
<mgrwt>
<rscale>  0 0.12499811E+03</rscale>
<asrwt>0</asrwt>
<pdfrwt beam="2">  1        4 0.19772970E+00 0.12499811E+03</pdfrwt>
<pdfrwt beam="1">  1       -4 0.46757175E-03 0.12499811E+03</pdfrwt>
<totfact> 0.22507703E+03</totfact>
</mgrwt>
</event>
<event>
 5    1  0.3282421E-002  0.1250007E+03  0.7818608E-02  0.1235068E+00
         -4   -1    0    0    0  501 -0.00000000000E+00  0.00000000000E+00  0.23905512792E+02  0.23939223919E+02  0.12700000000E+01 0. -1.
          4   -1    0    0  501    0  0.00000000000E+00 -0.00000000000E+00 -0.16325423098E+03  0.16325917074E+03  0.12700000000E+01 0. -1.
         25    2    1    2    0    0  0.00000000000E+00  0.00000000000E+00 -0.13934871819E+03  0.18719839466E+03  0.12500069482E+03 0.  0.
    9000005    1    3    3    0    0 -0.52920384689E+01  0.33607926564E+02 -0.14817656483E+03  0.15203549837E+03  0.10000000000E+01 0.  0.
    9000005    1    3    3    0    0  0.52920384689E+01 -0.33607926564E+02  0.88278466493E+01  0.35162896290E+02  0.10000000000E+01 0.  0.
<mgrwt>
<rscale>  0 0.12500069E+03</rscale>
<asrwt>0</asrwt>
<pdfrwt beam="2">  1        4 0.25119008E-01 0.12500069E+03</pdfrwt>
<pdfrwt beam="1">  1       -4 0.36807445E-02 0.12500069E+03</pdfrwt>
<totfact> 0.92335645E+03</totfact>
</mgrwt>
</event>
<event>
 5    1  0.3282421E-002  0.1249981E+03  0.7818608E-02  0.1235072E+00
          4   -1    0    0  501    0  0.00000000000E+00  0.00000000000E+00  0.78720643868E+01  0.79738508708E+01  0.12700000000E+01 0.  1.
         -4   -1    0    0    0  501 -0.00000000000E+00 -0.00000000000E+00 -0.49291186752E+03  0.49291350361E+03  0.12700000000E+01 0.  1.
         25    2    1    2    0    0  0.00000000000E+00  0.00000000000E+00 -0.48503980313E+03  0.50088735448E+03  0.12499812501E+03 0.  0.
    9000005    1    3    3    0    0  0.38058024618E+02  0.49068932611E+02 -0.21448140393E+03  0.22329228831E+03  0.10000000000E+01 0.  0.
    9000005    1    3    3    0    0 -0.38058024618E+02 -0.49068932611E+02 -0.27055839920E+03  0.27759506617E+03  0.10000000000E+01 0.  0.
<mgrwt>
<rscale>  0 0.12499813E+03</rscale>
<asrwt>0</asrwt>
<pdfrwt beam="1">  1        4 0.12190428E-02 0.12499813E+03</pdfrwt>
<pdfrwt beam="2">  1       -4 0.75840527E-01 0.12499813E+03</pdfrwt>
<totfact> 0.55797895E+03</totfact>
</mgrwt>
</event>
<event>
 5    1  0.3282421E-002  0.1250052E+03  0.7818608E-02  0.1235061E+00
         -4   -1    0    0    0  501 -0.00000000000E+00  0.00000000000E+00  0.37871981602E+02  0.37893269725E+02  0.12700000000E+01 0.  1.
          4   -1    0    0  501    0  0.00000000000E+00 -0.00000000000E+00 -0.10309793228E+03  0.10310575416E+03  0.12700000000E+01 0.  1.
         25    2    1    2    0    0  0.00000000000E+00  0.00000000000E+00 -0.65225950678E+02  0.14099902388E+03  0.12500520027E+03 0.  0.
    9000005    1    3    3    0    0  0.91641657036E+01  0.17548551749E+01 -0.10231336327E+03  0.10274281363E+03  0.10000000000E+01 0.  0.
    9000005    1    3    3    0    0 -0.91641657036E+01 -0.17548551749E+01  0.37087412593E+02  0.38256210248E+02  0.10000000000E+01 0.  0.
<mgrwt>
<rscale>  0 0.12500520E+03</rscale>
<asrwt>0</asrwt>
<pdfrwt beam="2">  1        4 0.15863459E-01 0.12500520E+03</pdfrwt>
<pdfrwt beam="1">  1       -4 0.58286980E-02 0.12500520E+03</pdfrwt>
<totfact> 0.10111738E+04</totfact>
</mgrwt>
</event>
<event>
 5    1  0.3282421E-002  0.1250005E+03  0.7818608E-02  0.1235068E+00
         -4   -1    0    0    0  501 -0.00000000000E+00  0.00000000000E+00  0.21773826627E+02  0.21810832766E+02  0.12700000000E+01 0. -1.
          4   -1    0    0  501    0  0.00000000000E+00 -0.00000000000E+00 -0.17921105136E+03  0.17921555130E+03  0.12700000000E+01 0. -1.
         25    2    1    2    0    0  0.00000000000E+00  0.00000000000E+00 -0.15743722473E+03  0.20102638407E+03  0.12500050944E+03 0.  0.
    9000005    1    3    3    0    0  0.59319136835E+02 -0.19408425363E+02 -0.73675187016E+02  0.96563347869E+02  0.10000000000E+01 0.  0.
    9000005    1    3    3    0    0 -0.59319136835E+02  0.19408425363E+02 -0.83762037715E+02  0.10446303620E+03  0.10000000000E+01 0.  0.
<mgrwt>
<rscale>  0 0.12500051E+03</rscale>
<asrwt>0</asrwt>
<pdfrwt beam="2">  1        4 0.27574123E-01 0.12500051E+03</pdfrwt>
<pdfrwt beam="1">  1       -4 0.33530124E-02 0.12500051E+03</pdfrwt>
<totfact> 0.89961662E+03</totfact>
</mgrwt>
</event>
<event>
 5    1  0.3282421E-002  0.1249988E+03  0.7818608E-02  0.1235071E+00
          4   -1    0    0  501    0  0.00000000000E+00  0.00000000000E+00  0.58746110468E+03  0.58746247745E+03  0.12700000000E+01 0.  1.
         -4   -1    0    0    0  501 -0.00000000000E+00 -0.00000000000E+00 -0.65872150378E+01  0.67085245735E+01  0.12700000000E+01 0.  1.
         25    2    1    2    0    0  0.00000000000E+00  0.00000000000E+00  0.58087388964E+03  0.59417100202E+03  0.12499881591E+03 0.  0.
    9000005    1    3    3    0    0  0.56325069938E+02 -0.16104174595E+02  0.18702228978E+03  0.19598519030E+03  0.10000000000E+01 0.  0.
    9000005    1    3    3    0    0 -0.56325069938E+02  0.16104174595E+02  0.39385159986E+03  0.39818581172E+03  0.10000000000E+01 0.  0.
<mgrwt>
<rscale>  0 0.12499882E+03</rscale>
<asrwt>0</asrwt>
<pdfrwt beam="1">  1        4 0.90388085E-01 0.12499882E+03</pdfrwt>
<pdfrwt beam="2">  1       -4 0.10228546E-02 0.12499882E+03</pdfrwt>
<totfact> 0.49238904E+03</totfact>
</mgrwt>
</event>
<event>
 5    1  0.3282421E-002  0.1249976E+03  0.7818608E-02  0.1235073E+00
          4   -1    0    0  501    0  0.00000000000E+00  0.00000000000E+00  0.84696894100E+01  0.85643761421E+01  0.12700000000E+01 0. -1.
         -4   -1    0    0    0  501 -0.00000000000E+00 -0.00000000000E+00 -0.45852665047E+03  0.45852840925E+03  0.12700000000E+01 0. -1.
         25    2    1    2    0    0  0.00000000000E+00  0.00000000000E+00 -0.45005696106E+03  0.46709278539E+03  0.12499760785E+03 0.  0.
    9000005    1    3    3    0    0 -0.89757588263E+01 -0.54105123129E+02 -0.33695662088E+03  0.34139228602E+03  0.10000000000E+01 0.  0.
    9000005    1    3    3    0    0  0.89757588263E+01  0.54105123129E+02 -0.11310034017E+03  0.12570049937E+03  0.10000000000E+01 0.  0.
<mgrwt>
<rscale>  0 0.12499761E+03</rscale>
<asrwt>0</asrwt>
<pdfrwt beam="1">  1        4 0.13104484E-02 0.12499761E+03</pdfrwt>
<pdfrwt beam="2">  1       -4 0.70549961E-01 0.12499761E+03</pdfrwt>
<totfact> 0.58514218E+03</totfact>
</mgrwt>
</event>
<event>
 5    1  0.3282421E-002  0.1249946E+03  0.7818608E-02  0.1235078E+00
         -4   -1    0    0    0  501 -0.00000000000E+00  0.00000000000E+00  0.11874603615E+02  0.11942324355E+02  0.12700000000E+01 0.  1.
          4   -1    0    0  501    0  0.00000000000E+00 -0.00000000000E+00 -0.32792592111E+03  0.32792838035E+03  0.12700000000E+01 0.  1.
         25    2    1    2    0    0  0.00000000000E+00  0.00000000000E+00 -0.31605131750E+03  0.33987070470E+03  0.12499464238E+03 0.  0.
    9000005    1    3    3    0    0 -0.28573283033E+02 -0.22904430930E+01 -0.30900786059E+03  0.31033616699E+03  0.10000000000E+01 0.  0.
    9000005    1    3    3    0    0  0.28573283033E+02  0.22904430930E+01 -0.70434569052E+01  0.29534537715E+02  0.10000000000E+01 0.  0.
<mgrwt>
<rscale>  0 0.12499464E+03</rscale>
<asrwt>0</asrwt>
<pdfrwt beam="2">  1        4 0.50455533E-01 0.12499464E+03</pdfrwt>
<pdfrwt beam="1">  1       -4 0.18322608E-02 0.12499464E+03</pdfrwt>
<totfact> 0.70861877E+03</totfact>
</mgrwt>
</event>
<event>
 5    1  0.3282421E-002  0.1249993E+03  0.7818608E-02  0.1235070E+00
         -4   -1    0    0    0  501 -0.00000000000E+00  0.00000000000E+00  0.10131880590E+03  0.10132676512E+03  0.12700000000E+01 0.  1.
          4   -1    0    0  501    0  0.00000000000E+00 -0.00000000000E+00 -0.38533687012E+02  0.38554609773E+02  0.12700000000E+01 0.  1.
         25    2    1    2    0    0  0.00000000000E+00  0.00000000000E+00  0.62785118891E+02  0.13988137489E+03  0.12499931155E+03 0.  0.
    9000005    1    3    3    0    0  0.25066536500E+02  0.25697029386E+02  0.88634694988E+02  0.95633559627E+02  0.10000000000E+01 0.  0.
    9000005    1    3    3    0    0 -0.25066536500E+02 -0.25697029386E+02 -0.25849576097E+02  0.44247815265E+02  0.10000000000E+01 0.  0.
<mgrwt>
<rscale>  0 0.12499931E+03</rscale>
<asrwt>0</asrwt>
<pdfrwt beam="2">  1        4 0.59304812E-02 0.12499931E+03</pdfrwt>
<pdfrwt beam="1">  1       -4 0.15589730E-01 0.12499931E+03</pdfrwt>
<totfact> 0.10136202E+04</totfact>
</mgrwt>
</event>
<event>
 5    1  0.3282421E-002  0.1250009E+03  0.7818608E-02  0.1235068E+00
         -4   -1    0    0    0  501 -0.00000000000E+00  0.00000000000E+00  0.95262300844E+02  0.95270766042E+02  0.12700000000E+01 0. -1.
          4   -1    0    0  501    0  0.00000000000E+00 -0.00000000000E+00 -0.40985684890E+02  0.41005356552E+02  0.12700000000E+01 0. -1.
         25    2    1    2    0    0  0.00000000000E+00  0.00000000000E+00  0.54276615954E+02  0.13627612259E+03  0.12500092220E+03 0.  0.
    9000005    1    3    3    0    0 -0.44921454881E+02 -0.76056859846E+01 -0.19492787155E+02  0.49565636474E+02  0.10000000000E+01 0.  0.
    9000005    1    3    3    0    0  0.44921454881E+02  0.76056859846E+01  0.73769403109E+02  0.86710486120E+02  0.10000000000E+01 0.  0.
<mgrwt>
<rscale>  0 0.12500092E+03</rscale>
<asrwt>0</asrwt>
<pdfrwt beam="2">  1        4 0.63076544E-02 0.12500092E+03</pdfrwt>
<pdfrwt beam="1">  1       -4 0.14657903E-01 0.12500092E+03</pdfrwt>
<totfact> 0.10211031E+04</totfact>
</mgrwt>
</event>
<event>
 5    1  0.3282421E-002  0.1250035E+03  0.7818608E-02  0.1235064E+00
          4   -1    0    0  501    0  0.00000000000E+00  0.00000000000E+00  0.98832561882E+03  0.98832643479E+03  0.12700000000E+01 0.  1.
         -4   -1    0    0    0  501 -0.00000000000E+00 -0.00000000000E+00 -0.38497574329E+01  0.40538293369E+01  0.12700000000E+01 0.  1.
         25    2    1    2    0    0  0.00000000000E+00  0.00000000000E+00  0.98447586138E+03  0.99238026413E+03  0.12500346790E+03 0.  0.
    9000005    1    3    3    0    0  0.11610653538E+02  0.59361456893E+02  0.61697521668E+03  0.61993387376E+03  0.10000000000E+01 0.  0.
    9000005    1    3    3    0    0 -0.11610653538E+02 -0.59361456893E+02  0.36750064471E+03  0.37244639037E+03  0.10000000000E+01 0.  0.
<mgrwt>
<rscale>  0 0.12500347E+03</rscale>
<asrwt>0</asrwt>
<pdfrwt beam="1">  1        4 0.15206614E+00 0.12500347E+03</pdfrwt>
<pdfrwt beam="2">  1       -4 0.60802985E-03 0.12500347E+03</pdfrwt>
<totfact> 0.30855016E+03</totfact>
</mgrwt>
</event>
<event>
 5    1  0.3282421E-002  0.1250084E+03  0.7818608E-02  0.1235056E+00
          4   -1    0    0  501    0  0.00000000000E+00  0.00000000000E+00  0.19232434073E+03  0.19232853386E+03  0.12700000000E+01 0. -1.
         -4   -1    0    0    0  501 -0.00000000000E+00 -0.00000000000E+00 -0.20289203085E+02  0.20328911969E+02  0.12700000000E+01 0. -1.
         25    2    1    2    0    0  0.00000000000E+00  0.00000000000E+00  0.17203513765E+03  0.21265744583E+03  0.12500840245E+03 0.  0.
    9000005    1    3    3    0    0 -0.61584493200E+02 -0.10073918409E+02  0.80213313265E+02  0.10163320943E+03  0.10000000000E+01 0.  0.
    9000005    1    3    3    0    0  0.61584493200E+02  0.10073918409E+02  0.91821824380E+02  0.11102423640E+03  0.10000000000E+01 0.  0.
<mgrwt>
<rscale>  0 0.12500840E+03</rscale>
<asrwt>0</asrwt>
<pdfrwt beam="1">  1        4 0.29591738E-01 0.12500840E+03</pdfrwt>
<pdfrwt beam="2">  1       -4 0.31247929E-02 0.12500840E+03</pdfrwt>
<totfact> 0.88027182E+03</totfact>
</mgrwt>
</event>
<event>
 5    1  0.3282421E-002  0.1250010E+03  0.7818608E-02  0.1235068E+00
          4   -1    0    0  501    0  0.00000000000E+00  0.00000000000E+00  0.20202349207E+02  0.20242228471E+02  0.12700000000E+01 0. -1.
         -4   -1    0    0    0  501 -0.00000000000E+00 -0.00000000000E+00 -0.19312662788E+03  0.19313080359E+03  0.12700000000E+01 0. -1.
         25    2    1    2    0    0  0.00000000000E+00  0.00000000000E+00 -0.17292427867E+03  0.21337303206E+03  0.12500097862E+03 0.  0.
    9000005    1    3    3    0    0 -0.28207967796E+02  0.39865703775E+02 -0.19904558158E+02  0.52746139386E+02  0.10000000000E+01 0.  0.
    9000005    1    3    3    0    0  0.28207967796E+02 -0.39865703775E+02 -0.15301972051E+03  0.16062689267E+03  0.10000000000E+01 0.  0.
<mgrwt>
<rscale>  0 0.12500098E+03</rscale>
<asrwt>0</asrwt>
<pdfrwt beam="1">  1        4 0.31114427E-02 0.12500098E+03</pdfrwt>
<pdfrwt beam="2">  1       -4 0.29715176E-01 0.12500098E+03</pdfrwt>
<totfact> 0.87926044E+03</totfact>
</mgrwt>
</event>
<event>
 5    1  0.3282421E-002  0.1250401E+03  0.7818608E-02  0.1235007E+00
         -4   -1    0    0    0  501 -0.00000000000E+00  0.00000000000E+00  0.21537848269E+03  0.21538222700E+03  0.12700000000E+01 0.  1.
          4   -1    0    0  501    0  0.00000000000E+00 -0.00000000000E+00 -0.18122178325E+02  0.18166624542E+02  0.12700000000E+01 0.  1.
         25    2    1    2    0    0  0.00000000000E+00  0.00000000000E+00  0.19725630437E+03  0.23354885154E+03  0.12504005935E+03 0.  0.
    9000005    1    3    3    0    0 -0.31229600843E+02 -0.51085217562E+02  0.13218436331E+03  0.14511613738E+03  0.10000000000E+01 0.  0.
    9000005    1    3    3    0    0  0.31229600843E+02  0.51085217562E+02  0.65071941053E+02  0.88432714165E+02  0.10000000000E+01 0.  0.
<mgrwt>
<rscale>  0 0.12504006E+03</rscale>
<asrwt>0</asrwt>
<pdfrwt beam="2">  1        4 0.27917343E-02 0.12504006E+03</pdfrwt>
<pdfrwt beam="1">  1       -4 0.33138859E-01 0.12504006E+03</pdfrwt>
<totfact> 0.84691931E+03</totfact>
</mgrwt>
</event>
<event>
 5    1  0.3282421E-002  0.1249992E+03  0.7818608E-02  0.1235071E+00
         -4   -1    0    0    0  501 -0.00000000000E+00  0.00000000000E+00  0.14769374794E+02  0.14823877084E+02  0.12700000000E+01 0.  1.
          4   -1    0    0  501    0  0.00000000000E+00 -0.00000000000E+00 -0.26393660497E+03  0.26393966042E+03  0.12700000000E+01 0.  1.
         25    2    1    2    0    0  0.00000000000E+00  0.00000000000E+00 -0.24916723018E+03  0.27876353750E+03  0.12499920499E+03 0.  0.
    9000005    1    3    3    0    0  0.61674984661E+02  0.24566457571E+01 -0.14636147433E+03  0.15884747404E+03  0.10000000000E+01 0.  0.
    9000005    1    3    3    0    0 -0.61674984661E+02 -0.24566457571E+01 -0.10280575585E+03  0.11991606347E+03  0.10000000000E+01 0.  0.
<mgrwt>
<rscale>  0 0.12499920E+03</rscale>
<asrwt>0</asrwt>
<pdfrwt beam="2">  1        4 0.40610056E-01 0.12499920E+03</pdfrwt>
<pdfrwt beam="1">  1       -4 0.22766392E-02 0.12499920E+03</pdfrwt>
<totfact> 0.78343723E+03</totfact>
</mgrwt>
</event>
<event>
 5    1  0.3282421E-002  0.1249764E+03  0.7818608E-02  0.1235106E+00
          4   -1    0    0  501    0  0.00000000000E+00  0.00000000000E+00  0.10873881207E+04  0.10873888623E+04  0.12700000000E+01 0.  1.
         -4   -1    0    0    0  501 -0.00000000000E+00 -0.00000000000E+00 -0.34779149727E+01  0.37025386639E+01  0.12700000000E+01 0.  1.
         25    2    1    2    0    0  0.00000000000E+00  0.00000000000E+00  0.10839102057E+04  0.10910914010E+04  0.12497644283E+03 0.  0.
    9000005    1    3    3    0    0 -0.54635758309E+02  0.30306343756E+02  0.53770261188E+03  0.54132119798E+03  0.10000000000E+01 0.  0.
    9000005    1    3    3    0    0  0.54635758309E+02 -0.30306343756E+02  0.54620759384E+03  0.54977020302E+03  0.10000000000E+01 0.  0.
<mgrwt>
<rscale>  0 0.12497644E+03</rscale>
<asrwt>0</asrwt>
<pdfrwt beam="1">  1        4 0.16730782E+00 0.12497644E+03</pdfrwt>
<pdfrwt beam="2">  1       -4 0.55239962E-03 0.12497644E+03</pdfrwt>
<totfact> 0.27759847E+03</totfact>
</mgrwt>
</event>
<event>
 5    1  0.3282421E-002  0.1250018E+03  0.7818608E-02  0.1235066E+00
          4   -1    0    0  501    0  0.00000000000E+00  0.00000000000E+00  0.50954339271E+01  0.52513185873E+01  0.12700000000E+01 0.  1.
         -4   -1    0    0    0  501 -0.00000000000E+00 -0.00000000000E+00 -0.75493320994E+03  0.75493427818E+03  0.12700000000E+01 0.  1.
         25    2    1    2    0    0  0.00000000000E+00  0.00000000000E+00 -0.74983777601E+03  0.76018559677E+03  0.12500180477E+03 0.  0.
    9000005    1    3    3    0    0  0.46653750768E+02 -0.19267086263E+02 -0.15084852097E+03  0.15907252860E+03  0.10000000000E+01 0.  0.
    9000005    1    3    3    0    0 -0.46653750768E+02  0.19267086263E+02 -0.59898925504E+03  0.60111306817E+03  0.10000000000E+01 0.  0.
<mgrwt>
<rscale>  0 0.12500180E+03</rscale>
<asrwt>0</asrwt>
<pdfrwt beam="1">  1        4 0.79598681E-03 0.12500180E+03</pdfrwt>
<pdfrwt beam="2">  1       -4 0.11615556E+00 0.12500180E+03</pdfrwt>
<totfact> 0.40090080E+03</totfact>
</mgrwt>
</event>
<event>
 5    1  0.3282421E-002  0.1250021E+03  0.7818608E-02  0.1235066E+00
          4   -1    0    0  501    0  0.00000000000E+00  0.00000000000E+00  0.20007232515E+02  0.20047499916E+02  0.12700000000E+01 0. -1.
         -4   -1    0    0    0  501 -0.00000000000E+00 -0.00000000000E+00 -0.19500996996E+03  0.19501410534E+03  0.12700000000E+01 0. -1.
         25    2    1    2    0    0  0.00000000000E+00  0.00000000000E+00 -0.17500273744E+03  0.21506160526E+03  0.12500214376E+03 0.  0.
    9000005    1    3    3    0    0  0.25609374357E+02  0.16556435324E+02  0.63455834030E+01  0.31164435409E+02  0.10000000000E+01 0.  0.
    9000005    1    3    3    0    0 -0.25609374357E+02 -0.16556435324E+02 -0.18134832084E+03  0.18389716985E+03  0.10000000000E+01 0.  0.
<mgrwt>
<rscale>  0 0.12500214E+03</rscale>
<asrwt>0</asrwt>
<pdfrwt beam="1">  1        4 0.30814515E-02 0.12500214E+03</pdfrwt>
<pdfrwt beam="2">  1       -4 0.30004948E-01 0.12500214E+03</pdfrwt>
<totfact> 0.87651670E+03</totfact>
</mgrwt>
</event>
<event>
 5    1  0.3282421E-002  0.1250006E+03  0.7818608E-02  0.1235068E+00
          4   -1    0    0  501    0  0.00000000000E+00  0.00000000000E+00  0.42935777156E+02  0.42954555753E+02  0.12700000000E+01 0. -1.
         -4   -1    0    0    0  501 -0.00000000000E+00 -0.00000000000E+00 -0.90936711370E+02  0.90945579193E+02  0.12700000000E+01 0. -1.
         25    2    1    2    0    0  0.00000000000E+00  0.00000000000E+00 -0.48000934215E+02  0.13390013495E+03  0.12500062581E+03 0.  0.
    9000005    1    3    3    0    0  0.58817644210E+01 -0.23482386838E+02  0.37714459077E+02  0.44826309995E+02  0.10000000000E+01 0.  0.
    9000005    1    3    3    0    0 -0.58817644210E+01  0.23482386838E+02 -0.85715393292E+02  0.89073824951E+02  0.10000000000E+01 0.  0.
<mgrwt>
<rscale>  0 0.12500063E+03</rscale>
<asrwt>0</asrwt>
<pdfrwt beam="1">  1        4 0.66076308E-02 0.12500063E+03</pdfrwt>
<pdfrwt beam="2">  1       -4 0.13992390E-01 0.12500063E+03</pdfrwt>
<totfact> 0.10261161E+04</totfact>
</mgrwt>
</event>
<event>
 5    1  0.3282421E-002  0.1250030E+03  0.7818608E-02  0.1235065E+00
          4   -1    0    0  501    0  0.00000000000E+00  0.00000000000E+00  0.43809722901E+03  0.43809906980E+03  0.12700000000E+01 0. -1.
         -4   -1    0    0    0  501 -0.00000000000E+00 -0.00000000000E+00 -0.88697375703E+01  0.89601977973E+01  0.12700000000E+01 0. -1.
         25    2    1    2    0    0  0.00000000000E+00  0.00000000000E+00  0.42922749143E+03  0.44705926760E+03  0.12500299734E+03 0.  0.
    9000005    1    3    3    0    0 -0.52870208853E+01  0.16113186688E+02 -0.50088609372E+00  0.16995242334E+02  0.10000000000E+01 0.  0.
    9000005    1    3    3    0    0  0.52870208853E+01 -0.16113186688E+02  0.42972837753E+03  0.43006402527E+03  0.10000000000E+01 0.  0.
<mgrwt>
<rscale>  0 0.12500300E+03</rscale>
<asrwt>0</asrwt>
<pdfrwt beam="1">  1        4 0.67406681E-01 0.12500300E+03</pdfrwt>
<pdfrwt beam="2">  1       -4 0.13716749E-02 0.12500300E+03</pdfrwt>
<totfact> 0.60215418E+03</totfact>
</mgrwt>
</event>
<event>
 5    1  0.3282421E-002  0.1249980E+03  0.7818608E-02  0.1235072E+00
          4   -1    0    0  501    0  0.00000000000E+00  0.00000000000E+00  0.12966906898E+02  0.13028951397E+02  0.12700000000E+01 0.  1.
         -4   -1    0    0    0  501 -0.00000000000E+00 -0.00000000000E+00 -0.30045579762E+03  0.30045848170E+03  0.12700000000E+01 0.  1.
         25    2    1    2    0    0  0.00000000000E+00  0.00000000000E+00 -0.28748889072E+03  0.31348743310E+03  0.12499803366E+03 0.  0.
    9000005    1    3    3    0    0 -0.45653470824E+02  0.16234966540E+02 -0.44774122220E+02  0.65981327339E+02  0.10000000000E+01 0.  0.
    9000005    1    3    3    0    0  0.45653470824E+02 -0.16234966540E+02 -0.24271476850E+03  0.24750610576E+03  0.10000000000E+01 0.  0.
<mgrwt>
<rscale>  0 0.12499803E+03</rscale>
<asrwt>0</asrwt>
<pdfrwt beam="1">  1        4 0.19998881E-02 0.12499803E+03</pdfrwt>
<pdfrwt beam="2">  1       -4 0.46228943E-01 0.12499803E+03</pdfrwt>
<totfact> 0.73940689E+03</totfact>
</mgrwt>
</event>
<event>
 5    1  0.3282421E-002  0.1249626E+03  0.7818608E-02  0.1235128E+00
         -4   -1    0    0    0  501 -0.00000000000E+00  0.00000000000E+00  0.66468756047E+01  0.67671157301E+01  0.12700000000E+01 0. -1.
          4   -1    0    0  501    0  0.00000000000E+00 -0.00000000000E+00 -0.58194480412E+03  0.58194618991E+03  0.12700000000E+01 0. -1.
         25    2    1    2    0    0  0.00000000000E+00  0.00000000000E+00 -0.57529792852E+03  0.58871330564E+03  0.12496259310E+03 0.  0.
    9000005    1    3    3    0    0 -0.68615327193E+01 -0.57784645250E+02 -0.39474441536E+03  0.39901165311E+03  0.10000000000E+01 0.  0.
    9000005    1    3    3    0    0  0.68615327193E+01  0.57784645250E+02 -0.18055351316E+03  0.18970165253E+03  0.10000000000E+01 0.  0.
<mgrwt>
<rscale>  0 0.12496259E+03</rscale>
<asrwt>0</asrwt>
<pdfrwt beam="2">  1        4 0.89539285E-01 0.12496259E+03</pdfrwt>
<pdfrwt beam="1">  1       -4 0.10319526E-02 0.12496259E+03</pdfrwt>
<totfact> 0.49628622E+03</totfact>
</mgrwt>
</event>
<event>
 5    1  0.3282421E-002  0.1249988E+03  0.7818608E-02  0.1235071E+00
         -4   -1    0    0    0  501 -0.00000000000E+00  0.00000000000E+00  0.86967916220E+02  0.86977188686E+02  0.12700000000E+01 0.  1.
          4   -1    0    0  501    0  0.00000000000E+00 -0.00000000000E+00 -0.44894477274E+02  0.44912436916E+02  0.12700000000E+01 0.  1.
         25    2    1    2    0    0  0.00000000000E+00  0.00000000000E+00  0.42073438946E+02  0.13188962560E+03  0.12499879630E+03 0.  0.
    9000005    1    3    3    0    0  0.50246137878E+02  0.34752474522E+02  0.34905358138E+02  0.70368976714E+02  0.10000000000E+01 0.  0.
    9000005    1    3    3    0    0 -0.50246137878E+02 -0.34752474522E+02  0.71680808077E+01  0.61520648887E+02  0.10000000000E+01 0.  0.
<mgrwt>
<rscale>  0 0.12499880E+03</rscale>
<asrwt>0</asrwt>
<pdfrwt beam="2">  1        4 0.69089375E-02 0.12499880E+03</pdfrwt>
<pdfrwt beam="1">  1       -4 0.13381774E-01 0.12499880E+03</pdfrwt>
<totfact> 0.10304335E+04</totfact>
</mgrwt>
</event>
<event>
 5    1  0.3282421E-002  0.1249998E+03  0.7818608E-02  0.1235070E+00
         -4   -1    0    0    0  501 -0.00000000000E+00  0.00000000000E+00  0.19430551512E+02  0.19472011506E+02  0.12700000000E+01 0. -1.
          4   -1    0    0  501    0  0.00000000000E+00 -0.00000000000E+00 -0.20077812223E+03  0.20078213881E+03  0.12700000000E+01 0. -1.
         25    2    1    2    0    0  0.00000000000E+00  0.00000000000E+00 -0.18134757071E+03  0.22025415031E+03  0.12499979731E+03 0.  0.
    9000005    1    3    3    0    0  0.49551720515E+01  0.15836666222E+01 -0.20040458065E+03  0.20047458112E+03  0.10000000000E+01 0.  0.
    9000005    1    3    3    0    0 -0.49551720515E+01 -0.15836666222E+01  0.19057009933E+02  0.19779569197E+02  0.10000000000E+01 0.  0.
<mgrwt>
<rscale>  0 0.12499980E+03</rscale>
<asrwt>0</asrwt>
<pdfrwt beam="2">  1        4 0.30892439E-01 0.12499980E+03</pdfrwt>
<pdfrwt beam="1">  1       -4 0.29928140E-02 0.12499980E+03</pdfrwt>
<totfact> 0.86828543E+03</totfact>
</mgrwt>
</event>
<event>
 5    1  0.3282421E-002  0.1250394E+03  0.7818608E-02  0.1235008E+00
          4   -1    0    0  501    0  0.00000000000E+00  0.00000000000E+00  0.42809835809E+02  0.42828669627E+02  0.12700000000E+01 0. -1.
         -4   -1    0    0    0  501 -0.00000000000E+00 -0.00000000000E+00 -0.91260694503E+02  0.91269530848E+02  0.12700000000E+01 0. -1.
         25    2    1    2    0    0  0.00000000000E+00  0.00000000000E+00 -0.48450858694E+02  0.13409820047E+03  0.12503936045E+03 0.  0.
    9000005    1    3    3    0    0 -0.31945091417E+02 -0.53242839102E+02 -0.31990250986E+02  0.69854598556E+02  0.10000000000E+01 0.  0.
    9000005    1    3    3    0    0  0.31945091417E+02  0.53242839102E+02 -0.16460607708E+02  0.64243601918E+02  0.10000000000E+01 0.  0.
<mgrwt>
<rscale>  0 0.12503936E+03</rscale>
<asrwt>0</asrwt>
<pdfrwt beam="1">  1        4 0.65882571E-02 0.12503936E+03</pdfrwt>
<pdfrwt beam="2">  1       -4 0.14042235E-01 0.12503936E+03</pdfrwt>
<totfact> 0.10248013E+04</totfact>
</mgrwt>
</event>
<event>
 5    1  0.3282421E-002  0.1250009E+03  0.7818608E-02  0.1235068E+00
         -4   -1    0    0    0  501 -0.00000000000E+00  0.00000000000E+00  0.65165845136E+02  0.65178219309E+02  0.12700000000E+01 0.  1.
          4   -1    0    0  501    0  0.00000000000E+00 -0.00000000000E+00 -0.59919237548E+02  0.59932694986E+02  0.12700000000E+01 0.  1.
         25    2    1    2    0    0  0.00000000000E+00  0.00000000000E+00  0.52466075881E+01  0.12511091429E+03  0.12500085593E+03 0.  0.
    9000005    1    3    3    0    0 -0.58604141109E+02 -0.94995906210E+01 -0.16903253735E+02  0.61736598253E+02  0.10000000000E+01 0.  0.
    9000005    1    3    3    0    0  0.58604141109E+02  0.94995906210E+01  0.22149861323E+02  0.63374316041E+02  0.10000000000E+01 0.  0.
<mgrwt>
<rscale>  0 0.12500086E+03</rscale>
<asrwt>0</asrwt>
<pdfrwt beam="2">  1        4 0.92203313E-02 0.12500086E+03</pdfrwt>
<pdfrwt beam="1">  1       -4 0.10027502E-01 0.12500086E+03</pdfrwt>
<totfact> 0.10450252E+04</totfact>
</mgrwt>
</event>
<event>
 5    1  0.3282421E-002  0.1250207E+03  0.7818608E-02  0.1235037E+00
          4   -1    0    0  501    0  0.00000000000E+00  0.00000000000E+00  0.10727920100E+03  0.10728671804E+03  0.12700000000E+01 0.  1.
         -4   -1    0    0    0  501 -0.00000000000E+00 -0.00000000000E+00 -0.36404175420E+02  0.36426321363E+02  0.12700000000E+01 0.  1.
         25    2    1    2    0    0  0.00000000000E+00  0.00000000000E+00  0.70875025584E+02  0.14371303940E+03  0.12502067206E+03 0.  0.
    9000005    1    3    3    0    0  0.48228800089E+02 -0.20344875918E+01 -0.10202483883E+02  0.49348221601E+02  0.10000000000E+01 0.  0.
    9000005    1    3    3    0    0 -0.48228800089E+02  0.20344875918E+01  0.81077509467E+02  0.94364817804E+02  0.10000000000E+01 0.  0.
<mgrwt>
<rscale>  0 0.12502067E+03</rscale>
<asrwt>0</asrwt>
<pdfrwt beam="1">  1        4 0.16506774E-01 0.12502067E+03</pdfrwt>
<pdfrwt beam="2">  1       -4 0.56029243E-02 0.12502067E+03</pdfrwt>
<totfact> 0.10052522E+04</totfact>
</mgrwt>
</event>
<event>
 5    1  0.3282421E-002  0.1250009E+03  0.7818608E-02  0.1235068E+00
         -4   -1    0    0    0  501 -0.00000000000E+00  0.00000000000E+00  0.17907497892E+02  0.17952475616E+02  0.12700000000E+01 0.  1.
          4   -1    0    0  501    0  0.00000000000E+00 -0.00000000000E+00 -0.21781757600E+03  0.21782127838E+03  0.12700000000E+01 0.  1.
         25    2    1    2    0    0  0.00000000000E+00  0.00000000000E+00 -0.19991007811E+03  0.23577375400E+03  0.12500089497E+03 0.  0.
    9000005    1    3    3    0    0  0.54901978720E+02  0.18556673106E+02 -0.14405804727E+03  0.15528135229E+03  0.10000000000E+01 0.  0.
    9000005    1    3    3    0    0 -0.54901978720E+02 -0.18556673106E+02 -0.55852030837E+02  0.80492401708E+02  0.10000000000E+01 0.  0.
<mgrwt>
<rscale>  0 0.12500089E+03</rscale>
<asrwt>0</asrwt>
<pdfrwt beam="2">  1        4 0.33514139E-01 0.12500089E+03</pdfrwt>
<pdfrwt beam="1">  1       -4 0.27587445E-02 0.12500089E+03</pdfrwt>
<totfact> 0.84429161E+03</totfact>
</mgrwt>
</event>
<event>
 5    1  0.3282421E-002  0.1250014E+03  0.7818608E-02  0.1235067E+00
          4   -1    0    0  501    0  0.00000000000E+00  0.00000000000E+00  0.63106033055E+01  0.64371277818E+01  0.12700000000E+01 0. -1.
         -4   -1    0    0    0  501 -0.00000000000E+00 -0.00000000000E+00 -0.61274074548E+03  0.61274206162E+03  0.12700000000E+01 0. -1.
         25    2    1    2    0    0  0.00000000000E+00  0.00000000000E+00 -0.60643014218E+03  0.61917918940E+03  0.12500140497E+03 0.  0.
    9000005    1    3    3    0    0  0.49723761184E+02  0.36806683117E+02 -0.34700513396E+03  0.35247800973E+03  0.10000000000E+01 0.  0.
    9000005    1    3    3    0    0 -0.49723761184E+02 -0.36806683117E+02 -0.25942500822E+03  0.26670117967E+03  0.10000000000E+01 0.  0.
<mgrwt>
<rscale>  0 0.12500140E+03</rscale>
<asrwt>0</asrwt>
<pdfrwt beam="1">  1        4 0.98069642E-03 0.12500140E+03</pdfrwt>
<pdfrwt beam="2">  1       -4 0.94277594E-01 0.12500140E+03</pdfrwt>
<totfact> 0.47677470E+03</totfact>
</mgrwt>
</event>
<event>
 5    1  0.3282421E-002  0.1249928E+03  0.7818608E-02  0.1235081E+00
          4   -1    0    0  501    0  0.00000000000E+00  0.00000000000E+00  0.24577154328E+02  0.24609945446E+02  0.12700000000E+01 0.  1.
         -4   -1    0    0    0  501 -0.00000000000E+00 -0.00000000000E+00 -0.15877865468E+03  0.15878373368E+03  0.12700000000E+01 0.  1.
         25    2    1    2    0    0  0.00000000000E+00  0.00000000000E+00 -0.13420150035E+03  0.18339367913E+03  0.12499279518E+03 0.  0.
    9000005    1    3    3    0    0  0.57921297985E+02  0.18859115795E+02 -0.46651029059E+02  0.76732402029E+02  0.10000000000E+01 0.  0.
    9000005    1    3    3    0    0 -0.57921297985E+02 -0.18859115795E+02 -0.87550471294E+02  0.10666127710E+03  0.10000000000E+01 0.  0.
<mgrwt>
<rscale>  0 0.12499280E+03</rscale>
<asrwt>0</asrwt>
<pdfrwt beam="1">  1        4 0.37840139E-02 0.12499280E+03</pdfrwt>
<pdfrwt beam="2">  1       -4 0.24430398E-01 0.12499280E+03</pdfrwt>
<totfact> 0.93024694E+03</totfact>
</mgrwt>
</event>
<event>
 5    1  0.3282421E-002  0.1250316E+03  0.7818608E-02  0.1235020E+00
          4   -1    0    0  501    0  0.00000000000E+00  0.00000000000E+00  0.67023975164E+02  0.67036006346E+02  0.12700000000E+01 0. -1.
         -4   -1    0    0    0  501 -0.00000000000E+00 -0.00000000000E+00 -0.58286634817E+02  0.58300469109E+02  0.12700000000E+01 0. -1.
         25    2    1    2    0    0  0.00000000000E+00  0.00000000000E+00  0.87373403475E+01  0.12533647545E+03  0.12503155987E+03 0.  0.
    9000005    1    3    3    0    0  0.50727666151E+02 -0.46312152920E+01 -0.31947824485E+02  0.60136575871E+02  0.10000000000E+01 0.  0.
    9000005    1    3    3    0    0 -0.50727666151E+02  0.46312152920E+01  0.40685164833E+02  0.65199899583E+02  0.10000000000E+01 0.  0.
<mgrwt>
<rscale>  0 0.12503156E+03</rscale>
<asrwt>0</asrwt>
<pdfrwt beam="1">  1        4 0.10313370E-01 0.12503156E+03</pdfrwt>
<pdfrwt beam="2">  1       -4 0.89691643E-02 0.12503156E+03</pdfrwt>
<totfact> 0.10438112E+04</totfact>
</mgrwt>
</event>
<event>
 5    1  0.3282421E-002  0.1249983E+03  0.7818608E-02  0.1235072E+00
          4   -1    0    0  501    0  0.00000000000E+00  0.00000000000E+00  0.30055113714E+02  0.30081934119E+02  0.12700000000E+01 0. -1.
         -4   -1    0    0    0  501 -0.00000000000E+00 -0.00000000000E+00 -0.12987809423E+03  0.12988430337E+03  0.12700000000E+01 0. -1.
         25    2    1    2    0    0  0.00000000000E+00  0.00000000000E+00 -0.99822980516E+02  0.15996623748E+03  0.12499827877E+03 0.  0.
    9000005    1    3    3    0    0 -0.58145124480E+02  0.19236405188E+02 -0.65805503093E+02  0.89901384987E+02  0.10000000000E+01 0.  0.
    9000005    1    3    3    0    0  0.58145124480E+02 -0.19236405188E+02 -0.34017477423E+02  0.70064852498E+02  0.10000000000E+01 0.  0.
<mgrwt>
<rscale>  0 0.12499828E+03</rscale>
<asrwt>0</asrwt>
<pdfrwt beam="1">  1        4 0.46264045E-02 0.12499828E+03</pdfrwt>
<pdfrwt beam="2">  1       -4 0.19983786E-01 0.12499828E+03</pdfrwt>
<totfact> 0.97353061E+03</totfact>
</mgrwt>
</event>
<event>
 5    1  0.3282421E-002  0.1250056E+03  0.7818608E-02  0.1235060E+00
          4   -1    0    0  501    0  0.00000000000E+00  0.00000000000E+00  0.33445772141E+02  0.33469875621E+02  0.12700000000E+01 0.  1.
         -4   -1    0    0    0  501 -0.00000000000E+00 -0.00000000000E+00 -0.11673441881E+03  0.11674132702E+03  0.12700000000E+01 0.  1.
         25    2    1    2    0    0  0.00000000000E+00  0.00000000000E+00 -0.83288646667E+02  0.15021120264E+03  0.12500562681E+03 0.  0.
    9000005    1    3    3    0    0  0.76326900061E+01 -0.57056263938E+02 -0.70879561939E+02  0.91315866704E+02  0.10000000000E+01 0.  0.
    9000005    1    3    3    0    0 -0.76326900061E+01  0.57056263938E+02 -0.12409084728E+02  0.58895335936E+02  0.10000000000E+01 0.  0.
<mgrwt>
<rscale>  0 0.12500563E+03</rscale>
<asrwt>0</asrwt>
<pdfrwt beam="1">  1        4 0.51478890E-02 0.12500563E+03</pdfrwt>
<pdfrwt beam="2">  1       -4 0.17961527E-01 0.12500563E+03</pdfrwt>
<totfact> 0.99249046E+03</totfact>
</mgrwt>
</event>
<event>
 5    1  0.3282421E-002  0.1250014E+03  0.7818608E-02  0.1235067E+00
          4   -1    0    0  501    0  0.00000000000E+00  0.00000000000E+00  0.51332371576E+03  0.51332528679E+03  0.12700000000E+01 0. -1.
         -4   -1    0    0    0  501 -0.00000000000E+00 -0.00000000000E+00 -0.75553103218E+01  0.76613062893E+01  0.12700000000E+01 0. -1.
         25    2    1    2    0    0  0.00000000000E+00  0.00000000000E+00  0.50576840544E+03  0.52098659308E+03  0.12500140092E+03 0.  0.
    9000005    1    3    3    0    0  0.51135145285E+02  0.13936060802E+02  0.39088464273E+03  0.39446269886E+03  0.10000000000E+01 0.  0.
    9000005    1    3    3    0    0 -0.51135145285E+02 -0.13936060802E+02  0.11488376271E+03  0.12652389422E+03  0.10000000000E+01 0.  0.
<mgrwt>
<rscale>  0 0.12500140E+03</rscale>
<asrwt>0</asrwt>
<pdfrwt beam="1">  1        4 0.78981165E-01 0.12500140E+03</pdfrwt>
<pdfrwt beam="2">  1       -4 0.11706297E-02 0.12500140E+03</pdfrwt>
<totfact> 0.54270377E+03</totfact>
</mgrwt>
</event>
<event>
 5    1  0.3282421E-002  0.1249996E+03  0.7818608E-02  0.1235070E+00
         -4   -1    0    0    0  501 -0.00000000000E+00  0.00000000000E+00  0.23465416967E+03  0.23465760641E+03  0.12700000000E+01 0.  1.
          4   -1    0    0  501    0  0.00000000000E+00 -0.00000000000E+00 -0.16618950309E+02  0.16667405599E+02  0.12700000000E+01 0.  1.
         25    2    1    2    0    0  0.00000000000E+00  0.00000000000E+00  0.21803521936E+03  0.25132501200E+03  0.12499961911E+03 0.  0.
    9000005    1    3    3    0    0 -0.82424547521E+01 -0.36729202141E+02  0.87237455544E+01  0.38653280414E+02  0.10000000000E+01 0.  0.
    9000005    1    3    3    0    0  0.82424547521E+01  0.36729202141E+02  0.20931147381E+03  0.21267173159E+03  0.10000000000E+01 0.  0.
<mgrwt>
<rscale>  0 0.12499962E+03</rscale>
<asrwt>0</asrwt>
<pdfrwt beam="2">  1        4 0.25607534E-02 0.12499962E+03</pdfrwt>
<pdfrwt beam="1">  1       -4 0.36104631E-01 0.12499962E+03</pdfrwt>
<totfact> 0.82139796E+03</totfact>
</mgrwt>
</event>
<event>
 5    1  0.3282421E-002  0.1250200E+03  0.7818608E-02  0.1235038E+00
          4   -1    0    0  501    0  0.00000000000E+00  0.00000000000E+00  0.69382190799E+03  0.69382307032E+03  0.12700000000E+01 0.  1.
         -4   -1    0    0    0  501 -0.00000000000E+00 -0.00000000000E+00 -0.55590720478E+01  0.57022962070E+01  0.12700000000E+01 0.  1.
         25    2    1    2    0    0  0.00000000000E+00  0.00000000000E+00  0.68826283594E+03  0.69952536652E+03  0.12502002669E+03 0.  0.
    9000005    1    3    3    0    0  0.10448534904E+02  0.55894911182E+02  0.19896703932E+03  0.20693548684E+03  0.10000000000E+01 0.  0.
    9000005    1    3    3    0    0 -0.10448534904E+02 -0.55894911182E+02  0.48929579662E+03  0.49258987968E+03  0.10000000000E+01 0.  0.
<mgrwt>
<rscale>  0 0.12502003E+03</rscale>
<asrwt>0</asrwt>
<pdfrwt beam="1">  1        4 0.10675289E+00 0.12502003E+03</pdfrwt>
<pdfrwt beam="2">  1       -4 0.86634894E-03 0.12502003E+03</pdfrwt>
<totfact> 0.43092889E+03</totfact>
</mgrwt>
</event>
<event>
 5    1  0.3282421E-002  0.1250001E+03  0.7818608E-02  0.1235069E+00
          4   -1    0    0  501    0  0.00000000000E+00  0.00000000000E+00  0.83352897565E+02  0.83362572132E+02  0.12700000000E+01 0.  1.
         -4   -1    0    0    0  501 -0.00000000000E+00 -0.00000000000E+00 -0.46843092686E+02  0.46860305509E+02  0.12700000000E+01 0.  1.
         25    2    1    2    0    0  0.00000000000E+00  0.00000000000E+00  0.36509804879E+02  0.13022287764E+03  0.12500012804E+03 0.  0.
    9000005    1    3    3    0    0  0.24836586762E+02  0.42367046014E+02  0.58514557256E+02  0.76398796069E+02  0.10000000000E+01 0.  0.
    9000005    1    3    3    0    0 -0.24836586762E+02 -0.42367046014E+02 -0.22004752377E+02  0.53824081572E+02  0.10000000000E+01 0.  0.
<mgrwt>
<rscale>  0 0.12500013E+03</rscale>
<asrwt>0</asrwt>
<pdfrwt beam="1">  1        4 0.12825591E-01 0.12500013E+03</pdfrwt>
<pdfrwt beam="2">  1       -4 0.72086980E-02 0.12500013E+03</pdfrwt>
<totfact> 0.10339712E+04</totfact>
</mgrwt>
</event>
<event>
 5    1  0.3282421E-002  0.1250011E+03  0.7818608E-02  0.1235068E+00
         -4   -1    0    0    0  501 -0.00000000000E+00  0.00000000000E+00  0.42703530893E+02  0.42722411574E+02  0.12700000000E+01 0. -1.
          4   -1    0    0  501    0  0.00000000000E+00 -0.00000000000E+00 -0.91431807376E+02  0.91440627185E+02  0.12700000000E+01 0. -1.
         25    2    1    2    0    0  0.00000000000E+00  0.00000000000E+00 -0.48728276484E+02  0.13416303876E+03  0.12500110416E+03 0.  0.
    9000005    1    3    3    0    0 -0.23986868754E+02  0.16062159654E+02  0.35123474962E+02  0.45475502623E+02  0.10000000000E+01 0.  0.
    9000005    1    3    3    0    0  0.23986868754E+02 -0.16062159654E+02 -0.83851751446E+02  0.88687536136E+02  0.10000000000E+01 0.  0.
<mgrwt>
<rscale>  0 0.12500110E+03</rscale>
<asrwt>0</asrwt>
<pdfrwt beam="2">  1        4 0.14068563E-01 0.12500110E+03</pdfrwt>
<pdfrwt beam="1">  1       -4 0.65719048E-02 0.12500110E+03</pdfrwt>
<totfact> 0.10255487E+04</totfact>
</mgrwt>
</event>
<event>
 5    1  0.3282421E-002  0.1249913E+03  0.7818608E-02  0.1235083E+00
          4   -1    0    0  501    0  0.00000000000E+00  0.00000000000E+00  0.58936266255E+02  0.58949948092E+02  0.12700000000E+01 0. -1.
         -4   -1    0    0    0  501 -0.00000000000E+00 -0.00000000000E+00 -0.66242538847E+02  0.66254711930E+02  0.12700000000E+01 0. -1.
         25    2    1    2    0    0  0.00000000000E+00  0.00000000000E+00 -0.73062725920E+01  0.12520466002E+03  0.12499130079E+03 0.  0.
    9000005    1    3    3    0    0 -0.22645160830E+02  0.56006249501E+02 -0.19655480775E+02  0.63536141028E+02  0.10000000000E+01 0.  0.
    9000005    1    3    3    0    0  0.22645160830E+02 -0.56006249501E+02  0.12349208183E+02  0.61668518994E+02  0.10000000000E+01 0.  0.
<mgrwt>
<rscale>  0 0.12499130E+03</rscale>
<asrwt>0</asrwt>
<pdfrwt beam="1">  1        4 0.90691067E-02 0.12499130E+03</pdfrwt>
<pdfrwt beam="2">  1       -4 0.10193149E-01 0.12499130E+03</pdfrwt>
<totfact> 0.10450473E+04</totfact>
</mgrwt>
</event>
<event>
 5    1  0.3282421E-002  0.1250005E+03  0.7818608E-02  0.1235069E+00
         -4   -1    0    0    0  501 -0.00000000000E+00  0.00000000000E+00  0.12330482651E+02  0.12395713066E+02  0.12700000000E+01 0.  1.
          4   -1    0    0  501    0  0.00000000000E+00 -0.00000000000E+00 -0.31589632001E+03  0.31589887289E+03  0.12700000000E+01 0.  1.
         25    2    1    2    0    0  0.00000000000E+00  0.00000000000E+00 -0.30356583736E+03  0.32829458596E+03  0.12500047024E+03 0.  0.
    9000005    1    3    3    0    0 -0.52912552426E+02  0.26448168103E+02 -0.20470465989E+03  0.21308271066E+03  0.10000000000E+01 0.  0.
    9000005    1    3    3    0    0  0.52912552426E+02 -0.26448168103E+02 -0.98861177461E+02  0.11521187530E+03  0.10000000000E+01 0.  0.
<mgrwt>
<rscale>  0 0.12500047E+03</rscale>
<asrwt>0</asrwt>
<pdfrwt beam="2">  1        4 0.48604642E-01 0.12500047E+03</pdfrwt>
<pdfrwt beam="1">  1       -4 0.19022117E-02 0.12500047E+03</pdfrwt>
<totfact> 0.72179586E+03</totfact>
</mgrwt>
</event>
<event>
 5    1  0.3282421E-002  0.1250024E+03  0.7818608E-02  0.1235066E+00
         -4   -1    0    0    0  501 -0.00000000000E+00  0.00000000000E+00  0.35772746778E+03  0.35772972214E+03  0.12700000000E+01 0. -1.
          4   -1    0    0  501    0  0.00000000000E+00 -0.00000000000E+00 -0.10880819450E+02  0.10954685386E+02  0.12700000000E+01 0. -1.
         25    2    1    2    0    0  0.00000000000E+00  0.00000000000E+00  0.34684664833E+03  0.36868440753E+03  0.12500237957E+03 0.  0.
    9000005    1    3    3    0    0 -0.59946608553E+02  0.15047646910E+02  0.20067493048E+03  0.20997965444E+03  0.10000000000E+01 0.  0.
    9000005    1    3    3    0    0  0.59946608553E+02 -0.15047646910E+02  0.14617171785E+03  0.15870475309E+03  0.10000000000E+01 0.  0.
<mgrwt>
<rscale>  0 0.12500238E+03</rscale>
<asrwt>0</asrwt>
<pdfrwt beam="2">  1        4 0.16798276E-02 0.12500238E+03</pdfrwt>
<pdfrwt beam="1">  1       -4 0.55040853E-01 0.12500238E+03</pdfrwt>
<totfact> 0.67713232E+03</totfact>
</mgrwt>
</event>
<event>
 5    1  0.3282421E-002  0.1249998E+03  0.7818608E-02  0.1235070E+00
          4   -1    0    0  501    0  0.00000000000E+00  0.00000000000E+00  0.12988057372E+01  0.18165341568E+01  0.12700000000E+01 0.  1.
         -4   -1    0    0    0  501 -0.00000000000E+00 -0.00000000000E+00 -0.25072251125E+04  0.25072254342E+04  0.12700000000E+01 0.  1.
         25    2    1    2    0    0  0.00000000000E+00  0.00000000000E+00 -0.25059263068E+04  0.25090419683E+04  0.12499977520E+03 0.  0.
    9000005    1    3    3    0    0 -0.31436590482E+01  0.90570021147E+01 -0.13451679828E+02  0.16548702962E+02  0.10000000000E+01 0.  0.
    9000005    1    3    3    0    0  0.31436590482E+01 -0.90570021147E+01 -0.24924746270E+04  0.24924932654E+04  0.10000000000E+01 0.  0.
<mgrwt>
<rscale>  0 0.12499978E+03</rscale>
<asrwt>0</asrwt>
<pdfrwt beam="1">  1        4 0.23966828E-03 0.12499978E+03</pdfrwt>
<pdfrwt beam="2">  1       -4 0.38576356E+00 0.12499978E+03</pdfrwt>
<totfact> 0.45988812E+02</totfact>
</mgrwt>
</event>
<event>
 5    1  0.3282421E-002  0.1249989E+03  0.7818608E-02  0.1235071E+00
         -4   -1    0    0    0  501 -0.00000000000E+00  0.00000000000E+00  0.24016856831E+01  0.27167985057E+01  0.12700000000E+01 0.  1.
          4   -1    0    0  501    0  0.00000000000E+00 -0.00000000000E+00 -0.15259893668E+04  0.15259898953E+04  0.12700000000E+01 0.  1.
         25    2    1    2    0    0  0.00000000000E+00  0.00000000000E+00 -0.15235876811E+04  0.15287066938E+04  0.12499893425E+03 0.  0.
    9000005    1    3    3    0    0  0.40927984680E+02  0.45880392926E+02 -0.62502106796E+03  0.62803857030E+03  0.10000000000E+01 0.  0.
    9000005    1    3    3    0    0 -0.40927984680E+02 -0.45880392926E+02 -0.89856661314E+03  0.90066812347E+03  0.10000000000E+01 0.  0.
<mgrwt>
<rscale>  0 0.12499893E+03</rscale>
<asrwt>0</asrwt>
<pdfrwt beam="2">  1        4 0.23479115E+00 0.12499893E+03</pdfrwt>
<pdfrwt beam="1">  1       -4 0.39377142E-03 0.12499893E+03</pdfrwt>
<totfact> 0.17373448E+03</totfact>
</mgrwt>
</event>
<event>
 5    1  0.3282421E-002  0.1250203E+03  0.7818608E-02  0.1235038E+00
         -4   -1    0    0    0  501 -0.00000000000E+00  0.00000000000E+00  0.15728288520E+03  0.15728801251E+03  0.12700000000E+01 0. -1.
          4   -1    0    0  501    0  0.00000000000E+00 -0.00000000000E+00 -0.24822105836E+02  0.24854573787E+02  0.12700000000E+01 0. -1.
         25    2    1    2    0    0  0.00000000000E+00  0.00000000000E+00  0.13246077937E+03  0.18214258629E+03  0.12502025304E+03 0.  0.
    9000005    1    3    3    0    0  0.60280114488E+02  0.16395303595E+02  0.69150651402E+02  0.93195014738E+02  0.10000000000E+01 0.  0.
    9000005    1    3    3    0    0 -0.60280114488E+02 -0.16395303595E+02  0.63310127966E+02  0.88947571556E+02  0.10000000000E+01 0.  0.
<mgrwt>
<rscale>  0 0.12502025E+03</rscale>
<asrwt>0</asrwt>
<pdfrwt beam="2">  1        4 0.38216776E-02 0.12502025E+03</pdfrwt>
<pdfrwt beam="1">  1       -4 0.24200258E-01 0.12502025E+03</pdfrwt>
<totfact> 0.93190430E+03</totfact>
</mgrwt>
</event>
<event>
 5    1  0.3282421E-002  0.1250032E+03  0.7818608E-02  0.1235064E+00
          4   -1    0    0  501    0  0.00000000000E+00  0.00000000000E+00  0.69542284130E+01  0.70692427332E+01  0.12700000000E+01 0. -1.
         -4   -1    0    0    0  501 -0.00000000000E+00 -0.00000000000E+00 -0.55701434851E+03  0.55701579632E+03  0.12700000000E+01 0. -1.
         25    2    1    2    0    0  0.00000000000E+00  0.00000000000E+00 -0.55006012010E+03  0.56408503905E+03  0.12500318219E+03 0.  0.
    9000005    1    3    3    0    0 -0.43161873587E+01 -0.57015860302E+02 -0.16122649773E+03  0.17106846983E+03  0.10000000000E+01 0.  0.
    9000005    1    3    3    0    0  0.43161873587E+01  0.57015860302E+02 -0.38883362237E+03  0.39301656922E+03  0.10000000000E+01 0.  0.
<mgrwt>
<rscale>  0 0.12500318E+03</rscale>
<asrwt>0</asrwt>
<pdfrwt beam="1">  1        4 0.10788404E-02 0.12500318E+03</pdfrwt>
<pdfrwt beam="2">  1       -4 0.85703439E-01 0.12500318E+03</pdfrwt>
<totfact> 0.51212527E+03</totfact>
</mgrwt>
</event>
<event>
 5    1  0.3282421E-002  0.1249840E+03  0.7818608E-02  0.1235094E+00
          4   -1    0    0  501    0  0.00000000000E+00  0.00000000000E+00  0.52204741745E+02  0.52220187291E+02  0.12700000000E+01 0.  1.
         -4   -1    0    0    0  501 -0.00000000000E+00 -0.00000000000E+00 -0.74774580669E+02  0.74785364973E+02  0.12700000000E+01 0.  1.
         25    2    1    2    0    0  0.00000000000E+00  0.00000000000E+00 -0.22569838923E+02  0.12700555226E+03  0.12498404969E+03 0.  0.
    9000005    1    3    3    0    0  0.13085883010E+01  0.61658356682E+02 -0.10832291748E+01  0.61689859276E+02  0.10000000000E+01 0.  0.
    9000005    1    3    3    0    0 -0.13085883010E+01 -0.61658356682E+02 -0.21486609748E+02  0.65315692988E+02  0.10000000000E+01 0.  0.
<mgrwt>
<rscale>  0 0.12498405E+03</rscale>
<asrwt>0</asrwt>
<pdfrwt beam="1">  1        4 0.80335164E-02 0.12498405E+03</pdfrwt>
<pdfrwt beam="2">  1       -4 0.11505799E-01 0.12498405E+03</pdfrwt>
<totfact> 0.10412774E+04</totfact>
</mgrwt>
</event>
<event>
 5    1  0.3282421E-002  0.1250030E+03  0.7818608E-02  0.1235065E+00
          4   -1    0    0  501    0  0.00000000000E+00  0.00000000000E+00  0.27954246425E+02  0.27983080481E+02  0.12700000000E+01 0. -1.
         -4   -1    0    0    0  501 -0.00000000000E+00 -0.00000000000E+00 -0.13964031644E+03  0.13964609152E+03  0.12700000000E+01 0. -1.
         25    2    1    2    0    0  0.00000000000E+00  0.00000000000E+00 -0.11168607002E+03  0.16762917200E+03  0.12500304424E+03 0.  0.
    9000005    1    3    3    0    0  0.37475418623E+01  0.20855847163E+02  0.22996287368E+02  0.31286413402E+02  0.10000000000E+01 0.  0.
    9000005    1    3    3    0    0 -0.37475418623E+01 -0.20855847163E+02 -0.13468235738E+03  0.13634275860E+03  0.10000000000E+01 0.  0.
<mgrwt>
<rscale>  0 0.12500304E+03</rscale>
<asrwt>0</asrwt>
<pdfrwt beam="1">  1        4 0.43033156E-02 0.12500304E+03</pdfrwt>
<pdfrwt beam="2">  1       -4 0.21485787E-01 0.12500304E+03</pdfrwt>
<totfact> 0.95885218E+03</totfact>
</mgrwt>
</event>
<event>
 5    1  0.3282421E-002  0.1249975E+03  0.7818608E-02  0.1235073E+00
         -4   -1    0    0    0  501 -0.00000000000E+00  0.00000000000E+00  0.21138445539E+03  0.21138827044E+03  0.12700000000E+01 0.  1.
          4   -1    0    0  501    0  0.00000000000E+00 -0.00000000000E+00 -0.18452824518E+02  0.18496476224E+02  0.12700000000E+01 0.  1.
         25    2    1    2    0    0  0.00000000000E+00  0.00000000000E+00  0.19293163087E+03  0.22988474667E+03  0.12499753021E+03 0.  0.
    9000005    1    3    3    0    0  0.41129392803E+01  0.42369407144E+02  0.12327336499E+02  0.44328841136E+02  0.10000000000E+01 0.  0.
    9000005    1    3    3    0    0 -0.41129392803E+01 -0.42369407144E+02  0.18060429437E+03  0.18555590553E+03  0.10000000000E+01 0.  0.
<mgrwt>
<rscale>  0 0.12499753E+03</rscale>
<asrwt>0</asrwt>
<pdfrwt beam="2">  1        4 0.28425475E-02 0.12499753E+03</pdfrwt>
<pdfrwt beam="1">  1       -4 0.32524335E-01 0.12499753E+03</pdfrwt>
<totfact> 0.85332000E+03</totfact>
</mgrwt>
</event>
<event>
 5    1  0.3282421E-002  0.1250014E+03  0.7818608E-02  0.1235067E+00
         -4   -1    0    0    0  501 -0.00000000000E+00  0.00000000000E+00  0.94952132557E+01  0.95797690354E+01  0.12700000000E+01 0. -1.
          4   -1    0    0  501    0  0.00000000000E+00 -0.00000000000E+00 -0.40949181103E+03  0.40949378042E+03  0.12700000000E+01 0. -1.
         25    2    1    2    0    0  0.00000000000E+00  0.00000000000E+00 -0.39999659777E+03  0.41907354945E+03  0.12500144647E+03 0.  0.
    9000005    1    3    3    0    0  0.82471046306E+01 -0.61792678211E+02 -0.18538849328E+03  0.19559203270E+03  0.10000000000E+01 0.  0.
    9000005    1    3    3    0    0 -0.82471046306E+01  0.61792678211E+02 -0.21460810449E+03  0.22348151675E+03  0.10000000000E+01 0.  0.
<mgrwt>
<rscale>  0 0.12500145E+03</rscale>
<asrwt>0</asrwt>
<pdfrwt beam="2">  1        4 0.63005382E-01 0.12500145E+03</pdfrwt>
<pdfrwt beam="1">  1       -4 0.14674581E-02 0.12500145E+03</pdfrwt>
<totfact> 0.62737056E+03</totfact>
</mgrwt>
</event>
<event>
 5    1  0.3282421E-002  0.1250004E+03  0.7818608E-02  0.1235069E+00
         -4   -1    0    0    0  501 -0.00000000000E+00  0.00000000000E+00  0.12830180309E+01  0.18052798308E+01  0.12700000000E+01 0. -1.
          4   -1    0    0  501    0  0.00000000000E+00 -0.00000000000E+00 -0.25292042838E+04  0.25292046027E+04  0.12700000000E+01 0. -1.
         25    2    1    2    0    0  0.00000000000E+00  0.00000000000E+00 -0.25279212658E+04  0.25310098825E+04  0.12500039726E+03 0.  0.
    9000005    1    3    3    0    0 -0.81244666476E+01  0.31481963879E+02 -0.23445586542E+04  0.23447842980E+04  0.10000000000E+01 0.  0.
    9000005    1    3    3    0    0  0.81244666476E+01 -0.31481963879E+02 -0.18336261155E+03  0.18622558450E+03  0.10000000000E+01 0.  0.
<mgrwt>
<rscale>  0 0.12500040E+03</rscale>
<asrwt>0</asrwt>
<pdfrwt beam="2">  1        4 0.38914523E+00 0.12500040E+03</pdfrwt>
<pdfrwt beam="1">  1       -4 0.23758793E-03 0.12500040E+03</pdfrwt>
<totfact> 0.44303924E+02</totfact>
</mgrwt>
</event>
<event>
 5    1  0.3282421E-002  0.1250004E+03  0.7818608E-02  0.1235069E+00
         -4   -1    0    0    0  501 -0.00000000000E+00  0.00000000000E+00  0.21540239639E+04  0.21540243383E+04  0.12700000000E+01 0. -1.
          4   -1    0    0  501    0  0.00000000000E+00 -0.00000000000E+00 -0.15907098857E+01  0.20354994327E+01  0.12700000000E+01 0. -1.
         25    2    1    2    0    0  0.00000000000E+00  0.00000000000E+00  0.21524332540E+04  0.21560598377E+04  0.12500044345E+03 0.  0.
    9000005    1    3    3    0    0  0.29366928980E+01 -0.43676353794E+02  0.30696240808E+03  0.31006961802E+03  0.10000000000E+01 0.  0.
    9000005    1    3    3    0    0 -0.29366928980E+01  0.43676353794E+02  0.18454708459E+04  0.18459902197E+04  0.10000000000E+01 0.  0.
<mgrwt>
<rscale>  0 0.12500044E+03</rscale>
<asrwt>0</asrwt>
<pdfrwt beam="2">  1        4 0.27896808E-03 0.12500044E+03</pdfrwt>
<pdfrwt beam="1">  1       -4 0.33142242E+00 0.12500044E+03</pdfrwt>
<totfact> 0.79592699E+02</totfact>
</mgrwt>
</event>
<event>
 5    1  0.3282421E-002  0.1249990E+03  0.7818608E-02  0.1235071E+00
         -4   -1    0    0    0  501 -0.00000000000E+00  0.00000000000E+00  0.58773381532E+02  0.58787101279E+02  0.12700000000E+01 0. -1.
          4   -1    0    0  501    0  0.00000000000E+00 -0.00000000000E+00 -0.66434248914E+02  0.66446386875E+02  0.12700000000E+01 0. -1.
         25    2    1    2    0    0  0.00000000000E+00  0.00000000000E+00 -0.76608673813E+01  0.12523348815E+03  0.12499895066E+03 0.  0.
    9000005    1    3    3    0    0  0.24260600802E+02 -0.57391831922E+02 -0.86127844667E+01  0.62909293263E+02  0.10000000000E+01 0.  0.
    9000005    1    3    3    0    0 -0.24260600802E+02  0.57391831922E+02  0.95191708537E+00  0.62324194890E+02  0.10000000000E+01 0.  0.
<mgrwt>
<rscale>  0 0.12499895E+03</rscale>
<asrwt>0</asrwt>
<pdfrwt beam="2">  1        4 0.10222643E-01 0.12499895E+03</pdfrwt>
<pdfrwt beam="1">  1       -4 0.90440477E-02 0.12499895E+03</pdfrwt>
<totfact> 0.10448041E+04</totfact>
</mgrwt>
</event>
<event>
 5    1  0.3282421E-002  0.1249994E+03  0.7818608E-02  0.1235070E+00
         -4   -1    0    0    0  501 -0.00000000000E+00  0.00000000000E+00  0.21547899756E+03  0.21548274012E+03  0.12700000000E+01 0. -1.
          4   -1    0    0  501    0  0.00000000000E+00 -0.00000000000E+00 -0.18101888855E+02  0.18146384767E+02  0.12700000000E+01 0. -1.
         25    2    1    2    0    0  0.00000000000E+00  0.00000000000E+00  0.19737710870E+03  0.23362912488E+03  0.12499937982E+03 0.  0.
    9000005    1    3    3    0    0 -0.32096453069E+02  0.36931793672E+01  0.19866728149E+03  0.20127968255E+03  0.10000000000E+01 0.  0.
    9000005    1    3    3    0    0  0.32096453069E+02 -0.36931793672E+01 -0.12901727871E+01  0.32349442333E+02  0.10000000000E+01 0.  0.
<mgrwt>
<rscale>  0 0.12499938E+03</rscale>
<asrwt>0</asrwt>
<pdfrwt beam="2">  1        4 0.27886165E-02 0.12499938E+03</pdfrwt>
<pdfrwt beam="1">  1       -4 0.33154327E-01 0.12499938E+03</pdfrwt>
<totfact> 0.84756610E+03</totfact>
</mgrwt>
</event>
<event>
 5    1  0.3282421E-002  0.1250031E+03  0.7818608E-02  0.1235064E+00
         -4   -1    0    0    0  501 -0.00000000000E+00  0.00000000000E+00  0.16487751601E+04  0.16487756492E+04  0.12700000000E+01 0. -1.
          4   -1    0    0  501    0  0.00000000000E+00 -0.00000000000E+00 -0.21985875868E+01  0.25390327640E+01  0.12700000000E+01 0. -1.
         25    2    1    2    0    0  0.00000000000E+00  0.00000000000E+00  0.16465765725E+04  0.16513146820E+04  0.12500307912E+03 0.  0.
    9000005    1    3    3    0    0  0.25394975394E+02  0.52690340918E+02  0.11139922557E+04  0.11155271949E+04  0.10000000000E+01 0.  0.
    9000005    1    3    3    0    0 -0.25394975394E+02 -0.52690340918E+02  0.53258431679E+03  0.53578748707E+03  0.10000000000E+01 0.  0.
<mgrwt>
<rscale>  0 0.12500308E+03</rscale>
<asrwt>0</asrwt>
<pdfrwt beam="2">  1        4 0.36447042E-03 0.12500308E+03</pdfrwt>
<pdfrwt beam="1">  1       -4 0.25368362E+00 0.12500308E+03</pdfrwt>
<totfact> 0.15135585E+03</totfact>
</mgrwt>
</event>
<event>
 5    1  0.3282421E-002  0.1250050E+03  0.7818608E-02  0.1235062E+00
         -4   -1    0    0    0  501 -0.00000000000E+00  0.00000000000E+00  0.78946402412E+02  0.78956616909E+02  0.12700000000E+01 0. -1.
          4   -1    0    0  501    0  0.00000000000E+00 -0.00000000000E+00 -0.49462130403E+02  0.49478432109E+02  0.12700000000E+01 0. -1.
         25    2    1    2    0    0  0.00000000000E+00  0.00000000000E+00  0.29484272009E+02  0.12843504902E+03  0.12500495798E+03 0.  0.
    9000005    1    3    3    0    0  0.41235048463E+02  0.42572121643E+02  0.35106319286E+02  0.68892440926E+02  0.10000000000E+01 0.  0.
    9000005    1    3    3    0    0 -0.41235048463E+02 -0.42572121643E+02 -0.56220472768E+01  0.59542608093E+02  0.10000000000E+01 0.  0.
<mgrwt>
<rscale>  0 0.12500496E+03</rscale>
<asrwt>0</asrwt>
<pdfrwt beam="2">  1        4 0.76115983E-02 0.12500496E+03</pdfrwt>
<pdfrwt beam="1">  1       -4 0.12147640E-01 0.12500496E+03</pdfrwt>
<totfact> 0.10376942E+04</totfact>
</mgrwt>
</event>
<event>
 5    1  0.3282421E-002  0.1250102E+03  0.7818608E-02  0.1235053E+00
          4   -1    0    0  501    0  0.00000000000E+00  0.00000000000E+00  0.96238617252E+03  0.96238701049E+03  0.12700000000E+01 0. -1.
         -4   -1    0    0    0  501 -0.00000000000E+00 -0.00000000000E+00 -0.39593962643E+01  0.41580907611E+01  0.12700000000E+01 0. -1.
         25    2    1    2    0    0  0.00000000000E+00  0.00000000000E+00  0.95842677626E+03  0.96654510125E+03  0.12501018881E+03 0.  0.
    9000005    1    3    3    0    0 -0.62472303628E+02  0.17394013625E+01  0.48129649753E+03  0.48533816332E+03  0.10000000000E+01 0.  0.
    9000005    1    3    3    0    0  0.62472303628E+02 -0.17394013625E+01  0.47713027873E+03  0.48120693793E+03  0.10000000000E+01 0.  0.
<mgrwt>
<rscale>  0 0.12501019E+03</rscale>
<asrwt>0</asrwt>
<pdfrwt beam="1">  1        4 0.14807472E+00 0.12501019E+03</pdfrwt>
<pdfrwt beam="2">  1       -4 0.62448671E-03 0.12501019E+03</pdfrwt>
<totfact> 0.31728698E+03</totfact>
</mgrwt>
</event>
<event>
 5    1  0.3282421E-002  0.1249922E+03  0.7818608E-02  0.1235081E+00
         -4   -1    0    0    0  501 -0.00000000000E+00  0.00000000000E+00  0.14978365726E+02  0.15032110292E+02  0.12700000000E+01 0. -1.
          4   -1    0    0  501    0  0.00000000000E+00 -0.00000000000E+00 -0.26023802196E+03  0.26024112084E+03  0.12700000000E+01 0. -1.
         25    2    1    2    0    0  0.00000000000E+00  0.00000000000E+00 -0.24525965623E+03  0.27527323113E+03  0.12499221095E+03 0.  0.
    9000005    1    3    3    0    0  0.34545212583E+02 -0.36178543584E+00 -0.23730427703E+03  0.23980788664E+03  0.10000000000E+01 0.  0.
    9000005    1    3    3    0    0 -0.34545212583E+02  0.36178543584E+00 -0.79553792084E+01  0.35465344485E+02  0.10000000000E+01 0.  0.
<mgrwt>
<rscale>  0 0.12499221E+03</rscale>
<asrwt>0</asrwt>
<pdfrwt beam="2">  1        4 0.40040988E-01 0.12499221E+03</pdfrwt>
<pdfrwt beam="1">  1       -4 0.23087367E-02 0.12499221E+03</pdfrwt>
<totfact> 0.78822696E+03</totfact>
</mgrwt>
</event>
<event>
 5    1  0.3282421E-002  0.1250012E+03  0.7818608E-02  0.1235067E+00
          4   -1    0    0  501    0  0.00000000000E+00  0.00000000000E+00  0.47267659417E+03  0.47267830030E+03  0.12700000000E+01 0. -1.
         -4   -1    0    0    0  501 -0.00000000000E+00 -0.00000000000E+00 -0.82137493220E+01  0.83113523524E+01  0.12700000000E+01 0. -1.
         25    2    1    2    0    0  0.00000000000E+00  0.00000000000E+00  0.46446284485E+03  0.48098965266E+03  0.12500124686E+03 0.  0.
    9000005    1    3    3    0    0  0.26492810939E+02  0.52834049453E+01  0.15395869281E+02  0.31109744297E+02  0.10000000000E+01 0.  0.
    9000005    1    3    3    0    0 -0.26492810939E+02 -0.52834049453E+01  0.44906697557E+03  0.44987990836E+03  0.10000000000E+01 0.  0.
<mgrwt>
<rscale>  0 0.12500125E+03</rscale>
<asrwt>0</asrwt>
<pdfrwt beam="1">  1        4 0.72727144E-01 0.12500125E+03</pdfrwt>
<pdfrwt beam="2">  1       -4 0.12712924E-02 0.12500125E+03</pdfrwt>
<totfact> 0.57368514E+03</totfact>
</mgrwt>
</event>
<event>
 5    1  0.3282421E-002  0.1250023E+03  0.7818608E-02  0.1235066E+00
         -4   -1    0    0    0  501 -0.00000000000E+00  0.00000000000E+00  0.12547620458E+03  0.12548263153E+03  0.12700000000E+01 0. -1.
          4   -1    0    0  501    0  0.00000000000E+00 -0.00000000000E+00 -0.31112378085E+02  0.31138287848E+02  0.12700000000E+01 0. -1.
         25    2    1    2    0    0  0.00000000000E+00  0.00000000000E+00  0.94363826497E+02  0.15662091938E+03  0.12500232252E+03 0.  0.
    9000005    1    3    3    0    0  0.95343761921E+01  0.31496668283E+01 -0.30101180787E+02  0.31747532428E+02  0.10000000000E+01 0.  0.
    9000005    1    3    3    0    0 -0.95343761921E+01 -0.31496668283E+01  0.12446500728E+03  0.12487338695E+03  0.10000000000E+01 0.  0.
<mgrwt>
<rscale>  0 0.12500232E+03</rscale>
<asrwt>0</asrwt>
<pdfrwt beam="2">  1        4 0.47890072E-02 0.12500232E+03</pdfrwt>
<pdfrwt beam="1">  1       -4 0.19306519E-01 0.12500232E+03</pdfrwt>
<totfact> 0.97993111E+03</totfact>
</mgrwt>
</event>
<event>
 5    1  0.3282421E-002  0.1249951E+03  0.7818608E-02  0.1235077E+00
         -4   -1    0    0    0  501 -0.00000000000E+00  0.00000000000E+00  0.38763326194E+03  0.38763534238E+03  0.12700000000E+01 0.  1.
          4   -1    0    0  501    0  0.00000000000E+00 -0.00000000000E+00 -0.10034252820E+02  0.10114303222E+02  0.12700000000E+01 0.  1.
         25    2    1    2    0    0  0.00000000000E+00  0.00000000000E+00  0.37759900912E+03  0.39774964560E+03  0.12499507546E+03 0.  0.
    9000005    1    3    3    0    0 -0.49212151971E+02  0.73615461432E+01  0.30908684915E+03  0.31306821714E+03  0.10000000000E+01 0.  0.
    9000005    1    3    3    0    0  0.49212151971E+02 -0.73615461432E+01  0.68512159966E+02  0.84681428462E+02  0.10000000000E+01 0.  0.
<mgrwt>
<rscale>  0 0.12499508E+03</rscale>
<asrwt>0</asrwt>
<pdfrwt beam="2">  1        4 0.15500491E-02 0.12499508E+03</pdfrwt>
<pdfrwt beam="1">  1       -4 0.59642197E-01 0.12499508E+03</pdfrwt>
<totfact> 0.64779292E+03</totfact>
</mgrwt>
</event>
<event>
 5    1  0.3282421E-002  0.1249979E+03  0.7818608E-02  0.1235072E+00
         -4   -1    0    0    0  501 -0.00000000000E+00  0.00000000000E+00  0.26328561649E+03  0.26328867950E+03  0.12700000000E+01 0. -1.
          4   -1    0    0  501    0  0.00000000000E+00 -0.00000000000E+00 -0.14805728280E+02  0.14860097237E+02  0.12700000000E+01 0. -1.
         25    2    1    2    0    0  0.00000000000E+00  0.00000000000E+00  0.24847988821E+03  0.27814877674E+03  0.12499794860E+03 0.  0.
    9000005    1    3    3    0    0  0.13146074285E+02 -0.28141221072E+02  0.35765408968E+01  0.31281611808E+02  0.10000000000E+01 0.  0.
    9000005    1    3    3    0    0 -0.13146074285E+02  0.28141221072E+02  0.24490334732E+03  0.24686716493E+03  0.10000000000E+01 0.  0.
<mgrwt>
<rscale>  0 0.12499795E+03</rscale>
<asrwt>0</asrwt>
<pdfrwt beam="2">  1        4 0.22822223E-02 0.12499795E+03</pdfrwt>
<pdfrwt beam="1">  1       -4 0.40509895E-01 0.12499795E+03</pdfrwt>
<totfact> 0.78427783E+03</totfact>
</mgrwt>
</event>
<event>
 5    1  0.3282421E-002  0.1250067E+03  0.7818608E-02  0.1235059E+00
          4   -1    0    0  501    0  0.00000000000E+00  0.00000000000E+00  0.82396040540E+03  0.82396138415E+03  0.12700000000E+01 0. -1.
         -4   -1    0    0    0  501 -0.00000000000E+00 -0.00000000000E+00 -0.46552868897E+01  0.48254114877E+01  0.12700000000E+01 0. -1.
         25    2    1    2    0    0  0.00000000000E+00  0.00000000000E+00  0.81930511851E+03  0.82878679563E+03  0.12500670143E+03 0.  0.
    9000005    1    3    3    0    0  0.17679751189E+02 -0.29850337044E+02  0.65019901432E+02  0.73703485711E+02  0.10000000000E+01 0.  0.
    9000005    1    3    3    0    0 -0.17679751189E+02  0.29850337044E+02  0.75428521708E+03  0.75508330992E+03  0.10000000000E+01 0.  0.
<mgrwt>
<rscale>  0 0.12500670E+03</rscale>
<asrwt>0</asrwt>
<pdfrwt beam="1">  1        4 0.12677635E+00 0.12500670E+03</pdfrwt>
<pdfrwt beam="2">  1       -4 0.72935947E-03 0.12500670E+03</pdfrwt>
<totfact> 0.37006016E+03</totfact>
</mgrwt>
</event>
<event>
 5    1  0.3282421E-002  0.1249894E+03  0.7818608E-02  0.1235086E+00
          4   -1    0    0  501    0  0.00000000000E+00  0.00000000000E+00  0.14584934243E+02  0.14640123185E+02  0.12700000000E+01 0.  1.
         -4   -1    0    0    0  501 -0.00000000000E+00 -0.00000000000E+00 -0.26722013641E+03  0.26722315431E+03  0.12700000000E+01 0.  1.
         25    2    1    2    0    0  0.00000000000E+00  0.00000000000E+00 -0.25263520216E+03  0.28186327750E+03  0.12498944688E+03 0.  0.
    9000005    1    3    3    0    0 -0.22587077614E+02  0.81230278534E+01  0.37846819356E+01  0.24320433261E+02  0.10000000000E+01 0.  0.
    9000005    1    3    3    0    0  0.22587077614E+02 -0.81230278534E+01 -0.25641988410E+03  0.25754284424E+03  0.10000000000E+01 0.  0.
<mgrwt>
<rscale>  0 0.12498945E+03</rscale>
<asrwt>0</asrwt>
<pdfrwt beam="1">  1        4 0.22483137E-02 0.12498945E+03</pdfrwt>
<pdfrwt beam="2">  1       -4 0.41115264E-01 0.12498945E+03</pdfrwt>
<totfact> 0.77949978E+03</totfact>
</mgrwt>
</event>
<event>
 5    1  0.3282421E-002  0.1249906E+03  0.7818608E-02  0.1235084E+00
          4   -1    0    0  501    0  0.00000000000E+00  0.00000000000E+00  0.92608670489E+02  0.92617378227E+02  0.12700000000E+01 0. -1.
         -4   -1    0    0    0  501 -0.00000000000E+00 -0.00000000000E+00 -0.42153583116E+02  0.42172710009E+02  0.12700000000E+01 0. -1.
         25    2    1    2    0    0  0.00000000000E+00  0.00000000000E+00  0.50455087373E+02  0.13479008824E+03  0.12499060783E+03 0.  0.
    9000005    1    3    3    0    0  0.25324019954E+02  0.48791337940E+02 -0.68131922501E+01  0.55401446130E+02  0.10000000000E+01 0.  0.
    9000005    1    3    3    0    0 -0.25324019954E+02 -0.48791337940E+02  0.57268279623E+02  0.79388642107E+02  0.10000000000E+01 0.  0.
<mgrwt>
<rscale>  0 0.12499061E+03</rscale>
<asrwt>0</asrwt>
<pdfrwt beam="1">  1        4 0.14249629E-01 0.12499061E+03</pdfrwt>
<pdfrwt beam="2">  1       -4 0.64873077E-02 0.12499061E+03</pdfrwt>
<totfact> 0.10244667E+04</totfact>
</mgrwt>
</event>
<event>
 5    1  0.3282421E-002  0.1250021E+03  0.7818608E-02  0.1235066E+00
          4   -1    0    0  501    0  0.00000000000E+00  0.00000000000E+00  0.14875434269E+02  0.14929549380E+02  0.12700000000E+01 0.  1.
         -4   -1    0    0    0  501 -0.00000000000E+00 -0.00000000000E+00 -0.26207370723E+03  0.26207678440E+03  0.12700000000E+01 0.  1.
         25    2    1    2    0    0  0.00000000000E+00  0.00000000000E+00 -0.24719827296E+03  0.27700633378E+03  0.12500209118E+03 0.  0.
    9000005    1    3    3    0    0  0.16405058782E+02  0.56216109719E+02 -0.17194703590E+03  0.18164845196E+03  0.10000000000E+01 0.  0.
    9000005    1    3    3    0    0 -0.16405058782E+02 -0.56216109719E+02 -0.75251237062E+02  0.95357881819E+02  0.10000000000E+01 0.  0.
<mgrwt>
<rscale>  0 0.12500209E+03</rscale>
<asrwt>0</asrwt>
<pdfrwt beam="1">  1        4 0.22929279E-02 0.12500209E+03</pdfrwt>
<pdfrwt beam="2">  1       -4 0.40323428E-01 0.12500209E+03</pdfrwt>
<totfact> 0.78573073E+03</totfact>
</mgrwt>
</event>
<event>
 5    1  0.3282421E-002  0.1249992E+03  0.7818608E-02  0.1235070E+00
          4   -1    0    0  501    0  0.00000000000E+00  0.00000000000E+00  0.96099840418E+02  0.96108231845E+02  0.12700000000E+01 0. -1.
         -4   -1    0    0    0  501 -0.00000000000E+00 -0.00000000000E+00 -0.40627251733E+02  0.40647096863E+02  0.12700000000E+01 0. -1.
         25    2    1    2    0    0  0.00000000000E+00  0.00000000000E+00  0.55472588685E+02  0.13675532871E+03  0.12499924734E+03 0.  0.
    9000005    1    3    3    0    0 -0.35796577215E+02 -0.49463490358E+02  0.42298707538E+02  0.74284671891E+02  0.10000000000E+01 0.  0.
    9000005    1    3    3    0    0  0.35796577215E+02  0.49463490358E+02  0.13173881147E+02  0.62470656817E+02  0.10000000000E+01 0.  0.
<mgrwt>
<rscale>  0 0.12499925E+03</rscale>
<asrwt>0</asrwt>
<pdfrwt beam="1">  1        4 0.14786763E-01 0.12499925E+03</pdfrwt>
<pdfrwt beam="2">  1       -4 0.62525185E-02 0.12499925E+03</pdfrwt>
<totfact> 0.10201377E+04</totfact>
</mgrwt>
</event>
<event>
 5    1  0.3282421E-002  0.1250011E+03  0.7818608E-02  0.1235068E+00
          4   -1    0    0  501    0  0.00000000000E+00  0.00000000000E+00  0.67782547215E+02  0.67794443776E+02  0.12700000000E+01 0.  1.
         -4   -1    0    0    0  501 -0.00000000000E+00 -0.00000000000E+00 -0.57606203239E+02  0.57620200898E+02  0.12700000000E+01 0.  1.
         25    2    1    2    0    0  0.00000000000E+00  0.00000000000E+00  0.10176343976E+02  0.12541464467E+03  0.12500110048E+03 0.  0.
    9000005    1    3    3    0    0  0.32228823547E+02  0.39909102406E+02 -0.30721436394E+02  0.59801673691E+02  0.10000000000E+01 0.  0.
    9000005    1    3    3    0    0 -0.32228823547E+02 -0.39909102406E+02  0.40897780370E+02  0.65612970984E+02  0.10000000000E+01 0.  0.
<mgrwt>
<rscale>  0 0.12500110E+03</rscale>
<asrwt>0</asrwt>
<pdfrwt beam="1">  1        4 0.10430076E-01 0.12500110E+03</pdfrwt>
<pdfrwt beam="2">  1       -4 0.88644847E-02 0.12500110E+03</pdfrwt>
<totfact> 0.10443583E+04</totfact>
</mgrwt>
</event>
<event>
 5    1  0.3282421E-002  0.1250000E+03  0.7818608E-02  0.1235069E+00
          4   -1    0    0  501    0  0.00000000000E+00  0.00000000000E+00  0.41154695737E+02  0.41174286650E+02  0.12700000000E+01 0.  1.
         -4   -1    0    0    0  501 -0.00000000000E+00 -0.00000000000E+00 -0.94869845792E+02  0.94878346005E+02  0.12700000000E+01 0.  1.
         25    2    1    2    0    0  0.00000000000E+00  0.00000000000E+00 -0.53715150056E+02  0.13605263266E+03  0.12500000603E+03 0.  0.
    9000005    1    3    3    0    0 -0.45654694781E+02 -0.31589927490E+02 -0.58081710502E+02  0.80353965485E+02  0.10000000000E+01 0.  0.
    9000005    1    3    3    0    0  0.45654694781E+02  0.31589927490E+02  0.43665604459E+01  0.55698667170E+02  0.10000000000E+01 0.  0.
<mgrwt>
<rscale>  0 0.12500001E+03</rscale>
<asrwt>0</asrwt>
<pdfrwt beam="1">  1        4 0.63336525E-02 0.12500001E+03</pdfrwt>
<pdfrwt beam="2">  1       -4 0.14597522E-01 0.12500001E+03</pdfrwt>
<totfact> 0.10215930E+04</totfact>
</mgrwt>
</event>
<event>
 5    1  0.3282421E-002  0.1249970E+03  0.7818608E-02  0.1235074E+00
          4   -1    0    0  501    0  0.00000000000E+00  0.00000000000E+00  0.77504774478E+02  0.77515178945E+02  0.12700000000E+01 0.  1.
         -4   -1    0    0    0  501 -0.00000000000E+00 -0.00000000000E+00 -0.50375926897E+02  0.50391932993E+02  0.12700000000E+01 0.  1.
         25    2    1    2    0    0  0.00000000000E+00  0.00000000000E+00  0.27128847581E+02  0.12790711194E+03  0.12499701962E+03 0.  0.
    9000005    1    3    3    0    0 -0.13713364161E+02 -0.51664567334E+02  0.46687453710E+02  0.70978885651E+02  0.10000000000E+01 0.  0.
    9000005    1    3    3    0    0  0.13713364161E+02  0.51664567334E+02 -0.19558606129E+02  0.56928226286E+02  0.10000000000E+01 0.  0.
<mgrwt>
<rscale>  0 0.12499702E+03</rscale>
<asrwt>0</asrwt>
<pdfrwt beam="1">  1        4 0.11925843E-01 0.12499702E+03</pdfrwt>
<pdfrwt beam="2">  1       -4 0.77521742E-02 0.12499702E+03</pdfrwt>
<totfact> 0.10390193E+04</totfact>
</mgrwt>
</event>
<event>
 5    1  0.3282421E-002  0.1249930E+03  0.7818608E-02  0.1235080E+00
         -4   -1    0    0    0  501 -0.00000000000E+00  0.00000000000E+00  0.62976061209E+01  0.64243865741E+01  0.12700000000E+01 0. -1.
          4   -1    0    0  501    0  0.00000000000E+00 -0.00000000000E+00 -0.61389818617E+03  0.61389949982E+03  0.12700000000E+01 0. -1.
         25    2    1    2    0    0  0.00000000000E+00  0.00000000000E+00 -0.60760058005E+03  0.62032388640E+03  0.12499303644E+03 0.  0.
    9000005    1    3    3    0    0 -0.76374381348E+01  0.40326257351E+02 -0.69950871070E+02  0.81108950534E+02  0.10000000000E+01 0.  0.
    9000005    1    3    3    0    0  0.76374381348E+01 -0.40326257351E+02 -0.53764970898E+03  0.53921493586E+03  0.10000000000E+01 0.  0.
<mgrwt>
<rscale>  0 0.12499304E+03</rscale>
<asrwt>0</asrwt>
<pdfrwt beam="2">  1        4 0.94455682E-01 0.12499304E+03</pdfrwt>
<pdfrwt beam="1">  1       -4 0.97871636E-03 0.12499304E+03</pdfrwt>
<totfact> 0.47616619E+03</totfact>
</mgrwt>
</event>
<event>
 5    1  0.3282421E-002  0.1249994E+03  0.7818608E-02  0.1235070E+00
          4   -1    0    0  501    0  0.00000000000E+00  0.00000000000E+00  0.29287930681E+02  0.29315452983E+02  0.12700000000E+01 0.  1.
         -4   -1    0    0    0  501 -0.00000000000E+00 -0.00000000000E+00 -0.13327957606E+03  0.13328562674E+03  0.12700000000E+01 0.  1.
         25    2    1    2    0    0  0.00000000000E+00  0.00000000000E+00 -0.10399164538E+03  0.16260107972E+03  0.12499939527E+03 0.  0.
    9000005    1    3    3    0    0  0.14996624065E+02  0.17873197029E+02 -0.12740789454E+03  0.12953038831E+03  0.10000000000E+01 0.  0.
    9000005    1    3    3    0    0 -0.14996624065E+02 -0.17873197029E+02  0.23416249161E+02  0.33070691407E+02  0.10000000000E+01 0.  0.
<mgrwt>
<rscale>  0 0.12499940E+03</rscale>
<asrwt>0</asrwt>
<pdfrwt beam="1">  1        4 0.45084181E-02 0.12499940E+03</pdfrwt>
<pdfrwt beam="2">  1       -4 0.20507132E-01 0.12499940E+03</pdfrwt>
<totfact> 0.96844965E+03</totfact>
</mgrwt>
</event>
<event>
 5    1  0.3282421E-002  0.1250031E+03  0.7818608E-02  0.1235064E+00
          4   -1    0    0  501    0  0.00000000000E+00  0.00000000000E+00  0.69092737111E+01  0.70250240722E+01  0.12700000000E+01 0. -1.
         -4   -1    0    0    0  501 -0.00000000000E+00 -0.00000000000E+00 -0.56057800905E+03  0.56057944765E+03  0.12700000000E+01 0. -1.
         25    2    1    2    0    0  0.00000000000E+00  0.00000000000E+00 -0.55366873534E+03  0.56760447172E+03  0.12500307128E+03 0.  0.
    9000005    1    3    3    0    0  0.26632943963E+02  0.12782852813E+01 -0.53347545072E+03  0.53414230710E+03  0.10000000000E+01 0.  0.
    9000005    1    3    3    0    0 -0.26632943963E+02 -0.12782852813E+01 -0.20193284619E+02  0.33462164621E+02  0.10000000000E+01 0.  0.
<mgrwt>
<rscale>  0 0.12500307E+03</rscale>
<asrwt>0</asrwt>
<pdfrwt beam="1">  1        4 0.10719802E-02 0.12500307E+03</pdfrwt>
<pdfrwt beam="2">  1       -4 0.86251749E-01 0.12500307E+03</pdfrwt>
<totfact> 0.50975092E+03</totfact>
</mgrwt>
</event>
<event>
 5    1  0.3282421E-002  0.1250006E+03  0.7818608E-02  0.1235068E+00
         -4   -1    0    0    0  501 -0.00000000000E+00  0.00000000000E+00  0.24949857969E+01  0.27996167821E+01  0.12700000000E+01 0. -1.
          4   -1    0    0  501    0  0.00000000000E+00 -0.00000000000E+00 -0.14752687707E+04  0.14752693174E+04  0.12700000000E+01 0. -1.
         25    2    1    2    0    0  0.00000000000E+00  0.00000000000E+00 -0.14727737849E+04  0.14780689341E+04  0.12500061015E+03 0.  0.
    9000005    1    3    3    0    0  0.26018075683E+02  0.10584157499E+02 -0.13964779091E+04  0.13967607223E+04  0.10000000000E+01 0.  0.
    9000005    1    3    3    0    0 -0.26018075683E+02 -0.10584157499E+02 -0.76295875810E+02  0.81308211872E+02  0.10000000000E+01 0.  0.
<mgrwt>
<rscale>  0 0.12500061E+03</rscale>
<asrwt>0</asrwt>
<pdfrwt beam="2">  1        4 0.22698724E+00 0.12500061E+03</pdfrwt>
<pdfrwt beam="1">  1       -4 0.40732035E-03 0.12500061E+03</pdfrwt>
<totfact> 0.18364901E+03</totfact>
</mgrwt>
</event>
<event>
 5    1  0.3282421E-002  0.1250011E+03  0.7818608E-02  0.1235068E+00
          4   -1    0    0  501    0  0.00000000000E+00  0.00000000000E+00  0.45435723173E+01  0.47177271437E+01  0.12700000000E+01 0. -1.
         -4   -1    0    0    0  501 -0.00000000000E+00 -0.00000000000E+00 -0.84340372402E+03  0.84340468020E+03  0.12700000000E+01 0. -1.
         25    2    1    2    0    0  0.00000000000E+00  0.00000000000E+00 -0.83886015170E+03  0.84812240735E+03  0.12500105492E+03 0.  0.
    9000005    1    3    3    0    0  0.31090002622E+02  0.51849594415E+02 -0.31207656467E+03  0.31788008890E+03  0.10000000000E+01 0.  0.
    9000005    1    3    3    0    0 -0.31090002622E+02 -0.51849594415E+02 -0.52678358704E+03  0.53024231845E+03  0.10000000000E+01 0.  0.
<mgrwt>
<rscale>  0 0.12500105E+03</rscale>
<asrwt>0</asrwt>
<pdfrwt beam="1">  1        4 0.71248187E-03 0.12500105E+03</pdfrwt>
<pdfrwt beam="2">  1       -4 0.12976777E+00 0.12500105E+03</pdfrwt>
<totfact> 0.36203476E+03</totfact>
</mgrwt>
</event>
<event>
 5    1  0.3282421E-002  0.1250003E+03  0.7818608E-02  0.1235069E+00
         -4   -1    0    0    0  501 -0.00000000000E+00  0.00000000000E+00  0.17041670630E+03  0.17042143845E+03  0.12700000000E+01 0.  1.
          4   -1    0    0  501    0  0.00000000000E+00 -0.00000000000E+00 -0.22899230973E+02  0.22934421273E+02  0.12700000000E+01 0.  1.
         25    2    1    2    0    0  0.00000000000E+00  0.00000000000E+00  0.14751747532E+03  0.19335585973E+03  0.12500033186E+03 0.  0.
    9000005    1    3    3    0    0  0.27954750677E+02  0.39325269419E+02  0.13519246718E+03  0.14354772057E+03  0.10000000000E+01 0.  0.
    9000005    1    3    3    0    0 -0.27954750677E+02 -0.39325269419E+02  0.12325008148E+02  0.49808139155E+02  0.10000000000E+01 0.  0.
<mgrwt>
<rscale>  0 0.12500033E+03</rscale>
<asrwt>0</asrwt>
<pdfrwt beam="2">  1        4 0.35260295E-02 0.12500033E+03</pdfrwt>
<pdfrwt beam="1">  1       -4 0.26221027E-01 0.12500033E+03</pdfrwt>
<totfact> 0.91265983E+03</totfact>
</mgrwt>
</event>
<event>
 5    1  0.3282421E-002  0.1249962E+03  0.7818608E-02  0.1235075E+00
          4   -1    0    0  501    0  0.00000000000E+00  0.00000000000E+00  0.69915656088E+02  0.69927189750E+02  0.12700000000E+01 0.  1.
         -4   -1    0    0    0  501 -0.00000000000E+00 -0.00000000000E+00 -0.55844101985E+02  0.55858541214E+02  0.12700000000E+01 0.  1.
         25    2    1    2    0    0  0.00000000000E+00  0.00000000000E+00  0.14071554103E+02  0.12578573096E+03  0.12499616586E+03 0.  0.
    9000005    1    3    3    0    0  0.42747075003E+02 -0.19736117737E+02 -0.34311272580E+02  0.58267402470E+02  0.10000000000E+01 0.  0.
    9000005    1    3    3    0    0 -0.42747075003E+02  0.19736117737E+02  0.48382826683E+02  0.67518328493E+02  0.10000000000E+01 0.  0.
<mgrwt>
<rscale>  0 0.12499617E+03</rscale>
<asrwt>0</asrwt>
<pdfrwt beam="1">  1        4 0.10758253E-01 0.12499617E+03</pdfrwt>
<pdfrwt beam="2">  1       -4 0.85933982E-02 0.12499617E+03</pdfrwt>
<totfact> 0.10436562E+04</totfact>
</mgrwt>
</event>
<event>
 5    1  0.3282421E-002  0.1250032E+03  0.7818608E-02  0.1235064E+00
          4   -1    0    0  501    0  0.00000000000E+00  0.00000000000E+00  0.23902255136E+01  0.27066728664E+01  0.12700000000E+01 0. -1.
         -4   -1    0    0    0  501 -0.00000000000E+00 -0.00000000000E+00 -0.15325559660E+04  0.15325564922E+04  0.12700000000E+01 0. -1.
         25    2    1    2    0    0  0.00000000000E+00  0.00000000000E+00 -0.15301657405E+04  0.15352631651E+04  0.12500317072E+03 0.  0.
    9000005    1    3    3    0    0 -0.50514996848E+01 -0.38298365651E+02 -0.16175224046E+03  0.16630414833E+03  0.10000000000E+01 0.  0.
    9000005    1    3    3    0    0  0.50514996848E+01  0.38298365651E+02 -0.13684135000E+04  0.13689590168E+04  0.10000000000E+01 0.  0.
<mgrwt>
<rscale>  0 0.12500317E+03</rscale>
<asrwt>0</asrwt>
<pdfrwt beam="1">  1        4 0.39211081E-03 0.12500317E+03</pdfrwt>
<pdfrwt beam="2">  1       -4 0.23580149E+00 0.12500317E+03</pdfrwt>
<totfact> 0.17246442E+03</totfact>
</mgrwt>
</event>
<event>
 5    1  0.3282421E-002  0.1250309E+03  0.7818608E-02  0.1235021E+00
          4   -1    0    0  501    0  0.00000000000E+00  0.00000000000E+00  0.80800194722E+03  0.80800294530E+03  0.12700000000E+01 0.  1.
         -4   -1    0    0    0  501 -0.00000000000E+00 -0.00000000000E+00 -0.47524590528E+01  0.49192242323E+01  0.12700000000E+01 0.  1.
         25    2    1    2    0    0  0.00000000000E+00  0.00000000000E+00  0.80324948817E+03  0.81292216953E+03  0.12503085009E+03 0.  0.
    9000005    1    3    3    0    0  0.38715544016E+02  0.11191213227E+02  0.90962330592E+02  0.99495136508E+02  0.10000000000E+01 0.  0.
    9000005    1    3    3    0    0 -0.38715544016E+02 -0.11191213227E+02  0.71228715757E+03  0.71342703302E+03  0.10000000000E+01 0.  0.
<mgrwt>
<rscale>  0 0.12503085E+03</rscale>
<asrwt>0</asrwt>
<pdfrwt beam="1">  1        4 0.12432095E+00 0.12503085E+03</pdfrwt>
<pdfrwt beam="2">  1       -4 0.74405209E-03 0.12503085E+03</pdfrwt>
<totfact> 0.37668912E+03</totfact>
</mgrwt>
</event>
<event>
 5    1  0.3282421E-002  0.1250081E+03  0.7818608E-02  0.1235057E+00
         -4   -1    0    0    0  501 -0.00000000000E+00  0.00000000000E+00  0.60594565147E+01  0.61911156711E+01  0.12700000000E+01 0.  1.
          4   -1    0    0  501    0  0.00000000000E+00 -0.00000000000E+00 -0.63767600618E+03  0.63767727085E+03  0.12700000000E+01 0.  1.
         25    2    1    2    0    0  0.00000000000E+00  0.00000000000E+00 -0.63161654966E+03  0.64386838652E+03  0.12500813313E+03 0.  0.
    9000005    1    3    3    0    0 -0.34960867300E+02 -0.51372088864E+02 -0.35013028525E+03  0.35560310799E+03  0.10000000000E+01 0.  0.
    9000005    1    3    3    0    0  0.34960867300E+02  0.51372088864E+02 -0.28148626441E+03  0.28826527853E+03  0.10000000000E+01 0.  0.
<mgrwt>
<rscale>  0 0.12500813E+03</rscale>
<asrwt>0</asrwt>
<pdfrwt beam="2">  1        4 0.98114174E-01 0.12500813E+03</pdfrwt>
<pdfrwt beam="1">  1       -4 0.94244949E-03 0.12500813E+03</pdfrwt>
<totfact> 0.46202327E+03</totfact>
</mgrwt>
</event>
<event>
 5    1  0.3282421E-002  0.1249937E+03  0.7818608E-02  0.1235079E+00
          4   -1    0    0  501    0  0.00000000000E+00  0.00000000000E+00  0.45431332085E+02  0.45449079584E+02  0.12700000000E+01 0. -1.
         -4   -1    0    0    0  501 -0.00000000000E+00 -0.00000000000E+00 -0.85933490265E+02  0.85942874336E+02  0.12700000000E+01 0. -1.
         25    2    1    2    0    0  0.00000000000E+00  0.00000000000E+00 -0.40502158180E+02  0.13139195392E+03  0.12499368279E+03 0.  0.
    9000005    1    3    3    0    0  0.24422508671E+01  0.51177573103E+02  0.17353670418E+02  0.54104144527E+02  0.10000000000E+01 0.  0.
    9000005    1    3    3    0    0 -0.24422508671E+01 -0.51177573103E+02 -0.57855828598E+02  0.77287809393E+02  0.10000000000E+01 0.  0.
<mgrwt>
<rscale>  0 0.12499368E+03</rscale>
<asrwt>0</asrwt>
<pdfrwt beam="1">  1        4 0.69915228E-02 0.12499368E+03</pdfrwt>
<pdfrwt beam="2">  1       -4 0.13222624E-01 0.12499368E+03</pdfrwt>
<totfact> 0.10316164E+04</totfact>
</mgrwt>
</event>
<event>
 5    1  0.3282421E-002  0.1250377E+03  0.7818608E-02  0.1235010E+00
         -4   -1    0    0    0  501 -0.00000000000E+00  0.00000000000E+00  0.79442233178E+01  0.80450968995E+01  0.12700000000E+01 0. -1.
          4   -1    0    0  501    0  0.00000000000E+00 -0.00000000000E+00 -0.48880013618E+03  0.48880178603E+03  0.12700000000E+01 0. -1.
         25    2    1    2    0    0  0.00000000000E+00  0.00000000000E+00 -0.48085591286E+03  0.49684688293E+03  0.12503765891E+03 0.  0.
    9000005    1    3    3    0    0  0.14686785425E+02 -0.88646246421E+01 -0.15725937511E+01  0.17255616109E+02  0.10000000000E+01 0.  0.
    9000005    1    3    3    0    0 -0.14686785425E+02  0.88646246421E+01 -0.47928331911E+03  0.47959126682E+03  0.10000000000E+01 0.  0.
<mgrwt>
<rscale>  0 0.12503766E+03</rscale>
<asrwt>0</asrwt>
<pdfrwt beam="2">  1        4 0.75207884E-01 0.12503766E+03</pdfrwt>
<pdfrwt beam="1">  1       -4 0.12300750E-02 0.12503766E+03</pdfrwt>
<totfact> 0.56063411E+03</totfact>
</mgrwt>
</event>
<event>
 5    1  0.3282421E-002  0.1250024E+03  0.7818608E-02  0.1235065E+00
         -4   -1    0    0    0  501 -0.00000000000E+00  0.00000000000E+00  0.34380107092E+03  0.34380341660E+03  0.12700000000E+01 0.  1.
          4   -1    0    0  501    0  0.00000000000E+00 -0.00000000000E+00 -0.11324511480E+02  0.11395501756E+02  0.12700000000E+01 0.  1.
         25    2    1    2    0    0  0.00000000000E+00  0.00000000000E+00  0.33247655944E+03  0.35519891835E+03  0.12500243607E+03 0.  0.
    9000005    1    3    3    0    0 -0.44067323587E+02  0.44179622732E+02  0.15654610790E+03  0.16852730334E+03  0.10000000000E+01 0.  0.
    9000005    1    3    3    0    0  0.44067323587E+02 -0.44179622732E+02  0.17593045154E+03  0.18667161501E+03  0.10000000000E+01 0.  0.
<mgrwt>
<rscale>  0 0.12500244E+03</rscale>
<asrwt>0</asrwt>
<pdfrwt beam="2">  1        4 0.17478735E-02 0.12500244E+03</pdfrwt>
<pdfrwt beam="1">  1       -4 0.52898121E-01 0.12500244E+03</pdfrwt>
<totfact> 0.69152639E+03</totfact>
</mgrwt>
</event>
<event>
 5    1  0.3282421E-002  0.1250008E+03  0.7818608E-02  0.1235068E+00
         -4   -1    0    0    0  501 -0.00000000000E+00  0.00000000000E+00  0.60999639012E+03  0.60999771218E+03  0.12700000000E+01 0. -1.
          4   -1    0    0  501    0  0.00000000000E+00 -0.00000000000E+00 -0.63394968176E+01  0.64654558927E+01  0.12700000000E+01 0. -1.
         25    2    1    2    0    0  0.00000000000E+00  0.00000000000E+00  0.60365689330E+03  0.61646316807E+03  0.12500077101E+03 0.  0.
    9000005    1    3    3    0    0 -0.18394709702E+02  0.48025935800E+02  0.47691626555E+03  0.47968216582E+03  0.10000000000E+01 0.  0.
    9000005    1    3    3    0    0  0.18394709702E+02 -0.48025935800E+02  0.12674062775E+03  0.13678100225E+03  0.10000000000E+01 0.  0.
<mgrwt>
<rscale>  0 0.12500077E+03</rscale>
<asrwt>0</asrwt>
<pdfrwt beam="2">  1        4 0.98509816E-03 0.12500077E+03</pdfrwt>
<pdfrwt beam="1">  1       -4 0.93855379E-01 0.12500077E+03</pdfrwt>
<totfact> 0.47843824E+03</totfact>
</mgrwt>
</event>
<event>
 5    1  0.3282421E-002  0.1250005E+03  0.7818608E-02  0.1235069E+00
          4   -1    0    0  501    0  0.00000000000E+00  0.00000000000E+00  0.19533314053E+03  0.19533726907E+03  0.12700000000E+01 0. -1.
         -4   -1    0    0    0  501 -0.00000000000E+00 -0.00000000000E+00 -0.19973529001E+02  0.20013864214E+02  0.12700000000E+01 0. -1.
         25    2    1    2    0    0  0.00000000000E+00  0.00000000000E+00  0.17535961152E+03  0.21535113328E+03  0.12500046901E+03 0.  0.
    9000005    1    3    3    0    0 -0.61850696757E+02 -0.70265021826E+01  0.78181101009E+02  0.99940807367E+02  0.10000000000E+01 0.  0.
    9000005    1    3    3    0    0  0.61850696757E+02  0.70265021826E+01  0.97178510516E+02  0.11541032592E+03  0.10000000000E+01 0.  0.
<mgrwt>
<rscale>  0 0.12500047E+03</rscale>
<asrwt>0</asrwt>
<pdfrwt beam="1">  1        4 0.30054673E-01 0.12500047E+03</pdfrwt>
<pdfrwt beam="2">  1       -4 0.30762708E-02 0.12500047E+03</pdfrwt>
<totfact> 0.87608440E+03</totfact>
</mgrwt>
</event>
<event>
 5    1  0.3282421E-002  0.1249987E+03  0.7818608E-02  0.1235071E+00
          4   -1    0    0  501    0  0.00000000000E+00  0.00000000000E+00  0.26054062746E+02  0.26084997328E+02  0.12700000000E+01 0. -1.
         -4   -1    0    0    0  501 -0.00000000000E+00 -0.00000000000E+00 -0.14980284469E+03  0.14980822800E+03  0.12700000000E+01 0. -1.
         25    2    1    2    0    0  0.00000000000E+00  0.00000000000E+00 -0.12374878194E+03  0.17589322533E+03  0.12499866273E+03 0.  0.
    9000005    1    3    3    0    0  0.18908671896E+02  0.21781642276E+02  0.16133467062E+02  0.33064581844E+02  0.10000000000E+01 0.  0.
    9000005    1    3    3    0    0 -0.18908671896E+02 -0.21781642276E+02 -0.13988224900E+03  0.14282864348E+03  0.10000000000E+01 0.  0.
<mgrwt>
<rscale>  0 0.12499866E+03</rscale>
<asrwt>0</asrwt>
<pdfrwt beam="1">  1        4 0.40111111E-02 0.12499866E+03</pdfrwt>
<pdfrwt beam="2">  1       -4 0.23049385E-01 0.12499866E+03</pdfrwt>
<totfact> 0.94364334E+03</totfact>
</mgrwt>
</event>
<event>
 5    1  0.3282421E-002  0.1249994E+03  0.7818608E-02  0.1235070E+00
          4   -1    0    0  501    0  0.00000000000E+00  0.00000000000E+00  0.10606921760E+02  0.10682681743E+02  0.12700000000E+01 0.  1.
         -4   -1    0    0    0  501 -0.00000000000E+00 -0.00000000000E+00 -0.36688280693E+03  0.36688500504E+03  0.12700000000E+01 0.  1.
         25    2    1    2    0    0  0.00000000000E+00  0.00000000000E+00 -0.35627588517E+03  0.37756768678E+03  0.12499940698E+03 0.  0.
    9000005    1    3    3    0    0 -0.29448995370E+02  0.50749836917E+02 -0.24309209057E+03  0.25007509627E+03  0.10000000000E+01 0.  0.
    9000005    1    3    3    0    0  0.29448995370E+02 -0.50749836917E+02 -0.11318379460E+03  0.12749259051E+03  0.10000000000E+01 0.  0.
<mgrwt>
<rscale>  0 0.12499941E+03</rscale>
<asrwt>0</asrwt>
<pdfrwt beam="1">  1        4 0.16378312E-02 0.12499941E+03</pdfrwt>
<pdfrwt beam="2">  1       -4 0.56449496E-01 0.12499941E+03</pdfrwt>
<totfact> 0.66795457E+03</totfact>
</mgrwt>
</event>
<event>
 5    1  0.3282421E-002  0.1250008E+03  0.7818608E-02  0.1235068E+00
          4   -1    0    0  501    0  0.00000000000E+00  0.00000000000E+00  0.18198409097E+03  0.18198852235E+03  0.12700000000E+01 0.  1.
         -4   -1    0    0    0  501 -0.00000000000E+00 -0.00000000000E+00 -0.21441581336E+02  0.21479159904E+02  0.12700000000E+01 0.  1.
         25    2    1    2    0    0  0.00000000000E+00  0.00000000000E+00  0.16054250964E+03  0.20346768225E+03  0.12500080128E+03 0.  0.
    9000005    1    3    3    0    0 -0.17594713365E+02 -0.36506019841E+02  0.15770467380E+03  0.16283128557E+03  0.10000000000E+01 0.  0.
    9000005    1    3    3    0    0  0.17594713365E+02  0.36506019841E+02  0.28378358371E+01  0.40636396681E+02  0.10000000000E+01 0.  0.
<mgrwt>
<rscale>  0 0.12500080E+03</rscale>
<asrwt>0</asrwt>
<pdfrwt beam="1">  1        4 0.28000783E-01 0.12500080E+03</pdfrwt>
<pdfrwt beam="2">  1       -4 0.33019365E-02 0.12500080E+03</pdfrwt>
<totfact> 0.89552327E+03</totfact>
</mgrwt>
</event>
<event>
 5    1  0.3282421E-002  0.1250070E+03  0.7818608E-02  0.1235058E+00
         -4   -1    0    0    0  501 -0.00000000000E+00  0.00000000000E+00  0.30589735144E+01  0.33121320870E+01  0.12700000000E+01 0. -1.
          4   -1    0    0  501    0  0.00000000000E+00 -0.00000000000E+00 -0.12261239579E+04  0.12261246157E+04  0.12700000000E+01 0. -1.
         25    2    1    2    0    0  0.00000000000E+00  0.00000000000E+00 -0.12230649844E+04  0.12294367478E+04  0.12500704216E+03 0.  0.
    9000005    1    3    3    0    0  0.38261321978E+02  0.48909588257E+02 -0.68080675706E+03  0.68363361316E+03  0.10000000000E+01 0.  0.
    9000005    1    3    3    0    0 -0.38261321978E+02 -0.48909588257E+02 -0.54225822737E+03  0.54580313459E+03  0.10000000000E+01 0.  0.
<mgrwt>
<rscale>  0 0.12500704E+03</rscale>
<asrwt>0</asrwt>
<pdfrwt beam="2">  1        4 0.18865360E+00 0.12500704E+03</pdfrwt>
<pdfrwt beam="1">  1       -4 0.49013662E-03 0.12500704E+03</pdfrwt>
<totfact> 0.23951374E+03</totfact>
</mgrwt>
</event>
<event>
 5    1  0.3282421E-002  0.1249985E+03  0.7818608E-02  0.1235072E+00
          4   -1    0    0  501    0  0.00000000000E+00  0.00000000000E+00  0.49892090366E+03  0.49892252004E+03  0.12700000000E+01 0. -1.
         -4   -1    0    0    0  501 -0.00000000000E+00 -0.00000000000E+00 -0.77760724730E+01  0.78790991303E+01  0.12700000000E+01 0. -1.
         25    2    1    2    0    0  0.00000000000E+00  0.00000000000E+00  0.49114483119E+03  0.50680161917E+03  0.12499854398E+03 0.  0.
    9000005    1    3    3    0    0 -0.17236463919E+00 -0.39217329683E+02  0.44283473064E+03  0.44456903550E+03  0.10000000000E+01 0.  0.
    9000005    1    3    3    0    0  0.17236463919E+00  0.39217329683E+02  0.48310100542E+02  0.62232583680E+02  0.10000000000E+01 0.  0.
<mgrwt>
<rscale>  0 0.12499854E+03</rscale>
<asrwt>0</asrwt>
<pdfrwt beam="1">  1        4 0.76765110E-01 0.12499854E+03</pdfrwt>
<pdfrwt beam="2">  1       -4 0.12043683E-02 0.12499854E+03</pdfrwt>
<totfact> 0.55342250E+03</totfact>
</mgrwt>
</event>
<event>
 5    1  0.3282421E-002  0.1249990E+03  0.7818608E-02  0.1235071E+00
          4   -1    0    0  501    0  0.00000000000E+00  0.00000000000E+00  0.72642573333E+03  0.72642684349E+03  0.12700000000E+01 0. -1.
         -4   -1    0    0    0  501 -0.00000000000E+00 -0.00000000000E+00 -0.53011565755E+01  0.54511614393E+01  0.12700000000E+01 0. -1.
         25    2    1    2    0    0  0.00000000000E+00  0.00000000000E+00  0.72112457675E+03  0.73187800493E+03  0.12499903560E+03 0.  0.
    9000005    1    3    3    0    0  0.30396554140E+02 -0.53151717110E+02  0.43372352548E+03  0.43802528704E+03  0.10000000000E+01 0.  0.
    9000005    1    3    3    0    0 -0.30396554140E+02  0.53151717110E+02  0.28740105127E+03  0.29385271789E+03  0.10000000000E+01 0.  0.
<mgrwt>
<rscale>  0 0.12499904E+03</rscale>
<asrwt>0</asrwt>
<pdfrwt beam="1">  1        4 0.11176949E+00 0.12499904E+03</pdfrwt>
<pdfrwt beam="2">  1       -4 0.82718631E-03 0.12499904E+03</pdfrwt>
<totfact> 0.41457125E+03</totfact>
</mgrwt>
</event>
<event>
 5    1  0.3282421E-002  0.1249983E+03  0.7818608E-02  0.1235072E+00
         -4   -1    0    0    0  501 -0.00000000000E+00  0.00000000000E+00  0.65937543836E+02  0.65949773215E+02  0.12700000000E+01 0.  1.
          4   -1    0    0  501    0  0.00000000000E+00 -0.00000000000E+00 -0.59215482549E+02  0.59229099888E+02  0.12700000000E+01 0.  1.
         25    2    1    2    0    0  0.00000000000E+00  0.00000000000E+00  0.67220612868E+01  0.12517887310E+03  0.12499825664E+03 0.  0.
    9000005    1    3    3    0    0 -0.68597184704E+01  0.43001752094E+02  0.48246935360E+02  0.64999793786E+02  0.10000000000E+01 0.  0.
    9000005    1    3    3    0    0  0.68597184704E+01 -0.43001752094E+02 -0.41524874073E+02  0.60179079317E+02  0.10000000000E+01 0.  0.
<mgrwt>
<rscale>  0 0.12499826E+03</rscale>
<asrwt>0</asrwt>
<pdfrwt beam="2">  1        4 0.91120625E-02 0.12499826E+03</pdfrwt>
<pdfrwt beam="1">  1       -4 0.10146226E-01 0.12499826E+03</pdfrwt>
<totfact> 0.10449390E+04</totfact>
</mgrwt>
</event>
<event>
 5    1  0.3282421E-002  0.1250006E+03  0.7818608E-02  0.1235068E+00
          4   -1    0    0  501    0  0.00000000000E+00  0.00000000000E+00  0.45926849311E+01  0.47650451075E+01  0.12700000000E+01 0.  1.
         -4   -1    0    0    0  501 -0.00000000000E+00 -0.00000000000E+00 -0.83470684968E+03  0.83470781583E+03  0.12700000000E+01 0.  1.
         25    2    1    2    0    0  0.00000000000E+00  0.00000000000E+00 -0.83011416475E+03  0.83947286093E+03  0.12500063091E+03 0.  0.
    9000005    1    3    3    0    0 -0.55922143045E+02 -0.17466840510E+02 -0.26901265015E+03  0.27532014554E+03  0.10000000000E+01 0.  0.
    9000005    1    3    3    0    0  0.55922143045E+02  0.17466840510E+02 -0.56110151460E+03  0.56415271540E+03  0.10000000000E+01 0.  0.
<mgrwt>
<rscale>  0 0.12500063E+03</rscale>
<asrwt>0</asrwt>
<pdfrwt beam="1">  1        4 0.71990037E-03 0.12500063E+03</pdfrwt>
<pdfrwt beam="2">  1       -4 0.12842965E+00 0.12500063E+03</pdfrwt>
<totfact> 0.36561547E+03</totfact>
</mgrwt>
</event>
<event>
 5    1  0.3282421E-002  0.1250011E+03  0.7818608E-02  0.1235068E+00
          4   -1    0    0  501    0  0.00000000000E+00  0.00000000000E+00  0.78805275403E+01  0.79822061057E+01  0.12700000000E+01 0.  1.
         -4   -1    0    0    0  501 -0.00000000000E+00 -0.00000000000E+00 -0.49241232121E+03  0.49241395896E+03  0.12700000000E+01 0.  1.
         25    2    1    2    0    0  0.00000000000E+00  0.00000000000E+00 -0.48453179367E+03  0.50039616507E+03  0.12500105174E+03 0.  0.
    9000005    1    3    3    0    0  0.15714388687E+02  0.59204328116E+02 -0.29181773992E+03  0.29817895267E+03  0.10000000000E+01 0.  0.
    9000005    1    3    3    0    0 -0.15714388687E+02 -0.59204328116E+02 -0.19271405375E+03  0.20221721240E+03  0.10000000000E+01 0.  0.
<mgrwt>
<rscale>  0 0.12500105E+03</rscale>
<asrwt>0</asrwt>
<pdfrwt beam="1">  1        4 0.12203366E-02 0.12500105E+03</pdfrwt>
<pdfrwt beam="2">  1       -4 0.75763665E-01 0.12500105E+03</pdfrwt>
<totfact> 0.55832361E+03</totfact>
</mgrwt>
</event>
<event>
 5    1  0.3282421E-002  0.1249974E+03  0.7818608E-02  0.1235073E+00
         -4   -1    0    0    0  501 -0.00000000000E+00  0.00000000000E+00  0.13402350102E+04  0.13402356119E+04  0.12700000000E+01 0.  1.
          4   -1    0    0  501    0  0.00000000000E+00 -0.00000000000E+00 -0.27754945221E+01  0.30522565164E+01  0.12700000000E+01 0.  1.
         25    2    1    2    0    0  0.00000000000E+00  0.00000000000E+00  0.13374595157E+04  0.13432878684E+04  0.12499736564E+03 0.  0.
    9000005    1    3    3    0    0  0.59443307706E+02  0.18076968705E+02  0.74066067611E+03  0.74326275351E+03  0.10000000000E+01 0.  0.
    9000005    1    3    3    0    0 -0.59443307706E+02 -0.18076968705E+02  0.59679883954E+03  0.60002511490E+03  0.10000000000E+01 0.  0.
<mgrwt>
<rscale>  0 0.12499737E+03</rscale>
<asrwt>0</asrwt>
<pdfrwt beam="2">  1        4 0.44833519E-03 0.12499737E+03</pdfrwt>
<pdfrwt beam="1">  1       -4 0.20621117E+00 0.12499737E+03</pdfrwt>
<totfact> 0.21230546E+03</totfact>
</mgrwt>
</event>
<event>
 5    1  0.3282421E-002  0.1250007E+03  0.7818608E-02  0.1235068E+00
         -4   -1    0    0    0  501 -0.00000000000E+00  0.00000000000E+00  0.36159799752E+02  0.36182095269E+02  0.12700000000E+01 0.  1.
          4   -1    0    0  501    0  0.00000000000E+00 -0.00000000000E+00 -0.10796924259E+03  0.10797671159E+03  0.12700000000E+01 0.  1.
         25    2    1    2    0    0  0.00000000000E+00  0.00000000000E+00 -0.71809442839E+02  0.14415880686E+03  0.12500066205E+03 0.  0.
    9000005    1    3    3    0    0 -0.14331821926E+02  0.56673211604E+02 -0.10427304504E+02  0.59388405539E+02  0.10000000000E+01 0.  0.
    9000005    1    3    3    0    0  0.14331821926E+02 -0.56673211604E+02 -0.61382138335E+02  0.84770401319E+02  0.10000000000E+01 0.  0.
<mgrwt>
<rscale>  0 0.12500066E+03</rscale>
<asrwt>0</asrwt>
<pdfrwt beam="2">  1        4 0.16612942E-01 0.12500066E+03</pdfrwt>
<pdfrwt beam="1">  1       -4 0.55653357E-02 0.12500066E+03</pdfrwt>
<totfact> 0.10047958E+04</totfact>
</mgrwt>
</event>
<event>
 5    1  0.3282421E-002  0.1250006E+03  0.7818608E-02  0.1235068E+00
          4   -1    0    0  501    0  0.00000000000E+00  0.00000000000E+00  0.10397485792E+02  0.10474760656E+02  0.12700000000E+01 0.  1.
         -4   -1    0    0    0  501 -0.00000000000E+00 -0.00000000000E+00 -0.37422616140E+03  0.37422831637E+03  0.12700000000E+01 0.  1.
         25    2    1    2    0    0  0.00000000000E+00  0.00000000000E+00 -0.36382867561E+03  0.38470307703E+03  0.12500060913E+03 0.  0.
    9000005    1    3    3    0    0 -0.13472879658E+02 -0.13706442729E+02  0.10909770349E+01  0.19276288270E+02  0.10000000000E+01 0.  0.
    9000005    1    3    3    0    0  0.13472879658E+02  0.13706442729E+02 -0.36491965264E+03  0.36542678876E+03  0.10000000000E+01 0.  0.
<mgrwt>
<rscale>  0 0.12500061E+03</rscale>
<asrwt>0</asrwt>
<pdfrwt beam="1">  1        4 0.16057235E-02 0.12500061E+03</pdfrwt>
<pdfrwt beam="2">  1       -4 0.57579355E-01 0.12500061E+03</pdfrwt>
<totfact> 0.66067362E+03</totfact>
</mgrwt>
</event>
<event>
 5    1  0.3282421E-002  0.1249988E+03  0.7818608E-02  0.1235071E+00
         -4   -1    0    0    0  501 -0.00000000000E+00  0.00000000000E+00  0.17377673880E+03  0.17378137946E+03  0.12700000000E+01 0.  1.
          4   -1    0    0  501    0  0.00000000000E+00 -0.00000000000E+00 -0.22455253589E+02  0.22491138560E+02  0.12700000000E+01 0.  1.
         25    2    1    2    0    0  0.00000000000E+00  0.00000000000E+00  0.15132148521E+03  0.19627251802E+03  0.12499883777E+03 0.  0.
    9000005    1    3    3    0    0 -0.54542823977E+02 -0.17334938566E+02  0.11506473570E+03  0.12851580892E+03  0.10000000000E+01 0.  0.
    9000005    1    3    3    0    0  0.54542823977E+02  0.17334938566E+02  0.36256749515E+02  0.67756709099E+02  0.10000000000E+01 0.  0.
<mgrwt>
<rscale>  0 0.12499884E+03</rscale>
<asrwt>0</asrwt>
<pdfrwt beam="2">  1        4 0.34577719E-02 0.12499884E+03</pdfrwt>
<pdfrwt beam="1">  1       -4 0.26737999E-01 0.12499884E+03</pdfrwt>
<totfact> 0.90769588E+03</totfact>
</mgrwt>
</event>
<event>
 5    1  0.3282421E-002  0.1250002E+03  0.7818608E-02  0.1235069E+00
          4   -1    0    0  501    0  0.00000000000E+00  0.00000000000E+00  0.40259540474E+02  0.40279566770E+02  0.12700000000E+01 0. -1.
         -4   -1    0    0    0  501 -0.00000000000E+00 -0.00000000000E+00 -0.96978639277E+02  0.96986954669E+02  0.12700000000E+01 0. -1.
         25    2    1    2    0    0  0.00000000000E+00  0.00000000000E+00 -0.56719098802E+02  0.13726652144E+03  0.12500016696E+03 0.  0.
    9000005    1    3    3    0    0  0.40712741774E+02  0.37698248473E+02 -0.59931048829E+02  0.81678735877E+02  0.10000000000E+01 0.  0.
    9000005    1    3    3    0    0 -0.40712741774E+02 -0.37698248473E+02  0.32119500268E+01  0.55587785562E+02  0.10000000000E+01 0.  0.
<mgrwt>
<rscale>  0 0.12500017E+03</rscale>
<asrwt>0</asrwt>
<pdfrwt beam="1">  1        4 0.61959556E-02 0.12500017E+03</pdfrwt>
<pdfrwt beam="2">  1       -4 0.14921971E-01 0.12500017E+03</pdfrwt>
<totfact> 0.10190478E+04</totfact>
</mgrwt>
</event>
<event>
 5    1  0.3282421E-002  0.1249996E+03  0.7818608E-02  0.1235070E+00
         -4   -1    0    0    0  501 -0.00000000000E+00  0.00000000000E+00  0.15216406021E+02  0.15269312761E+02  0.12700000000E+01 0. -1.
          4   -1    0    0  501    0  0.00000000000E+00 -0.00000000000E+00 -0.25621147629E+03  0.25621462387E+03  0.12700000000E+01 0. -1.
         25    2    1    2    0    0  0.00000000000E+00  0.00000000000E+00 -0.24099507027E+03  0.27148393663E+03  0.12499961581E+03 0.  0.
    9000005    1    3    3    0    0  0.28777260447E+02 -0.13810364382E+02 -0.38135123295E+01  0.32162085745E+02  0.10000000000E+01 0.  0.
    9000005    1    3    3    0    0 -0.28777260447E+02  0.13810364382E+02 -0.23718155794E+03  0.23932185088E+03  0.10000000000E+01 0.  0.
<mgrwt>
<rscale>  0 0.12499962E+03</rscale>
<asrwt>0</asrwt>
<pdfrwt beam="2">  1        4 0.39421459E-01 0.12499962E+03</pdfrwt>
<pdfrwt beam="1">  1       -4 0.23452976E-02 0.12499962E+03</pdfrwt>
<totfact> 0.79321664E+03</totfact>
</mgrwt>
</event>
<event>
 5    1  0.3282421E-002  0.1249968E+03  0.7818608E-02  0.1235074E+00
         -4   -1    0    0    0  501 -0.00000000000E+00  0.00000000000E+00  0.56281837147E+01  0.57696925331E+01  0.12700000000E+01 0.  1.
          4   -1    0    0  501    0  0.00000000000E+00 -0.00000000000E+00 -0.68525756339E+03  0.68525874024E+03  0.12700000000E+01 0.  1.
         25    2    1    2    0    0  0.00000000000E+00  0.00000000000E+00 -0.67962937967E+03  0.69102843278E+03  0.12499680472E+03 0.  0.
    9000005    1    3    3    0    0  0.31794189368E+02 -0.68472344390E+01 -0.44820641627E+02  0.55386325143E+02  0.10000000000E+01 0.  0.
    9000005    1    3    3    0    0 -0.31794189368E+02  0.68472344390E+01 -0.63480873805E+03  0.63564210763E+03  0.10000000000E+01 0.  0.
<mgrwt>
<rscale>  0 0.12499680E+03</rscale>
<asrwt>0</asrwt>
<pdfrwt beam="2">  1        4 0.10543515E+00 0.12499680E+03</pdfrwt>
<pdfrwt beam="1">  1       -4 0.87685078E-03 0.12499680E+03</pdfrwt>
<totfact> 0.43567604E+03</totfact>
</mgrwt>
</event>
<event>
 5    1  0.3282421E-002  0.1250331E+03  0.7818608E-02  0.1235018E+00
         -4   -1    0    0    0  501 -0.00000000000E+00  0.00000000000E+00  0.25263604570E+03  0.25263923782E+03  0.12700000000E+01 0. -1.
          4   -1    0    0  501    0  0.00000000000E+00 -0.00000000000E+00 -0.15440790315E+02  0.15492930825E+02  0.12700000000E+01 0. -1.
         25    2    1    2    0    0  0.00000000000E+00  0.00000000000E+00  0.23719525539E+03  0.26813216865E+03  0.12503307837E+03 0.  0.
    9000005    1    3    3    0    0  0.37225268191E+02 -0.33140878032E+02  0.19950145382E+03  0.20563528020E+03  0.10000000000E+01 0.  0.
    9000005    1    3    3    0    0 -0.37225268191E+02  0.33140878032E+02  0.37693801570E+02  0.62496888446E+02  0.10000000000E+01 0.  0.
<mgrwt>
<rscale>  0 0.12503308E+03</rscale>
<asrwt>0</asrwt>
<pdfrwt beam="2">  1        4 0.23797626E-02 0.12503308E+03</pdfrwt>
<pdfrwt beam="1">  1       -4 0.38871339E-01 0.12503308E+03</pdfrwt>
<totfact> 0.79719521E+03</totfact>
</mgrwt>
</event>
<event>
 5    1  0.3282421E-002  0.1250033E+03  0.7818608E-02  0.1235064E+00
          4   -1    0    0  501    0  0.00000000000E+00  0.00000000000E+00  0.50384635242E+01  0.51960576098E+01  0.12700000000E+01 0.  1.
         -4   -1    0    0    0  501 -0.00000000000E+00 -0.00000000000E+00 -0.76323005937E+03  0.76323111600E+03  0.12700000000E+01 0.  1.
         25    2    1    2    0    0  0.00000000000E+00  0.00000000000E+00 -0.75819159585E+03  0.76842717361E+03  0.12500330046E+03 0.  0.
    9000005    1    3    3    0    0 -0.38696538961E+02  0.46374935105E+02 -0.47772036830E+03  0.48152446150E+03  0.10000000000E+01 0.  0.
    9000005    1    3    3    0    0  0.38696538961E+02 -0.46374935105E+02 -0.28047122755E+03  0.28690271211E+03  0.10000000000E+01 0.  0.
<mgrwt>
<rscale>  0 0.12500330E+03</rscale>
<asrwt>0</asrwt>
<pdfrwt beam="1">  1        4 0.78735274E-03 0.12500330E+03</pdfrwt>
<pdfrwt beam="2">  1       -4 0.11743212E+00 0.12500330E+03</pdfrwt>
<totfact> 0.39705048E+03</totfact>
</mgrwt>
</event>
<event>
 5    1  0.3282421E-002  0.1250003E+03  0.7818608E-02  0.1235069E+00
          4   -1    0    0  501    0  0.00000000000E+00  0.00000000000E+00  0.21101650444E+03  0.21102032614E+03  0.12700000000E+01 0.  1.
         -4   -1    0    0    0  501 -0.00000000000E+00 -0.00000000000E+00 -0.18485888142E+02  0.18529461957E+02  0.12700000000E+01 0.  1.
         25    2    1    2    0    0  0.00000000000E+00  0.00000000000E+00  0.19253061629E+03  0.22954978810E+03  0.12500026802E+03 0.  0.
    9000005    1    3    3    0    0 -0.63022704320E+01 -0.27138191170E+02  0.19898964911E+03  0.20093302487E+03  0.10000000000E+01 0.  0.
    9000005    1    3    3    0    0  0.63022704320E+01  0.27138191170E+02 -0.64590328130E+01  0.28616763225E+02  0.10000000000E+01 0.  0.
<mgrwt>
<rscale>  0 0.12500027E+03</rscale>
<asrwt>0</asrwt>
<pdfrwt beam="1">  1        4 0.32467722E-01 0.12500027E+03</pdfrwt>
<pdfrwt beam="2">  1       -4 0.28476287E-02 0.12500027E+03</pdfrwt>
<totfact> 0.85378265E+03</totfact>
</mgrwt>
</event>
<event>
 5    1  0.3282421E-002  0.1249972E+03  0.7818608E-02  0.1235074E+00
         -4   -1    0    0    0  501 -0.00000000000E+00  0.00000000000E+00  0.27303277808E+02  0.27332798595E+02  0.12700000000E+01 0.  1.
          4   -1    0    0  501    0  0.00000000000E+00 -0.00000000000E+00 -0.14295278630E+03  0.14295842756E+03  0.12700000000E+01 0.  1.
         25    2    1    2    0    0  0.00000000000E+00  0.00000000000E+00 -0.11564950849E+03  0.17029122616E+03  0.12499717153E+03 0.  0.
    9000005    1    3    3    0    0 -0.57419947278E+02 -0.23123420917E+02 -0.46158437436E+02  0.77222692823E+02  0.10000000000E+01 0.  0.
    9000005    1    3    3    0    0  0.57419947278E+02  0.23123420917E+02 -0.69491071054E+02  0.93068533332E+02  0.10000000000E+01 0.  0.
<mgrwt>
<rscale>  0 0.12499717E+03</rscale>
<asrwt>0</asrwt>
<pdfrwt beam="2">  1        4 0.21995441E-01 0.12499717E+03</pdfrwt>
<pdfrwt beam="1">  1       -4 0.42032091E-02 0.12499717E+03</pdfrwt>
<totfact> 0.95400440E+03</totfact>
</mgrwt>
</event>
<event>
 5    1  0.3282421E-002  0.1250006E+03  0.7818608E-02  0.1235068E+00
          4   -1    0    0  501    0  0.00000000000E+00  0.00000000000E+00  0.15417033006E+02  0.15469253593E+02  0.12700000000E+01 0. -1.
         -4   -1    0    0    0  501 -0.00000000000E+00 -0.00000000000E+00 -0.25289265368E+03  0.25289584257E+03  0.12700000000E+01 0. -1.
         25    2    1    2    0    0  0.00000000000E+00  0.00000000000E+00 -0.23747562068E+03  0.26836509616E+03  0.12500061768E+03 0.  0.
    9000005    1    3    3    0    0  0.37109103857E+02 -0.19283080566E+01 -0.22660770087E+03  0.22963635177E+03  0.10000000000E+01 0.  0.
    9000005    1    3    3    0    0 -0.37109103857E+02  0.19283080566E+01 -0.10867919809E+02  0.38728744389E+02  0.10000000000E+01 0.  0.
<mgrwt>
<rscale>  0 0.12500062E+03</rscale>
<asrwt>0</asrwt>
<pdfrwt beam="1">  1        4 0.23761137E-02 0.12500062E+03</pdfrwt>
<pdfrwt beam="2">  1       -4 0.38910821E-01 0.12500062E+03</pdfrwt>
<totfact> 0.79745190E+03</totfact>
</mgrwt>
</event>
<event>
 5    1  0.3282421E-002  0.1250020E+03  0.7818608E-02  0.1235066E+00
         -4   -1    0    0    0  501 -0.00000000000E+00  0.00000000000E+00  0.12721137897E+02  0.12784375206E+02  0.12700000000E+01 0. -1.
          4   -1    0    0  501    0  0.00000000000E+00 -0.00000000000E+00 -0.30625168593E+03  0.30625431921E+03  0.12700000000E+01 0. -1.
         25    2    1    2    0    0  0.00000000000E+00  0.00000000000E+00 -0.29353054803E+03  0.31903869441E+03  0.12500202361E+03 0.  0.
    9000005    1    3    3    0    0  0.19851897285E+02  0.53527108170E+01  0.38537418527E+01  0.20942795066E+02  0.10000000000E+01 0.  0.
    9000005    1    3    3    0    0 -0.19851897285E+02 -0.53527108170E+01 -0.29738428988E+03  0.29809589935E+03  0.10000000000E+01 0.  0.
<mgrwt>
<rscale>  0 0.12500202E+03</rscale>
<asrwt>0</asrwt>
<pdfrwt beam="2">  1        4 0.47120705E-01 0.12500202E+03</pdfrwt>
<pdfrwt beam="1">  1       -4 0.19621653E-02 0.12500202E+03</pdfrwt>
<totfact> 0.73267321E+03</totfact>
</mgrwt>
</event>
<event>
 5    1  0.3282421E-002  0.1249981E+03  0.7818608E-02  0.1235072E+00
         -4   -1    0    0    0  501 -0.00000000000E+00  0.00000000000E+00  0.31379531473E+01  0.33852104742E+01  0.12700000000E+01 0.  1.
          4   -1    0    0  501    0  0.00000000000E+00 -0.00000000000E+00 -0.11973705564E+04  0.11973712299E+04  0.12700000000E+01 0.  1.
         25    2    1    2    0    0  0.00000000000E+00  0.00000000000E+00 -0.11942326033E+04  0.12007564404E+04  0.12499807387E+03 0.  0.
    9000005    1    3    3    0    0 -0.56890239741E+02  0.25649783689E+02 -0.62856664746E+03  0.63165769296E+03  0.10000000000E+01 0.  0.
    9000005    1    3    3    0    0  0.56890239741E+02 -0.25649783689E+02 -0.56566595581E+03  0.56909874744E+03  0.10000000000E+01 0.  0.
<mgrwt>
<rscale>  0 0.12499807E+03</rscale>
<asrwt>0</asrwt>
<pdfrwt beam="2">  1        4 0.18422958E+00 0.12499807E+03</pdfrwt>
<pdfrwt beam="1">  1       -4 0.50183458E-03 0.12499807E+03</pdfrwt>
<totfact> 0.24694053E+03</totfact>
</mgrwt>
</event>
<event>
 5    1  0.3282421E-002  0.1250033E+03  0.7818608E-02  0.1235064E+00
          4   -1    0    0  501    0  0.00000000000E+00  0.00000000000E+00  0.20747012426E+04  0.20747016313E+04  0.12700000000E+01 0.  1.
         -4   -1    0    0    0  501 -0.00000000000E+00 -0.00000000000E+00 -0.16683181223E+01  0.20967082193E+01  0.12700000000E+01 0.  1.
         25    2    1    2    0    0  0.00000000000E+00  0.00000000000E+00  0.20730329245E+04  0.20767983395E+04  0.12500334831E+03 0.  0.
    9000005    1    3    3    0    0  0.34048444423E+02 -0.47131143462E+02  0.14171237075E+04  0.14183163411E+04  0.10000000000E+01 0.  0.
    9000005    1    3    3    0    0 -0.34048444423E+02  0.47131143462E+02  0.65590921700E+03  0.65848199839E+03  0.10000000000E+01 0.  0.
<mgrwt>
<rscale>  0 0.12500335E+03</rscale>
<asrwt>0</asrwt>
<pdfrwt beam="1">  1        4 0.31921747E+00 0.12500335E+03</pdfrwt>
<pdfrwt beam="2">  1       -4 0.28964760E-03 0.12500335E+03</pdfrwt>
<totfact> 0.88913201E+02</totfact>
</mgrwt>
</event>
<event>
 5    1  0.3282421E-002  0.1250007E+03  0.7818608E-02  0.1235068E+00
          4   -1    0    0  501    0  0.00000000000E+00  0.00000000000E+00  0.19078411170E+02  0.19120634738E+02  0.12700000000E+01 0. -1.
         -4   -1    0    0    0  501 -0.00000000000E+00 -0.00000000000E+00 -0.20447899917E+03  0.20448294306E+03  0.12700000000E+01 0. -1.
         25    2    1    2    0    0  0.00000000000E+00  0.00000000000E+00 -0.18540058800E+03  0.22360357779E+03  0.12500072789E+03 0.  0.
    9000005    1    3    3    0    0 -0.35429515521E+02 -0.47952251598E+02 -0.12619595621E+03  0.13957466950E+03  0.10000000000E+01 0.  0.
    9000005    1    3    3    0    0  0.35429515521E+02  0.47952251598E+02 -0.59204631791E+02  0.84028908292E+02  0.10000000000E+01 0.  0.
<mgrwt>
<rscale>  0 0.12500073E+03</rscale>
<asrwt>0</asrwt>
<pdfrwt beam="1">  1        4 0.29386917E-02 0.12500073E+03</pdfrwt>
<pdfrwt beam="2">  1       -4 0.31461857E-01 0.12500073E+03</pdfrwt>
<totfact> 0.86299921E+03</totfact>
</mgrwt>
</event>
<event>
 5    1  0.3282421E-002  0.1250000E+03  0.7818608E-02  0.1235069E+00
         -4   -1    0    0    0  501 -0.00000000000E+00  0.00000000000E+00  0.14059594248E+01  0.18946297538E+01  0.12700000000E+01 0.  1.
          4   -1    0    0  501    0  0.00000000000E+00 -0.00000000000E+00 -0.23665120529E+04  0.23665123936E+04  0.12700000000E+01 0.  1.
         25    2    1    2    0    0  0.00000000000E+00  0.00000000000E+00 -0.23651060934E+04  0.23684070234E+04  0.12499998095E+03 0.  0.
    9000005    1    3    3    0    0  0.48036902077E+02  0.20724198739E+02 -0.18301537412E+04  0.18309016229E+04  0.10000000000E+01 0.  0.
    9000005    1    3    3    0    0 -0.48036902077E+02 -0.20724198739E+02 -0.53495235228E+03  0.53750540052E+03  0.10000000000E+01 0.  0.
<mgrwt>
<rscale>  0 0.12499998E+03</rscale>
<asrwt>0</asrwt>
<pdfrwt beam="2">  1        4 0.36411368E+00 0.12499998E+03</pdfrwt>
<pdfrwt beam="1">  1       -4 0.25391958E-03 0.12499998E+03</pdfrwt>
<totfact> 0.57873431E+02</totfact>
</mgrwt>
</event>
<event>
 5    1  0.3282421E-002  0.1250003E+03  0.7818608E-02  0.1235069E+00
          4   -1    0    0  501    0  0.00000000000E+00  0.00000000000E+00  0.73179714902E+02  0.73190734202E+02  0.12700000000E+01 0. -1.
         -4   -1    0    0    0  501 -0.00000000000E+00 -0.00000000000E+00 -0.53356498427E+02  0.53371610660E+02  0.12700000000E+01 0. -1.
         25    2    1    2    0    0  0.00000000000E+00  0.00000000000E+00  0.19823216475E+02  0.12656234486E+03  0.12500026890E+03 0.  0.
    9000005    1    3    3    0    0  0.18638892209E+02  0.33617139461E+01  0.70208796490E+02  0.72725404970E+02  0.10000000000E+01 0.  0.
    9000005    1    3    3    0    0 -0.18638892209E+02 -0.33617139461E+01 -0.50385580016E+02  0.53836939892E+02  0.10000000000E+01 0.  0.
<mgrwt>
<rscale>  0 0.12500027E+03</rscale>
<asrwt>0</asrwt>
<pdfrwt beam="1">  1        4 0.11260428E-01 0.12500027E+03</pdfrwt>
<pdfrwt beam="2">  1       -4 0.82107021E-02 0.12500027E+03</pdfrwt>
<totfact> 0.10418606E+04</totfact>
</mgrwt>
</event>
<event>
 5    1  0.3282421E-002  0.1249998E+03  0.7818608E-02  0.1235070E+00
          4   -1    0    0  501    0  0.00000000000E+00  0.00000000000E+00  0.36799324915E+03  0.36799544063E+03  0.12700000000E+01 0. -1.
         -4   -1    0    0    0  501 -0.00000000000E+00 -0.00000000000E+00 -0.10574760636E+02  0.10650749388E+02  0.12700000000E+01 0. -1.
         25    2    1    2    0    0  0.00000000000E+00  0.00000000000E+00  0.35741848852E+03  0.37864619002E+03  0.12499984512E+03 0.  0.
    9000005    1    3    3    0    0 -0.12164378061E+02 -0.10766620383E+02  0.36150041568E+03  0.36186660905E+03  0.10000000000E+01 0.  0.
    9000005    1    3    3    0    0  0.12164378061E+02  0.10766620383E+02 -0.40819271611E+01  0.16779580967E+02  0.10000000000E+01 0.  0.
<mgrwt>
<rscale>  0 0.12499985E+03</rscale>
<asrwt>0</asrwt>
<pdfrwt beam="1">  1        4 0.56620350E-01 0.12499985E+03</pdfrwt>
<pdfrwt beam="2">  1       -4 0.16329004E-02 0.12499985E+03</pdfrwt>
<totfact> 0.66684214E+03</totfact>
</mgrwt>
</event>
<event>
 5    1  0.3282421E-002  0.1249442E+03  0.7818608E-02  0.1235157E+00
         -4   -1    0    0    0  501 -0.00000000000E+00  0.00000000000E+00  0.41661558183E+02  0.41680910862E+02  0.12700000000E+01 0. -1.
          4   -1    0    0  501    0  0.00000000000E+00 -0.00000000000E+00 -0.93632332383E+02  0.93640944930E+02  0.12700000000E+01 0. -1.
         25    2    1    2    0    0  0.00000000000E+00  0.00000000000E+00 -0.51970774199E+02  0.13532185579E+03  0.12494416066E+03 0.  0.
    9000005    1    3    3    0    0 -0.38463979040E+02 -0.39004508680E+02  0.65231818930E+01  0.55175912162E+02  0.10000000000E+01 0.  0.
    9000005    1    3    3    0    0  0.38463979040E+02  0.39004508680E+02 -0.58493956092E+02  0.80145943630E+02  0.10000000000E+01 0.  0.
<mgrwt>
<rscale>  0 0.12494416E+03</rscale>
<asrwt>0</asrwt>
<pdfrwt beam="2">  1        4 0.14407125E-01 0.12494416E+03</pdfrwt>
<pdfrwt beam="1">  1       -4 0.64116217E-02 0.12494416E+03</pdfrwt>
<totfact> 0.10244186E+04</totfact>
</mgrwt>
</event>
<event>
 5    1  0.3282421E-002  0.1249990E+03  0.7818608E-02  0.1235071E+00
          4   -1    0    0  501    0  0.00000000000E+00  0.00000000000E+00  0.35105485270E+02  0.35128449953E+02  0.12700000000E+01 0.  1.
         -4   -1    0    0    0  501 -0.00000000000E+00 -0.00000000000E+00 -0.11120699767E+03  0.11121424923E+03  0.12700000000E+01 0.  1.
         25    2    1    2    0    0  0.00000000000E+00  0.00000000000E+00 -0.76101512404E+02  0.14634269918E+03  0.12499898165E+03 0.  0.
    9000005    1    3    3    0    0  0.54751034856E+02 -0.31274505465E+01 -0.73128960724E+02  0.91412809066E+02  0.10000000000E+01 0.  0.
    9000005    1    3    3    0    0 -0.54751034856E+02  0.31274505465E+01 -0.29725516797E+01  0.54929890116E+02  0.10000000000E+01 0.  0.
<mgrwt>
<rscale>  0 0.12499898E+03</rscale>
<asrwt>0</asrwt>
<pdfrwt beam="1">  1        4 0.54031683E-02 0.12499898E+03</pdfrwt>
<pdfrwt beam="2">  1       -4 0.17111093E-01 0.12499898E+03</pdfrwt>
<totfact> 0.10004008E+04</totfact>
</mgrwt>
</event>
<event>
 5    1  0.3282421E-002  0.1249927E+03  0.7818608E-02  0.1235081E+00
          4   -1    0    0  501    0  0.00000000000E+00  0.00000000000E+00  0.94521523226E+01  0.95370898879E+01  0.12700000000E+01 0. -1.
         -4   -1    0    0    0  501 -0.00000000000E+00 -0.00000000000E+00 -0.41128345412E+03  0.41128541493E+03  0.12700000000E+01 0. -1.
         25    2    1    2    0    0  0.00000000000E+00  0.00000000000E+00 -0.40183130180E+03  0.42082250482E+03  0.12499274161E+03 0.  0.
    9000005    1    3    3    0    0  0.49474078870E+02 -0.36754167158E+02 -0.16621285308E+03  0.17727454925E+03  0.10000000000E+01 0.  0.
    9000005    1    3    3    0    0 -0.49474078870E+02  0.36754167158E+02 -0.23561844872E+03  0.24354795556E+03  0.10000000000E+01 0.  0.
<mgrwt>
<rscale>  0 0.12499274E+03</rscale>
<asrwt>0</asrwt>
<pdfrwt beam="1">  1        4 0.14608621E-02 0.12499274E+03</pdfrwt>
<pdfrwt beam="2">  1       -4 0.63281048E-01 0.12499274E+03</pdfrwt>
<totfact> 0.62586803E+03</totfact>
</mgrwt>
</event>
<event>
 5    1  0.3282421E-002  0.1249989E+03  0.7818608E-02  0.1235071E+00
          4   -1    0    0  501    0  0.00000000000E+00  0.00000000000E+00  0.12553954810E+02  0.12618030012E+02  0.12700000000E+01 0.  1.
         -4   -1    0    0    0  501 -0.00000000000E+00 -0.00000000000E+00 -0.31029412293E+03  0.31029672190E+03  0.12700000000E+01 0.  1.
         25    2    1    2    0    0  0.00000000000E+00  0.00000000000E+00 -0.29774016812E+03  0.32291475191E+03  0.12499891717E+03 0.  0.
    9000005    1    3    3    0    0  0.15200481071E+02  0.58543095714E+02 -0.18945679056E+03  0.19887992400E+03  0.10000000000E+01 0.  0.
    9000005    1    3    3    0    0 -0.15200481071E+02 -0.58543095714E+02 -0.10828337755E+03  0.12403482791E+03  0.10000000000E+01 0.  0.
<mgrwt>
<rscale>  0 0.12499892E+03</rscale>
<asrwt>0</asrwt>
<pdfrwt beam="1">  1        4 0.19365067E-02 0.12499892E+03</pdfrwt>
<pdfrwt beam="2">  1       -4 0.47742680E-01 0.12499892E+03</pdfrwt>
<totfact> 0.72812540E+03</totfact>
</mgrwt>
</event>
<event>
 5    1  0.3282421E-002  0.1250045E+03  0.7818608E-02  0.1235062E+00
          4   -1    0    0  501    0  0.00000000000E+00  0.00000000000E+00  0.53279117078E+02  0.53294251253E+02  0.12700000000E+01 0.  1.
         -4   -1    0    0    0  501 -0.00000000000E+00 -0.00000000000E+00 -0.73290962070E+02  0.73301964648E+02  0.12700000000E+01 0.  1.
         25    2    1    2    0    0  0.00000000000E+00  0.00000000000E+00 -0.20011844992E+02  0.12659621590E+03  0.12500451168E+03 0.  0.
    9000005    1    3    3    0    0 -0.44388350878E+02  0.74633819689E+00  0.34538789815E+02  0.56256650418E+02  0.10000000000E+01 0.  0.
    9000005    1    3    3    0    0  0.44388350878E+02 -0.74633819689E+00 -0.54550634807E+02  0.70339565483E+02  0.10000000000E+01 0.  0.
<mgrwt>
<rscale>  0 0.12500451E+03</rscale>
<asrwt>0</asrwt>
<pdfrwt beam="1">  1        4 0.81987977E-02 0.12500451E+03</pdfrwt>
<pdfrwt beam="2">  1       -4 0.11277543E-01 0.12500451E+03</pdfrwt>
<totfact> 0.10416870E+04</totfact>
</mgrwt>
</event>
<event>
 5    1  0.3282421E-002  0.1250010E+03  0.7818608E-02  0.1235068E+00
          4   -1    0    0  501    0  0.00000000000E+00  0.00000000000E+00  0.36632470337E+02  0.36654478349E+02  0.12700000000E+01 0.  1.
         -4   -1    0    0    0  501 -0.00000000000E+00 -0.00000000000E+00 -0.10657751502E+03  0.10658508155E+03  0.12700000000E+01 0.  1.
         25    2    1    2    0    0  0.00000000000E+00  0.00000000000E+00 -0.69945044687E+02  0.14323955990E+03  0.12500104897E+03 0.  0.
    9000005    1    3    3    0    0  0.88455705197E+01 -0.33751713540E+02 -0.94381944867E+02  0.10062988523E+03  0.10000000000E+01 0.  0.
    9000005    1    3    3    0    0 -0.88455705197E+01  0.33751713540E+02  0.24436900180E+02  0.42609674666E+02  0.10000000000E+01 0.  0.
<mgrwt>
<rscale>  0 0.12500105E+03</rscale>
<asrwt>0</asrwt>
<pdfrwt beam="1">  1        4 0.56380397E-02 0.12500105E+03</pdfrwt>
<pdfrwt beam="2">  1       -4 0.16398816E-01 0.12500105E+03</pdfrwt>
<totfact> 0.10066642E+04</totfact>
</mgrwt>
</event>
<event>
 5    1  0.3282421E-002  0.1249814E+03  0.7818608E-02  0.1235098E+00
         -4   -1    0    0    0  501 -0.00000000000E+00  0.00000000000E+00  0.30100279684E+02  0.30127059881E+02  0.12700000000E+01 0. -1.
          4   -1    0    0  501    0  0.00000000000E+00 -0.00000000000E+00 -0.12964843643E+03  0.12965465656E+03  0.12700000000E+01 0. -1.
         25    2    1    2    0    0  0.00000000000E+00  0.00000000000E+00 -0.99548156741E+02  0.15978171644E+03  0.12498144422E+03 0.  0.
    9000005    1    3    3    0    0  0.37735925325E+02 -0.13173927615E+01  0.13870773543E+02  0.40238463471E+02  0.10000000000E+01 0.  0.
    9000005    1    3    3    0    0 -0.37735925325E+02  0.13173927615E+01 -0.11341893028E+03  0.11954325297E+03  0.10000000000E+01 0.  0.
<mgrwt>
<rscale>  0 0.12498144E+03</rscale>
<asrwt>0</asrwt>
<pdfrwt beam="2">  1        4 0.19948451E-01 0.12498144E+03</pdfrwt>
<pdfrwt beam="1">  1       -4 0.46333508E-02 0.12498144E+03</pdfrwt>
<totfact> 0.97425515E+03</totfact>
</mgrwt>
</event>
<event>
 5    1  0.3282421E-002  0.1249830E+03  0.7818608E-02  0.1235096E+00
         -4   -1    0    0    0  501 -0.00000000000E+00  0.00000000000E+00  0.25435450974E+03  0.25435768030E+03  0.12700000000E+01 0.  1.
          4   -1    0    0  501    0  0.00000000000E+00 -0.00000000000E+00 -0.15323794434E+02  0.15376331677E+02  0.12700000000E+01 0.  1.
         25    2    1    2    0    0  0.00000000000E+00  0.00000000000E+00  0.23903071531E+03  0.26973401197E+03  0.12498301626E+03 0.  0.
    9000005    1    3    3    0    0  0.11723404432E+02  0.59948031759E+02  0.91130448449E+02  0.10971309565E+03  0.10000000000E+01 0.  0.
    9000005    1    3    3    0    0 -0.11723404432E+02 -0.59948031759E+02  0.14790026686E+03  0.16002091632E+03  0.10000000000E+01 0.  0.
<mgrwt>
<rscale>  0 0.12498302E+03</rscale>
<asrwt>0</asrwt>
<pdfrwt beam="2">  1        4 0.23617920E-02 0.12498302E+03</pdfrwt>
<pdfrwt beam="1">  1       -4 0.39135749E-01 0.12498302E+03</pdfrwt>
<totfact> 0.79589206E+03</totfact>
</mgrwt>
</event>
<event>
 5    1  0.3282421E-002  0.1250018E+03  0.7818608E-02  0.1235067E+00
          4   -1    0    0  501    0  0.00000000000E+00  0.00000000000E+00  0.82369215511E+02  0.82379005602E+02  0.12700000000E+01 0. -1.
         -4   -1    0    0    0  501 -0.00000000000E+00 -0.00000000000E+00 -0.47403884045E+02  0.47420893313E+02  0.12700000000E+01 0. -1.
         25    2    1    2    0    0  0.00000000000E+00  0.00000000000E+00  0.34965331466E+02  0.12979989891E+03  0.12500175740E+03 0.  0.
    9000005    1    3    3    0    0  0.40372775859E+02  0.43821258489E+02 -0.20846473646E+01  0.59628931575E+02  0.10000000000E+01 0.  0.
    9000005    1    3    3    0    0 -0.40372775859E+02 -0.43821258489E+02  0.37049978830E+02  0.70170967340E+02  0.10000000000E+01 0.  0.
<mgrwt>
<rscale>  0 0.12500176E+03</rscale>
<asrwt>0</asrwt>
<pdfrwt beam="1">  1        4 0.12674249E-01 0.12500176E+03</pdfrwt>
<pdfrwt beam="2">  1       -4 0.72949667E-02 0.12500176E+03</pdfrwt>
<totfact> 0.10348379E+04</totfact>
</mgrwt>
</event>
<event>
 5    1  0.3282421E-002  0.1249924E+03  0.7818608E-02  0.1235081E+00
          4   -1    0    0  501    0  0.00000000000E+00  0.00000000000E+00  0.43061608301E+03  0.43061795579E+03  0.12700000000E+01 0.  1.
         -4   -1    0    0    0  501 -0.00000000000E+00 -0.00000000000E+00 -0.90238450606E+01  0.91127756298E+01  0.12700000000E+01 0.  1.
         25    2    1    2    0    0  0.00000000000E+00  0.00000000000E+00  0.42159223795E+03  0.43973073142E+03  0.12499240399E+03 0.  0.
    9000005    1    3    3    0    0 -0.31278325444E+02  0.38792470563E+02  0.34344077047E+03  0.34703854574E+03  0.10000000000E+01 0.  0.
    9000005    1    3    3    0    0  0.31278325444E+02 -0.38792470563E+02  0.78151467487E+02  0.92692185676E+02  0.10000000000E+01 0.  0.
<mgrwt>
<rscale>  0 0.12499240E+03</rscale>
<asrwt>0</asrwt>
<pdfrwt beam="1">  1        4 0.66255616E-01 0.12499240E+03</pdfrwt>
<pdfrwt beam="2">  1       -4 0.13952687E-02 0.12499240E+03</pdfrwt>
<totfact> 0.60873943E+03</totfact>
</mgrwt>
</event>
<event>
 5    1  0.3282421E-002  0.1250015E+03  0.7818608E-02  0.1235067E+00
         -4   -1    0    0    0  501 -0.00000000000E+00  0.00000000000E+00  0.10623451883E+02  0.10699094817E+02  0.12700000000E+01 0. -1.
          4   -1    0    0  501    0  0.00000000000E+00 -0.00000000000E+00 -0.36632802143E+03  0.36633022286E+03  0.12700000000E+01 0. -1.
         25    2    1    2    0    0  0.00000000000E+00  0.00000000000E+00 -0.35570456955E+03  0.37702931768E+03  0.12500146237E+03 0.  0.
    9000005    1    3    3    0    0  0.37056277748E+02  0.48371038860E+02 -0.21969124981E+03  0.22798721535E+03  0.10000000000E+01 0.  0.
    9000005    1    3    3    0    0 -0.37056277748E+02 -0.48371038860E+02 -0.13601331973E+03  0.14904210233E+03  0.10000000000E+01 0.  0.
<mgrwt>
<rscale>  0 0.12500146E+03</rscale>
<asrwt>0</asrwt>
<pdfrwt beam="2">  1        4 0.56364136E-01 0.12500146E+03</pdfrwt>
<pdfrwt beam="1">  1       -4 0.16403655E-02 0.12500146E+03</pdfrwt>
<totfact> 0.66847739E+03</totfact>
</mgrwt>
</event>
<event>
 5    1  0.3282421E-002  0.1249999E+03  0.7818608E-02  0.1235070E+00
          4   -1    0    0  501    0  0.00000000000E+00  0.00000000000E+00  0.16126117643E+04  0.16126122644E+04  0.12700000000E+01 0. -1.
         -4   -1    0    0    0  501 -0.00000000000E+00 -0.00000000000E+00 -0.22553088672E+01  0.25883040947E+01  0.12700000000E+01 0. -1.
         25    2    1    2    0    0  0.00000000000E+00  0.00000000000E+00  0.16103564554E+04  0.16152005685E+04  0.12499985151E+03 0.  0.
    9000005    1    3    3    0    0 -0.35131521259E+02 -0.39294187732E+02  0.12389644834E+04  0.12400855809E+04  0.10000000000E+01 0.  0.
    9000005    1    3    3    0    0  0.35131521259E+02  0.39294187732E+02  0.37139197204E+03  0.37511498753E+03  0.10000000000E+01 0.  0.
<mgrwt>
<rscale>  0 0.12499985E+03</rscale>
<asrwt>0</asrwt>
<pdfrwt beam="1">  1        4 0.24811925E+00 0.12499985E+03</pdfrwt>
<pdfrwt beam="2">  1       -4 0.37262486E-03 0.12499985E+03</pdfrwt>
<totfact> 0.15773065E+03</totfact>
</mgrwt>
</event>
<event>
 5    1  0.3282421E-002  0.1250126E+03  0.7818608E-02  0.1235050E+00
         -4   -1    0    0    0  501 -0.00000000000E+00  0.00000000000E+00  0.90728341681E+01  0.91612892019E+01  0.12700000000E+01 0.  1.
          4   -1    0    0  501    0  0.00000000000E+00 -0.00000000000E+00 -0.42845224534E+03  0.42845412758E+03  0.12700000000E+01 0.  1.
         25    2    1    2    0    0  0.00000000000E+00  0.00000000000E+00 -0.41937941117E+03  0.43761541678E+03  0.12501264931E+03 0.  0.
    9000005    1    3    3    0    0 -0.79073790901E+01  0.54539754356E+02 -0.10650131393E+03  0.11991931170E+03  0.10000000000E+01 0.  0.
    9000005    1    3    3    0    0  0.79073790901E+01 -0.54539754356E+02 -0.31287809724E+03  0.31769610508E+03  0.10000000000E+01 0.  0.
<mgrwt>
<rscale>  0 0.12501265E+03</rscale>
<asrwt>0</asrwt>
<pdfrwt beam="2">  1        4 0.65922664E-01 0.12501265E+03</pdfrwt>
<pdfrwt beam="1">  1       -4 0.14027700E-02 0.12501265E+03</pdfrwt>
<totfact> 0.61034703E+03</totfact>
</mgrwt>
</event>
<event>
 5    1  0.3282421E-002  0.1250001E+03  0.7818608E-02  0.1235069E+00
          4   -1    0    0  501    0  0.00000000000E+00  0.00000000000E+00  0.41243732905E+02  0.41263281546E+02  0.12700000000E+01 0.  1.
         -4   -1    0    0    0  501 -0.00000000000E+00 -0.00000000000E+00 -0.94665323048E+02  0.94673841624E+02  0.12700000000E+01 0.  1.
         25    2    1    2    0    0  0.00000000000E+00  0.00000000000E+00 -0.53421590143E+02  0.13593712317E+03  0.12500014065E+03 0.  0.
    9000005    1    3    3    0    0  0.42720539580E+02 -0.39840194465E+02 -0.50856463091E+02  0.77457507287E+02  0.10000000000E+01 0.  0.
    9000005    1    3    3    0    0 -0.42720539580E+02  0.39840194465E+02 -0.25651270519E+01  0.58479615883E+02  0.10000000000E+01 0.  0.
<mgrwt>
<rscale>  0 0.12500014E+03</rscale>
<asrwt>0</asrwt>
<pdfrwt beam="1">  1        4 0.63473487E-02 0.12500014E+03</pdfrwt>
<pdfrwt beam="2">  1       -4 0.14566055E-01 0.12500014E+03</pdfrwt>
<totfact> 0.10218324E+04</totfact>
</mgrwt>
</event>
<event>
 5    1  0.3282421E-002  0.1249987E+03  0.7818608E-02  0.1235071E+00
         -4   -1    0    0    0  501 -0.00000000000E+00  0.00000000000E+00  0.22353928152E+03  0.22354288914E+03  0.12700000000E+01 0.  1.
          4   -1    0    0  501    0  0.00000000000E+00 -0.00000000000E+00 -0.17447356974E+02  0.17493517811E+02  0.12700000000E+01 0.  1.
         25    2    1    2    0    0  0.00000000000E+00  0.00000000000E+00  0.20609192455E+03  0.24103640695E+03  0.12499867243E+03 0.  0.
    9000005    1    3    3    0    0 -0.57578796901E+02 -0.11029258620E+02  0.61321082307E+02  0.84842427673E+02  0.10000000000E+01 0.  0.
    9000005    1    3    3    0    0  0.57578796901E+02  0.11029258620E+02  0.14477084224E+03  0.15619397928E+03  0.10000000000E+01 0.  0.
<mgrwt>
<rscale>  0 0.12499867E+03</rscale>
<asrwt>0</asrwt>
<pdfrwt beam="2">  1        4 0.26880374E-02 0.12499867E+03</pdfrwt>
<pdfrwt beam="1">  1       -4 0.34394483E-01 0.12499867E+03</pdfrwt>
<totfact> 0.83645732E+03</totfact>
</mgrwt>
</event>
<event>
 5    1  0.3282421E-002  0.1250026E+03  0.7818608E-02  0.1235065E+00
         -4   -1    0    0    0  501 -0.00000000000E+00  0.00000000000E+00  0.22815009214E+03  0.22815362684E+03  0.12700000000E+01 0. -1.
          4   -1    0    0  501    0  0.00000000000E+00 -0.00000000000E+00 -0.17094906594E+02  0.17142016551E+02  0.12700000000E+01 0. -1.
         25    2    1    2    0    0  0.00000000000E+00  0.00000000000E+00  0.21105518554E+03  0.24529564339E+03  0.12500264527E+03 0.  0.
    9000005    1    3    3    0    0 -0.50448892870E+02 -0.36821681521E+02  0.10968489898E+03  0.12622481565E+03  0.10000000000E+01 0.  0.
    9000005    1    3    3    0    0  0.50448892870E+02  0.36821681521E+02  0.10137028656E+03  0.11907082774E+03  0.10000000000E+01 0.  0.
<mgrwt>
<rscale>  0 0.12500265E+03</rscale>
<asrwt>0</asrwt>
<pdfrwt beam="2">  1        4 0.26338816E-02 0.12500265E+03</pdfrwt>
<pdfrwt beam="1">  1       -4 0.35103907E-01 0.12500265E+03</pdfrwt>
<totfact> 0.83010051E+03</totfact>
</mgrwt>
</event>
<event>
 5    1  0.3282421E-002  0.1250015E+03  0.7818608E-02  0.1235067E+00
          4   -1    0    0  501    0  0.00000000000E+00  0.00000000000E+00  0.55893943064E+01  0.57318608420E+01  0.12700000000E+01 0.  1.
         -4   -1    0    0    0  501 -0.00000000000E+00 -0.00000000000E+00 -0.68994713835E+03  0.68994830720E+03  0.12700000000E+01 0.  1.
         25    2    1    2    0    0  0.00000000000E+00  0.00000000000E+00 -0.68435774404E+03  0.69568016804E+03  0.12500149753E+03 0.  0.
    9000005    1    3    3    0    0  0.35164160492E+02  0.40461966010E+02 -0.16342247534E+03  0.17199300661E+03  0.10000000000E+01 0.  0.
    9000005    1    3    3    0    0 -0.35164160492E+02 -0.40461966010E+02 -0.52093526869E+03  0.52368716143E+03  0.10000000000E+01 0.  0.
<mgrwt>
<rscale>  0 0.12500150E+03</rscale>
<asrwt>0</asrwt>
<pdfrwt beam="1">  1        4 0.87095624E-03 0.12500150E+03</pdfrwt>
<pdfrwt beam="2">  1       -4 0.10615670E+00 0.12500150E+03</pdfrwt>
<totfact> 0.43314312E+03</totfact>
</mgrwt>
</event>
<event>
 5    1  0.3282421E-002  0.1249998E+03  0.7818608E-02  0.1235070E+00
          4   -1    0    0  501    0  0.00000000000E+00  0.00000000000E+00  0.11049417326E+03  0.11050147159E+03  0.12700000000E+01 0. -1.
         -4   -1    0    0    0  501 -0.00000000000E+00 -0.00000000000E+00 -0.35332537396E+02  0.35355354599E+02  0.12700000000E+01 0. -1.
         25    2    1    2    0    0  0.00000000000E+00  0.00000000000E+00  0.75161635862E+02  0.14585682619E+03  0.12499976896E+03 0.  0.
    9000005    1    3    3    0    0  0.20217598464E+01  0.16649242806E+02  0.10782473040E+03  0.10912587816E+03  0.10000000000E+01 0.  0.
    9000005    1    3    3    0    0 -0.20217598464E+01 -0.16649242806E+02 -0.32663094534E+02  0.36730948033E+02  0.10000000000E+01 0.  0.
<mgrwt>
<rscale>  0 0.12499977E+03</rscale>
<asrwt>0</asrwt>
<pdfrwt beam="1">  1        4 0.17001420E-01 0.12499977E+03</pdfrwt>
<pdfrwt beam="2">  1       -4 0.54380915E-02 0.12499977E+03</pdfrwt>
<totfact> 0.10013661E+04</totfact>
</mgrwt>
</event>
<event>
 5    1  0.3282421E-002  0.1249995E+03  0.7818608E-02  0.1235070E+00
          4   -1    0    0  501    0  0.00000000000E+00  0.00000000000E+00  0.97578598940E+03  0.97578681586E+03  0.12700000000E+01 0. -1.
         -4   -1    0    0    0  501 -0.00000000000E+00 -0.00000000000E+00 -0.39015780004E+01  0.41030733473E+01  0.12700000000E+01 0. -1.
         25    2    1    2    0    0  0.00000000000E+00  0.00000000000E+00  0.97188441140E+03  0.97988988921E+03  0.12499954341E+03 0.  0.
    9000005    1    3    3    0    0 -0.23173745174E+02  0.51462772072E+02  0.69625677909E+03  0.69854129570E+03  0.10000000000E+01 0.  0.
    9000005    1    3    3    0    0  0.23173745174E+02 -0.51462772072E+02  0.27562763231E+03  0.28134859351E+03  0.10000000000E+01 0.  0.
<mgrwt>
<rscale>  0 0.12499954E+03</rscale>
<asrwt>0</asrwt>
<pdfrwt beam="1">  1        4 0.15013654E+00 0.12499954E+03</pdfrwt>
<pdfrwt beam="2">  1       -4 0.61580575E-03 0.12499954E+03</pdfrwt>
<totfact> 0.31278258E+03</totfact>
</mgrwt>
</event>
<event>
 5    1  0.3282421E-002  0.1250000E+03  0.7818608E-02  0.1235069E+00
          4   -1    0    0  501    0  0.00000000000E+00  0.00000000000E+00  0.42433232942E+01  0.44292993327E+01  0.12700000000E+01 0.  1.
         -4   -1    0    0    0  501 -0.00000000000E+00 -0.00000000000E+00 -0.90063678961E+03  0.90063768503E+03  0.12700000000E+01 0.  1.
         25    2    1    2    0    0  0.00000000000E+00  0.00000000000E+00 -0.89639346631E+03  0.90506698436E+03  0.12499999893E+03 0.  0.
    9000005    1    3    3    0    0 -0.48978131930E+02 -0.24728349405E+02 -0.66479664401E+03  0.66705766360E+03  0.10000000000E+01 0.  0.
    9000005    1    3    3    0    0  0.48978131930E+02  0.24728349405E+02 -0.23159682230E+03  0.23800932076E+03  0.10000000000E+01 0.  0.
<mgrwt>
<rscale>  0 0.12500000E+03</rscale>
<asrwt>0</asrwt>
<pdfrwt beam="1">  1        4 0.66719441E-03 0.12500000E+03</pdfrwt>
<pdfrwt beam="2">  1       -4 0.13857373E+00 0.12500000E+03</pdfrwt>
<totfact> 0.33966675E+03</totfact>
</mgrwt>
</event>
<event>
 5    1  0.3282421E-002  0.1250009E+03  0.7818608E-02  0.1235068E+00
          4   -1    0    0  501    0  0.00000000000E+00  0.00000000000E+00  0.30101653857E+01  0.32671081478E+01  0.12700000000E+01 0. -1.
         -4   -1    0    0    0  501 -0.00000000000E+00 -0.00000000000E+00 -0.12443303081E+04  0.12443309562E+04  0.12700000000E+01 0. -1.
         25    2    1    2    0    0  0.00000000000E+00  0.00000000000E+00 -0.12413201427E+04  0.12475980643E+04  0.12500093381E+03 0.  0.
    9000005    1    3    3    0    0 -0.10441935741E+02 -0.57825380342E+02 -0.83297014307E+03  0.83504075821E+03  0.10000000000E+01 0.  0.
    9000005    1    3    3    0    0  0.10441935741E+02  0.57825380342E+02 -0.40834999963E+03  0.41255730612E+03  0.10000000000E+01 0.  0.
<mgrwt>
<rscale>  0 0.12500093E+03</rscale>
<asrwt>0</asrwt>
<pdfrwt beam="1">  1        4 0.48291804E-03 0.12500093E+03</pdfrwt>
<pdfrwt beam="2">  1       -4 0.19145485E+00 0.12500093E+03</pdfrwt>
<totfact> 0.23499313E+03</totfact>
</mgrwt>
</event>
<event>
 5    1  0.3282421E-002  0.1250061E+03  0.7818608E-02  0.1235060E+00
         -4   -1    0    0    0  501 -0.00000000000E+00  0.00000000000E+00  0.79551700911E+01  0.80559066019E+01  0.12700000000E+01 0. -1.
          4   -1    0    0  501    0  0.00000000000E+00 -0.00000000000E+00 -0.48788918770E+03  0.48789084063E+03  0.12700000000E+01 0. -1.
         25    2    1    2    0    0  0.00000000000E+00  0.00000000000E+00 -0.47993401761E+03  0.49594674723E+03  0.12500605920E+03 0.  0.
    9000005    1    3    3    0    0 -0.14569053083E+02  0.56281993984E+02 -0.14900155219E+03  0.15994493649E+03  0.10000000000E+01 0.  0.
    9000005    1    3    3    0    0  0.14569053083E+02 -0.56281993984E+02 -0.33093246542E+03  0.33600181074E+03  0.10000000000E+01 0.  0.
<mgrwt>
<rscale>  0 0.12500606E+03</rscale>
<asrwt>0</asrwt>
<pdfrwt beam="2">  1        4 0.75067728E-01 0.12500606E+03</pdfrwt>
<pdfrwt beam="1">  1       -4 0.12317488E-02 0.12500606E+03</pdfrwt>
<totfact> 0.56172751E+03</totfact>
</mgrwt>
</event>
<event>
 5    1  0.3282421E-002  0.1250018E+03  0.7818608E-02  0.1235066E+00
         -4   -1    0    0    0  501 -0.00000000000E+00  0.00000000000E+00  0.14933771259E+02  0.14987675738E+02  0.12700000000E+01 0.  1.
          4   -1    0    0  501    0  0.00000000000E+00 -0.00000000000E+00 -0.26105259353E+03  0.26105568273E+03  0.12700000000E+01 0.  1.
         25    2    1    2    0    0  0.00000000000E+00  0.00000000000E+00 -0.24611882227E+03  0.27604335847E+03  0.12500184431E+03 0.  0.
    9000005    1    3    3    0    0 -0.43844191384E+02  0.19387659420E+02 -0.21158970390E+03  0.21695482768E+03  0.10000000000E+01 0.  0.
    9000005    1    3    3    0    0  0.43844191384E+02 -0.19387659420E+02 -0.34529118362E+02  0.59088530789E+02  0.10000000000E+01 0.  0.
<mgrwt>
<rscale>  0 0.12500184E+03</rscale>
<asrwt>0</asrwt>
<pdfrwt beam="2">  1        4 0.40166318E-01 0.12500184E+03</pdfrwt>
<pdfrwt beam="1">  1       -4 0.23018876E-02 0.12500184E+03</pdfrwt>
<totfact> 0.78702443E+03</totfact>
</mgrwt>
</event>
<event>
 5    1  0.3282421E-002  0.1250101E+03  0.7818608E-02  0.1235054E+00
          4   -1    0    0  501    0  0.00000000000E+00  0.00000000000E+00  0.32096749069E+02  0.32121864840E+02  0.12700000000E+01 0.  1.
         -4   -1    0    0    0  501 -0.00000000000E+00 -0.00000000000E+00 -0.12164592952E+03  0.12165255882E+03  0.12700000000E+01 0.  1.
         25    2    1    2    0    0  0.00000000000E+00  0.00000000000E+00 -0.89549180448E+02  0.15377442366E+03  0.12501007021E+03 0.  0.
    9000005    1    3    3    0    0 -0.13994332180E+02  0.13418236725E+02  0.28309994762E+02  0.34327047839E+02  0.10000000000E+01 0.  0.
    9000005    1    3    3    0    0  0.13994332180E+02 -0.13418236725E+02 -0.11785917521E+03  0.11944737582E+03  0.10000000000E+01 0.  0.
<mgrwt>
<rscale>  0 0.12501007E+03</rscale>
<asrwt>0</asrwt>
<pdfrwt beam="1">  1        4 0.49404034E-02 0.12501007E+03</pdfrwt>
<pdfrwt beam="2">  1       -4 0.18717200E-01 0.12501007E+03</pdfrwt>
<totfact> 0.98534250E+03</totfact>
</mgrwt>
</event>
<event>
 5    1  0.3282421E-002  0.1249947E+03  0.7818608E-02  0.1235078E+00
          4   -1    0    0  501    0  0.00000000000E+00  0.00000000000E+00  0.90585325673E+01  0.91471259024E+01  0.12700000000E+01 0.  1.
         -4   -1    0    0    0  501 -0.00000000000E+00 -0.00000000000E+00 -0.42899914715E+03  0.42900102699E+03  0.12700000000E+01 0.  1.
         25    2    1    2    0    0  0.00000000000E+00  0.00000000000E+00 -0.41994061459E+03  0.43814815289E+03  0.12499473630E+03 0.  0.
    9000005    1    3    3    0    0 -0.14097310877E+02 -0.59942966687E+02 -0.17270355837E+03  0.18335597210E+03  0.10000000000E+01 0.  0.
    9000005    1    3    3    0    0  0.14097310877E+02  0.59942966687E+02 -0.24723705621E+03  0.25479218079E+03  0.10000000000E+01 0.  0.
<mgrwt>
<rscale>  0 0.12499474E+03</rscale>
<asrwt>0</asrwt>
<pdfrwt beam="1">  1        4 0.14005802E-02 0.12499474E+03</pdfrwt>
<pdfrwt beam="2">  1       -4 0.66006813E-01 0.12499474E+03</pdfrwt>
<totfact> 0.61011378E+03</totfact>
</mgrwt>
</event>
<event>
 5    1  0.3282421E-002  0.1249981E+03  0.7818608E-02  0.1235072E+00
          4   -1    0    0  501    0  0.00000000000E+00  0.00000000000E+00  0.28543793693E+02  0.28572032801E+02  0.12700000000E+01 0.  1.
         -4   -1    0    0    0  501 -0.00000000000E+00 -0.00000000000E+00 -0.13674811114E+03  0.13675400835E+03  0.12700000000E+01 0.  1.
         25    2    1    2    0    0  0.00000000000E+00  0.00000000000E+00 -0.10820431745E+03  0.16532604115E+03  0.12499810226E+03 0.  0.
    9000005    1    3    3    0    0  0.52436234390E+02  0.30463372940E+02 -0.74053938110E+02  0.95721269933E+02  0.10000000000E+01 0.  0.
    9000005    1    3    3    0    0 -0.52436234390E+02 -0.30463372940E+02 -0.34150379338E+02  0.69604771222E+02  0.10000000000E+01 0.  0.
<mgrwt>
<rscale>  0 0.12499810E+03</rscale>
<asrwt>0</asrwt>
<pdfrwt beam="1">  1        4 0.43939788E-02 0.12499810E+03</pdfrwt>
<pdfrwt beam="2">  1       -4 0.21040796E-01 0.12499810E+03</pdfrwt>
<totfact> 0.96329788E+03</totfact>
</mgrwt>
</event>
<event>
 5    1  0.3282421E-002  0.1250040E+03  0.7818608E-02  0.1235063E+00
          4   -1    0    0  501    0  0.00000000000E+00  0.00000000000E+00  0.11210739808E+02  0.11282445969E+02  0.12700000000E+01 0.  1.
         -4   -1    0    0    0  501 -0.00000000000E+00 -0.00000000000E+00 -0.34727697258E+03  0.34727929478E+03  0.12700000000E+01 0.  1.
         25    2    1    2    0    0  0.00000000000E+00  0.00000000000E+00 -0.33606623277E+03  0.35856174075E+03  0.12500403642E+03 0.  0.
    9000005    1    3    3    0    0  0.24743564952E+02  0.20192465375E+02 -0.32211520335E+03  0.32369612895E+03  0.10000000000E+01 0.  0.
    9000005    1    3    3    0    0 -0.24743564952E+02 -0.20192465375E+02 -0.13951029415E+02  0.34865611800E+02  0.10000000000E+01 0.  0.
<mgrwt>
<rscale>  0 0.12500404E+03</rscale>
<asrwt>0</asrwt>
<pdfrwt beam="1">  1        4 0.17304240E-02 0.12500404E+03</pdfrwt>
<pdfrwt beam="2">  1       -4 0.53432913E-01 0.12500404E+03</pdfrwt>
<totfact> 0.68786679E+03</totfact>
</mgrwt>
</event>
<event>
 5    1  0.3282421E-002  0.1250221E+03  0.7818608E-02  0.1235035E+00
         -4   -1    0    0    0  501 -0.00000000000E+00  0.00000000000E+00  0.13812784844E+03  0.13813368675E+03  0.12700000000E+01 0.  1.
          4   -1    0    0  501    0  0.00000000000E+00 -0.00000000000E+00 -0.28269279853E+02  0.28297792907E+02  0.12700000000E+01 0.  1.
         25    2    1    2    0    0  0.00000000000E+00  0.00000000000E+00  0.10985856859E+03  0.16643147966E+03  0.12502212735E+03 0.  0.
    9000005    1    3    3    0    0  0.61431564318E+02 -0.63672323572E+01  0.67715498969E+02  0.91655701095E+02  0.10000000000E+01 0.  0.
    9000005    1    3    3    0    0 -0.61431564318E+02  0.63672323572E+01  0.42143069619E+02  0.74775778561E+02  0.10000000000E+01 0.  0.
<mgrwt>
<rscale>  0 0.12502213E+03</rscale>
<asrwt>0</asrwt>
<pdfrwt beam="2">  1        4 0.43517623E-02 0.12502213E+03</pdfrwt>
<pdfrwt beam="1">  1       -4 0.21253081E-01 0.12502213E+03</pdfrwt>
<totfact> 0.96069222E+03</totfact>
</mgrwt>
</event>
<event>
 5    1  0.3282421E-002  0.1250003E+03  0.7818608E-02  0.1235069E+00
          4   -1    0    0  501    0  0.00000000000E+00  0.00000000000E+00  0.68009072544E+01  0.69184708919E+01  0.12700000000E+01 0.  1.
         -4   -1    0    0    0  501 -0.00000000000E+00 -0.00000000000E+00 -0.56933482864E+03  0.56933624512E+03  0.12700000000E+01 0.  1.
         25    2    1    2    0    0  0.00000000000E+00  0.00000000000E+00 -0.56253392139E+03  0.57625471601E+03  0.12500034005E+03 0.  0.
    9000005    1    3    3    0    0  0.58129277056E+02  0.20609029813E+02 -0.32771769254E+03  0.33347208424E+03  0.10000000000E+01 0.  0.
    9000005    1    3    3    0    0 -0.58129277056E+02 -0.20609029813E+02 -0.23481622884E+03  0.24278263177E+03  0.10000000000E+01 0.  0.
<mgrwt>
<rscale>  0 0.12500034E+03</rscale>
<asrwt>0</asrwt>
<pdfrwt beam="1">  1        4 0.10554462E-02 0.12500034E+03</pdfrwt>
<pdfrwt beam="2">  1       -4 0.87599089E-01 0.12500034E+03</pdfrwt>
<totfact> 0.50401265E+03</totfact>
</mgrwt>
</event>
<event>
 5    1  0.3282421E-002  0.1249960E+03  0.7818608E-02  0.1235076E+00
          4   -1    0    0  501    0  0.00000000000E+00  0.00000000000E+00  0.52247192645E+02  0.52262625645E+02  0.12700000000E+01 0.  1.
         -4   -1    0    0    0  501 -0.00000000000E+00 -0.00000000000E+00 -0.74728109084E+02  0.74738900095E+02  0.12700000000E+01 0.  1.
         25    2    1    2    0    0  0.00000000000E+00  0.00000000000E+00 -0.22480916439E+02  0.12700152574E+03  0.12499598368E+03 0.  0.
    9000005    1    3    3    0    0 -0.48637619646E+02 -0.61991384289E+01  0.28123270213E+02  0.56532872646E+02  0.10000000000E+01 0.  0.
    9000005    1    3    3    0    0  0.48637619646E+02  0.61991384289E+01 -0.50604186652E+02  0.70468653094E+02  0.10000000000E+01 0.  0.
<mgrwt>
<rscale>  0 0.12499598E+03</rscale>
<asrwt>0</asrwt>
<pdfrwt beam="1">  1        4 0.80400469E-02 0.12499598E+03</pdfrwt>
<pdfrwt beam="2">  1       -4 0.11498649E-01 0.12499598E+03</pdfrwt>
<totfact> 0.10410056E+04</totfact>
</mgrwt>
</event>
<event>
 5    1  0.3282421E-002  0.1249940E+03  0.7818608E-02  0.1235079E+00
         -4   -1    0    0    0  501 -0.00000000000E+00  0.00000000000E+00  0.37672017273E+02  0.37693418330E+02  0.12700000000E+01 0. -1.
          4   -1    0    0  501    0  0.00000000000E+00 -0.00000000000E+00 -0.10362633566E+03  0.10363411765E+03  0.12700000000E+01 0. -1.
         25    2    1    2    0    0  0.00000000000E+00  0.00000000000E+00 -0.65954318382E+02  0.14132753598E+03  0.12499400111E+03 0.  0.
    9000005    1    3    3    0    0 -0.45691183187E+02  0.30162191957E+02 -0.67037180039E+02  0.86558798237E+02  0.10000000000E+01 0.  0.
    9000005    1    3    3    0    0  0.45691183187E+02 -0.30162191957E+02  0.10828616564E+01  0.54768737744E+02  0.10000000000E+01 0.  0.
<mgrwt>
<rscale>  0 0.12499400E+03</rscale>
<asrwt>0</asrwt>
<pdfrwt beam="2">  1        4 0.15944758E-01 0.12499400E+03</pdfrwt>
<pdfrwt beam="1">  1       -4 0.57979399E-02 0.12499400E+03</pdfrwt>
<totfact> 0.10107512E+04</totfact>
</mgrwt>
</event>
<event>
 5    1  0.3282421E-002  0.1249980E+03  0.7818608E-02  0.1235072E+00
         -4   -1    0    0    0  501 -0.00000000000E+00  0.00000000000E+00  0.34628651559E+02  0.34651932252E+02  0.12700000000E+01 0.  1.
          4   -1    0    0  501    0  0.00000000000E+00 -0.00000000000E+00 -0.11273569525E+03  0.11274284848E+03  0.12700000000E+01 0.  1.
         25    2    1    2    0    0  0.00000000000E+00  0.00000000000E+00 -0.78107043687E+02  0.14739478073E+03  0.12499804443E+03 0.  0.
    9000005    1    3    3    0    0 -0.82696084057E+01 -0.32478232114E+02  0.23140708278E+02  0.40739592095E+02  0.10000000000E+01 0.  0.
    9000005    1    3    3    0    0  0.82696084057E+01  0.32478232114E+02 -0.10124775197E+03  0.10665518863E+03  0.10000000000E+01 0.  0.
<mgrwt>
<rscale>  0 0.12499804E+03</rscale>
<asrwt>0</asrwt>
<pdfrwt beam="2">  1        4 0.17346294E-01 0.12499804E+03</pdfrwt>
<pdfrwt beam="1">  1       -4 0.53298260E-02 0.12499804E+03</pdfrwt>
<totfact> 0.99829962E+03</totfact>
</mgrwt>
</event>
<event>
 5    1  0.3282421E-002  0.1249999E+03  0.7818608E-02  0.1235069E+00
          4   -1    0    0  501    0  0.00000000000E+00  0.00000000000E+00  0.98911605703E+02  0.98919758606E+02  0.12700000000E+01 0. -1.
         -4   -1    0    0    0  501 -0.00000000000E+00 -0.00000000000E+00 -0.39472296304E+02  0.39492721805E+02  0.12700000000E+01 0. -1.
         25    2    1    2    0    0  0.00000000000E+00  0.00000000000E+00  0.59439309398E+02  0.13841248041E+03  0.12499993293E+03 0.  0.
    9000005    1    3    3    0    0  0.52230451747E+02 -0.22867308923E+02  0.13954397699E+01  0.57042801116E+02  0.10000000000E+01 0.  0.
    9000005    1    3    3    0    0 -0.52230451747E+02  0.22867308923E+02  0.58043869629E+02  0.81369679295E+02  0.10000000000E+01 0.  0.
<mgrwt>
<rscale>  0 0.12499993E+03</rscale>
<asrwt>0</asrwt>
<pdfrwt beam="1">  1        4 0.15219368E-01 0.12499993E+03</pdfrwt>
<pdfrwt beam="2">  1       -4 0.60748594E-02 0.12499993E+03</pdfrwt>
<totfact> 0.10166610E+04</totfact>
</mgrwt>
</event>
<event>
 5    1  0.3282421E-002  0.1249986E+03  0.7818608E-02  0.1235071E+00
         -4   -1    0    0    0  501 -0.00000000000E+00  0.00000000000E+00  0.13064310907E+03  0.13064928185E+03  0.12700000000E+01 0.  1.
          4   -1    0    0  501    0  0.00000000000E+00 -0.00000000000E+00 -0.29879124041E+02  0.29906102278E+02  0.12700000000E+01 0.  1.
         25    2    1    2    0    0  0.00000000000E+00  0.00000000000E+00  0.10076398503E+03  0.16055538413E+03  0.12499860277E+03 0.  0.
    9000005    1    3    3    0    0  0.13265759681E+01 -0.34628795153E+02  0.11717685926E+03  0.12219791161E+03  0.10000000000E+01 0.  0.
    9000005    1    3    3    0    0 -0.13265759681E+01  0.34628795153E+02 -0.16412874224E+02  0.38357472516E+02  0.10000000000E+01 0.  0.
<mgrwt>
<rscale>  0 0.12499860E+03</rscale>
<asrwt>0</asrwt>
<pdfrwt beam="2">  1        4 0.45993383E-02 0.12499860E+03</pdfrwt>
<pdfrwt beam="1">  1       -4 0.20101490E-01 0.12499860E+03</pdfrwt>
<totfact> 0.97238871E+03</totfact>
</mgrwt>
</event>
<event>
 5    1  0.3282421E-002  0.1250006E+03  0.7818608E-02  0.1235068E+00
         -4   -1    0    0    0  501 -0.00000000000E+00  0.00000000000E+00  0.33352530130E+03  0.33352771925E+03  0.12700000000E+01 0.  1.
          4   -1    0    0  501    0  0.00000000000E+00 -0.00000000000E+00 -0.11675229950E+02  0.11744100407E+02  0.12700000000E+01 0.  1.
         25    2    1    2    0    0  0.00000000000E+00  0.00000000000E+00  0.32185007135E+03  0.34527181965E+03  0.12500064408E+03 0.  0.
    9000005    1    3    3    0    0  0.20696462649E+02  0.49801794309E+01  0.32321563573E+03  0.32391741684E+03  0.10000000000E+01 0.  0.
    9000005    1    3    3    0    0 -0.20696462649E+02 -0.49801794309E+01 -0.13655643821E+01  0.21354402812E+02  0.10000000000E+01 0.  0.
<mgrwt>
<rscale>  0 0.12500064E+03</rscale>
<asrwt>0</asrwt>
<pdfrwt beam="2">  1        4 0.18016730E-02 0.12500064E+03</pdfrwt>
<pdfrwt beam="1">  1       -4 0.51317068E-01 0.12500064E+03</pdfrwt>
<totfact> 0.70246862E+03</totfact>
</mgrwt>
</event>
<event>
 5    1  0.3282421E-002  0.1250030E+03  0.7818608E-02  0.1235065E+00
          4   -1    0    0  501    0  0.00000000000E+00  0.00000000000E+00  0.99770359765E+01  0.10057541791E+02  0.12700000000E+01 0. -1.
         -4   -1    0    0    0  501 -0.00000000000E+00 -0.00000000000E+00 -0.38988813633E+03  0.38989020474E+03  0.12700000000E+01 0. -1.
         25    2    1    2    0    0  0.00000000000E+00  0.00000000000E+00 -0.37991110036E+03  0.39994774653E+03  0.12500302309E+03 0.  0.
    9000005    1    3    3    0    0  0.53428104944E+02 -0.28442311409E+02 -0.14019204447E+03  0.15270342763E+03  0.10000000000E+01 0.  0.
    9000005    1    3    3    0    0 -0.53428104944E+02  0.28442311409E+02 -0.23971905588E+03  0.24724431890E+03  0.10000000000E+01 0.  0.
<mgrwt>
<rscale>  0 0.12500302E+03</rscale>
<asrwt>0</asrwt>
<pdfrwt beam="1">  1        4 0.15412808E-02 0.12500302E+03</pdfrwt>
<pdfrwt beam="2">  1       -4 0.59989130E-01 0.12500302E+03</pdfrwt>
<totfact> 0.64553569E+03</totfact>
</mgrwt>
</event>
<event>
 5    1  0.3282421E-002  0.1249997E+03  0.7818608E-02  0.1235070E+00
          4   -1    0    0  501    0  0.00000000000E+00  0.00000000000E+00  0.21412844245E+02  0.21450473157E+02  0.12700000000E+01 0.  1.
         -4   -1    0    0    0  501 -0.00000000000E+00 -0.00000000000E+00 -0.18222469140E+03  0.18222911693E+03  0.12700000000E+01 0.  1.
         25    2    1    2    0    0  0.00000000000E+00  0.00000000000E+00 -0.16081184716E+03  0.20367959009E+03  0.12499970093E+03 0.  0.
    9000005    1    3    3    0    0 -0.36280303060E+02  0.41326921681E+02 -0.12877195000E+03  0.14002639020E+03  0.10000000000E+01 0.  0.
    9000005    1    3    3    0    0  0.36280303060E+02 -0.41326921681E+02 -0.32039897158E+02  0.63653199886E+02  0.10000000000E+01 0.  0.
<mgrwt>
<rscale>  0 0.12499970E+03</rscale>
<asrwt>0</asrwt>
<pdfrwt beam="1">  1        4 0.32975188E-02 0.12499970E+03</pdfrwt>
<pdfrwt beam="2">  1       -4 0.28037802E-01 0.12499970E+03</pdfrwt>
<totfact> 0.89519202E+03</totfact>
</mgrwt>
</event>
<event>
 5    1  0.3282421E-002  0.1249966E+03  0.7818608E-02  0.1235075E+00
          4   -1    0    0  501    0  0.00000000000E+00  0.00000000000E+00  0.29349695718E+03  0.29349970490E+03  0.12700000000E+01 0.  1.
         -4   -1    0    0    0  501 -0.00000000000E+00 -0.00000000000E+00 -0.13275502007E+02  0.13336110885E+02  0.12700000000E+01 0.  1.
         25    2    1    2    0    0  0.00000000000E+00  0.00000000000E+00  0.28022145517E+03  0.30683581578E+03  0.12499661558E+03 0.  0.
    9000005    1    3    3    0    0  0.58833935478E+02 -0.21052526286E+02  0.13856277293E+03  0.15200421991E+03  0.10000000000E+01 0.  0.
    9000005    1    3    3    0    0 -0.58833935478E+02  0.21052526286E+02  0.14165868224E+03  0.15483159588E+03  0.10000000000E+01 0.  0.
<mgrwt>
<rscale>  0 0.12499662E+03</rscale>
<asrwt>0</asrwt>
<pdfrwt beam="1">  1        4 0.45158250E-01 0.12499662E+03</pdfrwt>
<pdfrwt beam="2">  1       -4 0.20472586E-02 0.12499662E+03</pdfrwt>
<totfact> 0.74754903E+03</totfact>
</mgrwt>
</event>
<event>
 5    1  0.3282421E-002  0.1250105E+03  0.7818608E-02  0.1235053E+00
         -4   -1    0    0    0  501 -0.00000000000E+00  0.00000000000E+00  0.52085478144E+03  0.52085632976E+03  0.12700000000E+01 0. -1.
          4   -1    0    0  501    0  0.00000000000E+00 -0.00000000000E+00 -0.74456233928E+01  0.75531587901E+01  0.12700000000E+01 0. -1.
         25    2    1    2    0    0  0.00000000000E+00  0.00000000000E+00  0.51340915805E+03  0.52840948855E+03  0.12501049564E+03 0.  0.
    9000005    1    3    3    0    0 -0.56519665318E+02 -0.25021559453E+02  0.21765299865E+03  0.22626174848E+03  0.10000000000E+01 0.  0.
    9000005    1    3    3    0    0  0.56519665318E+02  0.25021559453E+02  0.29575615940E+03  0.30214774007E+03  0.10000000000E+01 0.  0.
<mgrwt>
<rscale>  0 0.12501050E+03</rscale>
<asrwt>0</asrwt>
<pdfrwt beam="2">  1        4 0.11538717E-02 0.12501050E+03</pdfrwt>
<pdfrwt beam="1">  1       -4 0.80139884E-01 0.12501050E+03</pdfrwt>
<totfact> 0.53713220E+03</totfact>
</mgrwt>
</event>
<event>
 5    1  0.3282421E-002  0.1250013E+03  0.7818608E-02  0.1235067E+00
         -4   -1    0    0    0  501 -0.00000000000E+00  0.00000000000E+00  0.65413943992E+01  0.66635381507E+01  0.12700000000E+01 0. -1.
          4   -1    0    0  501    0  0.00000000000E+00 -0.00000000000E+00 -0.59152485993E+03  0.59152622327E+03  0.12700000000E+01 0. -1.
         25    2    1    2    0    0  0.00000000000E+00  0.00000000000E+00 -0.58498346553E+03  0.59818976142E+03  0.12500134289E+03 0.  0.
    9000005    1    3    3    0    0  0.22009465803E+02  0.58014122643E+02 -0.32807157935E+03  0.33388922742E+03  0.10000000000E+01 0.  0.
    9000005    1    3    3    0    0 -0.22009465803E+02 -0.58014122643E+02 -0.25691188618E+03  0.26430053400E+03  0.10000000000E+01 0.  0.
<mgrwt>
<rscale>  0 0.12500134E+03</rscale>
<asrwt>0</asrwt>
<pdfrwt beam="2">  1        4 0.91013283E-01 0.12500134E+03</pdfrwt>
<pdfrwt beam="1">  1       -4 0.10158694E-02 0.12500134E+03</pdfrwt>
<totfact> 0.48980652E+03</totfact>
</mgrwt>
</event>
<event>
 5    1  0.3282421E-002  0.1249992E+03  0.7818608E-02  0.1235071E+00
         -4   -1    0    0    0  501 -0.00000000000E+00  0.00000000000E+00  0.21311743166E+02  0.21349550271E+02  0.12700000000E+01 0. -1.
          4   -1    0    0  501    0  0.00000000000E+00 -0.00000000000E+00 -0.18308617686E+03  0.18309058157E+03  0.12700000000E+01 0. -1.
         25    2    1    2    0    0  0.00000000000E+00  0.00000000000E+00 -0.16177443370E+03  0.20444013184E+03  0.12499920043E+03 0.  0.
    9000005    1    3    3    0    0  0.45242764669E+01  0.16830366702E+01  0.21014381503E+02  0.21584853948E+02  0.10000000000E+01 0.  0.
    9000005    1    3    3    0    0 -0.45242764669E+01 -0.16830366702E+01 -0.18278881520E+03  0.18285527789E+03  0.10000000000E+01 0.  0.
<mgrwt>
<rscale>  0 0.12499920E+03</rscale>
<asrwt>0</asrwt>
<pdfrwt beam="2">  1        4 0.28170350E-01 0.12499920E+03</pdfrwt>
<pdfrwt beam="1">  1       -4 0.32819769E-02 0.12499920E+03</pdfrwt>
<totfact> 0.89393606E+03</totfact>
</mgrwt>
</event>
<event>
 5    1  0.3282421E-002  0.1250018E+03  0.7818608E-02  0.1235066E+00
         -4   -1    0    0    0  501 -0.00000000000E+00  0.00000000000E+00  0.10007974407E+02  0.10088233331E+02  0.12700000000E+01 0.  1.
          4   -1    0    0  501    0  0.00000000000E+00 -0.00000000000E+00 -0.38868509743E+03  0.38868717224E+03  0.12700000000E+01 0.  1.
         25    2    1    2    0    0  0.00000000000E+00  0.00000000000E+00 -0.37867712302E+03  0.39877540557E+03  0.12500184233E+03 0.  0.
    9000005    1    3    3    0    0  0.35028520362E+02 -0.32488599021E+02 -0.31785311880E+03  0.32142512571E+03  0.10000000000E+01 0.  0.
    9000005    1    3    3    0    0 -0.35028520362E+02  0.32488599021E+02 -0.60824004219E+02  0.77350279859E+02  0.10000000000E+01 0.  0.
<mgrwt>
<rscale>  0 0.12500184E+03</rscale>
<asrwt>0</asrwt>
<pdfrwt beam="2">  1        4 0.59804029E-01 0.12500184E+03</pdfrwt>
<pdfrwt beam="1">  1       -4 0.15460220E-02 0.12500184E+03</pdfrwt>
<totfact> 0.64669441E+03</totfact>
</mgrwt>
</event>
<event>
 5    1  0.3282421E-002  0.1249941E+03  0.7818608E-02  0.1235078E+00
         -4   -1    0    0    0  501 -0.00000000000E+00  0.00000000000E+00  0.10048968087E+03  0.10049770576E+03  0.12700000000E+01 0.  1.
          4   -1    0    0  501    0  0.00000000000E+00 -0.00000000000E+00 -0.38848528565E+02  0.38869281852E+02  0.12700000000E+01 0.  1.
         25    2    1    2    0    0  0.00000000000E+00  0.00000000000E+00  0.61641152309E+02  0.13936698761E+03  0.12499410217E+03 0.  0.
    9000005    1    3    3    0    0  0.57863876205E+02  0.18604020565E+02  0.14641956740E+02  0.62527791003E+02  0.10000000000E+01 0.  0.
    9000005    1    3    3    0    0 -0.57863876205E+02 -0.18604020565E+02  0.46999195569E+02  0.76839196604E+02  0.10000000000E+01 0.  0.
<mgrwt>
<rscale>  0 0.12499410E+03</rscale>
<asrwt>0</asrwt>
<pdfrwt beam="2">  1        4 0.59789105E-02 0.12499410E+03</pdfrwt>
<pdfrwt beam="1">  1       -4 0.15462164E-01 0.12499410E+03</pdfrwt>
<totfact> 0.10148071E+04</totfact>
</mgrwt>
</event>
<event>
 5    1  0.3282421E-002  0.1250016E+03  0.7818608E-02  0.1235067E+00
          4   -1    0    0  501    0  0.00000000000E+00  0.00000000000E+00  0.19374103567E+02  0.19415684099E+02  0.12700000000E+01 0. -1.
         -4   -1    0    0    0  501 -0.00000000000E+00 -0.00000000000E+00 -0.20136758235E+03  0.20137158718E+03  0.12700000000E+01 0. -1.
         25    2    1    2    0    0  0.00000000000E+00  0.00000000000E+00 -0.18199347879E+03  0.22078727128E+03  0.12500157134E+03 0.  0.
    9000005    1    3    3    0    0  0.61513542530E+02  0.21328356237E+01 -0.71901073610E+02  0.94653205380E+02  0.10000000000E+01 0.  0.
    9000005    1    3    3    0    0 -0.61513542530E+02 -0.21328356237E+01 -0.11009240518E+03  0.12613406590E+03  0.10000000000E+01 0.  0.
<mgrwt>
<rscale>  0 0.12500157E+03</rscale>
<asrwt>0</asrwt>
<pdfrwt beam="1">  1        4 0.29841380E-02 0.12500157E+03</pdfrwt>
<pdfrwt beam="2">  1       -4 0.30983133E-01 0.12500157E+03</pdfrwt>
<totfact> 0.86740884E+03</totfact>
</mgrwt>
</event>
<event>
 5    1  0.3282421E-002  0.1250027E+03  0.7818608E-02  0.1235065E+00
          4   -1    0    0  501    0  0.00000000000E+00  0.00000000000E+00  0.10409201067E+02  0.10486389600E+02  0.12700000000E+01 0. -1.
         -4   -1    0    0    0  501 -0.00000000000E+00 -0.00000000000E+00 -0.37382043670E+03  0.37382259402E+03  0.12700000000E+01 0. -1.
         25    2    1    2    0    0  0.00000000000E+00  0.00000000000E+00 -0.36341123564E+03  0.38430898362E+03  0.12500267478E+03 0.  0.
    9000005    1    3    3    0    0  0.27244139588E+02 -0.53439116536E+02 -0.23561170186E+03  0.24312929970E+03  0.10000000000E+01 0.  0.
    9000005    1    3    3    0    0 -0.27244139588E+02  0.53439116536E+02 -0.12779953378E+03  0.14117968392E+03  0.10000000000E+01 0.  0.
<mgrwt>
<rscale>  0 0.12500267E+03</rscale>
<asrwt>0</asrwt>
<pdfrwt beam="1">  1        4 0.16075194E-02 0.12500267E+03</pdfrwt>
<pdfrwt beam="2">  1       -4 0.57516930E-01 0.12500267E+03</pdfrwt>
<totfact> 0.66104133E+03</totfact>
</mgrwt>
</event>
<event>
 5    1  0.3282421E-002  0.1249986E+03  0.7818608E-02  0.1235072E+00
         -4   -1    0    0    0  501 -0.00000000000E+00  0.00000000000E+00  0.17088585144E+03  0.17089057061E+03  0.12700000000E+01 0. -1.
          4   -1    0    0  501    0  0.00000000000E+00 -0.00000000000E+00 -0.22835617698E+02  0.22870905877E+02  0.12700000000E+01 0. -1.
         25    2    1    2    0    0  0.00000000000E+00  0.00000000000E+00  0.14805023375E+03  0.19376147649E+03  0.12499855222E+03 0.  0.
    9000005    1    3    3    0    0 -0.67207752308E+01  0.60911667148E+02  0.55055452668E+02  0.82386302763E+02  0.10000000000E+01 0.  0.
    9000005    1    3    3    0    0  0.67207752308E+01 -0.60911667148E+02  0.92994781078E+02  0.11137517372E+03  0.10000000000E+01 0.  0.
<mgrwt>
<rscale>  0 0.12499855E+03</rscale>
<asrwt>0</asrwt>
<pdfrwt beam="2">  1        4 0.35162496E-02 0.12499855E+03</pdfrwt>
<pdfrwt beam="1">  1       -4 0.26293207E-01 0.12499855E+03</pdfrwt>
<totfact> 0.91199875E+03</totfact>
</mgrwt>
</event>
