<event>
 5    1  0.3206665E-002  0.1249915E+03  0.7818608E-02  0.1235083E+00
         -4   -1    0    0    0  501 -0.00000000000E+00  0.00000000000E+00  0.21651879582E+02  0.21689093790E+02  0.12700000000E+01 0. -1.
          4   -1    0    0  501    0  0.00000000000E+00 -0.00000000000E+00 -0.18019282057E+03  0.18019729600E+03  0.12700000000E+01 0. -1.
         25    2    1    2    0    0  0.00000000000E+00  0.00000000000E+00 -0.15854094099E+03  0.20188638979E+03  0.12499153736E+03 0.  0.
    9000005    1    3    3    0    0 -0.59404487054E+01  0.60277403395E+02 -0.10408716302E+03  0.12043168934E+03  0.10000000000E+01 0.  0.
    9000005    1    3    3    0    0  0.59404487054E+01 -0.60277403395E+02 -0.54453777972E+02  0.81454700455E+02  0.10000000000E+01 0.  0.
<mgrwt>
<rscale>  0 0.12499154E+03</rscale>
<asrwt>0</asrwt>
<pdfrwt beam="2">  1        4 0.27725178E-01 0.12499154E+03</pdfrwt>
<pdfrwt beam="1">  1       -4 0.33342654E-02 0.12499154E+03</pdfrwt>
<totfact> 0.89835333E+03</totfact>
</mgrwt>
</event>
<event>
 4    1  0.3206665E-002  0.1470892E+03  0.7818608E-02  0.1204096E+00
          4   -1    0    0  501    0  0.00000000000E+00  0.00000000000E+00  0.10531559783E+03  0.10532325501E+03  0.12700000000E+01 0. -1.
         -4   -1    0    0    0  501 -0.00000000000E+00 -0.00000000000E+00 -0.51340709205E+02  0.51356414611E+02  0.12700000000E+01 0. -1.
    9000005    1    1    2    0    0 -0.85760549956E+01 -0.45876940482E+02  0.87522077235E+02  0.99193529984E+02  0.10000000000E+01 0.  0.
    9000005    1    1    2    0    0  0.85760549956E+01  0.45876940482E+02 -0.33547188609E+02  0.57486139641E+02  0.10000000000E+01 0.  0.
<mgrwt>
<rscale>  0 0.14708919E+03</rscale>
<asrwt>0</asrwt>
<pdfrwt beam="1">  1        4 0.16204197E-01 0.14708919E+03</pdfrwt>
<pdfrwt beam="2">  1       -4 0.79003678E-02 0.14708919E+03</pdfrwt>
<totfact> 0.61674163E+03</totfact>
</mgrwt>
</event>
<event>
 4    1  0.3206665E-002  0.1249380E+03  0.7818608E-02  0.1235166E+00
         -4   -1    0    0    0  501 -0.00000000000E+00  0.00000000000E+00  0.11721576122E+03  0.11722264106E+03  0.12700000000E+01 0.  1.
          4   -1    0    0  501    0  0.00000000000E+00 -0.00000000000E+00 -0.33272279642E+02  0.33296508715E+02  0.12700000000E+01 0.  1.
    9000005    1    1    2    0    0 -0.17210718923E+02  0.38414530827E+02 -0.13623182335E+02  0.44254673442E+02  0.10000000000E+01 0.  0.
    9000005    1    1    2    0    0  0.17210718923E+02 -0.38414530827E+02  0.97566663908E+02  0.10626447633E+03  0.10000000000E+01 0.  0.
<mgrwt>
<rscale>  0 0.12493801E+03</rscale>
<asrwt>0</asrwt>
<pdfrwt beam="2">  1        4 0.51212052E-02 0.12493801E+03</pdfrwt>
<pdfrwt beam="1">  1       -4 0.18035587E-01 0.12493801E+03</pdfrwt>
<totfact> 0.99338829E+03</totfact>
</mgrwt>
</event>
<event>
 5    1  0.3206665E-002  0.1249974E+03  0.7818608E-02  0.1235073E+00
          4   -1    0    0  501    0  0.00000000000E+00  0.00000000000E+00  0.56172598034E+03  0.56172741600E+03  0.12700000000E+01 0.  1.
         -4   -1    0    0    0  501 -0.00000000000E+00 -0.00000000000E+00 -0.68942836625E+01  0.70102815364E+01  0.12700000000E+01 0.  1.
         25    2    1    2    0    0  0.00000000000E+00  0.00000000000E+00  0.55483169668E+03  0.56873769754E+03  0.12499742783E+03 0.  0.
    9000005    1    3    3    0    0  0.48965009737E+02  0.35983646292E+02  0.34377316656E+03  0.34910368807E+03  0.10000000000E+01 0.  0.
    9000005    1    3    3    0    0 -0.48965009737E+02 -0.35983646292E+02  0.21105853012E+03  0.21963400947E+03  0.10000000000E+01 0.  0.
<mgrwt>
<rscale>  0 0.12499743E+03</rscale>
<asrwt>0</asrwt>
<pdfrwt beam="1">  1        4 0.86428432E-01 0.12499743E+03</pdfrwt>
<pdfrwt beam="2">  1       -4 0.10696922E-02 0.12499743E+03</pdfrwt>
<totfact> 0.50905236E+03</totfact>
</mgrwt>
</event>
<event>
 5    1  0.3206665E-002  0.1249961E+03  0.7818608E-02  0.1235075E+00
         -4   -1    0    0    0  501 -0.00000000000E+00  0.00000000000E+00  0.75409303012E+03  0.75409409954E+03  0.12700000000E+01 0.  1.
          4   -1    0    0  501    0  0.00000000000E+00 -0.00000000000E+00 -0.51008068685E+01  0.52565321943E+01  0.12700000000E+01 0.  1.
         25    2    1    2    0    0  0.00000000000E+00  0.00000000000E+00  0.74899222325E+03  0.75935063174E+03  0.12499612569E+03 0.  0.
    9000005    1    3    3    0    0 -0.31807795352E+02 -0.30226214043E+02  0.64479222076E+03  0.64628427787E+03  0.10000000000E+01 0.  0.
    9000005    1    3    3    0    0  0.31807795352E+02  0.30226214043E+02  0.10420000248E+03  0.11306635387E+03  0.10000000000E+01 0.  0.
<mgrwt>
<rscale>  0 0.12499613E+03</rscale>
<asrwt>0</asrwt>
<pdfrwt beam="2">  1        4 0.79680147E-03 0.12499613E+03</pdfrwt>
<pdfrwt beam="1">  1       -4 0.11602626E+00 0.12499613E+03</pdfrwt>
<totfact> 0.40134276E+03</totfact>
</mgrwt>
</event>
<event>
 5    1  0.3206665E-002  0.1250051E+03  0.7818608E-02  0.1235061E+00
          4   -1    0    0  501    0  0.00000000000E+00  0.00000000000E+00  0.18832391186E+03  0.18832819406E+03  0.12700000000E+01 0. -1.
         -4   -1    0    0    0  501 -0.00000000000E+00 -0.00000000000E+00 -0.20719930234E+02  0.20758815210E+02  0.12700000000E+01 0. -1.
         25    2    1    2    0    0  0.00000000000E+00  0.00000000000E+00  0.16760398162E+03  0.20908700927E+03  0.12500513105E+03 0.  0.
    9000005    1    3    3    0    0 -0.15679372346E+02  0.42781237575E+02  0.15534458254E+03  0.16189198971E+03  0.10000000000E+01 0.  0.
    9000005    1    3    3    0    0  0.15679372346E+02 -0.42781237575E+02  0.12259399080E+02  0.47195019562E+02  0.10000000000E+01 0.  0.
<mgrwt>
<rscale>  0 0.12500513E+03</rscale>
<asrwt>0</asrwt>
<pdfrwt beam="1">  1        4 0.28976229E-01 0.12500513E+03</pdfrwt>
<pdfrwt beam="2">  1       -4 0.31910023E-02 0.12500513E+03</pdfrwt>
<totfact> 0.88615036E+03</totfact>
</mgrwt>
</event>
<event>
 5    1  0.3206665E-002  0.1250054E+03  0.7818608E-02  0.1235061E+00
          4   -1    0    0  501    0  0.00000000000E+00  0.00000000000E+00  0.73675940012E+03  0.73676049470E+03  0.12700000000E+01 0.  1.
         -4   -1    0    0    0  501 -0.00000000000E+00 -0.00000000000E+00 -0.52252346612E+01  0.53773578331E+01  0.12700000000E+01 0.  1.
         25    2    1    2    0    0  0.00000000000E+00  0.00000000000E+00  0.73153416545E+03  0.74213785254E+03  0.12500542766E+03 0.  0.
    9000005    1    3    3    0    0  0.16800316764E+02 -0.25000854196E+02  0.69084910829E+03  0.69150617046E+03  0.10000000000E+01 0.  0.
    9000005    1    3    3    0    0 -0.16800316764E+02  0.25000854196E+02  0.40685057160E+02  0.50631682078E+02  0.10000000000E+01 0.  0.
<mgrwt>
<rscale>  0 0.12500543E+03</rscale>
<asrwt>0</asrwt>
<pdfrwt beam="1">  1        4 0.11335938E+00 0.12500543E+03</pdfrwt>
<pdfrwt beam="2">  1       -4 0.81566829E-03 0.12500543E+03</pdfrwt>
<totfact> 0.40948177E+03</totfact>
</mgrwt>
</event>
<event>
 5    1  0.3206665E-002  0.1249979E+03  0.7818608E-02  0.1235073E+00
         -4   -1    0    0    0  501 -0.00000000000E+00  0.00000000000E+00  0.71780623515E+02  0.71791857562E+02  0.12700000000E+01 0.  1.
          4   -1    0    0  501    0  0.00000000000E+00 -0.00000000000E+00 -0.54394528450E+02  0.54409352370E+02  0.12700000000E+01 0.  1.
         25    2    1    2    0    0  0.00000000000E+00  0.00000000000E+00  0.17386095065E+02  0.12620120993E+03  0.12499787633E+03 0.  0.
    9000005    1    3    3    0    0  0.46562736814E+01  0.60196540546E+02  0.24966932198E+02  0.65342574802E+02  0.10000000000E+01 0.  0.
    9000005    1    3    3    0    0 -0.46562736814E+01 -0.60196540546E+02 -0.75808371328E+01  0.60858635130E+02  0.10000000000E+01 0.  0.
<mgrwt>
<rscale>  0 0.12499788E+03</rscale>
<asrwt>0</asrwt>
<pdfrwt beam="2">  1        4 0.83703935E-02 0.12499788E+03</pdfrwt>
<pdfrwt beam="1">  1       -4 0.11045177E-01 0.12499788E+03</pdfrwt>
<totfact> 0.10427052E+04</totfact>
</mgrwt>
</event>
<event>
 5    1  0.3206665E-002  0.1250023E+03  0.7818608E-02  0.1235066E+00
         -4   -1    0    0    0  501 -0.00000000000E+00  0.00000000000E+00  0.17105079673E+02  0.17152161689E+02  0.12700000000E+01 0. -1.
          4   -1    0    0  501    0  0.00000000000E+00 -0.00000000000E+00 -0.22801359426E+03  0.22801713109E+03  0.12700000000E+01 0. -1.
         25    2    1    2    0    0  0.00000000000E+00  0.00000000000E+00 -0.21090851459E+03  0.24516929278E+03  0.12500232235E+03 0.  0.
    9000005    1    3    3    0    0 -0.53252424528E+02  0.92533148940E+01 -0.16697685133E+03  0.17550986706E+03  0.10000000000E+01 0.  0.
    9000005    1    3    3    0    0  0.53252424528E+02 -0.92533148940E+01 -0.43931663262E+02  0.69659425720E+02  0.10000000000E+01 0.  0.
<mgrwt>
<rscale>  0 0.12500232E+03</rscale>
<asrwt>0</asrwt>
<pdfrwt beam="2">  1        4 0.35082906E-01 0.12500232E+03</pdfrwt>
<pdfrwt beam="1">  1       -4 0.26354446E-02 0.12500232E+03</pdfrwt>
<totfact> 0.83029171E+03</totfact>
</mgrwt>
</event>
<event>
 5    1  0.3206665E-002  0.1249942E+03  0.7818608E-02  0.1235078E+00
         -4   -1    0    0    0  501 -0.00000000000E+00  0.00000000000E+00  0.12503819670E+03  0.12504464617E+03  0.12700000000E+01 0.  1.
          4   -1    0    0  501    0  0.00000000000E+00 -0.00000000000E+00 -0.31217405918E+02  0.31243228582E+02  0.12700000000E+01 0.  1.
         25    2    1    2    0    0  0.00000000000E+00  0.00000000000E+00  0.93820790785E+02  0.15628787475E+03  0.12499423591E+03 0.  0.
    9000005    1    3    3    0    0  0.12142673318E+02 -0.59430772533E+02  0.28137134185E+02  0.66874206981E+02  0.10000000000E+01 0.  0.
    9000005    1    3    3    0    0 -0.12142673318E+02  0.59430772533E+02  0.65683656600E+02  0.89413667767E+02  0.10000000000E+01 0.  0.
<mgrwt>
<rscale>  0 0.12499424E+03</rscale>
<asrwt>0</asrwt>
<pdfrwt beam="2">  1        4 0.48051603E-02 0.12499424E+03</pdfrwt>
<pdfrwt beam="1">  1       -4 0.19239128E-01 0.12499424E+03</pdfrwt>
<totfact> 0.98075976E+03</totfact>
</mgrwt>
</event>
<event>
 5    1  0.3206665E-002  0.1250147E+03  0.7818608E-02  0.1235046E+00
          4   -1    0    0  501    0  0.00000000000E+00  0.00000000000E+00  0.11288960694E+03  0.11289675042E+03  0.12700000000E+01 0.  1.
         -4   -1    0    0    0  501 -0.00000000000E+00 -0.00000000000E+00 -0.34590616566E+02  0.34613922841E+02  0.12700000000E+01 0.  1.
         25    2    1    2    0    0  0.00000000000E+00  0.00000000000E+00  0.78298990378E+02  0.14751067326E+03  0.12501466647E+03 0.  0.
    9000005    1    3    3    0    0 -0.26593268242E+02  0.51272313663E+02  0.67323175147E+02  0.88709988029E+02  0.10000000000E+01 0.  0.
    9000005    1    3    3    0    0  0.26593268242E+02 -0.51272313663E+02  0.10975815231E+02  0.58800685236E+02  0.10000000000E+01 0.  0.
<mgrwt>
<rscale>  0 0.12501467E+03</rscale>
<asrwt>0</asrwt>
<pdfrwt beam="1">  1        4 0.17369974E-01 0.12501467E+03</pdfrwt>
<pdfrwt beam="2">  1       -4 0.53239757E-02 0.12501467E+03</pdfrwt>
<totfact> 0.99769298E+03</totfact>
</mgrwt>
</event>
<event>
 5    1  0.3206665E-002  0.1250094E+03  0.7818608E-02  0.1235055E+00
          4   -1    0    0  501    0  0.00000000000E+00  0.00000000000E+00  0.31132363566E+01  0.33623117958E+01  0.12700000000E+01 0. -1.
         -4   -1    0    0    0  501 -0.00000000000E+00 -0.00000000000E+00 -0.12063934849E+04  0.12063941534E+04  0.12700000000E+01 0. -1.
         25    2    1    2    0    0  0.00000000000E+00  0.00000000000E+00 -0.12032802486E+04  0.12097564652E+04  0.12500939365E+03 0.  0.
    9000005    1    3    3    0    0 -0.60987709505E+02 -0.67361145756E+01 -0.71653616365E+03  0.71915919640E+03  0.10000000000E+01 0.  0.
    9000005    1    3    3    0    0  0.60987709505E+02  0.67361145756E+01 -0.48674408490E+03  0.49059726878E+03  0.10000000000E+01 0.  0.
<mgrwt>
<rscale>  0 0.12500939E+03</rscale>
<asrwt>0</asrwt>
<pdfrwt beam="1">  1        4 0.49817147E-03 0.12500939E+03</pdfrwt>
<pdfrwt beam="2">  1       -4 0.18561785E+00 0.12500939E+03</pdfrwt>
<totfact> 0.24453843E+03</totfact>
</mgrwt>
</event>
<event>
 5    1  0.3206665E-002  0.1249960E+03  0.7818608E-02  0.1235075E+00
         -4   -1    0    0    0  501 -0.00000000000E+00  0.00000000000E+00  0.24506066027E+02  0.24538952140E+02  0.12700000000E+01 0.  1.
          4   -1    0    0  501    0  0.00000000000E+00 -0.00000000000E+00 -0.15924687980E+03  0.15925194387E+03  0.12700000000E+01 0.  1.
         25    2    1    2    0    0  0.00000000000E+00  0.00000000000E+00 -0.13474081377E+03  0.18379089601E+03  0.12499602618E+03 0.  0.
    9000005    1    3    3    0    0  0.59147967451E+01 -0.40963774024E+02 -0.13621132922E+03  0.14236411701E+03  0.10000000000E+01 0.  0.
    9000005    1    3    3    0    0 -0.59147967451E+01  0.40963774024E+02  0.14705154483E+01  0.41426779003E+02  0.10000000000E+01 0.  0.
<mgrwt>
<rscale>  0 0.12499603E+03</rscale>
<asrwt>0</asrwt>
<pdfrwt beam="2">  1        4 0.24502439E-01 0.12499603E+03</pdfrwt>
<pdfrwt beam="1">  1       -4 0.37730833E-02 0.12499603E+03</pdfrwt>
<totfact> 0.92947325E+03</totfact>
</mgrwt>
</event>
<event>
 5    1  0.3206665E-002  0.1250002E+03  0.7818608E-02  0.1235069E+00
          4   -1    0    0  501    0  0.00000000000E+00  0.00000000000E+00  0.60600921982E+02  0.60614228075E+02  0.12700000000E+01 0. -1.
         -4   -1    0    0    0  501 -0.00000000000E+00 -0.00000000000E+00 -0.64432145138E+02  0.64444660190E+02  0.12700000000E+01 0. -1.
         25    2    1    2    0    0  0.00000000000E+00  0.00000000000E+00 -0.38312231555E+01  0.12505888826E+03  0.12500018905E+03 0.  0.
    9000005    1    3    3    0    0 -0.33978273727E+02 -0.50087552160E+02  0.13647266132E+02  0.62052669884E+02  0.10000000000E+01 0.  0.
    9000005    1    3    3    0    0  0.33978273727E+02  0.50087552160E+02 -0.17478489288E+02  0.63006218381E+02  0.10000000000E+01 0.  0.
<mgrwt>
<rscale>  0 0.12500019E+03</rscale>
<asrwt>0</asrwt>
<pdfrwt beam="1">  1        4 0.93252050E-02 0.12500019E+03</pdfrwt>
<pdfrwt beam="2">  1       -4 0.99146240E-02 0.12500019E+03</pdfrwt>
<totfact> 0.10451539E+04</totfact>
</mgrwt>
</event>
<event>
 4    1  0.3206665E-002  0.1249264E+03  0.7818608E-02  0.1235184E+00
         -4   -1    0    0    0  501 -0.00000000000E+00  0.00000000000E+00  0.33543063109E+02  0.33567096728E+02  0.12700000000E+01 0.  1.
          4   -1    0    0  501    0  0.00000000000E+00 -0.00000000000E+00 -0.11624853704E+03  0.11625547413E+03  0.12700000000E+01 0.  1.
    9000005    1    1    2    0    0 -0.63686033972E+01  0.41122361481E+02  0.14501636566E+02  0.44078398180E+02  0.10000000000E+01 0.  0.
    9000005    1    1    2    0    0  0.63686033972E+01 -0.41122361481E+02 -0.97207110497E+02  0.10574417267E+03  0.10000000000E+01 0.  0.
<mgrwt>
<rscale>  0 0.12492641E+03</rscale>
<asrwt>0</asrwt>
<pdfrwt beam="2">  1        4 0.17886773E-01 0.12492641E+03</pdfrwt>
<pdfrwt beam="1">  1       -4 0.51628537E-02 0.12492641E+03</pdfrwt>
<totfact> 0.99503789E+03</totfact>
</mgrwt>
</event>
<event>
 5    1  0.3206665E-002  0.1250021E+03  0.7818608E-02  0.1235066E+00
          4   -1    0    0  501    0  0.00000000000E+00  0.00000000000E+00  0.21519434607E+03  0.21519809358E+03  0.12700000000E+01 0. -1.
         -4   -1    0    0    0  501 -0.00000000000E+00 -0.00000000000E+00 -0.18126691436E+02  0.18171126614E+02  0.12700000000E+01 0. -1.
         25    2    1    2    0    0  0.00000000000E+00  0.00000000000E+00  0.19706765463E+03  0.23336922019E+03  0.12500212971E+03 0.  0.
    9000005    1    3    3    0    0  0.27379504865E+02  0.80805995783E+01 -0.52517498034E+01  0.29043316825E+02  0.10000000000E+01 0.  0.
    9000005    1    3    3    0    0 -0.27379504865E+02 -0.80805995783E+01  0.20231940443E+03  0.20432590337E+03  0.10000000000E+01 0.  0.
<mgrwt>
<rscale>  0 0.12500213E+03</rscale>
<asrwt>0</asrwt>
<pdfrwt beam="1">  1        4 0.33110529E-01 0.12500213E+03</pdfrwt>
<pdfrwt beam="2">  1       -4 0.27924281E-02 0.12500213E+03</pdfrwt>
<totfact> 0.84790892E+03</totfact>
</mgrwt>
</event>
<event>
 5    1  0.3206665E-002  0.1249555E+03  0.7818608E-02  0.1235139E+00
         -4   -1    0    0    0  501 -0.00000000000E+00  0.00000000000E+00  0.18413598604E+02  0.18457343079E+02  0.12700000000E+01 0.  1.
          4   -1    0    0  501    0  0.00000000000E+00 -0.00000000000E+00 -0.21169140386E+03  0.21169521338E+03  0.12700000000E+01 0.  1.
         25    2    1    2    0    0  0.00000000000E+00  0.00000000000E+00 -0.19327780526E+03  0.23015255646E+03  0.12495554906E+03 0.  0.
    9000005    1    3    3    0    0  0.43083764529E+02 -0.34172045995E+02 -0.15123219051E+03  0.16092269865E+03  0.10000000000E+01 0.  0.
    9000005    1    3    3    0    0 -0.43083764529E+02  0.34172045995E+02 -0.42045614746E+02  0.69229857813E+02  0.10000000000E+01 0.  0.
<mgrwt>
<rscale>  0 0.12495555E+03</rscale>
<asrwt>0</asrwt>
<pdfrwt beam="2">  1        4 0.32571565E-01 0.12495555E+03</pdfrwt>
<pdfrwt beam="1">  1       -4 0.28365195E-02 0.12495555E+03</pdfrwt>
<totfact> 0.85370817E+03</totfact>
</mgrwt>
</event>
<event>
 5    1  0.3206665E-002  0.1250328E+03  0.7818608E-02  0.1235018E+00
         -4   -1    0    0    0  501 -0.00000000000E+00  0.00000000000E+00  0.12185582667E+03  0.12186244456E+03  0.12700000000E+01 0.  1.
          4   -1    0    0  501    0  0.00000000000E+00 -0.00000000000E+00 -0.32053081233E+02  0.32078231194E+02  0.12700000000E+01 0.  1.
         25    2    1    2    0    0  0.00000000000E+00  0.00000000000E+00  0.89802745442E+02  0.15394067575E+03  0.12503278995E+03 0.  0.
    9000005    1    3    3    0    0 -0.20125587024E+02 -0.18003907172E+02  0.11431018179E+03  0.11746062144E+03  0.10000000000E+01 0.  0.
    9000005    1    3    3    0    0  0.20125587024E+02  0.18003907172E+02 -0.24507436352E+02  0.36480054318E+02  0.10000000000E+01 0.  0.
<mgrwt>
<rscale>  0 0.12503279E+03</rscale>
<asrwt>0</asrwt>
<pdfrwt beam="2">  1        4 0.49336870E-02 0.12503279E+03</pdfrwt>
<pdfrwt beam="1">  1       -4 0.18749494E-01 0.12503279E+03</pdfrwt>
<totfact> 0.98451231E+03</totfact>
</mgrwt>
</event>
<event>
 5    1  0.3206665E-002  0.1250097E+03  0.7818608E-02  0.1235054E+00
          4   -1    0    0  501    0  0.00000000000E+00  0.00000000000E+00  0.19318454085E+03  0.19318871532E+03  0.12700000000E+01 0.  1.
         -4   -1    0    0    0  501 -0.00000000000E+00 -0.00000000000E+00 -0.20199090961E+02  0.20238976645E+02  0.12700000000E+01 0.  1.
         25    2    1    2    0    0  0.00000000000E+00  0.00000000000E+00  0.17298544989E+03  0.21342769196E+03  0.12500965491E+03 0.  0.
    9000005    1    3    3    0    0  0.49626131829E+02 -0.37905974074E+02  0.90756721269E+02  0.11016986106E+03  0.10000000000E+01 0.  0.
    9000005    1    3    3    0    0 -0.49626131829E+02  0.37905974074E+02  0.82228728625E+02  0.10325783090E+03  0.10000000000E+01 0.  0.
<mgrwt>
<rscale>  0 0.12500965E+03</rscale>
<asrwt>0</asrwt>
<pdfrwt beam="1">  1        4 0.29724089E-01 0.12500965E+03</pdfrwt>
<pdfrwt beam="2">  1       -4 0.31109416E-02 0.12500965E+03</pdfrwt>
<totfact> 0.87900165E+03</totfact>
</mgrwt>
</event>
<event>
 5    1  0.3206665E-002  0.1249899E+03  0.7818608E-02  0.1235085E+00
         -4   -1    0    0    0  501 -0.00000000000E+00  0.00000000000E+00  0.30448607738E+02  0.30475081841E+02  0.12700000000E+01 0.  1.
          4   -1    0    0  501    0  0.00000000000E+00 -0.00000000000E+00 -0.12818388586E+03  0.12819017706E+03  0.12700000000E+01 0.  1.
         25    2    1    2    0    0  0.00000000000E+00  0.00000000000E+00 -0.97735278124E+02  0.15866525890E+03  0.12498991876E+03 0.  0.
    9000005    1    3    3    0    0 -0.39490946874E+02 -0.88853865105E+01  0.11561964512E+02  0.42108953939E+02  0.10000000000E+01 0.  0.
    9000005    1    3    3    0    0  0.39490946874E+02  0.88853865105E+01 -0.10929724264E+03  0.11655630496E+03  0.10000000000E+01 0.  0.
<mgrwt>
<rscale>  0 0.12498992E+03</rscale>
<asrwt>0</asrwt>
<pdfrwt beam="2">  1        4 0.19723118E-01 0.12498992E+03</pdfrwt>
<pdfrwt beam="1">  1       -4 0.46869217E-02 0.12498992E+03</pdfrwt>
<totfact> 0.97622854E+03</totfact>
</mgrwt>
</event>
<event>
 5    1  0.3206665E-002  0.1249995E+03  0.7818608E-02  0.1235070E+00
          4   -1    0    0  501    0  0.00000000000E+00  0.00000000000E+00  0.24580767926E+02  0.24613554230E+02  0.12700000000E+01 0.  1.
         -4   -1    0    0    0  501 -0.00000000000E+00 -0.00000000000E+00 -0.15877248775E+03  0.15877756695E+03  0.12700000000E+01 0.  1.
         25    2    1    2    0    0  0.00000000000E+00  0.00000000000E+00 -0.13419171983E+03  0.18339112118E+03  0.12499954263E+03 0.  0.
    9000005    1    3    3    0    0  0.18282361752E+02  0.41510429788E+02 -0.40285194005E+01  0.45547661861E+02  0.10000000000E+01 0.  0.
    9000005    1    3    3    0    0 -0.18282361752E+02 -0.41510429788E+02 -0.13016320042E+03  0.13784345932E+03  0.10000000000E+01 0.  0.
<mgrwt>
<rscale>  0 0.12499954E+03</rscale>
<asrwt>0</asrwt>
<pdfrwt beam="1">  1        4 0.37845694E-02 0.12499954E+03</pdfrwt>
<pdfrwt beam="2">  1       -4 0.24429449E-01 0.12499954E+03</pdfrwt>
<totfact> 0.93011081E+03</totfact>
</mgrwt>
</event>
<event>
 5    1  0.3206665E-002  0.1250018E+03  0.7818608E-02  0.1235066E+00
          4   -1    0    0  501    0  0.00000000000E+00  0.00000000000E+00  0.30802357016E+02  0.30828527336E+02  0.12700000000E+01 0. -1.
         -4   -1    0    0    0  501 -0.00000000000E+00 -0.00000000000E+00 -0.12673712144E+03  0.12674348445E+03  0.12700000000E+01 0. -1.
         25    2    1    2    0    0  0.00000000000E+00  0.00000000000E+00 -0.95934764426E+02  0.15757201179E+03  0.12500183948E+03 0.  0.
    9000005    1    3    3    0    0  0.71093177592E+01 -0.28883337541E+02 -0.11724732417E+03  0.12096579935E+03  0.10000000000E+01 0.  0.
    9000005    1    3    3    0    0 -0.71093177592E+01  0.28883337541E+02  0.21312559745E+02  0.36606212443E+02  0.10000000000E+01 0.  0.
<mgrwt>
<rscale>  0 0.12500184E+03</rscale>
<asrwt>0</asrwt>
<pdfrwt beam="1">  1        4 0.47413268E-02 0.12500184E+03</pdfrwt>
<pdfrwt beam="2">  1       -4 0.19500521E-01 0.12500184E+03</pdfrwt>
<totfact> 0.97808889E+03</totfact>
</mgrwt>
</event>
<event>
 5    1  0.3206665E-002  0.1250029E+03  0.7818608E-02  0.1235065E+00
         -4   -1    0    0    0  501 -0.00000000000E+00  0.00000000000E+00  0.18308426271E+02  0.18352421434E+02  0.12700000000E+01 0.  1.
          4   -1    0    0  501    0  0.00000000000E+00 -0.00000000000E+00 -0.21306616796E+03  0.21306995290E+03  0.12700000000E+01 0.  1.
         25    2    1    2    0    0  0.00000000000E+00  0.00000000000E+00 -0.19475774169E+03  0.23142237434E+03  0.12500294955E+03 0.  0.
    9000005    1    3    3    0    0 -0.26112829483E+01  0.47080319876E+01 -0.21264512417E+03  0.21271561578E+03  0.10000000000E+01 0.  0.
    9000005    1    3    3    0    0  0.26112829483E+01 -0.47080319876E+01  0.17887382477E+02  0.18706758557E+02  0.10000000000E+01 0.  0.
<mgrwt>
<rscale>  0 0.12500295E+03</rscale>
<asrwt>0</asrwt>
<pdfrwt beam="2">  1        4 0.32783084E-01 0.12500295E+03</pdfrwt>
<pdfrwt beam="1">  1       -4 0.28203565E-02 0.12500295E+03</pdfrwt>
<totfact> 0.85086069E+03</totfact>
</mgrwt>
</event>
<event>
 5    1  0.3206665E-002  0.1249948E+03  0.7818608E-02  0.1235077E+00
         -4   -1    0    0    0  501 -0.00000000000E+00  0.00000000000E+00  0.21236286937E+03  0.21236666685E+03  0.12700000000E+01 0. -1.
          4   -1    0    0  501    0  0.00000000000E+00 -0.00000000000E+00 -0.18366808447E+02  0.18410664098E+02  0.12700000000E+01 0. -1.
         25    2    1    2    0    0  0.00000000000E+00  0.00000000000E+00  0.19399606092E+03  0.23077733094E+03  0.12499481919E+03 0.  0.
    9000005    1    3    3    0    0  0.59438118760E+02 -0.63965094059E+01  0.63401499359E+02  0.87146746441E+02  0.10000000000E+01 0.  0.
    9000005    1    3    3    0    0 -0.59438118760E+02  0.63965094059E+01  0.13059456156E+03  0.14363058450E+03  0.10000000000E+01 0.  0.
<mgrwt>
<rscale>  0 0.12499482E+03</rscale>
<asrwt>0</asrwt>
<pdfrwt beam="2">  1        4 0.28293286E-02 0.12499482E+03</pdfrwt>
<pdfrwt beam="1">  1       -4 0.32674875E-01 0.12499482E+03</pdfrwt>
<totfact> 0.85200227E+03</totfact>
</mgrwt>
</event>
<event>
 5    1  0.3206665E-002  0.1249991E+03  0.7818608E-02  0.1235071E+00
          4   -1    0    0  501    0  0.00000000000E+00  0.00000000000E+00  0.74111850045E+02  0.74122730772E+02  0.12700000000E+01 0.  1.
         -4   -1    0    0    0  501 -0.00000000000E+00 -0.00000000000E+00 -0.52684328221E+02  0.52699633206E+02  0.12700000000E+01 0.  1.
         25    2    1    2    0    0  0.00000000000E+00  0.00000000000E+00  0.21427521824E+02  0.12682236398E+03  0.12499909325E+03 0.  0.
    9000005    1    3    3    0    0  0.30926239957E+02 -0.27140082892E+02 -0.37006071433E+02  0.55348583904E+02  0.10000000000E+01 0.  0.
    9000005    1    3    3    0    0 -0.30926239957E+02  0.27140082892E+02  0.58433593257E+02  0.71473780074E+02  0.10000000000E+01 0.  0.
<mgrwt>
<rscale>  0 0.12499909E+03</rscale>
<asrwt>0</asrwt>
<pdfrwt beam="1">  1        4 0.11403837E-01 0.12499909E+03</pdfrwt>
<pdfrwt beam="2">  1       -4 0.81072955E-02 0.12499909E+03</pdfrwt>
<totfact> 0.10413220E+04</totfact>
</mgrwt>
</event>
<event>
 5    1  0.3206665E-002  0.1250020E+03  0.7818608E-02  0.1235066E+00
         -4   -1    0    0    0  501 -0.00000000000E+00  0.00000000000E+00  0.35523309260E+02  0.35546004006E+02  0.12700000000E+01 0. -1.
          4   -1    0    0  501    0  0.00000000000E+00 -0.00000000000E+00 -0.10990501058E+03  0.10991234803E+03  0.12700000000E+01 0. -1.
         25    2    1    2    0    0  0.00000000000E+00  0.00000000000E+00 -0.74381701315E+02  0.14545835204E+03  0.12500197873E+03 0.  0.
    9000005    1    3    3    0    0 -0.47083380635E+01  0.37216091780E+02 -0.95351945446E+02  0.10247048080E+03  0.10000000000E+01 0.  0.
    9000005    1    3    3    0    0  0.47083380635E+01 -0.37216091780E+02  0.20970244130E+02  0.42987871238E+02  0.10000000000E+01 0.  0.
<mgrwt>
<rscale>  0 0.12500198E+03</rscale>
<asrwt>0</asrwt>
<pdfrwt beam="2">  1        4 0.16910773E-01 0.12500198E+03</pdfrwt>
<pdfrwt beam="1">  1       -4 0.54674347E-02 0.12500198E+03</pdfrwt>
<totfact> 0.10021238E+04</totfact>
</mgrwt>
</event>
<event>
 5    1  0.3206665E-002  0.1250010E+03  0.7818608E-02  0.1235068E+00
         -4   -1    0    0    0  501 -0.00000000000E+00  0.00000000000E+00  0.57395150541E+01  0.58783444145E+01  0.12700000000E+01 0. -1.
          4   -1    0    0  501    0  0.00000000000E+00 -0.00000000000E+00 -0.67232687490E+03  0.67232807439E+03  0.12700000000E+01 0. -1.
         25    2    1    2    0    0  0.00000000000E+00  0.00000000000E+00 -0.66658735985E+03  0.67820641881E+03  0.12500095280E+03 0.  0.
    9000005    1    3    3    0    0 -0.25485245609E+02 -0.54950951868E+02 -0.24990773863E+03  0.25714583932E+03  0.10000000000E+01 0.  0.
    9000005    1    3    3    0    0  0.25485245609E+02  0.54950951868E+02 -0.41667962122E+03  0.42106057949E+03  0.10000000000E+01 0.  0.
<mgrwt>
<rscale>  0 0.12500095E+03</rscale>
<asrwt>0</asrwt>
<pdfrwt beam="2">  1        4 0.10344561E+00 0.12500095E+03</pdfrwt>
<pdfrwt beam="1">  1       -4 0.89377430E-03 0.12500095E+03</pdfrwt>
<totfact> 0.44261490E+03</totfact>
</mgrwt>
</event>
<event>
 5    1  0.3206665E-002  0.1249999E+03  0.7818608E-02  0.1235069E+00
         -4   -1    0    0    0  501 -0.00000000000E+00  0.00000000000E+00  0.26459182217E+02  0.26489643705E+02  0.12700000000E+01 0.  1.
          4   -1    0    0  501    0  0.00000000000E+00 -0.00000000000E+00 -0.14751471018E+03  0.14752017699E+03  0.12700000000E+01 0.  1.
         25    2    1    2    0    0  0.00000000000E+00  0.00000000000E+00 -0.12105552797E+03  0.17400982070E+03  0.12499990739E+03 0.  0.
    9000005    1    3    3    0    0 -0.13666179933E+02  0.24305337677E+02  0.17325839139E+02  0.32843547547E+02  0.10000000000E+01 0.  0.
    9000005    1    3    3    0    0  0.13666179933E+02 -0.24305337677E+02 -0.13838136711E+03  0.14116627315E+03  0.10000000000E+01 0.  0.
<mgrwt>
<rscale>  0 0.12499991E+03</rscale>
<asrwt>0</asrwt>
<pdfrwt beam="2">  1        4 0.22697334E-01 0.12499991E+03</pdfrwt>
<pdfrwt beam="1">  1       -4 0.40734072E-02 0.12499991E+03</pdfrwt>
<totfact> 0.94706700E+03</totfact>
</mgrwt>
</event>
<event>
 5    1  0.3206665E-002  0.1250011E+03  0.7818608E-02  0.1235068E+00
         -4   -1    0    0    0  501 -0.00000000000E+00  0.00000000000E+00  0.23115397606E+02  0.23150259318E+02  0.12700000000E+01 0. -1.
          4   -1    0    0  501    0  0.00000000000E+00 -0.00000000000E+00 -0.16882734985E+03  0.16883212656E+03  0.12700000000E+01 0. -1.
         25    2    1    2    0    0  0.00000000000E+00  0.00000000000E+00 -0.14571195225E+03  0.19198238588E+03  0.12500105383E+03 0.  0.
    9000005    1    3    3    0    0 -0.45792019552E+01  0.23342829079E+02  0.15897582415E+02  0.28628480341E+02  0.10000000000E+01 0.  0.
    9000005    1    3    3    0    0  0.45792019552E+01 -0.23342829079E+02 -0.16160953466E+03  0.16335390554E+03  0.10000000000E+01 0.  0.
<mgrwt>
<rscale>  0 0.12500105E+03</rscale>
<asrwt>0</asrwt>
<pdfrwt beam="2">  1        4 0.25976487E-01 0.12500105E+03</pdfrwt>
<pdfrwt beam="1">  1       -4 0.35592642E-02 0.12500105E+03</pdfrwt>
<totfact> 0.91501367E+03</totfact>
</mgrwt>
</event>
<event>
 4    1  0.3206665E-002  0.1249315E+03  0.7818608E-02  0.1235176E+00
          4   -1    0    0  501    0  0.00000000000E+00  0.00000000000E+00  0.54475299912E+01  0.55936109094E+01  0.12700000000E+01 0. -1.
         -4   -1    0    0    0  501 -0.00000000000E+00 -0.00000000000E+00 -0.70665918230E+03  0.70666032351E+03  0.12700000000E+01 0. -1.
    9000005    1    1    2    0    0  0.22500373986E+02 -0.24650301267E+02 -0.65158506724E+03  0.65244003865E+03  0.10000000000E+01 0.  0.
    9000005    1    1    2    0    0 -0.22500373986E+02  0.24650301267E+02 -0.49626585067E+02  0.59813895772E+02  0.10000000000E+01 0.  0.
<mgrwt>
<rscale>  0 0.12493152E+03</rscale>
<asrwt>0</asrwt>
<pdfrwt beam="1">  1        4 0.84940688E-03 0.12493152E+03</pdfrwt>
<pdfrwt beam="2">  1       -4 0.10872805E+00 0.12493152E+03</pdfrwt>
<totfact> 0.42511343E+03</totfact>
</mgrwt>
</event>
<event>
 5    1  0.3206665E-002  0.1249825E+03  0.7818608E-02  0.1235097E+00
         -4   -1    0    0    0  501 -0.00000000000E+00  0.00000000000E+00  0.11077636580E+03  0.11078364554E+03  0.12700000000E+01 0. -1.
          4   -1    0    0  501    0  0.00000000000E+00 -0.00000000000E+00 -0.35232726179E+02  0.35255607979E+02  0.12700000000E+01 0. -1.
         25    2    1    2    0    0  0.00000000000E+00  0.00000000000E+00  0.75543639622E+02  0.14603925352E+03  0.12498248710E+03 0.  0.
    9000005    1    3    3    0    0 -0.23132565765E+02  0.55287106014E+02  0.17119960707E+02  0.62336768804E+02  0.10000000000E+01 0.  0.
    9000005    1    3    3    0    0  0.23132565765E+02 -0.55287106014E+02  0.58423678915E+02  0.83702484720E+02  0.10000000000E+01 0.  0.
<mgrwt>
<rscale>  0 0.12498249E+03</rscale>
<asrwt>0</asrwt>
<pdfrwt beam="2">  1        4 0.54227394E-02 0.12498249E+03</pdfrwt>
<pdfrwt beam="1">  1       -4 0.17044838E-01 0.12498249E+03</pdfrwt>
<totfact> 0.10013864E+04</totfact>
</mgrwt>
</event>
<event>
 5    1  0.3206665E-002  0.1250011E+03  0.7818608E-02  0.1235067E+00
          4   -1    0    0  501    0  0.00000000000E+00  0.00000000000E+00  0.48763169999E+02  0.48779705292E+02  0.12700000000E+01 0. -1.
         -4   -1    0    0    0  501 -0.00000000000E+00 -0.00000000000E+00 -0.80072885569E+02  0.80082956385E+02  0.12700000000E+01 0. -1.
         25    2    1    2    0    0  0.00000000000E+00  0.00000000000E+00 -0.31309715570E+02  0.12886266168E+03  0.12500114914E+03 0.  0.
    9000005    1    3    3    0    0  0.16331223629E+02  0.60057507925E+02 -0.21459858755E+02  0.65841769882E+02  0.10000000000E+01 0.  0.
    9000005    1    3    3    0    0 -0.16331223629E+02 -0.60057507925E+02 -0.98498568149E+01  0.63020891795E+02  0.10000000000E+01 0.  0.
<mgrwt>
<rscale>  0 0.12500115E+03</rscale>
<asrwt>0</asrwt>
<pdfrwt beam="1">  1        4 0.75040728E-02 0.12500115E+03</pdfrwt>
<pdfrwt beam="2">  1       -4 0.12320952E-01 0.12500115E+03</pdfrwt>
<totfact> 0.10368630E+04</totfact>
</mgrwt>
</event>
<event>
 5    1  0.3206665E-002  0.1249975E+03  0.7818608E-02  0.1235073E+00
          4   -1    0    0  501    0  0.00000000000E+00  0.00000000000E+00  0.95844289761E+03  0.95844373903E+03  0.12700000000E+01 0. -1.
         -4   -1    0    0    0  501 -0.00000000000E+00 -0.00000000000E+00 -0.39756535196E+01  0.41735741168E+01  0.12700000000E+01 0. -1.
         25    2    1    2    0    0  0.00000000000E+00  0.00000000000E+00  0.95446724409E+03  0.96261731315E+03  0.12499748606E+03 0.  0.
    9000005    1    3    3    0    0  0.29326647561E+02 -0.32960989386E+02  0.81805497419E+03  0.81924442011E+03  0.10000000000E+01 0.  0.
    9000005    1    3    3    0    0 -0.29326647561E+02  0.32960989386E+02  0.13641226990E+03  0.14337289304E+03  0.10000000000E+01 0.  0.
<mgrwt>
<rscale>  0 0.12499749E+03</rscale>
<asrwt>0</asrwt>
<pdfrwt beam="1">  1        4 0.14746798E+00 0.12499749E+03</pdfrwt>
<pdfrwt beam="2">  1       -4 0.62692866E-03 0.12499749E+03</pdfrwt>
<totfact> 0.31873961E+03</totfact>
</mgrwt>
</event>
<event>
 5    1  0.3206665E-002  0.1250005E+03  0.7818608E-02  0.1235068E+00
          4   -1    0    0  501    0  0.00000000000E+00  0.00000000000E+00  0.66964790005E+02  0.66976831818E+02  0.12700000000E+01 0.  1.
         -4   -1    0    0    0  501 -0.00000000000E+00 -0.00000000000E+00 -0.58309201307E+02  0.58323030246E+02  0.12700000000E+01 0.  1.
         25    2    1    2    0    0  0.00000000000E+00  0.00000000000E+00  0.86555886981E+01  0.12529986206E+03  0.12500054487E+03 0.  0.
    9000005    1    3    3    0    0  0.17008438362E+02  0.20980448301E+02  0.60817131762E+02  0.66552157758E+02  0.10000000000E+01 0.  0.
    9000005    1    3    3    0    0 -0.17008438362E+02 -0.20980448301E+02 -0.52161543064E+02  0.58747704306E+02  0.10000000000E+01 0.  0.
<mgrwt>
<rscale>  0 0.12500054E+03</rscale>
<asrwt>0</asrwt>
<pdfrwt beam="1">  1        4 0.10304265E-01 0.12500054E+03</pdfrwt>
<pdfrwt beam="2">  1       -4 0.89726365E-02 0.12500054E+03</pdfrwt>
<totfact> 0.10446224E+04</totfact>
</mgrwt>
</event>
<event>
 5    1  0.3206665E-002  0.1249725E+03  0.7818608E-02  0.1235112E+00
          4   -1    0    0  501    0  0.00000000000E+00  0.00000000000E+00  0.24292265260E+02  0.24325440416E+02  0.12700000000E+01 0. -1.
         -4   -1    0    0    0  501 -0.00000000000E+00 -0.00000000000E+00 -0.16058608693E+03  0.16059110877E+03  0.12700000000E+01 0. -1.
         25    2    1    2    0    0  0.00000000000E+00  0.00000000000E+00 -0.13629382167E+03  0.18491654919E+03  0.12497249432E+03 0.  0.
    9000005    1    3    3    0    0 -0.51575934986E+02  0.39391642661E+01 -0.16296836302E+02  0.54241874583E+02  0.10000000000E+01 0.  0.
    9000005    1    3    3    0    0  0.51575934986E+02 -0.39391642661E+01 -0.11999698537E+03  0.13067467460E+03  0.10000000000E+01 0.  0.
<mgrwt>
<rscale>  0 0.12497249E+03</rscale>
<asrwt>0</asrwt>
<pdfrwt beam="1">  1        4 0.37402099E-02 0.12497249E+03</pdfrwt>
<pdfrwt beam="2">  1       -4 0.24708489E-01 0.12497249E+03</pdfrwt>
<totfact> 0.92796611E+03</totfact>
</mgrwt>
</event>
<event>
 5    1  0.3206665E-002  0.1249914E+03  0.7818608E-02  0.1235083E+00
          4   -1    0    0  501    0  0.00000000000E+00  0.00000000000E+00  0.11385116775E+03  0.11385825090E+03  0.12700000000E+01 0. -1.
         -4   -1    0    0    0  501 -0.00000000000E+00 -0.00000000000E+00 -0.34285541061E+02  0.34309054575E+02  0.12700000000E+01 0. -1.
         25    2    1    2    0    0  0.00000000000E+00  0.00000000000E+00  0.79565626685E+02  0.14816730547E+03  0.12499144555E+03 0.  0.
    9000005    1    3    3    0    0 -0.60710958889E+01 -0.60918203073E+02  0.24937606946E+02  0.66111798577E+02  0.10000000000E+01 0.  0.
    9000005    1    3    3    0    0  0.60710958889E+01  0.60918203073E+02  0.54628019739E+02  0.82055506894E+02  0.10000000000E+01 0.  0.
<mgrwt>
<rscale>  0 0.12499145E+03</rscale>
<asrwt>0</asrwt>
<pdfrwt beam="1">  1        4 0.17517918E-01 0.12499145E+03</pdfrwt>
<pdfrwt beam="2">  1       -4 0.52770522E-02 0.12499145E+03</pdfrwt>
<totfact> 0.99689475E+03</totfact>
</mgrwt>
</event>
<event>
 5    1  0.3206665E-002  0.1250000E+03  0.7818608E-02  0.1235069E+00
         -4   -1    0    0    0  501 -0.00000000000E+00  0.00000000000E+00  0.52292351061E+02  0.52307770737E+02  0.12700000000E+01 0. -1.
          4   -1    0    0  501    0  0.00000000000E+00 -0.00000000000E+00 -0.74668441701E+02  0.74679241333E+02  0.12700000000E+01 0. -1.
         25    2    1    2    0    0  0.00000000000E+00  0.00000000000E+00 -0.22376090640E+02  0.12698701207E+03  0.12500004721E+03 0.  0.
    9000005    1    3    3    0    0  0.24708128850E+02 -0.55435241444E+02  0.39380695955E+01  0.60828167960E+02  0.10000000000E+01 0.  0.
    9000005    1    3    3    0    0 -0.24708128850E+02  0.55435241444E+02 -0.26314160235E+02  0.66158844111E+02  0.10000000000E+01 0.  0.
<mgrwt>
<rscale>  0 0.12500005E+03</rscale>
<asrwt>0</asrwt>
<pdfrwt beam="2">  1        4 0.11489469E-01 0.12500005E+03</pdfrwt>
<pdfrwt beam="1">  1       -4 0.80469939E-02 0.12500005E+03</pdfrwt>
<totfact> 0.10409417E+04</totfact>
</mgrwt>
</event>
<event>
 5    1  0.3206665E-002  0.1250003E+03  0.7818608E-02  0.1235069E+00
         -4   -1    0    0    0  501 -0.00000000000E+00  0.00000000000E+00  0.66334148309E+02  0.66346304584E+02  0.12700000000E+01 0.  1.
          4   -1    0    0  501    0  0.00000000000E+00 -0.00000000000E+00 -0.58863371084E+02  0.58877069861E+02  0.12700000000E+01 0.  1.
         25    2    1    2    0    0  0.00000000000E+00  0.00000000000E+00  0.74707772251E+01  0.12522337444E+03  0.12500032398E+03 0.  0.
    9000005    1    3    3    0    0 -0.17218649364E+02 -0.62882744254E+01  0.63585160967E+02  0.66182301081E+02  0.10000000000E+01 0.  0.
    9000005    1    3    3    0    0  0.17218649364E+02  0.62882744254E+01 -0.56114383742E+02  0.59041073363E+02  0.10000000000E+01 0.  0.
<mgrwt>
<rscale>  0 0.12500032E+03</rscale>
<asrwt>0</asrwt>
<pdfrwt beam="2">  1        4 0.90578921E-02 0.12500032E+03</pdfrwt>
<pdfrwt beam="1">  1       -4 0.10207242E-01 0.12500032E+03</pdfrwt>
<totfact> 0.10447936E+04</totfact>
</mgrwt>
</event>
<event>
 5    1  0.3206665E-002  0.1250048E+03  0.7818608E-02  0.1235062E+00
         -4   -1    0    0    0  501 -0.00000000000E+00  0.00000000000E+00  0.14747163830E+02  0.14801747904E+02  0.12700000000E+01 0.  1.
          4   -1    0    0  501    0  0.00000000000E+00 -0.00000000000E+00 -0.26435628876E+03  0.26435933936E+03  0.12700000000E+01 0.  1.
         25    2    1    2    0    0  0.00000000000E+00  0.00000000000E+00 -0.24960912493E+03  0.27916108727E+03  0.12500478949E+03 0.  0.
    9000005    1    3    3    0    0 -0.42589447193E+02 -0.30027417834E+02 -0.47765770060E+02  0.70697069412E+02  0.10000000000E+01 0.  0.
    9000005    1    3    3    0    0  0.42589447193E+02  0.30027417834E+02 -0.20184335487E+03  0.20846401786E+03  0.10000000000E+01 0.  0.
<mgrwt>
<rscale>  0 0.12500479E+03</rscale>
<asrwt>0</asrwt>
<pdfrwt beam="2">  1        4 0.40674628E-01 0.12500479E+03</pdfrwt>
<pdfrwt beam="1">  1       -4 0.22732281E-02 0.12500479E+03</pdfrwt>
<totfact> 0.78281138E+03</totfact>
</mgrwt>
</event>
<event>
 5    1  0.3206665E-002  0.1249893E+03  0.7818608E-02  0.1235086E+00
          4   -1    0    0  501    0  0.00000000000E+00  0.00000000000E+00  0.11223686155E+02  0.11295310129E+02  0.12700000000E+01 0. -1.
         -4   -1    0    0    0  501 -0.00000000000E+00 -0.00000000000E+00 -0.34679685785E+03  0.34679918327E+03  0.12700000000E+01 0. -1.
         25    2    1    2    0    0  0.00000000000E+00  0.00000000000E+00 -0.33557317169E+03  0.35809449339E+03  0.12498925009E+03 0.  0.
    9000005    1    3    3    0    0 -0.18578325632E+02 -0.36591334899E+02 -0.32781480608E+02  0.52532898681E+02  0.10000000000E+01 0.  0.
    9000005    1    3    3    0    0  0.18578325632E+02  0.36591334899E+02 -0.30279169109E+03  0.30556159471E+03  0.10000000000E+01 0.  0.
<mgrwt>
<rscale>  0 0.12498925E+03</rscale>
<asrwt>0</asrwt>
<pdfrwt beam="1">  1        4 0.17324096E-02 0.12498925E+03</pdfrwt>
<pdfrwt beam="2">  1       -4 0.53359043E-01 0.12498925E+03</pdfrwt>
<totfact> 0.68859524E+03</totfact>
</mgrwt>
</event>
<event>
 5    1  0.3206665E-002  0.1250039E+03  0.7818608E-02  0.1235063E+00
         -4   -1    0    0    0  501 -0.00000000000E+00  0.00000000000E+00  0.63733868814E+03  0.63733995348E+03  0.12700000000E+01 0.  1.
          4   -1    0    0  501    0  0.00000000000E+00 -0.00000000000E+00 -0.60623156540E+01  0.61939140363E+01  0.12700000000E+01 0.  1.
         25    2    1    2    0    0  0.00000000000E+00  0.00000000000E+00  0.63127637248E+03  0.64353386751E+03  0.12500392066E+03 0.  0.
    9000005    1    3    3    0    0 -0.58413513481E+02  0.22181880776E+02  0.30972199623E+03  0.31596343039E+03  0.10000000000E+01 0.  0.
    9000005    1    3    3    0    0  0.58413513481E+02 -0.22181880776E+02  0.32155437625E+03  0.32757043713E+03  0.10000000000E+01 0.  0.
<mgrwt>
<rscale>  0 0.12500392E+03</rscale>
<asrwt>0</asrwt>
<pdfrwt beam="2">  1        4 0.94288445E-03 0.12500392E+03</pdfrwt>
<pdfrwt beam="1">  1       -4 0.98062304E-01 0.12500392E+03</pdfrwt>
<totfact> 0.46226029E+03</totfact>
</mgrwt>
</event>
<event>
 5    1  0.3206665E-002  0.1250029E+03  0.7818608E-02  0.1235065E+00
          4   -1    0    0  501    0  0.00000000000E+00  0.00000000000E+00  0.57400776623E+02  0.57414824365E+02  0.12700000000E+01 0.  1.
         -4   -1    0    0    0  501 -0.00000000000E+00 -0.00000000000E+00 -0.68027103983E+02  0.68038957784E+02  0.12700000000E+01 0.  1.
         25    2    1    2    0    0  0.00000000000E+00  0.00000000000E+00 -0.10626327360E+02  0.12545378215E+03  0.12500293046E+03 0.  0.
    9000005    1    3    3    0    0 -0.43689153011E+02 -0.39326028439E+02 -0.26606533044E+02  0.64530505996E+02  0.10000000000E+01 0.  0.
    9000005    1    3    3    0    0  0.43689153011E+02  0.39326028439E+02  0.15980205684E+02  0.60923276153E+02  0.10000000000E+01 0.  0.
<mgrwt>
<rscale>  0 0.12500293E+03</rscale>
<asrwt>0</asrwt>
<pdfrwt beam="1">  1        4 0.88328811E-02 0.12500293E+03</pdfrwt>
<pdfrwt beam="2">  1       -4 0.10467701E-01 0.12500293E+03</pdfrwt>
<totfact> 0.10442286E+04</totfact>
</mgrwt>
</event>
<event>
 5    1  0.3206665E-002  0.1250000E+03  0.7818608E-02  0.1235069E+00
         -4   -1    0    0    0  501 -0.00000000000E+00  0.00000000000E+00  0.21740121327E+03  0.21740492274E+03  0.12700000000E+01 0. -1.
          4   -1    0    0  501    0  0.00000000000E+00 -0.00000000000E+00 -0.17941625606E+02  0.17986517989E+02  0.12700000000E+01 0. -1.
         25    2    1    2    0    0  0.00000000000E+00  0.00000000000E+00  0.19945958767E+03  0.23539144073E+03  0.12500001303E+03 0.  0.
    9000005    1    3    3    0    0  0.26974525573E+02 -0.56172412553E+02  0.10861966022E+03  0.12522857321E+03  0.10000000000E+01 0.  0.
    9000005    1    3    3    0    0 -0.26974525573E+02  0.56172412553E+02  0.90839927451E+02  0.11016286752E+03  0.10000000000E+01 0.  0.
<mgrwt>
<rscale>  0 0.12500001E+03</rscale>
<asrwt>0</asrwt>
<pdfrwt beam="2">  1        4 0.27639887E-02 0.12500001E+03</pdfrwt>
<pdfrwt beam="1">  1       -4 0.33450080E-01 0.12500001E+03</pdfrwt>
<totfact> 0.84488527E+03</totfact>
</mgrwt>
</event>
<event>
 5    1  0.3206665E-002  0.1250014E+03  0.7818608E-02  0.1235067E+00
          4   -1    0    0  501    0  0.00000000000E+00  0.00000000000E+00  0.69422032126E+02  0.69433647784E+02  0.12700000000E+01 0. -1.
         -4   -1    0    0    0  501 -0.00000000000E+00 -0.00000000000E+00 -0.56245965587E+02  0.56260301677E+02  0.12700000000E+01 0. -1.
         25    2    1    2    0    0  0.00000000000E+00  0.00000000000E+00  0.13176066540E+02  0.12569394946E+03  0.12500144080E+03 0.  0.
    9000005    1    3    3    0    0  0.10616957316E+02  0.59968034640E+02 -0.75058605560E+01  0.61369560076E+02  0.10000000000E+01 0.  0.
    9000005    1    3    3    0    0 -0.10616957316E+02 -0.59968034640E+02  0.20681927096E+02  0.64324389384E+02  0.10000000000E+01 0.  0.
<mgrwt>
<rscale>  0 0.12500144E+03</rscale>
<asrwt>0</asrwt>
<pdfrwt beam="1">  1        4 0.10682309E-01 0.12500144E+03</pdfrwt>
<pdfrwt beam="2">  1       -4 0.86552218E-02 0.12500144E+03</pdfrwt>
<totfact> 0.10437338E+04</totfact>
</mgrwt>
</event>
<event>
 5    1  0.3206665E-002  0.1250016E+03  0.7818608E-02  0.1235067E+00
         -4   -1    0    0    0  501 -0.00000000000E+00  0.00000000000E+00  0.81317315267E+03  0.81317414441E+03  0.12700000000E+01 0. -1.
          4   -1    0    0  501    0  0.00000000000E+00 -0.00000000000E+00 -0.47188861276E+01  0.48867971398E+01  0.12700000000E+01 0. -1.
         25    2    1    2    0    0  0.00000000000E+00  0.00000000000E+00  0.80845426655E+03  0.81806094154E+03  0.12500161193E+03 0.  0.
    9000005    1    3    3    0    0 -0.16120073383E+02  0.60244279682E+02  0.37795093009E+03  0.38306283500E+03  0.10000000000E+01 0.  0.
    9000005    1    3    3    0    0  0.16120073383E+02 -0.60244279682E+02  0.43050333646E+03  0.43499810655E+03  0.10000000000E+01 0.  0.
<mgrwt>
<rscale>  0 0.12500161E+03</rscale>
<asrwt>0</asrwt>
<pdfrwt beam="2">  1        4 0.73897500E-03 0.12500161E+03</pdfrwt>
<pdfrwt beam="1">  1       -4 0.12511655E+00 0.12500161E+03</pdfrwt>
<totfact> 0.37469728E+03</totfact>
</mgrwt>
</event>
<event>
 5    1  0.3206665E-002  0.1250024E+03  0.7818608E-02  0.1235066E+00
         -4   -1    0    0    0  501 -0.00000000000E+00  0.00000000000E+00  0.29467237113E+02  0.29494592098E+02  0.12700000000E+01 0.  1.
          4   -1    0    0  501    0  0.00000000000E+00 -0.00000000000E+00 -0.13247563967E+03  0.13248172707E+03  0.12700000000E+01 0.  1.
         25    2    1    2    0    0  0.00000000000E+00  0.00000000000E+00 -0.10300840256E+03  0.16197631917E+03  0.12500238787E+03 0.  0.
    9000005    1    3    3    0    0  0.58479299691E+02 -0.20901237841E+02 -0.60547728637E+02  0.86739366373E+02  0.10000000000E+01 0.  0.
    9000005    1    3    3    0    0 -0.58479299691E+02  0.20901237841E+02 -0.42460673924E+02  0.75236952794E+02  0.10000000000E+01 0.  0.
<mgrwt>
<rscale>  0 0.12500239E+03</rscale>
<asrwt>0</asrwt>
<pdfrwt beam="2">  1        4 0.20383440E-01 0.12500239E+03</pdfrwt>
<pdfrwt beam="1">  1       -4 0.45359937E-02 0.12500239E+03</pdfrwt>
<totfact> 0.96957911E+03</totfact>
</mgrwt>
</event>
<event>
 5    1  0.3206665E-002  0.1250036E+03  0.7818608E-02  0.1235064E+00
          4   -1    0    0  501    0  0.00000000000E+00  0.00000000000E+00  0.11792367738E+02  0.11860558033E+02  0.12700000000E+01 0. -1.
         -4   -1    0    0    0  501 -0.00000000000E+00 -0.00000000000E+00 -0.33024677804E+03  0.33024921999E+03  0.12700000000E+01 0. -1.
         25    2    1    2    0    0  0.00000000000E+00  0.00000000000E+00 -0.31845441030E+03  0.34210977803E+03  0.12500355507E+03 0.  0.
    9000005    1    3    3    0    0 -0.25650161408E+02  0.40679163148E+02 -0.50003593186E+02  0.69383603439E+02  0.10000000000E+01 0.  0.
    9000005    1    3    3    0    0  0.25650161408E+02 -0.40679163148E+02 -0.26845081712E+03  0.27272617459E+03  0.10000000000E+01 0.  0.
<mgrwt>
<rscale>  0 0.12500356E+03</rscale>
<asrwt>0</asrwt>
<pdfrwt beam="1">  1        4 0.18196439E-02 0.12500356E+03</pdfrwt>
<pdfrwt beam="2">  1       -4 0.50812623E-01 0.12500356E+03</pdfrwt>
<totfact> 0.70595835E+03</totfact>
</mgrwt>
</event>
<event>
 5    1  0.3206665E-002  0.1249945E+03  0.7818608E-02  0.1235078E+00
          4   -1    0    0  501    0  0.00000000000E+00  0.00000000000E+00  0.48333509061E+02  0.48350191293E+02  0.12700000000E+01 0.  1.
         -4   -1    0    0    0  501 -0.00000000000E+00 -0.00000000000E+00 -0.80775934851E+02  0.80785918024E+02  0.12700000000E+01 0.  1.
         25    2    1    2    0    0  0.00000000000E+00  0.00000000000E+00 -0.32442425790E+02  0.12913610932E+03  0.12499449483E+03 0.  0.
    9000005    1    3    3    0    0  0.17837041274E+02  0.21725214246E+02 -0.73880487348E+02  0.79053598187E+02  0.10000000000E+01 0.  0.
    9000005    1    3    3    0    0 -0.17837041274E+02 -0.21725214246E+02  0.41438061558E+02  0.50082511131E+02  0.10000000000E+01 0.  0.
<mgrwt>
<rscale>  0 0.12499449E+03</rscale>
<asrwt>0</asrwt>
<pdfrwt beam="1">  1        4 0.74379757E-02 0.12499449E+03</pdfrwt>
<pdfrwt beam="2">  1       -4 0.12429118E-01 0.12499449E+03</pdfrwt>
<totfact> 0.10364311E+04</totfact>
</mgrwt>
</event>
<event>
 5    1  0.3206665E-002  0.1250033E+03  0.7818608E-02  0.1235064E+00
          4   -1    0    0  501    0  0.00000000000E+00  0.00000000000E+00  0.94912097463E+01  0.95758008777E+01  0.12700000000E+01 0. -1.
         -4   -1    0    0    0  501 -0.00000000000E+00 -0.00000000000E+00 -0.40967496564E+03  0.40967693415E+03  0.12700000000E+01 0. -1.
         25    2    1    2    0    0  0.00000000000E+00  0.00000000000E+00 -0.40018375590E+03  0.41925273503E+03  0.12500326934E+03 0.  0.
    9000005    1    3    3    0    0 -0.50894045233E+02 -0.32855961847E+02 -0.25158719470E+03  0.25877950963E+03  0.10000000000E+01 0.  0.
    9000005    1    3    3    0    0  0.50894045233E+02  0.32855961847E+02 -0.14859656120E+03  0.16047322540E+03  0.10000000000E+01 0.  0.
<mgrwt>
<rscale>  0 0.12500327E+03</rscale>
<asrwt>0</asrwt>
<pdfrwt beam="1">  1        4 0.14668449E-02 0.12500327E+03</pdfrwt>
<pdfrwt beam="2">  1       -4 0.63033563E-01 0.12500327E+03</pdfrwt>
<totfact> 0.62717878E+03</totfact>
</mgrwt>
</event>
<event>
 5    1  0.3206665E-002  0.1249936E+03  0.7818608E-02  0.1235079E+00
          4   -1    0    0  501    0  0.00000000000E+00  0.00000000000E+00  0.47516598392E+03  0.47516768111E+03  0.12700000000E+01 0. -1.
         -4   -1    0    0    0  501 -0.00000000000E+00 -0.00000000000E+00 -0.81691950694E+01  0.82673241186E+01  0.12700000000E+01 0. -1.
         25    2    1    2    0    0  0.00000000000E+00  0.00000000000E+00  0.46699678885E+03  0.48343500523E+03  0.12499361378E+03 0.  0.
    9000005    1    3    3    0    0  0.51832512091E+02  0.16478311821E+02  0.35250142417E+03  0.35667407827E+03  0.10000000000E+01 0.  0.
    9000005    1    3    3    0    0 -0.51832512091E+02 -0.16478311821E+02  0.11449536468E+03  0.12676092696E+03  0.10000000000E+01 0.  0.
<mgrwt>
<rscale>  0 0.12499361E+03</rscale>
<asrwt>0</asrwt>
<pdfrwt beam="1">  1        4 0.73110173E-01 0.12499361E+03</pdfrwt>
<pdfrwt beam="2">  1       -4 0.12644776E-02 0.12499361E+03</pdfrwt>
<totfact> 0.57180922E+03</totfact>
</mgrwt>
</event>
<event>
 5    1  0.3206665E-002  0.1249942E+03  0.7818608E-02  0.1235078E+00
          4   -1    0    0  501    0  0.00000000000E+00  0.00000000000E+00  0.24354268005E+03  0.24354599136E+03  0.12700000000E+01 0.  1.
         -4   -1    0    0    0  501 -0.00000000000E+00 -0.00000000000E+00 -0.16009219044E+02  0.16059514139E+02  0.12700000000E+01 0.  1.
         25    2    1    2    0    0  0.00000000000E+00  0.00000000000E+00  0.22753346101E+03  0.25960550550E+03  0.12499417029E+03 0.  0.
    9000005    1    3    3    0    0  0.29492750661E+02 -0.42744289328E+02  0.41580288349E+02  0.66534329416E+02  0.10000000000E+01 0.  0.
    9000005    1    3    3    0    0 -0.29492750661E+02  0.42744289328E+02  0.18595317266E+03  0.19307117608E+03  0.10000000000E+01 0.  0.
<mgrwt>
<rscale>  0 0.12499417E+03</rscale>
<asrwt>0</asrwt>
<pdfrwt beam="1">  1        4 0.37472232E-01 0.12499417E+03</pdfrwt>
<pdfrwt beam="2">  1       -4 0.24670801E-02 0.12499417E+03</pdfrwt>
<totfact> 0.80971958E+03</totfact>
</mgrwt>
</event>
<event>
 5    1  0.3206665E-002  0.1250009E+03  0.7818608E-02  0.1235068E+00
          4   -1    0    0  501    0  0.00000000000E+00  0.00000000000E+00  0.29922187536E+01  0.32505804204E+01  0.12700000000E+01 0. -1.
         -4   -1    0    0    0  501 -0.00000000000E+00 -0.00000000000E+00 -0.12512015523E+04  0.12512021969E+04  0.12700000000E+01 0. -1.
         25    2    1    2    0    0  0.00000000000E+00  0.00000000000E+00 -0.12482093336E+04  0.12544527773E+04  0.12500092010E+03 0.  0.
    9000005    1    3    3    0    0 -0.12394002795E+02 -0.38365728403E+02 -0.14493827760E+03  0.15044482289E+03  0.10000000000E+01 0.  0.
    9000005    1    3    3    0    0  0.12394002795E+02  0.38365728403E+02 -0.11032710560E+04  0.11040079544E+04  0.10000000000E+01 0.  0.
<mgrwt>
<rscale>  0 0.12500092E+03</rscale>
<asrwt>0</asrwt>
<pdfrwt beam="1">  1        4 0.48026590E-03 0.12500092E+03</pdfrwt>
<pdfrwt beam="2">  1       -4 0.19251207E+00 0.12500092E+03</pdfrwt>
<totfact> 0.23329266E+03</totfact>
</mgrwt>
</event>
<event>
 5    1  0.3206665E-002  0.1249717E+03  0.7818608E-02  0.1235113E+00
          4   -1    0    0  501    0  0.00000000000E+00  0.00000000000E+00  0.28143097369E+02  0.28171738135E+02  0.12700000000E+01 0. -1.
         -4   -1    0    0    0  501 -0.00000000000E+00 -0.00000000000E+00 -0.13863471261E+03  0.13864052957E+03  0.12700000000E+01 0. -1.
         25    2    1    2    0    0  0.00000000000E+00  0.00000000000E+00 -0.11049161524E+03  0.16681226770E+03  0.12497173928E+03 0.  0.
    9000005    1    3    3    0    0 -0.47507238697E+02  0.53509982473E+01 -0.15557643794E+01  0.47843404077E+02  0.10000000000E+01 0.  0.
    9000005    1    3    3    0    0  0.47507238697E+02 -0.53509982473E+01 -0.10893585086E+03  0.11896886363E+03  0.10000000000E+01 0.  0.
<mgrwt>
<rscale>  0 0.12497174E+03</rscale>
<asrwt>0</asrwt>
<pdfrwt beam="1">  1        4 0.43323580E-02 0.12497174E+03</pdfrwt>
<pdfrwt beam="2">  1       -4 0.21331067E-01 0.12497174E+03</pdfrwt>
<totfact> 0.96106264E+03</totfact>
</mgrwt>
</event>
<event>
 5    1  0.3206665E-002  0.1249996E+03  0.7818608E-02  0.1235070E+00
          4   -1    0    0  501    0  0.00000000000E+00  0.00000000000E+00  0.82018219986E+02  0.82028051968E+02  0.12700000000E+01 0.  1.
         -4   -1    0    0    0  501 -0.00000000000E+00 -0.00000000000E+00 -0.47605175634E+02  0.47622113006E+02  0.12700000000E+01 0.  1.
         25    2    1    2    0    0  0.00000000000E+00  0.00000000000E+00  0.34413044352E+02  0.12965016497E+03  0.12499963062E+03 0.  0.
    9000005    1    3    3    0    0 -0.61493919197E+02 -0.10110645792E+02  0.12397241596E+02  0.63548555104E+02  0.10000000000E+01 0.  0.
    9000005    1    3    3    0    0  0.61493919197E+02  0.10110645792E+02  0.22015802756E+02  0.66101609871E+02  0.10000000000E+01 0.  0.
<mgrwt>
<rscale>  0 0.12499963E+03</rscale>
<asrwt>0</asrwt>
<pdfrwt beam="1">  1        4 0.12620247E-01 0.12499963E+03</pdfrwt>
<pdfrwt beam="2">  1       -4 0.73259323E-02 0.12499963E+03</pdfrwt>
<totfact> 0.10352083E+04</totfact>
</mgrwt>
</event>
<event>
 5    1  0.3206665E-002  0.1250016E+03  0.7818608E-02  0.1235067E+00
         -4   -1    0    0    0  501 -0.00000000000E+00  0.00000000000E+00  0.21192586971E+02  0.21230606269E+02  0.12700000000E+01 0.  1.
          4   -1    0    0  501    0  0.00000000000E+00 -0.00000000000E+00 -0.18412078162E+03  0.18412516157E+03  0.12700000000E+01 0.  1.
         25    2    1    2    0    0  0.00000000000E+00  0.00000000000E+00 -0.16292819465E+03  0.20535576784E+03  0.12500157909E+03 0.  0.
    9000005    1    3    3    0    0 -0.33132958047E+02  0.21819718688E+02 -0.16078816684E+03  0.16561318675E+03  0.10000000000E+01 0.  0.
    9000005    1    3    3    0    0  0.33132958047E+02 -0.21819718688E+02 -0.21400278143E+01  0.39742581089E+02  0.10000000000E+01 0.  0.
<mgrwt>
<rscale>  0 0.12500158E+03</rscale>
<asrwt>0</asrwt>
<pdfrwt beam="2">  1        4 0.28329534E-01 0.12500158E+03</pdfrwt>
<pdfrwt beam="1">  1       -4 0.32636596E-02 0.12500158E+03</pdfrwt>
<totfact> 0.89236855E+03</totfact>
</mgrwt>
</event>
<event>
 5    1  0.3206665E-002  0.1249975E+03  0.7818608E-02  0.1235073E+00
          4   -1    0    0  501    0  0.00000000000E+00  0.00000000000E+00  0.16026862547E+02  0.16077102448E+02  0.12700000000E+01 0. -1.
         -4   -1    0    0    0  501 -0.00000000000E+00 -0.00000000000E+00 -0.24328841074E+03  0.24329172551E+03  0.12700000000E+01 0. -1.
         25    2    1    2    0    0  0.00000000000E+00  0.00000000000E+00 -0.22726154819E+03  0.25936882795E+03  0.12499751049E+03 0.  0.
    9000005    1    3    3    0    0  0.32163159727E+02  0.39869361074E+02 -0.18789866411E+03  0.19475867829E+03  0.10000000000E+01 0.  0.
    9000005    1    3    3    0    0 -0.32163159727E+02 -0.39869361074E+02 -0.39362884083E+02  0.64610149663E+02  0.10000000000E+01 0.  0.
<mgrwt>
<rscale>  0 0.12499751E+03</rscale>
<asrwt>0</asrwt>
<pdfrwt beam="1">  1        4 0.24697909E-02 0.12499751E+03</pdfrwt>
<pdfrwt beam="2">  1       -4 0.37433103E-01 0.12499751E+03</pdfrwt>
<totfact> 0.80999208E+03</totfact>
</mgrwt>
</event>
<event>
 5    1  0.3206665E-002  0.1250027E+03  0.7818608E-02  0.1235065E+00
         -4   -1    0    0    0  501 -0.00000000000E+00  0.00000000000E+00  0.49930185898E+02  0.49946334838E+02  0.12700000000E+01 0.  1.
          4   -1    0    0  501    0  0.00000000000E+00 -0.00000000000E+00 -0.78203635855E+02  0.78213947355E+02  0.12700000000E+01 0.  1.
         25    2    1    2    0    0  0.00000000000E+00  0.00000000000E+00 -0.28273449957E+02  0.12816028219E+03  0.12500267981E+03 0.  0.
    9000005    1    3    3    0    0  0.56186443899E+02 -0.16126596866E+02 -0.36795531150E+02  0.69078902112E+02  0.10000000000E+01 0.  0.
    9000005    1    3    3    0    0 -0.56186443899E+02  0.16126596866E+02  0.85220811928E+01  0.59081380081E+02  0.10000000000E+01 0.  0.
<mgrwt>
<rscale>  0 0.12500268E+03</rscale>
<asrwt>0</asrwt>
<pdfrwt beam="2">  1        4 0.12033364E-01 0.12500268E+03</pdfrwt>
<pdfrwt beam="1">  1       -4 0.76836024E-02 0.12500268E+03</pdfrwt>
<totfact> 0.10383399E+04</totfact>
</mgrwt>
</event>
<event>
 5    1  0.3206665E-002  0.1250008E+03  0.7818608E-02  0.1235068E+00
          4   -1    0    0  501    0  0.00000000000E+00  0.00000000000E+00  0.49378994286E+03  0.49379157604E+03  0.12700000000E+01 0. -1.
         -4   -1    0    0    0  501 -0.00000000000E+00 -0.00000000000E+00 -0.78582288801E+01  0.79601922798E+01  0.12700000000E+01 0. -1.
         25    2    1    2    0    0  0.00000000000E+00  0.00000000000E+00  0.48593171398E+03  0.50175176832E+03  0.12500082545E+03 0.  0.
    9000005    1    3    3    0    0 -0.31838043494E+02 -0.53773065640E+02  0.24422236138E+03  0.25209277141E+03  0.10000000000E+01 0.  0.
    9000005    1    3    3    0    0  0.31838043494E+02  0.53773065640E+02  0.24170935260E+03  0.24965899691E+03  0.10000000000E+01 0.  0.
<mgrwt>
<rscale>  0 0.12500083E+03</rscale>
<asrwt>0</asrwt>
<pdfrwt beam="1">  1        4 0.75975637E-01 0.12500083E+03</pdfrwt>
<pdfrwt beam="2">  1       -4 0.12169275E-02 0.12500083E+03</pdfrwt>
<totfact> 0.55727701E+03</totfact>
</mgrwt>
</event>
<event>
 5    1  0.3206665E-002  0.1249996E+03  0.7818608E-02  0.1235070E+00
         -4   -1    0    0    0  501 -0.00000000000E+00  0.00000000000E+00  0.58390454317E+02  0.58404264017E+02  0.12700000000E+01 0.  1.
          4   -1    0    0  501    0  0.00000000000E+00 -0.00000000000E+00 -0.66870575351E+02  0.66882634127E+02  0.12700000000E+01 0.  1.
         25    2    1    2    0    0  0.00000000000E+00  0.00000000000E+00 -0.84801210336E+01  0.12528689814E+03  0.12499957757E+03 0.  0.
    9000005    1    3    3    0    0 -0.31976434894E+01  0.59748727497E+02  0.13831586677E+02  0.61420258477E+02  0.10000000000E+01 0.  0.
    9000005    1    3    3    0    0  0.31976434894E+01 -0.59748727497E+02 -0.22311707711E+02  0.63866639667E+02  0.10000000000E+01 0.  0.
<mgrwt>
<rscale>  0 0.12499958E+03</rscale>
<asrwt>0</asrwt>
<pdfrwt beam="2">  1        4 0.10289771E-01 0.12499958E+03</pdfrwt>
<pdfrwt beam="1">  1       -4 0.89851367E-02 0.12499958E+03</pdfrwt>
<totfact> 0.10446734E+04</totfact>
</mgrwt>
</event>
<event>
 5    1  0.3206665E-002  0.1249977E+03  0.7818608E-02  0.1235073E+00
         -4   -1    0    0    0  501 -0.00000000000E+00  0.00000000000E+00  0.11111710014E+03  0.11112435756E+03  0.12700000000E+01 0. -1.
          4   -1    0    0  501    0  0.00000000000E+00 -0.00000000000E+00 -0.35133209626E+02  0.35156156198E+02  0.12700000000E+01 0. -1.
         25    2    1    2    0    0  0.00000000000E+00  0.00000000000E+00  0.75983890517E+02  0.14628051376E+03  0.12499774833E+03 0.  0.
    9000005    1    3    3    0    0 -0.61525871746E+02  0.10439084944E+02  0.41820319621E+02  0.75128866102E+02  0.10000000000E+01 0.  0.
    9000005    1    3    3    0    0  0.61525871746E+02 -0.10439084944E+02  0.34163570896E+02  0.71151647661E+02  0.10000000000E+01 0.  0.
<mgrwt>
<rscale>  0 0.12499775E+03</rscale>
<asrwt>0</asrwt>
<pdfrwt beam="2">  1        4 0.54074326E-02 0.12499775E+03</pdfrwt>
<pdfrwt beam="1">  1       -4 0.17097262E-01 0.12499775E+03</pdfrwt>
<totfact> 0.10005543E+04</totfact>
</mgrwt>
</event>
<event>
 5    1  0.3206665E-002  0.1250033E+03  0.7818608E-02  0.1235064E+00
          4   -1    0    0  501    0  0.00000000000E+00  0.00000000000E+00  0.68787642458E+03  0.68787759695E+03  0.12700000000E+01 0.  1.
         -4   -1    0    0    0  501 -0.00000000000E+00 -0.00000000000E+00 -0.56068124367E+01  0.57488473367E+01  0.12700000000E+01 0.  1.
         25    2    1    2    0    0  0.00000000000E+00  0.00000000000E+00  0.68226961214E+03  0.69362644429E+03  0.12500328222E+03 0.  0.
    9000005    1    3    3    0    0 -0.21399731346E+02 -0.34928277742E+02  0.79247027440E+02  0.89213364726E+02  0.10000000000E+01 0.  0.
    9000005    1    3    3    0    0  0.21399731346E+02  0.34928277742E+02  0.60302258470E+03  0.60441307956E+03  0.10000000000E+01 0.  0.
<mgrwt>
<rscale>  0 0.12500328E+03</rscale>
<asrwt>0</asrwt>
<pdfrwt beam="1">  1        4 0.10583827E+00 0.12500328E+03</pdfrwt>
<pdfrwt beam="2">  1       -4 0.87360158E-03 0.12500328E+03</pdfrwt>
<totfact> 0.43422125E+03</totfact>
</mgrwt>
</event>
<event>
 4    1  0.3206665E-002  0.1251727E+03  0.7818608E-02  0.1234800E+00
         -4   -1    0    0    0  501 -0.00000000000E+00  0.00000000000E+00  0.17020317620E+03  0.17020791430E+03  0.12700000000E+01 0. -1.
          4   -1    0    0  501    0  0.00000000000E+00 -0.00000000000E+00 -0.22991394107E+02  0.23026443559E+02  0.12700000000E+01 0. -1.
    9000005    1    1    2    0    0  0.78624413855E+01 -0.26025432396E+02  0.16061750038E+03  0.16290525634E+03  0.10000000000E+01 0.  0.
    9000005    1    1    2    0    0 -0.78624413855E+01  0.26025432396E+02 -0.13405718284E+02  0.30329101514E+02  0.10000000000E+01 0.  0.
<mgrwt>
<rscale>  0 0.12517271E+03</rscale>
<asrwt>0</asrwt>
<pdfrwt beam="2">  1        4 0.35401983E-02 0.12517271E+03</pdfrwt>
<pdfrwt beam="1">  1       -4 0.26188163E-01 0.12517271E+03</pdfrwt>
<totfact> 0.90935410E+03</totfact>
</mgrwt>
</event>
<event>
 5    1  0.3206665E-002  0.1250012E+03  0.7818608E-02  0.1235067E+00
         -4   -1    0    0    0  501 -0.00000000000E+00  0.00000000000E+00  0.14831145174E+01  0.19525697610E+01  0.12700000000E+01 0.  1.
          4   -1    0    0  501    0  0.00000000000E+00 -0.00000000000E+00 -0.22735038982E+04  0.22735042529E+04  0.12700000000E+01 0.  1.
         25    2    1    2    0    0  0.00000000000E+00  0.00000000000E+00 -0.22720207837E+04  0.22754568227E+04  0.12500124153E+03 0.  0.
    9000005    1    3    3    0    0 -0.37028596155E+02  0.44280305812E+02 -0.15719314000E+04  0.15729911598E+04  0.10000000000E+01 0.  0.
    9000005    1    3    3    0    0  0.37028596155E+02 -0.44280305812E+02 -0.70008938364E+03  0.70246566287E+03  0.10000000000E+01 0.  0.
<mgrwt>
<rscale>  0 0.12500124E+03</rscale>
<asrwt>0</asrwt>
<pdfrwt beam="2">  1        4 0.34980356E+00 0.12500124E+03</pdfrwt>
<pdfrwt beam="1">  1       -4 0.26431251E-03 0.12500124E+03</pdfrwt>
<totfact> 0.66806978E+02</totfact>
</mgrwt>
</event>
<event>
 5    1  0.3206665E-002  0.1249992E+03  0.7818608E-02  0.1235070E+00
          4   -1    0    0  501    0  0.00000000000E+00  0.00000000000E+00  0.15958018203E+02  0.16008474161E+02  0.12700000000E+01 0.  1.
         -4   -1    0    0    0  501 -0.00000000000E+00 -0.00000000000E+00 -0.24434143037E+03  0.24434473085E+03  0.12700000000E+01 0.  1.
         25    2    1    2    0    0  0.00000000000E+00  0.00000000000E+00 -0.22838341217E+03  0.26035320502E+03  0.12499923363E+03 0.  0.
    9000005    1    3    3    0    0  0.61543865835E+02  0.93348619475E+01 -0.10270488859E+03  0.12010029646E+03  0.10000000000E+01 0.  0.
    9000005    1    3    3    0    0 -0.61543865835E+02 -0.93348619475E+01 -0.12567852357E+03  0.14025290855E+03  0.10000000000E+01 0.  0.
<mgrwt>
<rscale>  0 0.12499923E+03</rscale>
<asrwt>0</asrwt>
<pdfrwt beam="1">  1        4 0.24592150E-02 0.12499923E+03</pdfrwt>
<pdfrwt beam="2">  1       -4 0.37595122E-01 0.12499923E+03</pdfrwt>
<totfact> 0.80857899E+03</totfact>
</mgrwt>
</event>
<event>
 5    1  0.3206665E-002  0.1250063E+03  0.7818608E-02  0.1235059E+00
          4   -1    0    0  501    0  0.00000000000E+00  0.00000000000E+00  0.20151806168E+03  0.20152206352E+03  0.12700000000E+01 0.  1.
         -4   -1    0    0    0  501 -0.00000000000E+00 -0.00000000000E+00 -0.19361080064E+02  0.19402688506E+02  0.12700000000E+01 0.  1.
         25    2    1    2    0    0  0.00000000000E+00  0.00000000000E+00  0.18215698162E+03  0.22092475202E+03  0.12500632026E+03 0.  0.
    9000005    1    3    3    0    0 -0.71855957291E+01  0.34356338771E+02  0.18246140959E+03  0.18580946367E+03  0.10000000000E+01 0.  0.
    9000005    1    3    3    0    0  0.71855957291E+01 -0.34356338771E+02 -0.30442797202E+00  0.35115288353E+02  0.10000000000E+01 0.  0.
<mgrwt>
<rscale>  0 0.12500632E+03</rscale>
<asrwt>0</asrwt>
<pdfrwt beam="1">  1        4 0.31006285E-01 0.12500632E+03</pdfrwt>
<pdfrwt beam="2">  1       -4 0.29821364E-02 0.12500632E+03</pdfrwt>
<totfact> 0.86709991E+03</totfact>
</mgrwt>
</event>
<event>
 5    1  0.3206665E-002  0.1249965E+03  0.7818608E-02  0.1235075E+00
          4   -1    0    0  501    0  0.00000000000E+00  0.00000000000E+00  0.16889028807E+02  0.16936711429E+02  0.12700000000E+01 0. -1.
         -4   -1    0    0    0  501 -0.00000000000E+00 -0.00000000000E+00 -0.23090084432E+03  0.23090433692E+03  0.12700000000E+01 0. -1.
         25    2    1    2    0    0  0.00000000000E+00  0.00000000000E+00 -0.21401181552E+03  0.24784104835E+03  0.12499651222E+03 0.  0.
    9000005    1    3    3    0    0  0.38018710998E+01  0.58410060327E+02 -0.63617695795E+02  0.86454615780E+02  0.10000000000E+01 0.  0.
    9000005    1    3    3    0    0 -0.38018710998E+01 -0.58410060327E+02 -0.15039411972E+03  0.16138643257E+03  0.10000000000E+01 0.  0.
<mgrwt>
<rscale>  0 0.12499651E+03</rscale>
<asrwt>0</asrwt>
<pdfrwt beam="1">  1        4 0.26022488E-02 0.12499651E+03</pdfrwt>
<pdfrwt beam="2">  1       -4 0.35527141E-01 0.12499651E+03</pdfrwt>
<totfact> 0.82649691E+03</totfact>
</mgrwt>
</event>
<event>
 5    1  0.3206665E-002  0.1250016E+03  0.7818608E-02  0.1235067E+00
          4   -1    0    0  501    0  0.00000000000E+00  0.00000000000E+00  0.89168003588E+02  0.89177047293E+02  0.12700000000E+01 0.  1.
         -4   -1    0    0    0  501 -0.00000000000E+00 -0.00000000000E+00 -0.43788378340E+02  0.43806791456E+02  0.12700000000E+01 0.  1.
         25    2    1    2    0    0  0.00000000000E+00  0.00000000000E+00  0.45379625248E+02  0.13298383875E+03  0.12500156391E+03 0.  0.
    9000005    1    3    3    0    0 -0.31866978823E+02 -0.79690267273E+01  0.79247998253E+02  0.85791928253E+02  0.10000000000E+01 0.  0.
    9000005    1    3    3    0    0  0.31866978823E+02  0.79690267273E+01 -0.33868373005E+02  0.47191910496E+02  0.10000000000E+01 0.  0.
<mgrwt>
<rscale>  0 0.12500156E+03</rscale>
<asrwt>0</asrwt>
<pdfrwt beam="1">  1        4 0.13720266E-01 0.12500156E+03</pdfrwt>
<pdfrwt beam="2">  1       -4 0.67387857E-02 0.12500156E+03</pdfrwt>
<totfact> 0.10280381E+04</totfact>
</mgrwt>
</event>
<event>
 5    1  0.3206665E-002  0.1249994E+03  0.7818608E-02  0.1235070E+00
          4   -1    0    0  501    0  0.00000000000E+00  0.00000000000E+00  0.18767971298E+03  0.18768400988E+03  0.12700000000E+01 0.  1.
         -4   -1    0    0    0  501 -0.00000000000E+00 -0.00000000000E+00 -0.20789259901E+02  0.20828015442E+02  0.12700000000E+01 0.  1.
         25    2    1    2    0    0  0.00000000000E+00  0.00000000000E+00  0.16689045308E+03  0.20851202532E+03  0.12499936550E+03 0.  0.
    9000005    1    3    3    0    0 -0.26703413704E+02  0.54560374667E+02  0.10792170308E+03  0.12384668257E+03  0.10000000000E+01 0.  0.
    9000005    1    3    3    0    0  0.26703413704E+02 -0.54560374667E+02  0.58968750000E+02  0.84665342755E+02  0.10000000000E+01 0.  0.
<mgrwt>
<rscale>  0 0.12499937E+03</rscale>
<asrwt>0</asrwt>
<pdfrwt beam="1">  1        4 0.28877113E-01 0.12499937E+03</pdfrwt>
<pdfrwt beam="2">  1       -4 0.32016594E-02 0.12499937E+03</pdfrwt>
<totfact> 0.88720723E+03</totfact>
</mgrwt>
</event>
<event>
 5    1  0.3206665E-002  0.1250006E+03  0.7818608E-02  0.1235068E+00
         -4   -1    0    0    0  501 -0.00000000000E+00  0.00000000000E+00  0.11787961670E+03  0.11788645780E+03  0.12700000000E+01 0. -1.
          4   -1    0    0  501    0  0.00000000000E+00 -0.00000000000E+00 -0.33117955660E+02  0.33142297554E+02  0.12700000000E+01 0. -1.
         25    2    1    2    0    0  0.00000000000E+00  0.00000000000E+00  0.84761661036E+02  0.15102875535E+03  0.12500058305E+03 0.  0.
    9000005    1    3    3    0    0 -0.12563243144E+02 -0.57482970642E+02  0.16946072443E+02  0.61239663319E+02  0.10000000000E+01 0.  0.
    9000005    1    3    3    0    0  0.12563243144E+02  0.57482970642E+02  0.67815588593E+02  0.89789092034E+02  0.10000000000E+01 0.  0.
<mgrwt>
<rscale>  0 0.12500058E+03</rscale>
<asrwt>0</asrwt>
<pdfrwt beam="2">  1        4 0.50974688E-02 0.12500058E+03</pdfrwt>
<pdfrwt beam="1">  1       -4 0.18137724E-01 0.12500058E+03</pdfrwt>
<totfact> 0.99097725E+03</totfact>
</mgrwt>
</event>
<event>
 5    1  0.3206665E-002  0.1250034E+03  0.7818608E-02  0.1235064E+00
          4   -1    0    0  501    0  0.00000000000E+00  0.00000000000E+00  0.10520066885E+04  0.10520074551E+04  0.12700000000E+01 0. -1.
         -4   -1    0    0    0  501 -0.00000000000E+00 -0.00000000000E+00 -0.36039672709E+01  0.38211883086E+01  0.12700000000E+01 0. -1.
         25    2    1    2    0    0  0.00000000000E+00  0.00000000000E+00  0.10484027213E+04  0.10558286434E+04  0.12500343325E+03 0.  0.
    9000005    1    3    3    0    0  0.32366104420E+02 -0.49039051448E+02  0.70398690702E+03  0.70643538879E+03  0.10000000000E+01 0.  0.
    9000005    1    3    3    0    0 -0.32366104420E+02  0.49039051448E+02  0.34441581425E+03  0.34939325464E+03  0.10000000000E+01 0.  0.
<mgrwt>
<rscale>  0 0.12500343E+03</rscale>
<asrwt>0</asrwt>
<pdfrwt beam="1">  1        4 0.16186395E+00 0.12500343E+03</pdfrwt>
<pdfrwt beam="2">  1       -4 0.57122478E-03 0.12500343E+03</pdfrwt>
<totfact> 0.28811313E+03</totfact>
</mgrwt>
</event>
<event>
 5    1  0.3206665E-002  0.1250011E+03  0.7818608E-02  0.1235068E+00
         -4   -1    0    0    0  501 -0.00000000000E+00  0.00000000000E+00  0.16141882664E+03  0.16142382257E+03  0.12700000000E+01 0. -1.
          4   -1    0    0  501    0  0.00000000000E+00 -0.00000000000E+00 -0.24177863936E+02  0.24211195850E+02  0.12700000000E+01 0. -1.
         25    2    1    2    0    0  0.00000000000E+00  0.00000000000E+00  0.13724096271E+03  0.18563501842E+03  0.12500111288E+03 0.  0.
    9000005    1    3    3    0    0  0.70503919266E+01 -0.26608140101E+02 -0.14697178669E+02  0.31220317212E+02  0.10000000000E+01 0.  0.
    9000005    1    3    3    0    0 -0.70503919266E+01  0.26608140101E+02  0.15193814137E+03  0.15441470121E+03  0.10000000000E+01 0.  0.
<mgrwt>
<rscale>  0 0.12500111E+03</rscale>
<asrwt>0</asrwt>
<pdfrwt beam="2">  1        4 0.37226197E-02 0.12500111E+03</pdfrwt>
<pdfrwt beam="1">  1       -4 0.24836614E-01 0.12500111E+03</pdfrwt>
<totfact> 0.92610093E+03</totfact>
</mgrwt>
</event>
<event>
 5    1  0.3206665E-002  0.1250023E+03  0.7818608E-02  0.1235066E+00
          4   -1    0    0  501    0  0.00000000000E+00  0.00000000000E+00  0.99700981794E+02  0.99709070153E+02  0.12700000000E+01 0.  1.
         -4   -1    0    0    0  501 -0.00000000000E+00 -0.00000000000E+00 -0.39161144045E+02  0.39181731749E+02  0.12700000000E+01 0.  1.
         25    2    1    2    0    0  0.00000000000E+00  0.00000000000E+00  0.60539837750E+02  0.13889080190E+03  0.12500233157E+03 0.  0.
    9000005    1    3    3    0    0 -0.56078811485E+02 -0.15230298299E+02  0.55815701615E+02  0.80580317887E+02  0.10000000000E+01 0.  0.
    9000005    1    3    3    0    0  0.56078811485E+02  0.15230298299E+02  0.47241361342E+01  0.58310484015E+02  0.10000000000E+01 0.  0.
<mgrwt>
<rscale>  0 0.12500233E+03</rscale>
<asrwt>0</asrwt>
<pdfrwt beam="1">  1        4 0.15340818E-01 0.12500233E+03</pdfrwt>
<pdfrwt beam="2">  1       -4 0.60269973E-02 0.12500233E+03</pdfrwt>
<totfact> 0.10156093E+04</totfact>
</mgrwt>
</event>
<event>
 5    1  0.3206665E-002  0.1249987E+03  0.7818608E-02  0.1235071E+00
          4   -1    0    0  501    0  0.00000000000E+00  0.00000000000E+00  0.29406469079E+03  0.29406743320E+03  0.12700000000E+01 0.  1.
         -4   -1    0    0    0  501 -0.00000000000E+00 -0.00000000000E+00 -0.13250205605E+02  0.13310929666E+02  0.12700000000E+01 0.  1.
         25    2    1    2    0    0  0.00000000000E+00  0.00000000000E+00  0.28081448518E+03  0.30737836287E+03  0.12499873147E+03 0.  0.
    9000005    1    3    3    0    0  0.78175369081E+01  0.11960793453E+01  0.29284121200E+03  0.29294968840E+03  0.10000000000E+01 0.  0.
    9000005    1    3    3    0    0 -0.78175369081E+01 -0.11960793453E+01 -0.12026726812E+02  0.14428674468E+02  0.10000000000E+01 0.  0.
<mgrwt>
<rscale>  0 0.12499873E+03</rscale>
<asrwt>0</asrwt>
<pdfrwt beam="1">  1        4 0.45245600E-01 0.12499873E+03</pdfrwt>
<pdfrwt beam="2">  1       -4 0.20433754E-02 0.12499873E+03</pdfrwt>
<totfact> 0.74684638E+03</totfact>
</mgrwt>
</event>
<event>
 5    1  0.3206665E-002  0.1249841E+03  0.7818608E-02  0.1235094E+00
          4   -1    0    0  501    0  0.00000000000E+00  0.00000000000E+00  0.38365354707E+03  0.38365564909E+03  0.12700000000E+01 0. -1.
         -4   -1    0    0    0  501 -0.00000000000E+00 -0.00000000000E+00 -0.10137376139E+02  0.10216618569E+02  0.12700000000E+01 0. -1.
         25    2    1    2    0    0  0.00000000000E+00  0.00000000000E+00  0.37351617093E+03  0.39387226766E+03  0.12498413213E+03 0.  0.
    9000005    1    3    3    0    0 -0.21170254219E+02 -0.58597954566E+02  0.17185690506E+03  0.18280507586E+03  0.10000000000E+01 0.  0.
    9000005    1    3    3    0    0  0.21170254219E+02  0.58597954566E+02  0.20165926587E+03  0.21106719180E+03  0.10000000000E+01 0.  0.
<mgrwt>
<rscale>  0 0.12498413E+03</rscale>
<asrwt>0</asrwt>
<pdfrwt beam="1">  1        4 0.59029876E-01 0.12498413E+03</pdfrwt>
<pdfrwt beam="2">  1       -4 0.15658537E-02 0.12498413E+03</pdfrwt>
<totfact> 0.65175996E+03</totfact>
</mgrwt>
</event>
<event>
 5    1  0.3206665E-002  0.1250021E+03  0.7818608E-02  0.1235066E+00
          4   -1    0    0  501    0  0.00000000000E+00  0.00000000000E+00  0.29840463756E+03  0.29840734008E+03  0.12700000000E+01 0. -1.
         -4   -1    0    0    0  501 -0.00000000000E+00 -0.00000000000E+00 -0.13057311197E+02  0.13118928146E+02  0.12700000000E+01 0. -1.
         25    2    1    2    0    0  0.00000000000E+00  0.00000000000E+00  0.28534732636E+03  0.31152626823E+03  0.12500207653E+03 0.  0.
    9000005    1    3    3    0    0 -0.45739453124E+02 -0.85834632722E+01  0.38728822042E+02  0.60553241619E+02  0.10000000000E+01 0.  0.
    9000005    1    3    3    0    0  0.45739453124E+02  0.85834632722E+01  0.24661850432E+03  0.25097302661E+03  0.10000000000E+01 0.  0.
<mgrwt>
<rscale>  0 0.12500208E+03</rscale>
<asrwt>0</asrwt>
<pdfrwt beam="1">  1        4 0.45913350E-01 0.12500208E+03</pdfrwt>
<pdfrwt beam="2">  1       -4 0.20137649E-02 0.12500208E+03</pdfrwt>
<totfact> 0.74171968E+03</totfact>
</mgrwt>
</event>
<event>
 5    1  0.3206665E-002  0.1249949E+03  0.7818608E-02  0.1235077E+00
          4   -1    0    0  501    0  0.00000000000E+00  0.00000000000E+00  0.59193307777E+02  0.59206930216E+02  0.12700000000E+01 0.  1.
         -4   -1    0    0    0  501 -0.00000000000E+00 -0.00000000000E+00 -0.65958735673E+02  0.65970961123E+02  0.12700000000E+01 0.  1.
         25    2    1    2    0    0  0.00000000000E+00  0.00000000000E+00 -0.67654278956E+01  0.12517789134E+03  0.12499493376E+03 0.  0.
    9000005    1    3    3    0    0 -0.47985243595E+02  0.23699048889E+02  0.28924462901E+02  0.60842855580E+02  0.10000000000E+01 0.  0.
    9000005    1    3    3    0    0  0.47985243595E+02 -0.23699048889E+02 -0.35689890797E+02  0.64335035759E+02  0.10000000000E+01 0.  0.
<mgrwt>
<rscale>  0 0.12499493E+03</rscale>
<asrwt>0</asrwt>
<pdfrwt beam="1">  1        4 0.91086511E-02 0.12499493E+03</pdfrwt>
<pdfrwt beam="2">  1       -4 0.10149486E-01 0.12499493E+03</pdfrwt>
<totfact> 0.10450197E+04</totfact>
</mgrwt>
</event>
<event>
 4    1  0.3206665E-002  0.1251647E+03  0.7818608E-02  0.1234812E+00
          4   -1    0    0  501    0  0.00000000000E+00  0.00000000000E+00  0.40560905756E+03  0.40561104580E+03  0.12700000000E+01 0.  1.
         -4   -1    0    0    0  501 -0.00000000000E+00 -0.00000000000E+00 -0.96121927304E+01  0.96957283938E+01  0.12700000000E+01 0.  1.
    9000005    1    1    2    0    0 -0.55489257828E+02 -0.21505514772E+02  0.13382933815E+03  0.14646786900E+03  0.10000000000E+01 0.  0.
    9000005    1    1    2    0    0  0.55489257828E+02  0.21505514772E+02  0.26216752668E+03  0.26883890519E+03  0.10000000000E+01 0.  0.
<mgrwt>
<rscale>  0 0.12516469E+03</rscale>
<asrwt>0</asrwt>
<pdfrwt beam="1">  1        4 0.62407983E-01 0.12516469E+03</pdfrwt>
<pdfrwt beam="2">  1       -4 0.14853774E-02 0.12516469E+03</pdfrwt>
<totfact> 0.62862113E+03</totfact>
</mgrwt>
</event>
<event>
 5    1  0.3206665E-002  0.1250133E+03  0.7818608E-02  0.1235048E+00
          4   -1    0    0  501    0  0.00000000000E+00  0.00000000000E+00  0.62040853201E+02  0.62053850532E+02  0.12700000000E+01 0.  1.
         -4   -1    0    0    0  501 -0.00000000000E+00 -0.00000000000E+00 -0.62949990149E+02  0.62962799808E+02  0.12700000000E+01 0.  1.
         25    2    1    2    0    0  0.00000000000E+00  0.00000000000E+00 -0.90913694812E+00  0.12501665034E+03  0.12501334462E+03 0.  0.
    9000005    1    3    3    0    0 -0.23570663862E+02 -0.27399964863E+02 -0.51443658540E+02  0.62879124305E+02  0.10000000000E+01 0.  0.
    9000005    1    3    3    0    0  0.23570663862E+02  0.27399964863E+02  0.50534521592E+02  0.62137526036E+02  0.10000000000E+01 0.  0.
<mgrwt>
<rscale>  0 0.12501334E+03</rscale>
<asrwt>0</asrwt>
<pdfrwt beam="1">  1        4 0.95467318E-02 0.12501334E+03</pdfrwt>
<pdfrwt beam="2">  1       -4 0.96865990E-02 0.12501334E+03</pdfrwt>
<totfact> 0.10449349E+04</totfact>
</mgrwt>
</event>
<event>
 5    1  0.3206665E-002  0.1249977E+03  0.7818608E-02  0.1235073E+00
          4   -1    0    0  501    0  0.00000000000E+00  0.00000000000E+00  0.10291213235E+03  0.10291996834E+03  0.12700000000E+01 0. -1.
         -4   -1    0    0    0  501 -0.00000000000E+00 -0.00000000000E+00 -0.37935834896E+02  0.37957087207E+02  0.12700000000E+01 0. -1.
         25    2    1    2    0    0  0.00000000000E+00  0.00000000000E+00  0.64976297450E+02  0.14087705555E+03  0.12499770218E+03 0.  0.
    9000005    1    3    3    0    0  0.48826038184E+02 -0.33313448802E+01  0.76283753145E+02  0.90638241694E+02  0.10000000000E+01 0.  0.
    9000005    1    3    3    0    0 -0.48826038184E+02  0.33313448802E+01 -0.11307455695E+02  0.50238813857E+02  0.10000000000E+01 0.  0.
<mgrwt>
<rscale>  0 0.12499770E+03</rscale>
<asrwt>0</asrwt>
<pdfrwt beam="1">  1        4 0.15834873E-01 0.12499770E+03</pdfrwt>
<pdfrwt beam="2">  1       -4 0.58385199E-02 0.12499770E+03</pdfrwt>
<totfact> 0.10115964E+04</totfact>
</mgrwt>
</event>
<event>
 5    1  0.3206665E-002  0.1249932E+03  0.7818608E-02  0.1235080E+00
          4   -1    0    0  501    0  0.00000000000E+00  0.00000000000E+00  0.14682608120E+04  0.14682613613E+04  0.12700000000E+01 0. -1.
         -4   -1    0    0    0  501 -0.00000000000E+00 -0.00000000000E+00 -0.25080109594E+01  0.28112308643E+01  0.12700000000E+01 0. -1.
         25    2    1    2    0    0  0.00000000000E+00  0.00000000000E+00  0.14657528010E+04  0.14710725921E+04  0.12499318992E+03 0.  0.
    9000005    1    3    3    0    0 -0.46093550788E+02 -0.13336352488E+02  0.12039909688E+04  0.12049471884E+04  0.10000000000E+01 0.  0.
    9000005    1    3    3    0    0  0.46093550788E+02  0.13336352488E+02  0.26176183222E+03  0.26612540377E+03  0.10000000000E+01 0.  0.
<mgrwt>
<rscale>  0 0.12499319E+03</rscale>
<asrwt>0</asrwt>
<pdfrwt beam="1">  1        4 0.22591040E+00 0.12499319E+03</pdfrwt>
<pdfrwt beam="2">  1       -4 0.40921332E-03 0.12499319E+03</pdfrwt>
<totfact> 0.18507878E+03</totfact>
</mgrwt>
</event>
<event>
 5    1  0.3206665E-002  0.1249998E+03  0.7818608E-02  0.1235070E+00
          4   -1    0    0  501    0  0.00000000000E+00  0.00000000000E+00  0.11353002438E+02  0.11423815665E+02  0.12700000000E+01 0.  1.
         -4   -1    0    0    0  501 -0.00000000000E+00 -0.00000000000E+00 -0.34292914547E+03  0.34293149712E+03  0.12700000000E+01 0.  1.
         25    2    1    2    0    0  0.00000000000E+00  0.00000000000E+00 -0.33157614303E+03  0.35435531278E+03  0.12499979627E+03 0.  0.
    9000005    1    3    3    0    0 -0.53373204128E+02 -0.28547896321E+02 -0.20984746609E+03  0.21840476260E+03  0.10000000000E+01 0.  0.
    9000005    1    3    3    0    0  0.53373204128E+02  0.28547896321E+02 -0.12172867695E+03  0.13595055018E+03  0.10000000000E+01 0.  0.
<mgrwt>
<rscale>  0 0.12499980E+03</rscale>
<asrwt>0</asrwt>
<pdfrwt beam="1">  1        4 0.17522441E-02 0.12499980E+03</pdfrwt>
<pdfrwt beam="2">  1       -4 0.52763950E-01 0.12499980E+03</pdfrwt>
<totfact> 0.69248377E+03</totfact>
</mgrwt>
</event>
<event>
 5    1  0.3206665E-002  0.1250021E+03  0.7818608E-02  0.1235066E+00
          4   -1    0    0  501    0  0.00000000000E+00  0.00000000000E+00  0.23732560464E+02  0.23766516913E+02  0.12700000000E+01 0.  1.
         -4   -1    0    0    0  501 -0.00000000000E+00 -0.00000000000E+00 -0.16444610120E+03  0.16445100517E+03  0.12700000000E+01 0.  1.
         25    2    1    2    0    0  0.00000000000E+00  0.00000000000E+00 -0.14071354074E+03  0.18821752208E+03  0.12500214027E+03 0.  0.
    9000005    1    3    3    0    0  0.33355310026E+02  0.42853330039E+02 -0.11692204802E+03  0.12892148741E+03  0.10000000000E+01 0.  0.
    9000005    1    3    3    0    0 -0.33355310026E+02 -0.42853330039E+02 -0.23791492723E+02  0.59296034677E+02  0.10000000000E+01 0.  0.
<mgrwt>
<rscale>  0 0.12500214E+03</rscale>
<asrwt>0</asrwt>
<pdfrwt beam="1">  1        4 0.36541525E-02 0.12500214E+03</pdfrwt>
<pdfrwt beam="2">  1       -4 0.25302389E-01 0.12500214E+03</pdfrwt>
<totfact> 0.92153969E+03</totfact>
</mgrwt>
</event>
<event>
 5    1  0.3206665E-002  0.1249976E+03  0.7818608E-02  0.1235073E+00
         -4   -1    0    0    0  501 -0.00000000000E+00  0.00000000000E+00  0.51399422643E+02  0.51415110114E+02  0.12700000000E+01 0.  1.
          4   -1    0    0  501    0  0.00000000000E+00 -0.00000000000E+00 -0.75962397975E+02  0.75973013670E+02  0.12700000000E+01 0.  1.
         25    2    1    2    0    0  0.00000000000E+00  0.00000000000E+00 -0.24562975332E+02  0.12738812378E+03  0.12499757727E+03 0.  0.
    9000005    1    3    3    0    0  0.42513618145E+02  0.35279324128E+02  0.17484285726E+02  0.57954626097E+02  0.10000000000E+01 0.  0.
    9000005    1    3    3    0    0 -0.42513618145E+02 -0.35279324128E+02 -0.42047261058E+02  0.69433497688E+02  0.10000000000E+01 0.  0.
<mgrwt>
<rscale>  0 0.12499758E+03</rscale>
<asrwt>0</asrwt>
<pdfrwt beam="2">  1        4 0.11688546E-01 0.12499758E+03</pdfrwt>
<pdfrwt beam="1">  1       -4 0.79096268E-02 0.12499758E+03</pdfrwt>
<totfact> 0.10401293E+04</totfact>
</mgrwt>
</event>
<event>
 5    1  0.3206665E-002  0.1250056E+03  0.7818608E-02  0.1235060E+00
         -4   -1    0    0    0  501 -0.00000000000E+00  0.00000000000E+00  0.44803191238E+02  0.44821187457E+02  0.12700000000E+01 0.  1.
          4   -1    0    0  501    0  0.00000000000E+00 -0.00000000000E+00 -0.87154616707E+02  0.87163869312E+02  0.12700000000E+01 0.  1.
         25    2    1    2    0    0  0.00000000000E+00  0.00000000000E+00 -0.42351425470E+02  0.13198505677E+03  0.12500564776E+03 0.  0.
    9000005    1    3    3    0    0  0.48924391898E+01  0.47771573281E+02 -0.63403001632E+02  0.79542440187E+02  0.10000000000E+01 0.  0.
    9000005    1    3    3    0    0 -0.48924391898E+01 -0.47771573281E+02  0.21051576163E+02  0.52442616581E+02  0.10000000000E+01 0.  0.
<mgrwt>
<rscale>  0 0.12500565E+03</rscale>
<asrwt>0</asrwt>
<pdfrwt beam="2">  1        4 0.13410499E-01 0.12500565E+03</pdfrwt>
<pdfrwt beam="1">  1       -4 0.68948947E-02 0.12500565E+03</pdfrwt>
<totfact> 0.10300705E+04</totfact>
</mgrwt>
</event>
<event>
 5    1  0.3206665E-002  0.1249989E+03  0.7818608E-02  0.1235071E+00
         -4   -1    0    0    0  501 -0.00000000000E+00  0.00000000000E+00  0.71699571056E+02  0.71710817801E+02  0.12700000000E+01 0. -1.
          4   -1    0    0  501    0  0.00000000000E+00 -0.00000000000E+00 -0.54456897078E+02  0.54471704025E+02  0.12700000000E+01 0. -1.
         25    2    1    2    0    0  0.00000000000E+00  0.00000000000E+00  0.17242673978E+02  0.12618252183E+03  0.12499887603E+03 0.  0.
    9000005    1    3    3    0    0  0.55256119044E+01 -0.28213083613E+02  0.64632503018E+02  0.70745112342E+02  0.10000000000E+01 0.  0.
    9000005    1    3    3    0    0 -0.55256119044E+01  0.28213083613E+02 -0.47389829040E+02  0.55437409484E+02  0.10000000000E+01 0.  0.
<mgrwt>
<rscale>  0 0.12499888E+03</rscale>
<asrwt>0</asrwt>
<pdfrwt beam="2">  1        4 0.83799883E-02 0.12499888E+03</pdfrwt>
<pdfrwt beam="1">  1       -4 0.11032707E-01 0.12499888E+03</pdfrwt>
<totfact> 0.10427226E+04</totfact>
</mgrwt>
</event>
<event>
 5    1  0.3206665E-002  0.1249970E+03  0.7818608E-02  0.1235074E+00
          4   -1    0    0  501    0  0.00000000000E+00  0.00000000000E+00  0.20918005358E+03  0.20918390884E+03  0.12700000000E+01 0.  1.
         -4   -1    0    0    0  501 -0.00000000000E+00 -0.00000000000E+00 -0.18647591109E+02  0.18690787949E+02  0.12700000000E+01 0.  1.
         25    2    1    2    0    0  0.00000000000E+00  0.00000000000E+00  0.19053246247E+03  0.22787469679E+03  0.12499703268E+03 0.  0.
    9000005    1    3    3    0    0 -0.18621024924E+02  0.59633357735E+02  0.92571692333E+02  0.11168436840E+03  0.10000000000E+01 0.  0.
    9000005    1    3    3    0    0  0.18621024924E+02 -0.59633357735E+02  0.97960770141E+02  0.11619032839E+03  0.10000000000E+01 0.  0.
<mgrwt>
<rscale>  0 0.12499703E+03</rscale>
<asrwt>0</asrwt>
<pdfrwt beam="1">  1        4 0.32185167E-01 0.12499703E+03</pdfrwt>
<pdfrwt beam="2">  1       -4 0.28724795E-02 0.12499703E+03</pdfrwt>
<totfact> 0.85642681E+03</totfact>
</mgrwt>
</event>
<event>
 5    1  0.3206665E-002  0.1250033E+03  0.7818608E-02  0.1235064E+00
          4   -1    0    0  501    0  0.00000000000E+00  0.00000000000E+00  0.24658589683E+03  0.24658916727E+03  0.12700000000E+01 0. -1.
         -4   -1    0    0    0  501 -0.00000000000E+00 -0.00000000000E+00 -0.15813334385E+02  0.15864250514E+02  0.12700000000E+01 0. -1.
         25    2    1    2    0    0  0.00000000000E+00  0.00000000000E+00  0.23077256244E+03  0.26245341778E+03  0.12500328367E+03 0.  0.
    9000005    1    3    3    0    0 -0.32073483315E+02 -0.12984789590E+02  0.61249371368E+01  0.35154344647E+02  0.10000000000E+01 0.  0.
    9000005    1    3    3    0    0  0.32073483315E+02  0.12984789590E+02  0.22464762530E+03  0.22729907313E+03  0.10000000000E+01 0.  0.
<mgrwt>
<rscale>  0 0.12500328E+03</rscale>
<asrwt>0</asrwt>
<pdfrwt beam="1">  1        4 0.37940460E-01 0.12500328E+03</pdfrwt>
<pdfrwt beam="2">  1       -4 0.24369888E-02 0.12500328E+03</pdfrwt>
<totfact> 0.80557098E+03</totfact>
</mgrwt>
</event>
<event>
 5    1  0.3206665E-002  0.1250481E+03  0.7818608E-02  0.1234994E+00
          4   -1    0    0  501    0  0.00000000000E+00  0.00000000000E+00  0.30381520404E+04  0.30381523059E+04  0.12700000000E+01 0.  1.
         -4   -1    0    0    0  501 -0.00000000000E+00 -0.00000000000E+00 -0.97301836639E+00  0.15998952282E+01  0.12700000000E+01 0.  1.
         25    2    1    2    0    0  0.00000000000E+00  0.00000000000E+00  0.30371790221E+04  0.30397522011E+04  0.12504811883E+03 0.  0.
    9000005    1    3    3    0    0  0.12411359201E+02  0.53979790319E+02  0.22232884682E+04  0.22239785233E+04  0.10000000000E+01 0.  0.
    9000005    1    3    3    0    0 -0.12411359201E+02 -0.53979790319E+02  0.81389055390E+03  0.81577367776E+03  0.10000000000E+01 0.  0.
<mgrwt>
<rscale>  0 0.12504812E+03</rscale>
<asrwt>0</asrwt>
<pdfrwt beam="1">  1        4 0.46745087E+00 0.12504812E+03</pdfrwt>
<pdfrwt beam="2">  1       -4 0.19793912E-03 0.12504812E+03</pdfrwt>
<totfact> 0.16697836E+02</totfact>
</mgrwt>
</event>
<event>
 5    1  0.3206665E-002  0.1250003E+03  0.7818608E-02  0.1235069E+00
         -4   -1    0    0    0  501 -0.00000000000E+00  0.00000000000E+00  0.10820050186E+02  0.10894328159E+02  0.12700000000E+01 0.  1.
          4   -1    0    0  501    0  0.00000000000E+00 -0.00000000000E+00 -0.35971084634E+03  0.35971308828E+03  0.12700000000E+01 0.  1.
         25    2    1    2    0    0  0.00000000000E+00  0.00000000000E+00 -0.34889079616E+03  0.37060741644E+03  0.12500027789E+03 0.  0.
    9000005    1    3    3    0    0 -0.30384777242E+02 -0.54458048700E+02 -0.16245565235E+03  0.17401653007E+03  0.10000000000E+01 0.  0.
    9000005    1    3    3    0    0  0.30384777242E+02  0.54458048700E+02 -0.18643514380E+03  0.19659088636E+03  0.10000000000E+01 0.  0.
<mgrwt>
<rscale>  0 0.12500028E+03</rscale>
<asrwt>0</asrwt>
<pdfrwt beam="2">  1        4 0.55346007E-01 0.12500028E+03</pdfrwt>
<pdfrwt beam="1">  1       -4 0.16705095E-02 0.12500028E+03</pdfrwt>
<totfact> 0.67515027E+03</totfact>
</mgrwt>
</event>
<event>
 5    1  0.3206665E-002  0.1250017E+03  0.7818608E-02  0.1235067E+00
         -4   -1    0    0    0  501 -0.00000000000E+00  0.00000000000E+00  0.88147053904E+02  0.88156202345E+02  0.12700000000E+01 0. -1.
          4   -1    0    0  501    0  0.00000000000E+00 -0.00000000000E+00 -0.44295788302E+02  0.44313990581E+02  0.12700000000E+01 0. -1.
         25    2    1    2    0    0  0.00000000000E+00  0.00000000000E+00  0.43851265602E+02  0.13247019293E+03  0.12500167407E+03 0.  0.
    9000005    1    3    3    0    0 -0.22876118819E+02 -0.48172118616E+02  0.56452663466E+02  0.77664490191E+02  0.10000000000E+01 0.  0.
    9000005    1    3    3    0    0  0.22876118819E+02  0.48172118616E+02 -0.12601397864E+02  0.54805702735E+02  0.10000000000E+01 0.  0.
<mgrwt>
<rscale>  0 0.12500167E+03</rscale>
<asrwt>0</asrwt>
<pdfrwt beam="2">  1        4 0.68168407E-02 0.12500167E+03</pdfrwt>
<pdfrwt beam="1">  1       -4 0.13563189E-01 0.12500167E+03</pdfrwt>
<totfact> 0.10291284E+04</totfact>
</mgrwt>
</event>
<event>
 5    1  0.3206665E-002  0.1249993E+03  0.7818608E-02  0.1235070E+00
         -4   -1    0    0    0  501 -0.00000000000E+00  0.00000000000E+00  0.36138644012E+02  0.36160952574E+02  0.12700000000E+01 0.  1.
          4   -1    0    0  501    0  0.00000000000E+00 -0.00000000000E+00 -0.10803013280E+03  0.10803759759E+03  0.12700000000E+01 0.  1.
         25    2    1    2    0    0  0.00000000000E+00  0.00000000000E+00 -0.71891488790E+02  0.14419855016E+03  0.12499934284E+03 0.  0.
    9000005    1    3    3    0    0 -0.16444295674E+01 -0.21116109882E+02 -0.10376900258E+03  0.10591317266E+03  0.10000000000E+01 0.  0.
    9000005    1    3    3    0    0  0.16444295674E+01  0.21116109882E+02  0.31877513794E+02  0.38285377507E+02  0.10000000000E+01 0.  0.
<mgrwt>
<rscale>  0 0.12499934E+03</rscale>
<asrwt>0</asrwt>
<pdfrwt beam="2">  1        4 0.16622311E-01 0.12499934E+03</pdfrwt>
<pdfrwt beam="1">  1       -4 0.55620817E-02 0.12499934E+03</pdfrwt>
<totfact> 0.10047446E+04</totfact>
</mgrwt>
</event>
<event>
 5    1  0.3206665E-002  0.1249963E+03  0.7818608E-02  0.1235075E+00
          4   -1    0    0  501    0  0.00000000000E+00  0.00000000000E+00  0.88603908963E+02  0.88613010238E+02  0.12700000000E+01 0.  1.
         -4   -1    0    0    0  501 -0.00000000000E+00 -0.00000000000E+00 -0.44063517461E+02  0.44081815650E+02  0.12700000000E+01 0.  1.
         25    2    1    2    0    0  0.00000000000E+00  0.00000000000E+00  0.44540391502E+02  0.13269482589E+03  0.12499628131E+03 0.  0.
    9000005    1    3    3    0    0  0.24380526012E+02  0.23891451992E+02 -0.33296785911E+02  0.47695780515E+02  0.10000000000E+01 0.  0.
    9000005    1    3    3    0    0 -0.24380526012E+02 -0.23891451992E+02  0.77837177413E+02  0.84999045374E+02  0.10000000000E+01 0.  0.
<mgrwt>
<rscale>  0 0.12499628E+03</rscale>
<asrwt>0</asrwt>
<pdfrwt beam="1">  1        4 0.13633478E-01 0.12499628E+03</pdfrwt>
<pdfrwt beam="2">  1       -4 0.67811105E-02 0.12499628E+03</pdfrwt>
<totfact> 0.10287753E+04</totfact>
</mgrwt>
</event>
<event>
 5    1  0.3206665E-002  0.1250005E+03  0.7818608E-02  0.1235069E+00
         -4   -1    0    0    0  501 -0.00000000000E+00  0.00000000000E+00  0.23461233461E+03  0.23461577195E+03  0.12700000000E+01 0.  1.
          4   -1    0    0  501    0  0.00000000000E+00 -0.00000000000E+00 -0.16622149159E+02  0.16670595151E+02  0.12700000000E+01 0.  1.
         25    2    1    2    0    0  0.00000000000E+00  0.00000000000E+00  0.21799018545E+03  0.25128636710E+03  0.12500046936E+03 0.  0.
    9000005    1    3    3    0    0  0.66784009047E+01  0.48368147611E+02  0.18740131457E+03  0.19366035072E+03  0.10000000000E+01 0.  0.
    9000005    1    3    3    0    0 -0.66784009047E+01 -0.48368147611E+02  0.30588870881E+02  0.57626016379E+02  0.10000000000E+01 0.  0.
<mgrwt>
<rscale>  0 0.12500047E+03</rscale>
<asrwt>0</asrwt>
<pdfrwt beam="2">  1        4 0.25612447E-02 0.12500047E+03</pdfrwt>
<pdfrwt beam="1">  1       -4 0.36098197E-01 0.12500047E+03</pdfrwt>
<totfact> 0.82143802E+03</totfact>
</mgrwt>
</event>
<event>
 5    1  0.3206665E-002  0.1249998E+03  0.7818608E-02  0.1235070E+00
          4   -1    0    0  501    0  0.00000000000E+00  0.00000000000E+00  0.51948914117E+02  0.51964435703E+02  0.12700000000E+01 0.  1.
         -4   -1    0    0    0  501 -0.00000000000E+00 -0.00000000000E+00 -0.75161744964E+02  0.75172473726E+02  0.12700000000E+01 0.  1.
         25    2    1    2    0    0  0.00000000000E+00  0.00000000000E+00 -0.23212830848E+02  0.12713690943E+03  0.12499983289E+03 0.  0.
    9000005    1    3    3    0    0 -0.19023962116E+02  0.50565863931E+02  0.20337897689E+02  0.57736018326E+02  0.10000000000E+01 0.  0.
    9000005    1    3    3    0    0  0.19023962116E+02 -0.50565863931E+02 -0.43550728537E+02  0.69400891102E+02  0.10000000000E+01 0.  0.
<mgrwt>
<rscale>  0 0.12499983E+03</rscale>
<asrwt>0</asrwt>
<pdfrwt beam="1">  1        4 0.79941599E-02 0.12499983E+03</pdfrwt>
<pdfrwt beam="2">  1       -4 0.11565365E-01 0.12499983E+03</pdfrwt>
<totfact> 0.10406212E+04</totfact>
</mgrwt>
</event>
<event>
 5    1  0.3206665E-002  0.1249950E+03  0.7818608E-02  0.1235077E+00
          4   -1    0    0  501    0  0.00000000000E+00  0.00000000000E+00  0.16829309771E+02  0.16877161117E+02  0.12700000000E+01 0.  1.
         -4   -1    0    0    0  501 -0.00000000000E+00 -0.00000000000E+00 -0.23171231632E+03  0.23171579669E+03  0.12700000000E+01 0.  1.
         25    2    1    2    0    0  0.00000000000E+00  0.00000000000E+00 -0.21488300655E+03  0.24859295780E+03  0.12499500857E+03 0.  0.
    9000005    1    3    3    0    0 -0.20534562580E+02  0.56858470755E+02 -0.75971302685E+02  0.97093731974E+02  0.10000000000E+01 0.  0.
    9000005    1    3    3    0    0  0.20534562580E+02 -0.56858470755E+02 -0.13891170386E+03  0.15149922583E+03  0.10000000000E+01 0.  0.
<mgrwt>
<rscale>  0 0.12499501E+03</rscale>
<asrwt>0</asrwt>
<pdfrwt beam="1">  1        4 0.25930733E-02 0.12499501E+03</pdfrwt>
<pdfrwt beam="2">  1       -4 0.35651995E-01 0.12499501E+03</pdfrwt>
<totfact> 0.82543195E+03</totfact>
</mgrwt>
</event>
<event>
 5    1  0.3206665E-002  0.1250024E+03  0.7818608E-02  0.1235066E+00
          4   -1    0    0  501    0  0.00000000000E+00  0.00000000000E+00  0.57861808302E+02  0.57875744142E+02  0.12700000000E+01 0. -1.
         -4   -1    0    0    0  501 -0.00000000000E+00 -0.00000000000E+00 -0.67484516493E+02  0.67496465584E+02  0.12700000000E+01 0. -1.
         25    2    1    2    0    0  0.00000000000E+00  0.00000000000E+00 -0.96227081906E+01  0.12537220973E+03  0.12500237781E+03 0.  0.
    9000005    1    3    3    0    0  0.45518182023E+02 -0.53363334128E+01 -0.47422546407E+02  0.65956646797E+02  0.10000000000E+01 0.  0.
    9000005    1    3    3    0    0 -0.45518182023E+02  0.53363334128E+01  0.37799838216E+02  0.59415562929E+02  0.10000000000E+01 0.  0.
<mgrwt>
<rscale>  0 0.12500238E+03</rscale>
<asrwt>0</asrwt>
<pdfrwt beam="1">  1        4 0.89038077E-02 0.12500238E+03</pdfrwt>
<pdfrwt beam="2">  1       -4 0.10384225E-01 0.12500238E+03</pdfrwt>
<totfact> 0.10444222E+04</totfact>
</mgrwt>
</event>
<event>
 5    1  0.3206665E-002  0.1250036E+03  0.7818608E-02  0.1235064E+00
          4   -1    0    0  501    0  0.00000000000E+00  0.00000000000E+00  0.57607580102E+02  0.57621577427E+02  0.12700000000E+01 0.  1.
         -4   -1    0    0    0  501 -0.00000000000E+00 -0.00000000000E+00 -0.67783589270E+02  0.67795485649E+02  0.12700000000E+01 0.  1.
         25    2    1    2    0    0  0.00000000000E+00  0.00000000000E+00 -0.10176009168E+02  0.12541706308E+03  0.12500355414E+03 0.  0.
    9000005    1    3    3    0    0 -0.12667307508E+01  0.61051332708E+02 -0.18421144880E+02  0.63790347318E+02  0.10000000000E+01 0.  0.
    9000005    1    3    3    0    0  0.12667307508E+01 -0.61051332708E+02  0.82451357118E+01  0.61626715758E+02  0.10000000000E+01 0.  0.
<mgrwt>
<rscale>  0 0.12500355E+03</rscale>
<asrwt>0</asrwt>
<pdfrwt beam="1">  1        4 0.88646965E-02 0.12500355E+03</pdfrwt>
<pdfrwt beam="2">  1       -4 0.10430236E-01 0.12500355E+03</pdfrwt>
<totfact> 0.10442952E+04</totfact>
</mgrwt>
</event>
<event>
 5    1  0.3206665E-002  0.1249912E+03  0.7818608E-02  0.1235083E+00
         -4   -1    0    0    0  501 -0.00000000000E+00  0.00000000000E+00  0.34031734334E+02  0.34055423089E+02  0.12700000000E+01 0. -1.
          4   -1    0    0  501    0  0.00000000000E+00 -0.00000000000E+00 -0.11469929781E+03  0.11470632859E+03  0.12700000000E+01 0. -1.
         25    2    1    2    0    0  0.00000000000E+00  0.00000000000E+00 -0.80667563474E+02  0.14876175167E+03  0.12499121155E+03 0.  0.
    9000005    1    3    3    0    0  0.15897693648E+02 -0.46609998658E+02  0.54451017191E+01  0.49556813567E+02  0.10000000000E+01 0.  0.
    9000005    1    3    3    0    0 -0.15897693648E+02  0.46609998658E+02 -0.86112665193E+02  0.99204938107E+02  0.10000000000E+01 0.  0.
<mgrwt>
<rscale>  0 0.12499121E+03</rscale>
<asrwt>0</asrwt>
<pdfrwt beam="2">  1        4 0.17648409E-01 0.12499121E+03</pdfrwt>
<pdfrwt beam="1">  1       -4 0.52380145E-02 0.12499121E+03</pdfrwt>
<totfact> 0.99570794E+03</totfact>
</mgrwt>
</event>
<event>
 5    1  0.3206665E-002  0.1249970E+03  0.7818608E-02  0.1235074E+00
          4   -1    0    0  501    0  0.00000000000E+00  0.00000000000E+00  0.22729668748E+02  0.22765121160E+02  0.12700000000E+01 0. -1.
         -4   -1    0    0    0  501 -0.00000000000E+00 -0.00000000000E+00 -0.17167697455E+03  0.17168167197E+03  0.12700000000E+01 0. -1.
         25    2    1    2    0    0  0.00000000000E+00  0.00000000000E+00 -0.14894730580E+03  0.19444679313E+03  0.12499702178E+03 0.  0.
    9000005    1    3    3    0    0  0.12820897743E+02  0.43511114758E+02 -0.76100192747E+01  0.46005487931E+02  0.10000000000E+01 0.  0.
    9000005    1    3    3    0    0 -0.12820897743E+02 -0.43511114758E+02 -0.14133728653E+03  0.14844130520E+03  0.10000000000E+01 0.  0.
<mgrwt>
<rscale>  0 0.12499702E+03</rscale>
<asrwt>0</asrwt>
<pdfrwt beam="1">  1        4 0.34999607E-02 0.12499702E+03</pdfrwt>
<pdfrwt beam="2">  1       -4 0.26414930E-01 0.12499702E+03</pdfrwt>
<totfact> 0.91085367E+03</totfact>
</mgrwt>
</event>
<event>
 5    1  0.3206665E-002  0.1249970E+03  0.7818608E-02  0.1235074E+00
         -4   -1    0    0    0  501 -0.00000000000E+00  0.00000000000E+00  0.16361540179E+03  0.16362033065E+03  0.12700000000E+01 0.  1.
          4   -1    0    0  501    0  0.00000000000E+00 -0.00000000000E+00 -0.23851249052E+02  0.23885036767E+02  0.12700000000E+01 0.  1.
         25    2    1    2    0    0  0.00000000000E+00  0.00000000000E+00  0.13976415273E+03  0.18750536742E+03  0.12499697764E+03 0.  0.
    9000005    1    3    3    0    0 -0.28800487556E+02 -0.45355626499E+02  0.22009564461E+02  0.58069112843E+02  0.10000000000E+01 0.  0.
    9000005    1    3    3    0    0  0.28800487556E+02  0.45355626499E+02  0.11775458827E+03  0.12943625457E+03  0.10000000000E+01 0.  0.
<mgrwt>
<rscale>  0 0.12499698E+03</rscale>
<asrwt>0</asrwt>
<pdfrwt beam="2">  1        4 0.36724012E-02 0.12499698E+03</pdfrwt>
<pdfrwt beam="1">  1       -4 0.25174578E-01 0.12499698E+03</pdfrwt>
<totfact> 0.92289442E+03</totfact>
</mgrwt>
</event>
<event>
 5    1  0.3206665E-002  0.1250003E+03  0.7818608E-02  0.1235069E+00
          4   -1    0    0  501    0  0.00000000000E+00  0.00000000000E+00  0.71059161167E+02  0.71070509255E+02  0.12700000000E+01 0.  1.
         -4   -1    0    0    0  501 -0.00000000000E+00 -0.00000000000E+00 -0.54949003647E+02  0.54963678023E+02  0.12700000000E+01 0.  1.
         25    2    1    2    0    0  0.00000000000E+00  0.00000000000E+00  0.16110157520E+02  0.12603418728E+03  0.12500031675E+03 0.  0.
    9000005    1    3    3    0    0 -0.34333765946E+02 -0.29665654937E+02  0.51380367740E+02  0.68555092853E+02  0.10000000000E+01 0.  0.
    9000005    1    3    3    0    0  0.34333765946E+02  0.29665654937E+02 -0.35270210220E+02  0.57479094425E+02  0.10000000000E+01 0.  0.
<mgrwt>
<rscale>  0 0.12500032E+03</rscale>
<asrwt>0</asrwt>
<pdfrwt beam="1">  1        4 0.10934180E-01 0.12500032E+03</pdfrwt>
<pdfrwt beam="2">  1       -4 0.84556946E-02 0.12500032E+03</pdfrwt>
<totfact> 0.10430133E+04</totfact>
</mgrwt>
</event>
<event>
 5    1  0.3206665E-002  0.1250118E+03  0.7818608E-02  0.1235051E+00
          4   -1    0    0  501    0  0.00000000000E+00  0.00000000000E+00  0.87119505967E+02  0.87128762300E+02  0.12700000000E+01 0. -1.
         -4   -1    0    0    0  501 -0.00000000000E+00 -0.00000000000E+00 -0.44825637814E+02  0.44843625026E+02  0.12700000000E+01 0. -1.
         25    2    1    2    0    0  0.00000000000E+00  0.00000000000E+00  0.42293868152E+02  0.13197238733E+03  0.12501175838E+03 0.  0.
    9000005    1    3    3    0    0 -0.17176898183E+02  0.60032530897E+02  0.23946842124E+02  0.66883494562E+02  0.10000000000E+01 0.  0.
    9000005    1    3    3    0    0  0.17176898183E+02 -0.60032530897E+02  0.18347026029E+02  0.65088892764E+02  0.10000000000E+01 0.  0.
<mgrwt>
<rscale>  0 0.12501176E+03</rscale>
<asrwt>0</asrwt>
<pdfrwt beam="1">  1        4 0.13405096E-01 0.12501176E+03</pdfrwt>
<pdfrwt beam="2">  1       -4 0.68983477E-02 0.12501176E+03</pdfrwt>
<totfact> 0.10299556E+04</totfact>
</mgrwt>
</event>
<event>
 5    1  0.3206665E-002  0.1249845E+03  0.7818608E-02  0.1235093E+00
         -4   -1    0    0    0  501 -0.00000000000E+00  0.00000000000E+00  0.66517483611E+02  0.66529606386E+02  0.12700000000E+01 0.  1.
          4   -1    0    0  501    0  0.00000000000E+00 -0.00000000000E+00 -0.58686291118E+02  0.58700031219E+02  0.12700000000E+01 0.  1.
         25    2    1    2    0    0  0.00000000000E+00  0.00000000000E+00  0.78311924932E+01  0.12522963761E+03  0.12498453728E+03 0.  0.
    9000005    1    3    3    0    0 -0.28132339706E+02 -0.53776562493E+02 -0.10977483057E+02  0.61683485190E+02  0.10000000000E+01 0.  0.
    9000005    1    3    3    0    0  0.28132339706E+02  0.53776562493E+02  0.18808675550E+02  0.63546152416E+02  0.10000000000E+01 0.  0.
<mgrwt>
<rscale>  0 0.12498454E+03</rscale>
<asrwt>0</asrwt>
<pdfrwt beam="2">  1        4 0.90306496E-02 0.12498454E+03</pdfrwt>
<pdfrwt beam="1">  1       -4 0.10235448E-01 0.12498454E+03</pdfrwt>
<totfact> 0.10451529E+04</totfact>
</mgrwt>
</event>
<event>
 5    1  0.3206665E-002  0.1249977E+03  0.7818608E-02  0.1235073E+00
         -4   -1    0    0    0  501 -0.00000000000E+00  0.00000000000E+00  0.16205263693E+02  0.16254952211E+02  0.12700000000E+01 0.  1.
          4   -1    0    0  501    0  0.00000000000E+00 -0.00000000000E+00 -0.24061892939E+03  0.24062228093E+03  0.12700000000E+01 0.  1.
         25    2    1    2    0    0  0.00000000000E+00  0.00000000000E+00 -0.22441366570E+03  0.25687723315E+03  0.12499767820E+03 0.  0.
    9000005    1    3    3    0    0  0.45481484907E+02 -0.35124151890E+02 -0.16266393590E+03  0.17251906433E+03  0.10000000000E+01 0.  0.
    9000005    1    3    3    0    0 -0.45481484907E+02  0.35124151890E+02 -0.61749729802E+02  0.84358168816E+02  0.10000000000E+01 0.  0.
<mgrwt>
<rscale>  0 0.12499768E+03</rscale>
<asrwt>0</asrwt>
<pdfrwt beam="2">  1        4 0.37022374E-01 0.12499768E+03</pdfrwt>
<pdfrwt beam="1">  1       -4 0.24971977E-02 0.12499768E+03</pdfrwt>
<totfact> 0.81350510E+03</totfact>
</mgrwt>
</event>
<event>
 5    1  0.3206665E-002  0.1249945E+03  0.7818608E-02  0.1235078E+00
         -4   -1    0    0    0  501 -0.00000000000E+00  0.00000000000E+00  0.32040932585E+01  0.34466090015E+01  0.12700000000E+01 0.  1.
          4   -1    0    0  501    0  0.00000000000E+00 -0.00000000000E+00 -0.11743409239E+04  0.11743416106E+04  0.12700000000E+01 0.  1.
         25    2    1    2    0    0  0.00000000000E+00  0.00000000000E+00 -0.11711368306E+04  0.11777882196E+04  0.12499445670E+03 0.  0.
    9000005    1    3    3    0    0 -0.39021538955E+02  0.44913896817E+02 -0.76558064671E+03  0.76788974810E+03  0.10000000000E+01 0.  0.
    9000005    1    3    3    0    0  0.39021538955E+02 -0.44913896817E+02 -0.40555618391E+03  0.40989847149E+03  0.10000000000E+01 0.  0.
<mgrwt>
<rscale>  0 0.12499446E+03</rscale>
<asrwt>0</asrwt>
<pdfrwt beam="2">  1        4 0.18068621E+00 0.12499446E+03</pdfrwt>
<pdfrwt beam="1">  1       -4 0.51164624E-03 0.12499446E+03</pdfrwt>
<totfact> 0.25304773E+03</totfact>
</mgrwt>
</event>
<event>
 5    1  0.3206665E-002  0.1250001E+03  0.7818608E-02  0.1235069E+00
          4   -1    0    0  501    0  0.00000000000E+00  0.00000000000E+00  0.20232985317E+03  0.20233383895E+03  0.12700000000E+01 0.  1.
         -4   -1    0    0    0  501 -0.00000000000E+00 -0.00000000000E+00 -0.19281302397E+02  0.19323082625E+02  0.12700000000E+01 0.  1.
         25    2    1    2    0    0  0.00000000000E+00  0.00000000000E+00  0.18304855078E+03  0.22165692158E+03  0.12500007577E+03 0.  0.
    9000005    1    3    3    0    0 -0.53148945592E+02  0.31495522118E+02  0.74844709097E+02  0.97054154011E+02  0.10000000000E+01 0.  0.
    9000005    1    3    3    0    0  0.53148945592E+02 -0.31495522118E+02  0.10820384168E+03  0.12460276757E+03  0.10000000000E+01 0.  0.
<mgrwt>
<rscale>  0 0.12500008E+03</rscale>
<asrwt>0</asrwt>
<pdfrwt beam="1">  1        4 0.31131188E-01 0.12500008E+03</pdfrwt>
<pdfrwt beam="2">  1       -4 0.29698749E-02 0.12500008E+03</pdfrwt>
<totfact> 0.86606696E+03</totfact>
</mgrwt>
</event>
<event>
 5    1  0.3206665E-002  0.1250012E+03  0.7818608E-02  0.1235067E+00
          4   -1    0    0  501    0  0.00000000000E+00  0.00000000000E+00  0.79085095785E+03  0.79085197758E+03  0.12700000000E+01 0. -1.
         -4   -1    0    0    0  501 -0.00000000000E+00 -0.00000000000E+00 -0.48567210391E+01  0.50200238298E+01  0.12700000000E+01 0. -1.
         25    2    1    2    0    0  0.00000000000E+00  0.00000000000E+00  0.78599423681E+03  0.79587200141E+03  0.12500120927E+03 0.  0.
    9000005    1    3    3    0    0 -0.20155401965E+02 -0.58682730763E+02  0.44039641717E+03  0.44474701502E+03  0.10000000000E+01 0.  0.
    9000005    1    3    3    0    0  0.20155401965E+02  0.58682730763E+02  0.34559781965E+03  0.35112498638E+03  0.10000000000E+01 0.  0.
<mgrwt>
<rscale>  0 0.12500121E+03</rscale>
<asrwt>0</asrwt>
<pdfrwt beam="1">  1        4 0.12168197E+00 0.12500121E+03</pdfrwt>
<pdfrwt beam="2">  1       -4 0.75982837E-03 0.12500121E+03</pdfrwt>
<totfact> 0.38448674E+03</totfact>
</mgrwt>
</event>
<event>
 5    1  0.3206665E-002  0.1249924E+03  0.7818608E-02  0.1235081E+00
         -4   -1    0    0    0  501 -0.00000000000E+00  0.00000000000E+00  0.10836283126E+02  0.10910450586E+02  0.12700000000E+01 0.  1.
          4   -1    0    0  501    0  0.00000000000E+00 -0.00000000000E+00 -0.35913008876E+03  0.35913233432E+03  0.12700000000E+01 0.  1.
         25    2    1    2    0    0  0.00000000000E+00  0.00000000000E+00 -0.34829380563E+03  0.37004278490E+03  0.12499235023E+03 0.  0.
    9000005    1    3    3    0    0  0.46696190013E+02 -0.31344863234E+01 -0.29672876059E+03  0.30039859608E+03  0.10000000000E+01 0.  0.
    9000005    1    3    3    0    0 -0.46696190013E+02  0.31344863234E+01 -0.51565045040E+02  0.69644188819E+02  0.10000000000E+01 0.  0.
<mgrwt>
<rscale>  0 0.12499235E+03</rscale>
<asrwt>0</asrwt>
<pdfrwt beam="2">  1        4 0.55256652E-01 0.12499235E+03</pdfrwt>
<pdfrwt beam="1">  1       -4 0.16729987E-02 0.12499235E+03</pdfrwt>
<totfact> 0.67585895E+03</totfact>
</mgrwt>
</event>
<event>
 5    1  0.3206665E-002  0.1250002E+03  0.7818608E-02  0.1235069E+00
         -4   -1    0    0    0  501 -0.00000000000E+00  0.00000000000E+00  0.30793005418E+01  0.33309145631E+01  0.12700000000E+01 0. -1.
          4   -1    0    0  501    0  0.00000000000E+00 -0.00000000000E+00 -0.12185104147E+04  0.12185110766E+04  0.12700000000E+01 0. -1.
         25    2    1    2    0    0  0.00000000000E+00  0.00000000000E+00 -0.12154311142E+04  0.12218419911E+04  0.12500023176E+03 0.  0.
    9000005    1    3    3    0    0  0.54102320913E+02  0.18623937519E+02 -0.85332220316E+03  0.85523896928E+03  0.10000000000E+01 0.  0.
    9000005    1    3    3    0    0 -0.54102320913E+02 -0.18623937519E+02 -0.36210891102E+03  0.36660302183E+03  0.10000000000E+01 0.  0.
<mgrwt>
<rscale>  0 0.12500023E+03</rscale>
<asrwt>0</asrwt>
<pdfrwt beam="2">  1        4 0.18748218E+00 0.12500023E+03</pdfrwt>
<pdfrwt beam="1">  1       -4 0.49314535E-03 0.12500023E+03</pdfrwt>
<totfact> 0.24148035E+03</totfact>
</mgrwt>
</event>
<event>
 5    1  0.3206665E-002  0.1249997E+03  0.7818608E-02  0.1235070E+00
          4   -1    0    0  501    0  0.00000000000E+00  0.00000000000E+00  0.82288733131E+01  0.83262990580E+01  0.12700000000E+01 0.  1.
         -4   -1    0    0    0  501 -0.00000000000E+00 -0.00000000000E+00 -0.47180630445E+03  0.47180801373E+03  0.12700000000E+01 0.  1.
         25    2    1    2    0    0  0.00000000000E+00  0.00000000000E+00 -0.46357743114E+03  0.48013431279E+03  0.12499969462E+03 0.  0.
    9000005    1    3    3    0    0 -0.21775273305E+02  0.44292039297E+01 -0.45613729887E+03  0.45667933585E+03  0.10000000000E+01 0.  0.
    9000005    1    3    3    0    0  0.21775273305E+02 -0.44292039297E+01 -0.74401322711E+01  0.23454976938E+02  0.10000000000E+01 0.  0.
<mgrwt>
<rscale>  0 0.12499969E+03</rscale>
<asrwt>0</asrwt>
<pdfrwt beam="1">  1        4 0.12736066E-02 0.12499969E+03</pdfrwt>
<pdfrwt beam="2">  1       -4 0.72593190E-01 0.12499969E+03</pdfrwt>
<totfact> 0.57439725E+03</totfact>
</mgrwt>
</event>
<event>
 5    1  0.3206665E-002  0.1249999E+03  0.7818608E-02  0.1235069E+00
          4   -1    0    0  501    0  0.00000000000E+00  0.00000000000E+00  0.12687922178E+03  0.12688557767E+03  0.12700000000E+01 0. -1.
         -4   -1    0    0    0  501 -0.00000000000E+00 -0.00000000000E+00 -0.30766900486E+02  0.30793100941E+02  0.12700000000E+01 0. -1.
         25    2    1    2    0    0  0.00000000000E+00  0.00000000000E+00  0.96112321294E+02  0.15767867861E+03  0.12499994953E+03 0.  0.
    9000005    1    3    3    0    0 -0.55350124943E+02 -0.97701091724E+01  0.82513187467E+02  0.99842463263E+02  0.10000000000E+01 0.  0.
    9000005    1    3    3    0    0  0.55350124943E+02  0.97701091724E+01  0.13599133827E+02  0.57836215343E+02  0.10000000000E+01 0.  0.
<mgrwt>
<rscale>  0 0.12499995E+03</rscale>
<asrwt>0</asrwt>
<pdfrwt beam="1">  1        4 0.19522385E-01 0.12499995E+03</pdfrwt>
<pdfrwt beam="2">  1       -4 0.47358737E-02 0.12499995E+03</pdfrwt>
<totfact> 0.97792304E+03</totfact>
</mgrwt>
</event>
<event>
 5    1  0.3206665E-002  0.1250002E+03  0.7818608E-02  0.1235069E+00
         -4   -1    0    0    0  501 -0.00000000000E+00  0.00000000000E+00  0.34298782790E+02  0.34322287232E+02  0.12700000000E+01 0.  1.
          4   -1    0    0  501    0  0.00000000000E+00 -0.00000000000E+00 -0.11382316369E+03  0.11383024858E+03  0.12700000000E+01 0.  1.
         25    2    1    2    0    0  0.00000000000E+00  0.00000000000E+00 -0.79524380897E+02  0.14815253581E+03  0.12500018684E+03 0.  0.
    9000005    1    3    3    0    0  0.41346782325E+02  0.34821726826E+02 -0.25993504622E+01  0.54128233766E+02  0.10000000000E+01 0.  0.
    9000005    1    3    3    0    0 -0.41346782325E+02 -0.34821726826E+02 -0.76925030434E+02  0.94024302045E+02  0.10000000000E+01 0.  0.
<mgrwt>
<rscale>  0 0.12500019E+03</rscale>
<asrwt>0</asrwt>
<pdfrwt beam="2">  1        4 0.17513609E-01 0.12500019E+03</pdfrwt>
<pdfrwt beam="1">  1       -4 0.52790889E-02 0.12500019E+03</pdfrwt>
<totfact> 0.99672825E+03</totfact>
</mgrwt>
</event>
<event>
 5    1  0.3206665E-002  0.1250023E+03  0.7818608E-02  0.1235066E+00
          4   -1    0    0  501    0  0.00000000000E+00  0.00000000000E+00  0.20182034146E+03  0.20182433731E+03  0.12700000000E+01 0.  1.
         -4   -1    0    0    0  501 -0.00000000000E+00 -0.00000000000E+00 -0.19330770183E+02  0.19372443725E+02  0.12700000000E+01 0.  1.
         25    2    1    2    0    0  0.00000000000E+00  0.00000000000E+00  0.18248957128E+03  0.22119678103E+03  0.12500228923E+03 0.  0.
    9000005    1    3    3    0    0 -0.99874446589E+01  0.16808746893E+02  0.19627734327E+03  0.19725130799E+03  0.10000000000E+01 0.  0.
    9000005    1    3    3    0    0  0.99874446589E+01 -0.16808746893E+02 -0.13787771985E+02  0.23945473043E+02  0.10000000000E+01 0.  0.
<mgrwt>
<rscale>  0 0.12500229E+03</rscale>
<asrwt>0</asrwt>
<pdfrwt beam="1">  1        4 0.31052797E-01 0.12500229E+03</pdfrwt>
<pdfrwt beam="2">  1       -4 0.29774776E-02 0.12500229E+03</pdfrwt>
<totfact> 0.86674895E+03</totfact>
</mgrwt>
</event>
<event>
 5    1  0.3206665E-002  0.1249980E+03  0.7818608E-02  0.1235072E+00
          4   -1    0    0  501    0  0.00000000000E+00  0.00000000000E+00  0.66465386514E+03  0.66465507848E+03  0.12700000000E+01 0.  1.
         -4   -1    0    0    0  501 -0.00000000000E+00 -0.00000000000E+00 -0.58070891585E+01  0.59443405433E+01  0.12700000000E+01 0.  1.
         25    2    1    2    0    0  0.00000000000E+00  0.00000000000E+00  0.65884677599E+03  0.67059941902E+03  0.12499802626E+03 0.  0.
    9000005    1    3    3    0    0 -0.10570455936E+01  0.13108334442E+02  0.65717237519E+03  0.65730470597E+03  0.10000000000E+01 0.  0.
    9000005    1    3    3    0    0  0.10570455936E+01 -0.13108334442E+02  0.16744007979E+01  0.13294713057E+02  0.10000000000E+01 0.  0.
<mgrwt>
<rscale>  0 0.12499803E+03</rscale>
<asrwt>0</asrwt>
<pdfrwt beam="1">  1        4 0.10226507E+00 0.12499803E+03</pdfrwt>
<pdfrwt beam="2">  1       -4 0.90404968E-03 0.12499803E+03</pdfrwt>
<totfact> 0.44686738E+03</totfact>
</mgrwt>
</event>
<event>
 5    1  0.3206665E-002  0.1250038E+03  0.7818608E-02  0.1235063E+00
          4   -1    0    0  501    0  0.00000000000E+00  0.00000000000E+00  0.35648838109E+02  0.35671452991E+02  0.12700000000E+01 0.  1.
         -4   -1    0    0    0  501 -0.00000000000E+00 -0.00000000000E+00 -0.10952149771E+03  0.10952886086E+03  0.12700000000E+01 0.  1.
         25    2    1    2    0    0  0.00000000000E+00  0.00000000000E+00 -0.73872659604E+02  0.14520031385E+03  0.12500384516E+03 0.  0.
    9000005    1    3    3    0    0 -0.52977056312E+02  0.30532872717E+02 -0.21940618996E+02  0.64970882508E+02  0.10000000000E+01 0.  0.
    9000005    1    3    3    0    0  0.52977056312E+02 -0.30532872717E+02 -0.51932040608E+02  0.80229431343E+02  0.10000000000E+01 0.  0.
<mgrwt>
<rscale>  0 0.12500385E+03</rscale>
<asrwt>0</asrwt>
<pdfrwt beam="1">  1        4 0.54867427E-02 0.12500385E+03</pdfrwt>
<pdfrwt beam="2">  1       -4 0.16851767E-01 0.12500385E+03</pdfrwt>
<totfact> 0.10026052E+04</totfact>
</mgrwt>
</event>
<event>
 5    1  0.3206665E-002  0.1250052E+03  0.7818608E-02  0.1235061E+00
          4   -1    0    0  501    0  0.00000000000E+00  0.00000000000E+00  0.11952773013E+03  0.11953447691E+03  0.12700000000E+01 0. -1.
         -4   -1    0    0    0  501 -0.00000000000E+00 -0.00000000000E+00 -0.32663411261E+02  0.32688091642E+02  0.12700000000E+01 0. -1.
         25    2    1    2    0    0  0.00000000000E+00  0.00000000000E+00  0.86864318873E+02  0.15222256856E+03  0.12500520183E+03 0.  0.
    9000005    1    3    3    0    0 -0.27467503728E+02 -0.74112238141E+01 -0.24326439885E+02  0.37445502760E+02  0.10000000000E+01 0.  0.
    9000005    1    3    3    0    0  0.27467503728E+02  0.74112238141E+01  0.11119075876E+03  0.11477706580E+03  0.10000000000E+01 0.  0.
<mgrwt>
<rscale>  0 0.12500520E+03</rscale>
<asrwt>0</asrwt>
<pdfrwt beam="1">  1        4 0.18391299E-01 0.12500520E+03</pdfrwt>
<pdfrwt beam="2">  1       -4 0.50275577E-02 0.12500520E+03</pdfrwt>
<totfact> 0.98850924E+03</totfact>
</mgrwt>
</event>
<event>
 5    1  0.3206665E-002  0.1250007E+03  0.7818608E-02  0.1235068E+00
          4   -1    0    0  501    0  0.00000000000E+00  0.00000000000E+00  0.12133990981E+04  0.12133997627E+04  0.12700000000E+01 0.  1.
         -4   -1    0    0    0  501 -0.00000000000E+00 -0.00000000000E+00 -0.30933530397E+01  0.33439098416E+01  0.12700000000E+01 0.  1.
         25    2    1    2    0    0  0.00000000000E+00  0.00000000000E+00  0.12103057451E+04  0.12167436726E+04  0.12500067277E+03 0.  0.
    9000005    1    3    3    0    0  0.31042021242E+02 -0.49252594971E+02  0.38406976613E+03  0.38845850544E+03  0.10000000000E+01 0.  0.
    9000005    1    3    3    0    0 -0.31042021242E+02  0.49252594971E+02  0.82623597894E+03  0.82828516713E+03  0.10000000000E+01 0.  0.
<mgrwt>
<rscale>  0 0.12500067E+03</rscale>
<asrwt>0</asrwt>
<pdfrwt beam="1">  1        4 0.18669635E+00 0.12500067E+03</pdfrwt>
<pdfrwt beam="2">  1       -4 0.49522457E-03 0.12500067E+03</pdfrwt>
<totfact> 0.24278252E+03</totfact>
</mgrwt>
</event>
<event>
 5    1  0.3206665E-002  0.1249963E+03  0.7818608E-02  0.1235075E+00
         -4   -1    0    0    0  501 -0.00000000000E+00  0.00000000000E+00  0.13050674856E+04  0.13050681035E+04  0.12700000000E+01 0. -1.
          4   -1    0    0  501    0  0.00000000000E+00 -0.00000000000E+00 -0.28575919783E+01  0.31270964032E+01  0.12700000000E+01 0. -1.
         25    2    1    2    0    0  0.00000000000E+00  0.00000000000E+00  0.13022098936E+04  0.13081951999E+04  0.12499629635E+03 0.  0.
    9000005    1    3    3    0    0  0.42724029682E+02  0.29342578451E+02  0.28574424357E+03  0.29040850944E+03  0.10000000000E+01 0.  0.
    9000005    1    3    3    0    0 -0.42724029682E+02 -0.29342578451E+02  0.10164656500E+04  0.10177866905E+04  0.10000000000E+01 0.  0.
<mgrwt>
<rscale>  0 0.12499630E+03</rscale>
<asrwt>0</asrwt>
<pdfrwt beam="2">  1        4 0.46040801E-03 0.12499630E+03</pdfrwt>
<pdfrwt beam="1">  1       -4 0.20080047E+00 0.12499630E+03</pdfrwt>
<totfact> 0.22037687E+03</totfact>
</mgrwt>
</event>
<event>
 5    1  0.3206665E-002  0.1249996E+03  0.7818608E-02  0.1235070E+00
         -4   -1    0    0    0  501 -0.00000000000E+00  0.00000000000E+00  0.15210618763E+03  0.15211148942E+03  0.12700000000E+01 0.  1.
          4   -1    0    0  501    0  0.00000000000E+00 -0.00000000000E+00 -0.25659433368E+02  0.25690843130E+02  0.12700000000E+01 0.  1.
         25    2    1    2    0    0  0.00000000000E+00  0.00000000000E+00  0.12644675426E+03  0.17780233255E+03  0.12499955119E+03 0.  0.
    9000005    1    3    3    0    0  0.47145681965E+02 -0.38812037787E+02  0.44345699802E+02  0.75476027293E+02  0.10000000000E+01 0.  0.
    9000005    1    3    3    0    0 -0.47145681965E+02  0.38812037787E+02  0.82101054458E+02  0.10232630526E+03  0.10000000000E+01 0.  0.
<mgrwt>
<rscale>  0 0.12499955E+03</rscale>
<asrwt>0</asrwt>
<pdfrwt beam="2">  1        4 0.39504292E-02 0.12499955E+03</pdfrwt>
<pdfrwt beam="1">  1       -4 0.23403776E-01 0.12499955E+03</pdfrwt>
<totfact> 0.94015039E+03</totfact>
</mgrwt>
</event>
<event>
 5    1  0.3206665E-002  0.1249881E+03  0.7818608E-02  0.1235088E+00
         -4   -1    0    0    0  501 -0.00000000000E+00  0.00000000000E+00  0.14672829770E+02  0.14727689345E+02  0.12700000000E+01 0.  1.
          4   -1    0    0  501    0  0.00000000000E+00 -0.00000000000E+00 -0.26561944634E+03  0.26562248243E+03  0.12700000000E+01 0.  1.
         25    2    1    2    0    0  0.00000000000E+00  0.00000000000E+00 -0.25094661657E+03  0.28035017178E+03  0.12498805722E+03 0.  0.
    9000005    1    3    3    0    0  0.98998418842E+01  0.30549140519E+02 -0.24570494841E+03  0.24779664753E+03  0.10000000000E+01 0.  0.
    9000005    1    3    3    0    0 -0.98998418842E+01 -0.30549140519E+02 -0.52416681616E+01  0.32553524247E+02  0.10000000000E+01 0.  0.
<mgrwt>
<rscale>  0 0.12498806E+03</rscale>
<asrwt>0</asrwt>
<pdfrwt beam="2">  1        4 0.40868980E-01 0.12498806E+03</pdfrwt>
<pdfrwt beam="1">  1       -4 0.22618121E-02 0.12498806E+03</pdfrwt>
<totfact> 0.78152444E+03</totfact>
</mgrwt>
</event>
<event>
 5    1  0.3206665E-002  0.1250038E+03  0.7818608E-02  0.1235063E+00
         -4   -1    0    0    0  501 -0.00000000000E+00  0.00000000000E+00  0.23209250493E+01  0.26456744102E+01  0.12700000000E+01 0. -1.
          4   -1    0    0  501    0  0.00000000000E+00 -0.00000000000E+00 -0.15727784293E+04  0.15727789421E+04  0.12700000000E+01 0. -1.
         25    2    1    2    0    0  0.00000000000E+00  0.00000000000E+00 -0.15704575043E+04  0.15754246165E+04  0.12500379797E+03 0.  0.
    9000005    1    3    3    0    0  0.51668527585E+02 -0.34478668580E+02 -0.69876064320E+03  0.70151682218E+03  0.10000000000E+01 0.  0.
    9000005    1    3    3    0    0 -0.51668527585E+02  0.34478668580E+02 -0.87169686110E+03  0.87390779433E+03  0.10000000000E+01 0.  0.
<mgrwt>
<rscale>  0 0.12500380E+03</rscale>
<asrwt>0</asrwt>
<pdfrwt beam="2">  1        4 0.24199014E+00 0.12500380E+03</pdfrwt>
<pdfrwt beam="1">  1       -4 0.38208681E-03 0.12500380E+03</pdfrwt>
<totfact> 0.16493232E+03</totfact>
</mgrwt>
</event>
<event>
 5    1  0.3206665E-002  0.1250016E+03  0.7818608E-02  0.1235067E+00
         -4   -1    0    0    0  501 -0.00000000000E+00  0.00000000000E+00  0.16448067767E+02  0.16497024983E+02  0.12700000000E+01 0.  1.
          4   -1    0    0  501    0  0.00000000000E+00 -0.00000000000E+00 -0.23709256712E+03  0.23709596851E+03  0.12700000000E+01 0.  1.
         25    2    1    2    0    0  0.00000000000E+00  0.00000000000E+00 -0.22064449936E+03  0.25359299350E+03  0.12500164500E+03 0.  0.
    9000005    1    3    3    0    0 -0.20691804682E+02  0.58865694412E+02 -0.11735931213E+03  0.13291925708E+03  0.10000000000E+01 0.  0.
    9000005    1    3    3    0    0  0.20691804682E+02 -0.58865694412E+02 -0.10328518723E+03  0.12067373642E+03  0.10000000000E+01 0.  0.
<mgrwt>
<rscale>  0 0.12500165E+03</rscale>
<asrwt>0</asrwt>
<pdfrwt beam="2">  1        4 0.36479805E-01 0.12500165E+03</pdfrwt>
<pdfrwt beam="1">  1       -4 0.25344997E-02 0.12500165E+03</pdfrwt>
<totfact> 0.81810690E+03</totfact>
</mgrwt>
</event>
<event>
 5    1  0.3206665E-002  0.1249960E+03  0.7818608E-02  0.1235076E+00
          4   -1    0    0  501    0  0.00000000000E+00  0.00000000000E+00  0.92091044974E+03  0.92091132545E+03  0.12700000000E+01 0. -1.
         -4   -1    0    0    0  501 -0.00000000000E+00 -0.00000000000E+00 -0.41454868850E+01  0.43356616004E+01  0.12700000000E+01 0. -1.
         25    2    1    2    0    0  0.00000000000E+00  0.00000000000E+00  0.91676496286E+03  0.92524698705E+03  0.12499595964E+03 0.  0.
    9000005    1    3    3    0    0  0.31213463642E+02 -0.53405703655E+02  0.52398631697E+03  0.52762591850E+03  0.10000000000E+01 0.  0.
    9000005    1    3    3    0    0 -0.31213463642E+02  0.53405703655E+02  0.39277864589E+03  0.39762106856E+03  0.10000000000E+01 0.  0.
<mgrwt>
<rscale>  0 0.12499596E+03</rscale>
<asrwt>0</asrwt>
<pdfrwt beam="1">  1        4 0.14169319E+00 0.12499596E+03</pdfrwt>
<pdfrwt beam="2">  1       -4 0.65246356E-03 0.12499596E+03</pdfrwt>
<totfact> 0.33214350E+03</totfact>
</mgrwt>
</event>
<event>
 5    1  0.3206665E-002  0.1249954E+03  0.7818608E-02  0.1235076E+00
         -4   -1    0    0    0  501 -0.00000000000E+00  0.00000000000E+00  0.18103144024E+02  0.18147636859E+02  0.12700000000E+01 0. -1.
          4   -1    0    0  501    0  0.00000000000E+00 -0.00000000000E+00 -0.21545053382E+03  0.21545427687E+03  0.12700000000E+01 0. -1.
         25    2    1    2    0    0  0.00000000000E+00  0.00000000000E+00 -0.19734738980E+03  0.23360191373E+03  0.12499544728E+03 0.  0.
    9000005    1    3    3    0    0  0.23067092580E+02 -0.57096532644E+02 -0.78819444529E+02  0.10002804425E+03  0.10000000000E+01 0.  0.
    9000005    1    3    3    0    0 -0.23067092580E+02  0.57096532644E+02 -0.11852794527E+03  0.13357386949E+03  0.10000000000E+01 0.  0.
<mgrwt>
<rscale>  0 0.12499545E+03</rscale>
<asrwt>0</asrwt>
<pdfrwt beam="2">  1        4 0.33149945E-01 0.12499545E+03</pdfrwt>
<pdfrwt beam="1">  1       -4 0.27888097E-02 0.12499545E+03</pdfrwt>
<totfact> 0.84768180E+03</totfact>
</mgrwt>
</event>
<event>
 4    1  0.3206665E-002  0.1248778E+03  0.7818608E-02  0.1235260E+00
         -4   -1    0    0    0  501 -0.00000000000E+00  0.00000000000E+00  0.12675744693E+02  0.12739207335E+02  0.12700000000E+01 0. -1.
          4   -1    0    0  501    0  0.00000000000E+00 -0.00000000000E+00 -0.30673249642E+03  0.30673512557E+03  0.12700000000E+01 0. -1.
    9000005    1    1    2    0    0  0.57717010989E+02 -0.11256452114E+02 -0.93385994442E+02  0.11036260703E+03  0.10000000000E+01 0.  0.
    9000005    1    1    2    0    0 -0.57717010989E+02  0.11256452114E+02 -0.20067075728E+03  0.20911172588E+03  0.10000000000E+01 0.  0.
<mgrwt>
<rscale>  0 0.12487784E+03</rscale>
<asrwt>0</asrwt>
<pdfrwt beam="2">  1        4 0.47194693E-01 0.12487784E+03</pdfrwt>
<pdfrwt beam="1">  1       -4 0.19551988E-02 0.12487784E+03</pdfrwt>
<totfact> 0.73417317E+03</totfact>
</mgrwt>
</event>
<event>
 5    1  0.3206665E-002  0.1249919E+03  0.7818608E-02  0.1235082E+00
         -4   -1    0    0    0  501 -0.00000000000E+00  0.00000000000E+00  0.63589689325E+01  0.64845497827E+01  0.12700000000E+01 0. -1.
          4   -1    0    0  501    0  0.00000000000E+00 -0.00000000000E+00 -0.60807817067E+03  0.60807949690E+03  0.12700000000E+01 0. -1.
         25    2    1    2    0    0  0.00000000000E+00  0.00000000000E+00 -0.60171920174E+03  0.61456404668E+03  0.12499187866E+03 0.  0.
    9000005    1    3    3    0    0  0.23904776280E+02  0.56941092387E+02 -0.25395186527E+03  0.26135469425E+03  0.10000000000E+01 0.  0.
    9000005    1    3    3    0    0 -0.23904776280E+02 -0.56941092387E+02 -0.34776733647E+03  0.35320935243E+03  0.10000000000E+01 0.  0.
<mgrwt>
<rscale>  0 0.12499188E+03</rscale>
<asrwt>0</asrwt>
<pdfrwt beam="2">  1        4 0.93560204E-01 0.12499188E+03</pdfrwt>
<pdfrwt beam="1">  1       -4 0.98806548E-03 0.12499188E+03</pdfrwt>
<totfact> 0.47969560E+03</totfact>
</mgrwt>
</event>
<event>
 5    1  0.3206665E-002  0.1249987E+03  0.7818608E-02  0.1235071E+00
          4   -1    0    0  501    0  0.00000000000E+00  0.00000000000E+00  0.57367977542E+02  0.57382033314E+02  0.12700000000E+01 0.  1.
         -4   -1    0    0    0  501 -0.00000000000E+00 -0.00000000000E+00 -0.68061411699E+02  0.68073259526E+02  0.12700000000E+01 0.  1.
         25    2    1    2    0    0  0.00000000000E+00  0.00000000000E+00 -0.10693434157E+02  0.12545529284E+03  0.12499872386E+03 0.  0.
    9000005    1    3    3    0    0 -0.24549744283E+02 -0.15503958417E+02  0.50191717048E+02  0.57993716308E+02  0.10000000000E+01 0.  0.
    9000005    1    3    3    0    0  0.24549744283E+02  0.15503958417E+02 -0.60885151205E+02  0.67461576532E+02  0.10000000000E+01 0.  0.
<mgrwt>
<rscale>  0 0.12499872E+03</rscale>
<asrwt>0</asrwt>
<pdfrwt beam="1">  1        4 0.88278353E-02 0.12499872E+03</pdfrwt>
<pdfrwt beam="2">  1       -4 0.10472979E-01 0.12499872E+03</pdfrwt>
<totfact> 0.10443243E+04</totfact>
</mgrwt>
</event>
<event>
 5    1  0.3206665E-002  0.1250014E+03  0.7818608E-02  0.1235067E+00
          4   -1    0    0  501    0  0.00000000000E+00  0.00000000000E+00  0.14601012824E+03  0.14601565139E+03  0.12700000000E+01 0.  1.
         -4   -1    0    0    0  501 -0.00000000000E+00 -0.00000000000E+00 -0.26732767141E+02  0.26762917237E+02  0.12700000000E+01 0.  1.
         25    2    1    2    0    0  0.00000000000E+00  0.00000000000E+00  0.11927736110E+03  0.17277856862E+03  0.12500137961E+03 0.  0.
    9000005    1    3    3    0    0  0.53292848484E+02 -0.18052519136E+02  0.22055818690E+02  0.60444026048E+02  0.10000000000E+01 0.  0.
    9000005    1    3    3    0    0 -0.53292848484E+02  0.18052519136E+02  0.97221542411E+02  0.11233454258E+03  0.10000000000E+01 0.  0.
<mgrwt>
<rscale>  0 0.12500138E+03</rscale>
<asrwt>0</asrwt>
<pdfrwt beam="1">  1        4 0.22465840E-01 0.12500138E+03</pdfrwt>
<pdfrwt beam="2">  1       -4 0.41154776E-02 0.12500138E+03</pdfrwt>
<totfact> 0.94930334E+03</totfact>
</mgrwt>
</event>
<event>
 5    1  0.3206665E-002  0.1249955E+03  0.7818608E-02  0.1235076E+00
         -4   -1    0    0    0  501 -0.00000000000E+00  0.00000000000E+00  0.30950920384E+03  0.30951180941E+03  0.12700000000E+01 0.  1.
          4   -1    0    0  501    0  0.00000000000E+00 -0.00000000000E+00 -0.12585269486E+02  0.12649186062E+02  0.12700000000E+01 0.  1.
         25    2    1    2    0    0  0.00000000000E+00  0.00000000000E+00  0.29692393436E+03  0.32216099547E+03  0.12499553675E+03 0.  0.
    9000005    1    3    3    0    0 -0.74411602196E+01 -0.30767704894E+02  0.95952656140E+01  0.33092169044E+02  0.10000000000E+01 0.  0.
    9000005    1    3    3    0    0  0.74411602196E+01  0.30767704894E+02  0.28732866874E+03  0.28906882643E+03  0.10000000000E+01 0.  0.
<mgrwt>
<rscale>  0 0.12499554E+03</rscale>
<asrwt>0</asrwt>
<pdfrwt beam="2">  1        4 0.19413125E-02 0.12499554E+03</pdfrwt>
<pdfrwt beam="1">  1       -4 0.47621914E-01 0.12499554E+03</pdfrwt>
<totfact> 0.72907051E+03</totfact>
</mgrwt>
</event>
<event>
 5    1  0.3206665E-002  0.1249971E+03  0.7818608E-02  0.1235074E+00
          4   -1    0    0  501    0  0.00000000000E+00  0.00000000000E+00  0.86686393524E+01  0.87611761895E+01  0.12700000000E+01 0.  1.
         -4   -1    0    0    0  501 -0.00000000000E+00 -0.00000000000E+00 -0.44811197099E+03  0.44811377065E+03  0.12700000000E+01 0.  1.
         25    2    1    2    0    0  0.00000000000E+00  0.00000000000E+00 -0.43944333164E+03  0.45687494684E+03  0.12499710127E+03 0.  0.
    9000005    1    3    3    0    0  0.12087287611E+02  0.61069024314E+02 -0.19985582704E+03  0.20932959623E+03  0.10000000000E+01 0.  0.
    9000005    1    3    3    0    0 -0.12087287611E+02 -0.61069024314E+02 -0.23958750459E+03  0.24754535061E+03  0.10000000000E+01 0.  0.
<mgrwt>
<rscale>  0 0.12499710E+03</rscale>
<asrwt>0</asrwt>
<pdfrwt beam="1">  1        4 0.13408938E-02 0.12499710E+03</pdfrwt>
<pdfrwt beam="2">  1       -4 0.68947542E-01 0.12499710E+03</pdfrwt>
<totfact> 0.59376610E+03</totfact>
</mgrwt>
</event>
<event>
 5    1  0.3206665E-002  0.1250004E+03  0.7818608E-02  0.1235069E+00
          4   -1    0    0  501    0  0.00000000000E+00  0.00000000000E+00  0.14379891770E+02  0.14435864620E+02  0.12700000000E+01 0.  1.
         -4   -1    0    0    0  501 -0.00000000000E+00 -0.00000000000E+00 -0.27106351669E+03  0.27106649180E+03  0.12700000000E+01 0.  1.
         25    2    1    2    0    0  0.00000000000E+00  0.00000000000E+00 -0.25668362492E+03  0.28550235642E+03  0.12500044889E+03 0.  0.
    9000005    1    3    3    0    0  0.48565787743E+02 -0.12229952752E+02 -0.42971416272E+02  0.65998106790E+02  0.10000000000E+01 0.  0.
    9000005    1    3    3    0    0 -0.48565787743E+02  0.12229952752E+02 -0.21371220865E+03  0.21950424963E+03  0.10000000000E+01 0.  0.
<mgrwt>
<rscale>  0 0.12500045E+03</rscale>
<asrwt>0</asrwt>
<pdfrwt beam="1">  1        4 0.22168257E-02 0.12500045E+03</pdfrwt>
<pdfrwt beam="2">  1       -4 0.41706610E-01 0.12500045E+03</pdfrwt>
<totfact> 0.77453373E+03</totfact>
</mgrwt>
</event>
<event>
 4    1  0.3206665E-002  0.1249278E+03  0.7818608E-02  0.1235182E+00
         -4   -1    0    0    0  501 -0.00000000000E+00  0.00000000000E+00  0.18457920567E+02  0.18501560250E+02  0.12700000000E+01 0.  1.
          4   -1    0    0  501    0  0.00000000000E+00 -0.00000000000E+00 -0.21109051933E+03  0.21109433970E+03  0.12700000000E+01 0.  1.
    9000005    1    1    2    0    0  0.14837865301E+02  0.31518080423E+02 -0.19158582862E+03  0.19472976497E+03  0.10000000000E+01 0.  0.
    9000005    1    1    2    0    0 -0.14837865301E+02 -0.31518080423E+02 -0.10467701492E+01  0.34866134973E+02  0.10000000000E+01 0.  0.
<mgrwt>
<rscale>  0 0.12492782E+03</rscale>
<asrwt>0</asrwt>
<pdfrwt beam="2">  1        4 0.32479114E-01 0.12492782E+03</pdfrwt>
<pdfrwt beam="1">  1       -4 0.28433310E-02 0.12492782E+03</pdfrwt>
<totfact> 0.85509332E+03</totfact>
</mgrwt>
</event>
<event>
 5    1  0.3206665E-002  0.1250014E+03  0.7818608E-02  0.1235067E+00
         -4   -1    0    0    0  501 -0.00000000000E+00  0.00000000000E+00  0.12413959248E+02  0.12478753312E+02  0.12700000000E+01 0.  1.
          4   -1    0    0  501    0  0.00000000000E+00 -0.00000000000E+00 -0.31378797588E+03  0.31379054592E+03  0.12700000000E+01 0.  1.
         25    2    1    2    0    0  0.00000000000E+00  0.00000000000E+00 -0.30137401663E+03  0.32626929923E+03  0.12500143087E+03 0.  0.
    9000005    1    3    3    0    0  0.51935195929E+02  0.13132340125E+02 -0.66690602004E+02  0.85547409832E+02  0.10000000000E+01 0.  0.
    9000005    1    3    3    0    0 -0.51935195929E+02 -0.13132340125E+02 -0.23468341463E+03  0.24072188939E+03  0.10000000000E+01 0.  0.
<mgrwt>
<rscale>  0 0.12500143E+03</rscale>
<asrwt>0</asrwt>
<pdfrwt beam="2">  1        4 0.48280249E-01 0.12500143E+03</pdfrwt>
<pdfrwt beam="1">  1       -4 0.19150220E-02 0.12500143E+03</pdfrwt>
<totfact> 0.72414334E+03</totfact>
</mgrwt>
</event>
<event>
 5    1  0.3206665E-002  0.1249969E+03  0.7818608E-02  0.1235074E+00
          4   -1    0    0  501    0  0.00000000000E+00  0.00000000000E+00  0.12188613159E+02  0.12254598759E+02  0.12700000000E+01 0. -1.
         -4   -1    0    0    0  501 -0.00000000000E+00 -0.00000000000E+00 -0.31953509465E+03  0.31953761846E+03  0.12700000000E+01 0. -1.
         25    2    1    2    0    0  0.00000000000E+00  0.00000000000E+00 -0.30734648149E+03  0.33179221722E+03  0.12499686286E+03 0.  0.
    9000005    1    3    3    0    0  0.48153057975E+02  0.38351117232E+02 -0.18220391993E+03  0.19232470882E+03  0.10000000000E+01 0.  0.
    9000005    1    3    3    0    0 -0.48153057975E+02 -0.38351117232E+02 -0.12514256156E+03  0.13946750840E+03  0.10000000000E+01 0.  0.
<mgrwt>
<rscale>  0 0.12499686E+03</rscale>
<asrwt>0</asrwt>
<pdfrwt beam="1">  1        4 0.18804415E-02 0.12499686E+03</pdfrwt>
<pdfrwt beam="2">  1       -4 0.49164509E-01 0.12499686E+03</pdfrwt>
<totfact> 0.71780196E+03</totfact>
</mgrwt>
</event>
<event>
 5    1  0.3206665E-002  0.1250007E+03  0.7818608E-02  0.1235068E+00
          4   -1    0    0  501    0  0.00000000000E+00  0.00000000000E+00  0.26087884865E+02  0.26118779388E+02  0.12700000000E+01 0. -1.
         -4   -1    0    0    0  501 -0.00000000000E+00 -0.00000000000E+00 -0.14961366532E+03  0.14961905544E+03  0.12700000000E+01 0. -1.
         25    2    1    2    0    0  0.00000000000E+00  0.00000000000E+00 -0.12352578045E+03  0.17573783482E+03  0.12500067261E+03 0.  0.
    9000005    1    3    3    0    0 -0.58060575293E+02  0.19484686426E+02 -0.79244031673E+02  0.10015637755E+03  0.10000000000E+01 0.  0.
    9000005    1    3    3    0    0  0.58060575293E+02 -0.19484686426E+02 -0.44281748778E+02  0.75581457272E+02  0.10000000000E+01 0.  0.
<mgrwt>
<rscale>  0 0.12500067E+03</rscale>
<asrwt>0</asrwt>
<pdfrwt beam="1">  1        4 0.40163120E-02 0.12500067E+03</pdfrwt>
<pdfrwt beam="2">  1       -4 0.23020278E-01 0.12500067E+03</pdfrwt>
<totfact> 0.94388457E+03</totfact>
</mgrwt>
</event>
<event>
 5    1  0.3206665E-002  0.1250025E+03  0.7818608E-02  0.1235065E+00
          4   -1    0    0  501    0  0.00000000000E+00  0.00000000000E+00  0.20711562822E+02  0.20750463478E+02  0.12700000000E+01 0. -1.
         -4   -1    0    0    0  501 -0.00000000000E+00 -0.00000000000E+00 -0.18839201164E+03  0.18839629229E+03  0.12700000000E+01 0. -1.
         25    2    1    2    0    0  0.00000000000E+00  0.00000000000E+00 -0.16768044881E+03  0.20914675577E+03  0.12500253011E+03 0.  0.
    9000005    1    3    3    0    0 -0.39209342674E+02 -0.38280107617E+02 -0.13410879994E+03  0.14487549625E+03  0.10000000000E+01 0.  0.
    9000005    1    3    3    0    0  0.39209342674E+02  0.38280107617E+02 -0.33571648876E+02  0.64271259520E+02  0.10000000000E+01 0.  0.
<mgrwt>
<rscale>  0 0.12500253E+03</rscale>
<asrwt>0</asrwt>
<pdfrwt beam="1">  1        4 0.31897160E-02 0.12500253E+03</pdfrwt>
<pdfrwt beam="2">  1       -4 0.28986707E-01 0.12500253E+03</pdfrwt>
<totfact> 0.88610404E+03</totfact>
</mgrwt>
</event>
<event>
 4    1  0.3206665E-002  0.1249028E+03  0.7818608E-02  0.1235221E+00
          4   -1    0    0  501    0  0.00000000000E+00  0.00000000000E+00  0.90126436086E+03  0.90126525565E+03  0.12700000000E+01 0. -1.
         -4   -1    0    0    0  501 -0.00000000000E+00 -0.00000000000E+00 -0.42333549151E+01  0.44197504270E+01  0.12700000000E+01 0. -1.
    9000005    1    1    2    0    0 -0.87400921568E+01 -0.53684230769E+02  0.67092405817E+03  0.67312590032E+03  0.10000000000E+01 0.  0.
    9000005    1    1    2    0    0  0.87400921568E+01  0.53684230769E+02  0.22610694777E+03  0.23255910576E+03  0.10000000000E+01 0.  0.
<mgrwt>
<rscale>  0 0.12490278E+03</rscale>
<asrwt>0</asrwt>
<pdfrwt beam="1">  1        4 0.13867045E+00 0.12490278E+03</pdfrwt>
<pdfrwt beam="2">  1       -4 0.66569237E-03 0.12490278E+03</pdfrwt>
<totfact> 0.34015292E+03</totfact>
</mgrwt>
</event>
<event>
 5    1  0.3206665E-002  0.1250035E+03  0.7818608E-02  0.1235064E+00
          4   -1    0    0  501    0  0.00000000000E+00  0.00000000000E+00  0.18322992314E+03  0.18323432439E+03  0.12700000000E+01 0.  1.
         -4   -1    0    0    0  501 -0.00000000000E+00 -0.00000000000E+00 -0.21296477892E+02  0.21334312049E+02  0.12700000000E+01 0.  1.
         25    2    1    2    0    0  0.00000000000E+00  0.00000000000E+00  0.16193344525E+03  0.20456863644E+03  0.12500354525E+03 0.  0.
    9000005    1    3    3    0    0  0.13769311012E+02 -0.54424406096E+02  0.12589942645E+03  0.13785236844E+03  0.10000000000E+01 0.  0.
    9000005    1    3    3    0    0 -0.13769311012E+02  0.54424406096E+02  0.36034018799E+02  0.66716267997E+02  0.10000000000E+01 0.  0.
<mgrwt>
<rscale>  0 0.12500355E+03</rscale>
<asrwt>0</asrwt>
<pdfrwt beam="1">  1        4 0.28192468E-01 0.12500355E+03</pdfrwt>
<pdfrwt beam="2">  1       -4 0.32796301E-02 0.12500355E+03</pdfrwt>
<totfact> 0.89363560E+03</totfact>
</mgrwt>
</event>
<event>
 5    1  0.3206665E-002  0.1250014E+03  0.7818608E-02  0.1235067E+00
          4   -1    0    0  501    0  0.00000000000E+00  0.00000000000E+00  0.39790297113E+03  0.39790499788E+03  0.12700000000E+01 0. -1.
         -4   -1    0    0    0  501 -0.00000000000E+00 -0.00000000000E+00 -0.97741761094E+01  0.98563390068E+01  0.12700000000E+01 0. -1.
         25    2    1    2    0    0  0.00000000000E+00  0.00000000000E+00  0.38812879502E+03  0.40776133688E+03  0.12500138532E+03 0.  0.
    9000005    1    3    3    0    0 -0.24845255203E+02  0.56782626666E+02  0.22011659260E+03  0.22867852486E+03  0.10000000000E+01 0.  0.
    9000005    1    3    3    0    0  0.24845255203E+02 -0.56782626666E+02  0.16801220242E+03  0.17908281202E+03  0.10000000000E+01 0.  0.
<mgrwt>
<rscale>  0 0.12500139E+03</rscale>
<asrwt>0</asrwt>
<pdfrwt beam="1">  1        4 0.61222312E-01 0.12500139E+03</pdfrwt>
<pdfrwt beam="2">  1       -4 0.15101957E-02 0.12500139E+03</pdfrwt>
<totfact> 0.63802917E+03</totfact>
</mgrwt>
</event>
<event>
 5    1  0.3206665E-002  0.1249760E+03  0.7818608E-02  0.1235107E+00
          4   -1    0    0  501    0  0.00000000000E+00  0.00000000000E+00  0.75805857681E+02  0.75816495294E+02  0.12700000000E+01 0. -1.
         -4   -1    0    0    0  501 -0.00000000000E+00 -0.00000000000E+00 -0.51487759252E+02  0.51503419816E+02  0.12700000000E+01 0. -1.
         25    2    1    2    0    0  0.00000000000E+00  0.00000000000E+00  0.24318098429E+02  0.12731991511E+03  0.12497596118E+03 0.  0.
    9000005    1    3    3    0    0  0.50986945212E+01  0.33587574712E+02 -0.41261291847E+02  0.53456674660E+02  0.10000000000E+01 0.  0.
    9000005    1    3    3    0    0 -0.50986945212E+01 -0.33587574712E+02  0.65579390276E+02  0.73863240450E+02  0.10000000000E+01 0.  0.
<mgrwt>
<rscale>  0 0.12497596E+03</rscale>
<asrwt>0</asrwt>
<pdfrwt beam="1">  1        4 0.11664463E-01 0.12497596E+03</pdfrwt>
<pdfrwt beam="2">  1       -4 0.79232167E-02 0.12497596E+03</pdfrwt>
<totfact> 0.10407849E+04</totfact>
</mgrwt>
</event>
<event>
 5    1  0.3206665E-002  0.1249959E+03  0.7818608E-02  0.1235076E+00
         -4   -1    0    0    0  501 -0.00000000000E+00  0.00000000000E+00  0.92943220335E+01  0.93806887840E+01  0.12700000000E+01 0. -1.
          4   -1    0    0  501    0  0.00000000000E+00 -0.00000000000E+00 -0.41822470164E+03  0.41822662991E+03  0.12700000000E+01 0. -1.
         25    2    1    2    0    0  0.00000000000E+00  0.00000000000E+00 -0.40893037961E+03  0.42760731869E+03  0.12499585446E+03 0.  0.
    9000005    1    3    3    0    0 -0.12475257300E+02  0.47926709725E+02 -0.33483920746E+03  0.33848322913E+03  0.10000000000E+01 0.  0.
    9000005    1    3    3    0    0  0.12475257300E+02 -0.47926709725E+02 -0.74091172148E+02  0.89124089560E+02  0.10000000000E+01 0.  0.
<mgrwt>
<rscale>  0 0.12499585E+03</rscale>
<asrwt>0</asrwt>
<pdfrwt beam="2">  1        4 0.64349039E-01 0.12499585E+03</pdfrwt>
<pdfrwt beam="1">  1       -4 0.14366879E-02 0.12499585E+03</pdfrwt>
<totfact> 0.61959144E+03</totfact>
</mgrwt>
</event>
<event>
 5    1  0.3206665E-002  0.1250005E+03  0.7818608E-02  0.1235068E+00
          4   -1    0    0  501    0  0.00000000000E+00  0.00000000000E+00  0.43182180925E+02  0.43200852416E+02  0.12700000000E+01 0. -1.
         -4   -1    0    0    0  501 -0.00000000000E+00 -0.00000000000E+00 -0.90417868087E+02  0.90426786791E+02  0.12700000000E+01 0. -1.
         25    2    1    2    0    0  0.00000000000E+00  0.00000000000E+00 -0.47235687162E+02  0.13362763921E+03  0.12500054327E+03 0.  0.
    9000005    1    3    3    0    0  0.49458266767E+02  0.23545624535E+02  0.85374781771E+01  0.55447318420E+02  0.10000000000E+01 0.  0.
    9000005    1    3    3    0    0 -0.49458266767E+02 -0.23545624535E+02 -0.55773165339E+02  0.78180320786E+02  0.10000000000E+01 0.  0.
<mgrwt>
<rscale>  0 0.12500054E+03</rscale>
<asrwt>0</asrwt>
<pdfrwt beam="1">  1        4 0.66455348E-02 0.12500054E+03</pdfrwt>
<pdfrwt beam="2">  1       -4 0.13912564E-01 0.12500054E+03</pdfrwt>
<totfact> 0.10266953E+04</totfact>
</mgrwt>
</event>
<event>
 5    1  0.3206665E-002  0.1250005E+03  0.7818608E-02  0.1235069E+00
         -4   -1    0    0    0  501 -0.00000000000E+00  0.00000000000E+00  0.19997996170E+03  0.19998399432E+03  0.12700000000E+01 0. -1.
          4   -1    0    0  501    0  0.00000000000E+00 -0.00000000000E+00 -0.19508476581E+02  0.19549771316E+02  0.12700000000E+01 0. -1.
         25    2    1    2    0    0  0.00000000000E+00  0.00000000000E+00  0.18047148512E+03  0.21953376563E+03  0.12500046924E+03 0.  0.
    9000005    1    3    3    0    0  0.52588448159E+02 -0.32895242840E+02  0.10356917759E+03  0.12072786102E+03  0.10000000000E+01 0.  0.
    9000005    1    3    3    0    0 -0.52588448159E+02  0.32895242840E+02  0.76902307536E+02  0.98805904609E+02  0.10000000000E+01 0.  0.
<mgrwt>
<rscale>  0 0.12500047E+03</rscale>
<asrwt>0</asrwt>
<pdfrwt beam="2">  1        4 0.30047910E-02 0.12500047E+03</pdfrwt>
<pdfrwt beam="1">  1       -4 0.30769632E-01 0.12500047E+03</pdfrwt>
<totfact> 0.86941269E+03</totfact>
</mgrwt>
</event>
<event>
 4    1  0.3206665E-002  0.1248909E+03  0.7818608E-02  0.1235240E+00
         -4   -1    0    0    0  501 -0.00000000000E+00  0.00000000000E+00  0.41139783675E+02  0.41159381686E+02  0.12700000000E+01 0. -1.
          4   -1    0    0  501    0  0.00000000000E+00 -0.00000000000E+00 -0.94738564964E+02  0.94747076955E+02  0.12700000000E+01 0. -1.
    9000005    1    1    2    0    0 -0.15774528021E+02 -0.59423337062E+02 -0.38643568409E+02  0.72624335462E+02  0.10000000000E+01 0.  0.
    9000005    1    1    2    0    0  0.15774528021E+02  0.59423337062E+02 -0.14955212880E+02  0.63282123179E+02  0.10000000000E+01 0.  0.
<mgrwt>
<rscale>  0 0.12489090E+03</rscale>
<asrwt>0</asrwt>
<pdfrwt beam="2">  1        4 0.14577326E-01 0.12489090E+03</pdfrwt>
<pdfrwt beam="1">  1       -4 0.63313598E-02 0.12489090E+03</pdfrwt>
<totfact> 0.10244183E+04</totfact>
</mgrwt>
</event>
<event>
 5    1  0.3206665E-002  0.1250021E+03  0.7818608E-02  0.1235066E+00
         -4   -1    0    0    0  501 -0.00000000000E+00  0.00000000000E+00  0.17016820247E+02  0.17064145784E+02  0.12700000000E+01 0.  1.
          4   -1    0    0  501    0  0.00000000000E+00 -0.00000000000E+00 -0.22919226012E+03  0.22919577875E+03  0.12700000000E+01 0.  1.
         25    2    1    2    0    0  0.00000000000E+00  0.00000000000E+00 -0.21217543987E+03  0.24625992453E+03  0.12500213258E+03 0.  0.
    9000005    1    3    3    0    0 -0.32494693259E+01  0.41598256484E+02 -0.19774057851E+03  0.20209727951E+03  0.10000000000E+01 0.  0.
    9000005    1    3    3    0    0  0.32494693259E+01 -0.41598256484E+02 -0.14434861355E+02  0.44162645027E+02  0.10000000000E+01 0.  0.
<mgrwt>
<rscale>  0 0.12500213E+03</rscale>
<asrwt>0</asrwt>
<pdfrwt beam="2">  1        4 0.35264257E-01 0.12500213E+03</pdfrwt>
<pdfrwt beam="1">  1       -4 0.26218836E-02 0.12500213E+03</pdfrwt>
<totfact> 0.82869871E+03</totfact>
</mgrwt>
</event>
<event>
 5    1  0.3206665E-002  0.1249984E+03  0.7818608E-02  0.1235072E+00
          4   -1    0    0  501    0  0.00000000000E+00  0.00000000000E+00  0.78694524847E+02  0.78704772034E+02  0.12700000000E+01 0.  1.
         -4   -1    0    0    0  501 -0.00000000000E+00 -0.00000000000E+00 -0.49615258023E+02  0.49631509434E+02  0.12700000000E+01 0.  1.
         25    2    1    2    0    0  0.00000000000E+00  0.00000000000E+00  0.29079266824E+02  0.12833628147E+03  0.12499838952E+03 0.  0.
    9000005    1    3    3    0    0 -0.39545426212E+02  0.46835357468E+02  0.27019800274E+02  0.66995977867E+02  0.10000000000E+01 0.  0.
    9000005    1    3    3    0    0  0.39545426212E+02 -0.46835357468E+02  0.20594665500E+01  0.61340303601E+02  0.10000000000E+01 0.  0.
<mgrwt>
<rscale>  0 0.12499839E+03</rscale>
<asrwt>0</asrwt>
<pdfrwt beam="1">  1        4 0.12108888E-01 0.12499839E+03</pdfrwt>
<pdfrwt beam="2">  1       -4 0.76351550E-02 0.12499839E+03</pdfrwt>
<totfact> 0.10380609E+04</totfact>
</mgrwt>
</event>
<event>
 5    1  0.3206665E-002  0.1250011E+03  0.7818608E-02  0.1235068E+00
         -4   -1    0    0    0  501 -0.00000000000E+00  0.00000000000E+00  0.14397741605E+03  0.14398301717E+03  0.12700000000E+01 0.  1.
          4   -1    0    0  501    0  0.00000000000E+00 -0.00000000000E+00 -0.27110472644E+02  0.27140203149E+02  0.12700000000E+01 0.  1.
         25    2    1    2    0    0  0.00000000000E+00  0.00000000000E+00  0.11686694341E+03  0.17112322032E+03  0.12500109628E+03 0.  0.
    9000005    1    3    3    0    0 -0.59280043259E+02 -0.18383713264E+02  0.68421734963E+02  0.92382997665E+02  0.10000000000E+01 0.  0.
    9000005    1    3    3    0    0  0.59280043259E+02  0.18383713264E+02  0.48445208446E+02  0.78740222653E+02  0.10000000000E+01 0.  0.
<mgrwt>
<rscale>  0 0.12500110E+03</rscale>
<asrwt>0</asrwt>
<pdfrwt beam="2">  1        4 0.41735598E-02 0.12500110E+03</pdfrwt>
<pdfrwt beam="1">  1       -4 0.22153089E-01 0.12500110E+03</pdfrwt>
<totfact> 0.95237354E+03</totfact>
</mgrwt>
</event>
<event>
 5    1  0.3206665E-002  0.1249954E+03  0.7818608E-02  0.1235077E+00
          4   -1    0    0  501    0  0.00000000000E+00  0.00000000000E+00  0.27867215248E+02  0.27896139261E+02  0.12700000000E+01 0.  1.
         -4   -1    0    0    0  501 -0.00000000000E+00 -0.00000000000E+00 -0.14005878393E+03  0.14006454175E+03  0.12700000000E+01 0.  1.
         25    2    1    2    0    0  0.00000000000E+00  0.00000000000E+00 -0.11219156868E+03  0.16796068101E+03  0.12499536904E+03 0.  0.
    9000005    1    3    3    0    0 -0.34133958425E+02 -0.14667741083E+02 -0.12361351000E+03  0.12907970251E+03  0.10000000000E+01 0.  0.
    9000005    1    3    3    0    0  0.34133958425E+02  0.14667741083E+02  0.11421941311E+02  0.38880978505E+02  0.10000000000E+01 0.  0.
<mgrwt>
<rscale>  0 0.12499537E+03</rscale>
<asrwt>0</asrwt>
<pdfrwt beam="1">  1        4 0.42899318E-02 0.12499537E+03</pdfrwt>
<pdfrwt beam="2">  1       -4 0.21550173E-01 0.12499537E+03</pdfrwt>
<totfact> 0.95839573E+03</totfact>
</mgrwt>
</event>
<event>
 5    1  0.3206665E-002  0.1250006E+03  0.7818608E-02  0.1235068E+00
          4   -1    0    0  501    0  0.00000000000E+00  0.00000000000E+00  0.39156487879E+02  0.39177078031E+02  0.12700000000E+01 0. -1.
         -4   -1    0    0    0  501 -0.00000000000E+00 -0.00000000000E+00 -0.99710138864E+02  0.99718226479E+02  0.12700000000E+01 0. -1.
         25    2    1    2    0    0  0.00000000000E+00  0.00000000000E+00 -0.60553650984E+02  0.13889530451E+03  0.12500064387E+03 0.  0.
    9000005    1    3    3    0    0  0.49988653514E+02 -0.24356256295E+02 -0.61963257761E+02  0.83261864098E+02  0.10000000000E+01 0.  0.
    9000005    1    3    3    0    0 -0.49988653514E+02  0.24356256295E+02  0.14096067768E+01  0.55633440412E+02  0.10000000000E+01 0.  0.
<mgrwt>
<rscale>  0 0.12500064E+03</rscale>
<asrwt>0</asrwt>
<pdfrwt beam="1">  1        4 0.60262811E-02 0.12500064E+03</pdfrwt>
<pdfrwt beam="2">  1       -4 0.15342227E-01 0.12500064E+03</pdfrwt>
<totfact> 0.10156385E+04</totfact>
</mgrwt>
</event>
<event>
 5    1  0.3206665E-002  0.1250038E+03  0.7818608E-02  0.1235063E+00
         -4   -1    0    0    0  501 -0.00000000000E+00  0.00000000000E+00  0.17018470452E+02  0.17065791412E+02  0.12700000000E+01 0. -1.
          4   -1    0    0  501    0  0.00000000000E+00 -0.00000000000E+00 -0.22917634486E+03  0.22917986374E+03  0.12700000000E+01 0. -1.
         25    2    1    2    0    0  0.00000000000E+00  0.00000000000E+00 -0.21215787441E+03  0.24624565515E+03  0.12500383597E+03 0.  0.
    9000005    1    3    3    0    0 -0.32159306228E+02 -0.43158719996E+02 -0.43517984509E+02  0.69222186216E+02  0.10000000000E+01 0.  0.
    9000005    1    3    3    0    0  0.32159306228E+02  0.43158719996E+02 -0.16863988990E+03  0.17702346894E+03  0.10000000000E+01 0.  0.
<mgrwt>
<rscale>  0 0.12500384E+03</rscale>
<asrwt>0</asrwt>
<pdfrwt beam="2">  1        4 0.35261808E-01 0.12500384E+03</pdfrwt>
<pdfrwt beam="1">  1       -4 0.26221371E-02 0.12500384E+03</pdfrwt>
<totfact> 0.82868811E+03</totfact>
</mgrwt>
</event>
<event>
 5    1  0.3206665E-002  0.1249990E+03  0.7818608E-02  0.1235071E+00
          4   -1    0    0  501    0  0.00000000000E+00  0.00000000000E+00  0.18940940408E+03  0.18941366174E+03  0.12700000000E+01 0.  1.
         -4   -1    0    0    0  501 -0.00000000000E+00 -0.00000000000E+00 -0.20598938611E+02  0.20638051553E+02  0.12700000000E+01 0.  1.
         25    2    1    2    0    0  0.00000000000E+00  0.00000000000E+00  0.16881046547E+03  0.21005171329E+03  0.12499899602E+03 0.  0.
    9000005    1    3    3    0    0 -0.60198174597E+02  0.13743985310E+02  0.68246031697E+02  0.92039329633E+02  0.10000000000E+01 0.  0.
    9000005    1    3    3    0    0  0.60198174597E+02 -0.13743985310E+02  0.10056443377E+03  0.11801238366E+03  0.10000000000E+01 0.  0.
<mgrwt>
<rscale>  0 0.12499900E+03</rscale>
<asrwt>0</asrwt>
<pdfrwt beam="1">  1        4 0.29143245E-01 0.12499900E+03</pdfrwt>
<pdfrwt beam="2">  1       -4 0.31724036E-02 0.12499900E+03</pdfrwt>
<totfact> 0.88469421E+03</totfact>
</mgrwt>
</event>
<event>
 5    1  0.3206665E-002  0.1250007E+03  0.7818608E-02  0.1235068E+00
         -4   -1    0    0    0  501 -0.00000000000E+00  0.00000000000E+00  0.39573881981E+03  0.39574085764E+03  0.12700000000E+01 0.  1.
          4   -1    0    0  501    0  0.00000000000E+00 -0.00000000000E+00 -0.98279627343E+01  0.99096796874E+01  0.12700000000E+01 0.  1.
         25    2    1    2    0    0  0.00000000000E+00  0.00000000000E+00  0.38591085707E+03  0.40565053732E+03  0.12500067529E+03 0.  0.
    9000005    1    3    3    0    0  0.38834225645E+02  0.42113061972E+02  0.27399971319E+03  0.27992579355E+03  0.10000000000E+01 0.  0.
    9000005    1    3    3    0    0 -0.38834225645E+02 -0.42113061972E+02  0.11191114389E+03  0.12572474377E+03  0.10000000000E+01 0.  0.
<mgrwt>
<rscale>  0 0.12500068E+03</rscale>
<asrwt>0</asrwt>
<pdfrwt beam="2">  1        4 0.15184368E-02 0.12500068E+03</pdfrwt>
<pdfrwt beam="1">  1       -4 0.60889342E-01 0.12500068E+03</pdfrwt>
<totfact> 0.64005952E+03</totfact>
</mgrwt>
</event>
<event>
 5    1  0.3206665E-002  0.1249980E+03  0.7818608E-02  0.1235072E+00
          4   -1    0    0  501    0  0.00000000000E+00  0.00000000000E+00  0.66222036567E+03  0.66222158346E+03  0.12700000000E+01 0. -1.
         -4   -1    0    0    0  501 -0.00000000000E+00 -0.00000000000E+00 -0.58289251332E+01  0.59656741621E+01  0.12700000000E+01 0. -1.
         25    2    1    2    0    0  0.00000000000E+00  0.00000000000E+00  0.65639144053E+03  0.66818725762E+03  0.12499795217E+03 0.  0.
    9000005    1    3    3    0    0  0.17026816209E+02  0.56037517800E+02  0.21169062936E+03  0.21964525587E+03  0.10000000000E+01 0.  0.
    9000005    1    3    3    0    0 -0.17026816209E+02 -0.56037517800E+02  0.44470081118E+03  0.44854200175E+03  0.10000000000E+01 0.  0.
<mgrwt>
<rscale>  0 0.12499795E+03</rscale>
<asrwt>0</asrwt>
<pdfrwt beam="1">  1        4 0.10189069E+00 0.12499795E+03</pdfrwt>
<pdfrwt beam="2">  1       -4 0.90737034E-03 0.12499795E+03</pdfrwt>
<totfact> 0.44822055E+03</totfact>
</mgrwt>
</event>
<event>
 5    1  0.3206665E-002  0.1250007E+03  0.7818608E-02  0.1235068E+00
          4   -1    0    0  501    0  0.00000000000E+00  0.00000000000E+00  0.51164189053E+01  0.52716830723E+01  0.12700000000E+01 0. -1.
         -4   -1    0    0    0  501 -0.00000000000E+00 -0.00000000000E+00 -0.75191548791E+03  0.75191656044E+03  0.12700000000E+01 0. -1.
         25    2    1    2    0    0  0.00000000000E+00  0.00000000000E+00 -0.74679906901E+03  0.75718824351E+03  0.12500074657E+03 0.  0.
    9000005    1    3    3    0    0  0.40771058833E+02 -0.10822869941E+02 -0.94105972050E+02  0.10313267052E+03  0.10000000000E+01 0.  0.
    9000005    1    3    3    0    0 -0.40771058833E+02  0.10822869941E+02 -0.65269309696E+03  0.65405557300E+03  0.10000000000E+01 0.  0.
<mgrwt>
<rscale>  0 0.12500075E+03</rscale>
<asrwt>0</asrwt>
<pdfrwt beam="1">  1        4 0.79916786E-03 0.12500075E+03</pdfrwt>
<pdfrwt beam="2">  1       -4 0.11569125E+00 0.12500075E+03</pdfrwt>
<totfact> 0.40232030E+03</totfact>
</mgrwt>
</event>
<event>
 5    1  0.3206665E-002  0.1249853E+03  0.7818608E-02  0.1235092E+00
         -4   -1    0    0    0  501 -0.00000000000E+00  0.00000000000E+00  0.29669804283E+03  0.29670076090E+03  0.12700000000E+01 0.  1.
          4   -1    0    0  501    0  0.00000000000E+00 -0.00000000000E+00 -0.13129219988E+02  0.13190501033E+02  0.12700000000E+01 0.  1.
         25    2    1    2    0    0  0.00000000000E+00  0.00000000000E+00  0.28356882284E+03  0.30989126194E+03  0.12498526687E+03 0.  0.
    9000005    1    3    3    0    0  0.59055484075E+02 -0.11426396898E+02  0.99837708215E+02  0.11656191800E+03  0.10000000000E+01 0.  0.
    9000005    1    3    3    0    0 -0.59055484075E+02  0.11426396898E+02  0.18373111463E+03  0.19332934394E+03  0.10000000000E+01 0.  0.
<mgrwt>
<rscale>  0 0.12498527E+03</rscale>
<asrwt>0</asrwt>
<pdfrwt beam="2">  1        4 0.20248032E-02 0.12498527E+03</pdfrwt>
<pdfrwt beam="1">  1       -4 0.45650772E-01 0.12498527E+03</pdfrwt>
<totfact> 0.74398931E+03</totfact>
</mgrwt>
</event>
<event>
 5    1  0.3206665E-002  0.1249972E+03  0.7818608E-02  0.1235074E+00
          4   -1    0    0  501    0  0.00000000000E+00  0.00000000000E+00  0.15852246157E+03  0.15852754878E+03  0.12700000000E+01 0. -1.
         -4   -1    0    0    0  501 -0.00000000000E+00 -0.00000000000E+00 -0.24618655582E+02  0.24651391496E+02  0.12700000000E+01 0. -1.
         25    2    1    2    0    0  0.00000000000E+00  0.00000000000E+00  0.13390380599E+03  0.18317894027E+03  0.12499717958E+03 0.  0.
    9000005    1    3    3    0    0 -0.22287016460E+02 -0.56313243588E+02  0.89521067251E+02  0.10808752929E+03  0.10000000000E+01 0.  0.
    9000005    1    3    3    0    0  0.22287016460E+02  0.56313243588E+02  0.44382738735E+02  0.75091410985E+02  0.10000000000E+01 0.  0.
<mgrwt>
<rscale>  0 0.12499718E+03</rscale>
<asrwt>0</asrwt>
<pdfrwt beam="1">  1        4 0.24390981E-01 0.12499718E+03</pdfrwt>
<pdfrwt beam="2">  1       -4 0.37903948E-02 0.12499718E+03</pdfrwt>
<totfact> 0.93053775E+03</totfact>
</mgrwt>
</event>
<event>
 5    1  0.3206665E-002  0.1249991E+03  0.7818608E-02  0.1235071E+00
         -4   -1    0    0    0  501 -0.00000000000E+00  0.00000000000E+00  0.10552281889E+03  0.10553046104E+03  0.12700000000E+01 0. -1.
          4   -1    0    0  501    0  0.00000000000E+00 -0.00000000000E+00 -0.36997663522E+02  0.37019454427E+02  0.12700000000E+01 0. -1.
         25    2    1    2    0    0  0.00000000000E+00  0.00000000000E+00  0.68525155372E+02  0.14254991547E+03  0.12499912592E+03 0.  0.
    9000005    1    3    3    0    0 -0.32059191297E+02  0.38334825760E+01 -0.26754094314E+02  0.41943639539E+02  0.10000000000E+01 0.  0.
    9000005    1    3    3    0    0  0.32059191297E+02 -0.38334825760E+01  0.95279249686E+02  0.10060627593E+03  0.10000000000E+01 0.  0.
<mgrwt>
<rscale>  0 0.12499913E+03</rscale>
<asrwt>0</asrwt>
<pdfrwt beam="2">  1        4 0.56942124E-02 0.12499913E+03</pdfrwt>
<pdfrwt beam="1">  1       -4 0.16236544E-01 0.12499913E+03</pdfrwt>
<totfact> 0.10081207E+04</totfact>
</mgrwt>
</event>
<event>
 5    1  0.3206665E-002  0.1250020E+03  0.7818608E-02  0.1235066E+00
          4   -1    0    0  501    0  0.00000000000E+00  0.00000000000E+00  0.73852837578E+02  0.73863756459E+02  0.12700000000E+01 0. -1.
         -4   -1    0    0    0  501 -0.00000000000E+00 -0.00000000000E+00 -0.52871560407E+02  0.52886811209E+02  0.12700000000E+01 0. -1.
         25    2    1    2    0    0  0.00000000000E+00  0.00000000000E+00  0.20981277171E+02  0.12675056767E+03  0.12500196963E+03 0.  0.
    9000005    1    3    3    0    0 -0.30364403997E+02 -0.44922966157E+02 -0.21013305383E+02  0.58160372433E+02  0.10000000000E+01 0.  0.
    9000005    1    3    3    0    0  0.30364403997E+02  0.44922966157E+02  0.41994582554E+02  0.68590195235E+02  0.10000000000E+01 0.  0.
<mgrwt>
<rscale>  0 0.12500197E+03</rscale>
<asrwt>0</asrwt>
<pdfrwt beam="1">  1        4 0.11363988E-01 0.12500197E+03</pdfrwt>
<pdfrwt beam="2">  1       -4 0.81360994E-02 0.12500197E+03</pdfrwt>
<totfact> 0.10414106E+04</totfact>
</mgrwt>
</event>
<event>
 5    1  0.3206665E-002  0.1249958E+03  0.7818608E-02  0.1235076E+00
          4   -1    0    0  501    0  0.00000000000E+00  0.00000000000E+00  0.10699215178E+03  0.10699968898E+03  0.12700000000E+01 0.  1.
         -4   -1    0    0    0  501 -0.00000000000E+00 -0.00000000000E+00 -0.36487357196E+02  0.36509452683E+02  0.12700000000E+01 0.  1.
         25    2    1    2    0    0  0.00000000000E+00  0.00000000000E+00  0.70504794579E+02  0.14350914166E+03  0.12499579066E+03 0.  0.
    9000005    1    3    3    0    0  0.38076284813E+02  0.32968722087E+02  0.77720846504E+02  0.92618950990E+02  0.10000000000E+01 0.  0.
    9000005    1    3    3    0    0 -0.38076284813E+02 -0.32968722087E+02 -0.72160519248E+01  0.50890190671E+02  0.10000000000E+01 0.  0.
<mgrwt>
<rscale>  0 0.12499579E+03</rscale>
<asrwt>0</asrwt>
<pdfrwt beam="1">  1        4 0.16462610E-01 0.12499579E+03</pdfrwt>
<pdfrwt beam="2">  1       -4 0.56157191E-02 0.12499579E+03</pdfrwt>
<totfact> 0.10062322E+04</totfact>
</mgrwt>
</event>
<event>
 5    1  0.3206665E-002  0.1250075E+03  0.7818608E-02  0.1235058E+00
         -4   -1    0    0    0  501 -0.00000000000E+00  0.00000000000E+00  0.10209155566E+02  0.10287845128E+02  0.12700000000E+01 0. -1.
          4   -1    0    0  501    0  0.00000000000E+00 -0.00000000000E+00 -0.38111930773E+03  0.38112142373E+03  0.12700000000E+01 0. -1.
         25    2    1    2    0    0  0.00000000000E+00  0.00000000000E+00 -0.37091015216E+03  0.39140926886E+03  0.12500749885E+03 0.  0.
    9000005    1    3    3    0    0 -0.43064369100E+02 -0.44219332878E+02 -0.21610606123E+03  0.22475034814E+03  0.10000000000E+01 0.  0.
    9000005    1    3    3    0    0  0.43064369100E+02  0.44219332878E+02 -0.15480409093E+03  0.16665892072E+03  0.10000000000E+01 0.  0.
<mgrwt>
<rscale>  0 0.12500750E+03</rscale>
<asrwt>0</asrwt>
<pdfrwt beam="2">  1        4 0.58639944E-01 0.12500750E+03</pdfrwt>
<pdfrwt beam="1">  1       -4 0.15768554E-02 0.12500750E+03</pdfrwt>
<totfact> 0.65386153E+03</totfact>
</mgrwt>
</event>
<event>
 5    1  0.3206665E-002  0.1250024E+03  0.7818608E-02  0.1235066E+00
          4   -1    0    0  501    0  0.00000000000E+00  0.00000000000E+00  0.37674269248E+01  0.39757270572E+01  0.12700000000E+01 0. -1.
         -4   -1    0    0    0  501 -0.00000000000E+00 -0.00000000000E+00 -0.10087854636E+04  0.10087862631E+04  0.12700000000E+01 0. -1.
         25    2    1    2    0    0  0.00000000000E+00  0.00000000000E+00 -0.10050180367E+04  0.10127619901E+04  0.12500237804E+03 0.  0.
    9000005    1    3    3    0    0 -0.39616451871E+02  0.48200732853E+02 -0.47372177761E+03  0.47781387223E+03  0.10000000000E+01 0.  0.
    9000005    1    3    3    0    0  0.39616451871E+02 -0.48200732853E+02 -0.53129625909E+03  0.53494811788E+03  0.10000000000E+01 0.  0.
<mgrwt>
<rscale>  0 0.12500238E+03</rscale>
<asrwt>0</asrwt>
<pdfrwt beam="1">  1        4 0.59568953E-03 0.12500238E+03</pdfrwt>
<pdfrwt beam="2">  1       -4 0.15521364E+00 0.12500238E+03</pdfrwt>
<totfact> 0.30184995E+03</totfact>
</mgrwt>
</event>
<event>
 5    1  0.3206665E-002  0.1249994E+03  0.7818608E-02  0.1235070E+00
          4   -1    0    0  501    0  0.00000000000E+00  0.00000000000E+00  0.12813096471E+03  0.12813725851E+03  0.12700000000E+01 0.  1.
         -4   -1    0    0    0  501 -0.00000000000E+00 -0.00000000000E+00 -0.30465825901E+02  0.30492285054E+02  0.12700000000E+01 0.  1.
         25    2    1    2    0    0  0.00000000000E+00  0.00000000000E+00  0.97665138812E+02  0.15862954356E+03  0.12499941101E+03 0.  0.
    9000005    1    3    3    0    0 -0.47535047719E+02  0.18575258668E+02  0.30661770864E+01  0.51137290094E+02  0.10000000000E+01 0.  0.
    9000005    1    3    3    0    0  0.47535047719E+02 -0.18575258668E+02  0.94598961725E+02  0.10749225347E+03  0.10000000000E+01 0.  0.
<mgrwt>
<rscale>  0 0.12499941E+03</rscale>
<asrwt>0</asrwt>
<pdfrwt beam="1">  1        4 0.19714976E-01 0.12499941E+03</pdfrwt>
<pdfrwt beam="2">  1       -4 0.46895695E-02 0.12499941E+03</pdfrwt>
<totfact> 0.97608942E+03</totfact>
</mgrwt>
</event>
<event>
 5    1  0.3206665E-002  0.1250074E+03  0.7818608E-02  0.1235058E+00
          4   -1    0    0  501    0  0.00000000000E+00  0.00000000000E+00  0.13917613719E+03  0.13918193153E+03  0.12700000000E+01 0.  1.
         -4   -1    0    0    0  501 -0.00000000000E+00 -0.00000000000E+00 -0.28049529738E+02  0.28078265946E+02  0.12700000000E+01 0.  1.
         25    2    1    2    0    0  0.00000000000E+00  0.00000000000E+00  0.11112660746E+03  0.16726019748E+03  0.12500740288E+03 0.  0.
    9000005    1    3    3    0    0  0.20307893655E+01  0.48764073960E+02  0.33357114530E+01  0.48930419838E+02  0.10000000000E+01 0.  0.
    9000005    1    3    3    0    0 -0.20307893655E+01 -0.48764073960E+02  0.10779089600E+03  0.11832977764E+03  0.10000000000E+01 0.  0.
<mgrwt>
<rscale>  0 0.12500740E+03</rscale>
<asrwt>0</asrwt>
<pdfrwt beam="1">  1        4 0.21414370E-01 0.12500740E+03</pdfrwt>
<pdfrwt beam="2">  1       -4 0.43179683E-02 0.12500740E+03</pdfrwt>
<totfact> 0.95945097E+03</totfact>
</mgrwt>
</event>
<event>
 5    1  0.3206665E-002  0.1250001E+03  0.7818608E-02  0.1235069E+00
         -4   -1    0    0    0  501 -0.00000000000E+00  0.00000000000E+00  0.28481323471E+02  0.28509624456E+02  0.12700000000E+01 0.  1.
          4   -1    0    0  501    0  0.00000000000E+00 -0.00000000000E+00 -0.13705211186E+03  0.13705799599E+03  0.12700000000E+01 0.  1.
         25    2    1    2    0    0  0.00000000000E+00  0.00000000000E+00 -0.10857078839E+03  0.16556762045E+03  0.12500008340E+03 0.  0.
    9000005    1    3    3    0    0  0.64929762431E+01 -0.55880165641E+02 -0.90329037205E+02  0.10641939022E+03  0.10000000000E+01 0.  0.
    9000005    1    3    3    0    0 -0.64929762431E+01  0.55880165641E+02 -0.18241751181E+02  0.59148230225E+02  0.10000000000E+01 0.  0.
<mgrwt>
<rscale>  0 0.12500008E+03</rscale>
<asrwt>0</asrwt>
<pdfrwt beam="2">  1        4 0.21087570E-01 0.12500008E+03</pdfrwt>
<pdfrwt beam="1">  1       -4 0.43843718E-02 0.12500008E+03</pdfrwt>
<totfact> 0.96279822E+03</totfact>
</mgrwt>
</event>
<event>
 5    1  0.3206665E-002  0.1249790E+03  0.7818608E-02  0.1235102E+00
          4   -1    0    0  501    0  0.00000000000E+00  0.00000000000E+00  0.17010334109E+03  0.17010808197E+03  0.12700000000E+01 0.  1.
         -4   -1    0    0    0  501 -0.00000000000E+00 -0.00000000000E+00 -0.22933645177E+02  0.22968782752E+02  0.12700000000E+01 0.  1.
         25    2    1    2    0    0  0.00000000000E+00  0.00000000000E+00  0.14716969592E+03  0.19307686472E+03  0.12497902342E+03 0.  0.
    9000005    1    3    3    0    0 -0.38977069629E+02  0.17500935392E+02  0.14401559817E+03  0.15022312476E+03  0.10000000000E+01 0.  0.
    9000005    1    3    3    0    0  0.38977069629E+02 -0.17500935392E+02  0.31540977518E+01  0.42853739967E+02  0.10000000000E+01 0.  0.
<mgrwt>
<rscale>  0 0.12497902E+03</rscale>
<asrwt>0</asrwt>
<pdfrwt beam="1">  1        4 0.26172813E-01 0.12497902E+03</pdfrwt>
<pdfrwt beam="2">  1       -4 0.35313206E-02 0.12497902E+03</pdfrwt>
<totfact> 0.91357596E+03</totfact>
</mgrwt>
</event>
<event>
 5    1  0.3206665E-002  0.1250029E+03  0.7818608E-02  0.1235065E+00
         -4   -1    0    0    0  501 -0.00000000000E+00  0.00000000000E+00  0.11823203038E+03  0.11823885109E+03  0.12700000000E+01 0. -1.
          4   -1    0    0  501    0  0.00000000000E+00 -0.00000000000E+00 -0.33020400428E+02  0.33044814183E+02  0.12700000000E+01 0. -1.
         25    2    1    2    0    0  0.00000000000E+00  0.00000000000E+00  0.85211629952E+02  0.15128366528E+03  0.12500290197E+03 0.  0.
    9000005    1    3    3    0    0 -0.39561477455E+02 -0.41967476651E+02  0.71728448370E+02  0.92045368707E+02  0.10000000000E+01 0.  0.
    9000005    1    3    3    0    0  0.39561477455E+02  0.41967476651E+02  0.13483181582E+02  0.59238296569E+02  0.10000000000E+01 0.  0.
<mgrwt>
<rscale>  0 0.12500290E+03</rscale>
<asrwt>0</asrwt>
<pdfrwt beam="2">  1        4 0.50824642E-02 0.12500290E+03</pdfrwt>
<pdfrwt beam="1">  1       -4 0.18191946E-01 0.12500290E+03</pdfrwt>
<totfact> 0.99041964E+03</totfact>
</mgrwt>
</event>
<event>
 5    1  0.3206665E-002  0.1250017E+03  0.7818608E-02  0.1235067E+00
          4   -1    0    0  501    0  0.00000000000E+00  0.00000000000E+00  0.76695570059E+02  0.76706084287E+02  0.12700000000E+01 0.  1.
         -4   -1    0    0    0  501 -0.00000000000E+00 -0.00000000000E+00 -0.50911310084E+02  0.50927147912E+02  0.12700000000E+01 0.  1.
         25    2    1    2    0    0  0.00000000000E+00  0.00000000000E+00  0.25784259975E+02  0.12763323220E+03  0.12500165559E+03 0.  0.
    9000005    1    3    3    0    0  0.38274348079E+02  0.10703195671E+02 -0.36350434333E+02  0.53868712576E+02  0.10000000000E+01 0.  0.
    9000005    1    3    3    0    0 -0.38274348079E+02 -0.10703195671E+02  0.62134694309E+02  0.73764519623E+02  0.10000000000E+01 0.  0.
<mgrwt>
<rscale>  0 0.12500166E+03</rscale>
<asrwt>0</asrwt>
<pdfrwt beam="1">  1        4 0.11801345E-01 0.12500166E+03</pdfrwt>
<pdfrwt beam="2">  1       -4 0.78345364E-02 0.12500166E+03</pdfrwt>
<totfact> 0.10395028E+04</totfact>
</mgrwt>
</event>
<event>
 5    1  0.3206665E-002  0.1249963E+03  0.7818608E-02  0.1235075E+00
         -4   -1    0    0    0  501 -0.00000000000E+00  0.00000000000E+00  0.24642295443E+01  0.27722422778E+01  0.12700000000E+01 0. -1.
          4   -1    0    0  501    0  0.00000000000E+00 -0.00000000000E+00 -0.14915428463E+04  0.14915433870E+04  0.12700000000E+01 0. -1.
         25    2    1    2    0    0  0.00000000000E+00  0.00000000000E+00 -0.14890786168E+04  0.14943156293E+04  0.12499629183E+03 0.  0.
    9000005    1    3    3    0    0 -0.14007410374E+01 -0.61359523743E+02 -0.88501042313E+03  0.88713663113E+03  0.10000000000E+01 0.  0.
    9000005    1    3    3    0    0  0.14007410374E+01  0.61359523743E+02 -0.60406819363E+03  0.60717899815E+03  0.10000000000E+01 0.  0.
<mgrwt>
<rscale>  0 0.12499629E+03</rscale>
<asrwt>0</asrwt>
<pdfrwt beam="2">  1        4 0.22949119E+00 0.12499629E+03</pdfrwt>
<pdfrwt beam="1">  1       -4 0.40284831E-03 0.12499629E+03</pdfrwt>
<totfact> 0.18044030E+03</totfact>
</mgrwt>
</event>
<event>
 5    1  0.3206665E-002  0.1249839E+03  0.7818608E-02  0.1235094E+00
         -4   -1    0    0    0  501 -0.00000000000E+00  0.00000000000E+00  0.60687896442E+02  0.60701183469E+02  0.12700000000E+01 0. -1.
          4   -1    0    0  501    0  0.00000000000E+00 -0.00000000000E+00 -0.64323002641E+02  0.64335538925E+02  0.12700000000E+01 0. -1.
         25    2    1    2    0    0  0.00000000000E+00  0.00000000000E+00 -0.36351061995E+01  0.12503672239E+03  0.12498387076E+03 0.  0.
    9000005    1    3    3    0    0 -0.54313510260E+02 -0.27977581973E+02  0.11285294124E+02  0.62137431177E+02  0.10000000000E+01 0.  0.
    9000005    1    3    3    0    0  0.54313510260E+02  0.27977581973E+02 -0.14920400324E+02  0.62899291217E+02  0.10000000000E+01 0.  0.
<mgrwt>
<rscale>  0 0.12498387E+03</rscale>
<asrwt>0</asrwt>
<pdfrwt beam="2">  1        4 0.98978330E-02 0.12498387E+03</pdfrwt>
<pdfrwt beam="1">  1       -4 0.93385858E-02 0.12498387E+03</pdfrwt>
<totfact> 0.10455876E+04</totfact>
</mgrwt>
</event>
<event>
 5    1  0.3206665E-002  0.1250121E+03  0.7818608E-02  0.1235050E+00
          4   -1    0    0  501    0  0.00000000000E+00  0.00000000000E+00  0.25261793744E+02  0.25293697301E+02  0.12700000000E+01 0.  1.
         -4   -1    0    0    0  501 -0.00000000000E+00 -0.00000000000E+00 -0.15452848898E+03  0.15453370767E+03  0.12700000000E+01 0.  1.
         25    2    1    2    0    0  0.00000000000E+00  0.00000000000E+00 -0.12926669524E+03  0.17982740497E+03  0.12501206775E+03 0.  0.
    9000005    1    3    3    0    0  0.10650462784E+02  0.60237939936E+02 -0.83052778666E+02  0.10315428159E+03  0.10000000000E+01 0.  0.
    9000005    1    3    3    0    0 -0.10650462784E+02 -0.60237939936E+02 -0.46213916573E+02  0.76673123389E+02  0.10000000000E+01 0.  0.
<mgrwt>
<rscale>  0 0.12501207E+03</rscale>
<asrwt>0</asrwt>
<pdfrwt beam="1">  1        4 0.38892854E-02 0.12501207E+03</pdfrwt>
<pdfrwt beam="2">  1       -4 0.23776469E-01 0.12501207E+03</pdfrwt>
<totfact> 0.93622745E+03</totfact>
</mgrwt>
</event>
<event>
 4    1  0.3206665E-002  0.1245321E+03  0.7818608E-02  0.1235802E+00
          4   -1    0    0  501    0  0.00000000000E+00  0.00000000000E+00  0.16584903561E+02  0.16633458033E+02  0.12700000000E+01 0. -1.
         -4   -1    0    0    0  501 -0.00000000000E+00 -0.00000000000E+00 -0.23337866252E+03  0.23338211804E+03  0.12700000000E+01 0. -1.
    9000005    1    1    2    0    0 -0.49375898753E+02 -0.16754849438E+02 -0.40097037556E+02  0.65783560090E+02  0.10000000000E+01 0.  0.
    9000005    1    1    2    0    0  0.49375898753E+02  0.16754849438E+02 -0.17669672141E+03  0.18423201598E+03  0.10000000000E+01 0.  0.
<mgrwt>
<rscale>  0 0.12453214E+03</rscale>
<asrwt>0</asrwt>
<pdfrwt beam="1">  1        4 0.25555246E-02 0.12453214E+03</pdfrwt>
<pdfrwt beam="2">  1       -4 0.35908408E-01 0.12453214E+03</pdfrwt>
<totfact> 0.83191937E+03</totfact>
</mgrwt>
</event>
<event>
 5    1  0.3206665E-002  0.1250015E+03  0.7818608E-02  0.1235067E+00
         -4   -1    0    0    0  501 -0.00000000000E+00  0.00000000000E+00  0.65800360689E+03  0.65800483249E+03  0.12700000000E+01 0. -1.
          4   -1    0    0  501    0  0.00000000000E+00 -0.00000000000E+00 -0.58674981138E+01  0.60033685640E+01  0.12700000000E+01 0. -1.
         25    2    1    2    0    0  0.00000000000E+00  0.00000000000E+00  0.65213610878E+03  0.66400820105E+03  0.12500154678E+03 0.  0.
    9000005    1    3    3    0    0 -0.39787153301E+02 -0.22067184525E+02  0.55364050698E+03  0.55550768597E+03  0.10000000000E+01 0.  0.
    9000005    1    3    3    0    0  0.39787153301E+02  0.22067184525E+02  0.98495601795E+02  0.10850051509E+03  0.10000000000E+01 0.  0.
<mgrwt>
<rscale>  0 0.12500155E+03</rscale>
<asrwt>0</asrwt>
<pdfrwt beam="2">  1        4 0.91323781E-03 0.12500155E+03</pdfrwt>
<pdfrwt beam="1">  1       -4 0.10124188E+00 0.12500155E+03</pdfrwt>
<totfact> 0.45054353E+03</totfact>
</mgrwt>
</event>
<event>
 5    1  0.3206665E-002  0.1249984E+03  0.7818608E-02  0.1235072E+00
          4   -1    0    0  501    0  0.00000000000E+00  0.00000000000E+00  0.55242510231E+01  0.56683550847E+01  0.12700000000E+01 0.  1.
         -4   -1    0    0    0  501 -0.00000000000E+00 -0.00000000000E+00 -0.69784337823E+03  0.69784453386E+03  0.12700000000E+01 0.  1.
         25    2    1    2    0    0  0.00000000000E+00  0.00000000000E+00 -0.69231912720E+03  0.70351288894E+03  0.12499844405E+03 0.  0.
    9000005    1    3    3    0    0 -0.47108645939E+02 -0.25273894918E+02 -0.52828627923E+03  0.53098529839E+03  0.10000000000E+01 0.  0.
    9000005    1    3    3    0    0  0.47108645939E+02  0.25273894918E+02 -0.16403284798E+03  0.17252759055E+03  0.10000000000E+01 0.  0.
<mgrwt>
<rscale>  0 0.12499844E+03</rscale>
<asrwt>0</asrwt>
<pdfrwt beam="1">  1        4 0.86105915E-03 0.12499844E+03</pdfrwt>
<pdfrwt beam="2">  1       -4 0.10737162E+00 0.12499844E+03</pdfrwt>
<totfact> 0.42903383E+03</totfact>
</mgrwt>
</event>
<event>
 5    1  0.3206665E-002  0.1249946E+03  0.7818608E-02  0.1235078E+00
          4   -1    0    0  501    0  0.00000000000E+00  0.00000000000E+00  0.13735564576E+03  0.13736151689E+03  0.12700000000E+01 0.  1.
         -4   -1    0    0    0  501 -0.00000000000E+00 -0.00000000000E+00 -0.28415806528E+02  0.28444172701E+02  0.12700000000E+01 0.  1.
         25    2    1    2    0    0  0.00000000000E+00  0.00000000000E+00  0.10893983923E+03  0.16580568959E+03  0.12499455240E+03 0.  0.
    9000005    1    3    3    0    0 -0.29615338426E+02 -0.34987744730E+02  0.11080648594E+03  0.11991783803E+03  0.10000000000E+01 0.  0.
    9000005    1    3    3    0    0  0.29615338426E+02  0.34987744730E+02 -0.18666467039E+01  0.45887851565E+02  0.10000000000E+01 0.  0.
<mgrwt>
<rscale>  0 0.12499455E+03</rscale>
<asrwt>0</asrwt>
<pdfrwt beam="1">  1        4 0.21134271E-01 0.12499455E+03</pdfrwt>
<pdfrwt beam="2">  1       -4 0.43742963E-02 0.12499455E+03</pdfrwt>
<totfact> 0.96246802E+03</totfact>
</mgrwt>
</event>
<event>
 5    1  0.3206665E-002  0.1249923E+03  0.7818608E-02  0.1235081E+00
          4   -1    0    0  501    0  0.00000000000E+00  0.00000000000E+00  0.63320170873E+02  0.63332905661E+02  0.12700000000E+01 0.  1.
         -4   -1    0    0    0  501 -0.00000000000E+00 -0.00000000000E+00 -0.61657394958E+02  0.61670473105E+02  0.12700000000E+01 0.  1.
         25    2    1    2    0    0  0.00000000000E+00  0.00000000000E+00  0.16627759151E+01  0.12500337877E+03  0.12499231928E+03 0.  0.
    9000005    1    3    3    0    0  0.76960141391E+01  0.22651274377E+02 -0.56901192553E+02  0.61733739386E+02  0.10000000000E+01 0.  0.
    9000005    1    3    3    0    0 -0.76960141391E+01 -0.22651274377E+02  0.58563968468E+02  0.63269639380E+02  0.10000000000E+01 0.  0.
<mgrwt>
<rscale>  0 0.12499232E+03</rscale>
<asrwt>0</asrwt>
<pdfrwt beam="1">  1        4 0.97435503E-02 0.12499232E+03</pdfrwt>
<pdfrwt beam="2">  1       -4 0.94877388E-02 0.12499232E+03</pdfrwt>
<totfact> 0.10454604E+04</totfact>
</mgrwt>
</event>
<event>
 5    1  0.3206665E-002  0.1249983E+03  0.7818608E-02  0.1235072E+00
          4   -1    0    0  501    0  0.00000000000E+00  0.00000000000E+00  0.34566612384E+02  0.34589934832E+02  0.12700000000E+01 0.  1.
         -4   -1    0    0    0  501 -0.00000000000E+00 -0.00000000000E+00 -0.11293838660E+03  0.11294552699E+03  0.12700000000E+01 0.  1.
         25    2    1    2    0    0  0.00000000000E+00  0.00000000000E+00 -0.78371774214E+02  0.14753546182E+03  0.12499831000E+03 0.  0.
    9000005    1    3    3    0    0  0.61219287806E+02  0.11024888414E+02 -0.46247493913E+02  0.77518901291E+02  0.10000000000E+01 0.  0.
    9000005    1    3    3    0    0 -0.61219287806E+02 -0.11024888414E+02 -0.32124280300E+02  0.70016560533E+02  0.10000000000E+01 0.  0.
<mgrwt>
<rscale>  0 0.12499831E+03</rscale>
<asrwt>0</asrwt>
<pdfrwt beam="1">  1        4 0.53202837E-02 0.12499831E+03</pdfrwt>
<pdfrwt beam="2">  1       -4 0.17377480E-01 0.12499831E+03</pdfrwt>
<totfact> 0.99801051E+03</totfact>
</mgrwt>
</event>
<event>
 5    1  0.3206665E-002  0.1249962E+03  0.7818608E-02  0.1235075E+00
          4   -1    0    0  501    0  0.00000000000E+00  0.00000000000E+00  0.46438515745E+02  0.46455878471E+02  0.12700000000E+01 0. -1.
         -4   -1    0    0    0  501 -0.00000000000E+00 -0.00000000000E+00 -0.84073550633E+02  0.84083142282E+02  0.12700000000E+01 0. -1.
         25    2    1    2    0    0  0.00000000000E+00  0.00000000000E+00 -0.37635034888E+02  0.13053902075E+03  0.12499616029E+03 0.  0.
    9000005    1    3    3    0    0  0.10332089513E+02  0.15472021864E+02 -0.81119234211E+02  0.83231398482E+02  0.10000000000E+01 0.  0.
    9000005    1    3    3    0    0 -0.10332089513E+02 -0.15472021864E+02  0.43484199323E+02  0.47307622272E+02  0.10000000000E+01 0.  0.
<mgrwt>
<rscale>  0 0.12499616E+03</rscale>
<asrwt>0</asrwt>
<pdfrwt beam="1">  1        4 0.71464605E-02 0.12499616E+03</pdfrwt>
<pdfrwt beam="2">  1       -4 0.12936466E-01 0.12499616E+03</pdfrwt>
<totfact> 0.10333877E+04</totfact>
</mgrwt>
</event>
<event>
 5    1  0.3206665E-002  0.1249939E+03  0.7818608E-02  0.1235079E+00
          4   -1    0    0  501    0  0.00000000000E+00  0.00000000000E+00  0.45716621618E+01  0.47447860776E+01  0.12700000000E+01 0.  1.
         -4   -1    0    0    0  501 -0.00000000000E+00 -0.00000000000E+00 -0.83831469682E+03  0.83831565881E+03  0.12700000000E+01 0.  1.
         25    2    1    2    0    0  0.00000000000E+00  0.00000000000E+00 -0.83374303466E+03  0.84306044489E+03  0.12499386342E+03 0.  0.
    9000005    1    3    3    0    0 -0.18412892138E+02  0.51941698115E+02 -0.21816924561E+03  0.22502398612E+03  0.10000000000E+01 0.  0.
    9000005    1    3    3    0    0  0.18412892138E+02 -0.51941698115E+02 -0.61557378905E+03  0.61803645877E+03  0.10000000000E+01 0.  0.
<mgrwt>
<rscale>  0 0.12499386E+03</rscale>
<asrwt>0</asrwt>
<pdfrwt beam="1">  1        4 0.71672453E-03 0.12499386E+03</pdfrwt>
<pdfrwt beam="2">  1       -4 0.12898476E+00 0.12499386E+03</pdfrwt>
<totfact> 0.36417903E+03</totfact>
</mgrwt>
</event>
<event>
 5    1  0.3206665E-002  0.1250017E+03  0.7818608E-02  0.1235067E+00
          4   -1    0    0  501    0  0.00000000000E+00  0.00000000000E+00  0.95419586126E+03  0.95419670642E+03  0.12700000000E+01 0. -1.
         -4   -1    0    0    0  501 -0.00000000000E+00 -0.00000000000E+00 -0.39945075006E+01  0.41915379245E+01  0.12700000000E+01 0. -1.
         25    2    1    2    0    0  0.00000000000E+00  0.00000000000E+00  0.95020135376E+03  0.95838824434E+03  0.12500165685E+03 0.  0.
    9000005    1    3    3    0    0 -0.13644728498E+02  0.39888058378E+02  0.12141006349E+03  0.12852485881E+03  0.10000000000E+01 0.  0.
    9000005    1    3    3    0    0  0.13644728498E+02 -0.39888058378E+02  0.82879129027E+03  0.82986338553E+03  0.10000000000E+01 0.  0.
<mgrwt>
<rscale>  0 0.12500166E+03</rscale>
<asrwt>0</asrwt>
<pdfrwt beam="1">  1        4 0.14681481E+00 0.12500166E+03</pdfrwt>
<pdfrwt beam="2">  1       -4 0.62975986E-03 0.12500166E+03</pdfrwt>
<totfact> 0.32018804E+03</totfact>
</mgrwt>
</event>
<event>
 5    1  0.3206665E-002  0.1249946E+03  0.7818608E-02  0.1235078E+00
          4   -1    0    0  501    0  0.00000000000E+00  0.00000000000E+00  0.53953665239E+03  0.53953814710E+03  0.12700000000E+01 0.  1.
         -4   -1    0    0    0  501 -0.00000000000E+00 -0.00000000000E+00 -0.71821627158E+01  0.72935835689E+01  0.12700000000E+01 0.  1.
         25    2    1    2    0    0  0.00000000000E+00  0.00000000000E+00  0.53235448968E+03  0.54683173067E+03  0.12499455583E+03 0.  0.
    9000005    1    3    3    0    0 -0.34626872186E+02 -0.10966717228E+02  0.43720792128E+02  0.56848894699E+02  0.10000000000E+01 0.  0.
    9000005    1    3    3    0    0  0.34626872186E+02  0.10966717228E+02  0.48863369755E+03  0.48998283597E+03  0.10000000000E+01 0.  0.
<mgrwt>
<rscale>  0 0.12499456E+03</rscale>
<asrwt>0</asrwt>
<pdfrwt beam="1">  1        4 0.83014351E-01 0.12499456E+03</pdfrwt>
<pdfrwt beam="2">  1       -4 0.11136336E-02 0.12499456E+03</pdfrwt>
<totfact> 0.52411734E+03</totfact>
</mgrwt>
</event>
<event>
 5    1  0.3206665E-002  0.1249995E+03  0.7818608E-02  0.1235070E+00
          4   -1    0    0  501    0  0.00000000000E+00  0.00000000000E+00  0.21823855499E+01  0.25250161759E+01  0.12700000000E+01 0.  1.
         -4   -1    0    0    0  501 -0.00000000000E+00 -0.00000000000E+00 -0.16592648364E+04  0.16592653224E+04  0.12700000000E+01 0.  1.
         25    2    1    2    0    0  0.00000000000E+00  0.00000000000E+00 -0.16570824508E+04  0.16617903386E+04  0.12499952225E+03 0.  0.
    9000005    1    3    3    0    0  0.17197257653E+02  0.46386098180E+01 -0.32214047766E+02  0.36824003656E+02  0.10000000000E+01 0.  0.
    9000005    1    3    3    0    0 -0.17197257653E+02 -0.46386098180E+01 -0.16248684031E+04  0.16249663349E+04  0.10000000000E+01 0.  0.
<mgrwt>
<rscale>  0 0.12499952E+03</rscale>
<asrwt>0</asrwt>
<pdfrwt beam="1">  1        4 0.36214654E-03 0.12499952E+03</pdfrwt>
<pdfrwt beam="2">  1       -4 0.25529697E+00 0.12499952E+03</pdfrwt>
<totfact> 0.14955728E+03</totfact>
</mgrwt>
</event>
<event>
 5    1  0.3206665E-002  0.1249997E+03  0.7818608E-02  0.1235070E+00
         -4   -1    0    0    0  501 -0.00000000000E+00  0.00000000000E+00  0.13517411980E+02  0.13576940990E+02  0.12700000000E+01 0. -1.
          4   -1    0    0  501    0  0.00000000000E+00 -0.00000000000E+00 -0.28828188703E+03  0.28828468445E+03  0.12700000000E+01 0. -1.
         25    2    1    2    0    0  0.00000000000E+00  0.00000000000E+00 -0.27476447505E+03  0.30186162544E+03  0.12499969666E+03 0.  0.
    9000005    1    3    3    0    0 -0.38643189296E+01  0.59237414958E+02 -0.90231267674E+02  0.10801243427E+03  0.10000000000E+01 0.  0.
    9000005    1    3    3    0    0  0.38643189296E+01 -0.59237414958E+02 -0.18453320737E+03  0.19384919117E+03  0.10000000000E+01 0.  0.
<mgrwt>
<rscale>  0 0.12499970E+03</rscale>
<asrwt>0</asrwt>
<pdfrwt beam="2">  1        4 0.44355849E-01 0.12499970E+03</pdfrwt>
<pdfrwt beam="1">  1       -4 0.20843964E-02 0.12499970E+03</pdfrwt>
<totfact> 0.75366421E+03</totfact>
</mgrwt>
</event>
<event>
 5    1  0.3206665E-002  0.1249986E+03  0.7818608E-02  0.1235071E+00
          4   -1    0    0  501    0  0.00000000000E+00  0.00000000000E+00  0.32436460362E+01  0.34834091933E+01  0.12700000000E+01 0.  1.
         -4   -1    0    0    0  501 -0.00000000000E+00 -0.00000000000E+00 -0.11610896280E+04  0.11610903225E+04  0.12700000000E+01 0.  1.
         25    2    1    2    0    0  0.00000000000E+00  0.00000000000E+00 -0.11578459819E+04  0.11645737317E+04  0.12499863498E+03 0.  0.
    9000005    1    3    3    0    0 -0.55143790016E+01 -0.55637112967E+02 -0.83900189889E+03  0.84086329630E+03  0.10000000000E+01 0.  0.
    9000005    1    3    3    0    0  0.55143790016E+01  0.55637112967E+02 -0.31884408304E+03  0.32371043543E+03  0.10000000000E+01 0.  0.
<mgrwt>
<rscale>  0 0.12499863E+03</rscale>
<asrwt>0</asrwt>
<pdfrwt beam="1">  1        4 0.51752014E-03 0.12499863E+03</pdfrwt>
<pdfrwt beam="2">  1       -4 0.17864735E+00 0.12499863E+03</pdfrwt>
<totfact> 0.25660130E+03</totfact>
</mgrwt>
</event>
<event>
 5    1  0.3206665E-002  0.1249713E+03  0.7818608E-02  0.1235114E+00
          4   -1    0    0  501    0  0.00000000000E+00  0.00000000000E+00  0.70502320284E+02  0.70513757987E+02  0.12700000000E+01 0.  1.
         -4   -1    0    0    0  501 -0.00000000000E+00 -0.00000000000E+00 -0.55357313036E+02  0.55371879204E+02  0.12700000000E+01 0.  1.
         25    2    1    2    0    0  0.00000000000E+00  0.00000000000E+00  0.15145007248E+02  0.12588563719E+03  0.12497128633E+03 0.  0.
    9000005    1    3    3    0    0  0.38251145297E+01  0.64017520548E+01  0.70057325952E+02  0.70460221758E+02  0.10000000000E+01 0.  0.
    9000005    1    3    3    0    0 -0.38251145297E+01 -0.64017520548E+01 -0.54912318704E+02  0.55425415434E+02  0.10000000000E+01 0.  0.
<mgrwt>
<rscale>  0 0.12497129E+03</rscale>
<asrwt>0</asrwt>
<pdfrwt beam="1">  1        4 0.10848511E-01 0.12497129E+03</pdfrwt>
<pdfrwt beam="2">  1       -4 0.85185100E-02 0.12497129E+03</pdfrwt>
<totfact> 0.10440228E+04</totfact>
</mgrwt>
</event>
<event>
 5    1  0.3206665E-002  0.1249495E+03  0.7818608E-02  0.1235148E+00
          4   -1    0    0  501    0  0.00000000000E+00  0.00000000000E+00  0.19961609432E+04  0.19961613472E+04  0.12700000000E+01 0. -1.
         -4   -1    0    0    0  501 -0.00000000000E+00 -0.00000000000E+00 -0.17486313451E+01  0.21611597768E+01  0.12700000000E+01 0. -1.
         25    2    1    2    0    0  0.00000000000E+00  0.00000000000E+00  0.19944123119E+04  0.19983225070E+04  0.12494947865E+03 0.  0.
    9000005    1    3    3    0    0  0.33062904106E+02  0.27804295189E+02  0.17188201327E+04  0.17193632202E+04  0.10000000000E+01 0.  0.
    9000005    1    3    3    0    0 -0.33062904106E+02 -0.27804295189E+02  0.27559217919E+03  0.27895928680E+03  0.10000000000E+01 0.  0.
<mgrwt>
<rscale>  0 0.12494948E+03</rscale>
<asrwt>0</asrwt>
<pdfrwt beam="1">  1        4 0.30713595E+00 0.12494948E+03</pdfrwt>
<pdfrwt beam="2">  1       -4 0.30078179E-03 0.12494948E+03</pdfrwt>
<totfact> 0.98939015E+02</totfact>
</mgrwt>
</event>
<event>
 5    1  0.3206665E-002  0.1249897E+03  0.7818608E-02  0.1235085E+00
          4   -1    0    0  501    0  0.00000000000E+00  0.00000000000E+00  0.48865350228E+03  0.48865515263E+03  0.12700000000E+01 0. -1.
         -4   -1    0    0    0  501 -0.00000000000E+00 -0.00000000000E+00 -0.79404589822E+01  0.80413797850E+01  0.12700000000E+01 0. -1.
         25    2    1    2    0    0  0.00000000000E+00  0.00000000000E+00  0.48071304329E+03  0.49669653241E+03  0.12498966083E+03 0.  0.
    9000005    1    3    3    0    0  0.40522535330E+02 -0.47414411401E+02  0.22527581588E+03  0.23375285132E+03  0.10000000000E+01 0.  0.
    9000005    1    3    3    0    0 -0.40522535330E+02  0.47414411401E+02  0.25543722741E+03  0.26294368109E+03  0.10000000000E+01 0.  0.
<mgrwt>
<rscale>  0 0.12498966E+03</rscale>
<asrwt>0</asrwt>
<pdfrwt beam="1">  1        4 0.75185353E-01 0.12498966E+03</pdfrwt>
<pdfrwt beam="2">  1       -4 0.12294992E-02 0.12498966E+03</pdfrwt>
<totfact> 0.56134349E+03</totfact>
</mgrwt>
</event>
<event>
 5    1  0.3206665E-002  0.1250045E+03  0.7818608E-02  0.1235062E+00
          4   -1    0    0  501    0  0.00000000000E+00  0.00000000000E+00  0.24091742717E+02  0.24125193618E+02  0.12700000000E+01 0. -1.
         -4   -1    0    0    0  501 -0.00000000000E+00 -0.00000000000E+00 -0.16200378043E+03  0.16200875833E+03  0.12700000000E+01 0. -1.
         25    2    1    2    0    0  0.00000000000E+00  0.00000000000E+00 -0.13791203772E+03  0.18613395195E+03  0.12500447160E+03 0.  0.
    9000005    1    3    3    0    0 -0.57155349100E+02  0.12029411163E+02 -0.10205408058E+03  0.11759028883E+03  0.10000000000E+01 0.  0.
    9000005    1    3    3    0    0  0.57155349100E+02 -0.12029411163E+02 -0.35857957138E+02  0.68543663119E+02  0.10000000000E+01 0.  0.
<mgrwt>
<rscale>  0 0.12500447E+03</rscale>
<asrwt>0</asrwt>
<pdfrwt beam="1">  1        4 0.37093781E-02 0.12500447E+03</pdfrwt>
<pdfrwt beam="2">  1       -4 0.24926614E-01 0.12500447E+03</pdfrwt>
<totfact> 0.92515109E+03</totfact>
</mgrwt>
</event>
<event>
 5    1  0.3206665E-002  0.1249998E+03  0.7818608E-02  0.1235070E+00
          4   -1    0    0  501    0  0.00000000000E+00  0.00000000000E+00  0.52672404622E+02  0.52687713071E+02  0.12700000000E+01 0.  1.
         -4   -1    0    0    0  501 -0.00000000000E+00 -0.00000000000E+00 -0.74129448819E+02  0.74140326963E+02  0.12700000000E+01 0.  1.
         25    2    1    2    0    0  0.00000000000E+00  0.00000000000E+00 -0.21457044196E+02  0.12682804003E+03  0.12499978797E+03 0.  0.
    9000005    1    3    3    0    0  0.53541858477E+02 -0.21724762563E+02 -0.34878771060E+02  0.67499811765E+02  0.10000000000E+01 0.  0.
    9000005    1    3    3    0    0 -0.53541858477E+02  0.21724762563E+02  0.13421726864E+02  0.59328228270E+02  0.10000000000E+01 0.  0.
<mgrwt>
<rscale>  0 0.12499979E+03</rscale>
<asrwt>0</asrwt>
<pdfrwt beam="1">  1        4 0.81054612E-02 0.12499979E+03</pdfrwt>
<pdfrwt beam="2">  1       -4 0.11406545E-01 0.12499979E+03</pdfrwt>
<totfact> 0.10412934E+04</totfact>
</mgrwt>
</event>
<event>
 5    1  0.3206665E-002  0.1250010E+03  0.7818608E-02  0.1235068E+00
          4   -1    0    0  501    0  0.00000000000E+00  0.00000000000E+00  0.14787679331E+02  0.14842114405E+02  0.12700000000E+01 0.  1.
         -4   -1    0    0    0  501 -0.00000000000E+00 -0.00000000000E+00 -0.26361848844E+03  0.26362154758E+03  0.12700000000E+01 0.  1.
         25    2    1    2    0    0  0.00000000000E+00  0.00000000000E+00 -0.24883080911E+03  0.27846366198E+03  0.12500095793E+03 0.  0.
    9000005    1    3    3    0    0 -0.10297752055E+02 -0.45954837020E+02 -0.32905801223E+02  0.57460268857E+02  0.10000000000E+01 0.  0.
    9000005    1    3    3    0    0  0.10297752055E+02  0.45954837020E+02 -0.21592500789E+03  0.22100339313E+03  0.10000000000E+01 0.  0.
<mgrwt>
<rscale>  0 0.12500096E+03</rscale>
<asrwt>0</asrwt>
<pdfrwt beam="1">  1        4 0.22794504E-02 0.12500096E+03</pdfrwt>
<pdfrwt beam="2">  1       -4 0.40561109E-01 0.12500096E+03</pdfrwt>
<totfact> 0.78380587E+03</totfact>
</mgrwt>
</event>
<event>
 5    1  0.3206665E-002  0.1250020E+03  0.7818608E-02  0.1235066E+00
          4   -1    0    0  501    0  0.00000000000E+00  0.00000000000E+00  0.10868886720E+03  0.10869628675E+03  0.12700000000E+01 0.  1.
         -4   -1    0    0    0  501 -0.00000000000E+00 -0.00000000000E+00 -0.35921052157E+02  0.35943495768E+02  0.12700000000E+01 0.  1.
         25    2    1    2    0    0  0.00000000000E+00  0.00000000000E+00  0.72767815042E+02  0.14463978252E+03  0.12500204711E+03 0.  0.
    9000005    1    3    3    0    0 -0.16855996752E+02 -0.59106408594E+02  0.49458913761E+02  0.78897885357E+02  0.10000000000E+01 0.  0.
    9000005    1    3    3    0    0  0.16855996752E+02  0.59106408594E+02  0.23308901281E+02  0.65741897160E+02  0.10000000000E+01 0.  0.
<mgrwt>
<rscale>  0 0.12500205E+03</rscale>
<asrwt>0</asrwt>
<pdfrwt beam="1">  1        4 0.16723661E-01 0.12500205E+03</pdfrwt>
<pdfrwt beam="2">  1       -4 0.55286129E-02 0.12500205E+03</pdfrwt>
<totfact> 0.10037850E+04</totfact>
</mgrwt>
</event>
<event>
 5    1  0.3206665E-002  0.1250024E+03  0.7818608E-02  0.1235066E+00
          4   -1    0    0  501    0  0.00000000000E+00  0.00000000000E+00  0.50916065786E+02  0.50931902136E+02  0.12700000000E+01 0. -1.
         -4   -1    0    0    0  501 -0.00000000000E+00 -0.00000000000E+00 -0.76689307011E+02  0.76699822098E+02  0.12700000000E+01 0. -1.
         25    2    1    2    0    0  0.00000000000E+00  0.00000000000E+00 -0.25773241225E+02  0.12763172423E+03  0.12500238825E+03 0.  0.
    9000005    1    3    3    0    0 -0.23396931250E+02  0.33929460032E+02  0.35077812479E+02  0.54130191006E+02  0.10000000000E+01 0.  0.
    9000005    1    3    3    0    0  0.23396931250E+02 -0.33929460032E+02 -0.60851053704E+02  0.73501533228E+02  0.10000000000E+01 0.  0.
<mgrwt>
<rscale>  0 0.12500239E+03</rscale>
<asrwt>0</asrwt>
<pdfrwt beam="1">  1        4 0.78352679E-02 0.12500239E+03</pdfrwt>
<pdfrwt beam="2">  1       -4 0.11800382E-01 0.12500239E+03</pdfrwt>
<totfact> 0.10394888E+04</totfact>
</mgrwt>
</event>
<event>
 5    1  0.3206665E-002  0.1250013E+03  0.7818608E-02  0.1235067E+00
         -4   -1    0    0    0  501 -0.00000000000E+00  0.00000000000E+00  0.42506621903E+03  0.42506811626E+03  0.12700000000E+01 0.  1.
          4   -1    0    0  501    0  0.00000000000E+00 -0.00000000000E+00 -0.91441295101E+01  0.92319014562E+01  0.12700000000E+01 0.  1.
         25    2    1    2    0    0  0.00000000000E+00  0.00000000000E+00  0.41592208952E+03  0.43430001772E+03  0.12500128334E+03 0.  0.
    9000005    1    3    3    0    0  0.58321368204E+02  0.18454346858E+02  0.16355093279E+03  0.17461916425E+03  0.10000000000E+01 0.  0.
    9000005    1    3    3    0    0 -0.58321368204E+02 -0.18454346858E+02  0.25237115674E+03  0.25968085347E+03  0.10000000000E+01 0.  0.
<mgrwt>
<rscale>  0 0.12500128E+03</rscale>
<asrwt>0</asrwt>
<pdfrwt beam="2">  1        4 0.14136871E-02 0.12500128E+03</pdfrwt>
<pdfrwt beam="1">  1       -4 0.65401687E-01 0.12500128E+03</pdfrwt>
<totfact> 0.61346417E+03</totfact>
</mgrwt>
</event>
<event>
 5    1  0.3206665E-002  0.1249992E+03  0.7818608E-02  0.1235070E+00
          4   -1    0    0  501    0  0.00000000000E+00  0.00000000000E+00  0.12087106657E+03  0.12087773837E+03  0.12700000000E+01 0. -1.
         -4   -1    0    0    0  501 -0.00000000000E+00 -0.00000000000E+00 -0.32297048226E+02  0.32322008355E+02  0.12700000000E+01 0. -1.
         25    2    1    2    0    0  0.00000000000E+00  0.00000000000E+00  0.88574018343E+02  0.15319974672E+03  0.12499922268E+03 0.  0.
    9000005    1    3    3    0    0 -0.37085278102E+02 -0.14448910006E+02 -0.14760126654E+02  0.42461160972E+02  0.10000000000E+01 0.  0.
    9000005    1    3    3    0    0  0.37085278102E+02  0.14448910006E+02  0.10333414500E+03  0.11073858575E+03  0.10000000000E+01 0.  0.
<mgrwt>
<rscale>  0 0.12499922E+03</rscale>
<asrwt>0</asrwt>
<pdfrwt beam="1">  1        4 0.18597982E-01 0.12499922E+03</pdfrwt>
<pdfrwt beam="2">  1       -4 0.49712100E-02 0.12499922E+03</pdfrwt>
<totfact> 0.98671384E+03</totfact>
</mgrwt>
</event>
<event>
 5    1  0.3206665E-002  0.1250412E+03  0.7818608E-02  0.1235005E+00
          4   -1    0    0  501    0  0.00000000000E+00  0.00000000000E+00  0.29125823277E+02  0.29153498617E+02  0.12700000000E+01 0. -1.
         -4   -1    0    0    0  501 -0.00000000000E+00 -0.00000000000E+00 -0.13411048501E+03  0.13411649820E+03  0.12700000000E+01 0. -1.
         25    2    1    2    0    0  0.00000000000E+00  0.00000000000E+00 -0.10498466174E+03  0.16326999682E+03  0.12504124384E+03 0.  0.
    9000005    1    3    3    0    0  0.57296466825E+02  0.48613530755E+01 -0.20473724792E+02  0.61046631940E+02  0.10000000000E+01 0.  0.
    9000005    1    3    3    0    0 -0.57296466825E+02 -0.48613530755E+01 -0.84510936945E+02  0.10222336488E+03  0.10000000000E+01 0.  0.
<mgrwt>
<rscale>  0 0.12504124E+03</rscale>
<asrwt>0</asrwt>
<pdfrwt beam="1">  1        4 0.44834874E-02 0.12504124E+03</pdfrwt>
<pdfrwt beam="2">  1       -4 0.20634973E-01 0.12504124E+03</pdfrwt>
<totfact> 0.96626461E+03</totfact>
</mgrwt>
</event>
<event>
 5    1  0.3206665E-002  0.1250007E+03  0.7818608E-02  0.1235068E+00
          4   -1    0    0  501    0  0.00000000000E+00  0.00000000000E+00  0.28482000348E+01  0.31185162239E+01  0.12700000000E+01 0. -1.
         -4   -1    0    0    0  501 -0.00000000000E+00 -0.00000000000E+00 -0.13090904445E+04  0.13090910605E+04  0.12700000000E+01 0. -1.
         25    2    1    2    0    0  0.00000000000E+00  0.00000000000E+00 -0.13062422444E+04  0.13122095767E+04  0.12500068848E+03 0.  0.
    9000005    1    3    3    0    0 -0.47310466758E+02  0.61571101694E+01 -0.22941470889E+03  0.23432519908E+03  0.10000000000E+01 0.  0.
    9000005    1    3    3    0    0  0.47310466758E+02 -0.61571101694E+01 -0.10768275356E+04  0.10778843777E+04  0.10000000000E+01 0.  0.
<mgrwt>
<rscale>  0 0.12500069E+03</rscale>
<asrwt>0</asrwt>
<pdfrwt beam="1">  1        4 0.45902661E-03 0.12500069E+03</pdfrwt>
<pdfrwt beam="2">  1       -4 0.20141891E+00 0.12500069E+03</pdfrwt>
<totfact> 0.21941911E+03</totfact>
</mgrwt>
</event>
<event>
 5    1  0.3206665E-002  0.1249948E+03  0.7818608E-02  0.1235077E+00
         -4   -1    0    0    0  501 -0.00000000000E+00  0.00000000000E+00  0.25255675152E+03  0.25255994464E+03  0.12700000000E+01 0.  1.
          4   -1    0    0  501    0  0.00000000000E+00 -0.00000000000E+00 -0.15436170135E+02  0.15488326199E+02  0.12700000000E+01 0.  1.
         25    2    1    2    0    0  0.00000000000E+00  0.00000000000E+00  0.23712058138E+03  0.26804827084E+03  0.12499482143E+03 0.  0.
    9000005    1    3    3    0    0  0.26090178726E+02 -0.55485150788E+02  0.14443895666E+03  0.15691689388E+03  0.10000000000E+01 0.  0.
    9000005    1    3    3    0    0 -0.26090178726E+02  0.55485150788E+02  0.92681624726E+02  0.11113137696E+03  0.10000000000E+01 0.  0.
<mgrwt>
<rscale>  0 0.12499482E+03</rscale>
<asrwt>0</asrwt>
<pdfrwt beam="2">  1        4 0.23790532E-02 0.12499482E+03</pdfrwt>
<pdfrwt beam="1">  1       -4 0.38859140E-01 0.12499482E+03</pdfrwt>
<totfact> 0.79798895E+03</totfact>
</mgrwt>
</event>
<event>
 5    1  0.3206665E-002  0.1249427E+03  0.7818608E-02  0.1235159E+00
          4   -1    0    0  501    0  0.00000000000E+00  0.00000000000E+00  0.98164715005E+02  0.98172929935E+02  0.12700000000E+01 0. -1.
         -4   -1    0    0    0  501 -0.00000000000E+00 -0.00000000000E+00 -0.39736310466E+02  0.39756600326E+02  0.12700000000E+01 0. -1.
         25    2    1    2    0    0  0.00000000000E+00  0.00000000000E+00  0.58428404539E+02  0.13792953026E+03  0.12494269431E+03 0.  0.
    9000005    1    3    3    0    0  0.59432054831E+02 -0.17280905615E+02  0.19920713992E+02  0.65027945425E+02  0.10000000000E+01 0.  0.
    9000005    1    3    3    0    0 -0.59432054831E+02  0.17280905615E+02  0.38507690546E+02  0.72901584835E+02  0.10000000000E+01 0.  0.
<mgrwt>
<rscale>  0 0.12494269E+03</rscale>
<asrwt>0</asrwt>
<pdfrwt beam="1">  1        4 0.15104457E-01 0.12494269E+03</pdfrwt>
<pdfrwt beam="2">  1       -4 0.61154712E-02 0.12494269E+03</pdfrwt>
<totfact> 0.10189831E+04</totfact>
</mgrwt>
</event>
<event>
 5    1  0.3206665E-002  0.1250023E+03  0.7818608E-02  0.1235066E+00
          4   -1    0    0  501    0  0.00000000000E+00  0.00000000000E+00  0.19237992420E+01  0.23051905612E+01  0.12700000000E+01 0.  1.
         -4   -1    0    0    0  501 -0.00000000000E+00 -0.00000000000E+00 -0.18470557281E+04  0.18470561647E+04  0.12700000000E+01 0.  1.
         25    2    1    2    0    0  0.00000000000E+00  0.00000000000E+00 -0.18451319289E+04  0.18493613553E+04  0.12500234995E+03 0.  0.
    9000005    1    3    3    0    0  0.11889887519E+02 -0.37053148787E+02 -0.19912731205E+03  0.20289650481E+03  0.10000000000E+01 0.  0.
    9000005    1    3    3    0    0 -0.11889887519E+02  0.37053148787E+02 -0.16460046168E+04  0.16464648505E+04  0.10000000000E+01 0.  0.
<mgrwt>
<rscale>  0 0.12500235E+03</rscale>
<asrwt>0</asrwt>
<pdfrwt beam="1">  1        4 0.32534197E-03 0.12500235E+03</pdfrwt>
<pdfrwt beam="2">  1       -4 0.28419050E+00 0.12500235E+03</pdfrwt>
<totfact> 0.11957665E+03</totfact>
</mgrwt>
</event>
<event>
 5    1  0.3206665E-002  0.1250004E+03  0.7818608E-02  0.1235069E+00
         -4   -1    0    0    0  501 -0.00000000000E+00  0.00000000000E+00  0.63679689495E+03  0.63679816136E+03  0.12700000000E+01 0.  1.
          4   -1    0    0  501    0  0.00000000000E+00 -0.00000000000E+00 -0.60672349830E+01  0.61987289293E+01  0.12700000000E+01 0.  1.
         25    2    1    2    0    0  0.00000000000E+00  0.00000000000E+00  0.63072965996E+03  0.64299689029E+03  0.12500038786E+03 0.  0.
    9000005    1    3    3    0    0 -0.30607372993E+02  0.12953384336E+02  0.43139396324E+02  0.54466585743E+02  0.10000000000E+01 0.  0.
    9000005    1    3    3    0    0  0.30607372993E+02 -0.12953384336E+02  0.58759026364E+03  0.58853030455E+03  0.10000000000E+01 0.  0.
<mgrwt>
<rscale>  0 0.12500039E+03</rscale>
<asrwt>0</asrwt>
<pdfrwt beam="2">  1        4 0.94363368E-03 0.12500039E+03</pdfrwt>
<pdfrwt beam="1">  1       -4 0.97978906E-01 0.12500039E+03</pdfrwt>
<totfact> 0.46260870E+03</totfact>
</mgrwt>
</event>
<event>
 5    1  0.3206665E-002  0.1250220E+03  0.7818608E-02  0.1235035E+00
          4   -1    0    0  501    0  0.00000000000E+00  0.00000000000E+00  0.39744772833E+02  0.39765058375E+02  0.12700000000E+01 0. -1.
         -4   -1    0    0    0  501 -0.00000000000E+00 -0.00000000000E+00 -0.98268556328E+02  0.98276762578E+02  0.12700000000E+01 0. -1.
         25    2    1    2    0    0  0.00000000000E+00  0.00000000000E+00 -0.58523783495E+02  0.13804182095E+03  0.12502204245E+03 0.  0.
    9000005    1    3    3    0    0 -0.39595722955E+02 -0.42986890282E+02 -0.53726346445E+02  0.79392785030E+02  0.10000000000E+01 0.  0.
    9000005    1    3    3    0    0  0.39595722955E+02  0.42986890282E+02 -0.47974370500E+01  0.58649035923E+02  0.10000000000E+01 0.  0.
<mgrwt>
<rscale>  0 0.12502204E+03</rscale>
<asrwt>0</asrwt>
<pdfrwt beam="1">  1        4 0.61167721E-02 0.12502204E+03</pdfrwt>
<pdfrwt beam="2">  1       -4 0.15120431E-01 0.12502204E+03</pdfrwt>
<totfact> 0.10169280E+04</totfact>
</mgrwt>
</event>
<event>
 5    1  0.3206665E-002  0.1249974E+03  0.7818608E-02  0.1235073E+00
          4   -1    0    0  501    0  0.00000000000E+00  0.00000000000E+00  0.49736880613E+02  0.49753092297E+02  0.12700000000E+01 0. -1.
         -4   -1    0    0    0  501 -0.00000000000E+00 -0.00000000000E+00 -0.78500848549E+02  0.78511121015E+02  0.12700000000E+01 0. -1.
         25    2    1    2    0    0  0.00000000000E+00  0.00000000000E+00 -0.28763967936E+02  0.12826421331E+03  0.12499737023E+03 0.  0.
    9000005    1    3    3    0    0  0.48395740605E+01  0.13663046219E+02 -0.76757045208E+02  0.78120063353E+02  0.10000000000E+01 0.  0.
    9000005    1    3    3    0    0 -0.48395740605E+01 -0.13663046219E+02  0.47993077272E+02  0.50144149959E+02  0.10000000000E+01 0.  0.
<mgrwt>
<rscale>  0 0.12499737E+03</rscale>
<asrwt>0</asrwt>
<pdfrwt beam="1">  1        4 0.76538650E-02 0.12499737E+03</pdfrwt>
<pdfrwt beam="2">  1       -4 0.12079091E-01 0.12499737E+03</pdfrwt>
<totfact> 0.10382402E+04</totfact>
</mgrwt>
</event>
<event>
 5    1  0.3206665E-002  0.1249851E+03  0.7818608E-02  0.1235093E+00
          4   -1    0    0  501    0  0.00000000000E+00  0.00000000000E+00  0.49710865255E+02  0.49727085420E+02  0.12700000000E+01 0. -1.
         -4   -1    0    0    0  501 -0.00000000000E+00 -0.00000000000E+00 -0.78526467029E+02  0.78536736143E+02  0.12700000000E+01 0. -1.
         25    2    1    2    0    0  0.00000000000E+00  0.00000000000E+00 -0.28815601774E+02  0.12826382156E+03  0.12498507517E+03 0.  0.
    9000005    1    3    3    0    0 -0.26918221070E+02 -0.14011382504E+01 -0.72258258905E+02  0.77128527757E+02  0.10000000000E+01 0.  0.
    9000005    1    3    3    0    0  0.26918221070E+02  0.14011382504E+01  0.43442657132E+02  0.51135293806E+02  0.10000000000E+01 0.  0.
<mgrwt>
<rscale>  0 0.12498508E+03</rscale>
<asrwt>0</asrwt>
<pdfrwt beam="1">  1        4 0.76498631E-02 0.12498508E+03</pdfrwt>
<pdfrwt beam="2">  1       -4 0.12083033E-01 0.12498508E+03</pdfrwt>
<totfact> 0.10385293E+04</totfact>
</mgrwt>
</event>
<event>
 5    1  0.3206665E-002  0.1250057E+03  0.7818608E-02  0.1235060E+00
          4   -1    0    0  501    0  0.00000000000E+00  0.00000000000E+00  0.58628645837E+03  0.58628783389E+03  0.12700000000E+01 0. -1.
         -4   -1    0    0    0  501 -0.00000000000E+00 -0.00000000000E+00 -0.66013910855E+01  0.67224448130E+01  0.12700000000E+01 0. -1.
         25    2    1    2    0    0  0.00000000000E+00  0.00000000000E+00  0.57968506729E+03  0.59301027871E+03  0.12500565353E+03 0.  0.
    9000005    1    3    3    0    0 -0.50597341909E+02 -0.24913054791E+02  0.41756204576E+03  0.42135473578E+03  0.10000000000E+01 0.  0.
    9000005    1    3    3    0    0  0.50597341909E+02  0.24913054791E+02  0.16212302153E+03  0.17165554293E+03  0.10000000000E+01 0.  0.
<mgrwt>
<rscale>  0 0.12500565E+03</rscale>
<asrwt>0</asrwt>
<pdfrwt beam="1">  1        4 0.90207340E-01 0.12500565E+03</pdfrwt>
<pdfrwt beam="2">  1       -4 0.10250162E-02 0.12500565E+03</pdfrwt>
<totfact> 0.49305699E+03</totfact>
</mgrwt>
</event>
<event>
 5    1  0.3206665E-002  0.1249994E+03  0.7818608E-02  0.1235070E+00
          4   -1    0    0  501    0  0.00000000000E+00  0.00000000000E+00  0.44931365847E+02  0.44949310749E+02  0.12700000000E+01 0.  1.
         -4   -1    0    0    0  501 -0.00000000000E+00 -0.00000000000E+00 -0.86897327961E+02  0.86906607957E+02  0.12700000000E+01 0.  1.
         25    2    1    2    0    0  0.00000000000E+00  0.00000000000E+00 -0.41965962114E+02  0.13185591871E+03  0.12499936529E+03 0.  0.
    9000005    1    3    3    0    0  0.53801909037E+02 -0.24985548971E+02 -0.25070360871E+00  0.59329469286E+02  0.10000000000E+01 0.  0.
    9000005    1    3    3    0    0 -0.53801909037E+02  0.24985548971E+02 -0.41715258505E+02  0.72526449421E+02  0.10000000000E+01 0.  0.
<mgrwt>
<rscale>  0 0.12499937E+03</rscale>
<asrwt>0</asrwt>
<pdfrwt beam="1">  1        4 0.69146120E-02 0.12499937E+03</pdfrwt>
<pdfrwt beam="2">  1       -4 0.13370914E-01 0.12499937E+03</pdfrwt>
<totfact> 0.10304922E+04</totfact>
</mgrwt>
</event>
<event>
 4    1  0.3206665E-002  0.1249327E+03  0.7818608E-02  0.1235175E+00
         -4   -1    0    0    0  501 -0.00000000000E+00  0.00000000000E+00  0.33208787707E+03  0.33209030549E+03  0.12700000000E+01 0.  1.
          4   -1    0    0  501    0  0.00000000000E+00 -0.00000000000E+00 -0.11713233312E+02  0.11781881625E+02  0.12700000000E+01 0.  1.
    9000005    1    1    2    0    0 -0.41914968014E+02 -0.21208844109E+02  0.46888798620E+02  0.66379507742E+02  0.10000000000E+01 0.  0.
    9000005    1    1    2    0    0  0.41914968014E+02  0.21208844109E+02  0.27348584514E+03  0.27749267937E+03  0.10000000000E+01 0.  0.
<mgrwt>
<rscale>  0 0.12493266E+03</rscale>
<asrwt>0</asrwt>
<pdfrwt beam="2">  1        4 0.18075032E-02 0.12493266E+03</pdfrwt>
<pdfrwt beam="1">  1       -4 0.51095915E-01 0.12493266E+03</pdfrwt>
<totfact> 0.70509050E+03</totfact>
</mgrwt>
</event>
<event>
 5    1  0.3206665E-002  0.1250018E+03  0.7818608E-02  0.1235067E+00
         -4   -1    0    0    0  501 -0.00000000000E+00  0.00000000000E+00  0.90013703059E+02  0.90022661805E+02  0.12700000000E+01 0. -1.
          4   -1    0    0  501    0  0.00000000000E+00 -0.00000000000E+00 -0.43376981116E+02  0.43395568791E+02  0.12700000000E+01 0. -1.
         25    2    1    2    0    0  0.00000000000E+00  0.00000000000E+00  0.46636721944E+02  0.13341823060E+03  0.12500176167E+03 0.  0.
    9000005    1    3    3    0    0 -0.32721656827E+02 -0.52328933725E+02  0.33794307959E+02  0.70371012361E+02  0.10000000000E+01 0.  0.
    9000005    1    3    3    0    0  0.32721656827E+02  0.52328933725E+02  0.12842413985E+02  0.63047218235E+02  0.10000000000E+01 0.  0.
<mgrwt>
<rscale>  0 0.12500176E+03</rscale>
<asrwt>0</asrwt>
<pdfrwt beam="2">  1        4 0.66755008E-02 0.12500176E+03</pdfrwt>
<pdfrwt beam="1">  1       -4 0.13850381E-01 0.12500176E+03</pdfrwt>
<totfact> 0.10271111E+04</totfact>
</mgrwt>
</event>
<event>
 5    1  0.3206665E-002  0.1250029E+03  0.7818608E-02  0.1235065E+00
         -4   -1    0    0    0  501 -0.00000000000E+00  0.00000000000E+00  0.61052199940E+02  0.61065407700E+02  0.12700000000E+01 0.  1.
          4   -1    0    0  501    0  0.00000000000E+00 -0.00000000000E+00 -0.63958623336E+02  0.63971231027E+02  0.12700000000E+01 0.  1.
         25    2    1    2    0    0  0.00000000000E+00  0.00000000000E+00 -0.29064233959E+01  0.12503663873E+03  0.12500285488E+03 0.  0.
    9000005    1    3    3    0    0 -0.30423343426E+02  0.52561521351E+02  0.13286274845E+02  0.62175706278E+02  0.10000000000E+01 0.  0.
    9000005    1    3    3    0    0  0.30423343426E+02 -0.52561521351E+02 -0.16192698241E+02  0.62860932448E+02  0.10000000000E+01 0.  0.
<mgrwt>
<rscale>  0 0.12500285E+03</rscale>
<asrwt>0</asrwt>
<pdfrwt beam="2">  1        4 0.98417740E-02 0.12500285E+03</pdfrwt>
<pdfrwt beam="1">  1       -4 0.93946320E-02 0.12500285E+03</pdfrwt>
<totfact> 0.10451392E+04</totfact>
</mgrwt>
</event>
<event>
 5    1  0.3206665E-002  0.1250023E+03  0.7818608E-02  0.1235066E+00
         -4   -1    0    0    0  501 -0.00000000000E+00  0.00000000000E+00  0.14171391872E+02  0.14228184972E+02  0.12700000000E+01 0.  1.
          4   -1    0    0  501    0  0.00000000000E+00 -0.00000000000E+00 -0.27504391354E+03  0.27504684560E+03  0.12700000000E+01 0.  1.
         25    2    1    2    0    0  0.00000000000E+00  0.00000000000E+00 -0.26087252166E+03  0.28927503057E+03  0.12500228299E+03 0.  0.
    9000005    1    3    3    0    0  0.34535956266E+02 -0.36366875814E+02 -0.44154757153E+02  0.66827572984E+02  0.10000000000E+01 0.  0.
    9000005    1    3    3    0    0 -0.34535956266E+02  0.36366875814E+02 -0.21671776451E+03  0.22244745759E+03  0.10000000000E+01 0.  0.
<mgrwt>
<rscale>  0 0.12500228E+03</rscale>
<asrwt>0</asrwt>
<pdfrwt beam="2">  1        4 0.42319038E-01 0.12500228E+03</pdfrwt>
<pdfrwt beam="1">  1       -4 0.21848086E-02 0.12500228E+03</pdfrwt>
<totfact> 0.76960258E+03</totfact>
</mgrwt>
</event>
<event>
 5    1  0.3206665E-002  0.1249999E+03  0.7818608E-02  0.1235069E+00
          4   -1    0    0  501    0  0.00000000000E+00  0.00000000000E+00  0.21437646239E+01  0.24917116131E+01  0.12700000000E+01 0. -1.
         -4   -1    0    0    0  501 -0.00000000000E+00 -0.00000000000E+00 -0.16850206732E+04  0.16850211518E+04  0.12700000000E+01 0. -1.
         25    2    1    2    0    0  0.00000000000E+00  0.00000000000E+00 -0.16828769086E+04  0.16875128634E+04  0.12499989906E+03 0.  0.
    9000005    1    3    3    0    0 -0.58010648446E+02  0.22877567840E+02 -0.89648391246E+03  0.89865066836E+03  0.10000000000E+01 0.  0.
    9000005    1    3    3    0    0  0.58010648446E+02 -0.22877567840E+02 -0.78639299613E+03  0.78886219507E+03  0.10000000000E+01 0.  0.
<mgrwt>
<rscale>  0 0.12499990E+03</rscale>
<asrwt>0</asrwt>
<pdfrwt beam="1">  1        4 0.35661326E-03 0.12499990E+03</pdfrwt>
<pdfrwt beam="2">  1       -4 0.25925977E+00 0.12499990E+03</pdfrwt>
<totfact> 0.14517457E+03</totfact>
</mgrwt>
</event>
<event>
 5    1  0.3206665E-002  0.1250001E+03  0.7818608E-02  0.1235069E+00
          4   -1    0    0  501    0  0.00000000000E+00  0.00000000000E+00  0.19743073959E+02  0.19783879027E+02  0.12700000000E+01 0.  1.
         -4   -1    0    0    0  501 -0.00000000000E+00 -0.00000000000E+00 -0.19760726897E+03  0.19761135001E+03  0.12700000000E+01 0.  1.
         25    2    1    2    0    0  0.00000000000E+00  0.00000000000E+00 -0.17786419501E+03  0.21739522903E+03  0.12500005495E+03 0.  0.
    9000005    1    3    3    0    0 -0.21669491053E+02 -0.55106709888E+02 -0.54195119992E+02  0.80277190708E+02  0.10000000000E+01 0.  0.
    9000005    1    3    3    0    0  0.21669491053E+02  0.55106709888E+02 -0.12366907502E+03  0.13711803832E+03  0.10000000000E+01 0.  0.
<mgrwt>
<rscale>  0 0.12500005E+03</rscale>
<asrwt>0</asrwt>
<pdfrwt beam="1">  1        4 0.30408489E-02 0.12500005E+03</pdfrwt>
<pdfrwt beam="2">  1       -4 0.30404570E-01 0.12500005E+03</pdfrwt>
<totfact> 0.87282099E+03</totfact>
</mgrwt>
</event>
<event>
 5    1  0.3206665E-002  0.1249994E+03  0.7818608E-02  0.1235070E+00
         -4   -1    0    0    0  501 -0.00000000000E+00  0.00000000000E+00  0.13676803257E+03  0.13677392892E+03  0.12700000000E+01 0.  1.
          4   -1    0    0  501    0  0.00000000000E+00 -0.00000000000E+00 -0.28540241949E+02  0.28568484568E+02  0.12700000000E+01 0.  1.
         25    2    1    2    0    0  0.00000000000E+00  0.00000000000E+00  0.10822779062E+03  0.16534241349E+03  0.12499943614E+03 0.  0.
    9000005    1    3    3    0    0  0.15711072866E+01  0.36650822113E+02 -0.12805298323E+02  0.38868069218E+02  0.10000000000E+01 0.  0.
    9000005    1    3    3    0    0 -0.15711072866E+01 -0.36650822113E+02  0.12103308894E+03  0.12647434427E+03  0.10000000000E+01 0.  0.
<mgrwt>
<rscale>  0 0.12499944E+03</rscale>
<asrwt>0</asrwt>
<pdfrwt beam="2">  1        4 0.43934326E-02 0.12499944E+03</pdfrwt>
<pdfrwt beam="1">  1       -4 0.21043861E-01 0.12499944E+03</pdfrwt>
<totfact> 0.96323804E+03</totfact>
</mgrwt>
</event>
<event>
 5    1  0.3206665E-002  0.1249947E+03  0.7818608E-02  0.1235078E+00
         -4   -1    0    0    0  501 -0.00000000000E+00  0.00000000000E+00  0.24772849912E+01  0.27838536110E+01  0.12700000000E+01 0. -1.
          4   -1    0    0  501    0  0.00000000000E+00 -0.00000000000E+00 -0.14845121736E+04  0.14845127168E+04  0.12700000000E+01 0. -1.
         25    2    1    2    0    0  0.00000000000E+00  0.00000000000E+00 -0.14820348886E+04  0.14872965704E+04  0.12499470960E+03 0.  0.
    9000005    1    3    3    0    0  0.50475771374E+02  0.36817099391E+02 -0.75614846300E+03  0.75872577418E+03  0.10000000000E+01 0.  0.
    9000005    1    3    3    0    0 -0.50475771374E+02 -0.36817099391E+02 -0.72588642559E+03  0.72857079625E+03  0.10000000000E+01 0.  0.
<mgrwt>
<rscale>  0 0.12499471E+03</rscale>
<asrwt>0</asrwt>
<pdfrwt beam="2">  1        4 0.22840944E+00 0.12499471E+03</pdfrwt>
<pdfrwt beam="1">  1       -4 0.40474594E-03 0.12499471E+03</pdfrwt>
<totfact> 0.18183704E+03</totfact>
</mgrwt>
</event>
<event>
 5    1  0.3206665E-002  0.1250018E+03  0.7818608E-02  0.1235066E+00
          4   -1    0    0  501    0  0.00000000000E+00  0.00000000000E+00  0.11242835167E+02  0.11314337921E+02  0.12700000000E+01 0.  1.
         -4   -1    0    0    0  501 -0.00000000000E+00 -0.00000000000E+00 -0.34627960491E+03  0.34628193380E+03  0.12700000000E+01 0.  1.
         25    2    1    2    0    0  0.00000000000E+00  0.00000000000E+00 -0.33503676975E+03  0.35759627173E+03  0.12500182586E+03 0.  0.
    9000005    1    3    3    0    0  0.57297999410E+02 -0.13959603087E+02 -0.10837440026E+03  0.12338533902E+03  0.10000000000E+01 0.  0.
    9000005    1    3    3    0    0 -0.57297999410E+02  0.13959603087E+02 -0.22666236949E+03  0.23421093270E+03  0.10000000000E+01 0.  0.
<mgrwt>
<rscale>  0 0.12500183E+03</rscale>
<asrwt>0</asrwt>
<pdfrwt beam="1">  1        4 0.17353466E-02 0.12500183E+03</pdfrwt>
<pdfrwt beam="2">  1       -4 0.53279456E-01 0.12500183E+03</pdfrwt>
<totfact> 0.68894100E+03</totfact>
</mgrwt>
</event>
<event>
 5    1  0.3206665E-002  0.1250013E+03  0.7818608E-02  0.1235067E+00
          4   -1    0    0  501    0  0.00000000000E+00  0.00000000000E+00  0.42170513067E+03  0.42170704302E+03  0.12700000000E+01 0. -1.
         -4   -1    0    0    0  501 -0.00000000000E+00 -0.00000000000E+00 -0.92177132932E+01  0.93047911506E+01  0.12700000000E+01 0. -1.
         25    2    1    2    0    0  0.00000000000E+00  0.00000000000E+00  0.41248741737E+03  0.43101183417E+03  0.12500132680E+03 0.  0.
    9000005    1    3    3    0    0  0.47699002538E+02  0.32321315082E+02  0.28967465026E+03  0.29535108812E+03  0.10000000000E+01 0.  0.
    9000005    1    3    3    0    0 -0.47699002538E+02 -0.32321315082E+02  0.12281276712E+03  0.13566074605E+03  0.10000000000E+01 0.  0.
<mgrwt>
<rscale>  0 0.12500133E+03</rscale>
<asrwt>0</asrwt>
<pdfrwt beam="1">  1        4 0.64884574E-01 0.12500133E+03</pdfrwt>
<pdfrwt beam="2">  1       -4 0.14249548E-02 0.12500133E+03</pdfrwt>
<totfact> 0.61642568E+03</totfact>
</mgrwt>
</event>
<event>
 5    1  0.3206665E-002  0.1249957E+03  0.7818608E-02  0.1235076E+00
          4   -1    0    0  501    0  0.00000000000E+00  0.00000000000E+00  0.32549745777E+02  0.32574512278E+02  0.12700000000E+01 0.  1.
         -4   -1    0    0    0  501 -0.00000000000E+00 -0.00000000000E+00 -0.11992653331E+03  0.11993325765E+03  0.12700000000E+01 0.  1.
         25    2    1    2    0    0  0.00000000000E+00  0.00000000000E+00 -0.87376787530E+02  0.15250776993E+03  0.12499566748E+03 0.  0.
    9000005    1    3    3    0    0 -0.27970284012E+02  0.53113333482E+02 -0.64878072499E+02  0.88394158588E+02  0.10000000000E+01 0.  0.
    9000005    1    3    3    0    0  0.27970284012E+02 -0.53113333482E+02 -0.22498715031E+02  0.64113611342E+02  0.10000000000E+01 0.  0.
<mgrwt>
<rscale>  0 0.12499567E+03</rscale>
<asrwt>0</asrwt>
<pdfrwt beam="1">  1        4 0.50100756E-02 0.12499567E+03</pdfrwt>
<pdfrwt beam="2">  1       -4 0.18452658E-01 0.12499567E+03</pdfrwt>
<totfact> 0.98815773E+03</totfact>
</mgrwt>
</event>
<event>
 5    1  0.3206665E-002  0.1249965E+03  0.7818608E-02  0.1235075E+00
          4   -1    0    0  501    0  0.00000000000E+00  0.00000000000E+00  0.15201310005E+02  0.15254269103E+02  0.12700000000E+01 0.  1.
         -4   -1    0    0    0  501 -0.00000000000E+00 -0.00000000000E+00 -0.25645227725E+03  0.25645542187E+03  0.12700000000E+01 0.  1.
         25    2    1    2    0    0  0.00000000000E+00  0.00000000000E+00 -0.24125096725E+03  0.27170969098E+03  0.12499650784E+03 0.  0.
    9000005    1    3    3    0    0  0.36925825871E+02 -0.14616867642E+02 -0.15747122361E+02  0.42733374528E+02  0.10000000000E+01 0.  0.
    9000005    1    3    3    0    0 -0.36925825871E+02  0.14616867642E+02 -0.22550384488E+03  0.22897631645E+03  0.10000000000E+01 0.  0.
<mgrwt>
<rscale>  0 0.12499651E+03</rscale>
<asrwt>0</asrwt>
<pdfrwt beam="1">  1        4 0.23429789E-02 0.12499651E+03</pdfrwt>
<pdfrwt beam="2">  1       -4 0.39458509E-01 0.12499651E+03</pdfrwt>
<totfact> 0.79296499E+03</totfact>
</mgrwt>
</event>
<event>
 5    1  0.3206665E-002  0.1250004E+03  0.7818608E-02  0.1235069E+00
         -4   -1    0    0    0  501 -0.00000000000E+00  0.00000000000E+00  0.81527299546E+01  0.82510548242E+01  0.12700000000E+01 0. -1.
          4   -1    0    0  501    0  0.00000000000E+00 -0.00000000000E+00 -0.47616611657E+03  0.47616781020E+03  0.12700000000E+01 0. -1.
         25    2    1    2    0    0  0.00000000000E+00  0.00000000000E+00 -0.46801338662E+03  0.48441886502E+03  0.12500042695E+03 0.  0.
    9000005    1    3    3    0    0 -0.31684958381E+01 -0.28266834407E+01 -0.47562544151E+03  0.47564544580E+03  0.10000000000E+01 0.  0.
    9000005    1    3    3    0    0  0.31684958381E+01  0.28266834407E+01  0.76120548907E+01  0.87734192200E+01  0.10000000000E+01 0.  0.
<mgrwt>
<rscale>  0 0.12500043E+03</rscale>
<asrwt>0</asrwt>
<pdfrwt beam="2">  1        4 0.73263998E-01 0.12500043E+03</pdfrwt>
<pdfrwt beam="1">  1       -4 0.12619602E-02 0.12500043E+03</pdfrwt>
<totfact> 0.57093339E+03</totfact>
</mgrwt>
</event>
<event>
 5    1  0.3206665E-002  0.1250048E+03  0.7818608E-02  0.1235062E+00
          4   -1    0    0  501    0  0.00000000000E+00  0.00000000000E+00  0.33688836943E+03  0.33689076324E+03  0.12700000000E+01 0.  1.
         -4   -1    0    0    0  501 -0.00000000000E+00 -0.00000000000E+00 -0.11558765420E+02  0.11628325676E+02  0.12700000000E+01 0.  1.
         25    2    1    2    0    0  0.00000000000E+00  0.00000000000E+00  0.32532960401E+03  0.34851908892E+03  0.12500481628E+03 0.  0.
    9000005    1    3    3    0    0 -0.30508710481E+02 -0.48273909032E+01  0.31413204109E+03  0.31564857731E+03  0.10000000000E+01 0.  0.
    9000005    1    3    3    0    0  0.30508710481E+02  0.48273909032E+01  0.11197562923E+02  0.32870511610E+02  0.10000000000E+01 0.  0.
<mgrwt>
<rscale>  0 0.12500482E+03</rscale>
<asrwt>0</asrwt>
<pdfrwt beam="1">  1        4 0.51834522E-01 0.12500482E+03</pdfrwt>
<pdfrwt beam="2">  1       -4 0.17838063E-02 0.12500482E+03</pdfrwt>
<totfact> 0.69880326E+03</totfact>
</mgrwt>
</event>
<event>
 5    1  0.3206665E-002  0.1250028E+03  0.7818608E-02  0.1235065E+00
         -4   -1    0    0    0  501 -0.00000000000E+00  0.00000000000E+00  0.25838357551E+02  0.25869550072E+02  0.12700000000E+01 0. -1.
          4   -1    0    0  501    0  0.00000000000E+00 -0.00000000000E+00 -0.15106202685E+03  0.15106736529E+03  0.12700000000E+01 0. -1.
         25    2    1    2    0    0  0.00000000000E+00  0.00000000000E+00 -0.12522366930E+03  0.17693691536E+03  0.12500281863E+03 0.  0.
    9000005    1    3    3    0    0  0.43288715913E+02 -0.13810597118E+02 -0.18823401857E+01  0.45488336118E+02  0.10000000000E+01 0.  0.
    9000005    1    3    3    0    0 -0.43288715913E+02  0.13810597118E+02 -0.12334132911E+03  0.13144857925E+03  0.10000000000E+01 0.  0.
<mgrwt>
<rscale>  0 0.12500282E+03</rscale>
<asrwt>0</asrwt>
<pdfrwt beam="2">  1        4 0.23243121E-01 0.12500282E+03</pdfrwt>
<pdfrwt beam="1">  1       -4 0.39779421E-02 0.12500282E+03</pdfrwt>
<totfact> 0.94165339E+03</totfact>
</mgrwt>
</event>
<event>
 5    1  0.3206665E-002  0.1249972E+03  0.7818608E-02  0.1235074E+00
         -4   -1    0    0    0  501 -0.00000000000E+00  0.00000000000E+00  0.11843806945E+03  0.11844487829E+03  0.12700000000E+01 0.  1.
          4   -1    0    0  501    0  0.00000000000E+00 -0.00000000000E+00 -0.32959909444E+02  0.32984367973E+02  0.12700000000E+01 0.  1.
         25    2    1    2    0    0  0.00000000000E+00  0.00000000000E+00  0.85478160002E+02  0.15142924627E+03  0.12499720312E+03 0.  0.
    9000005    1    3    3    0    0  0.98566850526E+01 -0.61502106699E+02  0.36632087023E+02  0.72267372779E+02  0.10000000000E+01 0.  0.
    9000005    1    3    3    0    0 -0.98566850526E+01  0.61502106699E+02  0.48846072979E+02  0.79161873488E+02  0.10000000000E+01 0.  0.
<mgrwt>
<rscale>  0 0.12499720E+03</rscale>
<asrwt>0</asrwt>
<pdfrwt beam="2">  1        4 0.50731603E-02 0.12499720E+03</pdfrwt>
<pdfrwt beam="1">  1       -4 0.18223647E-01 0.12499720E+03</pdfrwt>
<totfact> 0.99025790E+03</totfact>
</mgrwt>
</event>
<event>
 5    1  0.3206665E-002  0.1250003E+03  0.7818608E-02  0.1235069E+00
         -4   -1    0    0    0  501 -0.00000000000E+00  0.00000000000E+00  0.32229092744E+03  0.32229342967E+03  0.12700000000E+01 0.  1.
          4   -1    0    0  501    0  0.00000000000E+00 -0.00000000000E+00 -0.12084486712E+02  0.12151037778E+02  0.12700000000E+01 0.  1.
         25    2    1    2    0    0  0.00000000000E+00  0.00000000000E+00  0.31020644073E+03  0.33444446745E+03  0.12500026376E+03 0.  0.
    9000005    1    3    3    0    0  0.74731190635E+00 -0.51679299842E+02  0.24908924309E+03  0.25439685441E+03  0.10000000000E+01 0.  0.
    9000005    1    3    3    0    0 -0.74731190635E+00  0.51679299842E+02  0.61117197635E+02  0.80047613044E+02  0.10000000000E+01 0.  0.
<mgrwt>
<rscale>  0 0.12500026E+03</rscale>
<asrwt>0</asrwt>
<pdfrwt beam="2">  1        4 0.18644633E-02 0.12500026E+03</pdfrwt>
<pdfrwt beam="1">  1       -4 0.49588538E-01 0.12500026E+03</pdfrwt>
<totfact> 0.71470029E+03</totfact>
</mgrwt>
</event>
<event>
 5    1  0.3206665E-002  0.1249949E+03  0.7818608E-02  0.1235077E+00
         -4   -1    0    0    0  501 -0.00000000000E+00  0.00000000000E+00  0.37971292154E+03  0.37971504538E+03  0.12700000000E+01 0.  1.
          4   -1    0    0  501    0  0.00000000000E+00 -0.00000000000E+00 -0.10245183044E+02  0.10323597997E+02  0.12700000000E+01 0.  1.
         25    2    1    2    0    0  0.00000000000E+00  0.00000000000E+00  0.36946773850E+03  0.39003864338E+03  0.12499493404E+03 0.  0.
    9000005    1    3    3    0    0 -0.37008524541E+02 -0.15224792728E+02  0.34968947106E+02  0.53153103992E+02  0.10000000000E+01 0.  0.
    9000005    1    3    3    0    0  0.37008524541E+02  0.15224792728E+02  0.33449879139E+03  0.33688553938E+03  0.10000000000E+01 0.  0.
<mgrwt>
<rscale>  0 0.12499493E+03</rscale>
<asrwt>0</asrwt>
<pdfrwt beam="2">  1        4 0.15823771E-02 0.12499493E+03</pdfrwt>
<pdfrwt beam="1">  1       -4 0.58423573E-01 0.12499493E+03</pdfrwt>
<totfact> 0.65540615E+03</totfact>
</mgrwt>
</event>
<event>
 5    1  0.3206665E-002  0.1249984E+03  0.7818608E-02  0.1235072E+00
          4   -1    0    0  501    0  0.00000000000E+00  0.00000000000E+00  0.39364203682E+02  0.39384685241E+02  0.12700000000E+01 0.  1.
         -4   -1    0    0    0  501 -0.00000000000E+00 -0.00000000000E+00 -0.99180626376E+02  0.99188757167E+02  0.12700000000E+01 0.  1.
         25    2    1    2    0    0  0.00000000000E+00  0.00000000000E+00 -0.59816422695E+02  0.13857344241E+03  0.12499837806E+03 0.  0.
    9000005    1    3    3    0    0 -0.59000868995E+02  0.14415495596E+02 -0.46210298713E+02  0.76323657949E+02  0.10000000000E+01 0.  0.
    9000005    1    3    3    0    0  0.59000868995E+02 -0.14415495596E+02 -0.13606123981E+02  0.62249784460E+02  0.10000000000E+01 0.  0.
<mgrwt>
<rscale>  0 0.12499838E+03</rscale>
<asrwt>0</asrwt>
<pdfrwt beam="1">  1        4 0.60582323E-02 0.12499838E+03</pdfrwt>
<pdfrwt beam="2">  1       -4 0.15260759E-01 0.12499838E+03</pdfrwt>
<totfact> 0.10163609E+04</totfact>
</mgrwt>
</event>
<event>
 5    1  0.3206665E-002  0.1250008E+03  0.7818608E-02  0.1235068E+00
          4   -1    0    0  501    0  0.00000000000E+00  0.00000000000E+00  0.48995803973E+03  0.48995968569E+03  0.12700000000E+01 0.  1.
         -4   -1    0    0    0  501 -0.00000000000E+00 -0.00000000000E+00 -0.79204769891E+01  0.80216491904E+01  0.12700000000E+01 0.  1.
         25    2    1    2    0    0  0.00000000000E+00  0.00000000000E+00  0.48203756275E+03  0.49798133488E+03  0.12500079196E+03 0.  0.
    9000005    1    3    3    0    0  0.35285789046E+02 -0.51397501964E+02  0.25815820634E+03  0.26558134275E+03  0.10000000000E+01 0.  0.
    9000005    1    3    3    0    0 -0.35285789046E+02  0.51397501964E+02  0.22387935641E+03  0.23239999213E+03  0.10000000000E+01 0.  0.
<mgrwt>
<rscale>  0 0.12500079E+03</rscale>
<asrwt>0</asrwt>
<pdfrwt beam="1">  1        4 0.75386081E-01 0.12500079E+03</pdfrwt>
<pdfrwt beam="2">  1       -4 0.12264438E-02 0.12500079E+03</pdfrwt>
<totfact> 0.56020348E+03</totfact>
</mgrwt>
</event>
<event>
 5    1  0.3206665E-002  0.1250016E+03  0.7818608E-02  0.1235067E+00
          4   -1    0    0  501    0  0.00000000000E+00  0.00000000000E+00  0.16497501600E+02  0.16546312552E+02  0.12700000000E+01 0. -1.
         -4   -1    0    0    0  501 -0.00000000000E+00 -0.00000000000E+00 -0.23638393737E+03  0.23638734896E+03  0.12700000000E+01 0. -1.
         25    2    1    2    0    0  0.00000000000E+00  0.00000000000E+00 -0.21988643577E+03  0.25293366151E+03  0.12500156994E+03 0.  0.
    9000005    1    3    3    0    0  0.34525853722E+02 -0.14265865439E+02 -0.21131348770E+03  0.21459249655E+03  0.10000000000E+01 0.  0.
    9000005    1    3    3    0    0 -0.34525853722E+02  0.14265865439E+02 -0.85729480739E+01  0.38341164961E+02  0.10000000000E+01 0.  0.
<mgrwt>
<rscale>  0 0.12500157E+03</rscale>
<asrwt>0</asrwt>
<pdfrwt beam="1">  1        4 0.25420945E-02 0.12500157E+03</pdfrwt>
<pdfrwt beam="2">  1       -4 0.36370774E-01 0.12500157E+03</pdfrwt>
<totfact> 0.81905200E+03</totfact>
</mgrwt>
</event>
<event>
 5    1  0.3206665E-002  0.1249945E+03  0.7818608E-02  0.1235078E+00
          4   -1    0    0  501    0  0.00000000000E+00  0.00000000000E+00  0.31646673844E+02  0.31672146523E+02  0.12700000000E+01 0.  1.
         -4   -1    0    0    0  501 -0.00000000000E+00 -0.00000000000E+00 -0.12334387872E+03  0.12335041678E+03  0.12700000000E+01 0.  1.
         25    2    1    2    0    0  0.00000000000E+00  0.00000000000E+00 -0.91697204881E+02  0.15502256330E+03  0.12499447087E+03 0.  0.
    9000005    1    3    3    0    0 -0.46365534759E+02 -0.38266442607E+02 -0.66998924675E+02  0.90021882623E+02  0.10000000000E+01 0.  0.
    9000005    1    3    3    0    0  0.46365534759E+02  0.38266442607E+02 -0.24698280205E+02  0.65000680677E+02  0.10000000000E+01 0.  0.
<mgrwt>
<rscale>  0 0.12499447E+03</rscale>
<asrwt>0</asrwt>
<pdfrwt beam="1">  1        4 0.48711815E-02 0.12499447E+03</pdfrwt>
<pdfrwt beam="2">  1       -4 0.18978444E-01 0.12499447E+03</pdfrwt>
<totfact> 0.98323295E+03</totfact>
</mgrwt>
</event>
<event>
 5    1  0.3206665E-002  0.1249995E+03  0.7818608E-02  0.1235070E+00
          4   -1    0    0  501    0  0.00000000000E+00  0.00000000000E+00  0.31576380565E+04  0.31576383119E+04  0.12700000000E+01 0.  1.
         -4   -1    0    0    0  501 -0.00000000000E+00 -0.00000000000E+00 -0.91079525153E+00  0.15628333213E+01  0.12700000000E+01 0.  1.
         25    2    1    2    0    0  0.00000000000E+00  0.00000000000E+00  0.31567272613E+04  0.31592011452E+04  0.12499949615E+03 0.  0.
    9000005    1    3    3    0    0  0.49115956099E+02  0.34313290239E+02  0.11294869555E+04  0.11310754005E+04  0.10000000000E+01 0.  0.
    9000005    1    3    3    0    0 -0.49115956099E+02 -0.34313290239E+02  0.20272403058E+04  0.20281257447E+04  0.10000000000E+01 0.  0.
<mgrwt>
<rscale>  0 0.12499950E+03</rscale>
<asrwt>0</asrwt>
<pdfrwt beam="1">  1        4 0.48584102E+00 0.12499950E+03</pdfrwt>
<pdfrwt beam="2">  1       -4 0.19029862E-03 0.12499950E+03</pdfrwt>
<totfact> 0.12890152E+02</totfact>
</mgrwt>
</event>
<event>
 5    1  0.3206665E-002  0.1249999E+03  0.7818608E-02  0.1235069E+00
         -4   -1    0    0    0  501 -0.00000000000E+00  0.00000000000E+00  0.31660581150E+02  0.31686042649E+02  0.12700000000E+01 0.  1.
          4   -1    0    0  501    0  0.00000000000E+00 -0.00000000000E+00 -0.12330054948E+03  0.12330708983E+03  0.12700000000E+01 0.  1.
         25    2    1    2    0    0  0.00000000000E+00  0.00000000000E+00 -0.91639968327E+02  0.15499313248E+03  0.12499994928E+03 0.  0.
    9000005    1    3    3    0    0 -0.53458045435E+02  0.24115223411E+02 -0.19054955461E+02  0.61671694882E+02  0.10000000000E+01 0.  0.
    9000005    1    3    3    0    0  0.53458045435E+02 -0.24115223411E+02 -0.72585012866E+02  0.93321437594E+02  0.10000000000E+01 0.  0.
<mgrwt>
<rscale>  0 0.12499995E+03</rscale>
<asrwt>0</asrwt>
<pdfrwt beam="2">  1        4 0.18971777E-01 0.12499995E+03</pdfrwt>
<pdfrwt beam="1">  1       -4 0.48733204E-02 0.12499995E+03</pdfrwt>
<totfact> 0.98316959E+03</totfact>
</mgrwt>
</event>
<event>
 5    1  0.3206665E-002  0.1249898E+03  0.7818608E-02  0.1235085E+00
          4   -1    0    0  501    0  0.00000000000E+00  0.00000000000E+00  0.64815604460E+03  0.64815728882E+03  0.12700000000E+01 0. -1.
         -4   -1    0    0    0  501 -0.00000000000E+00 -0.00000000000E+00 -0.59575472338E+01  0.60914094464E+01  0.12700000000E+01 0. -1.
         25    2    1    2    0    0  0.00000000000E+00  0.00000000000E+00  0.64219849736E+03  0.65424869826E+03  0.12498979624E+03 0.  0.
    9000005    1    3    3    0    0 -0.64173504401E+01 -0.62114819309E+02  0.30918692250E+03  0.31543142869E+03  0.10000000000E+01 0.  0.
    9000005    1    3    3    0    0  0.64173504401E+01  0.62114819309E+02  0.33301157487E+03  0.33881726957E+03  0.10000000000E+01 0.  0.
<mgrwt>
<rscale>  0 0.12498980E+03</rscale>
<asrwt>0</asrwt>
<pdfrwt beam="1">  1        4 0.99726679E-01 0.12498980E+03</pdfrwt>
<pdfrwt beam="2">  1       -4 0.92693879E-03 0.12498980E+03</pdfrwt>
<totfact> 0.45623028E+03</totfact>
</mgrwt>
</event>
<event>
 5    1  0.3206665E-002  0.1249960E+03  0.7818608E-02  0.1235076E+00
          4   -1    0    0  501    0  0.00000000000E+00  0.00000000000E+00  0.32531741980E+03  0.32531989875E+03  0.12700000000E+01 0.  1.
         -4   -1    0    0    0  501 -0.00000000000E+00 -0.00000000000E+00 -0.11970619300E+02  0.12037799900E+02  0.12700000000E+01 0.  1.
         25    2    1    2    0    0  0.00000000000E+00  0.00000000000E+00  0.31334680050E+03  0.33735769865E+03  0.12499599776E+03 0.  0.
    9000005    1    3    3    0    0  0.39097590839E+02  0.48173660381E+02  0.17681209236E+03  0.18738420203E+03  0.10000000000E+01 0.  0.
    9000005    1    3    3    0    0 -0.39097590839E+02 -0.48173660381E+02  0.13653470813E+03  0.14997349662E+03  0.10000000000E+01 0.  0.
<mgrwt>
<rscale>  0 0.12499600E+03</rscale>
<asrwt>0</asrwt>
<pdfrwt beam="1">  1        4 0.50054189E-01 0.12499600E+03</pdfrwt>
<pdfrwt beam="2">  1       -4 0.18469923E-02 0.12499600E+03</pdfrwt>
<totfact> 0.71144434E+03</totfact>
</mgrwt>
</event>
<event>
 5    1  0.3206665E-002  0.1250010E+03  0.7818608E-02  0.1235068E+00
          4   -1    0    0  501    0  0.00000000000E+00  0.00000000000E+00  0.43481090778E+02  0.43499633967E+02  0.12700000000E+01 0. -1.
         -4   -1    0    0    0  501 -0.00000000000E+00 -0.00000000000E+00 -0.89797131937E+02  0.89806112287E+02  0.12700000000E+01 0. -1.
         25    2    1    2    0    0  0.00000000000E+00  0.00000000000E+00 -0.46316041159E+02  0.13330574625E+03  0.12500098526E+03 0.  0.
    9000005    1    3    3    0    0 -0.47135310963E+02  0.15106100029E+02 -0.63842016576E+02  0.80788210020E+02  0.10000000000E+01 0.  0.
    9000005    1    3    3    0    0  0.47135310963E+02 -0.15106100029E+02  0.17525975418E+02  0.52517536233E+02  0.10000000000E+01 0.  0.
<mgrwt>
<rscale>  0 0.12500099E+03</rscale>
<asrwt>0</asrwt>
<pdfrwt beam="1">  1        4 0.66915158E-02 0.12500099E+03</pdfrwt>
<pdfrwt beam="2">  1       -4 0.13817061E-01 0.12500099E+03</pdfrwt>
<totfact> 0.10273678E+04</totfact>
</mgrwt>
</event>
<event>
 5    1  0.3206665E-002  0.1250041E+03  0.7818608E-02  0.1235063E+00
          4   -1    0    0  501    0  0.00000000000E+00  0.00000000000E+00  0.47989288080E+02  0.48006089930E+02  0.12700000000E+01 0. -1.
         -4   -1    0    0    0  501 -0.00000000000E+00 -0.00000000000E+00 -0.81367649545E+02  0.81377560129E+02  0.12700000000E+01 0. -1.
         25    2    1    2    0    0  0.00000000000E+00  0.00000000000E+00 -0.33378361465E+02  0.12938365006E+03  0.12500405549E+03 0.  0.
    9000005    1    3    3    0    0  0.40471717303E+02  0.29413196154E+02  0.22071589898E+02  0.54692331182E+02  0.10000000000E+01 0.  0.
    9000005    1    3    3    0    0 -0.40471717303E+02 -0.29413196154E+02 -0.55449951364E+02  0.74691318878E+02  0.10000000000E+01 0.  0.
<mgrwt>
<rscale>  0 0.12500406E+03</rscale>
<asrwt>0</asrwt>
<pdfrwt beam="1">  1        4 0.73850222E-02 0.12500406E+03</pdfrwt>
<pdfrwt beam="2">  1       -4 0.12520155E-01 0.12500406E+03</pdfrwt>
<totfact> 0.10356762E+04</totfact>
</mgrwt>
</event>
<event>
 5    1  0.3206665E-002  0.1249998E+03  0.7818608E-02  0.1235070E+00
          4   -1    0    0  501    0  0.00000000000E+00  0.00000000000E+00  0.11230710967E+02  0.11302290424E+02  0.12700000000E+01 0.  1.
         -4   -1    0    0    0  501 -0.00000000000E+00 -0.00000000000E+00 -0.34664006051E+03  0.34664238698E+03  0.12700000000E+01 0.  1.
         25    2    1    2    0    0  0.00000000000E+00  0.00000000000E+00 -0.33540934954E+03  0.35794467740E+03  0.12499984128E+03 0.  0.
    9000005    1    3    3    0    0 -0.39404677258E+02 -0.36438971645E+01 -0.30620258967E+03  0.30875076112E+03  0.10000000000E+01 0.  0.
    9000005    1    3    3    0    0  0.39404677258E+02  0.36438971645E+01 -0.29206759878E+02  0.49193916280E+02  0.10000000000E+01 0.  0.
<mgrwt>
<rscale>  0 0.12499984E+03</rscale>
<asrwt>0</asrwt>
<pdfrwt beam="1">  1        4 0.17334870E-02 0.12499984E+03</pdfrwt>
<pdfrwt beam="2">  1       -4 0.53334917E-01 0.12499984E+03</pdfrwt>
<totfact> 0.68859543E+03</totfact>
</mgrwt>
</event>
<event>
 5    1  0.3206665E-002  0.1249992E+03  0.7818608E-02  0.1235071E+00
          4   -1    0    0  501    0  0.00000000000E+00  0.00000000000E+00  0.40330291636E+03  0.40330491597E+03  0.12700000000E+01 0. -1.
         -4   -1    0    0    0  501 -0.00000000000E+00 -0.00000000000E+00 -0.96418609990E+01  0.97251418254E+01  0.12700000000E+01 0. -1.
         25    2    1    2    0    0  0.00000000000E+00  0.00000000000E+00  0.39366105536E+03  0.41303005779E+03  0.12499920853E+03 0.  0.
    9000005    1    3    3    0    0 -0.40066868690E+01  0.59440936595E+02  0.13449267443E+03  0.14710050292E+03  0.10000000000E+01 0.  0.
    9000005    1    3    3    0    0  0.40066868690E+01 -0.59440936595E+02  0.25916838093E+03  0.26592955488E+03  0.10000000000E+01 0.  0.
<mgrwt>
<rscale>  0 0.12499921E+03</rscale>
<asrwt>0</asrwt>
<pdfrwt beam="1">  1        4 0.62053167E-01 0.12499921E+03</pdfrwt>
<pdfrwt beam="2">  1       -4 0.14899232E-02 0.12499921E+03</pdfrwt>
<totfact> 0.63306029E+03</totfact>
</mgrwt>
</event>
<event>
 5    1  0.3206665E-002  0.1249981E+03  0.7818608E-02  0.1235072E+00
         -4   -1    0    0    0  501 -0.00000000000E+00  0.00000000000E+00  0.56231471839E+03  0.56231615255E+03  0.12700000000E+01 0. -1.
          4   -1    0    0  501    0  0.00000000000E+00 -0.00000000000E+00 -0.68870164901E+01  0.70031347363E+01  0.12700000000E+01 0. -1.
         25    2    1    2    0    0  0.00000000000E+00  0.00000000000E+00  0.55542770190E+03  0.56931928728E+03  0.12499807534E+03 0.  0.
    9000005    1    3    3    0    0 -0.38173378047E+02  0.33196531258E+01  0.52874834733E+02  0.65306776344E+02  0.10000000000E+01 0.  0.
    9000005    1    3    3    0    0  0.38173378047E+02 -0.33196531258E+01  0.50255286716E+03  0.50401251094E+03  0.10000000000E+01 0.  0.
<mgrwt>
<rscale>  0 0.12499808E+03</rscale>
<asrwt>0</asrwt>
<pdfrwt beam="2">  1        4 0.10685834E-02 0.12499808E+03</pdfrwt>
<pdfrwt beam="1">  1       -4 0.86519009E-01 0.12499808E+03</pdfrwt>
<totfact> 0.50865504E+03</totfact>
</mgrwt>
</event>
<event>
 5    1  0.3206665E-002  0.1250193E+03  0.7818608E-02  0.1235039E+00
          4   -1    0    0  501    0  0.00000000000E+00  0.00000000000E+00  0.55164535050E+01  0.56607560690E+01  0.12700000000E+01 0.  1.
         -4   -1    0    0    0  501 -0.00000000000E+00 -0.00000000000E+00 -0.69903803813E+03  0.69903919179E+03  0.12700000000E+01 0.  1.
         25    2    1    2    0    0  0.00000000000E+00  0.00000000000E+00 -0.69352158463E+03  0.70469994786E+03  0.12501931117E+03 0.  0.
    9000005    1    3    3    0    0 -0.33024770854E+02  0.27717782922E+02 -0.60182174520E+03  0.60336500062E+03  0.10000000000E+01 0.  0.
    9000005    1    3    3    0    0  0.33024770854E+02 -0.27717782922E+02 -0.91699839426E+02  0.10133494723E+03  0.10000000000E+01 0.  0.
<mgrwt>
<rscale>  0 0.12501931E+03</rscale>
<asrwt>0</asrwt>
<pdfrwt beam="1">  1        4 0.85987465E-03 0.12501931E+03</pdfrwt>
<pdfrwt beam="2">  1       -4 0.10755543E+00 0.12501931E+03</pdfrwt>
<totfact> 0.42821678E+03</totfact>
</mgrwt>
</event>
<event>
 5    1  0.3206665E-002  0.1249838E+03  0.7818608E-02  0.1235095E+00
          4   -1    0    0  501    0  0.00000000000E+00  0.00000000000E+00  0.66065602095E+02  0.66077807774E+02  0.12700000000E+01 0.  1.
         -4   -1    0    0    0  501 -0.00000000000E+00 -0.00000000000E+00 -0.59087063690E+02  0.59100710617E+02  0.12700000000E+01 0.  1.
         25    2    1    2    0    0  0.00000000000E+00  0.00000000000E+00  0.69785384056E+01  0.12517851839E+03  0.12498384483E+03 0.  0.
    9000005    1    3    3    0    0 -0.42693143359E+02 -0.45195463001E+02  0.97364521594E+01  0.62937531461E+02  0.10000000000E+01 0.  0.
    9000005    1    3    3    0    0  0.42693143359E+02  0.45195463001E+02 -0.27579137538E+01  0.62240986930E+02  0.10000000000E+01 0.  0.
<mgrwt>
<rscale>  0 0.12498384E+03</rscale>
<asrwt>0</asrwt>
<pdfrwt beam="1">  1        4 0.10165927E-01 0.12498384E+03</pdfrwt>
<pdfrwt beam="2">  1       -4 0.90923062E-02 0.12498384E+03</pdfrwt>
<totfact> 0.10452802E+04</totfact>
</mgrwt>
</event>
<event>
 5    1  0.3206665E-002  0.1249994E+03  0.7818608E-02  0.1235070E+00
         -4   -1    0    0    0  501 -0.00000000000E+00  0.00000000000E+00  0.63576055240E+02  0.63588738781E+02  0.12700000000E+01 0. -1.
          4   -1    0    0  501    0  0.00000000000E+00 -0.00000000000E+00 -0.61416158928E+02  0.61429288434E+02  0.12700000000E+01 0. -1.
         25    2    1    2    0    0  0.00000000000E+00  0.00000000000E+00  0.21598963111E+01  0.12501802722E+03  0.12499936791E+03 0.  0.
    9000005    1    3    3    0    0 -0.27715183552E+02 -0.39441486015E+02 -0.38693415459E+02  0.61821861976E+02  0.10000000000E+01 0.  0.
    9000005    1    3    3    0    0  0.27715183552E+02  0.39441486015E+02  0.40853311770E+02  0.63196165239E+02  0.10000000000E+01 0.  0.
<mgrwt>
<rscale>  0 0.12499937E+03</rscale>
<asrwt>0</asrwt>
<pdfrwt beam="2">  1        4 0.94506255E-02 0.12499937E+03</pdfrwt>
<pdfrwt beam="1">  1       -4 0.97829172E-02 0.12499937E+03</pdfrwt>
<totfact> 0.10452620E+04</totfact>
</mgrwt>
</event>
<event>
 5    1  0.3206665E-002  0.1249705E+03  0.7818608E-02  0.1235115E+00
          4   -1    0    0  501    0  0.00000000000E+00  0.00000000000E+00  0.26717984137E+02  0.26748150896E+02  0.12700000000E+01 0.  1.
         -4   -1    0    0    0  501 -0.00000000000E+00 -0.00000000000E+00 -0.14601859450E+03  0.14602411733E+03  0.12700000000E+01 0.  1.
         25    2    1    2    0    0  0.00000000000E+00  0.00000000000E+00 -0.11930061037E+03  0.17277226822E+03  0.12497048064E+03 0.  0.
    9000005    1    3    3    0    0 -0.34085104144E+02  0.48720813364E+02 -0.86167496472E+02  0.10469646330E+03  0.10000000000E+01 0.  0.
    9000005    1    3    3    0    0  0.34085104144E+02 -0.48720813364E+02 -0.33133113895E+02  0.68075804922E+02  0.10000000000E+01 0.  0.
<mgrwt>
<rscale>  0 0.12497048E+03</rscale>
<asrwt>0</asrwt>
<pdfrwt beam="1">  1        4 0.41132045E-02 0.12497048E+03</pdfrwt>
<pdfrwt beam="2">  1       -4 0.22467144E-01 0.12497048E+03</pdfrwt>
<totfact> 0.94997345E+03</totfact>
</mgrwt>
</event>
<event>
 5    1  0.3206665E-002  0.1249971E+03  0.7818608E-02  0.1235074E+00
         -4   -1    0    0    0  501 -0.00000000000E+00  0.00000000000E+00  0.10352459613E+03  0.10353238577E+03  0.12700000000E+01 0. -1.
          4   -1    0    0  501    0  0.00000000000E+00 -0.00000000000E+00 -0.37710919890E+02  0.37732298882E+02  0.12700000000E+01 0. -1.
         25    2    1    2    0    0  0.00000000000E+00  0.00000000000E+00  0.65813676241E+02  0.14126468466E+03  0.12499708457E+03 0.  0.
    9000005    1    3    3    0    0  0.29297504418E+02 -0.15143162958E+02  0.92894045109E+02  0.98579727967E+02  0.10000000000E+01 0.  0.
    9000005    1    3    3    0    0 -0.29297504418E+02  0.15143162958E+02 -0.27080368868E+02  0.42684956688E+02  0.10000000000E+01 0.  0.
<mgrwt>
<rscale>  0 0.12499708E+03</rscale>
<asrwt>0</asrwt>
<pdfrwt beam="2">  1        4 0.58039237E-02 0.12499708E+03</pdfrwt>
<pdfrwt beam="1">  1       -4 0.15929105E-01 0.12499708E+03</pdfrwt>
<totfact> 0.10108105E+04</totfact>
</mgrwt>
</event>
<event>
 5    1  0.3206665E-002  0.1250066E+03  0.7818608E-02  0.1235059E+00
          4   -1    0    0  501    0  0.00000000000E+00  0.00000000000E+00  0.64989713625E+02  0.65002121327E+02  0.12700000000E+01 0. -1.
         -4   -1    0    0    0  501 -0.00000000000E+00 -0.00000000000E+00 -0.60087188315E+02  0.60100608146E+02  0.12700000000E+01 0. -1.
         25    2    1    2    0    0  0.00000000000E+00  0.00000000000E+00  0.49025253101E+01  0.12510272947E+03  0.12500663249E+03 0.  0.
    9000005    1    3    3    0    0 -0.32976269760E+02 -0.50542280509E+02  0.18702836566E+02  0.63188231356E+02  0.10000000000E+01 0.  0.
    9000005    1    3    3    0    0  0.32976269760E+02  0.50542280509E+02 -0.13800311256E+02  0.61914498117E+02  0.10000000000E+01 0.  0.
<mgrwt>
<rscale>  0 0.12500663E+03</rscale>
<asrwt>0</asrwt>
<pdfrwt beam="1">  1        4 0.10000404E-01 0.12500663E+03</pdfrwt>
<pdfrwt beam="2">  1       -4 0.92461695E-02 0.12500663E+03</pdfrwt>
<totfact> 0.10449065E+04</totfact>
</mgrwt>
</event>
<event>
 5    1  0.3206665E-002  0.1249995E+03  0.7818608E-02  0.1235070E+00
          4   -1    0    0  501    0  0.00000000000E+00  0.00000000000E+00  0.20195500255E+02  0.20235393017E+02  0.12700000000E+01 0. -1.
         -4   -1    0    0    0  501 -0.00000000000E+00 -0.00000000000E+00 -0.19318742769E+03  0.19319160208E+03  0.12700000000E+01 0. -1.
         25    2    1    2    0    0  0.00000000000E+00  0.00000000000E+00 -0.17299192743E+03  0.21342699510E+03  0.12499950113E+03 0.  0.
    9000005    1    3    3    0    0  0.17656456355E+02  0.33727062825E+02 -0.17111170220E+03  0.17529825968E+03  0.10000000000E+01 0.  0.
    9000005    1    3    3    0    0 -0.17656456355E+02 -0.33727062825E+02 -0.18802252322E+01  0.38128735420E+02  0.10000000000E+01 0.  0.
<mgrwt>
<rscale>  0 0.12499950E+03</rscale>
<asrwt>0</asrwt>
<pdfrwt beam="1">  1        4 0.31103899E-02 0.12499950E+03</pdfrwt>
<pdfrwt beam="2">  1       -4 0.29724531E-01 0.12499950E+03</pdfrwt>
<totfact> 0.87920229E+03</totfact>
</mgrwt>
</event>
<event>
 5    1  0.3206665E-002  0.1250010E+03  0.7818608E-02  0.1235068E+00
         -4   -1    0    0    0  501 -0.00000000000E+00  0.00000000000E+00  0.10471808516E+02  0.10548538932E+02  0.12700000000E+01 0.  1.
          4   -1    0    0  501    0  0.00000000000E+00 -0.00000000000E+00 -0.37159167818E+03  0.37159384844E+03  0.12700000000E+01 0.  1.
         25    2    1    2    0    0  0.00000000000E+00  0.00000000000E+00 -0.36111986967E+03  0.38214238737E+03  0.12500097581E+03 0.  0.
    9000005    1    3    3    0    0  0.41507919823E+02  0.22212334396E+01 -0.32321522110E+03  0.32587868975E+03  0.10000000000E+01 0.  0.
    9000005    1    3    3    0    0 -0.41507919823E+02 -0.22212334396E+01 -0.37904648571E+02  0.56263697615E+02  0.10000000000E+01 0.  0.
<mgrwt>
<rscale>  0 0.12500098E+03</rscale>
<asrwt>0</asrwt>
<pdfrwt beam="2">  1        4 0.57174010E-01 0.12500098E+03</pdfrwt>
<pdfrwt beam="1">  1       -4 0.16171170E-02 0.12500098E+03</pdfrwt>
<totfact> 0.66326036E+03</totfact>
</mgrwt>
</event>
<event>
 5    1  0.3206665E-002  0.1249991E+03  0.7818608E-02  0.1235071E+00
          4   -1    0    0  501    0  0.00000000000E+00  0.00000000000E+00  0.20556246516E+03  0.20556638826E+03  0.12700000000E+01 0.  1.
         -4   -1    0    0    0  501 -0.00000000000E+00 -0.00000000000E+00 -0.18977140581E+02  0.19019588971E+02  0.12700000000E+01 0.  1.
         25    2    1    2    0    0  0.00000000000E+00  0.00000000000E+00  0.18658532458E+03  0.22458597723E+03  0.12499911128E+03 0.  0.
    9000005    1    3    3    0    0  0.42443854673E+01  0.58577123486E+02  0.13165549136E+03  0.14416470653E+03  0.10000000000E+01 0.  0.
    9000005    1    3    3    0    0 -0.42443854673E+01 -0.58577123486E+02  0.54929833218E+02  0.80421270701E+02  0.10000000000E+01 0.  0.
<mgrwt>
<rscale>  0 0.12499911E+03</rscale>
<asrwt>0</asrwt>
<pdfrwt beam="1">  1        4 0.31628560E-01 0.12499911E+03</pdfrwt>
<pdfrwt beam="2">  1       -4 0.29231273E-02 0.12499911E+03</pdfrwt>
<totfact> 0.86149550E+03</totfact>
</mgrwt>
</event>
<event>
 5    1  0.3206665E-002  0.1249992E+03  0.7818608E-02  0.1235071E+00
          4   -1    0    0  501    0  0.00000000000E+00  0.00000000000E+00  0.41036134030E+03  0.41036330551E+03  0.12700000000E+01 0.  1.
         -4   -1    0    0    0  501 -0.00000000000E+00 -0.00000000000E+00 -0.94745727924E+01  0.95593111466E+01  0.12700000000E+01 0.  1.
         25    2    1    2    0    0  0.00000000000E+00  0.00000000000E+00  0.40088676750E+03  0.41992261666E+03  0.12499921448E+03 0.  0.
    9000005    1    3    3    0    0 -0.46123160438E+02 -0.39341620876E+02  0.25140140948E+03  0.25860931490E+03  0.10000000000E+01 0.  0.
    9000005    1    3    3    0    0  0.46123160438E+02  0.39341620876E+02  0.14948535802E+03  0.16131330176E+03  0.10000000000E+01 0.  0.
<mgrwt>
<rscale>  0 0.12499921E+03</rscale>
<asrwt>0</asrwt>
<pdfrwt beam="1">  1        4 0.63139179E-01 0.12499921E+03</pdfrwt>
<pdfrwt beam="2">  1       -4 0.14642962E-02 0.12499921E+03</pdfrwt>
<totfact> 0.62661276E+03</totfact>
</mgrwt>
</event>
<event>
 5    1  0.3206665E-002  0.1249933E+03  0.7818608E-02  0.1235080E+00
          4   -1    0    0  501    0  0.00000000000E+00  0.00000000000E+00  0.33972536399E+02  0.33996266404E+02  0.12700000000E+01 0. -1.
         -4   -1    0    0    0  501 -0.00000000000E+00 -0.00000000000E+00 -0.11490293267E+03  0.11490995099E+03  0.12700000000E+01 0. -1.
         25    2    1    2    0    0  0.00000000000E+00  0.00000000000E+00 -0.80930396272E+02  0.14890621739E+03  0.12499332997E+03 0.  0.
    9000005    1    3    3    0    0 -0.31927498485E+02  0.50328703647E+02 -0.62831754569E+02  0.86609312159E+02  0.10000000000E+01 0.  0.
    9000005    1    3    3    0    0  0.31927498485E+02 -0.50328703647E+02 -0.18098641702E+02  0.62296905235E+02  0.10000000000E+01 0.  0.
<mgrwt>
<rscale>  0 0.12499333E+03</rscale>
<asrwt>0</asrwt>
<pdfrwt beam="1">  1        4 0.52289094E-02 0.12499333E+03</pdfrwt>
<pdfrwt beam="2">  1       -4 0.17679739E-01 0.12499333E+03</pdfrwt>
<totfact> 0.99537118E+03</totfact>
</mgrwt>
</event>
<event>
 5    1  0.3206665E-002  0.1250022E+03  0.7818608E-02  0.1235066E+00
          4   -1    0    0  501    0  0.00000000000E+00  0.00000000000E+00  0.15823302167E+03  0.15823811819E+03  0.12700000000E+01 0. -1.
         -4   -1    0    0    0  501 -0.00000000000E+00 -0.00000000000E+00 -0.24665719722E+02  0.24698393256E+02  0.12700000000E+01 0. -1.
         25    2    1    2    0    0  0.00000000000E+00  0.00000000000E+00  0.13356730195E+03  0.18293651145E+03  0.12500217226E+03 0.  0.
    9000005    1    3    3    0    0 -0.45965727778E+00  0.10900958770E+02  0.15683554320E+03  0.15721777824E+03  0.10000000000E+01 0.  0.
    9000005    1    3    3    0    0  0.45965727778E+00 -0.10900958770E+02 -0.23268241243E+02  0.25718733201E+02  0.10000000000E+01 0.  0.
<mgrwt>
<rscale>  0 0.12500217E+03</rscale>
<asrwt>0</asrwt>
<pdfrwt beam="1">  1        4 0.24346448E-01 0.12500217E+03</pdfrwt>
<pdfrwt beam="2">  1       -4 0.37976314E-02 0.12500217E+03</pdfrwt>
<totfact> 0.93086543E+03</totfact>
</mgrwt>
</event>
<event>
 5    1  0.3206665E-002  0.1249996E+03  0.7818608E-02  0.1235070E+00
          4   -1    0    0  501    0  0.00000000000E+00  0.00000000000E+00  0.13851696859E+03  0.13852279049E+03  0.12700000000E+01 0.  1.
         -4   -1    0    0    0  501 -0.00000000000E+00 -0.00000000000E+00 -0.28179634959E+02  0.28208238627E+02  0.12700000000E+01 0.  1.
         25    2    1    2    0    0  0.00000000000E+00  0.00000000000E+00  0.11033733363E+03  0.16673102912E+03  0.12499963552E+03 0.  0.
    9000005    1    3    3    0    0  0.44662687147E+02  0.41497843873E+02  0.36860335289E+02  0.71249638504E+02  0.10000000000E+01 0.  0.
    9000005    1    3    3    0    0 -0.44662687147E+02 -0.41497843873E+02  0.73476998338E+02  0.95481390617E+02  0.10000000000E+01 0.  0.
<mgrwt>
<rscale>  0 0.12499964E+03</rscale>
<asrwt>0</asrwt>
<pdfrwt beam="1">  1        4 0.21312951E-01 0.12499964E+03</pdfrwt>
<pdfrwt beam="2">  1       -4 0.43379765E-02 0.12499964E+03</pdfrwt>
<totfact> 0.96061349E+03</totfact>
</mgrwt>
</event>
<event>
 5    1  0.3206665E-002  0.1250003E+03  0.7818608E-02  0.1235069E+00
          4   -1    0    0  501    0  0.00000000000E+00  0.00000000000E+00  0.40627615828E+03  0.40627814326E+03  0.12700000000E+01 0.  1.
         -4   -1    0    0    0  501 -0.00000000000E+00 -0.00000000000E+00 -0.95708515144E+01  0.96547448806E+01  0.12700000000E+01 0.  1.
         25    2    1    2    0    0  0.00000000000E+00  0.00000000000E+00  0.39670530677E+03  0.41593288814E+03  0.12500026807E+03 0.  0.
    9000005    1    3    3    0    0  0.51138693611E+02 -0.33769502546E+02  0.15763766123E+03  0.16913360850E+03  0.10000000000E+01 0.  0.
    9000005    1    3    3    0    0 -0.51138693611E+02  0.33769502546E+02  0.23906764553E+03  0.24679927963E+03  0.10000000000E+01 0.  0.
<mgrwt>
<rscale>  0 0.12500027E+03</rscale>
<asrwt>0</asrwt>
<pdfrwt beam="1">  1        4 0.62510631E-01 0.12500027E+03</pdfrwt>
<pdfrwt beam="2">  1       -4 0.14790447E-02 0.12500027E+03</pdfrwt>
<totfact> 0.63031748E+03</totfact>
</mgrwt>
</event>
<event>
 5    1  0.3206665E-002  0.1249993E+03  0.7818608E-02  0.1235070E+00
          4   -1    0    0  501    0  0.00000000000E+00  0.00000000000E+00  0.55026780965E+03  0.55026927521E+03  0.12700000000E+01 0. -1.
         -4   -1    0    0    0  501 -0.00000000000E+00 -0.00000000000E+00 -0.70404504696E+01  0.71540787538E+01  0.12700000000E+01 0. -1.
         25    2    1    2    0    0  0.00000000000E+00  0.00000000000E+00  0.54322735918E+03  0.55742335396E+03  0.12499932711E+03 0.  0.
    9000005    1    3    3    0    0  0.27202133451E+02 -0.14221708382E+02  0.51435456754E+03  0.51527064170E+03  0.10000000000E+01 0.  0.
    9000005    1    3    3    0    0 -0.27202133451E+02  0.14221708382E+02  0.28872791646E+02  0.42152712262E+02  0.10000000000E+01 0.  0.
<mgrwt>
<rscale>  0 0.12499933E+03</rscale>
<asrwt>0</asrwt>
<pdfrwt beam="1">  1        4 0.84665465E-01 0.12499933E+03</pdfrwt>
<pdfrwt beam="2">  1       -4 0.10919993E-02 0.12499933E+03</pdfrwt>
<totfact> 0.51671156E+03</totfact>
</mgrwt>
</event>
<event>
 5    1  0.3206665E-002  0.1249988E+03  0.7818608E-02  0.1235071E+00
         -4   -1    0    0    0  501 -0.00000000000E+00  0.00000000000E+00  0.17998554543E+04  0.17998559024E+04  0.12700000000E+01 0. -1.
          4   -1    0    0  501    0  0.00000000000E+00 -0.00000000000E+00 -0.19839884035E+01  0.23556548952E+01  0.12700000000E+01 0. -1.
         25    2    1    2    0    0  0.00000000000E+00  0.00000000000E+00  0.17978714659E+04  0.18022115573E+04  0.12499875693E+03 0.  0.
    9000005    1    3    3    0    0 -0.35101027381E+02  0.51245176906E+02  0.80006886901E+03  0.80247700618E+03  0.10000000000E+01 0.  0.
    9000005    1    3    3    0    0  0.35101027381E+02 -0.51245176906E+02  0.99780259688E+03  0.99973455108E+03  0.10000000000E+01 0.  0.
<mgrwt>
<rscale>  0 0.12499876E+03</rscale>
<asrwt>0</asrwt>
<pdfrwt beam="2">  1        4 0.33385407E-03 0.12499876E+03</pdfrwt>
<pdfrwt beam="1">  1       -4 0.27692873E+00 0.12499876E+03</pdfrwt>
<totfact> 0.12669866E+03</totfact>
</mgrwt>
</event>
<event>
 5    1  0.3206665E-002  0.1249987E+03  0.7818608E-02  0.1235071E+00
         -4   -1    0    0    0  501 -0.00000000000E+00  0.00000000000E+00  0.28391205914E+01  0.31102259938E+01  0.12700000000E+01 0.  1.
          4   -1    0    0  501    0  0.00000000000E+00 -0.00000000000E+00 -0.13128709472E+04  0.13128715615E+04  0.12700000000E+01 0.  1.
         25    2    1    2    0    0  0.00000000000E+00  0.00000000000E+00 -0.13100318266E+04  0.13159817875E+04  0.12499871277E+03 0.  0.
    9000005    1    3    3    0    0  0.34305443864E+02 -0.40695958691E+02 -0.31029224407E+03  0.31482582687E+03  0.10000000000E+01 0.  0.
    9000005    1    3    3    0    0 -0.34305443864E+02  0.40695958691E+02 -0.99973958254E+03  0.10011559606E+04  0.10000000000E+01 0.  0.
<mgrwt>
<rscale>  0 0.12499871E+03</rscale>
<asrwt>0</asrwt>
<pdfrwt beam="2">  1        4 0.20200059E+00 0.12499871E+03</pdfrwt>
<pdfrwt beam="1">  1       -4 0.45769034E-03 0.12499871E+03</pdfrwt>
<totfact> 0.21855119E+03</totfact>
</mgrwt>
</event>
<event>
 5    1  0.3206665E-002  0.1250000E+03  0.7818608E-02  0.1235069E+00
          4   -1    0    0  501    0  0.00000000000E+00  0.00000000000E+00  0.66923609072E+01  0.68117981850E+01  0.12700000000E+01 0.  1.
         -4   -1    0    0    0  501 -0.00000000000E+00 -0.00000000000E+00 -0.57840539819E+03  0.57840679245E+03  0.12700000000E+01 0.  1.
         25    2    1    2    0    0  0.00000000000E+00  0.00000000000E+00 -0.57171303728E+03  0.58521859064E+03  0.12500000732E+03 0.  0.
    9000005    1    3    3    0    0 -0.58485199710E+02  0.14048529258E+02 -0.20649146453E+03  0.21507581147E+03  0.10000000000E+01 0.  0.
    9000005    1    3    3    0    0  0.58485199710E+02 -0.14048529258E+02 -0.36522157276E+03  0.37014277917E+03  0.10000000000E+01 0.  0.
<mgrwt>
<rscale>  0 0.12500001E+03</rscale>
<asrwt>0</asrwt>
<pdfrwt beam="1">  1        4 0.10388892E-02 0.12500001E+03</pdfrwt>
<pdfrwt beam="2">  1       -4 0.88994702E-01 0.12500001E+03</pdfrwt>
<totfact> 0.49814157E+03</totfact>
</mgrwt>
</event>
<event>
 5    1  0.3206665E-002  0.1250005E+03  0.7818608E-02  0.1235068E+00
          4   -1    0    0  501    0  0.00000000000E+00  0.00000000000E+00  0.25397861140E+02  0.25429593990E+02  0.12700000000E+01 0.  1.
         -4   -1    0    0    0  501 -0.00000000000E+00 -0.00000000000E+00 -0.15367325317E+03  0.15367850090E+03  0.12700000000E+01 0.  1.
         25    2    1    2    0    0  0.00000000000E+00  0.00000000000E+00 -0.12827539203E+03  0.17910809489E+03  0.12500053382E+03 0.  0.
    9000005    1    3    3    0    0  0.43309716220E+01 -0.47172668456E+01 -0.15320888957E+03  0.15334592843E+03  0.10000000000E+01 0.  0.
    9000005    1    3    3    0    0 -0.43309716220E+01  0.47172668456E+01  0.24933497538E+02  0.25762166469E+02  0.10000000000E+01 0.  0.
<mgrwt>
<rscale>  0 0.12500053E+03</rscale>
<asrwt>0</asrwt>
<pdfrwt beam="1">  1        4 0.39102080E-02 0.12500053E+03</pdfrwt>
<pdfrwt beam="2">  1       -4 0.23644883E-01 0.12500053E+03</pdfrwt>
<totfact> 0.93776673E+03</totfact>
</mgrwt>
</event>
<event>
 5    1  0.3206665E-002  0.1249911E+03  0.7818608E-02  0.1235083E+00
          4   -1    0    0  501    0  0.00000000000E+00  0.00000000000E+00  0.79324952382E+03  0.79325054046E+03  0.12700000000E+01 0.  1.
         -4   -1    0    0    0  501 -0.00000000000E+00 -0.00000000000E+00 -0.48407313177E+01  0.50045558934E+01  0.12700000000E+01 0.  1.
         25    2    1    2    0    0  0.00000000000E+00  0.00000000000E+00  0.78840879250E+03  0.79825509636E+03  0.12499109872E+03 0.  0.
    9000005    1    3    3    0    0  0.41468135339E+02 -0.46744680136E+02  0.39325025294E+03  0.39818517401E+03  0.10000000000E+01 0.  0.
    9000005    1    3    3    0    0 -0.41468135339E+02  0.46744680136E+02  0.39515853957E+03  0.40006992234E+03  0.10000000000E+01 0.  0.
<mgrwt>
<rscale>  0 0.12499110E+03</rscale>
<asrwt>0</asrwt>
<pdfrwt beam="1">  1        4 0.12205113E+00 0.12499110E+03</pdfrwt>
<pdfrwt beam="2">  1       -4 0.75740758E-03 0.12499110E+03</pdfrwt>
<totfact> 0.38350178E+03</totfact>
</mgrwt>
</event>
<event>
 5    1  0.3206665E-002  0.1250016E+03  0.7818608E-02  0.1235067E+00
         -4   -1    0    0    0  501 -0.00000000000E+00  0.00000000000E+00  0.41015265290E+02  0.41034922771E+02  0.12700000000E+01 0. -1.
          4   -1    0    0  501    0  0.00000000000E+00 -0.00000000000E+00 -0.95194692412E+02  0.95203163621E+02  0.12700000000E+01 0. -1.
         25    2    1    2    0    0  0.00000000000E+00  0.00000000000E+00 -0.54179427122E+02  0.13623808639E+03  0.12500162343E+03 0.  0.
    9000005    1    3    3    0    0 -0.48352207824E+02 -0.36764167144E+02 -0.11078651133E+02  0.61751732755E+02  0.10000000000E+01 0.  0.
    9000005    1    3    3    0    0  0.48352207824E+02  0.36764167144E+02 -0.43100775989E+02  0.74486353637E+02  0.10000000000E+01 0.  0.
<mgrwt>
<rscale>  0 0.12500162E+03</rscale>
<asrwt>0</asrwt>
<pdfrwt beam="2">  1        4 0.14647501E-01 0.12500162E+03</pdfrwt>
<pdfrwt beam="1">  1       -4 0.63122046E-02 0.12500162E+03</pdfrwt>
<totfact> 0.10211667E+04</totfact>
</mgrwt>
</event>
<event>
 5    1  0.3206665E-002  0.1250008E+03  0.7818608E-02  0.1235068E+00
         -4   -1    0    0    0  501 -0.00000000000E+00  0.00000000000E+00  0.20489094854E+02  0.20528417083E+02  0.12700000000E+01 0.  1.
          4   -1    0    0  501    0  0.00000000000E+00 -0.00000000000E+00 -0.19042838361E+03  0.19043261849E+03  0.12700000000E+01 0.  1.
         25    2    1    2    0    0  0.00000000000E+00  0.00000000000E+00 -0.16993928876E+03  0.21096103557E+03  0.12500078666E+03 0.  0.
    9000005    1    3    3    0    0  0.18925292088E+02 -0.39688738575E+02 -0.15991348875E+03  0.16585139895E+03  0.10000000000E+01 0.  0.
    9000005    1    3    3    0    0 -0.18925292088E+02  0.39688738575E+02 -0.10025800007E+02  0.45109636621E+02  0.10000000000E+01 0.  0.
<mgrwt>
<rscale>  0 0.12500079E+03</rscale>
<asrwt>0</asrwt>
<pdfrwt beam="2">  1        4 0.29300024E-01 0.12500079E+03</pdfrwt>
<pdfrwt beam="1">  1       -4 0.31555191E-02 0.12500079E+03</pdfrwt>
<totfact> 0.88317619E+03</totfact>
</mgrwt>
</event>
<event>
 5    1  0.3206665E-002  0.1250003E+03  0.7818608E-02  0.1235069E+00
          4   -1    0    0  501    0  0.00000000000E+00  0.00000000000E+00  0.22683630077E+03  0.22683985595E+03  0.12700000000E+01 0.  1.
         -4   -1    0    0    0  501 -0.00000000000E+00 -0.00000000000E+00 -0.17193534684E+02  0.17240375139E+02  0.12700000000E+01 0.  1.
         25    2    1    2    0    0  0.00000000000E+00  0.00000000000E+00  0.20964276608E+03  0.24408023108E+03  0.12500027934E+03 0.  0.
    9000005    1    3    3    0    0 -0.21164698125E+02 -0.26502354073E+02  0.20731063992E+03  0.21006908540E+03  0.10000000000E+01 0.  0.
    9000005    1    3    3    0    0  0.21164698125E+02  0.26502354073E+02  0.23321261629E+01  0.34011145681E+02  0.10000000000E+01 0.  0.
<mgrwt>
<rscale>  0 0.12500028E+03</rscale>
<asrwt>0</asrwt>
<pdfrwt beam="1">  1        4 0.34901769E-01 0.12500028E+03</pdfrwt>
<pdfrwt beam="2">  1       -4 0.26490358E-02 0.12500028E+03</pdfrwt>
<totfact> 0.83192899E+03</totfact>
</mgrwt>
</event>
<event>
 5    1  0.3206665E-002  0.1249991E+03  0.7818608E-02  0.1235071E+00
         -4   -1    0    0    0  501 -0.00000000000E+00  0.00000000000E+00  0.12500156005E+03  0.12500801140E+03  0.12700000000E+01 0.  1.
          4   -1    0    0  501    0  0.00000000000E+00 -0.00000000000E+00 -0.31229010441E+02  0.31254823517E+02  0.12700000000E+01 0.  1.
         25    2    1    2    0    0  0.00000000000E+00  0.00000000000E+00  0.93772549610E+02  0.15626283492E+03  0.12499913007E+03 0.  0.
    9000005    1    3    3    0    0 -0.10399288858E+02  0.45690535417E+02 -0.47998276446E+01  0.47114844591E+02  0.10000000000E+01 0.  0.
    9000005    1    3    3    0    0  0.10399288858E+02 -0.45690535417E+02  0.98572377255E+02  0.10914799033E+03  0.10000000000E+01 0.  0.
<mgrwt>
<rscale>  0 0.12499913E+03</rscale>
<asrwt>0</asrwt>
<pdfrwt beam="2">  1        4 0.48069451E-02 0.12499913E+03</pdfrwt>
<pdfrwt beam="1">  1       -4 0.19233491E-01 0.12499913E+03</pdfrwt>
<totfact> 0.98070076E+03</totfact>
</mgrwt>
</event>
<event>
 5    1  0.3206665E-002  0.1249990E+03  0.7818608E-02  0.1235071E+00
          4   -1    0    0  501    0  0.00000000000E+00  0.00000000000E+00  0.94042658702E+01  0.94896320560E+01  0.12700000000E+01 0. -1.
         -4   -1    0    0    0  501 -0.00000000000E+00 -0.00000000000E+00 -0.41340039893E+03  0.41340234970E+03  0.12700000000E+01 0. -1.
         25    2    1    2    0    0  0.00000000000E+00  0.00000000000E+00 -0.40399613306E+03  0.42289198176E+03  0.12499901081E+03 0.  0.
    9000005    1    3    3    0    0 -0.61994198751E+02  0.76647308520E+01 -0.19598459772E+03  0.20570121857E+03  0.10000000000E+01 0.  0.
    9000005    1    3    3    0    0  0.61994198751E+02 -0.76647308520E+01 -0.20801153534E+03  0.21719076318E+03  0.10000000000E+01 0.  0.
<mgrwt>
<rscale>  0 0.12499901E+03</rscale>
<asrwt>0</asrwt>
<pdfrwt beam="1">  1        4 0.14535271E-02 0.12499901E+03</pdfrwt>
<pdfrwt beam="2">  1       -4 0.63606764E-01 0.12499901E+03</pdfrwt>
<totfact> 0.62386984E+03</totfact>
</mgrwt>
</event>
<event>
 5    1  0.3206665E-002  0.1249988E+03  0.7818608E-02  0.1235071E+00
          4   -1    0    0  501    0  0.00000000000E+00  0.00000000000E+00  0.95659959961E+02  0.95668389971E+02  0.12700000000E+01 0.  1.
         -4   -1    0    0    0  501 -0.00000000000E+00 -0.00000000000E+00 -0.40813878727E+02  0.40833633157E+02  0.12700000000E+01 0.  1.
         25    2    1    2    0    0  0.00000000000E+00  0.00000000000E+00  0.54846081233E+02  0.13650202313E+03  0.12499883876E+03 0.  0.
    9000005    1    3    3    0    0  0.24773111394E+02  0.38233862129E+02 -0.19287639362E+02  0.49482808061E+02  0.10000000000E+01 0.  0.
    9000005    1    3    3    0    0 -0.24773111394E+02 -0.38233862129E+02  0.74133720596E+02  0.87019215067E+02  0.10000000000E+01 0.  0.
<mgrwt>
<rscale>  0 0.12499884E+03</rscale>
<asrwt>0</asrwt>
<pdfrwt beam="1">  1        4 0.14719085E-01 0.12499884E+03</pdfrwt>
<pdfrwt beam="2">  1       -4 0.62812264E-02 0.12499884E+03</pdfrwt>
<totfact> 0.10206775E+04</totfact>
</mgrwt>
</event>
<event>
 5    1  0.3206665E-002  0.1250058E+03  0.7818608E-02  0.1235060E+00
          4   -1    0    0  501    0  0.00000000000E+00  0.00000000000E+00  0.22236410819E+03  0.22236773487E+03  0.12700000000E+01 0. -1.
         -4   -1    0    0    0  501 -0.00000000000E+00 -0.00000000000E+00 -0.17541820266E+02  0.17587733175E+02  0.12700000000E+01 0. -1.
         25    2    1    2    0    0  0.00000000000E+00  0.00000000000E+00  0.20482228793E+03  0.23995546805E+03  0.12500582792E+03 0.  0.
    9000005    1    3    3    0    0  0.51214110861E+02 -0.23549960386E+02  0.15420811880E+03  0.16419083314E+03  0.10000000000E+01 0.  0.
    9000005    1    3    3    0    0 -0.51214110861E+02  0.23549960386E+02  0.50614169131E+02  0.75764634905E+02  0.10000000000E+01 0.  0.
<mgrwt>
<rscale>  0 0.12500583E+03</rscale>
<asrwt>0</asrwt>
<pdfrwt beam="1">  1        4 0.34213672E-01 0.12500583E+03</pdfrwt>
<pdfrwt beam="2">  1       -4 0.27025524E-02 0.12500583E+03</pdfrwt>
<totfact> 0.83793113E+03</totfact>
</mgrwt>
</event>
<event>
 5    1  0.3206665E-002  0.1249923E+03  0.7818608E-02  0.1235081E+00
         -4   -1    0    0    0  501 -0.00000000000E+00  0.00000000000E+00  0.61689121575E+03  0.61689252303E+03  0.12700000000E+01 0. -1.
          4   -1    0    0  501    0  0.00000000000E+00 -0.00000000000E+00 -0.62663630367E+01  0.63937630319E+01  0.12700000000E+01 0. -1.
         25    2    1    2    0    0  0.00000000000E+00  0.00000000000E+00  0.61062485271E+03  0.62328628606E+03  0.12499233433E+03 0.  0.
    9000005    1    3    3    0    0 -0.53474672005E+01  0.45550810543E+02  0.51695211607E+03  0.51898358554E+03  0.10000000000E+01 0.  0.
    9000005    1    3    3    0    0  0.53474672005E+01 -0.45550810543E+02  0.93672736641E+02  0.10430270052E+03  0.10000000000E+01 0.  0.
<mgrwt>
<rscale>  0 0.12499233E+03</rscale>
<asrwt>0</asrwt>
<pdfrwt beam="2">  1        4 0.97395561E-03 0.12499233E+03</pdfrwt>
<pdfrwt beam="1">  1       -4 0.94916319E-01 0.12499233E+03</pdfrwt>
<totfact> 0.47437886E+03</totfact>
</mgrwt>
</event>
<event>
 5    1  0.3206665E-002  0.1250026E+03  0.7818608E-02  0.1235065E+00
         -4   -1    0    0    0  501 -0.00000000000E+00  0.00000000000E+00  0.90871819118E+02  0.90880693273E+02  0.12700000000E+01 0.  1.
          4   -1    0    0  501    0  0.00000000000E+00 -0.00000000000E+00 -0.42967825274E+02  0.42986589872E+02  0.12700000000E+01 0.  1.
         25    2    1    2    0    0  0.00000000000E+00  0.00000000000E+00  0.47903993843E+02  0.13386728314E+03  0.12500262745E+03 0.  0.
    9000005    1    3    3    0    0 -0.34974143479E+01  0.62363768047E+02  0.21825549362E+02  0.66172698880E+02  0.10000000000E+01 0.  0.
    9000005    1    3    3    0    0  0.34974143479E+01 -0.62363768047E+02  0.26078444481E+02  0.67694584264E+02  0.10000000000E+01 0.  0.
<mgrwt>
<rscale>  0 0.12500263E+03</rscale>
<asrwt>0</asrwt>
<pdfrwt beam="2">  1        4 0.66125609E-02 0.12500263E+03</pdfrwt>
<pdfrwt beam="1">  1       -4 0.13982406E-01 0.12500263E+03</pdfrwt>
<totfact> 0.10261393E+04</totfact>
</mgrwt>
</event>
<event>
 5    1  0.3206665E-002  0.1249995E+03  0.7818608E-02  0.1235070E+00
         -4   -1    0    0    0  501 -0.00000000000E+00  0.00000000000E+00  0.33175870504E+03  0.33176113587E+03  0.12700000000E+01 0. -1.
          4   -1    0    0  501    0  0.00000000000E+00 -0.00000000000E+00 -0.11737548206E+02  0.11806055137E+02  0.12700000000E+01 0. -1.
         25    2    1    2    0    0  0.00000000000E+00  0.00000000000E+00  0.32002115684E+03  0.34356719101E+03  0.12499949564E+03 0.  0.
    9000005    1    3    3    0    0 -0.23578871849E+02  0.57451567658E+02  0.17916633632E+03  0.18962653267E+03  0.10000000000E+01 0.  0.
    9000005    1    3    3    0    0  0.23578871849E+02 -0.57451567658E+02  0.14085482052E+03  0.15394065833E+03  0.10000000000E+01 0.  0.
<mgrwt>
<rscale>  0 0.12499950E+03</rscale>
<asrwt>0</asrwt>
<pdfrwt beam="2">  1        4 0.18112334E-02 0.12499950E+03</pdfrwt>
<pdfrwt beam="1">  1       -4 0.51045257E-01 0.12499950E+03</pdfrwt>
<totfact> 0.70438874E+03</totfact>
</mgrwt>
</event>
<event>
 5    1  0.3206665E-002  0.1250060E+03  0.7818608E-02  0.1235060E+00
          4   -1    0    0  501    0  0.00000000000E+00  0.00000000000E+00  0.28242288445E+03  0.28242573991E+03  0.12700000000E+01 0.  1.
         -4   -1    0    0    0  501 -0.00000000000E+00 -0.00000000000E+00 -0.13800458086E+02  0.13858771352E+02  0.12700000000E+01 0.  1.
         25    2    1    2    0    0  0.00000000000E+00  0.00000000000E+00  0.26862242637E+03  0.29628451126E+03  0.12500601452E+03 0.  0.
    9000005    1    3    3    0    0  0.18641748372E+02 -0.45343359451E+02  0.42451275738E+02  0.64858660489E+02  0.10000000000E+01 0.  0.
    9000005    1    3    3    0    0 -0.18641748372E+02  0.45343359451E+02  0.22617115063E+03  0.23142585077E+03  0.10000000000E+01 0.  0.
<mgrwt>
<rscale>  0 0.12500601E+03</rscale>
<asrwt>0</asrwt>
<pdfrwt beam="1">  1        4 0.43454376E-01 0.12500601E+03</pdfrwt>
<pdfrwt beam="2">  1       -4 0.21278529E-02 0.12500601E+03</pdfrwt>
<totfact> 0.76057123E+03</totfact>
</mgrwt>
</event>
<event>
 5    1  0.3206665E-002  0.1249937E+03  0.7818608E-02  0.1235079E+00
         -4   -1    0    0    0  501 -0.00000000000E+00  0.00000000000E+00  0.63194222663E+03  0.63194350277E+03  0.12700000000E+01 0.  1.
          4   -1    0    0  501    0  0.00000000000E+00 -0.00000000000E+00 -0.61141843583E+01  0.62446897735E+01  0.12700000000E+01 0.  1.
         25    2    1    2    0    0  0.00000000000E+00  0.00000000000E+00  0.62582804227E+03  0.63818819254E+03  0.12499372229E+03 0.  0.
    9000005    1    3    3    0    0 -0.58583892019E+02 -0.21589317154E+02  0.29971127294E+03  0.30614705314E+03  0.10000000000E+01 0.  0.
    9000005    1    3    3    0    0  0.58583892019E+02  0.21589317154E+02  0.32611676933E+03  0.33204113940E+03  0.10000000000E+01 0.  0.
<mgrwt>
<rscale>  0 0.12499372E+03</rscale>
<asrwt>0</asrwt>
<pdfrwt beam="2">  1        4 0.95078057E-03 0.12499372E+03</pdfrwt>
<pdfrwt beam="1">  1       -4 0.97232040E-01 0.12499372E+03</pdfrwt>
<totfact> 0.46548864E+03</totfact>
</mgrwt>
</event>
<event>
 5    1  0.3206665E-002  0.1250013E+03  0.7818608E-02  0.1235067E+00
          4   -1    0    0  501    0  0.00000000000E+00  0.00000000000E+00  0.28973065532E+04  0.28973068316E+04  0.12700000000E+01 0.  1.
         -4   -1    0    0    0  501 -0.00000000000E+00 -0.00000000000E+00 -0.10488527901E+01  0.16471163211E+01  0.12700000000E+01 0.  1.
         25    2    1    2    0    0  0.00000000000E+00  0.00000000000E+00  0.28962577004E+04  0.28989539479E+04  0.12500129865E+03 0.  0.
    9000005    1    3    3    0    0 -0.14452253672E+02  0.16598803381E+02  0.28045661592E+04  0.28046526932E+04  0.10000000000E+01 0.  0.
    9000005    1    3    3    0    0  0.14452253672E+02 -0.16598803381E+02  0.91691541189E+02  0.94301254687E+02  0.10000000000E+01 0.  0.
<mgrwt>
<rscale>  0 0.12500130E+03</rscale>
<asrwt>0</asrwt>
<pdfrwt beam="1">  1        4 0.44578783E+00 0.12500130E+03</pdfrwt>
<pdfrwt beam="2">  1       -4 0.20740257E-03 0.12500130E+03</pdfrwt>
<totfact> 0.22364863E+02</totfact>
</mgrwt>
</event>
<event>
 5    1  0.3206665E-002  0.1249842E+03  0.7818608E-02  0.1235094E+00
         -4   -1    0    0    0  501 -0.00000000000E+00  0.00000000000E+00  0.97834571377E+03  0.97834653807E+03  0.12700000000E+01 0.  1.
          4   -1    0    0  501    0  0.00000000000E+00 -0.00000000000E+00 -0.38898365330E+01  0.40919100984E+01  0.12700000000E+01 0.  1.
         25    2    1    2    0    0  0.00000000000E+00  0.00000000000E+00  0.97445587723E+03  0.98243844817E+03  0.12498419003E+03 0.  0.
    9000005    1    3    3    0    0  0.39346438671E+02  0.30456984659E+02  0.19013717879E+03  0.19654240486E+03  0.10000000000E+01 0.  0.
    9000005    1    3    3    0    0 -0.39346438671E+02 -0.30456984659E+02  0.78431869845E+03  0.78589604331E+03  0.10000000000E+01 0.  0.
<mgrwt>
<rscale>  0 0.12498419E+03</rscale>
<asrwt>0</asrwt>
<pdfrwt beam="2">  1        4 0.61404284E-03 0.12498419E+03</pdfrwt>
<pdfrwt beam="1">  1       -4 0.15053060E+00 0.12498419E+03</pdfrwt>
<totfact> 0.31202240E+03</totfact>
</mgrwt>
</event>
<event>
 5    1  0.3206665E-002  0.1250022E+03  0.7818608E-02  0.1235066E+00
         -4   -1    0    0    0  501 -0.00000000000E+00  0.00000000000E+00  0.10559659202E+03  0.10560422882E+03  0.12700000000E+01 0. -1.
          4   -1    0    0  501    0  0.00000000000E+00 -0.00000000000E+00 -0.36973609754E+02  0.36995414828E+02  0.12700000000E+01 0. -1.
         25    2    1    2    0    0  0.00000000000E+00  0.00000000000E+00  0.68622982263E+02  0.14259964365E+03  0.12500217868E+03 0.  0.
    9000005    1    3    3    0    0  0.57921084507E+02 -0.22054463788E+02  0.25175669480E+02  0.66903406021E+02  0.10000000000E+01 0.  0.
    9000005    1    3    3    0    0 -0.57921084507E+02  0.22054463788E+02  0.43447312783E+02  0.75696237631E+02  0.10000000000E+01 0.  0.
<mgrwt>
<rscale>  0 0.12500218E+03</rscale>
<asrwt>0</asrwt>
<pdfrwt beam="2">  1        4 0.56905124E-02 0.12500218E+03</pdfrwt>
<pdfrwt beam="1">  1       -4 0.16247894E-01 0.12500218E+03</pdfrwt>
<totfact> 0.10079494E+04</totfact>
</mgrwt>
</event>
<event>
 5    1  0.3206665E-002  0.1249992E+03  0.7818608E-02  0.1235070E+00
         -4   -1    0    0    0  501 -0.00000000000E+00  0.00000000000E+00  0.23905521957E+03  0.23905859303E+03  0.12700000000E+01 0. -1.
          4   -1    0    0  501    0  0.00000000000E+00 -0.00000000000E+00 -0.16311993584E+02  0.16361357971E+02  0.12700000000E+01 0. -1.
         25    2    1    2    0    0  0.00000000000E+00  0.00000000000E+00  0.22274322599E+03  0.25541995101E+03  0.12499922659E+03 0.  0.
    9000005    1    3    3    0    0  0.24431424692E+02 -0.36385203978E+02  0.20239746144E+03  0.20709058399E+03  0.10000000000E+01 0.  0.
    9000005    1    3    3    0    0 -0.24431424692E+02  0.36385203978E+02  0.20345764548E+02  0.48329367015E+02  0.10000000000E+01 0.  0.
<mgrwt>
<rscale>  0 0.12499923E+03</rscale>
<asrwt>0</asrwt>
<pdfrwt beam="2">  1        4 0.25135943E-02 0.12499923E+03</pdfrwt>
<pdfrwt beam="1">  1       -4 0.36781782E-01 0.12499923E+03</pdfrwt>
<totfact> 0.81554537E+03</totfact>
</mgrwt>
</event>
<event>
 5    1  0.3206665E-002  0.1249939E+03  0.7818608E-02  0.1235079E+00
         -4   -1    0    0    0  501 -0.00000000000E+00  0.00000000000E+00  0.96718811387E+01  0.97549056767E+01  0.12700000000E+01 0. -1.
          4   -1    0    0  501    0  0.00000000000E+00 -0.00000000000E+00 -0.40202780112E+03  0.40202980707E+03  0.12700000000E+01 0. -1.
         25    2    1    2    0    0  0.00000000000E+00  0.00000000000E+00 -0.39235591998E+03  0.41178471275E+03  0.12499392669E+03 0.  0.
    9000005    1    3    3    0    0 -0.30880293360E+02  0.24100489661E+02 -0.35657493966E+03  0.35872149882E+03  0.10000000000E+01 0.  0.
    9000005    1    3    3    0    0  0.30880293360E+02 -0.24100489661E+02 -0.35780980321E+02  0.53063213930E+02  0.10000000000E+01 0.  0.
<mgrwt>
<rscale>  0 0.12499393E+03</rscale>
<asrwt>0</asrwt>
<pdfrwt beam="2">  1        4 0.61856959E-01 0.12499393E+03</pdfrwt>
<pdfrwt beam="1">  1       -4 0.14945228E-02 0.12499393E+03</pdfrwt>
<totfact> 0.63431042E+03</totfact>
</mgrwt>
</event>
<event>
 5    1  0.3206665E-002  0.1250007E+03  0.7818608E-02  0.1235068E+00
         -4   -1    0    0    0  501 -0.00000000000E+00  0.00000000000E+00  0.58670147751E+03  0.58670285205E+03  0.12700000000E+01 0.  1.
          4   -1    0    0  501    0  0.00000000000E+00 -0.00000000000E+00 -0.65960986936E+01  0.67172477977E+01  0.12700000000E+01 0.  1.
         25    2    1    2    0    0  0.00000000000E+00  0.00000000000E+00  0.58010537881E+03  0.59342009985E+03  0.12500065752E+03 0.  0.
    9000005    1    3    3    0    0  0.38100504445E+02  0.30330156896E+02  0.10413376619E+03  0.11496263792E+03  0.10000000000E+01 0.  0.
    9000005    1    3    3    0    0 -0.38100504445E+02 -0.30330156896E+02  0.47597161263E+03  0.47845746194E+03  0.10000000000E+01 0.  0.
<mgrwt>
<rscale>  0 0.12500066E+03</rscale>
<asrwt>0</asrwt>
<pdfrwt beam="2">  1        4 0.10242093E-02 0.12500066E+03</pdfrwt>
<pdfrwt beam="1">  1       -4 0.90271191E-01 0.12500066E+03</pdfrwt>
<totfact> 0.49284893E+03</totfact>
</mgrwt>
</event>
<event>
 5    1  0.3206665E-002  0.1250049E+03  0.7818608E-02  0.1235062E+00
         -4   -1    0    0    0  501 -0.00000000000E+00  0.00000000000E+00  0.15840643073E+03  0.15841152166E+03  0.12700000000E+01 0.  1.
          4   -1    0    0  501    0  0.00000000000E+00 -0.00000000000E+00 -0.24639746237E+02  0.24672454167E+02  0.12700000000E+01 0.  1.
         25    2    1    2    0    0  0.00000000000E+00  0.00000000000E+00  0.13376668449E+03  0.18308397583E+03  0.12500486521E+03 0.  0.
    9000005    1    3    3    0    0  0.33176807758E+02  0.31588667032E+02  0.46241256677E+01  0.46053523167E+02  0.10000000000E+01 0.  0.
    9000005    1    3    3    0    0 -0.33176807758E+02 -0.31588667032E+02  0.12914255882E+03  0.13703045266E+03  0.10000000000E+01 0.  0.
<mgrwt>
<rscale>  0 0.12500487E+03</rscale>
<asrwt>0</asrwt>
<pdfrwt beam="2">  1        4 0.37936378E-02 0.12500487E+03</pdfrwt>
<pdfrwt beam="1">  1       -4 0.24373128E-01 0.12500487E+03</pdfrwt>
<totfact> 0.93054656E+03</totfact>
</mgrwt>
</event>
<event>
 5    1  0.3206665E-002  0.1249916E+03  0.7818608E-02  0.1235082E+00
          4   -1    0    0  501    0  0.00000000000E+00  0.00000000000E+00  0.44876912379E+02  0.44894879048E+02  0.12700000000E+01 0. -1.
         -4   -1    0    0    0  501 -0.00000000000E+00 -0.00000000000E+00 -0.86991915455E+02  0.87001185363E+02  0.12700000000E+01 0. -1.
         25    2    1    2    0    0  0.00000000000E+00  0.00000000000E+00 -0.42115003076E+02  0.13189606441E+03  0.12499159301E+03 0.  0.
    9000005    1    3    3    0    0  0.34145559019E+02  0.41441115806E+02 -0.54782917566E+02  0.76716708330E+02  0.10000000000E+01 0.  0.
    9000005    1    3    3    0    0 -0.34145559019E+02 -0.41441115806E+02  0.12667914490E+02  0.55179356081E+02  0.10000000000E+01 0.  0.
<mgrwt>
<rscale>  0 0.12499159E+03</rscale>
<asrwt>0</asrwt>
<pdfrwt beam="1">  1        4 0.69062355E-02 0.12499159E+03</pdfrwt>
<pdfrwt beam="2">  1       -4 0.13385467E-01 0.12499159E+03</pdfrwt>
<totfact> 0.10305872E+04</totfact>
</mgrwt>
</event>
<event>
 4    1  0.3206665E-002  0.1263271E+03  0.7818608E-02  0.1233010E+00
          4   -1    0    0  501    0  0.00000000000E+00  0.00000000000E+00  0.63959440543E+03  0.63959566630E+03  0.12700000000E+01 0. -1.
         -4   -1    0    0    0  501 -0.00000000000E+00 -0.00000000000E+00 -0.61718361023E+01  0.63011475839E+01  0.12700000000E+01 0. -1.
    9000005    1    1    2    0    0 -0.18956289927E+02 -0.59954587848E+02  0.34684794180E+03  0.35250303298E+03  0.10000000000E+01 0.  0.
    9000005    1    1    2    0    0  0.18956289927E+02  0.59954587848E+02  0.28657462753E+03  0.29339378091E+03  0.10000000000E+01 0.  0.
<mgrwt>
<rscale>  0 0.12632713E+03</rscale>
<asrwt>0</asrwt>
<pdfrwt beam="1">  1        4 0.98409096E-01 0.12632713E+03</pdfrwt>
<pdfrwt beam="2">  1       -4 0.95955812E-03 0.12632713E+03</pdfrwt>
<totfact> 0.44778474E+03</totfact>
</mgrwt>
</event>
<event>
 5    1  0.3206665E-002  0.1250086E+03  0.7818608E-02  0.1235056E+00
         -4   -1    0    0    0  501 -0.00000000000E+00  0.00000000000E+00  0.10276641764E+03  0.10277426475E+03  0.12700000000E+01 0. -1.
          4   -1    0    0  501    0  0.00000000000E+00 -0.00000000000E+00 -0.37996299174E+02  0.38017517685E+02  0.12700000000E+01 0. -1.
         25    2    1    2    0    0  0.00000000000E+00  0.00000000000E+00  0.64770118463E+02  0.14079178243E+03  0.12500863072E+03 0.  0.
    9000005    1    3    3    0    0 -0.44339124422E+02  0.16825580317E+02 -0.13456919117E+02  0.49306660601E+02  0.10000000000E+01 0.  0.
    9000005    1    3    3    0    0  0.44339124422E+02 -0.16825580317E+02  0.78227037580E+02  0.91485121829E+02  0.10000000000E+01 0.  0.
<mgrwt>
<rscale>  0 0.12500863E+03</rscale>
<asrwt>0</asrwt>
<pdfrwt beam="2">  1        4 0.58478203E-02 0.12500863E+03</pdfrwt>
<pdfrwt beam="1">  1       -4 0.15812454E-01 0.12500863E+03</pdfrwt>
<totfact> 0.10115235E+04</totfact>
</mgrwt>
</event>
<event>
 5    1  0.3206665E-002  0.1250056E+03  0.7818608E-02  0.1235060E+00
          4   -1    0    0  501    0  0.00000000000E+00  0.00000000000E+00  0.31726053646E+02  0.31751462643E+02  0.12700000000E+01 0. -1.
         -4   -1    0    0    0  501 -0.00000000000E+00 -0.00000000000E+00 -0.12305748941E+03  0.12306404268E+03  0.12700000000E+01 0. -1.
         25    2    1    2    0    0  0.00000000000E+00  0.00000000000E+00 -0.91331435769E+02  0.15481550532E+03  0.12500563799E+03 0.  0.
    9000005    1    3    3    0    0 -0.12155512646E+02  0.57290229617E+02 -0.72676691492E+02  0.93342532553E+02  0.10000000000E+01 0.  0.
    9000005    1    3    3    0    0  0.12155512646E+02 -0.57290229617E+02 -0.18654744277E+02  0.61472972771E+02  0.10000000000E+01 0.  0.
<mgrwt>
<rscale>  0 0.12500564E+03</rscale>
<asrwt>0</asrwt>
<pdfrwt beam="1">  1        4 0.48833900E-02 0.12500564E+03</pdfrwt>
<pdfrwt beam="2">  1       -4 0.18934380E-01 0.12500564E+03</pdfrwt>
<totfact> 0.98339260E+03</totfact>
</mgrwt>
</event>
<event>
 5    1  0.3206665E-002  0.1250021E+03  0.7818608E-02  0.1235066E+00
          4   -1    0    0  501    0  0.00000000000E+00  0.00000000000E+00  0.11573288561E+02  0.11642762048E+02  0.12700000000E+01 0.  1.
         -4   -1    0    0    0  501 -0.00000000000E+00 -0.00000000000E+00 -0.33645373815E+03  0.33645613505E+03  0.12700000000E+01 0.  1.
         25    2    1    2    0    0  0.00000000000E+00  0.00000000000E+00 -0.32488044959E+03  0.34809889710E+03  0.12500214253E+03 0.  0.
    9000005    1    3    3    0    0 -0.59551522128E+02  0.18809461705E+02 -0.15608742476E+03  0.16812038486E+03  0.10000000000E+01 0.  0.
    9000005    1    3    3    0    0  0.59551522128E+02 -0.18809461705E+02 -0.16879302482E+03  0.17997851224E+03  0.10000000000E+01 0.  0.
<mgrwt>
<rscale>  0 0.12500214E+03</rscale>
<asrwt>0</asrwt>
<pdfrwt beam="1">  1        4 0.17860347E-02 0.12500214E+03</pdfrwt>
<pdfrwt beam="2">  1       -4 0.51767635E-01 0.12500214E+03</pdfrwt>
<totfact> 0.69930895E+03</totfact>
</mgrwt>
</event>
<event>
 5    1  0.3206665E-002  0.1249986E+03  0.7818608E-02  0.1235071E+00
          4   -1    0    0  501    0  0.00000000000E+00  0.00000000000E+00  0.39967947807E+02  0.39988120135E+02  0.12700000000E+01 0.  1.
         -4   -1    0    0    0  501 -0.00000000000E+00 -0.00000000000E+00 -0.97683434643E+02  0.97691690044E+02  0.12700000000E+01 0.  1.
         25    2    1    2    0    0  0.00000000000E+00  0.00000000000E+00 -0.57715486836E+02  0.13767981018E+03  0.12499861083E+03 0.  0.
    9000005    1    3    3    0    0 -0.23310014558E+02  0.55478356195E+02 -0.10297125666E+02  0.61059279244E+02  0.10000000000E+01 0.  0.
    9000005    1    3    3    0    0  0.23310014558E+02 -0.55478356195E+02 -0.47418361170E+02  0.76620530935E+02  0.10000000000E+01 0.  0.
<mgrwt>
<rscale>  0 0.12499861E+03</rscale>
<asrwt>0</asrwt>
<pdfrwt beam="1">  1        4 0.61511018E-02 0.12499861E+03</pdfrwt>
<pdfrwt beam="2">  1       -4 0.15030407E-01 0.12499861E+03</pdfrwt>
<totfact> 0.10182210E+04</totfact>
</mgrwt>
</event>
<event>
 5    1  0.3206665E-002  0.1250050E+03  0.7818608E-02  0.1235062E+00
          4   -1    0    0  501    0  0.00000000000E+00  0.00000000000E+00  0.50051795186E+01  0.51637895012E+01  0.12700000000E+01 0. -1.
         -4   -1    0    0    0  501 -0.00000000000E+00 -0.00000000000E+00 -0.76817042669E+03  0.76817147652E+03  0.12700000000E+01 0. -1.
         25    2    1    2    0    0  0.00000000000E+00  0.00000000000E+00 -0.76316524717E+03  0.77333526602E+03  0.12500495664E+03 0.  0.
    9000005    1    3    3    0    0 -0.28289643249E+02 -0.54372761163E+02 -0.45706190002E+03  0.46115429254E+03  0.10000000000E+01 0.  0.
    9000005    1    3    3    0    0  0.28289643249E+02  0.54372761163E+02 -0.30610334715E+03  0.31218097348E+03  0.10000000000E+01 0.  0.
<mgrwt>
<rscale>  0 0.12500496E+03</rscale>
<asrwt>0</asrwt>
<pdfrwt beam="1">  1        4 0.78230975E-03 0.12500496E+03</pdfrwt>
<pdfrwt beam="2">  1       -4 0.11819226E+00 0.12500496E+03</pdfrwt>
<totfact> 0.39477828E+03</totfact>
</mgrwt>
</event>
<event>
 5    1  0.3206665E-002  0.1249976E+03  0.7818608E-02  0.1235073E+00
          4   -1    0    0  501    0  0.00000000000E+00  0.00000000000E+00  0.80269649178E+02  0.80279695310E+02  0.12700000000E+01 0. -1.
         -4   -1    0    0    0  501 -0.00000000000E+00 -0.00000000000E+00 -0.48640856352E+02  0.48657433211E+02  0.12700000000E+01 0. -1.
         25    2    1    2    0    0  0.00000000000E+00  0.00000000000E+00  0.31628792826E+02  0.12893712852E+03  0.12499761028E+03 0.  0.
    9000005    1    3    3    0    0  0.13954673677E+02 -0.60784803613E+02  0.19885344437E+02  0.65467184077E+02  0.10000000000E+01 0.  0.
    9000005    1    3    3    0    0 -0.13954673677E+02  0.60784803613E+02  0.11743448389E+02  0.63469944444E+02  0.10000000000E+01 0.  0.
<mgrwt>
<rscale>  0 0.12499761E+03</rscale>
<asrwt>0</asrwt>
<pdfrwt beam="1">  1        4 0.12351225E-01 0.12499761E+03</pdfrwt>
<pdfrwt beam="2">  1       -4 0.74852567E-02 0.12499761E+03</pdfrwt>
<totfact> 0.10367857E+04</totfact>
</mgrwt>
</event>
<event>
 4    1  0.3206665E-002  0.1248154E+03  0.7818608E-02  0.1235358E+00
          4   -1    0    0  501    0  0.00000000000E+00  0.00000000000E+00  0.36375814533E+02  0.36397977732E+02  0.12700000000E+01 0. -1.
         -4   -1    0    0    0  501 -0.00000000000E+00 -0.00000000000E+00 -0.10701050773E+03  0.10701804364E+03  0.12700000000E+01 0. -1.
    9000005    1    1    2    0    0 -0.46708399384E+02  0.81444757406E+01  0.11295635474E+02  0.48750368603E+02  0.10000000000E+01 0.  0.
    9000005    1    1    2    0    0  0.46708399384E+02 -0.81444757406E+01 -0.81930328670E+02  0.94665652769E+02  0.10000000000E+01 0.  0.
<mgrwt>
<rscale>  0 0.12481544E+03</rscale>
<asrwt>0</asrwt>
<pdfrwt beam="1">  1        4 0.55985637E-02 0.12481544E+03</pdfrwt>
<pdfrwt beam="2">  1       -4 0.16465439E-01 0.12481544E+03</pdfrwt>
<totfact> 0.10105213E+04</totfact>
</mgrwt>
</event>
<event>
 5    1  0.3206665E-002  0.1249985E+03  0.7818608E-02  0.1235072E+00
          4   -1    0    0  501    0  0.00000000000E+00  0.00000000000E+00  0.19329166655E+03  0.19329583870E+03  0.12700000000E+01 0.  1.
         -4   -1    0    0    0  501 -0.00000000000E+00 -0.00000000000E+00 -0.20184251721E+02  0.20224166671E+02  0.12700000000E+01 0.  1.
         25    2    1    2    0    0  0.00000000000E+00  0.00000000000E+00  0.17310741483E+03  0.21352000537E+03  0.12499846249E+03 0.  0.
    9000005    1    3    3    0    0  0.10526279248E+02  0.47939663932E+02  0.15262609699E+03  0.16032697657E+03  0.10000000000E+01 0.  0.
    9000005    1    3    3    0    0 -0.10526279248E+02 -0.47939663932E+02  0.20481317841E+02  0.53193028803E+02  0.10000000000E+01 0.  0.
<mgrwt>
<rscale>  0 0.12499846E+03</rscale>
<asrwt>0</asrwt>
<pdfrwt beam="1">  1        4 0.29740569E-01 0.12499846E+03</pdfrwt>
<pdfrwt beam="2">  1       -4 0.31086610E-02 0.12499846E+03</pdfrwt>
<totfact> 0.87907247E+03</totfact>
</mgrwt>
</event>
<event>
 5    1  0.3206665E-002  0.1250219E+03  0.7818608E-02  0.1235035E+00
          4   -1    0    0  501    0  0.00000000000E+00  0.00000000000E+00  0.44229137083E+03  0.44229319417E+03  0.12700000000E+01 0. -1.
         -4   -1    0    0    0  501 -0.00000000000E+00 -0.00000000000E+00 -0.87874524137E+01  0.88787510340E+01  0.12700000000E+01 0. -1.
         25    2    1    2    0    0  0.00000000000E+00  0.00000000000E+00  0.43350391842E+03  0.45117194521E+03  0.12502190552E+03 0.  0.
    9000005    1    3    3    0    0 -0.28476044085E+01  0.53643339998E+02  0.33205694670E+03  0.33637558268E+03  0.10000000000E+01 0.  0.
    9000005    1    3    3    0    0  0.28476044085E+01 -0.53643339998E+02  0.10144697172E+03  0.11479636252E+03  0.10000000000E+01 0.  0.
<mgrwt>
<rscale>  0 0.12502191E+03</rscale>
<asrwt>0</asrwt>
<pdfrwt beam="1">  1        4 0.68051975E-01 0.12502191E+03</pdfrwt>
<pdfrwt beam="2">  1       -4 0.13590793E-02 0.12502191E+03</pdfrwt>
<totfact> 0.59833536E+03</totfact>
</mgrwt>
</event>
<event>
 5    1  0.3206665E-002  0.1250089E+03  0.7818608E-02  0.1235055E+00
         -4   -1    0    0    0  501 -0.00000000000E+00  0.00000000000E+00  0.26929482493E+02  0.26959412593E+02  0.12700000000E+01 0.  1.
          4   -1    0    0  501    0  0.00000000000E+00 -0.00000000000E+00 -0.14496208777E+03  0.14496765084E+03  0.12700000000E+01 0.  1.
         25    2    1    2    0    0  0.00000000000E+00  0.00000000000E+00 -0.11803260528E+03  0.17192706344E+03  0.12500887662E+03 0.  0.
    9000005    1    3    3    0    0  0.67265828804E+01  0.27558652602E+01 -0.14438542520E+03  0.14457175630E+03  0.10000000000E+01 0.  0.
    9000005    1    3    3    0    0 -0.67265828804E+01 -0.27558652602E+01  0.26352819921E+02  0.27355307133E+02  0.10000000000E+01 0.  0.
<mgrwt>
<rscale>  0 0.12500888E+03</rscale>
<asrwt>0</asrwt>
<pdfrwt beam="2">  1        4 0.22304589E-01 0.12500888E+03</pdfrwt>
<pdfrwt beam="1">  1       -4 0.41457276E-02 0.12500888E+03</pdfrwt>
<totfact> 0.95071735E+03</totfact>
</mgrwt>
</event>
<event>
 5    1  0.3206665E-002  0.1249984E+03  0.7818608E-02  0.1235072E+00
          4   -1    0    0  501    0  0.00000000000E+00  0.00000000000E+00  0.13933233594E+03  0.13933812378E+03  0.12700000000E+01 0. -1.
         -4   -1    0    0    0  501 -0.00000000000E+00 -0.00000000000E+00 -0.28014010170E+02  0.28042782776E+02  0.12700000000E+01 0. -1.
         25    2    1    2    0    0  0.00000000000E+00  0.00000000000E+00  0.11131832577E+03  0.16738090656E+03  0.12499839290E+03 0.  0.
    9000005    1    3    3    0    0 -0.90952703886E+01 -0.32268688985E+02  0.12627697609E+03  0.13065552771E+03  0.10000000000E+01 0.  0.
    9000005    1    3    3    0    0  0.90952703886E+01  0.32268688985E+02 -0.14958650313E+02  0.36725378847E+02  0.10000000000E+01 0.  0.
<mgrwt>
<rscale>  0 0.12499839E+03</rscale>
<asrwt>0</asrwt>
<pdfrwt beam="1">  1        4 0.21438402E-01 0.12499839E+03</pdfrwt>
<pdfrwt beam="2">  1       -4 0.43125062E-02 0.12499839E+03</pdfrwt>
<totfact> 0.95941840E+03</totfact>
</mgrwt>
</event>
<event>
 5    1  0.3206665E-002  0.1249999E+03  0.7818608E-02  0.1235069E+00
          4   -1    0    0  501    0  0.00000000000E+00  0.00000000000E+00  0.28129840188E+01  0.30863860890E+01  0.12700000000E+01 0. -1.
         -4   -1    0    0    0  501 -0.00000000000E+00 -0.00000000000E+00 -0.13240181490E+04  0.13240187581E+04  0.12700000000E+01 0. -1.
         25    2    1    2    0    0  0.00000000000E+00  0.00000000000E+00 -0.13212051650E+04  0.13271051442E+04  0.12499990296E+03 0.  0.
    9000005    1    3    3    0    0 -0.52767658586E+02 -0.28246184604E+02 -0.85140222374E+03  0.85350396562E+03  0.10000000000E+01 0.  0.
    9000005    1    3    3    0    0  0.52767658586E+02  0.28246184604E+02 -0.46980294123E+03  0.47360117856E+03  0.10000000000E+01 0.  0.
<mgrwt>
<rscale>  0 0.12499990E+03</rscale>
<asrwt>0</asrwt>
<pdfrwt beam="1">  1        4 0.45384561E-03 0.12499990E+03</pdfrwt>
<pdfrwt beam="2">  1       -4 0.20371570E+00 0.12499990E+03</pdfrwt>
<totfact> 0.21597811E+03</totfact>
</mgrwt>
</event>
<event>
 5    1  0.3206665E-002  0.1250029E+03  0.7818608E-02  0.1235065E+00
         -4   -1    0    0    0  501 -0.00000000000E+00  0.00000000000E+00  0.33435571041E+02  0.33459681870E+02  0.12700000000E+01 0. -1.
          4   -1    0    0  501    0  0.00000000000E+00 -0.00000000000E+00 -0.11676492587E+03  0.11677183228E+03  0.12700000000E+01 0. -1.
         25    2    1    2    0    0  0.00000000000E+00  0.00000000000E+00 -0.83329354830E+02  0.15023151415E+03  0.12500290583E+03 0.  0.
    9000005    1    3    3    0    0  0.20447835985E+02  0.57498688530E+02 -0.57843321703E+02  0.84089613180E+02  0.10000000000E+01 0.  0.
    9000005    1    3    3    0    0 -0.20447835985E+02 -0.57498688530E+02 -0.25486033127E+02  0.66141900969E+02  0.10000000000E+01 0.  0.
<mgrwt>
<rscale>  0 0.12500291E+03</rscale>
<asrwt>0</asrwt>
<pdfrwt beam="2">  1        4 0.17966221E-01 0.12500291E+03</pdfrwt>
<pdfrwt beam="1">  1       -4 0.51463200E-02 0.12500291E+03</pdfrwt>
<totfact> 0.99251079E+03</totfact>
</mgrwt>
</event>
<event>
 5    1  0.3206665E-002  0.1249997E+03  0.7818608E-02  0.1235070E+00
          4   -1    0    0  501    0  0.00000000000E+00  0.00000000000E+00  0.11328678101E+03  0.11329389945E+03  0.12700000000E+01 0.  1.
         -4   -1    0    0    0  501 -0.00000000000E+00 -0.00000000000E+00 -0.34461026543E+02  0.34484420401E+02  0.12700000000E+01 0.  1.
         25    2    1    2    0    0  0.00000000000E+00  0.00000000000E+00  0.78825754470E+02  0.14777831985E+03  0.12499972900E+03 0.  0.
    9000005    1    3    3    0    0 -0.40023260256E+02  0.34791747024E+02  0.32941165537E+00  0.53041828159E+02  0.10000000000E+01 0.  0.
    9000005    1    3    3    0    0  0.40023260256E+02 -0.34791747024E+02  0.78496342815E+02  0.94736491690E+02  0.10000000000E+01 0.  0.
<mgrwt>
<rscale>  0 0.12499973E+03</rscale>
<asrwt>0</asrwt>
<pdfrwt beam="1">  1        4 0.17431083E-01 0.12499973E+03</pdfrwt>
<pdfrwt beam="2">  1       -4 0.53040434E-02 0.12499973E+03</pdfrwt>
<totfact> 0.99749022E+03</totfact>
</mgrwt>
</event>
<event>
 5    1  0.3206665E-002  0.1249841E+03  0.7818608E-02  0.1235094E+00
          4   -1    0    0  501    0  0.00000000000E+00  0.00000000000E+00  0.11294700636E+04  0.11294707776E+04  0.12700000000E+01 0. -1.
         -4   -1    0    0    0  501 -0.00000000000E+00 -0.00000000000E+00 -0.33402406281E+01  0.35735287117E+01  0.12700000000E+01 0. -1.
         25    2    1    2    0    0  0.00000000000E+00  0.00000000000E+00  0.11261298230E+04  0.11330443063E+04  0.12498408657E+03 0.  0.
    9000005    1    3    3    0    0 -0.61537061266E+02 -0.76190806125E+01  0.49319860962E+03  0.49708221536E+03  0.10000000000E+01 0.  0.
    9000005    1    3    3    0    0  0.61537061266E+02  0.76190806125E+01  0.63293121336E+03  0.63596209097E+03  0.10000000000E+01 0.  0.
<mgrwt>
<rscale>  0 0.12498409E+03</rscale>
<asrwt>0</asrwt>
<pdfrwt beam="1">  1        4 0.17378265E+00 0.12498409E+03</pdfrwt>
<pdfrwt beam="2">  1       -4 0.53188326E-03 0.12498409E+03</pdfrwt>
<totfact> 0.26544620E+03</totfact>
</mgrwt>
</event>
<event>
 5    1  0.3206665E-002  0.1250064E+03  0.7818608E-02  0.1235059E+00
         -4   -1    0    0    0  501 -0.00000000000E+00  0.00000000000E+00  0.64684795128E+01  0.65919744544E+01  0.12700000000E+01 0.  1.
          4   -1    0    0  501    0  0.00000000000E+00 -0.00000000000E+00 -0.59811689274E+03  0.59811824105E+03  0.12700000000E+01 0.  1.
         25    2    1    2    0    0  0.00000000000E+00  0.00000000000E+00 -0.59164841322E+03  0.60471021550E+03  0.12500639930E+03 0.  0.
    9000005    1    3    3    0    0 -0.12327106263E+02 -0.52595271666E+02 -0.14381560008E+03  0.15362990262E+03  0.10000000000E+01 0.  0.
    9000005    1    3    3    0    0  0.12327106263E+02  0.52595271666E+02 -0.44783281314E+03  0.45108031289E+03  0.10000000000E+01 0.  0.
<mgrwt>
<rscale>  0 0.12500640E+03</rscale>
<asrwt>0</asrwt>
<pdfrwt beam="2">  1        4 0.92027543E-01 0.12500640E+03</pdfrwt>
<pdfrwt beam="1">  1       -4 0.10047545E-02 0.12500640E+03</pdfrwt>
<totfact> 0.48564834E+03</totfact>
</mgrwt>
</event>
<event>
 5    1  0.3206665E-002  0.1250009E+03  0.7818608E-02  0.1235068E+00
         -4   -1    0    0    0  501 -0.00000000000E+00  0.00000000000E+00  0.39418328500E+03  0.39418533087E+03  0.12700000000E+01 0.  1.
          4   -1    0    0  501    0  0.00000000000E+00 -0.00000000000E+00 -0.98671071187E+01  0.99485025452E+01  0.12700000000E+01 0.  1.
         25    2    1    2    0    0  0.00000000000E+00  0.00000000000E+00  0.38431617788E+03  0.40413383342E+03  0.12500092292E+03 0.  0.
    9000005    1    3    3    0    0 -0.54453336828E+02  0.24127954061E+02  0.25332880590E+03  0.26023798331E+03  0.10000000000E+01 0.  0.
    9000005    1    3    3    0    0  0.54453336828E+02 -0.24127954061E+02  0.13098737199E+03  0.14389585011E+03  0.10000000000E+01 0.  0.
<mgrwt>
<rscale>  0 0.12500092E+03</rscale>
<asrwt>0</asrwt>
<pdfrwt beam="2">  1        4 0.15244349E-02 0.12500092E+03</pdfrwt>
<pdfrwt beam="1">  1       -4 0.60650005E-01 0.12500092E+03</pdfrwt>
<totfact> 0.64151402E+03</totfact>
</mgrwt>
</event>
<event>
 5    1  0.3206665E-002  0.1249997E+03  0.7818608E-02  0.1235070E+00
         -4   -1    0    0    0  501 -0.00000000000E+00  0.00000000000E+00  0.21666768074E+03  0.21667140277E+03  0.12700000000E+01 0. -1.
          4   -1    0    0  501    0  0.00000000000E+00 -0.00000000000E+00 -0.18002421660E+02  0.18047162814E+02  0.12700000000E+01 0. -1.
         25    2    1    2    0    0  0.00000000000E+00  0.00000000000E+00  0.19866525908E+03  0.23471856558E+03  0.12499967945E+03 0.  0.
    9000005    1    3    3    0    0 -0.13399356994E+02 -0.43555164503E+02  0.19035126884E+02  0.49395659508E+02  0.10000000000E+01 0.  0.
    9000005    1    3    3    0    0  0.13399356994E+02  0.43555164503E+02  0.17963013220E+03  0.18532290607E+03  0.10000000000E+01 0.  0.
<mgrwt>
<rscale>  0 0.12499968E+03</rscale>
<asrwt>0</asrwt>
<pdfrwt beam="2">  1        4 0.27733312E-02 0.12499968E+03</pdfrwt>
<pdfrwt beam="1">  1       -4 0.33337219E-01 0.12499968E+03</pdfrwt>
<totfact> 0.84590887E+03</totfact>
</mgrwt>
</event>
<event>
 5    1  0.3206665E-002  0.1250038E+03  0.7818608E-02  0.1235063E+00
         -4   -1    0    0    0  501 -0.00000000000E+00  0.00000000000E+00  0.16105857098E+03  0.16106357809E+03  0.12700000000E+01 0. -1.
          4   -1    0    0  501    0  0.00000000000E+00 -0.00000000000E+00 -0.24233043442E+02  0.24266299563E+02  0.12700000000E+01 0. -1.
         25    2    1    2    0    0  0.00000000000E+00  0.00000000000E+00  0.13682552754E+03  0.18532987765E+03  0.12500375420E+03 0.  0.
    9000005    1    3    3    0    0  0.52566285913E+02 -0.13561897264E+02  0.11430966468E+03  0.12654974876E+03  0.10000000000E+01 0.  0.
    9000005    1    3    3    0    0 -0.52566285913E+02  0.13561897264E+02  0.22515862859E+02  0.58780128891E+02  0.10000000000E+01 0.  0.
<mgrwt>
<rscale>  0 0.12500375E+03</rscale>
<asrwt>0</asrwt>
<pdfrwt beam="2">  1        4 0.37311039E-02 0.12500375E+03</pdfrwt>
<pdfrwt beam="1">  1       -4 0.24781185E-01 0.12500375E+03</pdfrwt>
<totfact> 0.92658515E+03</totfact>
</mgrwt>
</event>
<event>
 5    1  0.3206665E-002  0.1250093E+03  0.7818608E-02  0.1235055E+00
         -4   -1    0    0    0  501 -0.00000000000E+00  0.00000000000E+00  0.43694561595E+03  0.43694746160E+03  0.12700000000E+01 0.  1.
          4   -1    0    0  501    0  0.00000000000E+00 -0.00000000000E+00 -0.88942529988E+01  0.89844663952E+01  0.12700000000E+01 0.  1.
         25    2    1    2    0    0  0.00000000000E+00  0.00000000000E+00  0.42805136295E+03  0.44593192800E+03  0.12500925998E+03 0.  0.
    9000005    1    3    3    0    0  0.19577540206E+02  0.59309171538E+02  0.20607247616E+03  0.21533165893E+03  0.10000000000E+01 0.  0.
    9000005    1    3    3    0    0 -0.19577540206E+02 -0.59309171538E+02  0.22197888680E+03  0.23060026906E+03  0.10000000000E+01 0.  0.
<mgrwt>
<rscale>  0 0.12500926E+03</rscale>
<asrwt>0</asrwt>
<pdfrwt beam="2">  1        4 0.13754283E-02 0.12500926E+03</pdfrwt>
<pdfrwt beam="1">  1       -4 0.67229471E-01 0.12500926E+03</pdfrwt>
<totfact> 0.60305541E+03</totfact>
</mgrwt>
</event>
<event>
 5    1  0.3206665E-002  0.1250042E+03  0.7818608E-02  0.1235063E+00
         -4   -1    0    0    0  501 -0.00000000000E+00  0.00000000000E+00  0.33880010377E+02  0.33903805142E+02  0.12700000000E+01 0.  1.
          4   -1    0    0  501    0  0.00000000000E+00 -0.00000000000E+00 -0.11523655837E+03  0.11524355637E+03  0.12700000000E+01 0.  1.
         25    2    1    2    0    0  0.00000000000E+00  0.00000000000E+00 -0.81356547990E+02  0.14914736151E+03  0.12500419011E+03 0.  0.
    9000005    1    3    3    0    0 -0.14671571953E+02 -0.17869404527E+02  0.28595140661E+02  0.36786583304E+02  0.10000000000E+01 0.  0.
    9000005    1    3    3    0    0  0.14671571953E+02  0.17869404527E+02 -0.10995168865E+03  0.11236077821E+03  0.10000000000E+01 0.  0.
<mgrwt>
<rscale>  0 0.12500419E+03</rscale>
<asrwt>0</asrwt>
<pdfrwt beam="2">  1        4 0.17731070E-01 0.12500419E+03</pdfrwt>
<pdfrwt beam="1">  1       -4 0.52146780E-02 0.12500419E+03</pdfrwt>
<totfact> 0.99464550E+03</totfact>
</mgrwt>
</event>
<event>
 5    1  0.3206665E-002  0.1250072E+03  0.7818608E-02  0.1235058E+00
          4   -1    0    0  501    0  0.00000000000E+00  0.00000000000E+00  0.79459731793E+02  0.79469880311E+02  0.12700000000E+01 0.  1.
         -4   -1    0    0    0  501 -0.00000000000E+00 -0.00000000000E+00 -0.49144328765E+02  0.49160735854E+02  0.12700000000E+01 0.  1.
         25    2    1    2    0    0  0.00000000000E+00  0.00000000000E+00  0.30315403028E+02  0.12863061617E+03  0.12500724681E+03 0.  0.
    9000005    1    3    3    0    0  0.90487961982E+01 -0.20469328439E+02  0.75199929726E+02  0.78465938789E+02  0.10000000000E+01 0.  0.
    9000005    1    3    3    0    0 -0.90487961982E+01  0.20469328439E+02 -0.44884526697E+02  0.50164677376E+02  0.10000000000E+01 0.  0.
<mgrwt>
<rscale>  0 0.12500725E+03</rscale>
<asrwt>0</asrwt>
<pdfrwt beam="1">  1        4 0.12226617E-01 0.12500725E+03</pdfrwt>
<pdfrwt beam="2">  1       -4 0.75627088E-02 0.12500725E+03</pdfrwt>
<totfact> 0.10372194E+04</totfact>
</mgrwt>
</event>
<event>
 5    1  0.3206665E-002  0.1249707E+03  0.7818608E-02  0.1235115E+00
         -4   -1    0    0    0  501 -0.00000000000E+00  0.00000000000E+00  0.49714165025E+03  0.49714327242E+03  0.12700000000E+01 0. -1.
          4   -1    0    0  501    0  0.00000000000E+00 -0.00000000000E+00 -0.78007475286E+01  0.79034525370E+01  0.12700000000E+01 0. -1.
         25    2    1    2    0    0  0.00000000000E+00  0.00000000000E+00  0.48934090272E+03  0.50504672496E+03  0.12497069782E+03 0.  0.
    9000005    1    3    3    0    0  0.56368534264E+02 -0.13825738566E+02  0.15120699194E+03  0.16196640736E+03  0.10000000000E+01 0.  0.
    9000005    1    3    3    0    0 -0.56368534264E+02  0.13825738566E+02  0.33813391078E+03  0.34308031759E+03  0.10000000000E+01 0.  0.
<mgrwt>
<rscale>  0 0.12497070E+03</rscale>
<asrwt>0</asrwt>
<pdfrwt beam="2">  1        4 0.12081401E-02 0.12497070E+03</pdfrwt>
<pdfrwt beam="1">  1       -4 0.76491362E-01 0.12497070E+03</pdfrwt>
<totfact> 0.55510666E+03</totfact>
</mgrwt>
</event>
<event>
 5    1  0.3206665E-002  0.1249998E+03  0.7818608E-02  0.1235070E+00
          4   -1    0    0  501    0  0.00000000000E+00  0.00000000000E+00  0.59023295378E+01  0.60374161669E+01  0.12700000000E+01 0. -1.
         -4   -1    0    0    0  501 -0.00000000000E+00 -0.00000000000E+00 -0.65418912058E+03  0.65419035332E+03  0.12700000000E+01 0. -1.
         25    2    1    2    0    0  0.00000000000E+00  0.00000000000E+00 -0.64828679104E+03  0.66022776949E+03  0.12499977668E+03 0.  0.
    9000005    1    3    3    0    0  0.18927357091E+02 -0.43779386709E+02 -0.53741146561E+03  0.53952475653E+03  0.10000000000E+01 0.  0.
    9000005    1    3    3    0    0 -0.18927357091E+02  0.43779386709E+02 -0.11087532543E+03  0.12070301296E+03  0.10000000000E+01 0.  0.
<mgrwt>
<rscale>  0 0.12499978E+03</rscale>
<asrwt>0</asrwt>
<pdfrwt beam="1">  1        4 0.91853732E-03 0.12499978E+03</pdfrwt>
<pdfrwt beam="2">  1       -4 0.10065491E+00 0.12499978E+03</pdfrwt>
<totfact> 0.45271094E+03</totfact>
</mgrwt>
</event>
<event>
 5    1  0.3206665E-002  0.1250023E+03  0.7818608E-02  0.1235066E+00
          4   -1    0    0  501    0  0.00000000000E+00  0.00000000000E+00  0.64002108453E+02  0.64014707579E+02  0.12700000000E+01 0.  1.
         -4   -1    0    0    0  501 -0.00000000000E+00 -0.00000000000E+00 -0.61010216592E+02  0.61023433439E+02  0.12700000000E+01 0.  1.
         25    2    1    2    0    0  0.00000000000E+00  0.00000000000E+00  0.29918918602E+01  0.12503814102E+03  0.12500234115E+03 0.  0.
    9000005    1    3    3    0    0  0.49628139277E+02 -0.32374107582E+02  0.21360164784E+02  0.62994378237E+02  0.10000000000E+01 0.  0.
    9000005    1    3    3    0    0 -0.49628139277E+02  0.32374107582E+02 -0.18368272923E+02  0.62043762781E+02  0.10000000000E+01 0.  0.
<mgrwt>
<rscale>  0 0.12500234E+03</rscale>
<asrwt>0</asrwt>
<pdfrwt beam="1">  1        4 0.98484640E-02 0.12500234E+03</pdfrwt>
<pdfrwt beam="2">  1       -4 0.93881730E-02 0.12500234E+03</pdfrwt>
<totfact> 0.10451481E+04</totfact>
</mgrwt>
</event>
<event>
 5    1  0.3206665E-002  0.1249876E+03  0.7818608E-02  0.1235089E+00
         -4   -1    0    0    0  501 -0.00000000000E+00  0.00000000000E+00  0.41569531634E+01  0.43466262322E+01  0.12700000000E+01 0.  1.
          4   -1    0    0  501    0  0.00000000000E+00 -0.00000000000E+00 -0.91835901360E+03  0.91835989175E+03  0.12700000000E+01 0.  1.
         25    2    1    2    0    0  0.00000000000E+00  0.00000000000E+00 -0.91420206044E+03  0.92270651798E+03  0.12498764341E+03 0.  0.
    9000005    1    3    3    0    0  0.10042959801E+02 -0.39198675689E+02 -0.10559726394E+03  0.11308925400E+03  0.10000000000E+01 0.  0.
    9000005    1    3    3    0    0 -0.10042959801E+02  0.39198675689E+02 -0.80860479650E+03  0.80961726398E+03  0.10000000000E+01 0.  0.
<mgrwt>
<rscale>  0 0.12498764E+03</rscale>
<asrwt>0</asrwt>
<pdfrwt beam="2">  1        4 0.14130050E+00 0.12498764E+03</pdfrwt>
<pdfrwt beam="1">  1       -4 0.65418977E-03 0.12498764E+03</pdfrwt>
<totfact> 0.33314249E+03</totfact>
</mgrwt>
</event>
<event>
 5    1  0.3206665E-002  0.1249935E+03  0.7818608E-02  0.1235079E+00
         -4   -1    0    0    0  501 -0.00000000000E+00  0.00000000000E+00  0.78369390106E+01  0.79391758424E+01  0.12700000000E+01 0.  1.
          4   -1    0    0  501    0  0.00000000000E+00 -0.00000000000E+00 -0.49505636144E+03  0.49505799045E+03  0.12700000000E+01 0.  1.
         25    2    1    2    0    0  0.00000000000E+00  0.00000000000E+00 -0.48721942243E+03  0.50299716629E+03  0.12499353463E+03 0.  0.
    9000005    1    3    3    0    0  0.33643801099E+02  0.33324265357E+02 -0.40768764696E+03  0.41042981068E+03  0.10000000000E+01 0.  0.
    9000005    1    3    3    0    0 -0.33643801099E+02 -0.33324265357E+02 -0.79531775473E+02  0.92567355606E+02  0.10000000000E+01 0.  0.
<mgrwt>
<rscale>  0 0.12499353E+03</rscale>
<asrwt>0</asrwt>
<pdfrwt beam="2">  1        4 0.76170483E-01 0.12499353E+03</pdfrwt>
<pdfrwt beam="1">  1       -4 0.12136730E-02 0.12499353E+03</pdfrwt>
<totfact> 0.55640490E+03</totfact>
</mgrwt>
</event>
<event>
 5    1  0.3206665E-002  0.1250073E+03  0.7818608E-02  0.1235058E+00
         -4   -1    0    0    0  501 -0.00000000000E+00  0.00000000000E+00  0.14014569701E+03  0.14015145126E+03  0.12700000000E+01 0.  1.
          4   -1    0    0  501    0  0.00000000000E+00 -0.00000000000E+00 -0.27855249996E+02  0.27884186421E+02  0.12700000000E+01 0.  1.
         25    2    1    2    0    0  0.00000000000E+00  0.00000000000E+00  0.11229044702E+03  0.16803563768E+03  0.12500732395E+03 0.  0.
    9000005    1    3    3    0    0  0.29976178428E+01 -0.73369362032E+01  0.13947399838E+03  0.13970258613E+03  0.10000000000E+01 0.  0.
    9000005    1    3    3    0    0 -0.29976178428E+01  0.73369362032E+01 -0.27183551367E+02  0.28333051557E+02  0.10000000000E+01 0.  0.
<mgrwt>
<rscale>  0 0.12500732E+03</rscale>
<asrwt>0</asrwt>
<pdfrwt beam="2">  1        4 0.42880917E-02 0.12500732E+03</pdfrwt>
<pdfrwt beam="1">  1       -4 0.21563545E-01 0.12500732E+03</pdfrwt>
<totfact> 0.95799802E+03</totfact>
</mgrwt>
</event>
<event>
 5    1  0.3206665E-002  0.1249989E+03  0.7818608E-02  0.1235071E+00
          4   -1    0    0  501    0  0.00000000000E+00  0.00000000000E+00  0.37075519001E+02  0.37097264174E+02  0.12700000000E+01 0.  1.
         -4   -1    0    0    0  501 -0.00000000000E+00 -0.00000000000E+00 -0.10530104408E+03  0.10530870232E+03  0.12700000000E+01 0.  1.
         25    2    1    2    0    0  0.00000000000E+00  0.00000000000E+00 -0.68225525083E+02  0.14240596650E+03  0.12499894808E+03 0.  0.
    9000005    1    3    3    0    0 -0.99083136843E+01  0.46040368486E+01 -0.10421007595E+03  0.10478602848E+03  0.10000000000E+01 0.  0.
    9000005    1    3    3    0    0  0.99083136843E+01 -0.46040368486E+01  0.35984550866E+02  0.37619938017E+02  0.10000000000E+01 0.  0.
<mgrwt>
<rscale>  0 0.12499895E+03</rscale>
<asrwt>0</asrwt>
<pdfrwt beam="1">  1        4 0.57061878E-02 0.12499895E+03</pdfrwt>
<pdfrwt beam="2">  1       -4 0.16202422E-01 0.12499895E+03</pdfrwt>
<totfact> 0.10084201E+04</totfact>
</mgrwt>
</event>
<event>
 5    1  0.3206665E-002  0.1249977E+03  0.7818608E-02  0.1235073E+00
          4   -1    0    0  501    0  0.00000000000E+00  0.00000000000E+00  0.12357510106E+02  0.12422598602E+02  0.12700000000E+01 0.  1.
         -4   -1    0    0    0  501 -0.00000000000E+00 -0.00000000000E+00 -0.31519513224E+03  0.31519769081E+03  0.12700000000E+01 0.  1.
         25    2    1    2    0    0  0.00000000000E+00  0.00000000000E+00 -0.30283762214E+03  0.32762028941E+03  0.12499771458E+03 0.  0.
    9000005    1    3    3    0    0 -0.28815033070E+02 -0.33335181744E+02 -0.35276210789E+02  0.56453091327E+02  0.10000000000E+01 0.  0.
    9000005    1    3    3    0    0  0.28815033070E+02  0.33335181744E+02 -0.26756141135E+03  0.27116719808E+03  0.10000000000E+01 0.  0.
<mgrwt>
<rscale>  0 0.12499771E+03</rscale>
<asrwt>0</asrwt>
<pdfrwt beam="1">  1        4 0.19063593E-02 0.12499771E+03</pdfrwt>
<pdfrwt beam="2">  1       -4 0.48496757E-01 0.12499771E+03</pdfrwt>
<totfact> 0.72262528E+03</totfact>
</mgrwt>
</event>
<event>
 5    1  0.3206665E-002  0.1249909E+03  0.7818608E-02  0.1235084E+00
         -4   -1    0    0    0  501 -0.00000000000E+00  0.00000000000E+00  0.41437128267E+02  0.41456585714E+02  0.12700000000E+01 0. -1.
          4   -1    0    0  501    0  0.00000000000E+00 -0.00000000000E+00 -0.94209702138E+02  0.94218261908E+02  0.12700000000E+01 0. -1.
         25    2    1    2    0    0  0.00000000000E+00  0.00000000000E+00 -0.52772573871E+02  0.13567484762E+03  0.12499087856E+03 0.  0.
    9000005    1    3    3    0    0 -0.18030413144E+02 -0.39645416039E+02  0.22252637584E+02  0.48918653809E+02  0.10000000000E+01 0.  0.
    9000005    1    3    3    0    0  0.18030413144E+02  0.39645416039E+02 -0.75025211455E+02  0.86756193813E+02  0.10000000000E+01 0.  0.
<mgrwt>
<rscale>  0 0.12499088E+03</rscale>
<asrwt>0</asrwt>
<pdfrwt beam="2">  1        4 0.14495956E-01 0.12499088E+03</pdfrwt>
<pdfrwt beam="1">  1       -4 0.63770980E-02 0.12499088E+03</pdfrwt>
<totfact> 0.10225970E+04</totfact>
</mgrwt>
</event>
<event>
 5    1  0.3206665E-002  0.1249999E+03  0.7818608E-02  0.1235069E+00
          4   -1    0    0  501    0  0.00000000000E+00  0.00000000000E+00  0.14379701129E+03  0.14380261943E+03  0.12700000000E+01 0. -1.
         -4   -1    0    0    0  501 -0.00000000000E+00 -0.00000000000E+00 -0.27144004481E+02  0.27173698299E+02  0.12700000000E+01 0. -1.
         25    2    1    2    0    0  0.00000000000E+00  0.00000000000E+00  0.11665300680E+03  0.17097631773E+03  0.12499990891E+03 0.  0.
    9000005    1    3    3    0    0  0.18463051783E+01  0.17733660944E+02  0.14025090991E+03  0.14138320021E+03  0.10000000000E+01 0.  0.
    9000005    1    3    3    0    0 -0.18463051783E+01 -0.17733660944E+02 -0.23597903103E+02  0.29593117513E+02  0.10000000000E+01 0.  0.
<mgrwt>
<rscale>  0 0.12499991E+03</rscale>
<asrwt>0</asrwt>
<pdfrwt beam="1">  1        4 0.22125333E-01 0.12499991E+03</pdfrwt>
<pdfrwt beam="2">  1       -4 0.41787162E-02 0.12499991E+03</pdfrwt>
<totfact> 0.95267171E+03</totfact>
</mgrwt>
</event>
<event>
 5    1  0.3206665E-002  0.1250077E+03  0.7818608E-02  0.1235057E+00
          4   -1    0    0  501    0  0.00000000000E+00  0.00000000000E+00  0.10072516572E+03  0.10073317184E+03  0.12700000000E+01 0.  1.
         -4   -1    0    0    0  501 -0.00000000000E+00 -0.00000000000E+00 -0.38766116588E+02  0.38786913970E+02  0.12700000000E+01 0.  1.
         25    2    1    2    0    0  0.00000000000E+00  0.00000000000E+00  0.61959049132E+02  0.13952008581E+03  0.12500772206E+03 0.  0.
    9000005    1    3    3    0    0  0.61931958518E+02  0.67755961851E+00  0.40297792538E+02  0.73898164093E+02  0.10000000000E+01 0.  0.
    9000005    1    3    3    0    0 -0.61931958518E+02 -0.67755961851E+00  0.21661256594E+02  0.65621921719E+02  0.10000000000E+01 0.  0.
<mgrwt>
<rscale>  0 0.12500772E+03</rscale>
<asrwt>0</asrwt>
<pdfrwt beam="1">  1        4 0.15498395E-01 0.12500772E+03</pdfrwt>
<pdfrwt beam="2">  1       -4 0.59662336E-02 0.12500772E+03</pdfrwt>
<totfact> 0.10141777E+04</totfact>
</mgrwt>
</event>
<event>
 5    1  0.3206665E-002  0.1250000E+03  0.7818608E-02  0.1235069E+00
          4   -1    0    0  501    0  0.00000000000E+00  0.00000000000E+00  0.50547997839E+03  0.50548157381E+03  0.12700000000E+01 0. -1.
         -4   -1    0    0    0  501 -0.00000000000E+00 -0.00000000000E+00 -0.76740039710E+01  0.77783826691E+01  0.12700000000E+01 0. -1.
         25    2    1    2    0    0  0.00000000000E+00  0.00000000000E+00  0.49780597442E+03  0.51325995648E+03  0.12499997900E+03 0.  0.
    9000005    1    3    3    0    0 -0.38613099562E+02  0.13080113798E+02  0.44337641314E+03  0.44524791360E+03  0.10000000000E+01 0.  0.
    9000005    1    3    3    0    0  0.38613099562E+02 -0.13080113798E+02  0.54429561281E+02  0.68012042875E+02  0.10000000000E+01 0.  0.
<mgrwt>
<rscale>  0 0.12499998E+03</rscale>
<asrwt>0</asrwt>
<pdfrwt beam="1">  1        4 0.77774289E-01 0.12499998E+03</pdfrwt>
<pdfrwt beam="2">  1       -4 0.11887681E-02 0.12499998E+03</pdfrwt>
<totfact> 0.54850067E+03</totfact>
</mgrwt>
</event>
<event>
 5    1  0.3206665E-002  0.1249934E+03  0.7818608E-02  0.1235080E+00
          4   -1    0    0  501    0  0.00000000000E+00  0.00000000000E+00  0.16811035588E+02  0.16858938802E+02  0.12700000000E+01 0. -1.
         -4   -1    0    0    0  501 -0.00000000000E+00 -0.00000000000E+00 -0.23195755744E+03  0.23196103413E+03  0.12700000000E+01 0. -1.
         25    2    1    2    0    0  0.00000000000E+00  0.00000000000E+00 -0.21514652185E+03  0.24881997293E+03  0.12499341208E+03 0.  0.
    9000005    1    3    3    0    0  0.22859415806E+02  0.51178230699E+02 -0.16256297544E+03  0.17195780056E+03  0.10000000000E+01 0.  0.
    9000005    1    3    3    0    0 -0.22859415806E+02 -0.51178230699E+02 -0.52583546410E+02  0.76862172370E+02  0.10000000000E+01 0.  0.
<mgrwt>
<rscale>  0 0.12499341E+03</rscale>
<asrwt>0</asrwt>
<pdfrwt beam="1">  1        4 0.25902656E-02 0.12499341E+03</pdfrwt>
<pdfrwt beam="2">  1       -4 0.35689728E-01 0.12499341E+03</pdfrwt>
<totfact> 0.82513189E+03</totfact>
</mgrwt>
</event>
<event>
 5    1  0.3206665E-002  0.1249946E+03  0.7818608E-02  0.1235078E+00
          4   -1    0    0  501    0  0.00000000000E+00  0.00000000000E+00  0.91563940370E+02  0.91572747453E+02  0.12700000000E+01 0. -1.
         -4   -1    0    0    0  501 -0.00000000000E+00 -0.00000000000E+00 -0.42637438171E+02  0.42656348107E+02  0.12700000000E+01 0. -1.
         25    2    1    2    0    0  0.00000000000E+00  0.00000000000E+00  0.48926502199E+02  0.13422909556E+03  0.12499458979E+03 0.  0.
    9000005    1    3    3    0    0  0.58514624972E+02  0.20868583638E+02  0.17223301656E+02  0.64475586377E+02  0.10000000000E+01 0.  0.
    9000005    1    3    3    0    0 -0.58514624972E+02 -0.20868583638E+02  0.31703200543E+02  0.69753509183E+02  0.10000000000E+01 0.  0.
<mgrwt>
<rscale>  0 0.12499459E+03</rscale>
<asrwt>0</asrwt>
<pdfrwt beam="1">  1        4 0.14088892E-01 0.12499459E+03</pdfrwt>
<pdfrwt beam="2">  1       -4 0.65617380E-02 0.12499459E+03</pdfrwt>
<totfact> 0.10255597E+04</totfact>
</mgrwt>
</event>
<event>
 5    1  0.3206665E-002  0.1250014E+03  0.7818608E-02  0.1235067E+00
         -4   -1    0    0    0  501 -0.00000000000E+00  0.00000000000E+00  0.71198961423E+02  0.71210287233E+02  0.12700000000E+01 0.  1.
          4   -1    0    0  501    0  0.00000000000E+00 -0.00000000000E+00 -0.54842035295E+02  0.54856738286E+02  0.12700000000E+01 0.  1.
         25    2    1    2    0    0  0.00000000000E+00  0.00000000000E+00  0.16356926128E+02  0.12606702552E+03  0.12500138356E+03 0.  0.
    9000005    1    3    3    0    0 -0.19273495467E+02  0.14479336607E+02 -0.49969085762E+02  0.55488993034E+02  0.10000000000E+01 0.  0.
    9000005    1    3    3    0    0  0.19273495467E+02 -0.14479336607E+02  0.66326011890E+02  0.70578032484E+02  0.10000000000E+01 0.  0.
<mgrwt>
<rscale>  0 0.12500138E+03</rscale>
<asrwt>0</asrwt>
<pdfrwt beam="2">  1        4 0.84392384E-02 0.12500138E+03</pdfrwt>
<pdfrwt beam="1">  1       -4 0.10955689E-01 0.12500138E+03</pdfrwt>
<totfact> 0.10429163E+04</totfact>
</mgrwt>
</event>
<event>
 5    1  0.3206665E-002  0.1249926E+03  0.7818608E-02  0.1235081E+00
         -4   -1    0    0    0  501 -0.00000000000E+00  0.00000000000E+00  0.36239404845E+02  0.36261651417E+02  0.12700000000E+01 0.  1.
          4   -1    0    0  501    0  0.00000000000E+00 -0.00000000000E+00 -0.10771834545E+03  0.10772583184E+03  0.12700000000E+01 0.  1.
         25    2    1    2    0    0  0.00000000000E+00  0.00000000000E+00 -0.71478940603E+02  0.14398748326E+03  0.12499262532E+03 0.  0.
    9000005    1    3    3    0    0  0.14825190374E+02  0.38653527761E+02  0.18180840090E+02  0.45226368685E+02  0.10000000000E+01 0.  0.
    9000005    1    3    3    0    0 -0.14825190374E+02 -0.38653527761E+02 -0.89659780694E+02  0.98761114575E+02  0.10000000000E+01 0.  0.
<mgrwt>
<rscale>  0 0.12499263E+03</rscale>
<asrwt>0</asrwt>
<pdfrwt beam="2">  1        4 0.16574340E-01 0.12499263E+03</pdfrwt>
<pdfrwt beam="1">  1       -4 0.55775803E-02 0.12499263E+03</pdfrwt>
<totfact> 0.10053271E+04</totfact>
</mgrwt>
</event>
<event>
 5    1  0.3206665E-002  0.1249983E+03  0.7818608E-02  0.1235072E+00
          4   -1    0    0  501    0  0.00000000000E+00  0.00000000000E+00  0.51912746330E+02  0.51928278727E+02  0.12700000000E+01 0. -1.
         -4   -1    0    0    0  501 -0.00000000000E+00 -0.00000000000E+00 -0.75212244926E+02  0.75222966485E+02  0.12700000000E+01 0. -1.
         25    2    1    2    0    0  0.00000000000E+00  0.00000000000E+00 -0.23299498596E+02  0.12715124521E+03  0.12499829009E+03 0.  0.
    9000005    1    3    3    0    0 -0.61676380390E+02  0.62524113871E+00 -0.14381029835E+01  0.61704416087E+02  0.10000000000E+01 0.  0.
    9000005    1    3    3    0    0  0.61676380390E+02 -0.62524113871E+00 -0.21861395612E+02  0.65446829125E+02  0.10000000000E+01 0.  0.
<mgrwt>
<rscale>  0 0.12499829E+03</rscale>
<asrwt>0</asrwt>
<pdfrwt beam="1">  1        4 0.79885959E-02 0.12499829E+03</pdfrwt>
<pdfrwt beam="2">  1       -4 0.11573134E-01 0.12499829E+03</pdfrwt>
<totfact> 0.10406263E+04</totfact>
</mgrwt>
</event>
<event>
 5    1  0.3206665E-002  0.1249999E+03  0.7818608E-02  0.1235069E+00
         -4   -1    0    0    0  501 -0.00000000000E+00  0.00000000000E+00  0.22487375530E+02  0.22523209324E+02  0.12700000000E+01 0.  1.
          4   -1    0    0  501    0  0.00000000000E+00 -0.00000000000E+00 -0.17353185595E+03  0.17353650316E+03  0.12700000000E+01 0.  1.
         25    2    1    2    0    0  0.00000000000E+00  0.00000000000E+00 -0.15104448042E+03  0.19605971248E+03  0.12499990318E+03 0.  0.
    9000005    1    3    3    0    0 -0.18604311001E+02  0.59415110388E+02 -0.67080352381E+02  0.91526222504E+02  0.10000000000E+01 0.  0.
    9000005    1    3    3    0    0  0.18604311001E+02 -0.59415110388E+02 -0.83964128038E+02  0.10453348998E+03  0.10000000000E+01 0.  0.
<mgrwt>
<rscale>  0 0.12499990E+03</rscale>
<asrwt>0</asrwt>
<pdfrwt beam="2">  1        4 0.26700322E-01 0.12499990E+03</pdfrwt>
<pdfrwt beam="1">  1       -4 0.34627103E-02 0.12499990E+03</pdfrwt>
<totfact> 0.90803701E+03</totfact>
</mgrwt>
</event>
<event>
 5    1  0.3206665E-002  0.1249998E+03  0.7818608E-02  0.1235070E+00
          4   -1    0    0  501    0  0.00000000000E+00  0.00000000000E+00  0.14600815689E+02  0.14655944827E+02  0.12700000000E+01 0.  1.
         -4   -1    0    0    0  501 -0.00000000000E+00 -0.00000000000E+00 -0.26697472138E+03  0.26697774207E+03  0.12700000000E+01 0.  1.
         25    2    1    2    0    0  0.00000000000E+00  0.00000000000E+00 -0.25237390570E+03  0.28163368689E+03  0.12499978127E+03 0.  0.
    9000005    1    3    3    0    0  0.51468423044E+02 -0.28060675903E+02 -0.17497191006E+03  0.18453338292E+03  0.10000000000E+01 0.  0.
    9000005    1    3    3    0    0 -0.51468423044E+02  0.28060675903E+02 -0.77401995640E+02  0.97100303974E+02  0.10000000000E+01 0.  0.
<mgrwt>
<rscale>  0 0.12499978E+03</rscale>
<asrwt>0</asrwt>
<pdfrwt beam="1">  1        4 0.22507526E-02 0.12499978E+03</pdfrwt>
<pdfrwt beam="2">  1       -4 0.41077503E-01 0.12499978E+03</pdfrwt>
<totfact> 0.77962369E+03</totfact>
</mgrwt>
</event>
<event>
 5    1  0.3206665E-002  0.1249995E+03  0.7818608E-02  0.1235070E+00
          4   -1    0    0  501    0  0.00000000000E+00  0.00000000000E+00  0.51414498927E+01  0.52959802680E+01  0.12700000000E+01 0. -1.
         -4   -1    0    0    0  501 -0.00000000000E+00 -0.00000000000E+00 -0.74834651407E+03  0.74834759171E+03  0.12700000000E+01 0. -1.
         25    2    1    2    0    0  0.00000000000E+00  0.00000000000E+00 -0.74320506418E+03  0.75364357198E+03  0.12499946467E+03 0.  0.
    9000005    1    3    3    0    0  0.33791977134E+02  0.29823576329E+01 -0.55175722813E+02  0.64777716566E+02  0.10000000000E+01 0.  0.
    9000005    1    3    3    0    0 -0.33791977134E+02 -0.29823576329E+01 -0.68802934136E+03  0.68886585541E+03  0.10000000000E+01 0.  0.
<mgrwt>
<rscale>  0 0.12499946E+03</rscale>
<asrwt>0</asrwt>
<pdfrwt beam="1">  1        4 0.80296273E-03 0.12499946E+03</pdfrwt>
<pdfrwt beam="2">  1       -4 0.11514212E+00 0.12499946E+03</pdfrwt>
<totfact> 0.40400966E+03</totfact>
</mgrwt>
</event>
<event>
 5    1  0.3206665E-002  0.1249999E+03  0.7818608E-02  0.1235069E+00
          4   -1    0    0  501    0  0.00000000000E+00  0.00000000000E+00  0.10592887617E+02  0.10668747258E+02  0.12700000000E+01 0. -1.
         -4   -1    0    0    0  501 -0.00000000000E+00 -0.00000000000E+00 -0.36736838278E+03  0.36737057798E+03  0.12700000000E+01 0. -1.
         25    2    1    2    0    0  0.00000000000E+00  0.00000000000E+00 -0.35677549517E+03  0.37803932524E+03  0.12499990991E+03 0.  0.
    9000005    1    3    3    0    0 -0.52551857656E+02 -0.20797858918E+02 -0.97745845349E+02  0.11291367925E+03  0.10000000000E+01 0.  0.
    9000005    1    3    3    0    0  0.52551857656E+02  0.20797858918E+02 -0.25902964982E+03  0.26512564599E+03  0.10000000000E+01 0.  0.
<mgrwt>
<rscale>  0 0.12499991E+03</rscale>
<asrwt>0</asrwt>
<pdfrwt beam="1">  1        4 0.16356795E-02 0.12499991E+03</pdfrwt>
<pdfrwt beam="2">  1       -4 0.56524207E-01 0.12499991E+03</pdfrwt>
<totfact> 0.66746314E+03</totfact>
</mgrwt>
</event>
<event>
 5    1  0.3206665E-002  0.1250142E+03  0.7818608E-02  0.1235047E+00
         -4   -1    0    0    0  501 -0.00000000000E+00  0.00000000000E+00  0.50662209983E+02  0.50678125660E+02  0.12700000000E+01 0. -1.
          4   -1    0    0  501    0  0.00000000000E+00 -0.00000000000E+00 -0.77088035917E+02  0.77098496623E+02  0.12700000000E+01 0. -1.
         25    2    1    2    0    0  0.00000000000E+00  0.00000000000E+00 -0.26425825933E+02  0.12777662228E+03  0.12501416290E+03 0.  0.
    9000005    1    3    3    0    0 -0.49093587920E+02  0.34935642713E+02 -0.30176515484E+02  0.67396599272E+02  0.10000000000E+01 0.  0.
    9000005    1    3    3    0    0  0.49093587920E+02 -0.34935642713E+02  0.37506895509E+01  0.60380023010E+02  0.10000000000E+01 0.  0.
<mgrwt>
<rscale>  0 0.12501416E+03</rscale>
<asrwt>0</asrwt>
<pdfrwt beam="2">  1        4 0.11861727E-01 0.12501416E+03</pdfrwt>
<pdfrwt beam="1">  1       -4 0.77962151E-02 0.12501416E+03</pdfrwt>
<totfact> 0.10388993E+04</totfact>
</mgrwt>
</event>
<event>
 5    1  0.3206665E-002  0.1250057E+03  0.7818608E-02  0.1235060E+00
          4   -1    0    0  501    0  0.00000000000E+00  0.00000000000E+00  0.11369197082E+02  0.11439910065E+02  0.12700000000E+01 0.  1.
         -4   -1    0    0    0  501 -0.00000000000E+00 -0.00000000000E+00 -0.34247602182E+03  0.34247837658E+03  0.12700000000E+01 0.  1.
         25    2    1    2    0    0  0.00000000000E+00  0.00000000000E+00 -0.33110682474E+03  0.35391828664E+03  0.12500569679E+03 0.  0.
    9000005    1    3    3    0    0 -0.51016582251E+02  0.15738849758E+02 -0.25752235777E+03  0.26300031902E+03  0.10000000000E+01 0.  0.
    9000005    1    3    3    0    0  0.51016582251E+02 -0.15738849758E+02 -0.73584466974E+02  0.90917967620E+02  0.10000000000E+01 0.  0.
<mgrwt>
<rscale>  0 0.12500570E+03</rscale>
<asrwt>0</asrwt>
<pdfrwt beam="1">  1        4 0.17547281E-02 0.12500570E+03</pdfrwt>
<pdfrwt beam="2">  1       -4 0.52694231E-01 0.12500570E+03</pdfrwt>
<totfact> 0.69286907E+03</totfact>
</mgrwt>
</event>
<event>
 5    1  0.3206665E-002  0.1249999E+03  0.7818608E-02  0.1235069E+00
          4   -1    0    0  501    0  0.00000000000E+00  0.00000000000E+00  0.32861935160E+01  0.35230622794E+01  0.12700000000E+01 0. -1.
         -4   -1    0    0    0  501 -0.00000000000E+00 -0.00000000000E+00 -0.11470969563E+04  0.11470976593E+04  0.12700000000E+01 0. -1.
         25    2    1    2    0    0  0.00000000000E+00  0.00000000000E+00 -0.11438107628E+04  0.11506207216E+04  0.12499993580E+03 0.  0.
    9000005    1    3    3    0    0  0.42649177840E+02 -0.58712979844E+01 -0.98886326221E+03  0.98980047275E+03  0.10000000000E+01 0.  0.
    9000005    1    3    3    0    0 -0.42649177840E+02  0.58712979844E+01 -0.15494750059E+03  0.16082024888E+03  0.10000000000E+01 0.  0.
<mgrwt>
<rscale>  0 0.12499994E+03</rscale>
<asrwt>0</asrwt>
<pdfrwt beam="1">  1        4 0.52384390E-03 0.12499994E+03</pdfrwt>
<pdfrwt beam="2">  1       -4 0.17649442E+00 0.12499994E+03</pdfrwt>
<totfact> 0.26043106E+03</totfact>
</mgrwt>
</event>
<event>
 5    1  0.3206665E-002  0.1250006E+03  0.7818608E-02  0.1235068E+00
         -4   -1    0    0    0  501 -0.00000000000E+00  0.00000000000E+00  0.49433744243E+02  0.49450055308E+02  0.12700000000E+01 0. -1.
          4   -1    0    0  501    0  0.00000000000E+00 -0.00000000000E+00 -0.78986197595E+02  0.78996406947E+02  0.12700000000E+01 0. -1.
         25    2    1    2    0    0  0.00000000000E+00  0.00000000000E+00 -0.29552453351E+02  0.12844646225E+03  0.12500058466E+03 0.  0.
    9000005    1    3    3    0    0 -0.50847489905E+02  0.18009256719E+01  0.22508680513E+02  0.55644867340E+02  0.10000000000E+01 0.  0.
    9000005    1    3    3    0    0  0.50847489905E+02 -0.18009256719E+01 -0.52061133864E+02  0.72801594914E+02  0.10000000000E+01 0.  0.
<mgrwt>
<rscale>  0 0.12500058E+03</rscale>
<asrwt>0</asrwt>
<pdfrwt beam="2">  1        4 0.12153763E-01 0.12500058E+03</pdfrwt>
<pdfrwt beam="1">  1       -4 0.76072315E-02 0.12500058E+03</pdfrwt>
<totfact> 0.10377720E+04</totfact>
</mgrwt>
</event>
<event>
 5    1  0.3206665E-002  0.1249972E+03  0.7818608E-02  0.1235074E+00
          4   -1    0    0  501    0  0.00000000000E+00  0.00000000000E+00  0.42662270666E+01  0.44512462731E+01  0.12700000000E+01 0. -1.
         -4   -1    0    0    0  501 -0.00000000000E+00 -0.00000000000E+00 -0.89596283469E+03  0.89596373478E+03  0.12700000000E+01 0. -1.
         25    2    1    2    0    0  0.00000000000E+00  0.00000000000E+00 -0.89169660762E+03  0.90041498106E+03  0.12499719222E+03 0.  0.
    9000005    1    3    3    0    0 -0.47278933724E+02  0.87956112238E+01 -0.15839290447E+03  0.16553541173E+03  0.10000000000E+01 0.  0.
    9000005    1    3    3    0    0  0.47278933724E+02 -0.87956112238E+01 -0.73330370315E+03  0.73487956932E+03  0.10000000000E+01 0.  0.
<mgrwt>
<rscale>  0 0.12499719E+03</rscale>
<asrwt>0</asrwt>
<pdfrwt beam="1">  1        4 0.67064482E-03 0.12499719E+03</pdfrwt>
<pdfrwt beam="2">  1       -4 0.13785459E+00 0.12499719E+03</pdfrwt>
<totfact> 0.34146159E+03</totfact>
</mgrwt>
</event>
<event>
 5    1  0.3206665E-002  0.1250038E+03  0.7818608E-02  0.1235063E+00
          4   -1    0    0  501    0  0.00000000000E+00  0.00000000000E+00  0.75798199707E+01  0.76854779154E+01  0.12700000000E+01 0.  1.
         -4   -1    0    0    0  501 -0.00000000000E+00 -0.00000000000E+00 -0.51170611162E+03  0.51170768762E+03  0.12700000000E+01 0.  1.
         25    2    1    2    0    0  0.00000000000E+00  0.00000000000E+00 -0.50412629165E+03  0.51939316554E+03  0.12500376983E+03 0.  0.
    9000005    1    3    3    0    0 -0.50771169261E+02  0.12225356798E+02 -0.10943548581E+03  0.12126127383E+03  0.10000000000E+01 0.  0.
    9000005    1    3    3    0    0  0.50771169261E+02 -0.12225356798E+02 -0.39469080584E+03  0.39813189170E+03  0.10000000000E+01 0.  0.
<mgrwt>
<rscale>  0 0.12500377E+03</rscale>
<asrwt>0</asrwt>
<pdfrwt beam="1">  1        4 0.11743753E-02 0.12500377E+03</pdfrwt>
<pdfrwt beam="2">  1       -4 0.78732239E-01 0.12500377E+03</pdfrwt>
<totfact> 0.54385983E+03</totfact>
</mgrwt>
</event>
<event>
 5    1  0.3206665E-002  0.1249937E+03  0.7818608E-02  0.1235079E+00
          4   -1    0    0  501    0  0.00000000000E+00  0.00000000000E+00  0.52885672485E+02  0.52900919219E+02  0.12700000000E+01 0.  1.
         -4   -1    0    0    0  501 -0.00000000000E+00 -0.00000000000E+00 -0.73823344630E+02  0.73834267873E+02  0.12700000000E+01 0.  1.
         25    2    1    2    0    0  0.00000000000E+00  0.00000000000E+00 -0.20937672144E+02  0.12673518709E+03  0.12499368597E+03 0.  0.
    9000005    1    3    3    0    0 -0.41948160280E+02  0.31186888428E+02  0.24251293986E+02  0.57631548832E+02  0.10000000000E+01 0.  0.
    9000005    1    3    3    0    0  0.41948160280E+02 -0.31186888428E+02 -0.45188966131E+02  0.69103638260E+02  0.10000000000E+01 0.  0.
<mgrwt>
<rscale>  0 0.12499369E+03</rscale>
<asrwt>0</asrwt>
<pdfrwt beam="1">  1        4 0.81382704E-02 0.12499369E+03</pdfrwt>
<pdfrwt beam="2">  1       -4 0.11359451E-01 0.12499369E+03</pdfrwt>
<totfact> 0.10416389E+04</totfact>
</mgrwt>
</event>
<event>
 5    1  0.3206665E-002  0.1249954E+03  0.7818608E-02  0.1235076E+00
         -4   -1    0    0    0  501 -0.00000000000E+00  0.00000000000E+00  0.41304636296E+03  0.41304831540E+03  0.12700000000E+01 0. -1.
          4   -1    0    0  501    0  0.00000000000E+00 -0.00000000000E+00 -0.94118522076E+01  0.94971502030E+01  0.12700000000E+01 0. -1.
         25    2    1    2    0    0  0.00000000000E+00  0.00000000000E+00  0.40363451075E+03  0.42254546560E+03  0.12499540884E+03 0.  0.
    9000005    1    3    3    0    0 -0.60269419771E+02 -0.15395760598E+02  0.18166698010E+03  0.19202427988E+03  0.10000000000E+01 0.  0.
    9000005    1    3    3    0    0  0.60269419771E+02  0.15395760598E+02  0.22196753065E+03  0.23052118572E+03  0.10000000000E+01 0.  0.
<mgrwt>
<rscale>  0 0.12499541E+03</rscale>
<asrwt>0</asrwt>
<pdfrwt beam="2">  1        4 0.14546890E-02 0.12499541E+03</pdfrwt>
<pdfrwt beam="1">  1       -4 0.63552299E-01 0.12499541E+03</pdfrwt>
<totfact> 0.62423883E+03</totfact>
</mgrwt>
</event>
<event>
 5    1  0.3206665E-002  0.1250038E+03  0.7818608E-02  0.1235063E+00
         -4   -1    0    0    0  501 -0.00000000000E+00  0.00000000000E+00  0.94465244437E+02  0.94473781053E+02  0.12700000000E+01 0.  1.
          4   -1    0    0  501    0  0.00000000000E+00 -0.00000000000E+00 -0.41333550070E+02  0.41353056252E+02  0.12700000000E+01 0.  1.
         25    2    1    2    0    0  0.00000000000E+00  0.00000000000E+00  0.53131694367E+02  0.13582683730E+03  0.12500381109E+03 0.  0.
    9000005    1    3    3    0    0 -0.13957698484E+02 -0.60466258763E+02  0.34587616168E+02  0.71051312359E+02  0.10000000000E+01 0.  0.
    9000005    1    3    3    0    0  0.13957698484E+02  0.60466258763E+02  0.18544078199E+02  0.64775524946E+02  0.10000000000E+01 0.  0.
<mgrwt>
<rscale>  0 0.12500381E+03</rscale>
<asrwt>0</asrwt>
<pdfrwt beam="2">  1        4 0.63611650E-02 0.12500381E+03</pdfrwt>
<pdfrwt beam="1">  1       -4 0.14535271E-01 0.12500381E+03</pdfrwt>
<totfact> 0.10219794E+04</totfact>
</mgrwt>
</event>
<event>
 5    1  0.3206665E-002  0.1250018E+03  0.7818608E-02  0.1235066E+00
         -4   -1    0    0    0  501 -0.00000000000E+00  0.00000000000E+00  0.16827009020E+03  0.16827488272E+03  0.12700000000E+01 0.  1.
          4   -1    0    0  501    0  0.00000000000E+00 -0.00000000000E+00 -0.23192343629E+02  0.23227089852E+02  0.12700000000E+01 0.  1.
         25    2    1    2    0    0  0.00000000000E+00  0.00000000000E+00  0.14507774657E+03  0.19150197258E+03  0.12500181179E+03 0.  0.
    9000005    1    3    3    0    0 -0.32212043260E+02 -0.44940355955E+02  0.27923603251E+02  0.61951424058E+02  0.10000000000E+01 0.  0.
    9000005    1    3    3    0    0  0.32212043260E+02  0.44940355955E+02  0.11715414332E+03  0.12955054852E+03  0.10000000000E+01 0.  0.
<mgrwt>
<rscale>  0 0.12500181E+03</rscale>
<asrwt>0</asrwt>
<pdfrwt beam="2">  1        4 0.35710941E-02 0.12500181E+03</pdfrwt>
<pdfrwt beam="1">  1       -4 0.25890749E-01 0.12500181E+03</pdfrwt>
<totfact> 0.91582913E+03</totfact>
</mgrwt>
</event>
<event>
 5    1  0.3206665E-002  0.1250013E+03  0.7818608E-02  0.1235067E+00
         -4   -1    0    0    0  501 -0.00000000000E+00  0.00000000000E+00  0.33759652741E+02  0.33783532278E+02  0.12700000000E+01 0.  1.
          4   -1    0    0  501    0  0.00000000000E+00 -0.00000000000E+00 -0.11564174372E+03  0.11564871720E+03  0.12700000000E+01 0.  1.
         25    2    1    2    0    0  0.00000000000E+00  0.00000000000E+00 -0.81882090975E+02  0.14943224948E+03  0.12500128144E+03 0.  0.
    9000005    1    3    3    0    0 -0.68289104570E+01  0.58090397267E+02 -0.67246334439E+02  0.89130229261E+02  0.10000000000E+01 0.  0.
    9000005    1    3    3    0    0  0.68289104570E+01 -0.58090397267E+02 -0.14635756537E+02  0.60302020216E+02  0.10000000000E+01 0.  0.
<mgrwt>
<rscale>  0 0.12500128E+03</rscale>
<asrwt>0</asrwt>
<pdfrwt beam="2">  1        4 0.17793411E-01 0.12500128E+03</pdfrwt>
<pdfrwt beam="1">  1       -4 0.51961661E-02 0.12500128E+03</pdfrwt>
<totfact> 0.99414123E+03</totfact>
</mgrwt>
</event>
<event>
 5    1  0.3206665E-002  0.1249988E+03  0.7818608E-02  0.1235071E+00
         -4   -1    0    0    0  501 -0.00000000000E+00  0.00000000000E+00  0.51012494971E+02  0.51028301394E+02  0.12700000000E+01 0. -1.
          4   -1    0    0  501    0  0.00000000000E+00 -0.00000000000E+00 -0.76539933124E+02  0.76550468729E+02  0.12700000000E+01 0. -1.
         25    2    1    2    0    0  0.00000000000E+00  0.00000000000E+00 -0.25527438153E+02  0.12757877012E+03  0.12499876994E+03 0.  0.
    9000005    1    3    3    0    0  0.15045977151E+02  0.55113092465E+02  0.13083653701E+02  0.58617543310E+02  0.10000000000E+01 0.  0.
    9000005    1    3    3    0    0 -0.15045977151E+02 -0.55113092465E+02 -0.38611091854E+02  0.68961226814E+02  0.10000000000E+01 0.  0.
<mgrwt>
<rscale>  0 0.12499877E+03</rscale>
<asrwt>0</asrwt>
<pdfrwt beam="2">  1        4 0.11777401E-01 0.12499877E+03</pdfrwt>
<pdfrwt beam="1">  1       -4 0.78501024E-02 0.12499877E+03</pdfrwt>
<totfact> 0.10396884E+04</totfact>
</mgrwt>
</event>
<event>
 5    1  0.3206665E-002  0.1250018E+03  0.7818608E-02  0.1235066E+00
          4   -1    0    0  501    0  0.00000000000E+00  0.00000000000E+00  0.40684097979E+03  0.40684296201E+03  0.12700000000E+01 0.  1.
         -4   -1    0    0    0  501 -0.00000000000E+00 -0.00000000000E+00 -0.95576823202E+01  0.96416902737E+01  0.12700000000E+01 0.  1.
         25    2    1    2    0    0  0.00000000000E+00  0.00000000000E+00  0.39728329747E+03  0.41648465228E+03  0.12500178854E+03 0.  0.
    9000005    1    3    3    0    0 -0.53932105578E+02  0.30084987584E+02  0.23052697804E+03  0.23865763364E+03  0.10000000000E+01 0.  0.
    9000005    1    3    3    0    0  0.53932105578E+02 -0.30084987584E+02  0.16675631943E+03  0.17782701865E+03  0.10000000000E+01 0.  0.
<mgrwt>
<rscale>  0 0.12500179E+03</rscale>
<asrwt>0</asrwt>
<pdfrwt beam="1">  1        4 0.62597527E-01 0.12500179E+03</pdfrwt>
<pdfrwt beam="2">  1       -4 0.14770275E-02 0.12500179E+03</pdfrwt>
<totfact> 0.62977997E+03</totfact>
</mgrwt>
</event>
<event>
 5    1  0.3206665E-002  0.1250016E+03  0.7818608E-02  0.1235067E+00
          4   -1    0    0  501    0  0.00000000000E+00  0.00000000000E+00  0.40863881470E+03  0.40864078820E+03  0.12700000000E+01 0. -1.
         -4   -1    0    0    0  501 -0.00000000000E+00 -0.00000000000E+00 -0.95152279734E+01  0.95996074600E+01  0.12700000000E+01 0. -1.
         25    2    1    2    0    0  0.00000000000E+00  0.00000000000E+00  0.39912358672E+03  0.41824039566E+03  0.12500156431E+03 0.  0.
    9000005    1    3    3    0    0 -0.37845558904E+02  0.31277354291E+02  0.32892191343E+03  0.33256756359E+03  0.10000000000E+01 0.  0.
    9000005    1    3    3    0    0  0.37845558904E+02 -0.31277354291E+02  0.70201673293E+02  0.85672832061E+02  0.10000000000E+01 0.  0.
<mgrwt>
<rscale>  0 0.12500156E+03</rscale>
<asrwt>0</asrwt>
<pdfrwt beam="1">  1        4 0.62874141E-01 0.12500156E+03</pdfrwt>
<pdfrwt beam="2">  1       -4 0.14705240E-02 0.12500156E+03</pdfrwt>
<totfact> 0.62814425E+03</totfact>
</mgrwt>
</event>
<event>
 5    1  0.3206665E-002  0.1250142E+03  0.7818608E-02  0.1235047E+00
         -4   -1    0    0    0  501 -0.00000000000E+00  0.00000000000E+00  0.13969174761E+03  0.13969752056E+03  0.12700000000E+01 0.  1.
          4   -1    0    0  501    0  0.00000000000E+00 -0.00000000000E+00 -0.27948936841E+02  0.27977776369E+02  0.12700000000E+01 0.  1.
         25    2    1    2    0    0  0.00000000000E+00  0.00000000000E+00  0.11174281077E+03  0.16767529693E+03  0.12501419696E+03 0.  0.
    9000005    1    3    3    0    0  0.20452173034E+02  0.34762335964E+02 -0.81643438485E+01  0.41162700275E+02  0.10000000000E+01 0.  0.
    9000005    1    3    3    0    0 -0.20452173034E+02 -0.34762335964E+02  0.11990715462E+03  0.12651259665E+03  0.10000000000E+01 0.  0.
<mgrwt>
<rscale>  0 0.12501420E+03</rscale>
<asrwt>0</asrwt>
<pdfrwt beam="2">  1        4 0.43024990E-02 0.12501420E+03</pdfrwt>
<pdfrwt beam="1">  1       -4 0.21493700E-01 0.12501420E+03</pdfrwt>
<totfact> 0.95852554E+03</totfact>
</mgrwt>
</event>
<event>
 5    1  0.3206665E-002  0.1249982E+03  0.7818608E-02  0.1235072E+00
         -4   -1    0    0    0  501 -0.00000000000E+00  0.00000000000E+00  0.26818138650E+02  0.26848192875E+02  0.12700000000E+01 0.  1.
          4   -1    0    0  501    0  0.00000000000E+00 -0.00000000000E+00 -0.14553838250E+03  0.14554392355E+03  0.12700000000E+01 0.  1.
         25    2    1    2    0    0  0.00000000000E+00  0.00000000000E+00 -0.11872024385E+03  0.17239211642E+03  0.12499818200E+03 0.  0.
    9000005    1    3    3    0    0 -0.75751998238E+01 -0.44669486040E+01 -0.14468747477E+03  0.14495793403E+03  0.10000000000E+01 0.  0.
    9000005    1    3    3    0    0  0.75751998238E+01  0.44669486040E+01  0.25967230917E+02  0.27434182395E+02  0.10000000000E+01 0.  0.
<mgrwt>
<rscale>  0 0.12499818E+03</rscale>
<asrwt>0</asrwt>
<pdfrwt beam="2">  1        4 0.22393258E-01 0.12499818E+03</pdfrwt>
<pdfrwt beam="1">  1       -4 0.41286057E-02 0.12499818E+03</pdfrwt>
<totfact> 0.95008526E+03</totfact>
</mgrwt>
</event>
<event>
 5    1  0.3206665E-002  0.1249993E+03  0.7818608E-02  0.1235070E+00
          4   -1    0    0  501    0  0.00000000000E+00  0.00000000000E+00  0.76275004951E+01  0.77325069546E+01  0.12700000000E+01 0. -1.
         -4   -1    0    0    0  501 -0.00000000000E+00 -0.00000000000E+00 -0.50851425528E+03  0.50851584118E+03  0.12700000000E+01 0. -1.
         25    2    1    2    0    0  0.00000000000E+00  0.00000000000E+00 -0.50088675479E+03  0.51624834813E+03  0.12499926330E+03 0.  0.
    9000005    1    3    3    0    0  0.14815237920E+02 -0.17270813332E+02 -0.49081682615E+03  0.49134502043E+03  0.10000000000E+01 0.  0.
    9000005    1    3    3    0    0 -0.14815237920E+02  0.17270813332E+02 -0.10069928636E+02  0.24903327700E+02  0.10000000000E+01 0.  0.
<mgrwt>
<rscale>  0 0.12499926E+03</rscale>
<asrwt>0</asrwt>
<pdfrwt beam="1">  1        4 0.11816614E-02 0.12499926E+03</pdfrwt>
<pdfrwt beam="2">  1       -4 0.78241136E-01 0.12499926E+03</pdfrwt>
<totfact> 0.54626267E+03</totfact>
</mgrwt>
</event>
<event>
 5    1  0.3206665E-002  0.1250004E+03  0.7818608E-02  0.1235069E+00
         -4   -1    0    0    0  501 -0.00000000000E+00  0.00000000000E+00  0.37871135819E+02  0.37892424417E+02  0.12700000000E+01 0. -1.
          4   -1    0    0  501    0  0.00000000000E+00 -0.00000000000E+00 -0.10309225920E+03  0.10310008151E+03  0.12700000000E+01 0. -1.
         25    2    1    2    0    0  0.00000000000E+00  0.00000000000E+00 -0.65221123379E+02  0.14099250592E+03  0.12500036717E+03 0.  0.
    9000005    1    3    3    0    0 -0.14612896461E+01  0.46039324080E+02  0.15024147245E+02  0.48461115645E+02  0.10000000000E+01 0.  0.
    9000005    1    3    3    0    0  0.14612896461E+01 -0.46039324080E+02 -0.80245270624E+02  0.92531390277E+02  0.10000000000E+01 0.  0.
<mgrwt>
<rscale>  0 0.12500037E+03</rscale>
<asrwt>0</asrwt>
<pdfrwt beam="2">  1        4 0.15862587E-01 0.12500037E+03</pdfrwt>
<pdfrwt beam="1">  1       -4 0.58285679E-02 0.12500037E+03</pdfrwt>
<totfact> 0.10112973E+04</totfact>
</mgrwt>
</event>
<event>
 5    1  0.3206665E-002  0.1249982E+03  0.7818608E-02  0.1235072E+00
         -4   -1    0    0    0  501 -0.00000000000E+00  0.00000000000E+00  0.17289713278E+02  0.17336293873E+02  0.12700000000E+01 0.  1.
          4   -1    0    0  501    0  0.00000000000E+00 -0.00000000000E+00 -0.22557048135E+03  0.22557405648E+03  0.12700000000E+01 0.  1.
         25    2    1    2    0    0  0.00000000000E+00  0.00000000000E+00 -0.20828076808E+03  0.24291035036E+03  0.12499823983E+03 0.  0.
    9000005    1    3    3    0    0  0.18174970982E+02  0.59717027448E+02 -0.10986805877E+03  0.12636630594E+03  0.10000000000E+01 0.  0.
    9000005    1    3    3    0    0 -0.18174970982E+02 -0.59717027448E+02 -0.98412709303E+02  0.11654404442E+03  0.10000000000E+01 0.  0.
<mgrwt>
<rscale>  0 0.12499824E+03</rscale>
<asrwt>0</asrwt>
<pdfrwt beam="2">  1        4 0.34707007E-01 0.12499824E+03</pdfrwt>
<pdfrwt beam="1">  1       -4 0.26638142E-02 0.12499824E+03</pdfrwt>
<totfact> 0.83369094E+03</totfact>
</mgrwt>
</event>
<event>
 5    1  0.3206665E-002  0.1249978E+03  0.7818608E-02  0.1235073E+00
          4   -1    0    0  501    0  0.00000000000E+00  0.00000000000E+00  0.81184664582E+02  0.81194597501E+02  0.12700000000E+01 0. -1.
         -4   -1    0    0    0  501 -0.00000000000E+00 -0.00000000000E+00 -0.48092664344E+02  0.48109430091E+02  0.12700000000E+01 0. -1.
         25    2    1    2    0    0  0.00000000000E+00  0.00000000000E+00  0.33092000239E+02  0.12930402759E+03  0.12499780427E+03 0.  0.
    9000005    1    3    3    0    0 -0.62198213014E+02 -0.58842095502E+01  0.15130977967E+02  0.64289875707E+02  0.10000000000E+01 0.  0.
    9000005    1    3    3    0    0  0.62198213014E+02  0.58842095502E+01  0.17961022272E+02  0.65014151884E+02  0.10000000000E+01 0.  0.
<mgrwt>
<rscale>  0 0.12499780E+03</rscale>
<asrwt>0</asrwt>
<pdfrwt beam="1">  1        4 0.12492002E-01 0.12499780E+03</pdfrwt>
<pdfrwt beam="2">  1       -4 0.74009252E-02 0.12499780E+03</pdfrwt>
<totfact> 0.10359932E+04</totfact>
</mgrwt>
</event>
<event>
 5    1  0.3206665E-002  0.1250023E+03  0.7818608E-02  0.1235066E+00
         -4   -1    0    0    0  501 -0.00000000000E+00  0.00000000000E+00  0.84998247922E+01  0.85941795128E+01  0.12700000000E+01 0. -1.
          4   -1    0    0  501    0  0.00000000000E+00 -0.00000000000E+00 -0.45695347829E+03  0.45695524312E+03  0.12700000000E+01 0. -1.
         25    2    1    2    0    0  0.00000000000E+00  0.00000000000E+00 -0.44845365350E+03  0.46554942264E+03  0.12500234232E+03 0.  0.
    9000005    1    3    3    0    0  0.40358945022E+02  0.69315323998E+01 -0.48412392738E+02  0.63416483309E+02  0.10000000000E+01 0.  0.
    9000005    1    3    3    0    0 -0.40358945022E+02 -0.69315323998E+01 -0.40004126076E+03  0.40213293933E+03  0.10000000000E+01 0.  0.
<mgrwt>
<rscale>  0 0.12500234E+03</rscale>
<asrwt>0</asrwt>
<pdfrwt beam="2">  1        4 0.70307910E-01 0.12500234E+03</pdfrwt>
<pdfrwt beam="1">  1       -4 0.13150595E-02 0.12500234E+03</pdfrwt>
<totfact> 0.58637011E+03</totfact>
</mgrwt>
</event>
<event>
 4    1  0.3206665E-002  0.1250679E+03  0.7818608E-02  0.1234963E+00
         -4   -1    0    0    0  501 -0.00000000000E+00  0.00000000000E+00  0.89460468265E+02  0.89469482407E+02  0.12700000000E+01 0.  1.
          4   -1    0    0  501    0  0.00000000000E+00 -0.00000000000E+00 -0.43691532946E+02  0.43709986858E+02  0.12700000000E+01 0.  1.
    9000005    1    1    2    0    0  0.47743299369E+02 -0.24701017445E+02 -0.11123202058E+02  0.54902536567E+02  0.10000000000E+01 0.  0.
    9000005    1    1    2    0    0 -0.47743299369E+02  0.24701017445E+02  0.56892137377E+02  0.78276932699E+02  0.10000000000E+01 0.  0.
<mgrwt>
<rscale>  0 0.12506788E+03</rscale>
<asrwt>0</asrwt>
<pdfrwt beam="2">  1        4 0.67238873E-02 0.12506788E+03</pdfrwt>
<pdfrwt beam="1">  1       -4 0.13765262E-01 0.12506788E+03</pdfrwt>
<totfact> 0.10260867E+04</totfact>
</mgrwt>
</event>
<event>
 5    1  0.3206665E-002  0.1250016E+03  0.7818608E-02  0.1235067E+00
          4   -1    0    0  501    0  0.00000000000E+00  0.00000000000E+00  0.69029754133E+03  0.69029870959E+03  0.12700000000E+01 0. -1.
         -4   -1    0    0    0  501 -0.00000000000E+00 -0.00000000000E+00 -0.55864953405E+01  0.57290339665E+01  0.12700000000E+01 0. -1.
         25    2    1    2    0    0  0.00000000000E+00  0.00000000000E+00  0.68471104599E+03  0.69602774356E+03  0.12500161321E+03 0.  0.
    9000005    1    3    3    0    0  0.97552716439E+01  0.20294213915E+02  0.66695194790E+03  0.66733269158E+03  0.10000000000E+01 0.  0.
    9000005    1    3    3    0    0 -0.97552716439E+01 -0.20294213915E+02  0.17759098093E+02  0.28695051983E+02  0.10000000000E+01 0.  0.
<mgrwt>
<rscale>  0 0.12500161E+03</rscale>
<asrwt>0</asrwt>
<pdfrwt beam="1">  1        4 0.10621059E+00 0.12500161E+03</pdfrwt>
<pdfrwt beam="2">  1       -4 0.87051591E-03 0.12500161E+03</pdfrwt>
<totfact> 0.43295710E+03</totfact>
</mgrwt>
</event>
<event>
 5    1  0.3206665E-002  0.1250001E+03  0.7818608E-02  0.1235069E+00
         -4   -1    0    0    0  501 -0.00000000000E+00  0.00000000000E+00  0.14679713995E+02  0.14734547939E+02  0.12700000000E+01 0. -1.
          4   -1    0    0  501    0  0.00000000000E+00 -0.00000000000E+00 -0.26554637211E+03  0.26554940904E+03  0.12700000000E+01 0. -1.
         25    2    1    2    0    0  0.00000000000E+00  0.00000000000E+00 -0.25086665812E+03  0.28028395698E+03  0.12500006554E+03 0.  0.
    9000005    1    3    3    0    0  0.49669530982E+02  0.55734787865E+01 -0.41321936972E+02  0.64858526416E+02  0.10000000000E+01 0.  0.
    9000005    1    3    3    0    0 -0.49669530982E+02 -0.55734787865E+01 -0.20954472114E+03  0.21542543056E+03  0.10000000000E+01 0.  0.
<mgrwt>
<rscale>  0 0.12500007E+03</rscale>
<asrwt>0</asrwt>
<pdfrwt beam="2">  1        4 0.40857736E-01 0.12500007E+03</pdfrwt>
<pdfrwt beam="1">  1       -4 0.22628693E-02 0.12500007E+03</pdfrwt>
<totfact> 0.78140357E+03</totfact>
</mgrwt>
</event>
<event>
 5    1  0.3206665E-002  0.1249967E+03  0.7818608E-02  0.1235075E+00
          4   -1    0    0  501    0  0.00000000000E+00  0.00000000000E+00  0.38504763960E+03  0.38504973401E+03  0.12700000000E+01 0. -1.
         -4   -1    0    0    0  501 -0.00000000000E+00 -0.00000000000E+00 -0.10102426095E+02  0.10181940532E+02  0.12700000000E+01 0. -1.
         25    2    1    2    0    0  0.00000000000E+00  0.00000000000E+00  0.37494521350E+03  0.39523167454E+03  0.12499665368E+03 0.  0.
    9000005    1    3    3    0    0 -0.34782568656E+02  0.50725775626E+02  0.22241301831E+03  0.23076282653E+03  0.10000000000E+01 0.  0.
    9000005    1    3    3    0    0  0.34782568656E+02 -0.50725775626E+02  0.15253219520E+03  0.16446884801E+03  0.10000000000E+01 0.  0.
<mgrwt>
<rscale>  0 0.12499665E+03</rscale>
<asrwt>0</asrwt>
<pdfrwt beam="1">  1        4 0.59244381E-01 0.12499665E+03</pdfrwt>
<pdfrwt beam="2">  1       -4 0.15604969E-02 0.12499665E+03</pdfrwt>
<totfact> 0.65024007E+03</totfact>
</mgrwt>
</event>
<event>
 5    1  0.3206665E-002  0.1249989E+03  0.7818608E-02  0.1235071E+00
          4   -1    0    0  501    0  0.00000000000E+00  0.00000000000E+00  0.99280398322E+01  0.10008939749E+02  0.12700000000E+01 0.  1.
         -4   -1    0    0    0  501 -0.00000000000E+00 -0.00000000000E+00 -0.39177089328E+03  0.39177295175E+03  0.12700000000E+01 0.  1.
         25    2    1    2    0    0  0.00000000000E+00  0.00000000000E+00 -0.38184285345E+03  0.40178189150E+03  0.12499889442E+03 0.  0.
    9000005    1    3    3    0    0 -0.61674907872E+02 -0.83081076891E+01 -0.20920671358E+03  0.21826879741E+03  0.10000000000E+01 0.  0.
    9000005    1    3    3    0    0  0.61674907872E+02  0.83081076891E+01 -0.17263613986E+03  0.18351309409E+03  0.10000000000E+01 0.  0.
<mgrwt>
<rscale>  0 0.12499889E+03</rscale>
<asrwt>0</asrwt>
<pdfrwt beam="1">  1        4 0.15337725E-02 0.12499889E+03</pdfrwt>
<pdfrwt beam="2">  1       -4 0.60278815E-01 0.12499889E+03</pdfrwt>
<totfact> 0.64381430E+03</totfact>
</mgrwt>
</event>
<event>
 5    1  0.3206665E-002  0.1250001E+03  0.7818608E-02  0.1235069E+00
         -4   -1    0    0    0  501 -0.00000000000E+00  0.00000000000E+00  0.57117659743E+02  0.57131777099E+02  0.12700000000E+01 0.  1.
          4   -1    0    0  501    0  0.00000000000E+00 -0.00000000000E+00 -0.68361149814E+02  0.68372945702E+02  0.12700000000E+01 0.  1.
         25    2    1    2    0    0  0.00000000000E+00  0.00000000000E+00 -0.11243490071E+02  0.12550472280E+03  0.12500007751E+03 0.  0.
    9000005    1    3    3    0    0  0.75719280351E+01  0.53741243739E+02  0.25483959305E+02  0.59965719829E+02  0.10000000000E+01 0.  0.
    9000005    1    3    3    0    0 -0.75719280351E+01 -0.53741243739E+02 -0.36727449376E+02  0.65539002972E+02  0.10000000000E+01 0.  0.
<mgrwt>
<rscale>  0 0.12500008E+03</rscale>
<asrwt>0</asrwt>
<pdfrwt beam="2">  1        4 0.10519093E-01 0.12500008E+03</pdfrwt>
<pdfrwt beam="1">  1       -4 0.87893256E-02 0.12500008E+03</pdfrwt>
<totfact> 0.10441832E+04</totfact>
</mgrwt>
</event>
<event>
 5    1  0.3206665E-002  0.1250008E+03  0.7818608E-02  0.1235068E+00
         -4   -1    0    0    0  501 -0.00000000000E+00  0.00000000000E+00  0.12270940277E+02  0.12336485532E+02  0.12700000000E+01 0. -1.
          4   -1    0    0  501    0  0.00000000000E+00 -0.00000000000E+00 -0.31742287928E+03  0.31742541988E+03  0.12700000000E+01 0. -1.
         25    2    1    2    0    0  0.00000000000E+00  0.00000000000E+00 -0.30515193900E+03  0.32976190541E+03  0.12500083355E+03 0.  0.
    9000005    1    3    3    0    0 -0.24658625093E+02 -0.48404696040E+02 -0.71083718006E+02  0.89470427269E+02  0.10000000000E+01 0.  0.
    9000005    1    3    3    0    0  0.24658625093E+02  0.48404696040E+02 -0.23406822099E+03  0.24029147815E+03  0.10000000000E+01 0.  0.
<mgrwt>
<rscale>  0 0.12500083E+03</rscale>
<asrwt>0</asrwt>
<pdfrwt beam="2">  1        4 0.48839520E-01 0.12500083E+03</pdfrwt>
<pdfrwt beam="1">  1       -4 0.18930746E-02 0.12500083E+03</pdfrwt>
<totfact> 0.72008597E+03</totfact>
</mgrwt>
</event>
<event>
 5    1  0.3206665E-002  0.1250031E+03  0.7818608E-02  0.1235064E+00
         -4   -1    0    0    0  501 -0.00000000000E+00  0.00000000000E+00  0.15665491378E+02  0.15716886464E+02  0.12700000000E+01 0. -1.
          4   -1    0    0  501    0  0.00000000000E+00 -0.00000000000E+00 -0.24890474225E+03  0.24890798222E+03  0.12700000000E+01 0. -1.
         25    2    1    2    0    0  0.00000000000E+00  0.00000000000E+00 -0.23323925087E+03  0.26462486869E+03  0.12500309188E+03 0.  0.
    9000005    1    3    3    0    0  0.11999021327E+02 -0.41869810471E+02 -0.21149062164E+03  0.21593133302E+03  0.10000000000E+01 0.  0.
    9000005    1    3    3    0    0 -0.11999021327E+02  0.41869810471E+02 -0.21748629236E+02  0.48693535663E+02  0.10000000000E+01 0.  0.
<mgrwt>
<rscale>  0 0.12500309E+03</rscale>
<asrwt>0</asrwt>
<pdfrwt beam="2">  1        4 0.38297237E-01 0.12500309E+03</pdfrwt>
<pdfrwt beam="1">  1       -4 0.24142785E-02 0.12500309E+03</pdfrwt>
<totfact> 0.80255855E+03</totfact>
</mgrwt>
</event>
<event>
 5    1  0.3206665E-002  0.1250001E+03  0.7818608E-02  0.1235069E+00
         -4   -1    0    0    0  501 -0.00000000000E+00  0.00000000000E+00  0.15203661426E+04  0.15203666730E+04  0.12700000000E+01 0.  1.
          4   -1    0    0  501    0  0.00000000000E+00 -0.00000000000E+00 -0.24117846693E+01  0.27257302308E+01  0.12700000000E+01 0.  1.
         25    2    1    2    0    0  0.00000000000E+00  0.00000000000E+00  0.15179543579E+04  0.15230924032E+04  0.12500014446E+03 0.  0.
    9000005    1    3    3    0    0 -0.10785013995E+02 -0.31444921885E+02  0.14037505805E+04  0.14041445053E+04  0.10000000000E+01 0.  0.
    9000005    1    3    3    0    0  0.10785013995E+02  0.31444921885E+02  0.11420377743E+03  0.11894789791E+03  0.10000000000E+01 0.  0.
<mgrwt>
<rscale>  0 0.12500014E+03</rscale>
<asrwt>0</asrwt>
<pdfrwt beam="2">  1        4 0.39523457E-03 0.12500014E+03</pdfrwt>
<pdfrwt beam="1">  1       -4 0.23392649E+00 0.12500014E+03</pdfrwt>
<totfact> 0.17480869E+03</totfact>
</mgrwt>
</event>
<event>
 5    1  0.3206665E-002  0.1249988E+03  0.7818608E-02  0.1235071E+00
          4   -1    0    0  501    0  0.00000000000E+00  0.00000000000E+00  0.80850771154E+02  0.80860745088E+02  0.12700000000E+01 0. -1.
         -4   -1    0    0    0  501 -0.00000000000E+00 -0.00000000000E+00 -0.48292063050E+02  0.48308759595E+02  0.12700000000E+01 0. -1.
         25    2    1    2    0    0  0.00000000000E+00  0.00000000000E+00  0.32558708104E+02  0.12916950468E+03  0.12499876586E+03 0.  0.
    9000005    1    3    3    0    0 -0.44026125642E+02  0.17131611178E+02 -0.25992538229E+02  0.53929619730E+02  0.10000000000E+01 0.  0.
    9000005    1    3    3    0    0  0.44026125642E+02 -0.17131611178E+02  0.58551246333E+02  0.75239884953E+02  0.10000000000E+01 0.  0.
<mgrwt>
<rscale>  0 0.12499877E+03</rscale>
<asrwt>0</asrwt>
<pdfrwt beam="1">  1        4 0.12440632E-01 0.12499877E+03</pdfrwt>
<pdfrwt beam="2">  1       -4 0.74315998E-02 0.12499877E+03</pdfrwt>
<totfact> 0.10362595E+04</totfact>
</mgrwt>
</event>
<event>
 5    1  0.3206665E-002  0.1250220E+03  0.7818608E-02  0.1235035E+00
         -4   -1    0    0    0  501 -0.00000000000E+00  0.00000000000E+00  0.21168819801E+03  0.21169200759E+03  0.12700000000E+01 0.  1.
          4   -1    0    0  501    0  0.00000000000E+00 -0.00000000000E+00 -0.18433517048E+02  0.18477214367E+02  0.12700000000E+01 0.  1.
         25    2    1    2    0    0  0.00000000000E+00  0.00000000000E+00  0.19325468097E+03  0.23016922196E+03  0.12502199415E+03 0.  0.
    9000005    1    3    3    0    0 -0.15638420718E+02 -0.51910231437E+02  0.15388876779E+03  0.16316245028E+03  0.10000000000E+01 0.  0.
    9000005    1    3    3    0    0  0.15638420718E+02  0.51910231437E+02  0.39365913180E+02  0.67006771680E+02  0.10000000000E+01 0.  0.
<mgrwt>
<rscale>  0 0.12502199E+03</rscale>
<asrwt>0</asrwt>
<pdfrwt beam="2">  1        4 0.28395799E-02 0.12502199E+03</pdfrwt>
<pdfrwt beam="1">  1       -4 0.32571071E-01 0.12502199E+03</pdfrwt>
<totfact> 0.85241780E+03</totfact>
</mgrwt>
</event>
<event>
 5    1  0.3206665E-002  0.1250025E+03  0.7818608E-02  0.1235065E+00
         -4   -1    0    0    0  501 -0.00000000000E+00  0.00000000000E+00  0.43450280393E+02  0.43468836725E+02  0.12700000000E+01 0.  1.
          4   -1    0    0  501    0  0.00000000000E+00 -0.00000000000E+00 -0.89862899574E+02  0.89871873352E+02  0.12700000000E+01 0.  1.
         25    2    1    2    0    0  0.00000000000E+00  0.00000000000E+00 -0.46412619181E+02  0.13334071008E+03  0.12500245495E+03 0.  0.
    9000005    1    3    3    0    0  0.14427928570E+00 -0.25634983133E+02  0.37588657138E+02  0.45509123505E+02  0.10000000000E+01 0.  0.
    9000005    1    3    3    0    0 -0.14427928570E+00  0.25634983133E+02 -0.84001276318E+02  0.87831586573E+02  0.10000000000E+01 0.  0.
<mgrwt>
<rscale>  0 0.12500245E+03</rscale>
<asrwt>0</asrwt>
<pdfrwt beam="2">  1        4 0.13827179E-01 0.12500245E+03</pdfrwt>
<pdfrwt beam="1">  1       -4 0.66867762E-02 0.12500245E+03</pdfrwt>
<totfact> 0.10272595E+04</totfact>
</mgrwt>
</event>
<event>
 5    1  0.3206665E-002  0.1249970E+03  0.7818608E-02  0.1235074E+00
         -4   -1    0    0    0  501 -0.00000000000E+00  0.00000000000E+00  0.58603281954E+01  0.59963611096E+01  0.12700000000E+01 0. -1.
          4   -1    0    0  501    0  0.00000000000E+00 -0.00000000000E+00 -0.65874196343E+03  0.65874318765E+03  0.12700000000E+01 0. -1.
         25    2    1    2    0    0  0.00000000000E+00  0.00000000000E+00 -0.65288163523E+03  0.66473954876E+03  0.12499695223E+03 0.  0.
    9000005    1    3    3    0    0 -0.51646973985E+02  0.31732880070E+02 -0.40721105134E+03  0.41169919350E+03  0.10000000000E+01 0.  0.
    9000005    1    3    3    0    0  0.51646973985E+02 -0.31732880070E+02 -0.24567058389E+03  0.25304035526E+03  0.10000000000E+01 0.  0.
<mgrwt>
<rscale>  0 0.12499695E+03</rscale>
<asrwt>0</asrwt>
<pdfrwt beam="2">  1        4 0.10135542E+00 0.12499695E+03</pdfrwt>
<pdfrwt beam="1">  1       -4 0.91214771E-03 0.12499695E+03</pdfrwt>
<totfact> 0.45017498E+03</totfact>
</mgrwt>
</event>
<event>
 5    1  0.3206665E-002  0.1249969E+03  0.7818608E-02  0.1235074E+00
          4   -1    0    0  501    0  0.00000000000E+00  0.00000000000E+00  0.37123638058E+03  0.37123855291E+03  0.12700000000E+01 0. -1.
         -4   -1    0    0    0  501 -0.00000000000E+00 -0.00000000000E+00 -0.10481208960E+02  0.10557871057E+02  0.12700000000E+01 0. -1.
         25    2    1    2    0    0  0.00000000000E+00  0.00000000000E+00  0.36075517162E+03  0.38179642397E+03  0.12499686197E+03 0.  0.
    9000005    1    3    3    0    0  0.55850222456E+02  0.19628314255E+02  0.11924772323E+03  0.13313728841E+03  0.10000000000E+01 0.  0.
    9000005    1    3    3    0    0 -0.55850222456E+02 -0.19628314255E+02  0.24150744839E+03  0.24865913556E+03  0.10000000000E+01 0.  0.
<mgrwt>
<rscale>  0 0.12499686E+03</rscale>
<asrwt>0</asrwt>
<pdfrwt beam="1">  1        4 0.57119357E-01 0.12499686E+03</pdfrwt>
<pdfrwt beam="2">  1       -4 0.16185578E-02 0.12499686E+03</pdfrwt>
<totfact> 0.66367202E+03</totfact>
</mgrwt>
</event>
<event>
 5    1  0.3206665E-002  0.1249969E+03  0.7818608E-02  0.1235074E+00
         -4   -1    0    0    0  501 -0.00000000000E+00  0.00000000000E+00  0.16397662151E+03  0.16398153951E+03  0.12700000000E+01 0.  1.
          4   -1    0    0  501    0  0.00000000000E+00 -0.00000000000E+00 -0.23798620374E+02  0.23832482702E+02  0.12700000000E+01 0.  1.
         25    2    1    2    0    0  0.00000000000E+00  0.00000000000E+00  0.14017800113E+03  0.18781402221E+03  0.12499693972E+03 0.  0.
    9000005    1    3    3    0    0 -0.32252501527E+02  0.89825118451E+01  0.14937105551E+03  0.15308044160E+03  0.10000000000E+01 0.  0.
    9000005    1    3    3    0    0  0.32252501527E+02 -0.89825118451E+01 -0.91930543801E+01  0.34733580619E+02  0.10000000000E+01 0.  0.
<mgrwt>
<rscale>  0 0.12499694E+03</rscale>
<asrwt>0</asrwt>
<pdfrwt beam="2">  1        4 0.36643092E-02 0.12499694E+03</pdfrwt>
<pdfrwt beam="1">  1       -4 0.25230156E-01 0.12499694E+03</pdfrwt>
<totfact> 0.92235387E+03</totfact>
</mgrwt>
</event>
<event>
 5    1  0.3206665E-002  0.1249986E+03  0.7818608E-02  0.1235072E+00
         -4   -1    0    0    0  501 -0.00000000000E+00  0.00000000000E+00  0.37145968810E+03  0.37146185912E+03  0.12700000000E+01 0. -1.
          4   -1    0    0  501    0  0.00000000000E+00 -0.00000000000E+00 -0.10475148476E+02  0.10551854605E+02  0.12700000000E+01 0. -1.
         25    2    1    2    0    0  0.00000000000E+00  0.00000000000E+00  0.36098453962E+03  0.38201371373E+03  0.12499855851E+03 0.  0.
    9000005    1    3    3    0    0  0.42260485158E+02 -0.18871688137E+02  0.30881654254E+03  0.31226710708E+03  0.10000000000E+01 0.  0.
    9000005    1    3    3    0    0 -0.42260485158E+02  0.18871688137E+02  0.52167997085E+02  0.69746606647E+02  0.10000000000E+01 0.  0.
<mgrwt>
<rscale>  0 0.12499856E+03</rscale>
<asrwt>0</asrwt>
<pdfrwt beam="2">  1        4 0.16176286E-02 0.12499856E+03</pdfrwt>
<pdfrwt beam="1">  1       -4 0.57153717E-01 0.12499856E+03</pdfrwt>
<totfact> 0.66342636E+03</totfact>
</mgrwt>
</event>
<event>
 4    1  0.3206665E-002  0.1247236E+03  0.7818608E-02  0.1235502E+00
          4   -1    0    0  501    0  0.00000000000E+00  0.00000000000E+00  0.11480308415E+03  0.11481010858E+03  0.12700000000E+01 0. -1.
         -4   -1    0    0    0  501 -0.00000000000E+00 -0.00000000000E+00 -0.33855392060E+02  0.33879204116E+02  0.12700000000E+01 0. -1.
    9000005    1    1    2    0    0  0.17550250073E+02 -0.25743255801E+02 -0.23916280811E+02  0.39290138517E+02  0.10000000000E+01 0.  0.
    9000005    1    1    2    0    0 -0.17550250073E+02  0.25743255801E+02  0.10486397291E+03  0.10939917418E+03  0.10000000000E+01 0.  0.
<mgrwt>
<rscale>  0 0.12472363E+03</rscale>
<asrwt>0</asrwt>
<pdfrwt beam="1">  1        4 0.17664385E-01 0.12472363E+03</pdfrwt>
<pdfrwt beam="2">  1       -4 0.52108938E-02 0.12472363E+03</pdfrwt>
<totfact> 0.10018753E+04</totfact>
</mgrwt>
</event>
<event>
 5    1  0.3206665E-002  0.1249981E+03  0.7818608E-02  0.1235072E+00
         -4   -1    0    0    0  501 -0.00000000000E+00  0.00000000000E+00  0.47908060070E+02  0.47924890398E+02  0.12700000000E+01 0.  1.
          4   -1    0    0  501    0  0.00000000000E+00 -0.00000000000E+00 -0.81497809737E+02  0.81507704494E+02  0.12700000000E+01 0.  1.
         25    2    1    2    0    0  0.00000000000E+00  0.00000000000E+00 -0.33589749667E+02  0.12943259489E+03  0.12499810134E+03 0.  0.
    9000005    1    3    3    0    0  0.51520083956E+02  0.25302015816E+02  0.87925072064E+01  0.58075978151E+02  0.10000000000E+01 0.  0.
    9000005    1    3    3    0    0 -0.51520083956E+02 -0.25302015816E+02 -0.42382256873E+02  0.71356616742E+02  0.10000000000E+01 0.  0.
<mgrwt>
<rscale>  0 0.12499810E+03</rscale>
<asrwt>0</asrwt>
<pdfrwt beam="2">  1        4 0.12540180E-01 0.12499810E+03</pdfrwt>
<pdfrwt beam="1">  1       -4 0.73725266E-02 0.12499810E+03</pdfrwt>
<totfact> 0.10357104E+04</totfact>
</mgrwt>
</event>
<event>
 5    1  0.3206665E-002  0.1249943E+03  0.7818608E-02  0.1235078E+00
          4   -1    0    0  501    0  0.00000000000E+00  0.00000000000E+00  0.44587483408E+02  0.44605566655E+02  0.12700000000E+01 0.  1.
         -4   -1    0    0    0  501 -0.00000000000E+00 -0.00000000000E+00 -0.87560296649E+02  0.87569506390E+02  0.12700000000E+01 0.  1.
         25    2    1    2    0    0  0.00000000000E+00  0.00000000000E+00 -0.42972813242E+02  0.13217507305E+03  0.12499434890E+03 0.  0.
    9000005    1    3    3    0    0  0.83874059269E+01 -0.29848969120E+02 -0.78858096095E+02  0.84740243424E+02  0.10000000000E+01 0.  0.
    9000005    1    3    3    0    0 -0.83874059269E+01  0.29848969120E+02  0.35885282854E+02  0.47434829621E+02  0.10000000000E+01 0.  0.
<mgrwt>
<rscale>  0 0.12499435E+03</rscale>
<asrwt>0</asrwt>
<pdfrwt beam="1">  1        4 0.68617123E-02 0.12499435E+03</pdfrwt>
<pdfrwt beam="2">  1       -4 0.13472914E-01 0.12499435E+03</pdfrwt>
<totfact> 0.10299276E+04</totfact>
</mgrwt>
</event>
<event>
 5    1  0.3206665E-002  0.1250018E+03  0.7818608E-02  0.1235066E+00
         -4   -1    0    0    0  501 -0.00000000000E+00  0.00000000000E+00  0.33106555989E+02  0.33130906257E+02  0.12700000000E+01 0. -1.
          4   -1    0    0  501    0  0.00000000000E+00 -0.00000000000E+00 -0.11792246639E+03  0.11792930501E+03  0.12700000000E+01 0. -1.
         25    2    1    2    0    0  0.00000000000E+00  0.00000000000E+00 -0.84815910405E+02  0.15106021127E+03  0.12500179507E+03 0.  0.
    9000005    1    3    3    0    0  0.33883731250E+02 -0.42574670082E+02 -0.52655641582E+01  0.54675734489E+02  0.10000000000E+01 0.  0.
    9000005    1    3    3    0    0 -0.33883731250E+02  0.42574670082E+02 -0.79550346247E+02  0.96384476779E+02  0.10000000000E+01 0.  0.
<mgrwt>
<rscale>  0 0.12500180E+03</rscale>
<asrwt>0</asrwt>
<pdfrwt beam="2">  1        4 0.18144317E-01 0.12500180E+03</pdfrwt>
<pdfrwt beam="1">  1       -4 0.50957155E-02 0.12500180E+03</pdfrwt>
<totfact> 0.99088777E+03</totfact>
</mgrwt>
</event>
<event>
 5    1  0.3206665E-002  0.1250017E+03  0.7818608E-02  0.1235067E+00
         -4   -1    0    0    0  501 -0.00000000000E+00  0.00000000000E+00  0.21799685805E+02  0.21836648122E+02  0.12700000000E+01 0.  1.
          4   -1    0    0  501    0  0.00000000000E+00 -0.00000000000E+00 -0.17900230399E+03  0.17900680919E+03  0.12700000000E+01 0.  1.
         25    2    1    2    0    0  0.00000000000E+00  0.00000000000E+00 -0.15720261819E+03  0.20084345731E+03  0.12500172470E+03 0.  0.
    9000005    1    3    3    0    0 -0.44472436913E+02  0.35341265033E+02 -0.12045504738E+03  0.13318115895E+03  0.10000000000E+01 0.  0.
    9000005    1    3    3    0    0  0.44472436913E+02 -0.35341265033E+02 -0.36747570808E+02  0.67662298360E+02  0.10000000000E+01 0.  0.
<mgrwt>
<rscale>  0 0.12500172E+03</rscale>
<asrwt>0</asrwt>
<pdfrwt beam="2">  1        4 0.27542005E-01 0.12500172E+03</pdfrwt>
<pdfrwt beam="1">  1       -4 0.33569877E-02 0.12500172E+03</pdfrwt>
<totfact> 0.89989973E+03</totfact>
</mgrwt>
</event>
<event>
 5    1  0.3206665E-002  0.1250024E+03  0.7818608E-02  0.1235066E+00
         -4   -1    0    0    0  501 -0.00000000000E+00  0.00000000000E+00  0.11289578446E+04  0.11289585589E+04  0.12700000000E+01 0. -1.
          4   -1    0    0  501    0  0.00000000000E+00 -0.00000000000E+00 -0.33429102450E+01  0.35760241758E+01  0.12700000000E+01 0. -1.
         25    2    1    2    0    0  0.00000000000E+00  0.00000000000E+00  0.11256149344E+04  0.11325345831E+04  0.12500240594E+03 0.  0.
    9000005    1    3    3    0    0 -0.48246211468E+02  0.37581810552E+02  0.67929620345E+03  0.68204429580E+03  0.10000000000E+01 0.  0.
    9000005    1    3    3    0    0  0.48246211468E+02 -0.37581810552E+02  0.44631873090E+03  0.45049028731E+03  0.10000000000E+01 0.  0.
<mgrwt>
<rscale>  0 0.12500241E+03</rscale>
<asrwt>0</asrwt>
<pdfrwt beam="2">  1        4 0.53228080E-03 0.12500241E+03</pdfrwt>
<pdfrwt beam="1">  1       -4 0.17370377E+00 0.12500241E+03</pdfrwt>
<totfact> 0.26548458E+03</totfact>
</mgrwt>
</event>
<event>
 5    1  0.3206665E-002  0.1250087E+03  0.7818608E-02  0.1235056E+00
         -4   -1    0    0    0  501 -0.00000000000E+00  0.00000000000E+00  0.35924517636E+02  0.35946959084E+02  0.12700000000E+01 0.  1.
          4   -1    0    0  501    0  0.00000000000E+00 -0.00000000000E+00 -0.10868988740E+03  0.10869730688E+03  0.12700000000E+01 0.  1.
         25    2    1    2    0    0  0.00000000000E+00  0.00000000000E+00 -0.72765369759E+02  0.14464426596E+03  0.12500865826E+03 0.  0.
    9000005    1    3    3    0    0  0.18473647886E+02  0.57141046151E+02 -0.56404289251E+02  0.82394287832E+02  0.10000000000E+01 0.  0.
    9000005    1    3    3    0    0 -0.18473647886E+02 -0.57141046151E+02 -0.16361080508E+02  0.62249978127E+02  0.10000000000E+01 0.  0.
<mgrwt>
<rscale>  0 0.12500866E+03</rscale>
<asrwt>0</asrwt>
<pdfrwt beam="2">  1        4 0.16723818E-01 0.12500866E+03</pdfrwt>
<pdfrwt beam="1">  1       -4 0.55291459E-02 0.12500866E+03</pdfrwt>
<totfact> 0.10036264E+04</totfact>
</mgrwt>
</event>
<event>
 5    1  0.3206665E-002  0.1250022E+03  0.7818608E-02  0.1235066E+00
          4   -1    0    0  501    0  0.00000000000E+00  0.00000000000E+00  0.11766271829E+02  0.11834612489E+02  0.12700000000E+01 0.  1.
         -4   -1    0    0    0  501 -0.00000000000E+00 -0.00000000000E+00 -0.33096800400E+03  0.33097044063E+03  0.12700000000E+01 0.  1.
         25    2    1    2    0    0  0.00000000000E+00  0.00000000000E+00 -0.31920173217E+03  0.34280505312E+03  0.12500223448E+03 0.  0.
    9000005    1    3    3    0    0 -0.40902557241E+02  0.43807125782E+02 -0.20814244872E+03  0.21660185230E+03  0.10000000000E+01 0.  0.
    9000005    1    3    3    0    0  0.40902557241E+02 -0.43807125782E+02 -0.11105928345E+03  0.12620320082E+03  0.10000000000E+01 0.  0.
<mgrwt>
<rscale>  0 0.12500223E+03</rscale>
<asrwt>0</asrwt>
<pdfrwt beam="1">  1        4 0.18156403E-02 0.12500223E+03</pdfrwt>
<pdfrwt beam="2">  1       -4 0.50923592E-01 0.12500223E+03</pdfrwt>
<totfact> 0.70519923E+03</totfact>
</mgrwt>
</event>
<event>
 5    1  0.3206665E-002  0.1249999E+03  0.7818608E-02  0.1235069E+00
          4   -1    0    0  501    0  0.00000000000E+00  0.00000000000E+00  0.50386783815E+03  0.50386943867E+03  0.12700000000E+01 0. -1.
         -4   -1    0    0    0  501 -0.00000000000E+00 -0.00000000000E+00 -0.76988852083E+01  0.78029310807E+01  0.12700000000E+01 0. -1.
         25    2    1    2    0    0  0.00000000000E+00  0.00000000000E+00  0.49616895294E+03  0.51167236975E+03  0.12499993640E+03 0.  0.
    9000005    1    3    3    0    0  0.33500576167E+02 -0.12862803401E+02  0.38660697214E+02  0.52757841350E+02  0.10000000000E+01 0.  0.
    9000005    1    3    3    0    0 -0.33500576167E+02  0.12862803401E+02  0.45750825573E+03  0.45891452840E+03  0.10000000000E+01 0.  0.
<mgrwt>
<rscale>  0 0.12499994E+03</rscale>
<asrwt>0</asrwt>
<pdfrwt beam="1">  1        4 0.77526267E-01 0.12499994E+03</pdfrwt>
<pdfrwt beam="2">  1       -4 0.11925703E-02 0.12499994E+03</pdfrwt>
<totfact> 0.54970043E+03</totfact>
</mgrwt>
</event>
<event>
 5    1  0.3206665E-002  0.1249960E+03  0.7818608E-02  0.1235076E+00
          4   -1    0    0  501    0  0.00000000000E+00  0.00000000000E+00  0.14754054229E+02  0.14808612905E+02  0.12700000000E+01 0.  1.
         -4   -1    0    0    0  501 -0.00000000000E+00 -0.00000000000E+00 -0.26419603507E+03  0.26419908752E+03  0.12700000000E+01 0.  1.
         25    2    1    2    0    0  0.00000000000E+00  0.00000000000E+00 -0.24944198084E+03  0.27900770043E+03  0.12499598030E+03 0.  0.
    9000005    1    3    3    0    0 -0.51486228730E+02 -0.34536447934E+02 -0.10723029347E+03  0.12386659688E+03  0.10000000000E+01 0.  0.
    9000005    1    3    3    0    0  0.51486228730E+02  0.34536447934E+02 -0.14221168737E+03  0.15514110355E+03  0.10000000000E+01 0.  0.
<mgrwt>
<rscale>  0 0.12499598E+03</rscale>
<asrwt>0</asrwt>
<pdfrwt beam="1">  1        4 0.22742863E-02 0.12499598E+03</pdfrwt>
<pdfrwt beam="2">  1       -4 0.40649972E-01 0.12499598E+03</pdfrwt>
<totfact> 0.78316860E+03</totfact>
</mgrwt>
</event>
<event>
 5    1  0.3206665E-002  0.1250463E+03  0.7818608E-02  0.1234997E+00
         -4   -1    0    0    0  501 -0.00000000000E+00  0.00000000000E+00  0.20254111210E+03  0.20254509373E+03  0.12700000000E+01 0. -1.
          4   -1    0    0  501    0  0.00000000000E+00 -0.00000000000E+00 -0.19275435848E+02  0.19317228764E+02  0.12700000000E+01 0. -1.
         25    2    1    2    0    0  0.00000000000E+00  0.00000000000E+00  0.18326567626E+03  0.22186232249E+03  0.12504631961E+03 0.  0.
    9000005    1    3    3    0    0  0.13839496746E+02  0.50508688025E+02  0.15220404442E+03  0.16096499735E+03  0.10000000000E+01 0.  0.
    9000005    1    3    3    0    0 -0.13839496746E+02 -0.50508688025E+02  0.31061631840E+02  0.60897325136E+02  0.10000000000E+01 0.  0.
<mgrwt>
<rscale>  0 0.12504632E+03</rscale>
<asrwt>0</asrwt>
<pdfrwt beam="2">  1        4 0.29689726E-02 0.12504632E+03</pdfrwt>
<pdfrwt beam="1">  1       -4 0.31163694E-01 0.12504632E+03</pdfrwt>
<totfact> 0.86485018E+03</totfact>
</mgrwt>
</event>
<event>
 5    1  0.3206665E-002  0.1250014E+03  0.7818608E-02  0.1235067E+00
         -4   -1    0    0    0  501 -0.00000000000E+00  0.00000000000E+00  0.15748561796E+03  0.15749073866E+03  0.12700000000E+01 0. -1.
          4   -1    0    0  501    0  0.00000000000E+00 -0.00000000000E+00 -0.24782606713E+02  0.24815126345E+02  0.12700000000E+01 0. -1.
         25    2    1    2    0    0  0.00000000000E+00  0.00000000000E+00  0.13270301125E+03  0.18230586501E+03  0.12500135688E+03 0.  0.
    9000005    1    3    3    0    0  0.87020894869E+01 -0.46233167348E+02  0.63586865227E+01  0.47483313056E+02  0.10000000000E+01 0.  0.
    9000005    1    3    3    0    0 -0.87020894869E+01  0.46233167348E+02  0.12634432473E+03  0.13482255195E+03  0.10000000000E+01 0.  0.
<mgrwt>
<rscale>  0 0.12500136E+03</rscale>
<asrwt>0</asrwt>
<pdfrwt beam="2">  1        4 0.38156040E-02 0.12500136E+03</pdfrwt>
<pdfrwt beam="1">  1       -4 0.24231453E-01 0.12500136E+03</pdfrwt>
<totfact> 0.93200743E+03</totfact>
</mgrwt>
</event>
<event>
 5    1  0.3206665E-002  0.1249721E+03  0.7818608E-02  0.1235113E+00
          4   -1    0    0  501    0  0.00000000000E+00  0.00000000000E+00  0.52230820481E+02  0.52246258316E+02  0.12700000000E+01 0.  1.
         -4   -1    0    0    0  501 -0.00000000000E+00 -0.00000000000E+00 -0.74722929456E+02  0.74733721214E+02  0.12700000000E+01 0.  1.
         25    2    1    2    0    0  0.00000000000E+00  0.00000000000E+00 -0.22492108975E+02  0.12697997953E+03  0.12497207782E+03 0.  0.
    9000005    1    3    3    0    0  0.59007440736E+01 -0.30237579442E+02 -0.66473515398E+02  0.73272493068E+02  0.10000000000E+01 0.  0.
    9000005    1    3    3    0    0 -0.59007440736E+01  0.30237579442E+02  0.43981406422E+02  0.53707486462E+02  0.10000000000E+01 0.  0.
<mgrwt>
<rscale>  0 0.12497208E+03</rscale>
<asrwt>0</asrwt>
<pdfrwt beam="1">  1        4 0.80375285E-02 0.12497208E+03</pdfrwt>
<pdfrwt beam="2">  1       -4 0.11497853E-01 0.12497208E+03</pdfrwt>
<totfact> 0.10416144E+04</totfact>
</mgrwt>
</event>
<event>
 5    1  0.3206665E-002  0.1250004E+03  0.7818608E-02  0.1235069E+00
          4   -1    0    0  501    0  0.00000000000E+00  0.00000000000E+00  0.32585896098E+02  0.32610635144E+02  0.12700000000E+01 0. -1.
         -4   -1    0    0    0  501 -0.00000000000E+00 -0.00000000000E+00 -0.11980258504E+03  0.11980931634E+03  0.12700000000E+01 0. -1.
         25    2    1    2    0    0  0.00000000000E+00  0.00000000000E+00 -0.87216688938E+02  0.15241995148E+03  0.12500036312E+03 0.  0.
    9000005    1    3    3    0    0  0.27439356304E+02  0.38109722389E+02 -0.93883734633E+02  0.10497821128E+03  0.10000000000E+01 0.  0.
    9000005    1    3    3    0    0 -0.27439356304E+02 -0.38109722389E+02  0.66670456958E+01  0.47441740201E+02  0.10000000000E+01 0.  0.
<mgrwt>
<rscale>  0 0.12500036E+03</rscale>
<asrwt>0</asrwt>
<pdfrwt beam="1">  1        4 0.50156356E-02 0.12500036E+03</pdfrwt>
<pdfrwt beam="2">  1       -4 0.18433587E-01 0.12500036E+03</pdfrwt>
<totfact> 0.98822679E+03</totfact>
</mgrwt>
</event>
<event>
 5    1  0.3206665E-002  0.1250353E+03  0.7818608E-02  0.1235014E+00
         -4   -1    0    0    0  501 -0.00000000000E+00  0.00000000000E+00  0.27795178226E+02  0.27824177124E+02  0.12700000000E+01 0. -1.
          4   -1    0    0  501    0  0.00000000000E+00 -0.00000000000E+00 -0.14051116707E+03  0.14051690635E+03  0.12700000000E+01 0. -1.
         25    2    1    2    0    0  0.00000000000E+00  0.00000000000E+00 -0.11271598884E+03  0.16834108348E+03  0.12503530000E+03 0.  0.
    9000005    1    3    3    0    0  0.46785043056E+01 -0.54055306492E+02 -0.98151044774E+02  0.11215387712E+03  0.10000000000E+01 0.  0.
    9000005    1    3    3    0    0 -0.46785043056E+01  0.54055306492E+02 -0.14564944067E+02  0.56187206357E+02  0.10000000000E+01 0.  0.
<mgrwt>
<rscale>  0 0.12503530E+03</rscale>
<asrwt>0</asrwt>
<pdfrwt beam="2">  1        4 0.21619774E-01 0.12503530E+03</pdfrwt>
<pdfrwt beam="1">  1       -4 0.42788535E-02 0.12503530E+03</pdfrwt>
<totfact> 0.95682490E+03</totfact>
</mgrwt>
</event>
<event>
 5    1  0.3206665E-002  0.1250004E+03  0.7818608E-02  0.1235069E+00
          4   -1    0    0  501    0  0.00000000000E+00  0.00000000000E+00  0.12457598238E+03  0.12458245577E+03  0.12700000000E+01 0. -1.
         -4   -1    0    0    0  501 -0.00000000000E+00 -0.00000000000E+00 -0.31336431216E+02  0.31362155879E+02  0.12700000000E+01 0. -1.
         25    2    1    2    0    0  0.00000000000E+00  0.00000000000E+00  0.93239551161E+02  0.15594461165E+03  0.12500043200E+03 0.  0.
    9000005    1    3    3    0    0 -0.11102405724E+02  0.19380283033E+02 -0.26193042943E+02  0.34437396561E+02  0.10000000000E+01 0.  0.
    9000005    1    3    3    0    0  0.11102405724E+02 -0.19380283033E+02  0.11943259410E+03  0.12150721509E+03  0.10000000000E+01 0.  0.
<mgrwt>
<rscale>  0 0.12500043E+03</rscale>
<asrwt>0</asrwt>
<pdfrwt beam="1">  1        4 0.19168012E-01 0.12500043E+03</pdfrwt>
<pdfrwt beam="2">  1       -4 0.48234663E-02 0.12500043E+03</pdfrwt>
<totfact> 0.98129425E+03</totfact>
</mgrwt>
</event>
<event>
 5    1  0.3206665E-002  0.1249991E+03  0.7818608E-02  0.1235071E+00
          4   -1    0    0  501    0  0.00000000000E+00  0.00000000000E+00  0.21934974661E+04  0.21934978337E+04  0.12700000000E+01 0.  1.
         -4   -1    0    0    0  501 -0.00000000000E+00 -0.00000000000E+00 -0.15539633235E+01  0.20069135534E+01  0.12700000000E+01 0.  1.
         25    2    1    2    0    0  0.00000000000E+00  0.00000000000E+00  0.21919435028E+04  0.21955047473E+04  0.12499910435E+03 0.  0.
    9000005    1    3    3    0    0  0.45443252866E+02  0.42382583170E+02  0.97970092018E+03  0.98167014092E+03  0.10000000000E+01 0.  0.
    9000005    1    3    3    0    0 -0.45443252866E+02 -0.42382583170E+02  0.12122425826E+04  0.12138346064E+04  0.10000000000E+01 0.  0.
<mgrwt>
<rscale>  0 0.12499910E+03</rscale>
<asrwt>0</asrwt>
<pdfrwt beam="1">  1        4 0.33749542E+00 0.12499910E+03</pdfrwt>
<pdfrwt beam="2">  1       -4 0.27394237E-03 0.12499910E+03</pdfrwt>
<totfact> 0.75206689E+02</totfact>
</mgrwt>
</event>
<event>
 5    1  0.3206665E-002  0.1249920E+03  0.7818608E-02  0.1235082E+00
          4   -1    0    0  501    0  0.00000000000E+00  0.00000000000E+00  0.65938315607E+02  0.65950544843E+02  0.12700000000E+01 0.  1.
         -4   -1    0    0    0  501 -0.00000000000E+00 -0.00000000000E+00 -0.59208827777E+02  0.59222446645E+02  0.12700000000E+01 0.  1.
         25    2    1    2    0    0  0.00000000000E+00  0.00000000000E+00  0.67294878301E+01  0.12517299149E+03  0.12499196691E+03 0.  0.
    9000005    1    3    3    0    0 -0.35991513906E+02  0.43120986260E+02  0.30789427154E+02  0.64060887863E+02  0.10000000000E+01 0.  0.
    9000005    1    3    3    0    0  0.35991513906E+02 -0.43120986260E+02 -0.24059939324E+02  0.61112103625E+02  0.10000000000E+01 0.  0.
<mgrwt>
<rscale>  0 0.12499197E+03</rscale>
<asrwt>0</asrwt>
<pdfrwt beam="1">  1        4 0.10146345E-01 0.12499197E+03</pdfrwt>
<pdfrwt beam="2">  1       -4 0.91110388E-02 0.12499197E+03</pdfrwt>
<totfact> 0.10451004E+04</totfact>
</mgrwt>
</event>
<event>
 5    1  0.3206665E-002  0.1249991E+03  0.7818608E-02  0.1235071E+00
         -4   -1    0    0    0  501 -0.00000000000E+00  0.00000000000E+00  0.23822679784E+02  0.23856507961E+02  0.12700000000E+01 0.  1.
          4   -1    0    0  501    0  0.00000000000E+00 -0.00000000000E+00 -0.16381690852E+03  0.16382183132E+03  0.12700000000E+01 0.  1.
         25    2    1    2    0    0  0.00000000000E+00  0.00000000000E+00 -0.13999422873E+03  0.18767833928E+03  0.12499909982E+03 0.  0.
    9000005    1    3    3    0    0  0.13076938342E+02  0.54559289161E+02 -0.28674253309E+02  0.63015356486E+02  0.10000000000E+01 0.  0.
    9000005    1    3    3    0    0 -0.13076938342E+02 -0.54559289161E+02 -0.11131997542E+03  0.12466298279E+03  0.10000000000E+01 0.  0.
<mgrwt>
<rscale>  0 0.12499910E+03</rscale>
<asrwt>0</asrwt>
<pdfrwt beam="2">  1        4 0.25205582E-01 0.12499910E+03</pdfrwt>
<pdfrwt beam="1">  1       -4 0.36680086E-02 0.12499910E+03</pdfrwt>
<totfact> 0.92254713E+03</totfact>
</mgrwt>
</event>
<event>
 5    1  0.3206665E-002  0.1249992E+03  0.7818608E-02  0.1235071E+00
         -4   -1    0    0    0  501 -0.00000000000E+00  0.00000000000E+00  0.17320263835E+03  0.17320729439E+03  0.12700000000E+01 0. -1.
          4   -1    0    0  501    0  0.00000000000E+00 -0.00000000000E+00 -0.22529936628E+02  0.22565702835E+02  0.12700000000E+01 0. -1.
         25    2    1    2    0    0  0.00000000000E+00  0.00000000000E+00  0.15067270172E+03  0.19577299723E+03  0.12499921360E+03 0.  0.
    9000005    1    3    3    0    0 -0.31477713753E+02 -0.19203747352E+02 -0.36838394997E+01  0.37070217816E+02  0.10000000000E+01 0.  0.
    9000005    1    3    3    0    0  0.31477713753E+02  0.19203747352E+02  0.15435654122E+03  0.15870277941E+03  0.10000000000E+01 0.  0.
<mgrwt>
<rscale>  0 0.12499921E+03</rscale>
<asrwt>0</asrwt>
<pdfrwt beam="2">  1        4 0.34692536E-02 0.12499921E+03</pdfrwt>
<pdfrwt beam="1">  1       -4 0.26649669E-01 0.12499921E+03</pdfrwt>
<totfact> 0.90854021E+03</totfact>
</mgrwt>
</event>
<event>
 5    1  0.3206665E-002  0.1249984E+03  0.7818608E-02  0.1235072E+00
          4   -1    0    0  501    0  0.00000000000E+00  0.00000000000E+00  0.54471332567E+02  0.54486135591E+02  0.12700000000E+01 0.  1.
         -4   -1    0    0    0  501 -0.00000000000E+00 -0.00000000000E+00 -0.71680043959E+02  0.71691293766E+02  0.12700000000E+01 0.  1.
         25    2    1    2    0    0  0.00000000000E+00  0.00000000000E+00 -0.17208711391E+02  0.12617742936E+03  0.12499841572E+03 0.  0.
    9000005    1    3    3    0    0  0.35463160194E+02  0.11493974282E+02  0.42022507952E+02  0.56183968802E+02  0.10000000000E+01 0.  0.
    9000005    1    3    3    0    0 -0.35463160194E+02 -0.11493974282E+02 -0.59231219343E+02  0.69993460556E+02  0.10000000000E+01 0.  0.
<mgrwt>
<rscale>  0 0.12499842E+03</rscale>
<asrwt>0</asrwt>
<pdfrwt beam="1">  1        4 0.83822090E-02 0.12499842E+03</pdfrwt>
<pdfrwt beam="2">  1       -4 0.11029703E-01 0.12499842E+03</pdfrwt>
<totfact> 0.10427445E+04</totfact>
</mgrwt>
</event>
<event>
 5    1  0.3206665E-002  0.1250007E+03  0.7818608E-02  0.1235068E+00
          4   -1    0    0  501    0  0.00000000000E+00  0.00000000000E+00  0.33925321913E+02  0.33949084920E+02  0.12700000000E+01 0.  1.
         -4   -1    0    0    0  501 -0.00000000000E+00 -0.00000000000E+00 -0.11507635051E+03  0.11508335825E+03  0.12700000000E+01 0.  1.
         25    2    1    2    0    0  0.00000000000E+00  0.00000000000E+00 -0.81151028593E+02  0.14903244317E+03  0.12500071870E+03 0.  0.
    9000005    1    3    3    0    0  0.33944738827E+02  0.51287886787E+02 -0.27374186693E+02  0.67327845073E+02  0.10000000000E+01 0.  0.
    9000005    1    3    3    0    0 -0.33944738827E+02 -0.51287886787E+02 -0.53776841900E+02  0.81704598095E+02  0.10000000000E+01 0.  0.
<mgrwt>
<rscale>  0 0.12500072E+03</rscale>
<asrwt>0</asrwt>
<pdfrwt beam="1">  1        4 0.52216473E-02 0.12500072E+03</pdfrwt>
<pdfrwt beam="2">  1       -4 0.17706421E-01 0.12500072E+03</pdfrwt>
<totfact> 0.99495307E+03</totfact>
</mgrwt>
</event>
<event>
 5    1  0.3206665E-002  0.1249492E+03  0.7818608E-02  0.1235149E+00
          4   -1    0    0  501    0  0.00000000000E+00  0.00000000000E+00  0.59183492716E+03  0.59183628979E+03  0.12700000000E+01 0.  1.
         -4   -1    0    0    0  501 -0.00000000000E+00 -0.00000000000E+00 -0.65323431200E+01  0.66546530065E+01  0.12700000000E+01 0.  1.
         25    2    1    2    0    0  0.00000000000E+00  0.00000000000E+00  0.58530258404E+03  0.59849094279E+03  0.12494916454E+03 0.  0.
    9000005    1    3    3    0    0  0.34188890921E+02 -0.52279911058E+02  0.29234582072E+03  0.29894673147E+03  0.10000000000E+01 0.  0.
    9000005    1    3    3    0    0 -0.34188890921E+02  0.52279911058E+02  0.29295676332E+03  0.29954421132E+03  0.10000000000E+01 0.  0.
<mgrwt>
<rscale>  0 0.12494916E+03</rscale>
<asrwt>0</asrwt>
<pdfrwt beam="1">  1        4 0.91061060E-01 0.12494916E+03</pdfrwt>
<pdfrwt beam="2">  1       -4 0.10144889E-02 0.12494916E+03</pdfrwt>
<totfact> 0.49017617E+03</totfact>
</mgrwt>
</event>
<event>
 5    1  0.3206665E-002  0.1249999E+03  0.7818608E-02  0.1235069E+00
          4   -1    0    0  501    0  0.00000000000E+00  0.00000000000E+00  0.32888047491E+03  0.32888292701E+03  0.12700000000E+01 0.  1.
         -4   -1    0    0    0  501 -0.00000000000E+00 -0.00000000000E+00 -0.11840946727E+02  0.11908858861E+02  0.12700000000E+01 0.  1.
         25    2    1    2    0    0  0.00000000000E+00  0.00000000000E+00  0.31703952819E+03  0.34079178587E+03  0.12499991554E+03 0.  0.
    9000005    1    3    3    0    0  0.14734644964E+02 -0.60726984989E+02  0.15686531781E+03  0.16885675704E+03  0.10000000000E+01 0.  0.
    9000005    1    3    3    0    0 -0.14734644964E+02  0.60726984989E+02  0.16017421038E+03  0.17193502883E+03  0.10000000000E+01 0.  0.
<mgrwt>
<rscale>  0 0.12499992E+03</rscale>
<asrwt>0</asrwt>
<pdfrwt beam="1">  1        4 0.50602404E-01 0.12499992E+03</pdfrwt>
<pdfrwt beam="2">  1       -4 0.18270969E-02 0.12499992E+03</pdfrwt>
<totfact> 0.70749728E+03</totfact>
</mgrwt>
</event>
<event>
 5    1  0.3206665E-002  0.1249943E+03  0.7818608E-02  0.1235078E+00
         -4   -1    0    0    0  501 -0.00000000000E+00  0.00000000000E+00  0.23493643181E+02  0.23527944447E+02  0.12700000000E+01 0. -1.
          4   -1    0    0  501    0  0.00000000000E+00 -0.00000000000E+00 -0.16609515292E+03  0.16610000820E+03  0.12700000000E+01 0. -1.
         25    2    1    2    0    0  0.00000000000E+00  0.00000000000E+00 -0.14260150974E+03  0.18962795265E+03  0.12499427925E+03 0.  0.
    9000005    1    3    3    0    0 -0.14710920247E+02 -0.26609803050E+02  0.11521961990E+02  0.32530730102E+02  0.10000000000E+01 0.  0.
    9000005    1    3    3    0    0  0.14710920247E+02  0.26609803050E+02 -0.15412347173E+03  0.15709722255E+03  0.10000000000E+01 0.  0.
<mgrwt>
<rscale>  0 0.12499428E+03</rscale>
<asrwt>0</asrwt>
<pdfrwt beam="2">  1        4 0.25556112E-01 0.12499428E+03</pdfrwt>
<pdfrwt beam="1">  1       -4 0.36174188E-02 0.12499428E+03</pdfrwt>
<totfact> 0.91923869E+03</totfact>
</mgrwt>
</event>
<event>
 5    1  0.3206665E-002  0.1249982E+03  0.7818608E-02  0.1235072E+00
         -4   -1    0    0    0  501 -0.00000000000E+00  0.00000000000E+00  0.65893340697E+01  0.67106052992E+01  0.12700000000E+01 0. -1.
          4   -1    0    0  501    0  0.00000000000E+00 -0.00000000000E+00 -0.58727010898E+03  0.58727148219E+03  0.12700000000E+01 0. -1.
         25    2    1    2    0    0  0.00000000000E+00  0.00000000000E+00 -0.58068077491E+03  0.59398208749E+03  0.12499823165E+03 0.  0.
    9000005    1    3    3    0    0  0.48828412772E+02 -0.23239939687E+02 -0.14151859733E+03  0.15150188805E+03  0.10000000000E+01 0.  0.
    9000005    1    3    3    0    0 -0.48828412772E+02  0.23239939687E+02 -0.43916217757E+03  0.44248019945E+03  0.10000000000E+01 0.  0.
<mgrwt>
<rscale>  0 0.12499823E+03</rscale>
<asrwt>0</asrwt>
<pdfrwt beam="2">  1        4 0.90358640E-01 0.12499823E+03</pdfrwt>
<pdfrwt beam="1">  1       -4 0.10231784E-02 0.12499823E+03</pdfrwt>
<totfact> 0.49251622E+03</totfact>
</mgrwt>
</event>
<event>
 5    1  0.3206665E-002  0.1249981E+03  0.7818608E-02  0.1235072E+00
          4   -1    0    0  501    0  0.00000000000E+00  0.00000000000E+00  0.11722425677E+02  0.11791020471E+02  0.12700000000E+01 0. -1.
         -4   -1    0    0    0  501 -0.00000000000E+00 -0.00000000000E+00 -0.33217676630E+03  0.33217919406E+03  0.12700000000E+01 0. -1.
         25    2    1    2    0    0  0.00000000000E+00  0.00000000000E+00 -0.32045434062E+03  0.34397021453E+03  0.12499809624E+03 0.  0.
    9000005    1    3    3    0    0  0.79328612793E+01  0.16176636106E+01 -0.33074096488E+03  0.33084155267E+03  0.10000000000E+01 0.  0.
    9000005    1    3    3    0    0 -0.79328612793E+01 -0.16176636106E+01  0.10286624260E+02  0.13128661862E+02  0.10000000000E+01 0.  0.
<mgrwt>
<rscale>  0 0.12499810E+03</rscale>
<asrwt>0</asrwt>
<pdfrwt beam="1">  1        4 0.18089136E-02 0.12499810E+03</pdfrwt>
<pdfrwt beam="2">  1       -4 0.51109574E-01 0.12499810E+03</pdfrwt>
<totfact> 0.70396009E+03</totfact>
</mgrwt>
</event>
<event>
 5    1  0.3206665E-002  0.1250002E+03  0.7818608E-02  0.1235069E+00
          4   -1    0    0  501    0  0.00000000000E+00  0.00000000000E+00  0.81921437465E+01  0.82900011559E+01  0.12700000000E+01 0. -1.
         -4   -1    0    0    0  501 -0.00000000000E+00 -0.00000000000E+00 -0.47390080655E+03  0.47390250827E+03  0.12700000000E+01 0. -1.
         25    2    1    2    0    0  0.00000000000E+00  0.00000000000E+00 -0.46570866280E+03  0.48219250943E+03  0.12500023016E+03 0.  0.
    9000005    1    3    3    0    0 -0.58269428135E+02 -0.22580515120E+02 -0.23378707981E+03  0.24199711693E+03  0.10000000000E+01 0.  0.
    9000005    1    3    3    0    0  0.58269428135E+02  0.22580515120E+02 -0.23192158299E+03  0.24019539250E+03  0.10000000000E+01 0.  0.
<mgrwt>
<rscale>  0 0.12500023E+03</rscale>
<asrwt>0</asrwt>
<pdfrwt beam="1">  1        4 0.12679886E-02 0.12500023E+03</pdfrwt>
<pdfrwt beam="2">  1       -4 0.72915454E-01 0.12500023E+03</pdfrwt>
<totfact> 0.57272692E+03</totfact>
</mgrwt>
</event>
<event>
 5    1  0.3206665E-002  0.1250010E+03  0.7818608E-02  0.1235068E+00
         -4   -1    0    0    0  501 -0.00000000000E+00  0.00000000000E+00  0.53446857373E+02  0.53461944063E+02  0.12700000000E+01 0.  1.
          4   -1    0    0  501    0  0.00000000000E+00 -0.00000000000E+00 -0.73056837721E+02  0.73067875553E+02  0.12700000000E+01 0.  1.
         25    2    1    2    0    0  0.00000000000E+00  0.00000000000E+00 -0.19609980348E+02  0.12652981962E+03  0.12500097569E+03 0.  0.
    9000005    1    3    3    0    0 -0.34766979910E+02  0.36711149737E+02 -0.46981006943E+02  0.69026563152E+02  0.10000000000E+01 0.  0.
    9000005    1    3    3    0    0  0.34766979910E+02 -0.36711149737E+02  0.27371026595E+02  0.57503256464E+02  0.10000000000E+01 0.  0.
<mgrwt>
<rscale>  0 0.12500098E+03</rscale>
<asrwt>0</asrwt>
<pdfrwt beam="2">  1        4 0.11241523E-01 0.12500098E+03</pdfrwt>
<pdfrwt beam="1">  1       -4 0.82246030E-02 0.12500098E+03</pdfrwt>
<totfact> 0.10419148E+04</totfact>
</mgrwt>
</event>
<event>
 5    1  0.3206665E-002  0.1250517E+03  0.7818608E-02  0.1234988E+00
         -4   -1    0    0    0  501 -0.00000000000E+00  0.00000000000E+00  0.19938400228E+02  0.19978806362E+02  0.12700000000E+01 0. -1.
          4   -1    0    0  501    0  0.00000000000E+00 -0.00000000000E+00 -0.19583720548E+03  0.19584132340E+03  0.12700000000E+01 0. -1.
         25    2    1    2    0    0  0.00000000000E+00  0.00000000000E+00 -0.17589880525E+03  0.21582012976E+03  0.12505174417E+03 0.  0.
    9000005    1    3    3    0    0 -0.51280253162E+01  0.57790020323E+02 -0.12814724127E+03  0.14067230906E+03  0.10000000000E+01 0.  0.
    9000005    1    3    3    0    0  0.51280253162E+01 -0.57790020323E+02 -0.47751563983E+02  0.75147820696E+02  0.10000000000E+01 0.  0.
<mgrwt>
<rscale>  0 0.12505174E+03</rscale>
<asrwt>0</asrwt>
<pdfrwt beam="2">  1        4 0.30132224E-01 0.12505174E+03</pdfrwt>
<pdfrwt beam="1">  1       -4 0.30708713E-02 0.12505174E+03</pdfrwt>
<totfact> 0.87432980E+03</totfact>
</mgrwt>
</event>
<event>
 5    1  0.3206665E-002  0.1250000E+03  0.7818608E-02  0.1235069E+00
          4   -1    0    0  501    0  0.00000000000E+00  0.00000000000E+00  0.31359504202E+02  0.31385209953E+02  0.12700000000E+01 0.  1.
         -4   -1    0    0    0  501 -0.00000000000E+00 -0.00000000000E+00 -0.12448347607E+03  0.12448995427E+03  0.12700000000E+01 0.  1.
         25    2    1    2    0    0  0.00000000000E+00  0.00000000000E+00 -0.93123971867E+02  0.15587516422E+03  0.12499997074E+03 0.  0.
    9000005    1    3    3    0    0 -0.58868400558E+02  0.84200581907E+01 -0.70511631629E+02  0.92245737892E+02  0.10000000000E+01 0.  0.
    9000005    1    3    3    0    0  0.58868400558E+02 -0.84200581907E+01 -0.22612340238E+02  0.63629426332E+02  0.10000000000E+01 0.  0.
<mgrwt>
<rscale>  0 0.12499997E+03</rscale>
<asrwt>0</asrwt>
<pdfrwt beam="1">  1        4 0.48270149E-02 0.12499997E+03</pdfrwt>
<pdfrwt beam="2">  1       -4 0.19153779E-01 0.12499997E+03</pdfrwt>
<totfact> 0.98144031E+03</totfact>
</mgrwt>
</event>
<event>
 5    1  0.3206665E-002  0.1250004E+03  0.7818608E-02  0.1235069E+00
          4   -1    0    0  501    0  0.00000000000E+00  0.00000000000E+00  0.35757000439E+02  0.35779546956E+02  0.12700000000E+01 0. -1.
         -4   -1    0    0    0  501 -0.00000000000E+00 -0.00000000000E+00 -0.10918431211E+03  0.10919169800E+03  0.12700000000E+01 0. -1.
         25    2    1    2    0    0  0.00000000000E+00  0.00000000000E+00 -0.73427311676E+02  0.14497124495E+03  0.12500036705E+03 0.  0.
    9000005    1    3    3    0    0  0.44775067299E+02 -0.21297907271E+02 -0.80828490009E+02  0.94829596134E+02  0.10000000000E+01 0.  0.
    9000005    1    3    3    0    0 -0.44775067299E+02  0.21297907271E+02  0.74011783330E+01  0.50141648821E+02  0.10000000000E+01 0.  0.
<mgrwt>
<rscale>  0 0.12500037E+03</rscale>
<asrwt>0</asrwt>
<pdfrwt beam="1">  1        4 0.55033796E-02 0.12500037E+03</pdfrwt>
<pdfrwt beam="2">  1       -4 0.16799889E-01 0.12500037E+03</pdfrwt>
<totfact> 0.10031490E+04</totfact>
</mgrwt>
</event>
<event>
 5    1  0.3206665E-002  0.1250079E+03  0.7818608E-02  0.1235057E+00
         -4   -1    0    0    0  501 -0.00000000000E+00  0.00000000000E+00  0.37399001962E+01  0.39496523236E+01  0.12700000000E+01 0.  1.
          4   -1    0    0  501    0  0.00000000000E+00 -0.00000000000E+00 -0.10159070175E+04  0.10159078114E+04  0.12700000000E+01 0.  1.
         25    2    1    2    0    0  0.00000000000E+00  0.00000000000E+00 -0.10121671173E+04  0.10198574637E+04  0.12500789097E+03 0.  0.
    9000005    1    3    3    0    0 -0.62213666241E+02  0.44703559019E+01 -0.47425675707E+03  0.47834192370E+03  0.10000000000E+01 0.  0.
    9000005    1    3    3    0    0  0.62213666241E+02 -0.44703559019E+01 -0.53791036027E+03  0.54151553998E+03  0.10000000000E+01 0.  0.
<mgrwt>
<rscale>  0 0.12500789E+03</rscale>
<asrwt>0</asrwt>
<pdfrwt beam="2">  1        4 0.15630937E+00 0.12500789E+03</pdfrwt>
<pdfrwt beam="1">  1       -4 0.59156591E-03 0.12500789E+03</pdfrwt>
<totfact> 0.29949786E+03</totfact>
</mgrwt>
</event>
<event>
 5    1  0.3206665E-002  0.1249745E+03  0.7818608E-02  0.1235109E+00
          4   -1    0    0  501    0  0.00000000000E+00  0.00000000000E+00  0.93711135277E+02  0.93719740582E+02  0.12700000000E+01 0.  1.
         -4   -1    0    0    0  501 -0.00000000000E+00 -0.00000000000E+00 -0.41646738109E+02  0.41666097670E+02  0.12700000000E+01 0.  1.
         25    2    1    2    0    0  0.00000000000E+00  0.00000000000E+00  0.52064397168E+02  0.13538583825E+03  0.12497449239E+03 0.  0.
    9000005    1    3    3    0    0 -0.56645936942E+02 -0.21273626215E+02  0.91685169550E+01  0.61207769502E+02  0.10000000000E+01 0.  0.
    9000005    1    3    3    0    0  0.56645936942E+02  0.21273626215E+02  0.42895880213E+02  0.74178068751E+02  0.10000000000E+01 0.  0.
<mgrwt>
<rscale>  0 0.12497449E+03</rscale>
<asrwt>0</asrwt>
<pdfrwt beam="1">  1        4 0.14419249E-01 0.12497449E+03</pdfrwt>
<pdfrwt beam="2">  1       -4 0.64093417E-02 0.12497449E+03</pdfrwt>
<totfact> 0.10235832E+04</totfact>
</mgrwt>
</event>
<event>
 5    1  0.3206665E-002  0.1249734E+03  0.7818608E-02  0.1235111E+00
          4   -1    0    0  501    0  0.00000000000E+00  0.00000000000E+00  0.95156829139E+02  0.95165303719E+02  0.12700000000E+01 0.  1.
         -4   -1    0    0    0  501 -0.00000000000E+00 -0.00000000000E+00 -0.41013038727E+02  0.41032697275E+02  0.12700000000E+01 0.  1.
         25    2    1    2    0    0  0.00000000000E+00  0.00000000000E+00  0.54143790412E+02  0.13619800099E+03  0.12497337890E+03 0.  0.
    9000005    1    3    3    0    0 -0.59274122269E+01  0.59194017295E+02  0.47879120800E+02  0.76370649518E+02  0.10000000000E+01 0.  0.
    9000005    1    3    3    0    0  0.59274122269E+01 -0.59194017295E+02  0.62646696118E+01  0.59827351475E+02  0.10000000000E+01 0.  0.
<mgrwt>
<rscale>  0 0.12497338E+03</rscale>
<asrwt>0</asrwt>
<pdfrwt beam="1">  1        4 0.14641676E-01 0.12497338E+03</pdfrwt>
<pdfrwt beam="2">  1       -4 0.63118623E-02 0.12497338E+03</pdfrwt>
<totfact> 0.10219014E+04</totfact>
</mgrwt>
</event>
<event>
 5    1  0.3206665E-002  0.1250009E+03  0.7818608E-02  0.1235068E+00
          4   -1    0    0  501    0  0.00000000000E+00  0.00000000000E+00  0.31392532785E+02  0.31418211513E+02  0.12700000000E+01 0. -1.
         -4   -1    0    0    0  501 -0.00000000000E+00 -0.00000000000E+00 -0.12435451332E+03  0.12436099824E+03  0.12700000000E+01 0. -1.
         25    2    1    2    0    0  0.00000000000E+00  0.00000000000E+00 -0.92961980535E+02  0.15577920975E+03  0.12500092946E+03 0.  0.
    9000005    1    3    3    0    0 -0.69066134610E+01 -0.58831193002E+02 -0.71296116420E+02  0.92698148828E+02  0.10000000000E+01 0.  0.
    9000005    1    3    3    0    0  0.69066134610E+01  0.58831193002E+02 -0.21665864116E+02  0.63081060925E+02  0.10000000000E+01 0.  0.
<mgrwt>
<rscale>  0 0.12500093E+03</rscale>
<asrwt>0</asrwt>
<pdfrwt beam="1">  1        4 0.48320946E-02 0.12500093E+03</pdfrwt>
<pdfrwt beam="2">  1       -4 0.19133937E-01 0.12500093E+03</pdfrwt>
<totfact> 0.98160695E+03</totfact>
</mgrwt>
</event>
<event>
 5    1  0.3206665E-002  0.1250006E+03  0.7818608E-02  0.1235068E+00
          4   -1    0    0  501    0  0.00000000000E+00  0.00000000000E+00  0.56287355315E+01  0.57702308172E+01  0.12700000000E+01 0. -1.
         -4   -1    0    0    0  501 -0.00000000000E+00 -0.00000000000E+00 -0.68523343452E+03  0.68523461142E+03  0.12700000000E+01 0. -1.
         25    2    1    2    0    0  0.00000000000E+00  0.00000000000E+00 -0.67960469899E+03  0.69100484223E+03  0.12500058042E+03 0.  0.
    9000005    1    3    3    0    0 -0.19049519517E+02  0.27661882781E+02 -0.63112508873E+03  0.63201894084E+03  0.10000000000E+01 0.  0.
    9000005    1    3    3    0    0  0.19049519517E+02 -0.27661882781E+02 -0.48479610260E+02  0.58985901399E+02  0.10000000000E+01 0.  0.
<mgrwt>
<rscale>  0 0.12500058E+03</rscale>
<asrwt>0</asrwt>
<pdfrwt beam="1">  1        4 0.87693464E-03 0.12500058E+03</pdfrwt>
<pdfrwt beam="2">  1       -4 0.10543144E+00 0.12500058E+03</pdfrwt>
<totfact> 0.43565273E+03</totfact>
</mgrwt>
</event>
<event>
 5    1  0.3206665E-002  0.1249997E+03  0.7818608E-02  0.1235070E+00
         -4   -1    0    0    0  501 -0.00000000000E+00  0.00000000000E+00  0.55468017585E+03  0.55468162975E+03  0.12700000000E+01 0. -1.
          4   -1    0    0  501    0  0.00000000000E+00 -0.00000000000E+00 -0.69835851046E+01  0.70981237600E+01  0.12700000000E+01 0. -1.
         25    2    1    2    0    0  0.00000000000E+00  0.00000000000E+00  0.54769659075E+03  0.56177975351E+03  0.12499974375E+03 0.  0.
    9000005    1    3    3    0    0 -0.61529690747E+02  0.96072444039E+00  0.22494391530E+03  0.23321147241E+03  0.10000000000E+01 0.  0.
    9000005    1    3    3    0    0  0.61529690747E+02 -0.96072444039E+00  0.32275267545E+03  0.32856828110E+03  0.10000000000E+01 0.  0.
<mgrwt>
<rscale>  0 0.12499974E+03</rscale>
<asrwt>0</asrwt>
<pdfrwt beam="2">  1        4 0.10833198E-02 0.12499974E+03</pdfrwt>
<pdfrwt beam="1">  1       -4 0.85344363E-01 0.12499974E+03</pdfrwt>
<totfact> 0.51372892E+03</totfact>
</mgrwt>
</event>
<event>
 5    1  0.3206665E-002  0.1250006E+03  0.7818608E-02  0.1235068E+00
         -4   -1    0    0    0  501 -0.00000000000E+00  0.00000000000E+00  0.74483192565E+01  0.75558162859E+01  0.12700000000E+01 0.  1.
          4   -1    0    0  501    0  0.00000000000E+00 -0.00000000000E+00 -0.52058674473E+03  0.52058829385E+03  0.12700000000E+01 0.  1.
         25    2    1    2    0    0  0.00000000000E+00  0.00000000000E+00 -0.51313842548E+03  0.52814411014E+03  0.12500062947E+03 0.  0.
    9000005    1    3    3    0    0 -0.49342162068E+02 -0.20897106349E+02 -0.12070962602E+03  0.13207252487E+03  0.10000000000E+01 0.  0.
    9000005    1    3    3    0    0  0.49342162068E+02  0.20897106349E+02 -0.39242879946E+03  0.39607158527E+03  0.10000000000E+01 0.  0.
<mgrwt>
<rscale>  0 0.12500063E+03</rscale>
<asrwt>0</asrwt>
<pdfrwt beam="2">  1        4 0.80098628E-01 0.12500063E+03</pdfrwt>
<pdfrwt beam="1">  1       -4 0.11542838E-02 0.12500063E+03</pdfrwt>
<totfact> 0.53744260E+03</totfact>
</mgrwt>
</event>
<event>
 5    1  0.3206665E-002  0.1250000E+03  0.7818608E-02  0.1235069E+00
          4   -1    0    0  501    0  0.00000000000E+00  0.00000000000E+00  0.15979285693E+03  0.15979790370E+03  0.12700000000E+01 0.  1.
         -4   -1    0    0    0  501 -0.00000000000E+00 -0.00000000000E+00 -0.24423790082E+02  0.24456786828E+02  0.12700000000E+01 0.  1.
         25    2    1    2    0    0  0.00000000000E+00  0.00000000000E+00  0.13536906685E+03  0.18425469052E+03  0.12500002688E+03 0.  0.
    9000005    1    3    3    0    0 -0.35441702388E+02 -0.23739237172E+02  0.36788259714E+00  0.42670844698E+02  0.10000000000E+01 0.  0.
    9000005    1    3    3    0    0  0.35441702388E+02  0.23739237172E+02  0.13500118425E+03  0.14158384582E+03  0.10000000000E+01 0.  0.
<mgrwt>
<rscale>  0 0.12500003E+03</rscale>
<asrwt>0</asrwt>
<pdfrwt beam="1">  1        4 0.24586443E-01 0.12500003E+03</pdfrwt>
<pdfrwt beam="2">  1       -4 0.37604326E-02 0.12500003E+03</pdfrwt>
<totfact> 0.92856647E+03</totfact>
</mgrwt>
</event>
<event>
 5    1  0.3206665E-002  0.1249962E+03  0.7818608E-02  0.1235075E+00
         -4   -1    0    0    0  501 -0.00000000000E+00  0.00000000000E+00  0.11509975352E+04  0.11509982359E+04  0.12700000000E+01 0. -1.
          4   -1    0    0  501    0  0.00000000000E+00 -0.00000000000E+00 -0.32740429609E+01  0.35117313835E+01  0.12700000000E+01 0. -1.
         25    2    1    2    0    0  0.00000000000E+00  0.00000000000E+00  0.11477234923E+04  0.11545099673E+04  0.12499619919E+03 0.  0.
    9000005    1    3    3    0    0  0.52763594780E+02  0.13382808942E+02  0.85733164796E+03  0.85905858421E+03  0.10000000000E+01 0.  0.
    9000005    1    3    3    0    0 -0.52763594780E+02 -0.13382808942E+02  0.29039184431E+03  0.29545138305E+03  0.10000000000E+01 0.  0.
<mgrwt>
<rscale>  0 0.12499620E+03</rscale>
<asrwt>0</asrwt>
<pdfrwt beam="2">  1        4 0.52203635E-03 0.12499620E+03</pdfrwt>
<pdfrwt beam="1">  1       -4 0.17709495E+00 0.12499620E+03</pdfrwt>
<totfact> 0.25937566E+03</totfact>
</mgrwt>
</event>
<event>
 5    1  0.3206665E-002  0.1250082E+03  0.7818608E-02  0.1235056E+00
         -4   -1    0    0    0  501 -0.00000000000E+00  0.00000000000E+00  0.13653743902E+02  0.13712681085E+02  0.12700000000E+01 0.  1.
          4   -1    0    0  501    0  0.00000000000E+00 -0.00000000000E+00 -0.28545474890E+03  0.28545757403E+03  0.12700000000E+01 0.  1.
         25    2    1    2    0    0  0.00000000000E+00  0.00000000000E+00 -0.27180100500E+03  0.29917025511E+03  0.12500822063E+03 0.  0.
    9000005    1    3    3    0    0  0.26824825170E+02 -0.54149608437E+02 -0.17404284439E+03  0.18423806073E+03  0.10000000000E+01 0.  0.
    9000005    1    3    3    0    0 -0.26824825170E+02  0.54149608437E+02 -0.97758160609E+02  0.11493219438E+03  0.10000000000E+01 0.  0.
<mgrwt>
<rscale>  0 0.12500822E+03</rscale>
<asrwt>0</asrwt>
<pdfrwt beam="2">  1        4 0.43920862E-01 0.12500822E+03</pdfrwt>
<pdfrwt beam="1">  1       -4 0.21053271E-02 0.12500822E+03</pdfrwt>
<totfact> 0.75689226E+03</totfact>
</mgrwt>
</event>
<event>
 5    1  0.3206665E-002  0.1250034E+03  0.7818608E-02  0.1235064E+00
         -4   -1    0    0    0  501 -0.00000000000E+00  0.00000000000E+00  0.31773907886E+03  0.31774161694E+03  0.12700000000E+01 0.  1.
          4   -1    0    0  501    0  0.00000000000E+00 -0.00000000000E+00 -0.12259178234E+02  0.12324786042E+02  0.12700000000E+01 0.  1.
         25    2    1    2    0    0  0.00000000000E+00  0.00000000000E+00  0.30547990062E+03  0.33006640298E+03  0.12500344271E+03 0.  0.
    9000005    1    3    3    0    0 -0.91166617650E+01 -0.61492046799E+02  0.13581631448E+03  0.14937019990E+03  0.10000000000E+01 0.  0.
    9000005    1    3    3    0    0  0.91166617650E+01  0.61492046799E+02  0.16966358615E+03  0.18069620307E+03  0.10000000000E+01 0.  0.
<mgrwt>
<rscale>  0 0.12500344E+03</rscale>
<asrwt>0</asrwt>
<pdfrwt beam="2">  1        4 0.18912697E-02 0.12500344E+03</pdfrwt>
<pdfrwt beam="1">  1       -4 0.48888170E-01 0.12500344E+03</pdfrwt>
<totfact> 0.71969156E+03</totfact>
</mgrwt>
</event>
<event>
 5    1  0.3206665E-002  0.1250015E+03  0.7818608E-02  0.1235067E+00
          4   -1    0    0  501    0  0.00000000000E+00  0.00000000000E+00  0.93915103729E+02  0.93923690347E+02  0.12700000000E+01 0.  1.
         -4   -1    0    0    0  501 -0.00000000000E+00 -0.00000000000E+00 -0.41574243737E+02  0.41593637041E+02  0.12700000000E+01 0.  1.
         25    2    1    2    0    0  0.00000000000E+00  0.00000000000E+00  0.52340859992E+02  0.13551732739E+03  0.12500152158E+03 0.  0.
    9000005    1    3    3    0    0 -0.49475548126E+02  0.29617924158E+02  0.52286239732E+02  0.77845373396E+02  0.10000000000E+01 0.  0.
    9000005    1    3    3    0    0  0.49475548126E+02 -0.29617924158E+02  0.54620259673E-01  0.57671953992E+02  0.10000000000E+01 0.  0.
<mgrwt>
<rscale>  0 0.12500152E+03</rscale>
<asrwt>0</asrwt>
<pdfrwt beam="1">  1        4 0.14450630E-01 0.12500152E+03</pdfrwt>
<pdfrwt beam="2">  1       -4 0.63981898E-02 0.12500152E+03</pdfrwt>
<totfact> 0.10226828E+04</totfact>
</mgrwt>
</event>
<event>
 5    1  0.3206665E-002  0.1249993E+03  0.7818608E-02  0.1235070E+00
          4   -1    0    0  501    0  0.00000000000E+00  0.00000000000E+00  0.11089121263E+03  0.11089848483E+03  0.12700000000E+01 0.  1.
         -4   -1    0    0    0  501 -0.00000000000E+00 -0.00000000000E+00 -0.35205669370E+02  0.35228568745E+02  0.12700000000E+01 0.  1.
         25    2    1    2    0    0  0.00000000000E+00  0.00000000000E+00  0.75685543258E+02  0.14612705358E+03  0.12499925731E+03 0.  0.
    9000005    1    3    3    0    0  0.23546019281E+01 -0.30848837758E+01 -0.35070397278E+02  0.35298632032E+02  0.10000000000E+01 0.  0.
    9000005    1    3    3    0    0 -0.23546019281E+01  0.30848837758E+01  0.11075594054E+03  0.11082842155E+03  0.10000000000E+01 0.  0.
<mgrwt>
<rscale>  0 0.12499926E+03</rscale>
<asrwt>0</asrwt>
<pdfrwt beam="1">  1        4 0.17062507E-01 0.12499926E+03</pdfrwt>
<pdfrwt beam="2">  1       -4 0.54185778E-02 0.12499926E+03</pdfrwt>
<totfact> 0.10008307E+04</totfact>
</mgrwt>
</event>
<event>
 5    1  0.3206665E-002  0.1249992E+03  0.7818608E-02  0.1235070E+00
         -4   -1    0    0    0  501 -0.00000000000E+00  0.00000000000E+00  0.90550473166E+01  0.91436744204E+01  0.12700000000E+01 0.  1.
          4   -1    0    0  501    0  0.00000000000E+00 -0.00000000000E+00 -0.42919366108E+03  0.42919554007E+03  0.12700000000E+01 0.  1.
         25    2    1    2    0    0  0.00000000000E+00  0.00000000000E+00 -0.42013861376E+03  0.43833921449E+03  0.12499924872E+03 0.  0.
    9000005    1    3    3    0    0 -0.42056583324E+02  0.36354789728E+01 -0.48484152622E+02  0.64293747470E+02  0.10000000000E+01 0.  0.
    9000005    1    3    3    0    0  0.42056583324E+02 -0.36354789728E+01 -0.37165446114E+03  0.37404546702E+03  0.10000000000E+01 0.  0.
<mgrwt>
<rscale>  0 0.12499925E+03</rscale>
<asrwt>0</asrwt>
<pdfrwt beam="2">  1        4 0.66036740E-01 0.12499925E+03</pdfrwt>
<pdfrwt beam="1">  1       -4 0.14000465E-02 0.12499925E+03</pdfrwt>
<totfact> 0.60988316E+03</totfact>
</mgrwt>
</event>
<event>
 5    1  0.3206665E-002  0.1250001E+03  0.7818608E-02  0.1235069E+00
          4   -1    0    0  501    0  0.00000000000E+00  0.00000000000E+00  0.67374277885E+01  0.68560800174E+01  0.12700000000E+01 0. -1.
         -4   -1    0    0    0  501 -0.00000000000E+00 -0.00000000000E+00 -0.57460472795E+03  0.57460613143E+03  0.12700000000E+01 0. -1.
         25    2    1    2    0    0  0.00000000000E+00  0.00000000000E+00 -0.56786730016E+03  0.58146221145E+03  0.12500013102E+03 0.  0.
    9000005    1    3    3    0    0 -0.57002505889E+02  0.15065098706E+02 -0.38028269720E+03  0.38482745831E+03  0.10000000000E+01 0.  0.
    9000005    1    3    3    0    0  0.57002505889E+02 -0.15065098706E+02 -0.18758460296E+03  0.19663475314E+03  0.10000000000E+01 0.  0.
<mgrwt>
<rscale>  0 0.12500013E+03</rscale>
<asrwt>0</asrwt>
<pdfrwt beam="1">  1        4 0.10457629E-02 0.12500013E+03</pdfrwt>
<pdfrwt beam="2">  1       -4 0.88409924E-01 0.12500013E+03</pdfrwt>
<totfact> 0.50058946E+03</totfact>
</mgrwt>
</event>
<event>
 5    1  0.3206665E-002  0.1250043E+03  0.7818608E-02  0.1235063E+00
         -4   -1    0    0    0  501 -0.00000000000E+00  0.00000000000E+00  0.57407876064E+02  0.57421922070E+02  0.12700000000E+01 0. -1.
          4   -1    0    0  501    0  0.00000000000E+00 -0.00000000000E+00 -0.68020170316E+02  0.68032025325E+02  0.12700000000E+01 0. -1.
         25    2    1    2    0    0  0.00000000000E+00  0.00000000000E+00 -0.10612294252E+02  0.12545394739E+03  0.12500428844E+03 0.  0.
    9000005    1    3    3    0    0 -0.37626025976E+02 -0.37722239696E+02  0.27473751433E+02  0.59954084233E+02  0.10000000000E+01 0.  0.
    9000005    1    3    3    0    0  0.37626025976E+02  0.37722239696E+02 -0.38086045685E+02  0.65499863162E+02  0.10000000000E+01 0.  0.
<mgrwt>
<rscale>  0 0.12500429E+03</rscale>
<asrwt>0</asrwt>
<pdfrwt beam="2">  1        4 0.10466634E-01 0.12500429E+03</pdfrwt>
<pdfrwt beam="1">  1       -4 0.88339734E-02 0.12500429E+03</pdfrwt>
<totfact> 0.10441962E+04</totfact>
</mgrwt>
</event>
<event>
 5    1  0.3206665E-002  0.1249717E+03  0.7818608E-02  0.1235113E+00
         -4   -1    0    0    0  501 -0.00000000000E+00  0.00000000000E+00  0.51586892107E+03  0.51587048436E+03  0.12700000000E+01 0.  1.
          4   -1    0    0  501    0  0.00000000000E+00 -0.00000000000E+00 -0.75138884786E+01  0.76204606205E+01  0.12700000000E+01 0.  1.
         25    2    1    2    0    0  0.00000000000E+00  0.00000000000E+00  0.50835503259E+03  0.52349094498E+03  0.12497171803E+03 0.  0.
    9000005    1    3    3    0    0  0.72001684825E+01  0.28689855391E+02  0.48470013373E+03  0.48560289318E+03  0.10000000000E+01 0.  0.
    9000005    1    3    3    0    0 -0.72001684825E+01 -0.28689855391E+02  0.23654898867E+02  0.37888051796E+02  0.10000000000E+01 0.  0.
<mgrwt>
<rscale>  0 0.12497172E+03</rscale>
<asrwt>0</asrwt>
<pdfrwt beam="2">  1        4 0.11643012E-02 0.12497172E+03</pdfrwt>
<pdfrwt beam="1">  1       -4 0.79372747E-01 0.12497172E+03</pdfrwt>
<totfact> 0.54120368E+03</totfact>
</mgrwt>
</event>
<event>
 5    1  0.3206665E-002  0.1250054E+03  0.7818608E-02  0.1235061E+00
          4   -1    0    0  501    0  0.00000000000E+00  0.00000000000E+00  0.79362571976E+01  0.80372307610E+01  0.12700000000E+01 0.  1.
         -4   -1    0    0    0  501 -0.00000000000E+00 -0.00000000000E+00 -0.48903245100E+03  0.48903410007E+03  0.12700000000E+01 0.  1.
         25    2    1    2    0    0  0.00000000000E+00  0.00000000000E+00 -0.48109619380E+03  0.49707133083E+03  0.12500544085E+03 0.  0.
    9000005    1    3    3    0    0 -0.96112816155E+01 -0.53149905544E+02 -0.11554108114E+03  0.12754619016E+03  0.10000000000E+01 0.  0.
    9000005    1    3    3    0    0  0.96112816155E+01  0.53149905544E+02 -0.36555511266E+03  0.36952514067E+03  0.10000000000E+01 0.  0.
<mgrwt>
<rscale>  0 0.12500544E+03</rscale>
<asrwt>0</asrwt>
<pdfrwt beam="1">  1        4 0.12288571E-02 0.12500544E+03</pdfrwt>
<pdfrwt beam="2">  1       -4 0.75243632E-01 0.12500544E+03</pdfrwt>
<totfact> 0.56085613E+03</totfact>
</mgrwt>
</event>
<event>
 5    1  0.3206665E-002  0.1249994E+03  0.7818608E-02  0.1235070E+00
         -4   -1    0    0    0  501 -0.00000000000E+00  0.00000000000E+00  0.12221920949E+03  0.12222580770E+03  0.12700000000E+01 0. -1.
          4   -1    0    0  501    0  0.00000000000E+00 -0.00000000000E+00 -0.31940605043E+02  0.31965843498E+02  0.12700000000E+01 0. -1.
         25    2    1    2    0    0  0.00000000000E+00  0.00000000000E+00  0.90278604449E+02  0.15419165120E+03  0.12499935552E+03 0.  0.
    9000005    1    3    3    0    0 -0.66673947231E+01  0.53542200873E+02  0.84029819540E+02  0.99866070307E+02  0.10000000000E+01 0.  0.
    9000005    1    3    3    0    0  0.66673947231E+01 -0.53542200873E+02  0.62487849087E+01  0.54325580895E+02  0.10000000000E+01 0.  0.
<mgrwt>
<rscale>  0 0.12499936E+03</rscale>
<asrwt>0</asrwt>
<pdfrwt beam="2">  1        4 0.49163882E-02 0.12499936E+03</pdfrwt>
<pdfrwt beam="1">  1       -4 0.18805404E-01 0.12499936E+03</pdfrwt>
<totfact> 0.98475849E+03</totfact>
</mgrwt>
</event>
<event>
 5    1  0.3206665E-002  0.1249981E+03  0.7818608E-02  0.1235072E+00
          4   -1    0    0  501    0  0.00000000000E+00  0.00000000000E+00  0.62171615631E+01  0.63455494563E+01  0.12700000000E+01 0.  1.
         -4   -1    0    0    0  501 -0.00000000000E+00 -0.00000000000E+00 -0.62173175480E+03  0.62173305191E+03  0.12700000000E+01 0.  1.
         25    2    1    2    0    0  0.00000000000E+00  0.00000000000E+00 -0.61551459324E+03  0.62807860136E+03  0.12499805997E+03 0.  0.
    9000005    1    3    3    0    0  0.56236906805E+02  0.26985604399E+02 -0.32676916785E+03  0.33267086075E+03  0.10000000000E+01 0.  0.
    9000005    1    3    3    0    0 -0.56236906805E+02 -0.26985604399E+02 -0.28874542539E+03  0.29540774061E+03  0.10000000000E+01 0.  0.
<mgrwt>
<rscale>  0 0.12499806E+03</rscale>
<asrwt>0</asrwt>
<pdfrwt beam="1">  1        4 0.96646265E-03 0.12499806E+03</pdfrwt>
<pdfrwt beam="2">  1       -4 0.95660967E-01 0.12499806E+03</pdfrwt>
<totfact> 0.47143879E+03</totfact>
</mgrwt>
</event>
<event>
 5    1  0.3206665E-002  0.1250013E+03  0.7818608E-02  0.1235067E+00
         -4   -1    0    0    0  501 -0.00000000000E+00  0.00000000000E+00  0.45164999122E+02  0.45182851235E+02  0.12700000000E+01 0.  1.
          4   -1    0    0  501    0  0.00000000000E+00 -0.00000000000E+00 -0.86450623102E+02  0.86459951045E+02  0.12700000000E+01 0.  1.
         25    2    1    2    0    0  0.00000000000E+00  0.00000000000E+00 -0.41285623979E+02  0.13164280228E+03  0.12500129857E+03 0.  0.
    9000005    1    3    3    0    0  0.91738802838E+01  0.60759922871E+02 -0.32622748651E+02  0.69578531433E+02  0.10000000000E+01 0.  0.
    9000005    1    3    3    0    0 -0.91738802838E+01 -0.60759922871E+02 -0.86628753280E+01  0.62064270847E+02  0.10000000000E+01 0.  0.
<mgrwt>
<rscale>  0 0.12500130E+03</rscale>
<asrwt>0</asrwt>
<pdfrwt beam="2">  1        4 0.13302187E-01 0.12500130E+03</pdfrwt>
<pdfrwt beam="1">  1       -4 0.69505522E-02 0.12500130E+03</pdfrwt>
<totfact> 0.10309026E+04</totfact>
</mgrwt>
</event>
<event>
 5    1  0.3206665E-002  0.1249995E+03  0.7818608E-02  0.1235070E+00
          4   -1    0    0  501    0  0.00000000000E+00  0.00000000000E+00  0.33224929190E+03  0.33225171914E+03  0.12700000000E+01 0.  1.
         -4   -1    0    0    0  501 -0.00000000000E+00 -0.00000000000E+00 -0.11720122088E+02  0.11788730286E+02  0.12700000000E+01 0.  1.
         25    2    1    2    0    0  0.00000000000E+00  0.00000000000E+00  0.32052916982E+03  0.34404044942E+03  0.12499952855E+03 0.  0.
    9000005    1    3    3    0    0 -0.18194151405E+02 -0.74744848210E-01  0.32481152685E+03  0.32532224134E+03  0.10000000000E+01 0.  0.
    9000005    1    3    3    0    0  0.18194151405E+02  0.74744848210E-01 -0.42823570377E+01  0.18718208086E+02  0.10000000000E+01 0.  0.
<mgrwt>
<rscale>  0 0.12499953E+03</rscale>
<asrwt>0</asrwt>
<pdfrwt beam="1">  1        4 0.51120738E-01 0.12499953E+03</pdfrwt>
<pdfrwt beam="2">  1       -4 0.18085600E-02 0.12499953E+03</pdfrwt>
<totfact> 0.70385927E+03</totfact>
</mgrwt>
</event>
<event>
 5    1  0.3206665E-002  0.1249993E+03  0.7818608E-02  0.1235070E+00
         -4   -1    0    0    0  501 -0.00000000000E+00  0.00000000000E+00  0.13225717767E+04  0.13225723864E+04  0.12700000000E+01 0. -1.
          4   -1    0    0  501    0  0.00000000000E+00 -0.00000000000E+00 -0.28163315462E+01  0.30894373886E+01  0.12700000000E+01 0. -1.
         25    2    1    2    0    0  0.00000000000E+00  0.00000000000E+00  0.13197554451E+04  0.13256618238E+04  0.12499934477E+03 0.  0.
    9000005    1    3    3    0    0 -0.15568251918E+02  0.23872321942E+02  0.12496868931E+04  0.12500122356E+04  0.10000000000E+01 0.  0.
    9000005    1    3    3    0    0  0.15568251918E+02 -0.23872321942E+02  0.70068551967E+02  0.75649588217E+02  0.10000000000E+01 0.  0.
<mgrwt>
<rscale>  0 0.12499934E+03</rscale>
<asrwt>0</asrwt>
<pdfrwt beam="2">  1        4 0.45433672E-03 0.12499934E+03</pdfrwt>
<pdfrwt beam="1">  1       -4 0.20349368E+00 0.12499934E+03</pdfrwt>
<totfact> 0.21631145E+03</totfact>
</mgrwt>
</event>
<event>
 5    1  0.3206665E-002  0.1249996E+03  0.7818608E-02  0.1235070E+00
          4   -1    0    0  501    0  0.00000000000E+00  0.00000000000E+00  0.83256551470E+03  0.83256648333E+03  0.12700000000E+01 0. -1.
         -4   -1    0    0    0  501 -0.00000000000E+00 -0.00000000000E+00 -0.46048580850E+01  0.47767790385E+01  0.12700000000E+01 0. -1.
         25    2    1    2    0    0  0.00000000000E+00  0.00000000000E+00  0.82796065661E+03  0.83734326237E+03  0.12499956054E+03 0.  0.
    9000005    1    3    3    0    0  0.31171553373E+01 -0.58575585134E+02  0.55833946742E+03  0.56141319606E+03  0.10000000000E+01 0.  0.
    9000005    1    3    3    0    0 -0.31171553373E+01  0.58575585134E+02  0.26962118919E+03  0.27593006631E+03  0.10000000000E+01 0.  0.
<mgrwt>
<rscale>  0 0.12499956E+03</rscale>
<asrwt>0</asrwt>
<pdfrwt beam="1">  1        4 0.12810030E+00 0.12499956E+03</pdfrwt>
<pdfrwt beam="2">  1       -4 0.72173893E-03 0.12499956E+03</pdfrwt>
<totfact> 0.36651273E+03</totfact>
</mgrwt>
</event>
<event>
 4    1  0.3206665E-002  0.1252517E+03  0.7818608E-02  0.1234676E+00
          4   -1    0    0  501    0  0.00000000000E+00  0.00000000000E+00  0.91083999855E+03  0.91084088395E+03  0.12700000000E+01 0.  1.
         -4   -1    0    0    0  501 -0.00000000000E+00 -0.00000000000E+00 -0.42113621867E+01  0.43986897444E+01  0.12700000000E+01 0.  1.
    9000005    1    1    2    0    0  0.35567915865E+02  0.42602180523E+02  0.24140851469E+03  0.24770767729E+03  0.10000000000E+01 0.  0.
    9000005    1    1    2    0    0 -0.35567915865E+02 -0.42602180523E+02  0.66522012168E+03  0.66753189640E+03  0.10000000000E+01 0.  0.
<mgrwt>
<rscale>  0 0.12525172E+03</rscale>
<asrwt>0</asrwt>
<pdfrwt beam="1">  1        4 0.14014375E+00 0.12525172E+03</pdfrwt>
<pdfrwt beam="2">  1       -4 0.66237959E-03 0.12525172E+03</pdfrwt>
<totfact> 0.33399233E+03</totfact>
</mgrwt>
</event>
<event>
 5    1  0.3206665E-002  0.1249955E+03  0.7818608E-02  0.1235076E+00
         -4   -1    0    0    0  501 -0.00000000000E+00  0.00000000000E+00  0.19341822812E+03  0.19342239754E+03  0.12700000000E+01 0.  1.
          4   -1    0    0  501    0  0.00000000000E+00 -0.00000000000E+00 -0.20170046099E+02  0.20209989105E+02  0.12700000000E+01 0.  1.
         25    2    1    2    0    0  0.00000000000E+00  0.00000000000E+00  0.17324818202E+03  0.21363238664E+03  0.12499545611E+03 0.  0.
    9000005    1    3    3    0    0 -0.20602675643E+02  0.57832314761E+02  0.66698410048E+02  0.90657182712E+02  0.10000000000E+01 0.  0.
    9000005    1    3    3    0    0  0.20602675643E+02 -0.57832314761E+02  0.10654977197E+03  0.12297520393E+03  0.10000000000E+01 0.  0.
<mgrwt>
<rscale>  0 0.12499546E+03</rscale>
<asrwt>0</asrwt>
<pdfrwt beam="2">  1        4 0.31064772E-02 0.12499546E+03</pdfrwt>
<pdfrwt beam="1">  1       -4 0.29760044E-01 0.12499546E+03</pdfrwt>
<totfact> 0.87895004E+03</totfact>
</mgrwt>
</event>
<event>
 5    1  0.3206665E-002  0.1250006E+03  0.7818608E-02  0.1235068E+00
         -4   -1    0    0    0  501 -0.00000000000E+00  0.00000000000E+00  0.13759633057E+02  0.13818118608E+02  0.12700000000E+01 0.  1.
          4   -1    0    0  501    0  0.00000000000E+00 -0.00000000000E+00 -0.28323289930E+03  0.28323574659E+03  0.12700000000E+01 0.  1.
         25    2    1    2    0    0  0.00000000000E+00  0.00000000000E+00 -0.26947326624E+03  0.29705386520E+03  0.12500063043E+03 0.  0.
    9000005    1    3    3    0    0  0.12082041770E+02 -0.61308736608E+02 -0.13650300846E+03  0.15012930506E+03  0.10000000000E+01 0.  0.
    9000005    1    3    3    0    0 -0.12082041770E+02  0.61308736608E+02 -0.13297025778E+03  0.14692456014E+03  0.10000000000E+01 0.  0.
<mgrwt>
<rscale>  0 0.12500063E+03</rscale>
<asrwt>0</asrwt>
<pdfrwt beam="2">  1        4 0.43579006E-01 0.12500063E+03</pdfrwt>
<pdfrwt beam="1">  1       -4 0.21215848E-02 0.12500063E+03</pdfrwt>
<totfact> 0.75968827E+03</totfact>
</mgrwt>
</event>
<event>
 5    1  0.3206665E-002  0.1249914E+03  0.7818608E-02  0.1235083E+00
         -4   -1    0    0    0  501 -0.00000000000E+00  0.00000000000E+00  0.29316820106E+03  0.29317095186E+03  0.12700000000E+01 0. -1.
          4   -1    0    0  501    0  0.00000000000E+00 -0.00000000000E+00 -0.13289332358E+02  0.13349878446E+02  0.12700000000E+01 0. -1.
         25    2    1    2    0    0  0.00000000000E+00  0.00000000000E+00  0.27987886871E+03  0.30652083031E+03  0.12499135275E+03 0.  0.
    9000005    1    3    3    0    0  0.44831189372E+02 -0.19299315829E+02  0.23562488373E+03  0.24062914404E+03  0.10000000000E+01 0.  0.
    9000005    1    3    3    0    0 -0.44831189372E+02  0.19299315829E+02  0.44253984979E+02  0.65891686262E+02  0.10000000000E+01 0.  0.
<mgrwt>
<rscale>  0 0.12499135E+03</rscale>
<asrwt>0</asrwt>
<pdfrwt beam="2">  1        4 0.20493817E-02 0.12499135E+03</pdfrwt>
<pdfrwt beam="1">  1       -4 0.45107668E-01 0.12499135E+03</pdfrwt>
<totfact> 0.74802443E+03</totfact>
</mgrwt>
</event>
<event>
 5    1  0.3206665E-002  0.1249978E+03  0.7818608E-02  0.1235073E+00
         -4   -1    0    0    0  501 -0.00000000000E+00  0.00000000000E+00  0.40363728545E+01  0.42314543387E+01  0.12700000000E+01 0.  1.
          4   -1    0    0  501    0  0.00000000000E+00 -0.00000000000E+00 -0.94469869640E+03  0.94469955006E+03  0.12700000000E+01 0.  1.
         25    2    1    2    0    0  0.00000000000E+00  0.00000000000E+00 -0.94066232355E+03  0.94893100440E+03  0.12499777665E+03 0.  0.
    9000005    1    3    3    0    0 -0.14122334904E+02  0.54861826074E+02 -0.27007292196E+03  0.27595224855E+03  0.10000000000E+01 0.  0.
    9000005    1    3    3    0    0  0.14122334904E+02 -0.54861826074E+02 -0.67058940159E+03  0.67297875585E+03  0.10000000000E+01 0.  0.
<mgrwt>
<rscale>  0 0.12499778E+03</rscale>
<asrwt>0</asrwt>
<pdfrwt beam="2">  1        4 0.14535316E+00 0.12499778E+03</pdfrwt>
<pdfrwt beam="1">  1       -4 0.63605313E-03 0.12499778E+03</pdfrwt>
<totfact> 0.32355562E+03</totfact>
</mgrwt>
</event>
<event>
 5    1  0.3206665E-002  0.1250055E+03  0.7818608E-02  0.1235061E+00
          4   -1    0    0  501    0  0.00000000000E+00  0.00000000000E+00  0.17641979690E+03  0.17642436804E+03  0.12700000000E+01 0. -1.
         -4   -1    0    0    0  501 -0.00000000000E+00 -0.00000000000E+00 -0.22120675830E+02  0.22157102681E+02  0.12700000000E+01 0. -1.
         25    2    1    2    0    0  0.00000000000E+00  0.00000000000E+00  0.15429912107E+03  0.19858147072E+03  0.12500552688E+03 0.  0.
    9000005    1    3    3    0    0  0.52162908856E+02 -0.69111294742E+01  0.13071238997E+03  0.14090940942E+03  0.10000000000E+01 0.  0.
    9000005    1    3    3    0    0 -0.52162908856E+02  0.69111294742E+01  0.23586731099E+02  0.57672061302E+02  0.10000000000E+01 0.  0.
<mgrwt>
<rscale>  0 0.12500553E+03</rscale>
<asrwt>0</asrwt>
<pdfrwt beam="1">  1        4 0.27144662E-01 0.12500553E+03</pdfrwt>
<pdfrwt beam="2">  1       -4 0.34063345E-02 0.12500553E+03</pdfrwt>
<totfact> 0.90364054E+03</totfact>
</mgrwt>
</event>
<event>
 5    1  0.3206665E-002  0.1249982E+03  0.7818608E-02  0.1235072E+00
         -4   -1    0    0    0  501 -0.00000000000E+00  0.00000000000E+00  0.13306058552E+02  0.13366528876E+02  0.12700000000E+01 0. -1.
          4   -1    0    0  501    0  0.00000000000E+00 -0.00000000000E+00 -0.29283331452E+03  0.29283606847E+03  0.12700000000E+01 0. -1.
         25    2    1    2    0    0  0.00000000000E+00  0.00000000000E+00 -0.27952725597E+03  0.30620259734E+03  0.12499817514E+03 0.  0.
    9000005    1    3    3    0    0  0.10989206361E+01 -0.62298745601E+02 -0.12806805921E+03  0.14242460854E+03  0.10000000000E+01 0.  0.
    9000005    1    3    3    0    0 -0.10989206361E+01  0.62298745601E+02 -0.15145919676E+03  0.16377798880E+03  0.10000000000E+01 0.  0.
<mgrwt>
<rscale>  0 0.12499818E+03</rscale>
<asrwt>0</asrwt>
<pdfrwt beam="2">  1        4 0.45056138E-01 0.12499818E+03</pdfrwt>
<pdfrwt beam="1">  1       -4 0.20519495E-02 0.12499818E+03</pdfrwt>
<totfact> 0.74830358E+03</totfact>
</mgrwt>
</event>
<event>
 5    1  0.3206665E-002  0.1249990E+03  0.7818608E-02  0.1235071E+00
         -4   -1    0    0    0  501 -0.00000000000E+00  0.00000000000E+00  0.20709206979E+01  0.24293234731E+01  0.12700000000E+01 0. -1.
          4   -1    0    0  501    0  0.00000000000E+00 -0.00000000000E+00 -0.17356298544E+04  0.17356303190E+04  0.12700000000E+01 0. -1.
         25    2    1    2    0    0  0.00000000000E+00  0.00000000000E+00 -0.17335589337E+04  0.17380596425E+04  0.12499897731E+03 0.  0.
    9000005    1    3    3    0    0  0.48079785776E+02  0.36378586253E+02 -0.63825348874E+03  0.64109561161E+03  0.10000000000E+01 0.  0.
    9000005    1    3    3    0    0 -0.48079785776E+02 -0.36378586253E+02 -0.10953054450E+04  0.10969640309E+04  0.10000000000E+01 0.  0.
<mgrwt>
<rscale>  0 0.12499898E+03</rscale>
<asrwt>0</asrwt>
<pdfrwt beam="2">  1        4 0.26704651E+00 0.12499898E+03</pdfrwt>
<pdfrwt beam="1">  1       -4 0.34620976E-03 0.12499898E+03</pdfrwt>
<totfact> 0.13682747E+03</totfact>
</mgrwt>
</event>
<event>
 4    1  0.3206665E-002  0.1248070E+03  0.7818608E-02  0.1235371E+00
         -4   -1    0    0    0  501 -0.00000000000E+00  0.00000000000E+00  0.39226280607E+01  0.41230948210E+01  0.12700000000E+01 0.  1.
          4   -1    0    0  501    0  0.00000000000E+00 -0.00000000000E+00 -0.96781645957E+03  0.96781729284E+03  0.12700000000E+01 0.  1.
    9000005    1    1    2    0    0 -0.47213471210E+01  0.47717763096E+02 -0.79285662325E+03  0.79430592410E+03  0.10000000000E+01 0.  0.
    9000005    1    1    2    0    0  0.47213471210E+01 -0.47717763096E+02 -0.17103720826E+03  0.17763446356E+03  0.10000000000E+01 0.  0.
<mgrwt>
<rscale>  0 0.12480705E+03</rscale>
<asrwt>0</asrwt>
<pdfrwt beam="2">  1        4 0.14891014E+00 0.12480705E+03</pdfrwt>
<pdfrwt beam="1">  1       -4 0.61896663E-03 0.12480705E+03</pdfrwt>
<totfact> 0.31682805E+03</totfact>
</mgrwt>
</event>
<event>
 5    1  0.3206665E-002  0.1250009E+03  0.7818608E-02  0.1235068E+00
         -4   -1    0    0    0  501 -0.00000000000E+00  0.00000000000E+00  0.44501795011E+01  0.46278502128E+01  0.12700000000E+01 0.  1.
          4   -1    0    0  501    0  0.00000000000E+00 -0.00000000000E+00 -0.86042849305E+03  0.86042943031E+03  0.12700000000E+01 0.  1.
         25    2    1    2    0    0  0.00000000000E+00  0.00000000000E+00 -0.85597831355E+03  0.86505728052E+03  0.12500090131E+03 0.  0.
    9000005    1    3    3    0    0  0.22844920848E+02 -0.14040385157E+02 -0.37351659380E+02  0.45990969573E+02  0.10000000000E+01 0.  0.
    9000005    1    3    3    0    0 -0.22844920848E+02  0.14040385157E+02 -0.81862665417E+03  0.81906631095E+03  0.10000000000E+01 0.  0.
<mgrwt>
<rscale>  0 0.12500090E+03</rscale>
<asrwt>0</asrwt>
<pdfrwt beam="2">  1        4 0.13238722E+00 0.12500090E+03</pdfrwt>
<pdfrwt beam="1">  1       -4 0.69838276E-03 0.12500090E+03</pdfrwt>
<totfact> 0.35518300E+03</totfact>
</mgrwt>
</event>
<event>
 5    1  0.3206665E-002  0.1249978E+03  0.7818608E-02  0.1235073E+00
          4   -1    0    0  501    0  0.00000000000E+00  0.00000000000E+00  0.34083264383E+04  0.34083266749E+04  0.12700000000E+01 0.  1.
         -4   -1    0    0    0  501 -0.00000000000E+00 -0.00000000000E+00 -0.79390198487E+00  0.14977250621E+01  0.12700000000E+01 0.  1.
         25    2    1    2    0    0  0.00000000000E+00  0.00000000000E+00  0.34075325363E+04  0.34098244000E+04  0.12499781042E+03 0.  0.
    9000005    1    3    3    0    0 -0.38005861989E+02  0.14149067540E+02  0.40679867101E+03  0.40881634067E+03  0.10000000000E+01 0.  0.
    9000005    1    3    3    0    0  0.38005861989E+02 -0.14149067540E+02  0.30007338653E+04  0.30010080593E+04  0.10000000000E+01 0.  0.
<mgrwt>
<rscale>  0 0.12499781E+03</rscale>
<asrwt>0</asrwt>
<pdfrwt beam="1">  1        4 0.52440347E+00 0.12499781E+03</pdfrwt>
<pdfrwt beam="2">  1       -4 0.17630010E-03 0.12499781E+03</pdfrwt>
<totfact> 0.72060007E+01</totfact>
</mgrwt>
</event>
<event>
 5    1  0.3206665E-002  0.1249718E+03  0.7818608E-02  0.1235113E+00
          4   -1    0    0  501    0  0.00000000000E+00  0.00000000000E+00  0.19111012266E+03  0.19111434243E+03  0.12700000000E+01 0. -1.
         -4   -1    0    0    0  501 -0.00000000000E+00 -0.00000000000E+00 -0.20406383227E+02  0.20445864530E+02  0.12700000000E+01 0. -1.
         25    2    1    2    0    0  0.00000000000E+00  0.00000000000E+00  0.17070373943E+03  0.21156020696E+03  0.12497181487E+03 0.  0.
    9000005    1    3    3    0    0  0.18882028998E+01  0.55832107242E+02  0.37991037091E+02  0.67565585978E+02  0.10000000000E+01 0.  0.
    9000005    1    3    3    0    0 -0.18882028998E+01 -0.55832107242E+02  0.13271270234E+03  0.14399462098E+03  0.10000000000E+01 0.  0.
<mgrwt>
<rscale>  0 0.12497181E+03</rscale>
<asrwt>0</asrwt>
<pdfrwt beam="1">  1        4 0.29404919E-01 0.12497181E+03</pdfrwt>
<pdfrwt beam="2">  1       -4 0.31428052E-02 0.12497181E+03</pdfrwt>
<totfact> 0.88277316E+03</totfact>
</mgrwt>
</event>
<event>
 5    1  0.3206665E-002  0.1250010E+03  0.7818608E-02  0.1235068E+00
         -4   -1    0    0    0  501 -0.00000000000E+00  0.00000000000E+00  0.52078241067E+01  0.53604413928E+01  0.12700000000E+01 0. -1.
          4   -1    0    0  501    0  0.00000000000E+00 -0.00000000000E+00 -0.73910034403E+03  0.73910143515E+03  0.12700000000E+01 0. -1.
         25    2    1    2    0    0  0.00000000000E+00  0.00000000000E+00 -0.73389251993E+03  0.74446187655E+03  0.12500101932E+03 0.  0.
    9000005    1    3    3    0    0 -0.42447793794E+02  0.32348274611E+02 -0.56058150326E+03  0.56311708184E+03  0.10000000000E+01 0.  0.
    9000005    1    3    3    0    0  0.42447793794E+02 -0.32348274611E+02 -0.17331101667E+03  0.18134479470E+03  0.10000000000E+01 0.  0.
<mgrwt>
<rscale>  0 0.12500102E+03</rscale>
<asrwt>0</asrwt>
<pdfrwt beam="2">  1        4 0.11371949E+00 0.12500102E+03</pdfrwt>
<pdfrwt beam="1">  1       -4 0.81302802E-03 0.12500102E+03</pdfrwt>
<totfact> 0.40839549E+03</totfact>
</mgrwt>
</event>
<event>
 5    1  0.3206665E-002  0.1249957E+03  0.7818608E-02  0.1235076E+00
         -4   -1    0    0    0  501 -0.00000000000E+00  0.00000000000E+00  0.47323335859E+02  0.47340374067E+02  0.12700000000E+01 0. -1.
          4   -1    0    0  501    0  0.00000000000E+00 -0.00000000000E+00 -0.82501381404E+02  0.82511155813E+02  0.12700000000E+01 0. -1.
         25    2    1    2    0    0  0.00000000000E+00  0.00000000000E+00 -0.35178045545E+02  0.12985152988E+03  0.12499569962E+03 0.  0.
    9000005    1    3    3    0    0  0.11732585508E+02  0.40088307400E+02 -0.65873166775E+02  0.78006410338E+02  0.10000000000E+01 0.  0.
    9000005    1    3    3    0    0 -0.11732585508E+02 -0.40088307400E+02  0.30695121230E+02  0.51845119541E+02  0.10000000000E+01 0.  0.
<mgrwt>
<rscale>  0 0.12499570E+03</rscale>
<asrwt>0</asrwt>
<pdfrwt beam="2">  1        4 0.12694583E-01 0.12499570E+03</pdfrwt>
<pdfrwt beam="1">  1       -4 0.72825757E-02 0.12499570E+03</pdfrwt>
<totfact> 0.10348689E+04</totfact>
</mgrwt>
</event>
<event>
 5    1  0.3206665E-002  0.1250041E+03  0.7818608E-02  0.1235063E+00
          4   -1    0    0  501    0  0.00000000000E+00  0.00000000000E+00  0.37645761329E+02  0.37667177303E+02  0.12700000000E+01 0. -1.
         -4   -1    0    0    0  501 -0.00000000000E+00 -0.00000000000E+00 -0.10371532305E+03  0.10372309837E+03  0.12700000000E+01 0. -1.
         25    2    1    2    0    0  0.00000000000E+00  0.00000000000E+00 -0.66069561721E+02  0.14139027567E+03  0.12500409221E+03 0.  0.
    9000005    1    3    3    0    0  0.26800863381E+02  0.12674911495E+02  0.29191005401E+02  0.41617958331E+02  0.10000000000E+01 0.  0.
    9000005    1    3    3    0    0 -0.26800863381E+02 -0.12674911495E+02 -0.95260567122E+02  0.99772317342E+02  0.10000000000E+01 0.  0.
<mgrwt>
<rscale>  0 0.12500409E+03</rscale>
<asrwt>0</asrwt>
<pdfrwt beam="1">  1        4 0.57939011E-02 0.12500409E+03</pdfrwt>
<pdfrwt beam="2">  1       -4 0.15958449E-01 0.12500409E+03</pdfrwt>
<totfact> 0.10103921E+04</totfact>
</mgrwt>
</event>
<event>
 5    1  0.3206665E-002  0.1250124E+03  0.7818608E-02  0.1235050E+00
         -4   -1    0    0    0  501 -0.00000000000E+00  0.00000000000E+00  0.51813480539E+02  0.51829042685E+02  0.12700000000E+01 0. -1.
          4   -1    0    0  501    0  0.00000000000E+00 -0.00000000000E+00 -0.75373357846E+02  0.75384056490E+02  0.12700000000E+01 0. -1.
         25    2    1    2    0    0  0.00000000000E+00  0.00000000000E+00 -0.23559877306E+02  0.12721309917E+03  0.12501241851E+03 0.  0.
    9000005    1    3    3    0    0 -0.38882556050E+02 -0.44853702318E+02  0.81172302543E+01  0.59921592132E+02  0.10000000000E+01 0.  0.
    9000005    1    3    3    0    0  0.38882556050E+02  0.44853702318E+02 -0.31677107560E+02  0.67291507043E+02  0.10000000000E+01 0.  0.
<mgrwt>
<rscale>  0 0.12501242E+03</rscale>
<asrwt>0</asrwt>
<pdfrwt beam="2">  1        4 0.11597921E-01 0.12501242E+03</pdfrwt>
<pdfrwt beam="1">  1       -4 0.79733248E-02 0.12501242E+03</pdfrwt>
<totfact> 0.10401603E+04</totfact>
</mgrwt>
</event>
<event>
 5    1  0.3206665E-002  0.1249944E+03  0.7818608E-02  0.1235078E+00
          4   -1    0    0  501    0  0.00000000000E+00  0.00000000000E+00  0.16577948101E+02  0.16626522885E+02  0.12700000000E+01 0.  1.
         -4   -1    0    0    0  501 -0.00000000000E+00 -0.00000000000E+00 -0.23521338492E+03  0.23521681348E+03  0.12700000000E+01 0.  1.
         25    2    1    2    0    0  0.00000000000E+00  0.00000000000E+00 -0.21863543682E+03  0.25184333637E+03  0.12499444724E+03 0.  0.
    9000005    1    3    3    0    0  0.56430830093E+02 -0.32914881303E+01 -0.16299071893E+03  0.17251738155E+03  0.10000000000E+01 0.  0.
    9000005    1    3    3    0    0 -0.56430830093E+02  0.32914881303E+01 -0.55644717885E+02  0.79325954817E+02  0.10000000000E+01 0.  0.
<mgrwt>
<rscale>  0 0.12499445E+03</rscale>
<asrwt>0</asrwt>
<pdfrwt beam="1">  1        4 0.25544540E-02 0.12499445E+03</pdfrwt>
<pdfrwt beam="2">  1       -4 0.36190673E-01 0.12499445E+03</pdfrwt>
<totfact> 0.82074688E+03</totfact>
</mgrwt>
</event>
<event>
 5    1  0.3206665E-002  0.1249989E+03  0.7818608E-02  0.1235071E+00
         -4   -1    0    0    0  501 -0.00000000000E+00  0.00000000000E+00  0.33647522656E+02  0.33671481715E+02  0.12700000000E+01 0.  1.
          4   -1    0    0  501    0  0.00000000000E+00 -0.00000000000E+00 -0.11602241559E+03  0.11602936620E+03  0.12700000000E+01 0.  1.
         25    2    1    2    0    0  0.00000000000E+00  0.00000000000E+00 -0.82374892936E+02  0.14970084791E+03  0.12499888351E+03 0.  0.
    9000005    1    3    3    0    0  0.45127413642E+02 -0.37437379480E+02 -0.15302852067E+02  0.60607079832E+02  0.10000000000E+01 0.  0.
    9000005    1    3    3    0    0 -0.45127413642E+02  0.37437379480E+02 -0.67072040869E+02  0.89093768080E+02  0.10000000000E+01 0.  0.
<mgrwt>
<rscale>  0 0.12499888E+03</rscale>
<asrwt>0</asrwt>
<pdfrwt beam="2">  1        4 0.17851980E-01 0.12499888E+03</pdfrwt>
<pdfrwt beam="1">  1       -4 0.51789197E-02 0.12499888E+03</pdfrwt>
<totfact> 0.99365860E+03</totfact>
</mgrwt>
</event>
<event>
 5    1  0.3206665E-002  0.1250005E+03  0.7818608E-02  0.1235068E+00
          4   -1    0    0  501    0  0.00000000000E+00  0.00000000000E+00  0.57444807654E+01  0.58831929481E+01  0.12700000000E+01 0.  1.
         -4   -1    0    0    0  501 -0.00000000000E+00 -0.00000000000E+00 -0.67175503960E+03  0.67175624011E+03  0.12700000000E+01 0.  1.
         25    2    1    2    0    0  0.00000000000E+00  0.00000000000E+00 -0.66601055883E+03  0.67763943306E+03  0.12500054703E+03 0.  0.
    9000005    1    3    3    0    0 -0.28942980280E+02 -0.16032393492E+02 -0.62040242395E+03  0.62128487941E+03  0.10000000000E+01 0.  0.
    9000005    1    3    3    0    0  0.28942980280E+02  0.16032393492E+02 -0.45608134882E+02  0.56354553640E+02  0.10000000000E+01 0.  0.
<mgrwt>
<rscale>  0 0.12500055E+03</rscale>
<asrwt>0</asrwt>
<pdfrwt beam="1">  1        4 0.89452932E-03 0.12500055E+03</pdfrwt>
<pdfrwt beam="2">  1       -4 0.10335763E+00 0.12500055E+03</pdfrwt>
<totfact> 0.44293151E+03</totfact>
</mgrwt>
</event>
<event>
 5    1  0.3206665E-002  0.1250007E+03  0.7818608E-02  0.1235068E+00
         -4   -1    0    0    0  501 -0.00000000000E+00  0.00000000000E+00  0.18909577994E+01  0.22778545606E+01  0.12700000000E+01 0.  1.
          4   -1    0    0  501    0  0.00000000000E+00 -0.00000000000E+00 -0.18736680146E+04  0.18736684450E+04  0.12700000000E+01 0.  1.
         25    2    1    2    0    0  0.00000000000E+00  0.00000000000E+00 -0.18717770568E+04  0.18759462996E+04  0.12500067406E+03 0.  0.
    9000005    1    3    3    0    0 -0.99075754574E+01 -0.51502344475E+02 -0.14458430628E+04  0.14467943232E+04  0.10000000000E+01 0.  0.
    9000005    1    3    3    0    0  0.99075754574E+01  0.51502344475E+02 -0.42593399403E+03  0.42915197636E+03  0.10000000000E+01 0.  0.
<mgrwt>
<rscale>  0 0.12500067E+03</rscale>
<asrwt>0</asrwt>
<pdfrwt beam="2">  1        4 0.28828507E+00 0.12500067E+03</pdfrwt>
<pdfrwt beam="1">  1       -4 0.32071248E-03 0.12500067E+03</pdfrwt>
<totfact> 0.11568558E+03</totfact>
</mgrwt>
</event>
<event>
 5    1  0.3206665E-002  0.1250012E+03  0.7818608E-02  0.1235067E+00
          4   -1    0    0  501    0  0.00000000000E+00  0.00000000000E+00  0.72480100515E+01  0.73584339167E+01  0.12700000000E+01 0.  1.
         -4   -1    0    0    0  501 -0.00000000000E+00 -0.00000000000E+00 -0.53476607602E+03  0.53476758406E+03  0.12700000000E+01 0.  1.
         25    2    1    2    0    0  0.00000000000E+00  0.00000000000E+00 -0.52751806597E+03  0.54212601798E+03  0.12500123777E+03 0.  0.
    9000005    1    3    3    0    0 -0.30464640397E+01 -0.18390200362E+02 -0.52244898964E+03  0.52278238990E+03  0.10000000000E+01 0.  0.
    9000005    1    3    3    0    0  0.30464640397E+01  0.18390200362E+02 -0.50690763316E+01  0.19343628081E+02  0.10000000000E+01 0.  0.
<mgrwt>
<rscale>  0 0.12500124E+03</rscale>
<asrwt>0</asrwt>
<pdfrwt beam="1">  1        4 0.11236890E-02 0.12500124E+03</pdfrwt>
<pdfrwt beam="2">  1       -4 0.82280283E-01 0.12500124E+03</pdfrwt>
<totfact> 0.52736479E+03</totfact>
</mgrwt>
</event>
<event>
 5    1  0.3206665E-002  0.1249988E+03  0.7818608E-02  0.1235071E+00
          4   -1    0    0  501    0  0.00000000000E+00  0.00000000000E+00  0.96284003895E+01  0.97117966443E+01  0.12700000000E+01 0. -1.
         -4   -1    0    0    0  501 -0.00000000000E+00 -0.00000000000E+00 -0.40385916111E+03  0.40386115796E+03  0.12700000000E+01 0. -1.
         25    2    1    2    0    0  0.00000000000E+00  0.00000000000E+00 -0.39423076072E+03  0.41357295461E+03  0.12499878434E+03 0.  0.
    9000005    1    3    3    0    0 -0.33070606939E+02  0.40230588258E+02 -0.31139483391E+03  0.31572125025E+03  0.10000000000E+01 0.  0.
    9000005    1    3    3    0    0  0.33070606939E+02 -0.40230588258E+02 -0.82835926810E+02  0.97851704356E+02  0.10000000000E+01 0.  0.
<mgrwt>
<rscale>  0 0.12499878E+03</rscale>
<asrwt>0</asrwt>
<pdfrwt beam="1">  1        4 0.14878614E-02 0.12499878E+03</pdfrwt>
<pdfrwt beam="2">  1       -4 0.62138734E-01 0.12499878E+03</pdfrwt>
<totfact> 0.63255468E+03</totfact>
</mgrwt>
</event>
<event>
 5    1  0.3206665E-002  0.1250001E+03  0.7818608E-02  0.1235069E+00
          4   -1    0    0  501    0  0.00000000000E+00  0.00000000000E+00  0.11272118694E+02  0.11343436863E+02  0.12700000000E+01 0. -1.
         -4   -1    0    0    0  501 -0.00000000000E+00 -0.00000000000E+00 -0.34537617080E+03  0.34537850578E+03  0.12700000000E+01 0. -1.
         25    2    1    2    0    0  0.00000000000E+00  0.00000000000E+00 -0.33410405210E+03  0.35672194264E+03  0.12500010692E+03 0.  0.
    9000005    1    3    3    0    0  0.15289282467E+02  0.16379124442E+01  0.58030569931E+01  0.16465733692E+02  0.10000000000E+01 0.  0.
    9000005    1    3    3    0    0 -0.15289282467E+02 -0.16379124442E+01 -0.33990710910E+03  0.34025620895E+03  0.10000000000E+01 0.  0.
<mgrwt>
<rscale>  0 0.12500011E+03</rscale>
<asrwt>0</asrwt>
<pdfrwt beam="1">  1        4 0.17398380E-02 0.12500011E+03</pdfrwt>
<pdfrwt beam="2">  1       -4 0.53140453E-01 0.12500011E+03</pdfrwt>
<totfact> 0.68991176E+03</totfact>
</mgrwt>
</event>
<event>
 5    1  0.3206665E-002  0.1250004E+03  0.7818608E-02  0.1235069E+00
          4   -1    0    0  501    0  0.00000000000E+00  0.00000000000E+00  0.25600420287E+02  0.25631902366E+02  0.12700000000E+01 0.  1.
         -4   -1    0    0    0  501 -0.00000000000E+00 -0.00000000000E+00 -0.15245853571E+03  0.15246382526E+03  0.12700000000E+01 0.  1.
         25    2    1    2    0    0  0.00000000000E+00  0.00000000000E+00 -0.12685811542E+03  0.17809572762E+03  0.12500042699E+03 0.  0.
    9000005    1    3    3    0    0 -0.25636197078E+02 -0.56956885573E+02 -0.66269758124E+02  0.91071303146E+02  0.10000000000E+01 0.  0.
    9000005    1    3    3    0    0  0.25636197078E+02  0.56956885573E+02 -0.60588357301E+02  0.87024424475E+02  0.10000000000E+01 0.  0.
<mgrwt>
<rscale>  0 0.12500043E+03</rscale>
<asrwt>0</asrwt>
<pdfrwt beam="1">  1        4 0.39413549E-02 0.12500043E+03</pdfrwt>
<pdfrwt beam="2">  1       -4 0.23457987E-01 0.12500043E+03</pdfrwt>
<totfact> 0.93960006E+03</totfact>
</mgrwt>
</event>
<event>
 5    1  0.3206665E-002  0.1250079E+03  0.7818608E-02  0.1235057E+00
          4   -1    0    0  501    0  0.00000000000E+00  0.00000000000E+00  0.10235149745E+02  0.10313640982E+02  0.12700000000E+01 0. -1.
         -4   -1    0    0    0  501 -0.00000000000E+00 -0.00000000000E+00 -0.38016114095E+03  0.38016326228E+03  0.12700000000E+01 0. -1.
         25    2    1    2    0    0  0.00000000000E+00  0.00000000000E+00 -0.36992599120E+03  0.39047690326E+03  0.12500789180E+03 0.  0.
    9000005    1    3    3    0    0  0.26089223793E+02  0.38036429815E+02 -0.53239402972E+02  0.70447509679E+02  0.10000000000E+01 0.  0.
    9000005    1    3    3    0    0 -0.26089223793E+02 -0.38036429815E+02 -0.31668658823E+03  0.32002939358E+03  0.10000000000E+01 0.  0.
<mgrwt>
<rscale>  0 0.12500789E+03</rscale>
<asrwt>0</asrwt>
<pdfrwt beam="1">  1        4 0.15808397E-02 0.12500789E+03</pdfrwt>
<pdfrwt beam="2">  1       -4 0.58492520E-01 0.12500789E+03</pdfrwt>
<totfact> 0.65478244E+03</totfact>
</mgrwt>
</event>
<event>
 5    1  0.3206665E-002  0.1250207E+03  0.7818608E-02  0.1235037E+00
         -4   -1    0    0    0  501 -0.00000000000E+00  0.00000000000E+00  0.12644662624E+03  0.12645300386E+03  0.12700000000E+01 0.  1.
          4   -1    0    0  501    0  0.00000000000E+00 -0.00000000000E+00 -0.30882505532E+02  0.30908607991E+02  0.12700000000E+01 0.  1.
         25    2    1    2    0    0  0.00000000000E+00  0.00000000000E+00  0.95564120703E+02  0.15736161186E+03  0.12502070117E+03 0.  0.
    9000005    1    3    3    0    0  0.52943498540E+02 -0.25866255541E+01  0.89467881302E+02  0.10399618481E+03  0.10000000000E+01 0.  0.
    9000005    1    3    3    0    0 -0.52943498540E+02  0.25866255541E+01  0.60962394008E+01  0.53365427050E+02  0.10000000000E+01 0.  0.
<mgrwt>
<rscale>  0 0.12502070E+03</rscale>
<asrwt>0</asrwt>
<pdfrwt beam="2">  1        4 0.47536531E-02 0.12502070E+03</pdfrwt>
<pdfrwt beam="1">  1       -4 0.19455826E-01 0.12502070E+03</pdfrwt>
<totfact> 0.97808338E+03</totfact>
</mgrwt>
</event>
<event>
 5    1  0.3206665E-002  0.1250045E+03  0.7818608E-02  0.1235062E+00
         -4   -1    0    0    0  501 -0.00000000000E+00  0.00000000000E+00  0.46808919887E+02  0.46826145271E+02  0.12700000000E+01 0. -1.
          4   -1    0    0  501    0  0.00000000000E+00 -0.00000000000E+00 -0.83419582102E+02  0.83429248936E+02  0.12700000000E+01 0. -1.
         25    2    1    2    0    0  0.00000000000E+00  0.00000000000E+00 -0.36610662215E+02  0.13025539421E+03  0.12500450845E+03 0.  0.
    9000005    1    3    3    0    0 -0.33396510994E+02  0.45267714199E+02  0.10060175240E+02  0.57155052456E+02  0.10000000000E+01 0.  0.
    9000005    1    3    3    0    0  0.33396510994E+02 -0.45267714199E+02 -0.46670837455E+02  0.73100341751E+02  0.10000000000E+01 0.  0.
<mgrwt>
<rscale>  0 0.12500451E+03</rscale>
<asrwt>0</asrwt>
<pdfrwt beam="2">  1        4 0.12835850E-01 0.12500451E+03</pdfrwt>
<pdfrwt beam="1">  1       -4 0.72034409E-02 0.12500451E+03</pdfrwt>
<totfact> 0.10337995E+04</totfact>
</mgrwt>
</event>
<event>
 5    1  0.3206665E-002  0.1250013E+03  0.7818608E-02  0.1235067E+00
         -4   -1    0    0    0  501 -0.00000000000E+00  0.00000000000E+00  0.39233756804E+01  0.41238060975E+01  0.12700000000E+01 0. -1.
          4   -1    0    0  501    0  0.00000000000E+00 -0.00000000000E+00 -0.97065662711E+03  0.97065745794E+03  0.12700000000E+01 0. -1.
         25    2    1    2    0    0  0.00000000000E+00  0.00000000000E+00 -0.96673325143E+03  0.97478126403E+03  0.12500133318E+03 0.  0.
    9000005    1    3    3    0    0 -0.45657331664E+02  0.42564885787E+02 -0.50672456038E+03  0.51055571833E+03  0.10000000000E+01 0.  0.
    9000005    1    3    3    0    0  0.45657331664E+02 -0.42564885787E+02 -0.46000869105E+03  0.46422554570E+03  0.10000000000E+01 0.  0.
<mgrwt>
<rscale>  0 0.12500133E+03</rscale>
<asrwt>0</asrwt>
<pdfrwt beam="2">  1        4 0.14934708E+00 0.12500133E+03</pdfrwt>
<pdfrwt beam="1">  1       -4 0.61907867E-03 0.12500133E+03</pdfrwt>
<totfact> 0.31451281E+03</totfact>
</mgrwt>
</event>
<event>
 5    1  0.3206665E-002  0.1249876E+03  0.7818608E-02  0.1235089E+00
          4   -1    0    0  501    0  0.00000000000E+00  0.00000000000E+00  0.55810156458E+02  0.55824604467E+02  0.12700000000E+01 0. -1.
         -4   -1    0    0    0  501 -0.00000000000E+00 -0.00000000000E+00 -0.69948544584E+02  0.69960072823E+02  0.12700000000E+01 0. -1.
         25    2    1    2    0    0  0.00000000000E+00  0.00000000000E+00 -0.14138388125E+02  0.12578467729E+03  0.12498756347E+03 0.  0.
    9000005    1    3    3    0    0 -0.51609555835E+02  0.29263727074E+02  0.12666092316E+02  0.60674062583E+02  0.10000000000E+01 0.  0.
    9000005    1    3    3    0    0  0.51609555835E+02 -0.29263727074E+02 -0.26804480441E+02  0.65110614707E+02  0.10000000000E+01 0.  0.
<mgrwt>
<rscale>  0 0.12498756E+03</rscale>
<asrwt>0</asrwt>
<pdfrwt beam="1">  1        4 0.85881760E-02 0.12498756E+03</pdfrwt>
<pdfrwt beam="2">  1       -4 0.10763313E-01 0.12498756E+03</pdfrwt>
<totfact> 0.10438611E+04</totfact>
</mgrwt>
</event>
<event>
 5    1  0.3206665E-002  0.1249986E+03  0.7818608E-02  0.1235071E+00
         -4   -1    0    0    0  501 -0.00000000000E+00  0.00000000000E+00  0.28125842121E+03  0.28126128849E+03  0.12700000000E+01 0. -1.
          4   -1    0    0  501    0  0.00000000000E+00 -0.00000000000E+00 -0.13856182176E+02  0.13914261910E+02  0.12700000000E+01 0. -1.
         25    2    1    2    0    0  0.00000000000E+00  0.00000000000E+00  0.26740223903E+03  0.29517555040E+03  0.12499859244E+03 0.  0.
    9000005    1    3    3    0    0  0.29075783294E+02 -0.87044476036E+01  0.26269651001E+03  0.26444588284E+03  0.10000000000E+01 0.  0.
    9000005    1    3    3    0    0 -0.29075783294E+02  0.87044476036E+01  0.47057290243E+01  0.30729667553E+02  0.10000000000E+01 0.  0.
<mgrwt>
<rscale>  0 0.12499859E+03</rscale>
<asrwt>0</asrwt>
<pdfrwt beam="2">  1        4 0.21364087E-02 0.12499859E+03</pdfrwt>
<pdfrwt beam="1">  1       -4 0.43275212E-01 0.12499859E+03</pdfrwt>
<totfact> 0.76210404E+03</totfact>
</mgrwt>
</event>
<event>
 5    1  0.3206665E-002  0.1249922E+03  0.7818608E-02  0.1235082E+00
          4   -1    0    0  501    0  0.00000000000E+00  0.00000000000E+00  0.62013700727E+03  0.62013830771E+03  0.12700000000E+01 0.  1.
         -4   -1    0    0    0  501 -0.00000000000E+00 -0.00000000000E+00 -0.62328780754E+01  0.63609487580E+01  0.12700000000E+01 0.  1.
         25    2    1    2    0    0  0.00000000000E+00  0.00000000000E+00  0.61390412919E+03  0.62649925646E+03  0.12499215379E+03 0.  0.
    9000005    1    3    3    0    0 -0.49414406122E+02  0.38934262979E+00  0.11524685188E+03  0.12539845289E+03  0.10000000000E+01 0.  0.
    9000005    1    3    3    0    0  0.49414406122E+02 -0.38934262979E+00  0.49865727732E+03  0.50110080357E+03  0.10000000000E+01 0.  0.
<mgrwt>
<rscale>  0 0.12499215E+03</rscale>
<asrwt>0</asrwt>
<pdfrwt beam="1">  1        4 0.95415626E-01 0.12499215E+03</pdfrwt>
<pdfrwt beam="2">  1       -4 0.96885614E-03 0.12499215E+03</pdfrwt>
<totfact> 0.47244644E+03</totfact>
</mgrwt>
</event>
<event>
 5    1  0.3206665E-002  0.1250006E+03  0.7818608E-02  0.1235068E+00
         -4   -1    0    0    0  501 -0.00000000000E+00  0.00000000000E+00  0.48819963078E+02  0.48836479141E+02  0.12700000000E+01 0. -1.
          4   -1    0    0  501    0  0.00000000000E+00 -0.00000000000E+00 -0.79979080900E+02  0.79989163527E+02  0.12700000000E+01 0. -1.
         25    2    1    2    0    0  0.00000000000E+00  0.00000000000E+00 -0.31159117822E+02  0.12882564267E+03  0.12500062234E+03 0.  0.
    9000005    1    3    3    0    0 -0.19575153544E+02 -0.58211421782E+02 -0.27488793517E+02  0.67293313421E+02  0.10000000000E+01 0.  0.
    9000005    1    3    3    0    0  0.19575153544E+02  0.58211421782E+02 -0.36703243058E+01  0.61532329247E+02  0.10000000000E+01 0.  0.
<mgrwt>
<rscale>  0 0.12500062E+03</rscale>
<asrwt>0</asrwt>
<pdfrwt beam="2">  1        4 0.12306520E-01 0.12500062E+03</pdfrwt>
<pdfrwt beam="1">  1       -4 0.75128096E-02 0.12500062E+03</pdfrwt>
<totfact> 0.10369549E+04</totfact>
</mgrwt>
</event>
<event>
 5    1  0.3206665E-002  0.1249914E+03  0.7818608E-02  0.1235083E+00
          4   -1    0    0  501    0  0.00000000000E+00  0.00000000000E+00  0.45125623890E+03  0.45125802602E+03  0.12700000000E+01 0. -1.
         -4   -1    0    0    0  501 -0.00000000000E+00 -0.00000000000E+00 -0.86068025846E+01  0.86999971684E+01  0.12700000000E+01 0. -1.
         25    2    1    2    0    0  0.00000000000E+00  0.00000000000E+00  0.44264943631E+03  0.45995802319E+03  0.12499143820E+03 0.  0.
    9000005    1    3    3    0    0 -0.50996877512E+02 -0.33594603265E+02  0.27006604175E+03  0.27688616034E+03  0.10000000000E+01 0.  0.
    9000005    1    3    3    0    0  0.50996877512E+02  0.33594603265E+02  0.17258339457E+03  0.18307186284E+03  0.10000000000E+01 0.  0.
<mgrwt>
<rscale>  0 0.12499144E+03</rscale>
<asrwt>0</asrwt>
<pdfrwt beam="1">  1        4 0.69431325E-01 0.12499144E+03</pdfrwt>
<pdfrwt beam="2">  1       -4 0.13314301E-02 0.12499144E+03</pdfrwt>
<totfact> 0.59121889E+03</totfact>
</mgrwt>
</event>
<event>
 5    1  0.3206665E-002  0.1249986E+03  0.7818608E-02  0.1235071E+00
          4   -1    0    0  501    0  0.00000000000E+00  0.00000000000E+00  0.39360603448E+03  0.39360808335E+03  0.12700000000E+01 0.  1.
         -4   -1    0    0    0  501 -0.00000000000E+00 -0.00000000000E+00 -0.98813265481E+01  0.99626058012E+01  0.12700000000E+01 0.  1.
         25    2    1    2    0    0  0.00000000000E+00  0.00000000000E+00  0.38372470793E+03  0.40357068915E+03  0.12499859865E+03 0.  0.
    9000005    1    3    3    0    0 -0.46842315439E+02  0.27275028098E+02  0.29226266582E+03  0.29724837343E+03  0.10000000000E+01 0.  0.
    9000005    1    3    3    0    0  0.46842315439E+02 -0.27275028098E+02  0.91462042106E+02  0.10632231572E+03  0.10000000000E+01 0.  0.
<mgrwt>
<rscale>  0 0.12499860E+03</rscale>
<asrwt>0</asrwt>
<pdfrwt beam="1">  1        4 0.60561188E-01 0.12499860E+03</pdfrwt>
<pdfrwt beam="2">  1       -4 0.15266139E-02 0.12499860E+03</pdfrwt>
<totfact> 0.64208966E+03</totfact>
</mgrwt>
</event>
<event>
 5    1  0.3206665E-002  0.1249983E+03  0.7818608E-02  0.1235072E+00
          4   -1    0    0  501    0  0.00000000000E+00  0.00000000000E+00  0.95613861595E+02  0.95622295669E+02  0.12700000000E+01 0. -1.
         -4   -1    0    0    0  501 -0.00000000000E+00 -0.00000000000E+00 -0.40833189528E+02  0.40852934620E+02  0.12700000000E+01 0. -1.
         25    2    1    2    0    0  0.00000000000E+00  0.00000000000E+00  0.54780672067E+02  0.13647523029E+03  0.12499826579E+03 0.  0.
    9000005    1    3    3    0    0  0.26294874480E+01  0.55811188975E+02  0.57948313764E+02  0.80503478727E+02  0.10000000000E+01 0.  0.
    9000005    1    3    3    0    0 -0.26294874480E+01 -0.55811188975E+02 -0.31676416972E+01  0.55971751562E+02  0.10000000000E+01 0.  0.
<mgrwt>
<rscale>  0 0.12499827E+03</rscale>
<asrwt>0</asrwt>
<pdfrwt beam="1">  1        4 0.14711992E-01 0.12499827E+03</pdfrwt>
<pdfrwt beam="2">  1       -4 0.62841968E-02 0.12499827E+03</pdfrwt>
<totfact> 0.10207469E+04</totfact>
</mgrwt>
</event>
<event>
 4    1  0.3206665E-002  0.1249059E+03  0.7818608E-02  0.1235216E+00
         -4   -1    0    0    0  501 -0.00000000000E+00  0.00000000000E+00  0.19595563011E+03  0.19595974554E+03  0.12700000000E+01 0.  1.
          4   -1    0    0  501    0  0.00000000000E+00 -0.00000000000E+00 -0.19879762785E+02  0.19920287859E+02  0.12700000000E+01 0.  1.
    9000005    1    1    2    0    0  0.53507110115E+02  0.32132180264E+02  0.84632793457E+02  0.10516271949E+03  0.10000000000E+01 0.  0.
    9000005    1    1    2    0    0 -0.53507110115E+02 -0.32132180264E+02  0.91443073869E+02  0.11071731391E+03  0.10000000000E+01 0.  0.
<mgrwt>
<rscale>  0 0.12490588E+03</rscale>
<asrwt>0</asrwt>
<pdfrwt beam="2">  1        4 0.30618589E-02 0.12490588E+03</pdfrwt>
<pdfrwt beam="1">  1       -4 0.30150454E-01 0.12490588E+03</pdfrwt>
<totfact> 0.87708843E+03</totfact>
</mgrwt>
</event>
<event>
 5    1  0.3206665E-002  0.1249968E+03  0.7818608E-02  0.1235074E+00
         -4   -1    0    0    0  501 -0.00000000000E+00  0.00000000000E+00  0.33887956099E+03  0.33888194074E+03  0.12700000000E+01 0.  1.
          4   -1    0    0  501    0  0.00000000000E+00 -0.00000000000E+00 -0.11488961957E+02  0.11558942290E+02  0.12700000000E+01 0.  1.
         25    2    1    2    0    0  0.00000000000E+00  0.00000000000E+00  0.32739059904E+03  0.35044088303E+03  0.12499683260E+03 0.  0.
    9000005    1    3    3    0    0 -0.43115228544E+02 -0.43195761177E+01  0.37456453529E+02  0.57284968196E+02  0.10000000000E+01 0.  0.
    9000005    1    3    3    0    0  0.43115228544E+02  0.43195761177E+01  0.28993414551E+03  0.29315591483E+03  0.10000000000E+01 0.  0.
<mgrwt>
<rscale>  0 0.12499683E+03</rscale>
<asrwt>0</asrwt>
<pdfrwt beam="2">  1        4 0.17730987E-02 0.12499683E+03</pdfrwt>
<pdfrwt beam="1">  1       -4 0.52140887E-01 0.12499683E+03</pdfrwt>
<totfact> 0.69680960E+03</totfact>
</mgrwt>
</event>
<event>
 5    1  0.3206665E-002  0.1249996E+03  0.7818608E-02  0.1235070E+00
         -4   -1    0    0    0  501 -0.00000000000E+00  0.00000000000E+00  0.13352010155E+03  0.13352614133E+03  0.12700000000E+01 0. -1.
          4   -1    0    0  501    0  0.00000000000E+00 -0.00000000000E+00 -0.29235220868E+02  0.29262792745E+02  0.12700000000E+01 0. -1.
         25    2    1    2    0    0  0.00000000000E+00  0.00000000000E+00  0.10428488068E+03  0.16278893408E+03  0.12499960287E+03 0.  0.
    9000005    1    3    3    0    0  0.28850401281E+02 -0.29818369872E+02 -0.87154849528E+01  0.42408024168E+02  0.10000000000E+01 0.  0.
    9000005    1    3    3    0    0 -0.28850401281E+02  0.29818369872E+02  0.11300036564E+03  0.12038090991E+03  0.10000000000E+01 0.  0.
<mgrwt>
<rscale>  0 0.12499960E+03</rscale>
<asrwt>0</asrwt>
<pdfrwt beam="2">  1        4 0.45003118E-02 0.12499960E+03</pdfrwt>
<pdfrwt beam="1">  1       -4 0.20544140E-01 0.12499960E+03</pdfrwt>
<totfact> 0.96808643E+03</totfact>
</mgrwt>
</event>
<event>
 5    1  0.3206665E-002  0.1249871E+03  0.7818608E-02  0.1235089E+00
         -4   -1    0    0    0  501 -0.00000000000E+00  0.00000000000E+00  0.19189632570E+02  0.19231611949E+02  0.12700000000E+01 0.  1.
          4   -1    0    0  501    0  0.00000000000E+00 -0.00000000000E+00 -0.20325199320E+03  0.20325596090E+03  0.12700000000E+01 0.  1.
         25    2    1    2    0    0  0.00000000000E+00  0.00000000000E+00 -0.18406236063E+03  0.22248757285E+03  0.12498706921E+03 0.  0.
    9000005    1    3    3    0    0 -0.27751338220E+02  0.51316160800E+02 -0.13187314844E+03  0.14420475863E+03  0.10000000000E+01 0.  0.
    9000005    1    3    3    0    0  0.27751338220E+02 -0.51316160800E+02 -0.52189212191E+02  0.78282814215E+02  0.10000000000E+01 0.  0.
<mgrwt>
<rscale>  0 0.12498707E+03</rscale>
<asrwt>0</asrwt>
<pdfrwt beam="2">  1        4 0.31273070E-01 0.12498707E+03</pdfrwt>
<pdfrwt beam="1">  1       -4 0.29557857E-02 0.12498707E+03</pdfrwt>
<totfact> 0.86501225E+03</totfact>
</mgrwt>
</event>
<event>
 5    1  0.3206665E-002  0.1250030E+03  0.7818608E-02  0.1235065E+00
         -4   -1    0    0    0  501 -0.00000000000E+00  0.00000000000E+00  0.43887049009E+02  0.43905420744E+02  0.12700000000E+01 0. -1.
          4   -1    0    0  501    0  0.00000000000E+00 -0.00000000000E+00 -0.88969618534E+02  0.88978682403E+02  0.12700000000E+01 0. -1.
         25    2    1    2    0    0  0.00000000000E+00  0.00000000000E+00 -0.45082569525E+02  0.13288410315E+03  0.12500298714E+03 0.  0.
    9000005    1    3    3    0    0 -0.62120111666E+02  0.53958290603E+01 -0.18105248389E+02  0.64937071569E+02  0.10000000000E+01 0.  0.
    9000005    1    3    3    0    0  0.62120111666E+02 -0.53958290603E+01 -0.26977321136E+02  0.67947031578E+02  0.10000000000E+01 0.  0.
<mgrwt>
<rscale>  0 0.12500299E+03</rscale>
<asrwt>0</asrwt>
<pdfrwt beam="2">  1        4 0.13689744E-01 0.12500299E+03</pdfrwt>
<pdfrwt beam="1">  1       -4 0.67539641E-02 0.12500299E+03</pdfrwt>
<totfact> 0.10282171E+04</totfact>
</mgrwt>
</event>
<event>
 5    1  0.3206665E-002  0.1249977E+03  0.7818608E-02  0.1235073E+00
         -4   -1    0    0    0  501 -0.00000000000E+00  0.00000000000E+00  0.20507543239E+02  0.20546830161E+02  0.12700000000E+01 0.  1.
          4   -1    0    0  501    0  0.00000000000E+00 -0.00000000000E+00 -0.19024790799E+03  0.19025214689E+03  0.12700000000E+01 0.  1.
         25    2    1    2    0    0  0.00000000000E+00  0.00000000000E+00 -0.16974036475E+03  0.21079897705E+03  0.12499766917E+03 0.  0.
    9000005    1    3    3    0    0  0.30620022261E+02  0.20882022025E+02 -0.20133915114E-01  0.37076205476E+02  0.10000000000E+01 0.  0.
    9000005    1    3    3    0    0 -0.30620022261E+02 -0.20882022025E+02 -0.16972023084E+03  0.17372277157E+03  0.10000000000E+01 0.  0.
<mgrwt>
<rscale>  0 0.12499767E+03</rscale>
<asrwt>0</asrwt>
<pdfrwt beam="2">  1        4 0.29272256E-01 0.12499767E+03</pdfrwt>
<pdfrwt beam="1">  1       -4 0.31583549E-02 0.12499767E+03</pdfrwt>
<totfact> 0.88350168E+03</totfact>
</mgrwt>
</event>
<event>
 5    1  0.3206665E-002  0.1250073E+03  0.7818608E-02  0.1235058E+00
         -4   -1    0    0    0  501 -0.00000000000E+00  0.00000000000E+00  0.85825181297E+02  0.85834577209E+02  0.12700000000E+01 0.  1.
          4   -1    0    0  501    0  0.00000000000E+00 -0.00000000000E+00 -0.45498607665E+02  0.45516328932E+02  0.12700000000E+01 0.  1.
         25    2    1    2    0    0  0.00000000000E+00  0.00000000000E+00  0.40326573632E+02  0.13135090614E+03  0.12500731180E+03 0.  0.
    9000005    1    3    3    0    0 -0.30721009199E+02  0.54407432410E+02  0.21556424066E+02  0.66103165780E+02  0.10000000000E+01 0.  0.
    9000005    1    3    3    0    0  0.30721009199E+02 -0.54407432410E+02  0.18770149566E+02  0.65247740362E+02  0.10000000000E+01 0.  0.
<mgrwt>
<rscale>  0 0.12500731E+03</rscale>
<asrwt>0</asrwt>
<pdfrwt beam="2">  1        4 0.70018718E-02 0.12500731E+03</pdfrwt>
<pdfrwt beam="1">  1       -4 0.13205960E-01 0.12500731E+03</pdfrwt>
<totfact> 0.10313871E+04</totfact>
</mgrwt>
</event>
<event>
 5    1  0.3206665E-002  0.1249987E+03  0.7818608E-02  0.1235071E+00
         -4   -1    0    0    0  501 -0.00000000000E+00  0.00000000000E+00  0.89123160360E+02  0.89132208615E+02  0.12700000000E+01 0. -1.
          4   -1    0    0  501    0  0.00000000000E+00 -0.00000000000E+00 -0.43808415644E+02  0.43826820342E+02  0.12700000000E+01 0. -1.
         25    2    1    2    0    0  0.00000000000E+00  0.00000000000E+00  0.45314744716E+02  0.13295902896E+03  0.12499870916E+03 0.  0.
    9000005    1    3    3    0    0 -0.97932804641E+01  0.31521448105E+01 -0.42906640549E+02  0.44134160946E+02  0.10000000000E+01 0.  0.
    9000005    1    3    3    0    0  0.97932804641E+01 -0.31521448105E+01  0.88221385265E+02  0.88824868011E+02  0.10000000000E+01 0.  0.
<mgrwt>
<rscale>  0 0.12499871E+03</rscale>
<asrwt>0</asrwt>
<pdfrwt beam="2">  1        4 0.67418680E-02 0.12499871E+03</pdfrwt>
<pdfrwt beam="1">  1       -4 0.13713367E-01 0.12499871E+03</pdfrwt>
<totfact> 0.10281570E+04</totfact>
</mgrwt>
</event>
<event>
 5    1  0.3206665E-002  0.1250008E+03  0.7818608E-02  0.1235068E+00
         -4   -1    0    0    0  501 -0.00000000000E+00  0.00000000000E+00  0.40652537579E+02  0.40672370371E+02  0.12700000000E+01 0. -1.
          4   -1    0    0  501    0  0.00000000000E+00 -0.00000000000E+00 -0.96042421461E+02  0.96050817905E+02  0.12700000000E+01 0. -1.
         25    2    1    2    0    0  0.00000000000E+00  0.00000000000E+00 -0.55389883882E+02  0.13672318828E+03  0.12500076390E+03 0.  0.
    9000005    1    3    3    0    0  0.69844513206E+01  0.20325503170E+02 -0.91878318489E+02  0.94363838666E+02  0.10000000000E+01 0.  0.
    9000005    1    3    3    0    0 -0.69844513206E+01 -0.20325503170E+02  0.36488434607E+02  0.42359349610E+02  0.10000000000E+01 0.  0.
<mgrwt>
<rscale>  0 0.12500076E+03</rscale>
<asrwt>0</asrwt>
<pdfrwt beam="2">  1        4 0.14777929E-01 0.12500076E+03</pdfrwt>
<pdfrwt beam="1">  1       -4 0.62564081E-02 0.12500076E+03</pdfrwt>
<totfact> 0.10201701E+04</totfact>
</mgrwt>
</event>
<event>
 5    1  0.3206665E-002  0.1250008E+03  0.7818608E-02  0.1235068E+00
         -4   -1    0    0    0  501 -0.00000000000E+00  0.00000000000E+00  0.52758174342E+01  0.54265227908E+01  0.12700000000E+01 0.  1.
          4   -1    0    0  501    0  0.00000000000E+00 -0.00000000000E+00 -0.72983826245E+03  0.72983936742E+03  0.12700000000E+01 0.  1.
         25    2    1    2    0    0  0.00000000000E+00  0.00000000000E+00 -0.72456244502E+03  0.73526589021E+03  0.12500077032E+03 0.  0.
    9000005    1    3    3    0    0 -0.32732537806E+02  0.53105179863E+02 -0.34049445849E+03  0.34616333633E+03  0.10000000000E+01 0.  0.
    9000005    1    3    3    0    0  0.32732537806E+02 -0.53105179863E+02 -0.38406798653E+03  0.38910255388E+03  0.10000000000E+01 0.  0.
<mgrwt>
<rscale>  0 0.12500077E+03</rscale>
<asrwt>0</asrwt>
<pdfrwt beam="2">  1        4 0.11229441E+00 0.12500077E+03</pdfrwt>
<pdfrwt beam="1">  1       -4 0.82334252E-03 0.12500077E+03</pdfrwt>
<totfact> 0.41288309E+03</totfact>
</mgrwt>
</event>
<event>
 5    1  0.3206665E-002  0.1249997E+03  0.7818608E-02  0.1235070E+00
         -4   -1    0    0    0  501 -0.00000000000E+00  0.00000000000E+00  0.16923091970E+03  0.16923568502E+03  0.12700000000E+01 0.  1.
          4   -1    0    0  501    0  0.00000000000E+00 -0.00000000000E+00 -0.23059697850E+02  0.23094643642E+02  0.12700000000E+01 0.  1.
         25    2    1    2    0    0  0.00000000000E+00  0.00000000000E+00  0.14617122185E+03  0.19233032866E+03  0.12499971690E+03 0.  0.
    9000005    1    3    3    0    0 -0.52672791915E+02 -0.33692305636E+01  0.12456608833E+03  0.13529037321E+03  0.10000000000E+01 0.  0.
    9000005    1    3    3    0    0  0.52672791915E+02  0.33692305636E+01  0.21605133523E+02  0.57039955445E+02  0.10000000000E+01 0.  0.
<mgrwt>
<rscale>  0 0.12499972E+03</rscale>
<asrwt>0</asrwt>
<pdfrwt beam="2">  1        4 0.35507005E-02 0.12499972E+03</pdfrwt>
<pdfrwt beam="1">  1       -4 0.26038581E-01 0.12499972E+03</pdfrwt>
<totfact> 0.91443998E+03</totfact>
</mgrwt>
</event>
<event>
 5    1  0.3206665E-002  0.1250043E+03  0.7818608E-02  0.1235063E+00
         -4   -1    0    0    0  501 -0.00000000000E+00  0.00000000000E+00  0.80492625963E+01  0.81488360116E+01  0.12700000000E+01 0. -1.
          4   -1    0    0  501    0  0.00000000000E+00 -0.00000000000E+00 -0.48224231175E+03  0.48224398404E+03  0.12700000000E+01 0. -1.
         25    2    1    2    0    0  0.00000000000E+00  0.00000000000E+00 -0.47419304915E+03  0.49039282005E+03  0.12500428029E+03 0.  0.
    9000005    1    3    3    0    0  0.59939886545E+02 -0.16310106455E+02 -0.21028542482E+03  0.21927099549E+03  0.10000000000E+01 0.  0.
    9000005    1    3    3    0    0 -0.59939886545E+02  0.16310106455E+02 -0.26390762433E+03  0.27112182456E+03  0.10000000000E+01 0.  0.
<mgrwt>
<rscale>  0 0.12500428E+03</rscale>
<asrwt>0</asrwt>
<pdfrwt beam="2">  1        4 0.74198891E-01 0.12500428E+03</pdfrwt>
<pdfrwt beam="1">  1       -4 0.12461366E-02 0.12500428E+03</pdfrwt>
<totfact> 0.56612226E+03</totfact>
</mgrwt>
</event>
<event>
 5    1  0.3206665E-002  0.1250004E+03  0.7818608E-02  0.1235069E+00
         -4   -1    0    0    0  501 -0.00000000000E+00  0.00000000000E+00  0.38902010714E+03  0.38902218016E+03  0.12700000000E+01 0.  1.
          4   -1    0    0  501    0  0.00000000000E+00 -0.00000000000E+00 -0.99990553596E+01  0.10079385303E+02  0.12700000000E+01 0.  1.
         25    2    1    2    0    0  0.00000000000E+00  0.00000000000E+00  0.37902105178E+03  0.39910156546E+03  0.12500040746E+03 0.  0.
    9000005    1    3    3    0    0  0.52986170175E+02 -0.33042661411E+02  0.18173963426E+03  0.19217087803E+03  0.10000000000E+01 0.  0.
    9000005    1    3    3    0    0 -0.52986170175E+02  0.33042661411E+02  0.19728141752E+03  0.20693068743E+03  0.10000000000E+01 0.  0.
<mgrwt>
<rscale>  0 0.12500041E+03</rscale>
<asrwt>0</asrwt>
<pdfrwt beam="2">  1        4 0.15446552E-02 0.12500041E+03</pdfrwt>
<pdfrwt beam="1">  1       -4 0.59855574E-01 0.12500041E+03</pdfrwt>
<totfact> 0.64639688E+03</totfact>
</mgrwt>
</event>
<event>
 5    1  0.3206665E-002  0.1249976E+03  0.7818608E-02  0.1235073E+00
         -4   -1    0    0    0  501 -0.00000000000E+00  0.00000000000E+00  0.25073564109E+02  0.25105706864E+02  0.12700000000E+01 0. -1.
          4   -1    0    0  501    0  0.00000000000E+00 -0.00000000000E+00 -0.15565097883E+03  0.15565615989E+03  0.12700000000E+01 0. -1.
         25    2    1    2    0    0  0.00000000000E+00  0.00000000000E+00 -0.13057741472E+03  0.18076186675E+03  0.12499756492E+03 0.  0.
    9000005    1    3    3    0    0 -0.36491320946E+01  0.22409407137E+02  0.18904973728E+02  0.29561727367E+02  0.10000000000E+01 0.  0.
    9000005    1    3    3    0    0  0.36491320946E+01 -0.22409407137E+02 -0.14948238845E+03  0.15120013939E+03  0.10000000000E+01 0.  0.
<mgrwt>
<rscale>  0 0.12499756E+03</rscale>
<asrwt>0</asrwt>
<pdfrwt beam="2">  1        4 0.23949175E-01 0.12499756E+03</pdfrwt>
<pdfrwt beam="1">  1       -4 0.38603425E-02 0.12499756E+03</pdfrwt>
<totfact> 0.93485148E+03</totfact>
</mgrwt>
</event>
<event>
 5    1  0.3206665E-002  0.1249927E+03  0.7818608E-02  0.1235081E+00
          4   -1    0    0  501    0  0.00000000000E+00  0.00000000000E+00  0.36825818779E+03  0.36826037769E+03  0.12700000000E+01 0. -1.
         -4   -1    0    0    0  501 -0.00000000000E+00 -0.00000000000E+00 -0.10565883637E+02  0.10641935775E+02  0.12700000000E+01 0. -1.
         25    2    1    2    0    0  0.00000000000E+00  0.00000000000E+00  0.35769230416E+03  0.37890231347E+03  0.12499271457E+03 0.  0.
    9000005    1    3    3    0    0 -0.26037600150E+02  0.87590564522E+01  0.34898594421E+03  0.35006694638E+03  0.10000000000E+01 0.  0.
    9000005    1    3    3    0    0  0.26037600150E+02 -0.87590564522E+01  0.87063599470E+01  0.28835367086E+02  0.10000000000E+01 0.  0.
<mgrwt>
<rscale>  0 0.12499271E+03</rscale>
<asrwt>0</asrwt>
<pdfrwt beam="1">  1        4 0.56661123E-01 0.12499271E+03</pdfrwt>
<pdfrwt beam="2">  1       -4 0.16315392E-02 0.12499271E+03</pdfrwt>
<totfact> 0.66668491E+03</totfact>
</mgrwt>
</event>
<event>
 5    1  0.3206665E-002  0.1250030E+03  0.7818608E-02  0.1235065E+00
         -4   -1    0    0    0  501 -0.00000000000E+00  0.00000000000E+00  0.10772187284E+03  0.10772935899E+03  0.12700000000E+01 0. -1.
          4   -1    0    0  501    0  0.00000000000E+00 -0.00000000000E+00 -0.36244253578E+02  0.36266497176E+02  0.12700000000E+01 0. -1.
         25    2    1    2    0    0  0.00000000000E+00  0.00000000000E+00  0.71477619267E+02  0.14399585617E+03  0.12500302611E+03 0.  0.
    9000005    1    3    3    0    0  0.43188515415E+02 -0.80623391141E+01  0.86934558763E+02  0.97410813995E+02  0.10000000000E+01 0.  0.
    9000005    1    3    3    0    0 -0.43188515415E+02  0.80623391141E+01 -0.15456939497E+02  0.46585042174E+02  0.10000000000E+01 0.  0.
<mgrwt>
<rscale>  0 0.12500303E+03</rscale>
<asrwt>0</asrwt>
<pdfrwt beam="2">  1        4 0.55783260E-02 0.12500303E+03</pdfrwt>
<pdfrwt beam="1">  1       -4 0.16574882E-01 0.12500303E+03</pdfrwt>
<totfact> 0.10050745E+04</totfact>
</mgrwt>
</event>
<event>
 5    1  0.3206665E-002  0.1250010E+03  0.7818608E-02  0.1235068E+00
          4   -1    0    0  501    0  0.00000000000E+00  0.00000000000E+00  0.59921336717E+02  0.59934793685E+02  0.12700000000E+01 0. -1.
         -4   -1    0    0    0  501 -0.00000000000E+00 -0.00000000000E+00 -0.65163686624E+02  0.65176061207E+02  0.12700000000E+01 0. -1.
         25    2    1    2    0    0  0.00000000000E+00  0.00000000000E+00 -0.52423499064E+01  0.12511085489E+03  0.12500097511E+03 0.  0.
    9000005    1    3    3    0    0 -0.42791977474E+02  0.45490955791E+02 -0.47980695397E+01  0.62646642897E+02  0.10000000000E+01 0.  0.
    9000005    1    3    3    0    0  0.42791977474E+02 -0.45490955791E+02 -0.44428036671E+00  0.62464211994E+02  0.10000000000E+01 0.  0.
<mgrwt>
<rscale>  0 0.12500098E+03</rscale>
<asrwt>0</asrwt>
<pdfrwt beam="1">  1        4 0.92206542E-02 0.12500098E+03</pdfrwt>
<pdfrwt beam="2">  1       -4 0.10027170E-01 0.12500098E+03</pdfrwt>
<totfact> 0.10450225E+04</totfact>
</mgrwt>
</event>
<event>
 5    1  0.3206665E-002  0.1249970E+03  0.7818608E-02  0.1235074E+00
         -4   -1    0    0    0  501 -0.00000000000E+00  0.00000000000E+00  0.16269108187E+02  0.16318602306E+02  0.12700000000E+01 0. -1.
          4   -1    0    0  501    0  0.00000000000E+00 -0.00000000000E+00 -0.23967492457E+03  0.23967828931E+03  0.12700000000E+01 0. -1.
         25    2    1    2    0    0  0.00000000000E+00  0.00000000000E+00 -0.22340581638E+03  0.25599689162E+03  0.12499699886E+03 0.  0.
    9000005    1    3    3    0    0 -0.17935047772E+02 -0.59649661954E+02 -0.10139861398E+03  0.11900599576E+03  0.10000000000E+01 0.  0.
    9000005    1    3    3    0    0  0.17935047772E+02  0.59649661954E+02 -0.12200720240E+03  0.13699089586E+03  0.10000000000E+01 0.  0.
<mgrwt>
<rscale>  0 0.12499700E+03</rscale>
<asrwt>0</asrwt>
<pdfrwt beam="2">  1        4 0.36877129E-01 0.12499700E+03</pdfrwt>
<pdfrwt beam="1">  1       -4 0.25070060E-02 0.12499700E+03</pdfrwt>
<totfact> 0.81476588E+03</totfact>
</mgrwt>
</event>
<event>
 5    1  0.3206665E-002  0.1250008E+03  0.7818608E-02  0.1235068E+00
         -4   -1    0    0    0  501 -0.00000000000E+00  0.00000000000E+00  0.15716760596E+03  0.15717273702E+03  0.12700000000E+01 0. -1.
          4   -1    0    0  501    0  0.00000000000E+00 -0.00000000000E+00 -0.24832594104E+02  0.24865048359E+02  0.12700000000E+01 0. -1.
         25    2    1    2    0    0  0.00000000000E+00  0.00000000000E+00  0.13233501185E+03  0.18203778538E+03  0.12500079977E+03 0.  0.
    9000005    1    3    3    0    0 -0.50775917759E+02  0.32883746104E+02  0.88997674879E+02  0.10761561558E+03  0.10000000000E+01 0.  0.
    9000005    1    3    3    0    0  0.50775917759E+02 -0.32883746104E+02  0.43337336974E+02  0.74422169802E+02  0.10000000000E+01 0.  0.
<mgrwt>
<rscale>  0 0.12500080E+03</rscale>
<asrwt>0</asrwt>
<pdfrwt beam="2">  1        4 0.38232903E-02 0.12500080E+03</pdfrwt>
<pdfrwt beam="1">  1       -4 0.24182523E-01 0.12500080E+03</pdfrwt>
<totfact> 0.93249804E+03</totfact>
</mgrwt>
</event>
<event>
 5    1  0.3206665E-002  0.1249991E+03  0.7818608E-02  0.1235071E+00
         -4   -1    0    0    0  501 -0.00000000000E+00  0.00000000000E+00  0.94654478280E+01  0.95502671473E+01  0.12700000000E+01 0.  1.
          4   -1    0    0  501    0  0.00000000000E+00 -0.00000000000E+00 -0.41075283326E+03  0.41075479661E+03  0.12700000000E+01 0.  1.
         25    2    1    2    0    0  0.00000000000E+00  0.00000000000E+00 -0.40128738544E+03  0.42030506375E+03  0.12499912362E+03 0.  0.
    9000005    1    3    3    0    0 -0.38439648683E+01  0.25640096002E+02 -0.39183177542E+03  0.39268986595E+03  0.10000000000E+01 0.  0.
    9000005    1    3    3    0    0  0.38439648683E+01 -0.25640096002E+02 -0.94556100120E+01  0.27615197801E+02  0.10000000000E+01 0.  0.
<mgrwt>
<rscale>  0 0.12499912E+03</rscale>
<asrwt>0</asrwt>
<pdfrwt beam="2">  1        4 0.63199405E-01 0.12499912E+03</pdfrwt>
<pdfrwt beam="1">  1       -4 0.14628987E-02 0.12499912E+03</pdfrwt>
<totfact> 0.62625935E+03</totfact>
</mgrwt>
</event>
<event>
 5    1  0.3206665E-002  0.1249998E+03  0.7818608E-02  0.1235070E+00
          4   -1    0    0  501    0  0.00000000000E+00  0.00000000000E+00  0.65879503000E+03  0.65879625412E+03  0.12700000000E+01 0. -1.
         -4   -1    0    0    0  501 -0.00000000000E+00 -0.00000000000E+00 -0.58601151392E+01  0.59961528871E+01  0.12700000000E+01 0. -1.
         25    2    1    2    0    0  0.00000000000E+00  0.00000000000E+00  0.65293491486E+03  0.66479240701E+03  0.12499976552E+03 0.  0.
    9000005    1    3    3    0    0  0.49483260296E+02 -0.36787902910E+02  0.38051939121E+03  0.38548404628E+03  0.10000000000E+01 0.  0.
    9000005    1    3    3    0    0 -0.49483260296E+02  0.36787902910E+02  0.27241552365E+03  0.27930836073E+03  0.10000000000E+01 0.  0.
<mgrwt>
<rscale>  0 0.12499977E+03</rscale>
<asrwt>0</asrwt>
<pdfrwt beam="1">  1        4 0.10136351E+00 0.12499977E+03</pdfrwt>
<pdfrwt beam="2">  1       -4 0.91211592E-03 0.12499977E+03</pdfrwt>
<totfact> 0.45011760E+03</totfact>
</mgrwt>
</event>
<event>
 5    1  0.3206665E-002  0.1249996E+03  0.7818608E-02  0.1235070E+00
          4   -1    0    0  501    0  0.00000000000E+00  0.00000000000E+00  0.43131439090E+03  0.43131626064E+03  0.12700000000E+01 0. -1.
         -4   -1    0    0    0  501 -0.00000000000E+00 -0.00000000000E+00 -0.90101398579E+01  0.90992043751E+01  0.12700000000E+01 0. -1.
         25    2    1    2    0    0  0.00000000000E+00  0.00000000000E+00  0.42230425104E+03  0.44041546502E+03  0.12499960552E+03 0.  0.
    9000005    1    3    3    0    0 -0.21029843438E+02 -0.55584662920E+02  0.27922786726E+03  0.28548399416E+03  0.10000000000E+01 0.  0.
    9000005    1    3    3    0    0  0.21029843438E+02  0.55584662920E+02  0.14307638378E+03  0.15493147086E+03  0.10000000000E+01 0.  0.
<mgrwt>
<rscale>  0 0.12499961E+03</rscale>
<asrwt>0</asrwt>
<pdfrwt beam="1">  1        4 0.66363054E-01 0.12499961E+03</pdfrwt>
<pdfrwt beam="2">  1       -4 0.13931703E-02 0.12499961E+03</pdfrwt>
<totfact> 0.60803635E+03</totfact>
</mgrwt>
</event>
<event>
 5    1  0.3206665E-002  0.1250061E+03  0.7818608E-02  0.1235060E+00
         -4   -1    0    0    0  501 -0.00000000000E+00  0.00000000000E+00  0.17095421862E+02  0.17142530404E+02  0.12700000000E+01 0.  1.
          4   -1    0    0  501    0  0.00000000000E+00 -0.00000000000E+00 -0.22815594427E+03  0.22815947889E+03  0.12700000000E+01 0.  1.
         25    2    1    2    0    0  0.00000000000E+00  0.00000000000E+00 -0.21106052241E+03  0.24530200929E+03  0.12500612642E+03 0.  0.
    9000005    1    3    3    0    0 -0.44539192679E+00 -0.27912024590E+02 -0.21525103037E+03  0.21705595031E+03  0.10000000000E+01 0.  0.
    9000005    1    3    3    0    0  0.44539192679E+00  0.27912024590E+02  0.41905079648E+01  0.28246058976E+02  0.10000000000E+01 0.  0.
<mgrwt>
<rscale>  0 0.12500613E+03</rscale>
<asrwt>0</asrwt>
<pdfrwt beam="2">  1        4 0.35104808E-01 0.12500613E+03</pdfrwt>
<pdfrwt beam="1">  1       -4 0.26339607E-02 0.12500613E+03</pdfrwt>
<totfact> 0.83002679E+03</totfact>
</mgrwt>
</event>
<event>
 5    1  0.3206665E-002  0.1249969E+03  0.7818608E-02  0.1235074E+00
         -4   -1    0    0    0  501 -0.00000000000E+00  0.00000000000E+00  0.21686717102E+02  0.21723871632E+02  0.12700000000E+01 0.  1.
          4   -1    0    0  501    0  0.00000000000E+00 -0.00000000000E+00 -0.17991938548E+03  0.17992386771E+03  0.12700000000E+01 0.  1.
         25    2    1    2    0    0  0.00000000000E+00  0.00000000000E+00 -0.15823266838E+03  0.20164773935E+03  0.12499693372E+03 0.  0.
    9000005    1    3    3    0    0  0.15361389934E+02  0.16916198380E+02 -0.17294604851E+03  0.17445190100E+03  0.10000000000E+01 0.  0.
    9000005    1    3    3    0    0 -0.15361389934E+02 -0.16916198380E+02  0.14713380128E+02  0.27195838342E+02  0.10000000000E+01 0.  0.
<mgrwt>
<rscale>  0 0.12499693E+03</rscale>
<asrwt>0</asrwt>
<pdfrwt beam="2">  1        4 0.27683107E-01 0.12499693E+03</pdfrwt>
<pdfrwt beam="1">  1       -4 0.33396210E-02 0.12499693E+03</pdfrwt>
<totfact> 0.89864510E+03</totfact>
</mgrwt>
</event>
<event>
 5    1  0.3206665E-002  0.1250081E+03  0.7818608E-02  0.1235057E+00
          4   -1    0    0  501    0  0.00000000000E+00  0.00000000000E+00  0.13570950302E+03  0.13571544536E+03  0.12700000000E+01 0. -1.
         -4   -1    0    0    0  501 -0.00000000000E+00 -0.00000000000E+00 -0.28767062883E+02  0.28795083034E+02  0.12700000000E+01 0. -1.
         25    2    1    2    0    0  0.00000000000E+00  0.00000000000E+00  0.10694244013E+03  0.16451052839E+03  0.12500811354E+03 0.  0.
    9000005    1    3    3    0    0 -0.10106146400E+02 -0.53132771331E+02  0.94679669852E+02  0.10904341093E+03  0.10000000000E+01 0.  0.
    9000005    1    3    3    0    0  0.10106146400E+02  0.53132771331E+02  0.12262770281E+02  0.55467117460E+02  0.10000000000E+01 0.  0.
<mgrwt>
<rscale>  0 0.12500811E+03</rscale>
<asrwt>0</asrwt>
<pdfrwt beam="1">  1        4 0.20880998E-01 0.12500811E+03</pdfrwt>
<pdfrwt beam="2">  1       -4 0.44283144E-02 0.12500811E+03</pdfrwt>
<totfact> 0.96462586E+03</totfact>
</mgrwt>
</event>
<event>
 5    1  0.3206665E-002  0.1249999E+03  0.7818608E-02  0.1235069E+00
         -4   -1    0    0    0  501 -0.00000000000E+00  0.00000000000E+00  0.77054903966E+03  0.77055008625E+03  0.12700000000E+01 0.  1.
          4   -1    0    0  501    0  0.00000000000E+00 -0.00000000000E+00 -0.49888231505E+01  0.51479371040E+01  0.12700000000E+01 0.  1.
         25    2    1    2    0    0  0.00000000000E+00  0.00000000000E+00  0.76556021651E+03  0.77569802335E+03  0.12499991334E+03 0.  0.
    9000005    1    3    3    0    0 -0.11986073411E+02  0.55705928963E+02  0.22354561378E+03  0.23069559579E+03  0.10000000000E+01 0.  0.
    9000005    1    3    3    0    0  0.11986073411E+02 -0.55705928963E+02  0.54201460273E+03  0.54500242757E+03  0.10000000000E+01 0.  0.
<mgrwt>
<rscale>  0 0.12499991E+03</rscale>
<asrwt>0</asrwt>
<pdfrwt beam="2">  1        4 0.77983141E-03 0.12499991E+03</pdfrwt>
<pdfrwt beam="1">  1       -4 0.11855831E+00 0.12499991E+03</pdfrwt>
<totfact> 0.39372984E+03</totfact>
</mgrwt>
</event>
<event>
 5    1  0.3206665E-002  0.1249949E+03  0.7818608E-02  0.1235077E+00
          4   -1    0    0  501    0  0.00000000000E+00  0.00000000000E+00  0.12443731758E+02  0.12508371599E+02  0.12700000000E+01 0. -1.
         -4   -1    0    0    0  501 -0.00000000000E+00 -0.00000000000E+00 -0.31300837555E+03  0.31301095199E+03  0.12700000000E+01 0. -1.
         25    2    1    2    0    0  0.00000000000E+00  0.00000000000E+00 -0.30056464379E+03  0.32551932358E+03  0.12499489962E+03 0.  0.
    9000005    1    3    3    0    0 -0.32575460604E+02 -0.46454868180E+02 -0.82086688524E+02  0.99791982865E+02  0.10000000000E+01 0.  0.
    9000005    1    3    3    0    0  0.32575460604E+02  0.46454868180E+02 -0.21847795527E+03  0.22572734072E+03  0.10000000000E+01 0.  0.
<mgrwt>
<rscale>  0 0.12499490E+03</rscale>
<asrwt>0</asrwt>
<pdfrwt beam="1">  1        4 0.19195910E-02 0.12499490E+03</pdfrwt>
<pdfrwt beam="2">  1       -4 0.48160299E-01 0.12499490E+03</pdfrwt>
<totfact> 0.72512646E+03</totfact>
</mgrwt>
</event>
<event>
 5    1  0.3206665E-002  0.1249991E+03  0.7818608E-02  0.1235071E+00
         -4   -1    0    0    0  501 -0.00000000000E+00  0.00000000000E+00  0.94349406367E+03  0.94349491842E+03  0.12700000000E+01 0. -1.
          4   -1    0    0  501    0  0.00000000000E+00 -0.00000000000E+00 -0.40418634242E+01  0.42366920988E+01  0.12700000000E+01 0. -1.
         25    2    1    2    0    0  0.00000000000E+00  0.00000000000E+00  0.93945220025E+03  0.94773161052E+03  0.12499907610E+03 0.  0.
    9000005    1    3    3    0    0 -0.23323167090E+02 -0.51611618195E+02  0.66996071196E+03  0.67235116184E+03  0.10000000000E+01 0.  0.
    9000005    1    3    3    0    0  0.23323167090E+02  0.51611618195E+02  0.26949148829E+03  0.27538044868E+03  0.10000000000E+01 0.  0.
<mgrwt>
<rscale>  0 0.12499908E+03</rscale>
<asrwt>0</asrwt>
<pdfrwt beam="2">  1        4 0.63687790E-03 0.12499908E+03</pdfrwt>
<pdfrwt beam="1">  1       -4 0.14516794E+00 0.12499908E+03</pdfrwt>
<totfact> 0.32397306E+03</totfact>
</mgrwt>
</event>
<event>
 5    1  0.3206665E-002  0.1250118E+03  0.7818608E-02  0.1235051E+00
          4   -1    0    0  501    0  0.00000000000E+00  0.00000000000E+00  0.60716604238E+02  0.60729884984E+02  0.12700000000E+01 0.  1.
         -4   -1    0    0    0  501 -0.00000000000E+00 -0.00000000000E+00 -0.64321302297E+02  0.64333838912E+02  0.12700000000E+01 0.  1.
         25    2    1    2    0    0  0.00000000000E+00  0.00000000000E+00 -0.36046980589E+01  0.12506372390E+03  0.12501176419E+03 0.  0.
    9000005    1    3    3    0    0  0.17423461120E+02 -0.54009468366E+02 -0.27993101018E+02  0.63286755133E+02  0.10000000000E+01 0.  0.
    9000005    1    3    3    0    0 -0.17423461120E+02  0.54009468366E+02  0.24388402959E+02  0.61776968763E+02  0.10000000000E+01 0.  0.
<mgrwt>
<rscale>  0 0.12501176E+03</rscale>
<asrwt>0</asrwt>
<pdfrwt beam="1">  1        4 0.93430020E-02 0.12501176E+03</pdfrwt>
<pdfrwt beam="2">  1       -4 0.98975709E-02 0.12501176E+03</pdfrwt>
<totfact> 0.10448700E+04</totfact>
</mgrwt>
</event>
<event>
 5    1  0.3206665E-002  0.1249909E+03  0.7818608E-02  0.1235083E+00
         -4   -1    0    0    0  501 -0.00000000000E+00  0.00000000000E+00  0.20320160334E+03  0.20320557202E+03  0.12700000000E+01 0.  1.
          4   -1    0    0  501    0  0.00000000000E+00 -0.00000000000E+00 -0.19195595899E+02  0.19237562265E+02  0.12700000000E+01 0.  1.
         25    2    1    2    0    0  0.00000000000E+00  0.00000000000E+00  0.18400600744E+03  0.22244313429E+03  0.12499094854E+03 0.  0.
    9000005    1    3    3    0    0 -0.34609449264E+02 -0.36578571592E+01 -0.36002347106E+00  0.34818436413E+02  0.10000000000E+01 0.  0.
    9000005    1    3    3    0    0  0.34609449264E+02  0.36578571592E+01  0.18436603091E+03  0.18762469787E+03  0.10000000000E+01 0.  0.
<mgrwt>
<rscale>  0 0.12499095E+03</rscale>
<asrwt>0</asrwt>
<pdfrwt beam="2">  1        4 0.29567021E-02 0.12499095E+03</pdfrwt>
<pdfrwt beam="1">  1       -4 0.31265318E-01 0.12499095E+03</pdfrwt>
<totfact> 0.86500709E+03</totfact>
</mgrwt>
</event>
<event>
 5    1  0.3206665E-002  0.1249989E+03  0.7818608E-02  0.1235071E+00
         -4   -1    0    0    0  501 -0.00000000000E+00  0.00000000000E+00  0.20411996738E+02  0.20451467205E+02  0.12700000000E+01 0.  1.
          4   -1    0    0  501    0  0.00000000000E+00 -0.00000000000E+00 -0.19114061435E+03  0.19114483344E+03  0.12700000000E+01 0.  1.
         25    2    1    2    0    0  0.00000000000E+00  0.00000000000E+00 -0.17072861761E+03  0.21159630065E+03  0.12499893431E+03 0.  0.
    9000005    1    3    3    0    0 -0.40380212496E+02 -0.25891418524E+02 -0.15316570455E+03  0.16050439298E+03  0.10000000000E+01 0.  0.
    9000005    1    3    3    0    0  0.40380212496E+02  0.25891418524E+02 -0.17562913056E+02  0.51091907671E+02  0.10000000000E+01 0.  0.
<mgrwt>
<rscale>  0 0.12499893E+03</rscale>
<asrwt>0</asrwt>
<pdfrwt beam="2">  1        4 0.29409608E-01 0.12499893E+03</pdfrwt>
<pdfrwt beam="1">  1       -4 0.31436680E-02 0.12499893E+03</pdfrwt>
<totfact> 0.88217948E+03</totfact>
</mgrwt>
</event>
<event>
 5    1  0.3206665E-002  0.1249995E+03  0.7818608E-02  0.1235070E+00
          4   -1    0    0  501    0  0.00000000000E+00  0.00000000000E+00  0.46773918306E+02  0.46791156576E+02  0.12700000000E+01 0. -1.
         -4   -1    0    0    0  501 -0.00000000000E+00 -0.00000000000E+00 -0.83475306382E+02  0.83484966764E+02  0.12700000000E+01 0. -1.
         25    2    1    2    0    0  0.00000000000E+00  0.00000000000E+00 -0.36701388076E+02  0.13027612334E+03  0.12499950570E+03 0.  0.
    9000005    1    3    3    0    0  0.15483031977E+02  0.32243836316E+02  0.35055277661E+02  0.50092531893E+02  0.10000000000E+01 0.  0.
    9000005    1    3    3    0    0 -0.15483031977E+02 -0.32243836316E+02 -0.71756665736E+02  0.80183591446E+02  0.10000000000E+01 0.  0.
<mgrwt>
<rscale>  0 0.12499951E+03</rscale>
<asrwt>0</asrwt>
<pdfrwt beam="1">  1        4 0.71980566E-02 0.12499951E+03</pdfrwt>
<pdfrwt beam="2">  1       -4 0.12844424E-01 0.12499951E+03</pdfrwt>
<totfact> 0.10338720E+04</totfact>
</mgrwt>
</event>
<event>
 5    1  0.3206665E-002  0.1249976E+03  0.7818608E-02  0.1235073E+00
          4   -1    0    0  501    0  0.00000000000E+00  0.00000000000E+00  0.98773445144E+02  0.98781609450E+02  0.12700000000E+01 0. -1.
         -4   -1    0    0    0  501 -0.00000000000E+00 -0.00000000000E+00 -0.39526042533E+02  0.39546440274E+02  0.12700000000E+01 0. -1.
         25    2    1    2    0    0  0.00000000000E+00  0.00000000000E+00  0.59247402611E+02  0.13832804972E+03  0.12499757847E+03 0.  0.
    9000005    1    3    3    0    0  0.39980182156E+02  0.37124592097E+02 -0.40962958377E+01  0.54721384698E+02  0.10000000000E+01 0.  0.
    9000005    1    3    3    0    0 -0.39980182156E+02 -0.37124592097E+02  0.63343698449E+02  0.83606665026E+02  0.10000000000E+01 0.  0.
<mgrwt>
<rscale>  0 0.12499758E+03</rscale>
<asrwt>0</asrwt>
<pdfrwt beam="1">  1        4 0.15198112E-01 0.12499758E+03</pdfrwt>
<pdfrwt beam="2">  1       -4 0.60831267E-02 0.12499758E+03</pdfrwt>
<totfact> 0.10168911E+04</totfact>
</mgrwt>
</event>
<event>
 5    1  0.3206665E-002  0.1250017E+03  0.7818608E-02  0.1235067E+00
         -4   -1    0    0    0  501 -0.00000000000E+00  0.00000000000E+00  0.93300536676E+01  0.94160926843E+01  0.12700000000E+01 0.  1.
          4   -1    0    0  501    0  0.00000000000E+00 -0.00000000000E+00 -0.41667634767E+03  0.41667828310E+03  0.12700000000E+01 0.  1.
         25    2    1    2    0    0  0.00000000000E+00  0.00000000000E+00 -0.40734629400E+03  0.42609437579E+03  0.12500165534E+03 0.  0.
    9000005    1    3    3    0    0 -0.28837945963E+02  0.46558840277E+02 -0.30627478873E+03  0.31113437443E+03  0.10000000000E+01 0.  0.
    9000005    1    3    3    0    0  0.28837945963E+02 -0.46558840277E+02 -0.10107150527E+03  0.11496000136E+03  0.10000000000E+01 0.  0.
<mgrwt>
<rscale>  0 0.12500166E+03</rscale>
<asrwt>0</asrwt>
<pdfrwt beam="2">  1        4 0.64110807E-01 0.12500166E+03</pdfrwt>
<pdfrwt beam="1">  1       -4 0.14421605E-02 0.12500166E+03</pdfrwt>
<totfact> 0.62089354E+03</totfact>
</mgrwt>
</event>
<event>
 5    1  0.3206665E-002  0.1250014E+03  0.7818608E-02  0.1235067E+00
         -4   -1    0    0    0  501 -0.00000000000E+00  0.00000000000E+00  0.20514160242E+03  0.20514553357E+03  0.12700000000E+01 0. -1.
          4   -1    0    0  501    0  0.00000000000E+00 -0.00000000000E+00 -0.19016854222E+02  0.19059214163E+02  0.12700000000E+01 0. -1.
         25    2    1    2    0    0  0.00000000000E+00  0.00000000000E+00  0.18612474820E+03  0.22420474773E+03  0.12500138805E+03 0.  0.
    9000005    1    3    3    0    0 -0.22409983173E+02  0.57622323322E+02  0.10938304316E+03  0.12565106296E+03  0.10000000000E+01 0.  0.
    9000005    1    3    3    0    0  0.22409983173E+02 -0.57622323322E+02  0.76741705032E+02  0.98553684772E+02  0.10000000000E+01 0.  0.
<mgrwt>
<rscale>  0 0.12500139E+03</rscale>
<asrwt>0</asrwt>
<pdfrwt beam="2">  1        4 0.29292304E-02 0.12500139E+03</pdfrwt>
<pdfrwt beam="1">  1       -4 0.31563811E-01 0.12500139E+03</pdfrwt>
<totfact> 0.86204670E+03</totfact>
</mgrwt>
</event>
<event>
 5    1  0.3206665E-002  0.1250019E+03  0.7818608E-02  0.1235066E+00
          4   -1    0    0  501    0  0.00000000000E+00  0.00000000000E+00  0.45938787115E+02  0.45956338645E+02  0.12700000000E+01 0.  1.
         -4   -1    0    0    0  501 -0.00000000000E+00 -0.00000000000E+00 -0.84995705744E+02  0.85005193341E+02  0.12700000000E+01 0.  1.
         25    2    1    2    0    0  0.00000000000E+00  0.00000000000E+00 -0.39056918629E+02  0.13096153199E+03  0.12500191985E+03 0.  0.
    9000005    1    3    3    0    0  0.50492878826E+02  0.25251223476E+02  0.85487711454E+01  0.57107237608E+02  0.10000000000E+01 0.  0.
    9000005    1    3    3    0    0 -0.50492878826E+02 -0.25251223476E+02 -0.47605689774E+02  0.73854294378E+02  0.10000000000E+01 0.  0.
<mgrwt>
<rscale>  0 0.12500192E+03</rscale>
<asrwt>0</asrwt>
<pdfrwt beam="1">  1        4 0.70695856E-02 0.12500192E+03</pdfrwt>
<pdfrwt beam="2">  1       -4 0.13078342E-01 0.12500192E+03</pdfrwt>
<totfact> 0.10323467E+04</totfact>
</mgrwt>
</event>
<event>
 5    1  0.3206665E-002  0.1250012E+03  0.7818608E-02  0.1235067E+00
          4   -1    0    0  501    0  0.00000000000E+00  0.00000000000E+00  0.80070891669E+03  0.80070992386E+03  0.12700000000E+01 0. -1.
         -4   -1    0    0    0  501 -0.00000000000E+00 -0.00000000000E+00 -0.47949034905E+01  0.49602418774E+01  0.12700000000E+01 0. -1.
         25    2    1    2    0    0  0.00000000000E+00  0.00000000000E+00  0.79591401320E+03  0.80567016573E+03  0.12500119820E+03 0.  0.
    9000005    1    3    3    0    0  0.18185524265E+02 -0.51736413954E+02  0.59109619780E+03  0.59363548149E+03  0.10000000000E+01 0.  0.
    9000005    1    3    3    0    0 -0.18185524265E+02  0.51736413954E+02  0.20481781539E+03  0.21203468425E+03  0.10000000000E+01 0.  0.
<mgrwt>
<rscale>  0 0.12500120E+03</rscale>
<asrwt>0</asrwt>
<pdfrwt beam="1">  1        4 0.12319862E+00 0.12500120E+03</pdfrwt>
<pdfrwt beam="2">  1       -4 0.75047424E-03 0.12500120E+03</pdfrwt>
<totfact> 0.38011893E+03</totfact>
</mgrwt>
</event>
<event>
 5    1  0.3206665E-002  0.1250019E+03  0.7818608E-02  0.1235066E+00
          4   -1    0    0  501    0  0.00000000000E+00  0.00000000000E+00  0.17540103524E+02  0.17586020915E+02  0.12700000000E+01 0.  1.
         -4   -1    0    0    0  501 -0.00000000000E+00 -0.00000000000E+00 -0.22237182453E+03  0.22237545108E+03  0.12700000000E+01 0.  1.
         25    2    1    2    0    0  0.00000000000E+00  0.00000000000E+00 -0.20483172101E+03  0.23996147200E+03  0.12500189644E+03 0.  0.
    9000005    1    3    3    0    0  0.59367412273E+02  0.13444219388E+01 -0.65040496114E+02  0.88077030178E+02  0.10000000000E+01 0.  0.
    9000005    1    3    3    0    0 -0.59367412273E+02 -0.13444219388E+01 -0.13979122489E+03  0.15188444182E+03  0.10000000000E+01 0.  0.
<mgrwt>
<rscale>  0 0.12500190E+03</rscale>
<asrwt>0</asrwt>
<pdfrwt beam="1">  1        4 0.27022887E-02 0.12500190E+03</pdfrwt>
<pdfrwt beam="2">  1       -4 0.34214859E-01 0.12500190E+03</pdfrwt>
<totfact> 0.83799564E+03</totfact>
</mgrwt>
</event>
<event>
 5    1  0.3206665E-002  0.1250011E+03  0.7818608E-02  0.1235068E+00
          4   -1    0    0  501    0  0.00000000000E+00  0.00000000000E+00  0.35611558096E+03  0.35611784553E+03  0.12700000000E+01 0. -1.
         -4   -1    0    0    0  501 -0.00000000000E+00 -0.00000000000E+00 -0.10930182240E+02  0.11003716817E+02  0.12700000000E+01 0. -1.
         25    2    1    2    0    0  0.00000000000E+00  0.00000000000E+00  0.34518539872E+03  0.36712156234E+03  0.12500112819E+03 0.  0.
    9000005    1    3    3    0    0 -0.53775813076E+01 -0.34374297639E+02  0.32505413981E+03  0.32691238050E+03  0.10000000000E+01 0.  0.
    9000005    1    3    3    0    0  0.53775813076E+01  0.34374297639E+02  0.20131258910E+02  0.40209181840E+02  0.10000000000E+01 0.  0.
<mgrwt>
<rscale>  0 0.12500113E+03</rscale>
<asrwt>0</asrwt>
<pdfrwt beam="1">  1        4 0.54792849E-01 0.12500113E+03</pdfrwt>
<pdfrwt beam="2">  1       -4 0.16873970E-02 0.12500113E+03</pdfrwt>
<totfact> 0.67879455E+03</totfact>
</mgrwt>
</event>
<event>
 5    1  0.3206665E-002  0.1250014E+03  0.7818608E-02  0.1235067E+00
         -4   -1    0    0    0  501 -0.00000000000E+00  0.00000000000E+00  0.21009986318E+03  0.21010370156E+03  0.12700000000E+01 0. -1.
          4   -1    0    0  501    0  0.00000000000E+00 -0.00000000000E+00 -0.18567070745E+02  0.18610454483E+02  0.12700000000E+01 0. -1.
         25    2    1    2    0    0  0.00000000000E+00  0.00000000000E+00  0.19153279243E+03  0.22871415604E+03  0.12500141837E+03 0.  0.
    9000005    1    3    3    0    0 -0.46994013265E+02 -0.14708793204E+02  0.25363577047E+02  0.55399430691E+02  0.10000000000E+01 0.  0.
    9000005    1    3    3    0    0  0.46994013265E+02  0.14708793204E+02  0.16616921539E+03  0.17331472535E+03  0.10000000000E+01 0.  0.
<mgrwt>
<rscale>  0 0.12500142E+03</rscale>
<asrwt>0</asrwt>
<pdfrwt beam="2">  1        4 0.28601050E-02 0.12500142E+03</pdfrwt>
<pdfrwt beam="1">  1       -4 0.32326688E-01 0.12500142E+03</pdfrwt>
<totfact> 0.85504725E+03</totfact>
</mgrwt>
</event>
<event>
 5    1  0.3206665E-002  0.1250071E+03  0.7818608E-02  0.1235058E+00
         -4   -1    0    0    0  501 -0.00000000000E+00  0.00000000000E+00  0.21935982365E+04  0.21935986041E+04  0.12700000000E+01 0. -1.
          4   -1    0    0  501    0  0.00000000000E+00 -0.00000000000E+00 -0.15541270756E+01  0.20070403501E+01  0.12700000000E+01 0. -1.
         25    2    1    2    0    0  0.00000000000E+00  0.00000000000E+00  0.21920441094E+04  0.21956056445E+04  0.12500707358E+03 0.  0.
    9000005    1    3    3    0    0 -0.30483401151E+02  0.20094277583E+02  0.20515651400E+03  0.20838237203E+03  0.10000000000E+01 0.  0.
    9000005    1    3    3    0    0  0.30483401151E+02 -0.20094277583E+02  0.19868875954E+04  0.19872232725E+04  0.10000000000E+01 0.  0.
<mgrwt>
<rscale>  0 0.12500707E+03</rscale>
<asrwt>0</asrwt>
<pdfrwt beam="2">  1        4 0.27396439E-03 0.12500707E+03</pdfrwt>
<pdfrwt beam="1">  1       -4 0.33751133E+00 0.12500707E+03</pdfrwt>
<totfact> 0.75182162E+02</totfact>
</mgrwt>
</event>
<event>
 5    1  0.3206665E-002  0.1250028E+03  0.7818608E-02  0.1235065E+00
          4   -1    0    0  501    0  0.00000000000E+00  0.00000000000E+00  0.99248204189E+03  0.99248285445E+03  0.12700000000E+01 0.  1.
         -4   -1    0    0    0  501 -0.00000000000E+00 -0.00000000000E+00 -0.38327338344E+01  0.40376662375E+01  0.12700000000E+01 0.  1.
         25    2    1    2    0    0  0.00000000000E+00  0.00000000000E+00  0.98864930806E+03  0.99652052069E+03  0.12500277529E+03 0.  0.
    9000005    1    3    3    0    0  0.35607629743E+02 -0.43452514670E+02  0.71255904121E+03  0.71477088045E+03  0.10000000000E+01 0.  0.
    9000005    1    3    3    0    0 -0.35607629743E+02  0.43452514670E+02  0.27609026685E+03  0.28174964024E+03  0.10000000000E+01 0.  0.
<mgrwt>
<rscale>  0 0.12500278E+03</rscale>
<asrwt>0</asrwt>
<pdfrwt beam="1">  1        4 0.15270536E+00 0.12500278E+03</pdfrwt>
<pdfrwt beam="2">  1       -4 0.60547795E-03 0.12500278E+03</pdfrwt>
<totfact> 0.30717788E+03</totfact>
</mgrwt>
</event>
<event>
 5    1  0.3206665E-002  0.1249981E+03  0.7818608E-02  0.1235072E+00
          4   -1    0    0  501    0  0.00000000000E+00  0.00000000000E+00  0.21941445193E+02  0.21978169104E+02  0.12700000000E+01 0.  1.
         -4   -1    0    0    0  501 -0.00000000000E+00 -0.00000000000E+00 -0.17783742660E+03  0.17784196130E+03  0.12700000000E+01 0.  1.
         25    2    1    2    0    0  0.00000000000E+00  0.00000000000E+00 -0.15589598141E+03  0.19982013041E+03  0.12499810997E+03 0.  0.
    9000005    1    3    3    0    0 -0.18478310824E+02  0.13244438114E-02 -0.17337809079E+03  0.17436286973E+03  0.10000000000E+01 0.  0.
    9000005    1    3    3    0    0  0.18478310824E+02 -0.13244438114E-02  0.17482109386E+02  0.25457260678E+02  0.10000000000E+01 0.  0.
<mgrwt>
<rscale>  0 0.12499811E+03</rscale>
<asrwt>0</asrwt>
<pdfrwt beam="1">  1        4 0.33787808E-02 0.12499811E+03</pdfrwt>
<pdfrwt beam="2">  1       -4 0.27362777E-01 0.12499811E+03</pdfrwt>
<totfact> 0.90169666E+03</totfact>
</mgrwt>
</event>
<event>
 5    1  0.3206665E-002  0.1250028E+03  0.7818608E-02  0.1235065E+00
         -4   -1    0    0    0  501 -0.00000000000E+00  0.00000000000E+00  0.50971646844E+02  0.50987465930E+02  0.12700000000E+01 0. -1.
          4   -1    0    0  501    0  0.00000000000E+00 -0.00000000000E+00 -0.76606196395E+02  0.76616722888E+02  0.12700000000E+01 0. -1.
         25    2    1    2    0    0  0.00000000000E+00  0.00000000000E+00 -0.25634549551E+02  0.12760418882E+03  0.12500279546E+03 0.  0.
    9000005    1    3    3    0    0 -0.36974202196E+02  0.23948426952E+02 -0.58065863313E+02  0.72892134444E+02  0.10000000000E+01 0.  0.
    9000005    1    3    3    0    0  0.36974202196E+02 -0.23948426952E+02  0.32431313763E+02  0.54712054374E+02  0.10000000000E+01 0.  0.
<mgrwt>
<rscale>  0 0.12500280E+03</rscale>
<asrwt>0</asrwt>
<pdfrwt beam="2">  1        4 0.11787595E-01 0.12500280E+03</pdfrwt>
<pdfrwt beam="1">  1       -4 0.78438184E-02 0.12500280E+03</pdfrwt>
<totfact> 0.10395389E+04</totfact>
</mgrwt>
</event>
<event>
 5    1  0.3206665E-002  0.1250008E+03  0.7818608E-02  0.1235068E+00
          4   -1    0    0  501    0  0.00000000000E+00  0.00000000000E+00  0.11285844634E+04  0.11285851780E+04  0.12700000000E+01 0.  1.
         -4   -1    0    0    0  501 -0.00000000000E+00 -0.00000000000E+00 -0.33440035133E+01  0.35770461972E+01  0.12700000000E+01 0.  1.
         25    2    1    2    0    0  0.00000000000E+00  0.00000000000E+00  0.11252404599E+04  0.11321622242E+04  0.12500083703E+03 0.  0.
    9000005    1    3    3    0    0 -0.16891528836E+02 -0.56875411453E+02  0.74037439667E+03  0.74274853309E+03  0.10000000000E+01 0.  0.
    9000005    1    3    3    0    0  0.16891528836E+02  0.56875411453E+02  0.38486606322E+03  0.38941369107E+03  0.10000000000E+01 0.  0.
<mgrwt>
<rscale>  0 0.12500084E+03</rscale>
<asrwt>0</asrwt>
<pdfrwt beam="1">  1        4 0.17364630E+00 0.12500084E+03</pdfrwt>
<pdfrwt beam="2">  1       -4 0.53244358E-03 0.12500084E+03</pdfrwt>
<totfact> 0.26559918E+03</totfact>
</mgrwt>
</event>
<event>
 5    1  0.3206665E-002  0.1250044E+03  0.7818608E-02  0.1235062E+00
         -4   -1    0    0    0  501 -0.00000000000E+00  0.00000000000E+00  0.15361163455E+02  0.15413573326E+02  0.12700000000E+01 0. -1.
          4   -1    0    0  501    0  0.00000000000E+00 -0.00000000000E+00 -0.25382485324E+03  0.25382803041E+03  0.12700000000E+01 0. -1.
         25    2    1    2    0    0  0.00000000000E+00  0.00000000000E+00 -0.23846368979E+03  0.26924160374E+03  0.12500443927E+03 0.  0.
    9000005    1    3    3    0    0  0.21657930488E+02 -0.51216479988E+02 -0.18065768598E+03  0.18902484831E+03  0.10000000000E+01 0.  0.
    9000005    1    3    3    0    0 -0.21657930488E+02  0.51216479988E+02 -0.57806003812E+02  0.80216755433E+02  0.10000000000E+01 0.  0.
<mgrwt>
<rscale>  0 0.12500444E+03</rscale>
<asrwt>0</asrwt>
<pdfrwt beam="2">  1        4 0.39054250E-01 0.12500444E+03</pdfrwt>
<pdfrwt beam="1">  1       -4 0.23675320E-02 0.12500444E+03</pdfrwt>
<totfact> 0.79618514E+03</totfact>
</mgrwt>
</event>
<event>
 5    1  0.3206665E-002  0.1250441E+03  0.7818608E-02  0.1235000E+00
          4   -1    0    0  501    0  0.00000000000E+00  0.00000000000E+00  0.15346508627E+01  0.19919973068E+01  0.12700000000E+01 0. -1.
         -4   -1    0    0    0  501 -0.00000000000E+00 -0.00000000000E+00 -0.22163825046E+04  0.22163828685E+04  0.12700000000E+01 0. -1.
         25    2    1    2    0    0  0.00000000000E+00  0.00000000000E+00 -0.22148478538E+04  0.22183748658E+04  0.12504411164E+03 0.  0.
    9000005    1    3    3    0    0  0.54644658142E+02 -0.15526254388E+02 -0.15703532650E+04  0.15713807560E+04  0.10000000000E+01 0.  0.
    9000005    1    3    3    0    0 -0.54644658142E+02  0.15526254388E+02 -0.64449458873E+03  0.64699410982E+03  0.10000000000E+01 0.  0.
<mgrwt>
<rscale>  0 0.12504411E+03</rscale>
<asrwt>0</asrwt>
<pdfrwt beam="1">  1        4 0.27131039E-03 0.12504411E+03</pdfrwt>
<pdfrwt beam="2">  1       -4 0.34101490E+00 0.12504411E+03</pdfrwt>
<totfact> 0.72665482E+02</totfact>
</mgrwt>
</event>
<event>
 5    1  0.3206665E-002  0.1249985E+03  0.7818608E-02  0.1235072E+00
          4   -1    0    0  501    0  0.00000000000E+00  0.00000000000E+00  0.79309346209E+02  0.79319513967E+02  0.12700000000E+01 0. -1.
         -4   -1    0    0    0  501 -0.00000000000E+00 -0.00000000000E+00 -0.49230626333E+02  0.49247004672E+02  0.12700000000E+01 0. -1.
         25    2    1    2    0    0  0.00000000000E+00  0.00000000000E+00  0.30078719875E+02  0.12856651864E+03  0.12499848129E+03 0.  0.
    9000005    1    3    3    0    0 -0.12075357413E+01 -0.62347140244E+02  0.10857463579E+02  0.63304885709E+02  0.10000000000E+01 0.  0.
    9000005    1    3    3    0    0  0.12075357413E+01  0.62347140244E+02  0.19221256296E+02  0.65261632931E+02  0.10000000000E+01 0.  0.
<mgrwt>
<rscale>  0 0.12499848E+03</rscale>
<asrwt>0</asrwt>
<pdfrwt beam="1">  1        4 0.12203480E-01 0.12499848E+03</pdfrwt>
<pdfrwt beam="2">  1       -4 0.75759846E-02 0.12499848E+03</pdfrwt>
<totfact> 0.10375627E+04</totfact>
</mgrwt>
</event>
<event>
 5    1  0.3206665E-002  0.1249989E+03  0.7818608E-02  0.1235071E+00
         -4   -1    0    0    0  501 -0.00000000000E+00  0.00000000000E+00  0.28177357155E+02  0.28205963132E+02  0.12700000000E+01 0.  1.
          4   -1    0    0  501    0  0.00000000000E+00 -0.00000000000E+00 -0.13852644242E+03  0.13853226392E+03  0.12700000000E+01 0.  1.
         25    2    1    2    0    0  0.00000000000E+00  0.00000000000E+00 -0.11034908526E+03  0.16673822706E+03  0.12499886297E+03 0.  0.
    9000005    1    3    3    0    0  0.19853718923E+02  0.56455199423E+02 -0.79178367016E+02  0.99255093070E+02  0.10000000000E+01 0.  0.
    9000005    1    3    3    0    0 -0.19853718923E+02 -0.56455199423E+02 -0.31170718244E+02  0.67483133988E+02  0.10000000000E+01 0.  0.
<mgrwt>
<rscale>  0 0.12499886E+03</rscale>
<asrwt>0</asrwt>
<pdfrwt beam="2">  1        4 0.21314408E-01 0.12499886E+03</pdfrwt>
<pdfrwt beam="1">  1       -4 0.43376264E-02 0.12499886E+03</pdfrwt>
<totfact> 0.96061662E+03</totfact>
</mgrwt>
</event>
<event>
 5    1  0.3206665E-002  0.1250005E+03  0.7818608E-02  0.1235069E+00
         -4   -1    0    0    0  501 -0.00000000000E+00  0.00000000000E+00  0.52775415342E+02  0.52790693919E+02  0.12700000000E+01 0. -1.
          4   -1    0    0  501    0  0.00000000000E+00 -0.00000000000E+00 -0.73985565573E+02  0.73996464869E+02  0.12700000000E+01 0. -1.
         25    2    1    2    0    0  0.00000000000E+00  0.00000000000E+00 -0.21210150231E+02  0.12678715879E+03  0.12500045264E+03 0.  0.
    9000005    1    3    3    0    0 -0.59980408500E+02  0.13564064009E+02 -0.21883593666E+02  0.65280356219E+02  0.10000000000E+01 0.  0.
    9000005    1    3    3    0    0  0.59980408500E+02 -0.13564064009E+02  0.67344343486E+00  0.61506802570E+02  0.10000000000E+01 0.  0.
<mgrwt>
<rscale>  0 0.12500045E+03</rscale>
<asrwt>0</asrwt>
<pdfrwt beam="2">  1        4 0.11384408E-01 0.12500045E+03</pdfrwt>
<pdfrwt beam="1">  1       -4 0.81213083E-02 0.12500045E+03</pdfrwt>
<totfact> 0.10413667E+04</totfact>
</mgrwt>
</event>
<event>
 5    1  0.3206665E-002  0.1250024E+03  0.7818608E-02  0.1235066E+00
          4   -1    0    0  501    0  0.00000000000E+00  0.00000000000E+00  0.10663101396E+03  0.10663857669E+03  0.12700000000E+01 0. -1.
         -4   -1    0    0    0  501 -0.00000000000E+00 -0.00000000000E+00 -0.36614861043E+02  0.36636879633E+02  0.12700000000E+01 0. -1.
         25    2    1    2    0    0  0.00000000000E+00  0.00000000000E+00  0.70016152914E+02  0.14327545632E+03  0.12500237883E+03 0.  0.
    9000005    1    3    3    0    0  0.44165284225E+02  0.20187768173E+02 -0.10077541801E+02  0.49605192906E+02  0.10000000000E+01 0.  0.
    9000005    1    3    3    0    0 -0.44165284225E+02 -0.20187768173E+02  0.80093694715E+02  0.93670263412E+02  0.10000000000E+01 0.  0.
<mgrwt>
<rscale>  0 0.12500238E+03</rscale>
<asrwt>0</asrwt>
<pdfrwt beam="1">  1        4 0.16407047E-01 0.12500238E+03</pdfrwt>
<pdfrwt beam="2">  1       -4 0.56353311E-02 0.12500238E+03</pdfrwt>
<totfact> 0.10065606E+04</totfact>
</mgrwt>
</event>
<event>
 5    1  0.3206665E-002  0.1249948E+03  0.7818608E-02  0.1235077E+00
          4   -1    0    0  501    0  0.00000000000E+00  0.00000000000E+00  0.24176578432E+02  0.24209912116E+02  0.12700000000E+01 0.  1.
         -4   -1    0    0    0  501 -0.00000000000E+00 -0.00000000000E+00 -0.16141097495E+03  0.16141597113E+03  0.12700000000E+01 0.  1.
         25    2    1    2    0    0  0.00000000000E+00  0.00000000000E+00 -0.13723439652E+03  0.18562588324E+03  0.12499475566E+03 0.  0.
    9000005    1    3    3    0    0 -0.54255495817E+02 -0.85965832149E+01 -0.11285537254E+03  0.12551850533E+03  0.10000000000E+01 0.  0.
    9000005    1    3    3    0    0  0.54255495817E+02  0.85965832149E+01 -0.24379023982E+02  0.60107377914E+02  0.10000000000E+01 0.  0.
<mgrwt>
<rscale>  0 0.12499476E+03</rscale>
<asrwt>0</asrwt>
<pdfrwt beam="1">  1        4 0.37224222E-02 0.12499476E+03</pdfrwt>
<pdfrwt beam="2">  1       -4 0.24835405E-01 0.12499476E+03</pdfrwt>
<totfact> 0.92624902E+03</totfact>
</mgrwt>
</event>
<event>
 5    1  0.3206665E-002  0.1249963E+03  0.7818608E-02  0.1235075E+00
         -4   -1    0    0    0  501 -0.00000000000E+00  0.00000000000E+00  0.15779255600E+02  0.15830281339E+02  0.12700000000E+01 0. -1.
          4   -1    0    0  501    0  0.00000000000E+00 -0.00000000000E+00 -0.24708911603E+03  0.24709237981E+03  0.12700000000E+01 0. -1.
         25    2    1    2    0    0  0.00000000000E+00  0.00000000000E+00 -0.23130986043E+03  0.26292266115E+03  0.12499629680E+03 0.  0.
    9000005    1    3    3    0    0 -0.51926480902E+02  0.34759431352E+02 -0.11425797340E+03  0.13023233843E+03  0.10000000000E+01 0.  0.
    9000005    1    3    3    0    0  0.51926480902E+02 -0.34759431352E+02 -0.11705188702E+03  0.13269032272E+03  0.10000000000E+01 0.  0.
<mgrwt>
<rscale>  0 0.12499630E+03</rscale>
<asrwt>0</asrwt>
<pdfrwt beam="2">  1        4 0.38017883E-01 0.12499630E+03</pdfrwt>
<pdfrwt beam="1">  1       -4 0.24317541E-02 0.12499630E+03</pdfrwt>
<totfact> 0.80504284E+03</totfact>
</mgrwt>
</event>
<event>
 5    1  0.3206665E-002  0.1250001E+03  0.7818608E-02  0.1235069E+00
          4   -1    0    0  501    0  0.00000000000E+00  0.00000000000E+00  0.50294095817E+02  0.50310127947E+02  0.12700000000E+01 0. -1.
         -4   -1    0    0    0  501 -0.00000000000E+00 -0.00000000000E+00 -0.77634712584E+02  0.77645099640E+02  0.12700000000E+01 0. -1.
         25    2    1    2    0    0  0.00000000000E+00  0.00000000000E+00 -0.27340616767E+02  0.12795522759E+03  0.12500012377E+03 0.  0.
    9000005    1    3    3    0    0 -0.69937784594E+01 -0.34626783131E+02 -0.66438278996E+02  0.75252720636E+02  0.10000000000E+01 0.  0.
    9000005    1    3    3    0    0  0.69937784594E+01  0.34626783131E+02  0.39097662228E+02  0.52702506951E+02  0.10000000000E+01 0.  0.
<mgrwt>
<rscale>  0 0.12500012E+03</rscale>
<asrwt>0</asrwt>
<pdfrwt beam="1">  1        4 0.77395854E-02 0.12500012E+03</pdfrwt>
<pdfrwt beam="2">  1       -4 0.11945834E-01 0.12500012E+03</pdfrwt>
<totfact> 0.10388426E+04</totfact>
</mgrwt>
</event>
<event>
 5    1  0.3206665E-002  0.1250058E+03  0.7818608E-02  0.1235060E+00
         -4   -1    0    0    0  501 -0.00000000000E+00  0.00000000000E+00  0.69820383873E+03  0.69820499377E+03  0.12700000000E+01 0. -1.
          4   -1    0    0  501    0  0.00000000000E+00 -0.00000000000E+00 -0.55219939453E+01  0.56661554101E+01  0.12700000000E+01 0. -1.
         25    2    1    2    0    0  0.00000000000E+00  0.00000000000E+00  0.69268184479E+03  0.70387114918E+03  0.12500582605E+03 0.  0.
    9000005    1    3    3    0    0 -0.19367599404E+02  0.42858459015E+02  0.57806778103E+03  0.57997871588E+03  0.10000000000E+01 0.  0.
    9000005    1    3    3    0    0  0.19367599404E+02 -0.42858459015E+02  0.11461406376E+03  0.12389243329E+03  0.10000000000E+01 0.  0.
<mgrwt>
<rscale>  0 0.12500583E+03</rscale>
<asrwt>0</asrwt>
<pdfrwt beam="2">  1        4 0.86071625E-03 0.12500583E+03</pdfrwt>
<pdfrwt beam="1">  1       -4 0.10742709E+00 0.12500583E+03</pdfrwt>
<totfact> 0.42877683E+03</totfact>
</mgrwt>
</event>
<event>
 5    1  0.3206665E-002  0.1250025E+03  0.7818608E-02  0.1235065E+00
          4   -1    0    0  501    0  0.00000000000E+00  0.00000000000E+00  0.12966371970E+04  0.12966378189E+04  0.12700000000E+01 0. -1.
         -4   -1    0    0    0  501 -0.00000000000E+00 -0.00000000000E+00 -0.28782288468E+01  0.31459658762E+01  0.12700000000E+01 0. -1.
         25    2    1    2    0    0  0.00000000000E+00  0.00000000000E+00  0.12937589681E+04  0.12997837848E+04  0.12500247851E+03 0.  0.
    9000005    1    3    3    0    0  0.49163338220E+02 -0.36636345402E+02  0.77258398514E+03  0.77501372229E+03  0.10000000000E+01 0.  0.
    9000005    1    3    3    0    0 -0.49163338220E+02  0.36636345402E+02  0.52117498297E+03  0.52477006251E+03  0.10000000000E+01 0.  0.
<mgrwt>
<rscale>  0 0.12500248E+03</rscale>
<asrwt>0</asrwt>
<pdfrwt beam="1">  1        4 0.19950315E+00 0.12500248E+03</pdfrwt>
<pdfrwt beam="2">  1       -4 0.46344776E-03 0.12500248E+03</pdfrwt>
<totfact> 0.22232436E+03</totfact>
</mgrwt>
</event>
<event>
 5    1  0.3206665E-002  0.1250013E+03  0.7818608E-02  0.1235067E+00
         -4   -1    0    0    0  501 -0.00000000000E+00  0.00000000000E+00  0.26405721748E+02  0.26436244836E+02  0.12700000000E+01 0. -1.
          4   -1    0    0  501    0  0.00000000000E+00 -0.00000000000E+00 -0.14781638184E+03  0.14782183749E+03  0.12700000000E+01 0. -1.
         25    2    1    2    0    0  0.00000000000E+00  0.00000000000E+00 -0.12141066009E+03  0.17425808233E+03  0.12500132349E+03 0.  0.
    9000005    1    3    3    0    0 -0.57961110509E+01  0.19784060844E+02 -0.14294634356E+03  0.14442874057E+03  0.10000000000E+01 0.  0.
    9000005    1    3    3    0    0  0.57961110509E+01 -0.19784060844E+02  0.21535683472E+02  0.29829341753E+02  0.10000000000E+01 0.  0.
<mgrwt>
<rscale>  0 0.12500132E+03</rscale>
<asrwt>0</asrwt>
<pdfrwt beam="2">  1        4 0.22743749E-01 0.12500132E+03</pdfrwt>
<pdfrwt beam="1">  1       -4 0.40651864E-02 0.12500132E+03</pdfrwt>
<totfact> 0.94658086E+03</totfact>
</mgrwt>
</event>
<event>
 5    1  0.3206665E-002  0.1249985E+03  0.7818608E-02  0.1235072E+00
          4   -1    0    0  501    0  0.00000000000E+00  0.00000000000E+00  0.21800203680E+03  0.21800573605E+03  0.12700000000E+01 0. -1.
         -4   -1    0    0    0  501 -0.00000000000E+00 -0.00000000000E+00 -0.17891624332E+02  0.17936641861E+02  0.12700000000E+01 0. -1.
         25    2    1    2    0    0  0.00000000000E+00  0.00000000000E+00  0.20011041247E+03  0.23594237791E+03  0.12499851405E+03 0.  0.
    9000005    1    3    3    0    0 -0.36973603224E+02  0.16231143934E+02  0.10030995149E+02  0.41618724541E+02  0.10000000000E+01 0.  0.
    9000005    1    3    3    0    0  0.36973603224E+02 -0.16231143934E+02  0.19007941732E+03  0.19432365337E+03  0.10000000000E+01 0.  0.
<mgrwt>
<rscale>  0 0.12499851E+03</rscale>
<asrwt>0</asrwt>
<pdfrwt beam="1">  1        4 0.33542523E-01 0.12499851E+03</pdfrwt>
<pdfrwt beam="2">  1       -4 0.27563050E-02 0.12499851E+03</pdfrwt>
<totfact> 0.84408209E+03</totfact>
</mgrwt>
</event>
<event>
 5    1  0.3206665E-002  0.1250016E+03  0.7818608E-02  0.1235067E+00
         -4   -1    0    0    0  501 -0.00000000000E+00  0.00000000000E+00  0.28765492172E+03  0.28765772524E+03  0.12700000000E+01 0. -1.
          4   -1    0    0  501    0  0.00000000000E+00 -0.00000000000E+00 -0.13547415646E+02  0.13606813392E+02  0.12700000000E+01 0. -1.
         25    2    1    2    0    0  0.00000000000E+00  0.00000000000E+00  0.27410750608E+03  0.30126453863E+03  0.12500158939E+03 0.  0.
    9000005    1    3    3    0    0 -0.35487493215E+02 -0.13989000577E+02  0.25635408955E+03  0.25917845886E+03  0.10000000000E+01 0.  0.
    9000005    1    3    3    0    0  0.35487493215E+02  0.13989000577E+02  0.17753416530E+02  0.42086079770E+02  0.10000000000E+01 0.  0.
<mgrwt>
<rscale>  0 0.12500159E+03</rscale>
<asrwt>0</asrwt>
<pdfrwt beam="2">  1        4 0.20890027E-02 0.12500159E+03</pdfrwt>
<pdfrwt beam="1">  1       -4 0.44259385E-01 0.12500159E+03</pdfrwt>
<totfact> 0.75437830E+03</totfact>
</mgrwt>
</event>
<event>
 5    1  0.3206665E-002  0.1250020E+03  0.7818608E-02  0.1235066E+00
         -4   -1    0    0    0  501 -0.00000000000E+00  0.00000000000E+00  0.37072832363E+02  0.37094579111E+02  0.12700000000E+01 0.  1.
          4   -1    0    0  501    0  0.00000000000E+00 -0.00000000000E+00 -0.10531373795E+03  0.10532139527E+03  0.12700000000E+01 0.  1.
         25    2    1    2    0    0  0.00000000000E+00  0.00000000000E+00 -0.68240905589E+02  0.14241597438E+03  0.12500195424E+03 0.  0.
    9000005    1    3    3    0    0 -0.15044781132E+02 -0.51122042172E+02 -0.71310914662E+02  0.89028395386E+02  0.10000000000E+01 0.  0.
    9000005    1    3    3    0    0  0.15044781132E+02  0.51122042172E+02  0.30700090733E+01  0.53387578994E+02  0.10000000000E+01 0.  0.
<mgrwt>
<rscale>  0 0.12500195E+03</rscale>
<asrwt>0</asrwt>
<pdfrwt beam="2">  1        4 0.16204375E-01 0.12500195E+03</pdfrwt>
<pdfrwt beam="1">  1       -4 0.57057746E-02 0.12500195E+03</pdfrwt>
<totfact> 0.10083313E+04</totfact>
</mgrwt>
</event>
<event>
 5    1  0.3206665E-002  0.1250005E+03  0.7818608E-02  0.1235069E+00
          4   -1    0    0  501    0  0.00000000000E+00  0.00000000000E+00  0.86183285233E+01  0.87113998034E+01  0.12700000000E+01 0. -1.
         -4   -1    0    0    0  501 -0.00000000000E+00 -0.00000000000E+00 -0.45072434753E+03  0.45072613676E+03  0.12700000000E+01 0. -1.
         25    2    1    2    0    0  0.00000000000E+00  0.00000000000E+00 -0.44210601901E+03  0.45943753656E+03  0.12500047184E+03 0.  0.
    9000005    1    3    3    0    0  0.53921551652E+02  0.16711995977E+02 -0.12253523508E+03  0.13491741318E+03  0.10000000000E+01 0.  0.
    9000005    1    3    3    0    0 -0.53921551652E+02 -0.16711995977E+02 -0.31957078393E+03  0.32452012338E+03  0.10000000000E+01 0.  0.
<mgrwt>
<rscale>  0 0.12500047E+03</rscale>
<asrwt>0</asrwt>
<pdfrwt beam="1">  1        4 0.13331940E-02 0.12500047E+03</pdfrwt>
<pdfrwt beam="2">  1       -4 0.69349486E-01 0.12500047E+03</pdfrwt>
<totfact> 0.59154247E+03</totfact>
</mgrwt>
</event>
<event>
 5    1  0.3206665E-002  0.1249997E+03  0.7818608E-02  0.1235070E+00
          4   -1    0    0  501    0  0.00000000000E+00  0.00000000000E+00  0.11687336340E+03  0.11688026340E+03  0.12700000000E+01 0.  1.
         -4   -1    0    0    0  501 -0.00000000000E+00 -0.00000000000E+00 -0.33402801340E+02  0.33426935806E+02  0.12700000000E+01 0.  1.
         25    2    1    2    0    0  0.00000000000E+00  0.00000000000E+00  0.83470562057E+02  0.15030719920E+03  0.12499967761E+03 0.  0.
    9000005    1    3    3    0    0  0.61456568128E+01 -0.18360838170E+02 -0.29710926242E+02  0.35477156229E+02  0.10000000000E+01 0.  0.
    9000005    1    3    3    0    0 -0.61456568128E+01  0.18360838170E+02  0.11318148830E+03  0.11483004297E+03  0.10000000000E+01 0.  0.
<mgrwt>
<rscale>  0 0.12499968E+03</rscale>
<asrwt>0</asrwt>
<pdfrwt beam="1">  1        4 0.17982904E-01 0.12499968E+03</pdfrwt>
<pdfrwt beam="2">  1       -4 0.51412799E-02 0.12499968E+03</pdfrwt>
<totfact> 0.99243218E+03</totfact>
</mgrwt>
</event>
<event>
 5    1  0.3206665E-002  0.1249997E+03  0.7818608E-02  0.1235070E+00
         -4   -1    0    0    0  501 -0.00000000000E+00  0.00000000000E+00  0.11700605962E+03  0.11701295179E+03  0.12700000000E+01 0.  1.
          4   -1    0    0  501    0  0.00000000000E+00 -0.00000000000E+00 -0.33364911557E+02  0.33389073411E+02  0.12700000000E+01 0.  1.
         25    2    1    2    0    0  0.00000000000E+00  0.00000000000E+00  0.83641148059E+02  0.15040202520E+03  0.12499971015E+03 0.  0.
    9000005    1    3    3    0    0 -0.81165684356E+01 -0.52750897779E+02  0.27077020265E+01  0.53449673058E+02  0.10000000000E+01 0.  0.
    9000005    1    3    3    0    0  0.81165684356E+01  0.52750897779E+02  0.80933446033E+02  0.96952352145E+02  0.10000000000E+01 0.  0.
<mgrwt>
<rscale>  0 0.12499971E+03</rscale>
<asrwt>0</asrwt>
<pdfrwt beam="2">  1        4 0.51354522E-02 0.12499971E+03</pdfrwt>
<pdfrwt beam="1">  1       -4 0.18003321E-01 0.12499971E+03</pdfrwt>
<totfact> 0.99224268E+03</totfact>
</mgrwt>
</event>
<event>
 5    1  0.3206665E-002  0.1249983E+03  0.7818608E-02  0.1235072E+00
         -4   -1    0    0    0  501 -0.00000000000E+00  0.00000000000E+00  0.32096181385E+03  0.32096432644E+03  0.12700000000E+01 0. -1.
          4   -1    0    0  501    0  0.00000000000E+00 -0.00000000000E+00 -0.12134417226E+02  0.12200695940E+02  0.12700000000E+01 0. -1.
         25    2    1    2    0    0  0.00000000000E+00  0.00000000000E+00  0.30882739662E+03  0.33316502238E+03  0.12499828493E+03 0.  0.
    9000005    1    3    3    0    0 -0.10863995160E+02  0.60662672665E+02  0.12682287033E+03  0.14100718664E+03  0.10000000000E+01 0.  0.
    9000005    1    3    3    0    0  0.10863995160E+02 -0.60662672665E+02  0.18200452630E+03  0.19215783574E+03  0.10000000000E+01 0.  0.
<mgrwt>
<rscale>  0 0.12499828E+03</rscale>
<asrwt>0</asrwt>
<pdfrwt beam="2">  1        4 0.18721249E-02 0.12499828E+03</pdfrwt>
<pdfrwt beam="1">  1       -4 0.49384036E-01 0.12499828E+03</pdfrwt>
<totfact> 0.71619919E+03</totfact>
</mgrwt>
</event>
<event>
 5    1  0.3206665E-002  0.1250036E+03  0.7818608E-02  0.1235064E+00
         -4   -1    0    0    0  501 -0.00000000000E+00  0.00000000000E+00  0.21491672117E+02  0.21529163253E+02  0.12700000000E+01 0. -1.
          4   -1    0    0  501    0  0.00000000000E+00 -0.00000000000E+00 -0.18156887754E+03  0.18157331906E+03  0.12700000000E+01 0. -1.
         25    2    1    2    0    0  0.00000000000E+00  0.00000000000E+00 -0.16007720543E+03  0.20310248231E+03  0.12500362644E+03 0.  0.
    9000005    1    3    3    0    0 -0.54508687443E+01  0.62195326914E+02 -0.75587201170E+02  0.98042825544E+02  0.10000000000E+01 0.  0.
    9000005    1    3    3    0    0  0.54508687443E+01 -0.62195326914E+02 -0.84490004258E+02  0.10505965676E+03  0.10000000000E+01 0.  0.
<mgrwt>
<rscale>  0 0.12500363E+03</rscale>
<asrwt>0</asrwt>
<pdfrwt beam="2">  1        4 0.27936898E-01 0.12500363E+03</pdfrwt>
<pdfrwt beam="1">  1       -4 0.33096368E-02 0.12500363E+03</pdfrwt>
<totfact> 0.89607604E+03</totfact>
</mgrwt>
</event>
<event>
 5    1  0.3206665E-002  0.1249985E+03  0.7818608E-02  0.1235072E+00
         -4   -1    0    0    0  501 -0.00000000000E+00  0.00000000000E+00  0.41166083736E+01  0.43080580894E+01  0.12700000000E+01 0.  1.
          4   -1    0    0  501    0  0.00000000000E+00 -0.00000000000E+00 -0.92712234987E+03  0.92712321971E+03  0.12700000000E+01 0.  1.
         25    2    1    2    0    0  0.00000000000E+00  0.00000000000E+00 -0.92300574149E+03  0.93143127780E+03  0.12499850571E+03 0.  0.
    9000005    1    3    3    0    0 -0.56493836371E+02  0.23931672129E+02 -0.54994675015E+03  0.55335947311E+03  0.10000000000E+01 0.  0.
    9000005    1    3    3    0    0  0.56493836371E+02 -0.23931672129E+02 -0.37305899134E+03  0.37807180469E+03  0.10000000000E+01 0.  0.
<mgrwt>
<rscale>  0 0.12499851E+03</rscale>
<asrwt>0</asrwt>
<pdfrwt beam="2">  1        4 0.14264884E+00 0.12499851E+03</pdfrwt>
<pdfrwt beam="1">  1       -4 0.64811891E-03 0.12499851E+03</pdfrwt>
<totfact> 0.32985657E+03</totfact>
</mgrwt>
</event>
<event>
 5    1  0.3206665E-002  0.1249998E+03  0.7818608E-02  0.1235070E+00
          4   -1    0    0  501    0  0.00000000000E+00  0.00000000000E+00  0.65205318449E+02  0.65217685132E+02  0.12700000000E+01 0. -1.
         -4   -1    0    0    0  501 -0.00000000000E+00 -0.00000000000E+00 -0.59881963145E+02  0.59895428958E+02  0.12700000000E+01 0. -1.
         25    2    1    2    0    0  0.00000000000E+00  0.00000000000E+00  0.53233553042E+01  0.12511311409E+03  0.12499981282E+03 0.  0.
    9000005    1    3    3    0    0 -0.27859157781E+02  0.55453831040E+02  0.10015326369E+02  0.62869442590E+02  0.10000000000E+01 0.  0.
    9000005    1    3    3    0    0  0.27859157781E+02 -0.55453831040E+02 -0.46919710653E+01  0.62243671500E+02  0.10000000000E+01 0.  0.
<mgrwt>
<rscale>  0 0.12499981E+03</rscale>
<asrwt>0</asrwt>
<pdfrwt beam="1">  1        4 0.10033575E-01 0.12499981E+03</pdfrwt>
<pdfrwt beam="2">  1       -4 0.92145968E-02 0.12499981E+03</pdfrwt>
<totfact> 0.10450450E+04</totfact>
</mgrwt>
</event>
<event>
 5    1  0.3206665E-002  0.1249922E+03  0.7818608E-02  0.1235081E+00
         -4   -1    0    0    0  501 -0.00000000000E+00  0.00000000000E+00  0.90346545571E+02  0.90355471315E+02  0.12700000000E+01 0. -1.
          4   -1    0    0  501    0  0.00000000000E+00 -0.00000000000E+00 -0.43210532671E+02  0.43229191916E+02  0.12700000000E+01 0. -1.
         25    2    1    2    0    0  0.00000000000E+00  0.00000000000E+00  0.47136012900E+02  0.13358466323E+03  0.12499223391E+03 0.  0.
    9000005    1    3    3    0    0 -0.70154219454E+01  0.52093643670E+02 -0.12545423411E+02  0.54049528253E+02  0.10000000000E+01 0.  0.
    9000005    1    3    3    0    0  0.70154219454E+01 -0.52093643670E+02  0.59681436310E+02  0.79535134978E+02  0.10000000000E+01 0.  0.
<mgrwt>
<rscale>  0 0.12499223E+03</rscale>
<asrwt>0</asrwt>
<pdfrwt beam="2">  1        4 0.66498962E-02 0.12499223E+03</pdfrwt>
<pdfrwt beam="1">  1       -4 0.13901590E-01 0.12499223E+03</pdfrwt>
<totfact> 0.10269788E+04</totfact>
</mgrwt>
</event>
<event>
 5    1  0.3206665E-002  0.1249976E+03  0.7818608E-02  0.1235073E+00
         -4   -1    0    0    0  501 -0.00000000000E+00  0.00000000000E+00  0.99462281101E+02  0.99470388870E+02  0.12700000000E+01 0. -1.
          4   -1    0    0  501    0  0.00000000000E+00 -0.00000000000E+00 -0.39252171106E+02  0.39272711093E+02  0.12700000000E+01 0. -1.
         25    2    1    2    0    0  0.00000000000E+00  0.00000000000E+00  0.60210109995E+02  0.13874309996E+03  0.12499756174E+03 0.  0.
    9000005    1    3    3    0    0  0.21676629772E+02 -0.44035662579E+02 -0.12827577147E+02  0.50740147739E+02  0.10000000000E+01 0.  0.
    9000005    1    3    3    0    0 -0.21676629772E+02  0.44035662579E+02  0.73037687142E+02  0.88002952224E+02  0.10000000000E+01 0.  0.
<mgrwt>
<rscale>  0 0.12499756E+03</rscale>
<asrwt>0</asrwt>
<pdfrwt beam="2">  1        4 0.60409993E-02 0.12499756E+03</pdfrwt>
<pdfrwt beam="1">  1       -4 0.15304093E-01 0.12499756E+03</pdfrwt>
<totfact> 0.10160260E+04</totfact>
</mgrwt>
</event>
<event>
 5    1  0.3206665E-002  0.1249968E+03  0.7818608E-02  0.1235074E+00
          4   -1    0    0  501    0  0.00000000000E+00  0.00000000000E+00  0.11956616715E+03  0.11957291176E+03  0.12700000000E+01 0.  1.
         -4   -1    0    0    0  501 -0.00000000000E+00 -0.00000000000E+00 -0.32648490531E+02  0.32673182183E+02  0.12700000000E+01 0.  1.
         25    2    1    2    0    0  0.00000000000E+00  0.00000000000E+00  0.86917676616E+02  0.15224609394E+03  0.12499676241E+03 0.  0.
    9000005    1    3    3    0    0 -0.44493489773E+02 -0.17044904185E+02 -0.57888806505E+01  0.48007400784E+02  0.10000000000E+01 0.  0.
    9000005    1    3    3    0    0  0.44493489773E+02  0.17044904185E+02  0.92706557266E+02  0.10423869316E+03  0.10000000000E+01 0.  0.
<mgrwt>
<rscale>  0 0.12499676E+03</rscale>
<asrwt>0</asrwt>
<pdfrwt beam="1">  1        4 0.18397213E-01 0.12499676E+03</pdfrwt>
<pdfrwt beam="2">  1       -4 0.50252629E-02 0.12499676E+03</pdfrwt>
<totfact> 0.98865045E+03</totfact>
</mgrwt>
</event>
<event>
 5    1  0.3206665E-002  0.1250032E+03  0.7818608E-02  0.1235064E+00
          4   -1    0    0  501    0  0.00000000000E+00  0.00000000000E+00  0.15468069958E+03  0.15468591314E+03  0.12700000000E+01 0.  1.
         -4   -1    0    0    0  501 -0.00000000000E+00 -0.00000000000E+00 -0.25233323443E+02  0.25265262951E+02  0.12700000000E+01 0.  1.
         25    2    1    2    0    0  0.00000000000E+00  0.00000000000E+00  0.12944737614E+03  0.17995117609E+03  0.12500321030E+03 0.  0.
    9000005    1    3    3    0    0  0.40503619869E+02 -0.22605387673E+02  0.12501245705E+03  0.13334414570E+03  0.10000000000E+01 0.  0.
    9000005    1    3    3    0    0 -0.40503619869E+02  0.22605387673E+02  0.44349190862E+01  0.46607030388E+02  0.10000000000E+01 0.  0.
<mgrwt>
<rscale>  0 0.12500321E+03</rscale>
<asrwt>0</asrwt>
<pdfrwt beam="1">  1        4 0.23799888E-01 0.12500321E+03</pdfrwt>
<pdfrwt beam="2">  1       -4 0.38849077E-02 0.12500321E+03</pdfrwt>
<totfact> 0.93619053E+03</totfact>
</mgrwt>
</event>
<event>
 5    1  0.3206665E-002  0.1249991E+03  0.7818608E-02  0.1235071E+00
          4   -1    0    0  501    0  0.00000000000E+00  0.00000000000E+00  0.13851130399E+03  0.13851712613E+03  0.12700000000E+01 0.  1.
         -4   -1    0    0    0  501 -0.00000000000E+00 -0.00000000000E+00 -0.28180549938E+02  0.28209152678E+02  0.12700000000E+01 0.  1.
         25    2    1    2    0    0  0.00000000000E+00  0.00000000000E+00  0.11033075405E+03  0.16672627881E+03  0.12499910703E+03 0.  0.
    9000005    1    3    3    0    0  0.54963922256E+02 -0.82456414176E+00  0.94811058270E+02  0.10959858314E+03  0.10000000000E+01 0.  0.
    9000005    1    3    3    0    0 -0.54963922256E+02  0.82456414176E+00  0.15519695779E+02  0.57127695672E+02  0.10000000000E+01 0.  0.
<mgrwt>
<rscale>  0 0.12499911E+03</rscale>
<asrwt>0</asrwt>
<pdfrwt beam="1">  1        4 0.21312079E-01 0.12499911E+03</pdfrwt>
<pdfrwt beam="2">  1       -4 0.43381173E-02 0.12499911E+03</pdfrwt>
<totfact> 0.96063384E+03</totfact>
</mgrwt>
</event>
<event>
 5    1  0.3206665E-002  0.1250011E+03  0.7818608E-02  0.1235068E+00
          4   -1    0    0  501    0  0.00000000000E+00  0.00000000000E+00  0.13474124124E+02  0.13533843538E+02  0.12700000000E+01 0. -1.
         -4   -1    0    0    0  501 -0.00000000000E+00 -0.00000000000E+00 -0.28921040626E+03  0.28921319470E+03  0.12700000000E+01 0. -1.
         25    2    1    2    0    0  0.00000000000E+00  0.00000000000E+00 -0.27573628213E+03  0.30274703824E+03  0.12500108750E+03 0.  0.
    9000005    1    3    3    0    0  0.29913850291E+02 -0.19296937686E+02 -0.13470434207E+02  0.38074438158E+02  0.10000000000E+01 0.  0.
    9000005    1    3    3    0    0 -0.29913850291E+02  0.19296937686E+02 -0.26226584793E+03  0.26467260008E+03  0.10000000000E+01 0.  0.
<mgrwt>
<rscale>  0 0.12500109E+03</rscale>
<asrwt>0</asrwt>
<pdfrwt beam="1">  1        4 0.20777507E-02 0.12500109E+03</pdfrwt>
<pdfrwt beam="2">  1       -4 0.44498712E-01 0.12500109E+03</pdfrwt>
<totfact> 0.75253728E+03</totfact>
</mgrwt>
</event>
<event>
 5    1  0.3206665E-002  0.1249985E+03  0.7818608E-02  0.1235072E+00
          4   -1    0    0  501    0  0.00000000000E+00  0.00000000000E+00  0.44587416859E+03  0.44587597728E+03  0.12700000000E+01 0. -1.
         -4   -1    0    0    0  501 -0.00000000000E+00 -0.00000000000E+00 -0.87128088907E+01  0.88048815305E+01  0.12700000000E+01 0. -1.
         25    2    1    2    0    0  0.00000000000E+00  0.00000000000E+00  0.43716135970E+03  0.45468085881E+03  0.12499851581E+03 0.  0.
    9000005    1    3    3    0    0 -0.40710986774E+02 -0.29270930559E+02  0.82917152766E+02  0.96904210655E+02  0.10000000000E+01 0.  0.
    9000005    1    3    3    0    0  0.40710986774E+02  0.29270930559E+02  0.35424420693E+03  0.35777664815E+03  0.10000000000E+01 0.  0.
<mgrwt>
<rscale>  0 0.12499852E+03</rscale>
<asrwt>0</asrwt>
<pdfrwt beam="1">  1        4 0.68603253E-01 0.12499852E+03</pdfrwt>
<pdfrwt beam="2">  1       -4 0.13476537E-02 0.12499852E+03</pdfrwt>
<totfact> 0.59562369E+03</totfact>
</mgrwt>
</event>
<event>
 5    1  0.3206665E-002  0.1250107E+03  0.7818608E-02  0.1235053E+00
         -4   -1    0    0    0  501 -0.00000000000E+00  0.00000000000E+00  0.80595869115E+01  0.81590343292E+01  0.12700000000E+01 0. -1.
          4   -1    0    0  501    0  0.00000000000E+00 -0.00000000000E+00 -0.48168149504E+03  0.48168316927E+03  0.12700000000E+01 0. -1.
         25    2    1    2    0    0  0.00000000000E+00  0.00000000000E+00 -0.47362190813E+03  0.48984220360E+03  0.12501068984E+03 0.  0.
    9000005    1    3    3    0    0  0.30596162777E+02  0.90218236222E+01 -0.26220979842E+02  0.41304458137E+02  0.10000000000E+01 0.  0.
    9000005    1    3    3    0    0 -0.30596162777E+02 -0.90218236222E+01 -0.44740092829E+03  0.44853774547E+03  0.10000000000E+01 0.  0.
<mgrwt>
<rscale>  0 0.12501069E+03</rscale>
<asrwt>0</asrwt>
<pdfrwt beam="2">  1        4 0.74112602E-01 0.12501069E+03</pdfrwt>
<pdfrwt beam="1">  1       -4 0.12477154E-02 0.12501069E+03</pdfrwt>
<totfact> 0.56647879E+03</totfact>
</mgrwt>
</event>
<event>
 5    1  0.3206665E-002  0.1250002E+03  0.7818608E-02  0.1235069E+00
          4   -1    0    0  501    0  0.00000000000E+00  0.00000000000E+00  0.30578367511E+04  0.30578370148E+04  0.12700000000E+01 0.  1.
         -4   -1    0    0    0  501 -0.00000000000E+00 -0.00000000000E+00 -0.96148484326E+00  0.15929071234E+01  0.12700000000E+01 0.  1.
         25    2    1    2    0    0  0.00000000000E+00  0.00000000000E+00  0.30568752662E+04  0.30594299219E+04  0.12500021562E+03 0.  0.
    9000005    1    3    3    0    0 -0.62282575673E+02 -0.14085429504E+01  0.14081335230E+04  0.14095113061E+04  0.10000000000E+01 0.  0.
    9000005    1    3    3    0    0  0.62282575673E+02  0.14085429504E+01  0.16487417432E+04  0.16499186159E+04  0.10000000000E+01 0.  0.
<mgrwt>
<rscale>  0 0.12500022E+03</rscale>
<asrwt>0</asrwt>
<pdfrwt beam="1">  1        4 0.47048429E+00 0.12500022E+03</pdfrwt>
<pdfrwt beam="2">  1       -4 0.19651228E-03 0.12500022E+03</pdfrwt>
<totfact> 0.16026860E+02</totfact>
</mgrwt>
</event>
<event>
 5    1  0.3206665E-002  0.1249995E+03  0.7818608E-02  0.1235070E+00
          4   -1    0    0  501    0  0.00000000000E+00  0.00000000000E+00  0.10470692476E+03  0.10471462645E+03  0.12700000000E+01 0.  1.
         -4   -1    0    0    0  501 -0.00000000000E+00 -0.00000000000E+00 -0.37286309956E+02  0.37307932269E+02  0.12700000000E+01 0.  1.
         25    2    1    2    0    0  0.00000000000E+00  0.00000000000E+00  0.67420614804E+02  0.14202255872E+03  0.12499947154E+03 0.  0.
    9000005    1    3    3    0    0 -0.19438717359E+02  0.36185560652E+01 -0.33644105764E+02  0.39036950870E+02  0.10000000000E+01 0.  0.
    9000005    1    3    3    0    0  0.19438717359E+02 -0.36185560652E+01  0.10106472057E+03  0.10298560785E+03  0.10000000000E+01 0.  0.
<mgrwt>
<rscale>  0 0.12499947E+03</rscale>
<asrwt>0</asrwt>
<pdfrwt beam="1">  1        4 0.16111013E-01 0.12499947E+03</pdfrwt>
<pdfrwt beam="2">  1       -4 0.57386111E-02 0.12499947E+03</pdfrwt>
<totfact> 0.10091958E+04</totfact>
</mgrwt>
</event>
<event>
 5    1  0.3206665E-002  0.1249995E+03  0.7818608E-02  0.1235070E+00
         -4   -1    0    0    0  501 -0.00000000000E+00  0.00000000000E+00  0.12453515225E+04  0.12453521701E+04  0.12700000000E+01 0. -1.
          4   -1    0    0  501    0  0.00000000000E+00 -0.00000000000E+00 -0.30074093446E+01  0.32645690322E+01  0.12700000000E+01 0. -1.
         25    2    1    2    0    0  0.00000000000E+00  0.00000000000E+00  0.12423441132E+04  0.12486167391E+04  0.12499946268E+03 0.  0.
    9000005    1    3    3    0    0  0.53119559716E+01 -0.54779190015E+02  0.32548486332E+03  0.33010660821E+03  0.10000000000E+01 0.  0.
    9000005    1    3    3    0    0 -0.53119559716E+01  0.54779190015E+02  0.91685924987E+03  0.91851013092E+03  0.10000000000E+01 0.  0.
<mgrwt>
<rscale>  0 0.12499946E+03</rscale>
<asrwt>0</asrwt>
<pdfrwt beam="2">  1        4 0.48250952E-03 0.12499946E+03</pdfrwt>
<pdfrwt beam="1">  1       -4 0.19161244E+00 0.12499946E+03</pdfrwt>
<totfact> 0.23474722E+03</totfact>
</mgrwt>
</event>
<event>
 5    1  0.3206665E-002  0.1249985E+03  0.7818608E-02  0.1235072E+00
         -4   -1    0    0    0  501 -0.00000000000E+00  0.00000000000E+00  0.41187845153E+02  0.41207420307E+02  0.12700000000E+01 0. -1.
          4   -1    0    0  501    0  0.00000000000E+00 -0.00000000000E+00 -0.94791178064E+02  0.94799685331E+02  0.12700000000E+01 0. -1.
         25    2    1    2    0    0  0.00000000000E+00  0.00000000000E+00 -0.53603332911E+02  0.13600710564E+03  0.12499846193E+03 0.  0.
    9000005    1    3    3    0    0 -0.15107198509E+02  0.55483261819E+02 -0.53421257067E+02  0.78494907449E+02  0.10000000000E+01 0.  0.
    9000005    1    3    3    0    0  0.15107198509E+02 -0.55483261819E+02 -0.18207584458E+00  0.57512198188E+02  0.10000000000E+01 0.  0.
<mgrwt>
<rscale>  0 0.12499846E+03</rscale>
<asrwt>0</asrwt>
<pdfrwt beam="2">  1        4 0.14585418E-01 0.12499846E+03</pdfrwt>
<pdfrwt beam="1">  1       -4 0.63387518E-02 0.12499846E+03</pdfrwt>
<totfact> 0.10217241E+04</totfact>
</mgrwt>
</event>
<event>
 5    1  0.3206665E-002  0.1249972E+03  0.7818608E-02  0.1235074E+00
          4   -1    0    0  501    0  0.00000000000E+00  0.00000000000E+00  0.25959970296E+02  0.25991016866E+02  0.12700000000E+01 0.  1.
         -4   -1    0    0    0  501 -0.00000000000E+00 -0.00000000000E+00 -0.15034175031E+03  0.15034711432E+03  0.12700000000E+01 0.  1.
         25    2    1    2    0    0  0.00000000000E+00  0.00000000000E+00 -0.12438178001E+03  0.17633813119E+03  0.12499723722E+03 0.  0.
    9000005    1    3    3    0    0  0.84472392650E+01 -0.35578809030E+02 -0.13367875416E+03  0.13859371132E+03  0.10000000000E+01 0.  0.
    9000005    1    3    3    0    0 -0.84472392650E+01  0.35578809030E+02  0.92969741482E+01  0.37744419872E+02  0.10000000000E+01 0.  0.
<mgrwt>
<rscale>  0 0.12499724E+03</rscale>
<asrwt>0</asrwt>
<pdfrwt beam="1">  1        4 0.39966425E-02 0.12499724E+03</pdfrwt>
<pdfrwt beam="2">  1       -4 0.23132300E-01 0.12499724E+03</pdfrwt>
<totfact> 0.94286178E+03</totfact>
</mgrwt>
</event>
<event>
 5    1  0.3206665E-002  0.1249908E+03  0.7818608E-02  0.1235084E+00
          4   -1    0    0  501    0  0.00000000000E+00  0.00000000000E+00  0.11986024367E+03  0.11986697174E+03  0.12700000000E+01 0.  1.
         -4   -1    0    0    0  501 -0.00000000000E+00 -0.00000000000E+00 -0.32565210593E+02  0.32589965342E+02  0.12700000000E+01 0.  1.
         25    2    1    2    0    0  0.00000000000E+00  0.00000000000E+00  0.87295033081E+02  0.15245693708E+03  0.12499077911E+03 0.  0.
    9000005    1    3    3    0    0 -0.48429181327E+02 -0.17054723499E+02  0.20634497012E+00  0.51354569182E+02  0.10000000000E+01 0.  0.
    9000005    1    3    3    0    0  0.48429181327E+02  0.17054723499E+02  0.87088688111E+02  0.10110236790E+03  0.10000000000E+01 0.  0.
<mgrwt>
<rscale>  0 0.12499078E+03</rscale>
<asrwt>0</asrwt>
<pdfrwt beam="1">  1        4 0.18442459E-01 0.12499078E+03</pdfrwt>
<pdfrwt beam="2">  1       -4 0.50124541E-02 0.12499078E+03</pdfrwt>
<totfact> 0.98836684E+03</totfact>
</mgrwt>
</event>
<event>
 5    1  0.3206665E-002  0.1249987E+03  0.7818608E-02  0.1235071E+00
          4   -1    0    0  501    0  0.00000000000E+00  0.00000000000E+00  0.12172946418E+03  0.12173608894E+03  0.12700000000E+01 0. -1.
         -4   -1    0    0    0  501 -0.00000000000E+00 -0.00000000000E+00 -0.32068878342E+02  0.32094015923E+02  0.12700000000E+01 0. -1.
         25    2    1    2    0    0  0.00000000000E+00  0.00000000000E+00  0.89660585843E+02  0.15383010486E+03  0.12499872203E+03 0.  0.
    9000005    1    3    3    0    0  0.12465499665E+02 -0.40284213511E+02  0.10158681706E+03  0.10999585420E+03  0.10000000000E+01 0.  0.
    9000005    1    3    3    0    0 -0.12465499665E+02  0.40284213511E+02 -0.11926231221E+02  0.43834250664E+02  0.10000000000E+01 0.  0.
<mgrwt>
<rscale>  0 0.12499872E+03</rscale>
<asrwt>0</asrwt>
<pdfrwt beam="1">  1        4 0.18730053E-01 0.12499872E+03</pdfrwt>
<pdfrwt beam="2">  1       -4 0.49361169E-02 0.12499872E+03</pdfrwt>
<totfact> 0.98548463E+03</totfact>
</mgrwt>
</event>
<event>
 5    1  0.3206665E-002  0.1249854E+03  0.7818608E-02  0.1235092E+00
         -4   -1    0    0    0  501 -0.00000000000E+00  0.00000000000E+00  0.57526644796E+03  0.57526784983E+03  0.12700000000E+01 0.  1.
          4   -1    0    0  501    0  0.00000000000E+00 -0.00000000000E+00 -0.67279274016E+01  0.68467442716E+01  0.12700000000E+01 0.  1.
         25    2    1    2    0    0  0.00000000000E+00  0.00000000000E+00  0.56853852056E+03  0.58211459410E+03  0.12498540438E+03 0.  0.
    9000005    1    3    3    0    0 -0.48849484994E+02  0.87827834377E+01  0.46106442462E+03  0.46372924548E+03  0.10000000000E+01 0.  0.
    9000005    1    3    3    0    0  0.48849484994E+02 -0.87827834377E+01  0.10747409594E+03  0.11838534862E+03  0.10000000000E+01 0.  0.
<mgrwt>
<rscale>  0 0.12498540E+03</rscale>
<asrwt>0</asrwt>
<pdfrwt beam="2">  1        4 0.10443138E-02 0.12498540E+03</pdfrwt>
<pdfrwt beam="1">  1       -4 0.88511736E-01 0.12498540E+03</pdfrwt>
<totfact> 0.50032442E+03</totfact>
</mgrwt>
</event>
<event>
 5    1  0.3206665E-002  0.1250010E+03  0.7818608E-02  0.1235068E+00
         -4   -1    0    0    0  501 -0.00000000000E+00  0.00000000000E+00  0.10793977080E+02  0.10868433245E+02  0.12700000000E+01 0.  1.
          4   -1    0    0  501    0  0.00000000000E+00 -0.00000000000E+00 -0.36057793781E+03  0.36058017435E+03  0.12700000000E+01 0.  1.
         25    2    1    2    0    0  0.00000000000E+00  0.00000000000E+00 -0.34978396073E+03  0.37144860760E+03  0.12500099560E+03 0.  0.
    9000005    1    3    3    0    0 -0.15489700265E+02 -0.11549680907E+02 -0.35149363435E+03  0.35202571061E+03  0.10000000000E+01 0.  0.
    9000005    1    3    3    0    0  0.15489700265E+02  0.11549680907E+02  0.17096736205E+01  0.19422896984E+02  0.10000000000E+01 0.  0.
<mgrwt>
<rscale>  0 0.12500100E+03</rscale>
<asrwt>0</asrwt>
<pdfrwt beam="2">  1        4 0.55479419E-01 0.12500100E+03</pdfrwt>
<pdfrwt beam="1">  1       -4 0.16665116E-02 0.12500100E+03</pdfrwt>
<totfact> 0.67426178E+03</totfact>
</mgrwt>
</event>
<event>
 5    1  0.3206665E-002  0.1250001E+03  0.7818608E-02  0.1235069E+00
         -4   -1    0    0    0  501 -0.00000000000E+00  0.00000000000E+00  0.53342327167E+03  0.53342478351E+03  0.12700000000E+01 0. -1.
          4   -1    0    0  501    0  0.00000000000E+00 -0.00000000000E+00 -0.72663943241E+01  0.73765429893E+01  0.12700000000E+01 0. -1.
         25    2    1    2    0    0  0.00000000000E+00  0.00000000000E+00  0.52615687735E+03  0.54080132650E+03  0.12500006065E+03 0.  0.
    9000005    1    3    3    0    0  0.57242637886E+01  0.19213149895E+02  0.51915436900E+03  0.51954227083E+03  0.10000000000E+01 0.  0.
    9000005    1    3    3    0    0 -0.57242637886E+01 -0.19213149895E+02  0.70025083470E+01  0.21259055670E+02  0.10000000000E+01 0.  0.
<mgrwt>
<rscale>  0 0.12500006E+03</rscale>
<asrwt>0</asrwt>
<pdfrwt beam="2">  1        4 0.11264960E-02 0.12500006E+03</pdfrwt>
<pdfrwt beam="1">  1       -4 0.82073714E-01 0.12500006E+03</pdfrwt>
<totfact> 0.52831989E+03</totfact>
</mgrwt>
</event>
<event>
 5    1  0.3206665E-002  0.1249986E+03  0.7818608E-02  0.1235071E+00
         -4   -1    0    0    0  501 -0.00000000000E+00  0.00000000000E+00  0.16843727498E+03  0.16844206275E+03  0.12700000000E+01 0. -1.
          4   -1    0    0  501    0  0.00000000000E+00 -0.00000000000E+00 -0.23168103445E+02  0.23202885967E+02  0.12700000000E+01 0. -1.
         25    2    1    2    0    0  0.00000000000E+00  0.00000000000E+00  0.14526917154E+03  0.19164494872E+03  0.12499861667E+03 0.  0.
    9000005    1    3    3    0    0  0.83669755287E+01  0.61141564039E+02  0.87724222052E+02  0.10726059979E+03  0.10000000000E+01 0.  0.
    9000005    1    3    3    0    0 -0.83669755287E+01 -0.61141564039E+02  0.57544949488E+02  0.84384348929E+02  0.10000000000E+01 0.  0.
<mgrwt>
<rscale>  0 0.12499862E+03</rscale>
<asrwt>0</asrwt>
<pdfrwt beam="2">  1        4 0.35673674E-02 0.12499862E+03</pdfrwt>
<pdfrwt beam="1">  1       -4 0.25916471E-01 0.12499862E+03</pdfrwt>
<totfact> 0.91564720E+03</totfact>
</mgrwt>
</event>
<event>
 5    1  0.3206665E-002  0.1249999E+03  0.7818608E-02  0.1235069E+00
          4   -1    0    0  501    0  0.00000000000E+00  0.00000000000E+00  0.14341814462E+03  0.14342376757E+03  0.12700000000E+01 0. -1.
         -4   -1    0    0    0  501 -0.00000000000E+00 -0.00000000000E+00 -0.27215781735E+02  0.27245397326E+02  0.12700000000E+01 0. -1.
         25    2    1    2    0    0  0.00000000000E+00  0.00000000000E+00  0.11620236288E+03  0.17066916490E+03  0.12499989883E+03 0.  0.
    9000005    1    3    3    0    0  0.16631669798E+02  0.81565952435E+00 -0.24137663566E+02  0.29341174877E+02  0.10000000000E+01 0.  0.
    9000005    1    3    3    0    0 -0.16631669798E+02 -0.81565952435E+00  0.14034002645E+03  0.14132799002E+03  0.10000000000E+01 0.  0.
<mgrwt>
<rscale>  0 0.12499990E+03</rscale>
<asrwt>0</asrwt>
<pdfrwt beam="1">  1        4 0.22067040E-01 0.12499990E+03</pdfrwt>
<pdfrwt beam="2">  1       -4 0.41897540E-02 0.12499990E+03</pdfrwt>
<totfact> 0.95324276E+03</totfact>
</mgrwt>
</event>
<event>
 5    1  0.3206665E-002  0.1249996E+03  0.7818608E-02  0.1235070E+00
         -4   -1    0    0    0  501 -0.00000000000E+00  0.00000000000E+00  0.31006650013E+02  0.31032648050E+02  0.12700000000E+01 0. -1.
          4   -1    0    0  501    0  0.00000000000E+00 -0.00000000000E+00 -0.12589816900E+03  0.12590457441E+03  0.12700000000E+01 0. -1.
         25    2    1    2    0    0  0.00000000000E+00  0.00000000000E+00 -0.94891518988E+02  0.15693722246E+03  0.12499956567E+03 0.  0.
    9000005    1    3    3    0    0 -0.16415755938E+02  0.60205256337E+02 -0.43267950716E+02  0.75942514396E+02  0.10000000000E+01 0.  0.
    9000005    1    3    3    0    0  0.16415755938E+02 -0.60205256337E+02 -0.51623568272E+02  0.80994708066E+02  0.10000000000E+01 0.  0.
<mgrwt>
<rscale>  0 0.12499957E+03</rscale>
<asrwt>0</asrwt>
<pdfrwt beam="2">  1        4 0.19371441E-01 0.12499957E+03</pdfrwt>
<pdfrwt beam="1">  1       -4 0.47727465E-02 0.12499957E+03</pdfrwt>
<totfact> 0.97937491E+03</totfact>
</mgrwt>
</event>
<event>
 5    1  0.3206665E-002  0.1249980E+03  0.7818608E-02  0.1235072E+00
          4   -1    0    0  501    0  0.00000000000E+00  0.00000000000E+00  0.30035235950E+03  0.30035504450E+03  0.12700000000E+01 0.  1.
         -4   -1    0    0    0  501 -0.00000000000E+00 -0.00000000000E+00 -0.12971388503E+02  0.13033411668E+02  0.12700000000E+01 0.  1.
         25    2    1    2    0    0  0.00000000000E+00  0.00000000000E+00  0.28738097099E+03  0.31338845617E+03  0.12499800786E+03 0.  0.
    9000005    1    3    3    0    0 -0.55905051749E+02 -0.25993861861E+02  0.16926705650E+03  0.18014825029E+03  0.10000000000E+01 0.  0.
    9000005    1    3    3    0    0  0.55905051749E+02  0.25993861861E+02  0.11811391449E+03  0.13324020588E+03  0.10000000000E+01 0.  0.
<mgrwt>
<rscale>  0 0.12499801E+03</rscale>
<asrwt>0</asrwt>
<pdfrwt beam="1">  1        4 0.46213031E-01 0.12499801E+03</pdfrwt>
<pdfrwt beam="2">  1       -4 0.20005759E-02 0.12499801E+03</pdfrwt>
<totfact> 0.73952709E+03</totfact>
</mgrwt>
</event>
<event>
 5    1  0.3206665E-002  0.1249985E+03  0.7818608E-02  0.1235072E+00
         -4   -1    0    0    0  501 -0.00000000000E+00  0.00000000000E+00  0.10614763459E+03  0.10615523175E+03  0.12700000000E+01 0. -1.
          4   -1    0    0  501    0  0.00000000000E+00 -0.00000000000E+00 -0.36779419103E+02  0.36801339236E+02  0.12700000000E+01 0. -1.
         25    2    1    2    0    0  0.00000000000E+00  0.00000000000E+00  0.69368215486E+02  0.14295657099E+03  0.12499852747E+03 0.  0.
    9000005    1    3    3    0    0 -0.22844748295E+02  0.29751672632E+02 -0.22477614021E+02  0.43741144031E+02  0.10000000000E+01 0.  0.
    9000005    1    3    3    0    0  0.22844748295E+02 -0.29751672632E+02  0.91845829507E+02  0.99215426960E+02  0.10000000000E+01 0.  0.
<mgrwt>
<rscale>  0 0.12499853E+03</rscale>
<asrwt>0</asrwt>
<pdfrwt beam="2">  1        4 0.56606428E-02 0.12499853E+03</pdfrwt>
<pdfrwt beam="1">  1       -4 0.16332676E-01 0.12499853E+03</pdfrwt>
<totfact> 0.10073007E+04</totfact>
</mgrwt>
</event>
<event>
 5    1  0.3206665E-002  0.1250079E+03  0.7818608E-02  0.1235057E+00
          4   -1    0    0  501    0  0.00000000000E+00  0.00000000000E+00  0.28784218493E+03  0.28784498662E+03  0.12700000000E+01 0. -1.
         -4   -1    0    0    0  501 -0.00000000000E+00 -0.00000000000E+00 -0.13539932674E+02  0.13599363103E+02  0.12700000000E+01 0. -1.
         25    2    1    2    0    0  0.00000000000E+00  0.00000000000E+00  0.27430225225E+03  0.30144434973E+03  0.12500788131E+03 0.  0.
    9000005    1    3    3    0    0  0.39787795920E+02  0.46569743643E+02  0.16706932447E+03  0.17794653384E+03  0.10000000000E+01 0.  0.
    9000005    1    3    3    0    0 -0.39787795920E+02 -0.46569743643E+02  0.10723292778E+03  0.12349781588E+03  0.10000000000E+01 0.  0.
<mgrwt>
<rscale>  0 0.12500788E+03</rscale>
<asrwt>0</asrwt>
<pdfrwt beam="1">  1        4 0.44288197E-01 0.12500788E+03</pdfrwt>
<pdfrwt beam="2">  1       -4 0.20878538E-02 0.12500788E+03</pdfrwt>
<totfact> 0.75404827E+03</totfact>
</mgrwt>
</event>
<event>
 5    1  0.3206665E-002  0.1250007E+03  0.7818608E-02  0.1235068E+00
         -4   -1    0    0    0  501 -0.00000000000E+00  0.00000000000E+00  0.66092130304E+02  0.66104331084E+02  0.12700000000E+01 0.  1.
          4   -1    0    0  501    0  0.00000000000E+00 -0.00000000000E+00 -0.59079251303E+02  0.59092900035E+02  0.12700000000E+01 0.  1.
         25    2    1    2    0    0  0.00000000000E+00  0.00000000000E+00  0.70128790009E+01  0.12519723112E+03  0.12500066483E+03 0.  0.
    9000005    1    3    3    0    0 -0.62016632768E+02 -0.34839964369E+01 -0.33666092635E+01  0.62213624143E+02  0.10000000000E+01 0.  0.
    9000005    1    3    3    0    0  0.62016632768E+02  0.34839964369E+01  0.10379488264E+02  0.62983606976E+02  0.10000000000E+01 0.  0.
<mgrwt>
<rscale>  0 0.12500066E+03</rscale>
<asrwt>0</asrwt>
<pdfrwt beam="2">  1        4 0.90911041E-02 0.12500066E+03</pdfrwt>
<pdfrwt beam="1">  1       -4 0.10170008E-01 0.12500066E+03</pdfrwt>
<totfact> 0.10448423E+04</totfact>
</mgrwt>
</event>
<event>
 5    1  0.3206665E-002  0.1250030E+03  0.7818608E-02  0.1235065E+00
         -4   -1    0    0    0  501 -0.00000000000E+00  0.00000000000E+00  0.12018179637E+03  0.12018850644E+03  0.12700000000E+01 0.  1.
          4   -1    0    0  501    0  0.00000000000E+00 -0.00000000000E+00 -0.32484381116E+02  0.32509197414E+02  0.12700000000E+01 0.  1.
         25    2    1    2    0    0  0.00000000000E+00  0.00000000000E+00  0.87697415257E+02  0.15269770385E+03  0.12500300844E+03 0.  0.
    9000005    1    3    3    0    0  0.42712790545E+02 -0.24398340672E+02  0.90934381206E+02  0.10339111755E+03  0.10000000000E+01 0.  0.
    9000005    1    3    3    0    0 -0.42712790545E+02  0.24398340672E+02 -0.32369659489E+01  0.49306586297E+02  0.10000000000E+01 0.  0.
<mgrwt>
<rscale>  0 0.12500301E+03</rscale>
<asrwt>0</asrwt>
<pdfrwt beam="2">  1        4 0.50000222E-02 0.12500301E+03</pdfrwt>
<pdfrwt beam="1">  1       -4 0.18491932E-01 0.12500301E+03</pdfrwt>
<totfact> 0.98761959E+03</totfact>
</mgrwt>
</event>
<event>
 5    1  0.3206665E-002  0.1250002E+03  0.7818608E-02  0.1235069E+00
         -4   -1    0    0    0  501 -0.00000000000E+00  0.00000000000E+00  0.45623519099E+02  0.45641191866E+02  0.12700000000E+01 0. -1.
          4   -1    0    0  501    0  0.00000000000E+00 -0.00000000000E+00 -0.85580588552E+02  0.85590011315E+02  0.12700000000E+01 0. -1.
         25    2    1    2    0    0  0.00000000000E+00  0.00000000000E+00 -0.39957069453E+02  0.13123120318E+03  0.12500024516E+03 0.  0.
    9000005    1    3    3    0    0  0.18463600777E+02 -0.51281019993E+02  0.12116899809E+02  0.55843234381E+02  0.10000000000E+01 0.  0.
    9000005    1    3    3    0    0 -0.18463600777E+02  0.51281019993E+02 -0.52073969261E+02  0.75387968800E+02  0.10000000000E+01 0.  0.
<mgrwt>
<rscale>  0 0.12500025E+03</rscale>
<asrwt>0</asrwt>
<pdfrwt beam="2">  1        4 0.13168329E-01 0.12500025E+03</pdfrwt>
<pdfrwt beam="1">  1       -4 0.70210872E-02 0.12500025E+03</pdfrwt>
<totfact> 0.10318078E+04</totfact>
</mgrwt>
</event>
<event>
 5    1  0.3206665E-002  0.1249987E+03  0.7818608E-02  0.1235071E+00
          4   -1    0    0  501    0  0.00000000000E+00  0.00000000000E+00  0.36709955850E+02  0.36731917436E+02  0.12700000000E+01 0. -1.
         -4   -1    0    0    0  501 -0.00000000000E+00 -0.00000000000E+00 -0.10634875152E+03  0.10635633431E+03  0.12700000000E+01 0. -1.
         25    2    1    2    0    0  0.00000000000E+00  0.00000000000E+00 -0.69638795665E+02  0.14308825175E+03  0.12499874370E+03 0.  0.
    9000005    1    3    3    0    0  0.52350883422E+02 -0.31386947394E+02 -0.50152461492E+02  0.79006486160E+02  0.10000000000E+01 0.  0.
    9000005    1    3    3    0    0 -0.52350883422E+02  0.31386947394E+02 -0.19486334173E+02  0.64081765591E+02  0.10000000000E+01 0.  0.
<mgrwt>
<rscale>  0 0.12499874E+03</rscale>
<asrwt>0</asrwt>
<pdfrwt beam="1">  1        4 0.56499582E-02 0.12499874E+03</pdfrwt>
<pdfrwt beam="2">  1       -4 0.16363619E-01 0.12499874E+03</pdfrwt>
<totfact> 0.10070261E+04</totfact>
</mgrwt>
</event>
<event>
 5    1  0.3206665E-002  0.1250119E+03  0.7818608E-02  0.1235051E+00
          4   -1    0    0  501    0  0.00000000000E+00  0.00000000000E+00  0.21342532313E+02  0.21380284973E+02  0.12700000000E+01 0.  1.
         -4   -1    0    0    0  501 -0.00000000000E+00 -0.00000000000E+00 -0.18285973110E+03  0.18286414125E+03  0.12700000000E+01 0.  1.
         25    2    1    2    0    0  0.00000000000E+00  0.00000000000E+00 -0.16151719878E+03  0.20424442623E+03  0.12501192000E+03 0.  0.
    9000005    1    3    3    0    0 -0.19966279002E+02  0.56113254466E+02 -0.11169939149E+03  0.12659029854E+03  0.10000000000E+01 0.  0.
    9000005    1    3    3    0    0  0.19966279002E+02 -0.56113254466E+02 -0.49817807293E+02  0.77654127691E+02  0.10000000000E+01 0.  0.
<mgrwt>
<rscale>  0 0.12501192E+03</rscale>
<asrwt>0</asrwt>
<pdfrwt beam="1">  1        4 0.32867099E-02 0.12501192E+03</pdfrwt>
<pdfrwt beam="2">  1       -4 0.28135509E-01 0.12501192E+03</pdfrwt>
<totfact> 0.89400715E+03</totfact>
</mgrwt>
</event>
<event>
 5    1  0.3206665E-002  0.1249997E+03  0.7818608E-02  0.1235070E+00
         -4   -1    0    0    0  501 -0.00000000000E+00  0.00000000000E+00  0.95953042221E+01  0.96789856449E+01  0.12700000000E+01 0.  1.
          4   -1    0    0  501    0  0.00000000000E+00 -0.00000000000E+00 -0.40524589064E+03  0.40524788066E+03  0.12700000000E+01 0.  1.
         25    2    1    2    0    0  0.00000000000E+00  0.00000000000E+00 -0.39565058642E+03  0.41492686631E+03  0.12499967140E+03 0.  0.
    9000005    1    3    3    0    0  0.38823469591E+02 -0.32656267265E+01 -0.35638125849E+02  0.52811003807E+02  0.10000000000E+01 0.  0.
    9000005    1    3    3    0    0 -0.38823469591E+02  0.32656267265E+01 -0.36001246057E+03  0.36211586250E+03  0.10000000000E+01 0.  0.
<mgrwt>
<rscale>  0 0.12499967E+03</rscale>
<asrwt>0</asrwt>
<pdfrwt beam="2">  1        4 0.62352099E-01 0.12499967E+03</pdfrwt>
<pdfrwt beam="1">  1       -4 0.14827911E-02 0.12499967E+03</pdfrwt>
<totfact> 0.63126921E+03</totfact>
</mgrwt>
</event>
<event>
 5    1  0.3206665E-002  0.1250020E+03  0.7818608E-02  0.1235066E+00
         -4   -1    0    0    0  501 -0.00000000000E+00  0.00000000000E+00  0.37057688798E+03  0.37057906417E+03  0.12700000000E+01 0. -1.
          4   -1    0    0  501    0  0.00000000000E+00 -0.00000000000E+00 -0.10500864932E+02  0.10577384569E+02  0.12700000000E+01 0. -1.
         25    2    1    2    0    0  0.00000000000E+00  0.00000000000E+00  0.36007602304E+03  0.38115644874E+03  0.12500198416E+03 0.  0.
    9000005    1    3    3    0    0  0.31119997724E+01  0.21287250895E+02  0.11315544321E+01  0.21566455636E+02  0.10000000000E+01 0.  0.
    9000005    1    3    3    0    0 -0.31119997724E+01 -0.21287250895E+02  0.35894446861E+03  0.35958999310E+03  0.10000000000E+01 0.  0.
<mgrwt>
<rscale>  0 0.12500198E+03</rscale>
<asrwt>0</asrwt>
<pdfrwt beam="2">  1        4 0.16215712E-02 0.12500198E+03</pdfrwt>
<pdfrwt beam="1">  1       -4 0.57017884E-01 0.12500198E+03</pdfrwt>
<totfact> 0.66424777E+03</totfact>
</mgrwt>
</event>
<event>
 5    1  0.3206665E-002  0.1250081E+03  0.7818608E-02  0.1235057E+00
         -4   -1    0    0    0  501 -0.00000000000E+00  0.00000000000E+00  0.62334897326E+01  0.63615481014E+01  0.12700000000E+01 0. -1.
          4   -1    0    0  501    0  0.00000000000E+00 -0.00000000000E+00 -0.62023551947E+03  0.62023681971E+03  0.12700000000E+01 0. -1.
         25    2    1    2    0    0  0.00000000000E+00  0.00000000000E+00 -0.61400202974E+03  0.62659836781E+03  0.12500808778E+03 0.  0.
    9000005    1    3    3    0    0  0.35101895986E+02  0.51498342522E+02 -0.28374128803E+03  0.29050704108E+03  0.10000000000E+01 0.  0.
    9000005    1    3    3    0    0 -0.35101895986E+02 -0.51498342522E+02 -0.33026074171E+03  0.33609132672E+03  0.10000000000E+01 0.  0.
<mgrwt>
<rscale>  0 0.12500809E+03</rscale>
<asrwt>0</asrwt>
<pdfrwt beam="2">  1        4 0.95430751E-01 0.12500809E+03</pdfrwt>
<pdfrwt beam="1">  1       -4 0.96894957E-03 0.12500809E+03</pdfrwt>
<totfact> 0.47222214E+03</totfact>
</mgrwt>
</event>
<event>
 5    1  0.3206665E-002  0.1249965E+03  0.7818608E-02  0.1235075E+00
          4   -1    0    0  501    0  0.00000000000E+00  0.00000000000E+00  0.12609197648E+02  0.12672993542E+02  0.12700000000E+01 0.  1.
         -4   -1    0    0    0  501 -0.00000000000E+00 -0.00000000000E+00 -0.30892968454E+03  0.30893229500E+03  0.12700000000E+01 0.  1.
         25    2    1    2    0    0  0.00000000000E+00  0.00000000000E+00 -0.29632048690E+03  0.32160528854E+03  0.12499652260E+03 0.  0.
    9000005    1    3    3    0    0  0.21571521687E+02 -0.54092141055E+02 -0.20647761656E+03  0.21453507036E+03  0.10000000000E+01 0.  0.
    9000005    1    3    3    0    0 -0.21571521687E+02  0.54092141055E+02 -0.89842870335E+02  0.10707021818E+03  0.10000000000E+01 0.  0.
<mgrwt>
<rscale>  0 0.12499652E+03</rscale>
<asrwt>0</asrwt>
<pdfrwt beam="1">  1        4 0.19449850E-02 0.12499652E+03</pdfrwt>
<pdfrwt beam="2">  1       -4 0.47532746E-01 0.12499652E+03</pdfrwt>
<totfact> 0.72971230E+03</totfact>
</mgrwt>
</event>
<event>
 5    1  0.3206665E-002  0.1250017E+03  0.7818608E-02  0.1235067E+00
          4   -1    0    0  501    0  0.00000000000E+00  0.00000000000E+00  0.25975270856E+03  0.25975581322E+03  0.12700000000E+01 0. -1.
         -4   -1    0    0    0  501 -0.00000000000E+00 -0.00000000000E+00 -0.15008741158E+02  0.15062377340E+02  0.12700000000E+01 0. -1.
         25    2    1    2    0    0  0.00000000000E+00  0.00000000000E+00  0.24474396740E+03  0.27481819056E+03  0.12500171313E+03 0.  0.
    9000005    1    3    3    0    0 -0.60310930114E+02 -0.10787979136E+02  0.14943858222E+03  0.16151371038E+03  0.10000000000E+01 0.  0.
    9000005    1    3    3    0    0  0.60310930114E+02  0.10787979136E+02  0.95305385179E+02  0.11330448018E+03  0.10000000000E+01 0.  0.
<mgrwt>
<rscale>  0 0.12500171E+03</rscale>
<asrwt>0</asrwt>
<pdfrwt beam="1">  1        4 0.39966316E-01 0.12500171E+03</pdfrwt>
<pdfrwt beam="2">  1       -4 0.23134020E-02 0.12500171E+03</pdfrwt>
<totfact> 0.78867227E+03</totfact>
</mgrwt>
</event>
<event>
 5    1  0.3206665E-002  0.1249968E+03  0.7818608E-02  0.1235074E+00
          4   -1    0    0  501    0  0.00000000000E+00  0.00000000000E+00  0.14455010116E+03  0.14455568009E+03  0.12700000000E+01 0.  1.
         -4   -1    0    0    0  501 -0.00000000000E+00 -0.00000000000E+00 -0.27001091291E+02  0.27030942102E+02  0.12700000000E+01 0.  1.
         25    2    1    2    0    0  0.00000000000E+00  0.00000000000E+00  0.11754900987E+03  0.17158662219E+03  0.12499679673E+03 0.  0.
    9000005    1    3    3    0    0 -0.27029664283E+02  0.21858277664E+02 -0.12510446648E+02  0.36958061759E+02  0.10000000000E+01 0.  0.
    9000005    1    3    3    0    0  0.27029664283E+02 -0.21858277664E+02  0.13005945652E+03  0.13462856043E+03  0.10000000000E+01 0.  0.
<mgrwt>
<rscale>  0 0.12499680E+03</rscale>
<asrwt>0</asrwt>
<pdfrwt beam="1">  1        4 0.22241202E-01 0.12499680E+03</pdfrwt>
<pdfrwt beam="2">  1       -4 0.41567394E-02 0.12499680E+03</pdfrwt>
<totfact> 0.95160577E+03</totfact>
</mgrwt>
</event>
<event>
 5    1  0.3206665E-002  0.1249996E+03  0.7818608E-02  0.1235070E+00
         -4   -1    0    0    0  501 -0.00000000000E+00  0.00000000000E+00  0.21915226527E+02  0.21951994299E+02  0.12700000000E+01 0.  1.
          4   -1    0    0  501    0  0.00000000000E+00 -0.00000000000E+00 -0.17805396194E+03  0.17805849113E+03  0.12700000000E+01 0.  1.
         25    2    1    2    0    0  0.00000000000E+00  0.00000000000E+00 -0.15613873541E+03  0.20001048543E+03  0.12499955834E+03 0.  0.
    9000005    1    3    3    0    0 -0.49168956911E+02 -0.12893793974E+02 -0.13623402325E+03  0.14541164100E+03  0.10000000000E+01 0.  0.
    9000005    1    3    3    0    0  0.49168956911E+02  0.12893793974E+02 -0.19904712164E+02  0.54598844430E+02  0.10000000000E+01 0.  0.
<mgrwt>
<rscale>  0 0.12499956E+03</rscale>
<asrwt>0</asrwt>
<pdfrwt beam="2">  1        4 0.27396093E-01 0.12499956E+03</pdfrwt>
<pdfrwt beam="1">  1       -4 0.33747501E-02 0.12499956E+03</pdfrwt>
<totfact> 0.90134629E+03</totfact>
</mgrwt>
</event>
<event>
 5    1  0.3206665E-002  0.1250008E+03  0.7818608E-02  0.1235068E+00
         -4   -1    0    0    0  501 -0.00000000000E+00  0.00000000000E+00  0.66642473844E+02  0.66654573887E+02  0.12700000000E+01 0.  1.
          4   -1    0    0  501    0  0.00000000000E+00 -0.00000000000E+00 -0.58591497026E+02  0.58605259353E+02  0.12700000000E+01 0.  1.
         25    2    1    2    0    0  0.00000000000E+00  0.00000000000E+00  0.80509768180E+01  0.12525983324E+03  0.12500083038E+03 0.  0.
    9000005    1    3    3    0    0  0.20386293350E+02 -0.58615864282E+02 -0.33301158244E+01  0.62157140969E+02  0.10000000000E+01 0.  0.
    9000005    1    3    3    0    0 -0.20386293350E+02  0.58615864282E+02  0.11381092642E+02  0.63102692271E+02  0.10000000000E+01 0.  0.
<mgrwt>
<rscale>  0 0.12500083E+03</rscale>
<asrwt>0</asrwt>
<pdfrwt beam="2">  1        4 0.90160659E-02 0.12500083E+03</pdfrwt>
<pdfrwt beam="1">  1       -4 0.10254678E-01 0.12500083E+03</pdfrwt>
<totfact> 0.10447026E+04</totfact>
</mgrwt>
</event>
<event>
 5    1  0.3206665E-002  0.1250005E+03  0.7818608E-02  0.1235069E+00
         -4   -1    0    0    0  501 -0.00000000000E+00  0.00000000000E+00  0.14003315775E+03  0.14003891663E+03  0.12700000000E+01 0.  1.
          4   -1    0    0  501    0  0.00000000000E+00 -0.00000000000E+00 -0.27874605174E+02  0.27903521527E+02  0.12700000000E+01 0.  1.
         25    2    1    2    0    0  0.00000000000E+00  0.00000000000E+00  0.11215855258E+03  0.16794243816E+03  0.12500048647E+03 0.  0.
    9000005    1    3    3    0    0  0.52098632963E+02  0.31386229868E+02  0.36799797127E+02  0.71095626100E+02  0.10000000000E+01 0.  0.
    9000005    1    3    3    0    0 -0.52098632963E+02 -0.31386229868E+02  0.75358755453E+02  0.96846812056E+02  0.10000000000E+01 0.  0.
<mgrwt>
<rscale>  0 0.12500049E+03</rscale>
<asrwt>0</asrwt>
<pdfrwt beam="2">  1        4 0.42910681E-02 0.12500049E+03</pdfrwt>
<pdfrwt beam="1">  1       -4 0.21546230E-01 0.12500049E+03</pdfrwt>
<totfact> 0.95831978E+03</totfact>
</mgrwt>
</event>
<event>
 5    1  0.3206665E-002  0.1249976E+03  0.7818608E-02  0.1235073E+00
         -4   -1    0    0    0  501 -0.00000000000E+00  0.00000000000E+00  0.12623375941E+03  0.12624014780E+03  0.12700000000E+01 0.  1.
          4   -1    0    0  501    0  0.00000000000E+00 -0.00000000000E+00 -0.30923160004E+02  0.30949228176E+02  0.12700000000E+01 0.  1.
         25    2    1    2    0    0  0.00000000000E+00  0.00000000000E+00  0.95310599408E+02  0.15718937597E+03  0.12499755821E+03 0.  0.
    9000005    1    3    3    0    0  0.40951057645E+02  0.44667083908E+02  0.66849155602E+02  0.90232738581E+02  0.10000000000E+01 0.  0.
    9000005    1    3    3    0    0 -0.40951057645E+02 -0.44667083908E+02  0.28461443806E+02  0.66956637390E+02  0.10000000000E+01 0.  0.
<mgrwt>
<rscale>  0 0.12499756E+03</rscale>
<asrwt>0</asrwt>
<pdfrwt beam="2">  1        4 0.47599059E-02 0.12499756E+03</pdfrwt>
<pdfrwt beam="1">  1       -4 0.19423075E-01 0.12499756E+03</pdfrwt>
<totfact> 0.97892778E+03</totfact>
</mgrwt>
</event>
<event>
 5    1  0.3206665E-002  0.1249971E+03  0.7818608E-02  0.1235074E+00
          4   -1    0    0  501    0  0.00000000000E+00  0.00000000000E+00  0.27914729250E+02  0.27943604082E+02  0.12700000000E+01 0.  1.
         -4   -1    0    0    0  501 -0.00000000000E+00 -0.00000000000E+00 -0.13982439044E+03  0.13983015791E+03  0.12700000000E+01 0.  1.
         25    2    1    2    0    0  0.00000000000E+00  0.00000000000E+00 -0.11190966119E+03  0.16777376199E+03  0.12499705175E+03 0.  0.
    9000005    1    3    3    0    0  0.14038610968E+02 -0.60172019252E+02 -0.68496615418E+02  0.92252592497E+02  0.10000000000E+01 0.  0.
    9000005    1    3    3    0    0 -0.14038610968E+02  0.60172019252E+02 -0.43413045770E+02  0.75521169494E+02  0.10000000000E+01 0.  0.
<mgrwt>
<rscale>  0 0.12499705E+03</rscale>
<asrwt>0</asrwt>
<pdfrwt beam="1">  1        4 0.42972386E-02 0.12499705E+03</pdfrwt>
<pdfrwt beam="2">  1       -4 0.21514109E-01 0.12499705E+03</pdfrwt>
<totfact> 0.95870997E+03</totfact>
</mgrwt>
</event>
<event>
 5    1  0.3206665E-002  0.1249957E+03  0.7818608E-02  0.1235076E+00
          4   -1    0    0  501    0  0.00000000000E+00  0.00000000000E+00  0.70764967317E+01  0.71895553405E+01  0.12700000000E+01 0.  1.
         -4   -1    0    0    0  501 -0.00000000000E+00 -0.00000000000E+00 -0.54747724138E+03  0.54747871441E+03  0.12700000000E+01 0.  1.
         25    2    1    2    0    0  0.00000000000E+00  0.00000000000E+00 -0.54040074465E+03  0.55466826975E+03  0.12499569852E+03 0.  0.
    9000005    1    3    3    0    0 -0.22957313073E+02  0.49064592064E+02 -0.40844884891E+03  0.41202649744E+03  0.10000000000E+01 0.  0.
    9000005    1    3    3    0    0  0.22957313073E+02 -0.49064592064E+02 -0.13195189574E+03  0.14264177231E+03  0.10000000000E+01 0.  0.
<mgrwt>
<rscale>  0 0.12499570E+03</rscale>
<asrwt>0</asrwt>
<pdfrwt beam="1">  1        4 0.10975024E-02 0.12499570E+03</pdfrwt>
<pdfrwt beam="2">  1       -4 0.84236045E-01 0.12499570E+03</pdfrwt>
<totfact> 0.51865002E+03</totfact>
</mgrwt>
</event>
<event>
 5    1  0.3206665E-002  0.1250006E+03  0.7818608E-02  0.1235068E+00
          4   -1    0    0  501    0  0.00000000000E+00  0.00000000000E+00  0.25496519866E+03  0.25496836162E+03  0.12700000000E+01 0. -1.
         -4   -1    0    0    0  501 -0.00000000000E+00 -0.00000000000E+00 -0.15291284098E+02  0.15343932657E+02  0.12700000000E+01 0. -1.
         25    2    1    2    0    0  0.00000000000E+00  0.00000000000E+00  0.23967391456E+03  0.27031229428E+03  0.12500060446E+03 0.  0.
    9000005    1    3    3    0    0 -0.28624730792E+02  0.37169430429E+02  0.30561400107E+02  0.55999472746E+02  0.10000000000E+01 0.  0.
    9000005    1    3    3    0    0  0.28624730792E+02 -0.37169430429E+02  0.20911251446E+03  0.21431282153E+03  0.10000000000E+01 0.  0.
<mgrwt>
<rscale>  0 0.12500060E+03</rscale>
<asrwt>0</asrwt>
<pdfrwt beam="1">  1        4 0.39229707E-01 0.12500060E+03</pdfrwt>
<pdfrwt beam="2">  1       -4 0.23567985E-02 0.12500060E+03</pdfrwt>
<totfact> 0.79479241E+03</totfact>
</mgrwt>
</event>
<event>
 5    1  0.3206665E-002  0.1249996E+03  0.7818608E-02  0.1235070E+00
          4   -1    0    0  501    0  0.00000000000E+00  0.00000000000E+00  0.16727102397E+01  0.21002046438E+01  0.12700000000E+01 0.  1.
         -4   -1    0    0    0  501 -0.00000000000E+00 -0.00000000000E+00 -0.20702384652E+04  0.20702388548E+04  0.12700000000E+01 0.  1.
         25    2    1    2    0    0  0.00000000000E+00  0.00000000000E+00 -0.20685657550E+04  0.20723390594E+04  0.12499957789E+03 0.  0.
    9000005    1    3    3    0    0 -0.26029132161E+02  0.50952558464E+02 -0.61764926172E+03  0.62029451831E+03  0.10000000000E+01 0.  0.
    9000005    1    3    3    0    0  0.26029132161E+02 -0.50952558464E+02 -0.14509164933E+04  0.14520445411E+04  0.10000000000E+01 0.  0.
<mgrwt>
<rscale>  0 0.12499958E+03</rscale>
<asrwt>0</asrwt>
<pdfrwt beam="1">  1        4 0.29025584E-03 0.12499958E+03</pdfrwt>
<pdfrwt beam="2">  1       -4 0.31852932E+00 0.12499958E+03</pdfrwt>
<totfact> 0.89466547E+02</totfact>
</mgrwt>
</event>
<event>
 5    1  0.3206665E-002  0.1250025E+03  0.7818608E-02  0.1235065E+00
          4   -1    0    0  501    0  0.00000000000E+00  0.00000000000E+00  0.25578710515E+03  0.25579025795E+03  0.12700000000E+01 0.  1.
         -4   -1    0    0    0  501 -0.00000000000E+00 -0.00000000000E+00 -0.15242450817E+02  0.15295267467E+02  0.12700000000E+01 0.  1.
         25    2    1    2    0    0  0.00000000000E+00  0.00000000000E+00  0.24054465434E+03  0.27108552542E+03  0.12500252542E+03 0.  0.
    9000005    1    3    3    0    0  0.16806050092E+02 -0.59570782528E+02  0.13896374165E+03  0.15212837652E+03  0.10000000000E+01 0.  0.
    9000005    1    3    3    0    0 -0.16806050092E+02  0.59570782528E+02  0.10158091269E+03  0.11895714890E+03  0.10000000000E+01 0.  0.
<mgrwt>
<rscale>  0 0.12500253E+03</rscale>
<asrwt>0</asrwt>
<pdfrwt beam="1">  1        4 0.39356169E-01 0.12500253E+03</pdfrwt>
<pdfrwt beam="2">  1       -4 0.23492977E-02 0.12500253E+03</pdfrwt>
<totfact> 0.79370642E+03</totfact>
</mgrwt>
</event>
<event>
 5    1  0.3206665E-002  0.1250017E+03  0.7818608E-02  0.1235067E+00
          4   -1    0    0  501    0  0.00000000000E+00  0.00000000000E+00  0.76752024128E+01  0.77795650313E+01  0.12700000000E+01 0. -1.
         -4   -1    0    0    0  501 -0.00000000000E+00 -0.00000000000E+00 -0.50541636871E+03  0.50541796432E+03  0.12700000000E+01 0. -1.
         25    2    1    2    0    0  0.00000000000E+00  0.00000000000E+00 -0.49774116629E+03  0.51319752935E+03  0.12500174202E+03 0.  0.
    9000005    1    3    3    0    0 -0.24474439667E+02 -0.16772856191E+02 -0.23065623664E+02  0.37594546104E+02  0.10000000000E+01 0.  0.
    9000005    1    3    3    0    0  0.24474439667E+02  0.16772856191E+02 -0.47467554263E+03  0.47560298325E+03  0.10000000000E+01 0.  0.
<mgrwt>
<rscale>  0 0.12500174E+03</rscale>
<asrwt>0</asrwt>
<pdfrwt beam="1">  1        4 0.11889514E-02 0.12500174E+03</pdfrwt>
<pdfrwt beam="2">  1       -4 0.77764489E-01 0.12500174E+03</pdfrwt>
<totfact> 0.54852656E+03</totfact>
</mgrwt>
</event>
<event>
 5    1  0.3206665E-002  0.1250002E+03  0.7818608E-02  0.1235069E+00
          4   -1    0    0  501    0  0.00000000000E+00  0.00000000000E+00  0.54619763949E+02  0.54634526756E+02  0.12700000000E+01 0.  1.
         -4   -1    0    0    0  501 -0.00000000000E+00 -0.00000000000E+00 -0.71487305678E+02  0.71498585812E+02  0.12700000000E+01 0.  1.
         25    2    1    2    0    0  0.00000000000E+00  0.00000000000E+00 -0.16867541729E+02  0.12613311257E+03  0.12500019249E+03 0.  0.
    9000005    1    3    3    0    0 -0.22171738307E+01 -0.20715850533E+02  0.51017101452E+02  0.55116303974E+02  0.10000000000E+01 0.  0.
    9000005    1    3    3    0    0  0.22171738307E+01  0.20715850533E+02 -0.67884643181E+02  0.71016808595E+02  0.10000000000E+01 0.  0.
<mgrwt>
<rscale>  0 0.12500019E+03</rscale>
<asrwt>0</asrwt>
<pdfrwt beam="1">  1        4 0.84050439E-02 0.12500019E+03</pdfrwt>
<pdfrwt beam="2">  1       -4 0.11000050E-01 0.12500019E+03</pdfrwt>
<totfact> 0.10427997E+04</totfact>
</mgrwt>
</event>
<event>
 5    1  0.3206665E-002  0.1249950E+03  0.7818608E-02  0.1235077E+00
         -4   -1    0    0    0  501 -0.00000000000E+00  0.00000000000E+00  0.83621200494E+02  0.83630844023E+02  0.12700000000E+01 0.  1.
          4   -1    0    0  501    0  0.00000000000E+00 -0.00000000000E+00 -0.46688957696E+02  0.46706227323E+02  0.12700000000E+01 0.  1.
         25    2    1    2    0    0  0.00000000000E+00  0.00000000000E+00  0.36932242798E+02  0.13033707135E+03  0.12499504634E+03 0.  0.
    9000005    1    3    3    0    0 -0.60448842463E+02  0.78300818246E+01  0.32822909405E+02  0.69236667441E+02  0.10000000000E+01 0.  0.
    9000005    1    3    3    0    0  0.60448842463E+02 -0.78300818246E+01  0.41093333929E+01  0.61100403905E+02  0.10000000000E+01 0.  0.
<mgrwt>
<rscale>  0 0.12499505E+03</rscale>
<asrwt>0</asrwt>
<pdfrwt beam="2">  1        4 0.71849869E-02 0.12499505E+03</pdfrwt>
<pdfrwt beam="1">  1       -4 0.12866870E-01 0.12499505E+03</pdfrwt>
<totfact> 0.10338458E+04</totfact>
</mgrwt>
</event>
<event>
 5    1  0.3206665E-002  0.1249998E+03  0.7818608E-02  0.1235070E+00
          4   -1    0    0  501    0  0.00000000000E+00  0.00000000000E+00  0.30716461755E+03  0.30716724300E+03  0.12700000000E+01 0. -1.
         -4   -1    0    0    0  501 -0.00000000000E+00 -0.00000000000E+00 -0.12682688131E+02  0.12746116201E+02  0.12700000000E+01 0. -1.
         25    2    1    2    0    0  0.00000000000E+00  0.00000000000E+00  0.29448192942E+03  0.31991335920E+03  0.12499980257E+03 0.  0.
    9000005    1    3    3    0    0 -0.60216860859E+02 -0.14953256681E+01  0.18983110738E+03  0.19916112990E+03  0.10000000000E+01 0.  0.
    9000005    1    3    3    0    0  0.60216860859E+02  0.14953256681E+01  0.10465082203E+03  0.12075222931E+03  0.10000000000E+01 0.  0.
<mgrwt>
<rscale>  0 0.12499980E+03</rscale>
<asrwt>0</asrwt>
<pdfrwt beam="1">  1        4 0.47261174E-01 0.12499980E+03</pdfrwt>
<pdfrwt beam="2">  1       -4 0.19562639E-02 0.12499980E+03</pdfrwt>
<totfact> 0.73166751E+03</totfact>
</mgrwt>
</event>
<event>
 5    1  0.3206665E-002  0.1250352E+03  0.7818608E-02  0.1235014E+00
         -4   -1    0    0    0  501 -0.00000000000E+00  0.00000000000E+00  0.32862261527E+02  0.32886792678E+02  0.12700000000E+01 0.  1.
          4   -1    0    0  501    0  0.00000000000E+00 -0.00000000000E+00 -0.11886199486E+03  0.11886877942E+03  0.12700000000E+01 0.  1.
         25    2    1    2    0    0  0.00000000000E+00  0.00000000000E+00 -0.85999733331E+02  0.15175557210E+03  0.12503519317E+03 0.  0.
    9000005    1    3    3    0    0 -0.43742828304E+02 -0.44634467674E+02 -0.44618761636E+02  0.76795212237E+02  0.10000000000E+01 0.  0.
    9000005    1    3    3    0    0  0.43742828304E+02  0.44634467674E+02 -0.41380971695E+02  0.74960359865E+02  0.10000000000E+01 0.  0.
<mgrwt>
<rscale>  0 0.12503519E+03</rscale>
<asrwt>0</asrwt>
<pdfrwt beam="2">  1        4 0.18288869E-01 0.12503519E+03</pdfrwt>
<pdfrwt beam="1">  1       -4 0.50581415E-02 0.12503519E+03</pdfrwt>
<totfact> 0.98876575E+03</totfact>
</mgrwt>
</event>
<event>
 5    1  0.3206665E-002  0.1249986E+03  0.7818608E-02  0.1235072E+00
         -4   -1    0    0    0  501 -0.00000000000E+00  0.00000000000E+00  0.16690527008E+02  0.16738775099E+02  0.12700000000E+01 0.  1.
          4   -1    0    0  501    0  0.00000000000E+00 -0.00000000000E+00 -0.23364678854E+03  0.23365024009E+03  0.12700000000E+01 0.  1.
         25    2    1    2    0    0  0.00000000000E+00  0.00000000000E+00 -0.21695626153E+03  0.25038901519E+03  0.12499855803E+03 0.  0.
    9000005    1    3    3    0    0  0.19686216739E+02 -0.48328992452E+02 -0.39612181705E+02  0.65523763478E+02  0.10000000000E+01 0.  0.
    9000005    1    3    3    0    0 -0.19686216739E+02  0.48328992452E+02 -0.17734407982E+03  0.18486525171E+03  0.10000000000E+01 0.  0.
<mgrwt>
<rscale>  0 0.12499856E+03</rscale>
<asrwt>0</asrwt>
<pdfrwt beam="2">  1        4 0.35949634E-01 0.12499856E+03</pdfrwt>
<pdfrwt beam="1">  1       -4 0.25717504E-02 0.12499856E+03</pdfrwt>
<totfact> 0.82276679E+03</totfact>
</mgrwt>
</event>
<event>
 5    1  0.3206665E-002  0.1249955E+03  0.7818608E-02  0.1235076E+00
          4   -1    0    0  501    0  0.00000000000E+00  0.00000000000E+00  0.17040211090E+02  0.17087471843E+02  0.12700000000E+01 0.  1.
         -4   -1    0    0    0  501 -0.00000000000E+00 -0.00000000000E+00 -0.22885413548E+03  0.22885765931E+03  0.12700000000E+01 0.  1.
         25    2    1    2    0    0  0.00000000000E+00  0.00000000000E+00 -0.21181392439E+03  0.24594513115E+03  0.12499547581E+03 0.  0.
    9000005    1    3    3    0    0  0.57169443910E+02  0.25104245974E+02 -0.10092968462E+03  0.11868601316E+03  0.10000000000E+01 0.  0.
    9000005    1    3    3    0    0 -0.57169443910E+02 -0.25104245974E+02 -0.11088423977E+03  0.12725911799E+03  0.10000000000E+01 0.  0.
<mgrwt>
<rscale>  0 0.12499548E+03</rscale>
<asrwt>0</asrwt>
<pdfrwt beam="1">  1        4 0.26254776E-02 0.12499548E+03</pdfrwt>
<pdfrwt beam="2">  1       -4 0.35212233E-01 0.12499548E+03</pdfrwt>
<totfact> 0.82928198E+03</totfact>
</mgrwt>
</event>
<event>
 5    1  0.3206665E-002  0.1249985E+03  0.7818608E-02  0.1235072E+00
          4   -1    0    0  501    0  0.00000000000E+00  0.00000000000E+00  0.33561684185E+03  0.33561924473E+03  0.12700000000E+01 0. -1.
         -4   -1    0    0    0  501 -0.00000000000E+00 -0.00000000000E+00 -0.11601647439E+02  0.11670952116E+02  0.12700000000E+01 0. -1.
         25    2    1    2    0    0  0.00000000000E+00  0.00000000000E+00  0.32401519441E+03  0.34729019685E+03  0.12499853846E+03 0.  0.
    9000005    1    3    3    0    0 -0.56954419349E+02 -0.17481624316E+02  0.10960445283E+03  0.12475395445E+03  0.10000000000E+01 0.  0.
    9000005    1    3    3    0    0  0.56954419349E+02  0.17481624316E+02  0.21441074158E+03  0.22253624239E+03  0.10000000000E+01 0.  0.
<mgrwt>
<rscale>  0 0.12499854E+03</rscale>
<asrwt>0</asrwt>
<pdfrwt beam="1">  1        4 0.51638883E-01 0.12499854E+03</pdfrwt>
<pdfrwt beam="2">  1       -4 0.17903846E-02 0.12499854E+03</pdfrwt>
<totfact> 0.70025958E+03</totfact>
</mgrwt>
</event>
<event>
 5    1  0.3206665E-002  0.1249998E+03  0.7818608E-02  0.1235070E+00
          4   -1    0    0  501    0  0.00000000000E+00  0.00000000000E+00  0.11087110384E+04  0.11087117657E+04  0.12700000000E+01 0. -1.
         -4   -1    0    0    0  501 -0.00000000000E+00 -0.00000000000E+00 -0.34080234708E+01  0.36369663152E+01  0.12700000000E+01 0. -1.
         25    2    1    2    0    0  0.00000000000E+00  0.00000000000E+00  0.11053030149E+04  0.11123487320E+04  0.12499978789E+03 0.  0.
    9000005    1    3    3    0    0  0.52415766898E+02  0.16925608485E+02  0.28997122008E+03  0.29515791928E+03  0.10000000000E+01 0.  0.
    9000005    1    3    3    0    0 -0.52415766898E+02 -0.16925608485E+02  0.81533179480E+03  0.81719081276E+03  0.10000000000E+01 0.  0.
<mgrwt>
<rscale>  0 0.12499979E+03</rscale>
<asrwt>0</asrwt>
<pdfrwt beam="1">  1        4 0.17058883E+00 0.12499979E+03</pdfrwt>
<pdfrwt beam="2">  1       -4 0.54197748E-03 0.12499979E+03</pdfrwt>
<totfact> 0.27124847E+03</totfact>
</mgrwt>
</event>
<event>
 5    1  0.3206665E-002  0.1249978E+03  0.7818608E-02  0.1235073E+00
          4   -1    0    0  501    0  0.00000000000E+00  0.00000000000E+00  0.19797462433E+02  0.19838155630E+02  0.12700000000E+01 0. -1.
         -4   -1    0    0    0  501 -0.00000000000E+00 -0.00000000000E+00 -0.19705847651E+03  0.19706256891E+03  0.12700000000E+01 0. -1.
         25    2    1    2    0    0  0.00000000000E+00  0.00000000000E+00 -0.17726101408E+03  0.21690072454E+03  0.12499782875E+03 0.  0.
    9000005    1    3    3    0    0 -0.40239628970E+02  0.28188677851E+02 -0.15564038981E+03  0.16321384819E+03  0.10000000000E+01 0.  0.
    9000005    1    3    3    0    0  0.40239628970E+02 -0.28188677851E+02 -0.21620624262E+02  0.53686876349E+02  0.10000000000E+01 0.  0.
<mgrwt>
<rscale>  0 0.12499783E+03</rscale>
<asrwt>0</asrwt>
<pdfrwt beam="1">  1        4 0.30492086E-02 0.12499783E+03</pdfrwt>
<pdfrwt beam="2">  1       -4 0.30320132E-01 0.12499783E+03</pdfrwt>
<totfact> 0.87365396E+03</totfact>
</mgrwt>
</event>
<event>
 5    1  0.3206665E-002  0.1249996E+03  0.7818608E-02  0.1235070E+00
          4   -1    0    0  501    0  0.00000000000E+00  0.00000000000E+00  0.21801472561E+02  0.21838431854E+02  0.12700000000E+01 0. -1.
         -4   -1    0    0    0  501 -0.00000000000E+00 -0.00000000000E+00 -0.17898159407E+03  0.17898609979E+03  0.12700000000E+01 0. -1.
         25    2    1    2    0    0  0.00000000000E+00  0.00000000000E+00 -0.15718012151E+03  0.20082453164E+03  0.12499960764E+03 0.  0.
    9000005    1    3    3    0    0 -0.41169739153E+02 -0.96428716307E+01 -0.46638234148E+01  0.42552128549E+02  0.10000000000E+01 0.  0.
    9000005    1    3    3    0    0  0.41169739153E+02  0.96428716307E+01 -0.15251629810E+03  0.15827240309E+03  0.10000000000E+01 0.  0.
<mgrwt>
<rscale>  0 0.12499961E+03</rscale>
<asrwt>0</asrwt>
<pdfrwt beam="1">  1        4 0.33572624E-02 0.12499961E+03</pdfrwt>
<pdfrwt beam="2">  1       -4 0.27538818E-01 0.12499961E+03</pdfrwt>
<totfact> 0.89997419E+03</totfact>
</mgrwt>
</event>
<event>
 5    1  0.3206665E-002  0.1250030E+03  0.7818608E-02  0.1235065E+00
         -4   -1    0    0    0  501 -0.00000000000E+00  0.00000000000E+00  0.48459388086E+03  0.48459554504E+03  0.12700000000E+01 0.  1.
          4   -1    0    0  501    0  0.00000000000E+00 -0.00000000000E+00 -0.80095505819E+01  0.81096116137E+01  0.12700000000E+01 0.  1.
         25    2    1    2    0    0  0.00000000000E+00  0.00000000000E+00  0.47658433028E+03  0.49270515665E+03  0.12500299005E+03 0.  0.
    9000005    1    3    3    0    0  0.14074676359E+02 -0.39661295859E+02  0.42038660050E+03  0.42248906350E+03  0.10000000000E+01 0.  0.
    9000005    1    3    3    0    0 -0.14074676359E+02  0.39661295859E+02  0.56197729785E+02  0.70216093146E+02  0.10000000000E+01 0.  0.
<mgrwt>
<rscale>  0 0.12500299E+03</rscale>
<asrwt>0</asrwt>
<pdfrwt beam="2">  1        4 0.12400633E-02 0.12500299E+03</pdfrwt>
<pdfrwt beam="1">  1       -4 0.74560747E-01 0.12500299E+03</pdfrwt>
<totfact> 0.56431110E+03</totfact>
</mgrwt>
</event>
<event>
 5    1  0.3206665E-002  0.1249995E+03  0.7818608E-02  0.1235070E+00
          4   -1    0    0  501    0  0.00000000000E+00  0.00000000000E+00  0.80997580497E+02  0.81007536356E+02  0.12700000000E+01 0.  1.
         -4   -1    0    0    0  501 -0.00000000000E+00 -0.00000000000E+00 -0.48205111411E+02  0.48221838062E+02  0.12700000000E+01 0.  1.
         25    2    1    2    0    0  0.00000000000E+00  0.00000000000E+00  0.32792469086E+02  0.12922937442E+03  0.12499954073E+03 0.  0.
    9000005    1    3    3    0    0 -0.38081301493E+01 -0.33308978068E+02 -0.38125716465E+02  0.50779524724E+02  0.10000000000E+01 0.  0.
    9000005    1    3    3    0    0  0.38081301493E+01  0.33308978068E+02  0.70918185551E+02  0.78449849694E+02  0.10000000000E+01 0.  0.
<mgrwt>
<rscale>  0 0.12499954E+03</rscale>
<asrwt>0</asrwt>
<pdfrwt beam="1">  1        4 0.12463219E-01 0.12499954E+03</pdfrwt>
<pdfrwt beam="2">  1       -4 0.74182235E-02 0.12499954E+03</pdfrwt>
<totfact> 0.10361128E+04</totfact>
</mgrwt>
</event>
<event>
 5    1  0.3206665E-002  0.1250004E+03  0.7818608E-02  0.1235069E+00
          4   -1    0    0  501    0  0.00000000000E+00  0.00000000000E+00  0.35988395553E+03  0.35988619638E+03  0.12700000000E+01 0. -1.
         -4   -1    0    0    0  501 -0.00000000000E+00 -0.00000000000E+00 -0.10814832504E+02  0.10889146068E+02  0.12700000000E+01 0. -1.
         25    2    1    2    0    0  0.00000000000E+00  0.00000000000E+00  0.34906912302E+03  0.37077534245E+03  0.12500040768E+03 0.  0.
    9000005    1    3    3    0    0 -0.10686040927E+02 -0.34226235229E+02  0.32635175331E+03  0.32831706251E+03  0.10000000000E+01 0.  0.
    9000005    1    3    3    0    0  0.10686040927E+02  0.34226235229E+02  0.22717369719E+02  0.42458279941E+02  0.10000000000E+01 0.  0.
<mgrwt>
<rscale>  0 0.12500041E+03</rscale>
<asrwt>0</asrwt>
<pdfrwt beam="1">  1        4 0.55372651E-01 0.12500041E+03</pdfrwt>
<pdfrwt beam="2">  1       -4 0.16697092E-02 0.12500041E+03</pdfrwt>
<totfact> 0.67497289E+03</totfact>
</mgrwt>
</event>
<event>
 5    1  0.3206665E-002  0.1249979E+03  0.7818608E-02  0.1235073E+00
         -4   -1    0    0    0  501 -0.00000000000E+00  0.00000000000E+00  0.38212034736E+03  0.38212245782E+03  0.12700000000E+01 0.  1.
          4   -1    0    0  501    0  0.00000000000E+00 -0.00000000000E+00 -0.10180623026E+02  0.10259531431E+02  0.12700000000E+01 0.  1.
         25    2    1    2    0    0  0.00000000000E+00  0.00000000000E+00  0.37193972434E+03  0.39238198925E+03  0.12499786777E+03 0.  0.
    9000005    1    3    3    0    0 -0.45537821512E+01  0.37231934741E+01  0.38126479946E+03  0.38131148214E+03  0.10000000000E+01 0.  0.
    9000005    1    3    3    0    0  0.45537821512E+01 -0.37231934741E+01 -0.93250751271E+01  0.11070507109E+02  0.10000000000E+01 0.  0.
<mgrwt>
<rscale>  0 0.12499787E+03</rscale>
<asrwt>0</asrwt>
<pdfrwt beam="2">  1        4 0.15724821E-02 0.12499787E+03</pdfrwt>
<pdfrwt beam="1">  1       -4 0.58793970E-01 0.12499787E+03</pdfrwt>
<totfact> 0.65303591E+03</totfact>
</mgrwt>
</event>
<event>
 5    1  0.3206665E-002  0.1249945E+03  0.7818608E-02  0.1235078E+00
         -4   -1    0    0    0  501 -0.00000000000E+00  0.00000000000E+00  0.16716820931E+03  0.16717303342E+03  0.12700000000E+01 0. -1.
          4   -1    0    0  501    0  0.00000000000E+00 -0.00000000000E+00 -0.23342698790E+02  0.23377221537E+02  0.12700000000E+01 0. -1.
         25    2    1    2    0    0  0.00000000000E+00  0.00000000000E+00  0.14382551052E+03  0.19055025496E+03  0.12499448863E+03 0.  0.
    9000005    1    3    3    0    0  0.43844164530E+02 -0.19873867344E+01  0.41013694864E+01  0.44091741869E+02  0.10000000000E+01 0.  0.
    9000005    1    3    3    0    0 -0.43844164530E+02  0.19873867344E+01  0.13972414103E+03  0.14645851309E+03  0.10000000000E+01 0.  0.
<mgrwt>
<rscale>  0 0.12499449E+03</rscale>
<asrwt>0</asrwt>
<pdfrwt beam="2">  1        4 0.35942112E-02 0.12499449E+03</pdfrwt>
<pdfrwt beam="1">  1       -4 0.25721212E-01 0.12499449E+03</pdfrwt>
<totfact> 0.91762988E+03</totfact>
</mgrwt>
</event>
<event>
 5    1  0.3206665E-002  0.1249987E+03  0.7818608E-02  0.1235071E+00
         -4   -1    0    0    0  501 -0.00000000000E+00  0.00000000000E+00  0.15761963011E+03  0.15762474646E+03  0.12700000000E+01 0.  1.
          4   -1    0    0  501    0  0.00000000000E+00 -0.00000000000E+00 -0.24760462434E+02  0.24793011111E+02  0.12700000000E+01 0.  1.
         25    2    1    2    0    0  0.00000000000E+00  0.00000000000E+00  0.13285916767E+03  0.18241775757E+03  0.12499871936E+03 0.  0.
    9000005    1    3    3    0    0 -0.33154579822E+02  0.51056928216E+02  0.45835896008E+02  0.76210008823E+02  0.10000000000E+01 0.  0.
    9000005    1    3    3    0    0  0.33154579822E+02 -0.51056928216E+02  0.87023271667E+02  0.10620774875E+03  0.10000000000E+01 0.  0.
<mgrwt>
<rscale>  0 0.12499872E+03</rscale>
<asrwt>0</asrwt>
<pdfrwt beam="2">  1        4 0.38121991E-02 0.12499872E+03</pdfrwt>
<pdfrwt beam="1">  1       -4 0.24252072E-01 0.12499872E+03</pdfrwt>
<totfact> 0.93186274E+03</totfact>
</mgrwt>
</event>
<event>
 5    1  0.3206665E-002  0.1250016E+03  0.7818608E-02  0.1235067E+00
         -4   -1    0    0    0  501 -0.00000000000E+00  0.00000000000E+00  0.11245235048E+03  0.11245952174E+03  0.12700000000E+01 0. -1.
          4   -1    0    0  501    0  0.00000000000E+00 -0.00000000000E+00 -0.34717930192E+02  0.34741151057E+02  0.12700000000E+01 0. -1.
         25    2    1    2    0    0  0.00000000000E+00  0.00000000000E+00  0.77734420290E+02  0.14720067279E+03  0.12500159188E+03 0.  0.
    9000005    1    3    3    0    0 -0.32537104917E+02  0.34264685419E+02 -0.92934671957E+01  0.48167420481E+02  0.10000000000E+01 0.  0.
    9000005    1    3    3    0    0  0.32537104917E+02 -0.34264685419E+02  0.87027887486E+02  0.99033252312E+02  0.10000000000E+01 0.  0.
<mgrwt>
<rscale>  0 0.12500159E+03</rscale>
<asrwt>0</asrwt>
<pdfrwt beam="2">  1        4 0.53435578E-02 0.12500159E+03</pdfrwt>
<pdfrwt beam="1">  1       -4 0.17302700E-01 0.12500159E+03</pdfrwt>
<totfact> 0.99861078E+03</totfact>
</mgrwt>
</event>
<event>
 5    1  0.3206665E-002  0.1250038E+03  0.7818608E-02  0.1235063E+00
          4   -1    0    0  501    0  0.00000000000E+00  0.00000000000E+00  0.16692947398E+03  0.16693430499E+03  0.12700000000E+01 0. -1.
         -4   -1    0    0    0  501 -0.00000000000E+00 -0.00000000000E+00 -0.23379624489E+02  0.23414092792E+02  0.12700000000E+01 0. -1.
         25    2    1    2    0    0  0.00000000000E+00  0.00000000000E+00  0.14354984949E+03  0.19034839778E+03  0.12500381294E+03 0.  0.
    9000005    1    3    3    0    0 -0.51903711202E+02  0.11597525891E+02  0.12174751894E+03  0.13286066465E+03  0.10000000000E+01 0.  0.
    9000005    1    3    3    0    0  0.51903711202E+02 -0.11597525891E+02  0.21802330550E+02  0.57487733132E+02  0.10000000000E+01 0.  0.
<mgrwt>
<rscale>  0 0.12500381E+03</rscale>
<asrwt>0</asrwt>
<pdfrwt beam="1">  1        4 0.25684480E-01 0.12500381E+03</pdfrwt>
<pdfrwt beam="2">  1       -4 0.35998884E-02 0.12500381E+03</pdfrwt>
<totfact> 0.91778891E+03</totfact>
</mgrwt>
</event>
<event>
 5    1  0.3206665E-002  0.1250002E+03  0.7818608E-02  0.1235069E+00
         -4   -1    0    0    0  501 -0.00000000000E+00  0.00000000000E+00  0.10603996714E+03  0.10604757202E+03  0.12700000000E+01 0.  1.
          4   -1    0    0  501    0  0.00000000000E+00 -0.00000000000E+00 -0.36817776742E+02  0.36839674051E+02  0.12700000000E+01 0.  1.
         25    2    1    2    0    0  0.00000000000E+00  0.00000000000E+00  0.69222190400E+02  0.14288724607E+03  0.12500021378E+03 0.  0.
    9000005    1    3    3    0    0  0.58420586455E+02  0.21779866883E+02  0.29770000798E+02  0.69098339131E+02  0.10000000000E+01 0.  0.
    9000005    1    3    3    0    0 -0.58420586455E+02 -0.21779866883E+02  0.39452189603E+02  0.73788906941E+02  0.10000000000E+01 0.  0.
<mgrwt>
<rscale>  0 0.12500021E+03</rscale>
<asrwt>0</asrwt>
<pdfrwt beam="2">  1        4 0.56665428E-02 0.12500021E+03</pdfrwt>
<pdfrwt beam="1">  1       -4 0.16316110E-01 0.12500021E+03</pdfrwt>
<totfact> 0.10074044E+04</totfact>
</mgrwt>
</event>
<event>
 5    1  0.3206665E-002  0.1249991E+03  0.7818608E-02  0.1235071E+00
          4   -1    0    0  501    0  0.00000000000E+00  0.00000000000E+00  0.38170605463E+03  0.38170816737E+03  0.12700000000E+01 0.  1.
         -4   -1    0    0    0  501 -0.00000000000E+00 -0.00000000000E+00 -0.10191963689E+02  0.10270784967E+02  0.12700000000E+01 0.  1.
         25    2    1    2    0    0  0.00000000000E+00  0.00000000000E+00  0.37151409094E+03  0.39197895234E+03  0.12499911724E+03 0.  0.
    9000005    1    3    3    0    0 -0.14054793285E+02 -0.34571262452E+02  0.28573320171E+02  0.47012168929E+02  0.10000000000E+01 0.  0.
    9000005    1    3    3    0    0  0.14054793285E+02  0.34571262452E+02  0.34294077077E+03  0.34496678341E+03  0.10000000000E+01 0.  0.
<mgrwt>
<rscale>  0 0.12499912E+03</rscale>
<asrwt>0</asrwt>
<pdfrwt beam="1">  1        4 0.58730231E-01 0.12499912E+03</pdfrwt>
<pdfrwt beam="2">  1       -4 0.15742202E-02 0.12499912E+03</pdfrwt>
<totfact> 0.65341729E+03</totfact>
</mgrwt>
</event>
<event>
 5    1  0.3206665E-002  0.1249972E+03  0.7818608E-02  0.1235074E+00
         -4   -1    0    0    0  501 -0.00000000000E+00  0.00000000000E+00  0.23498226173E+02  0.23532520759E+02  0.12700000000E+01 0. -1.
          4   -1    0    0  501    0  0.00000000000E+00 -0.00000000000E+00 -0.16607055481E+03  0.16607541081E+03  0.12700000000E+01 0. -1.
         25    2    1    2    0    0  0.00000000000E+00  0.00000000000E+00 -0.14257232864E+03  0.18960793157E+03  0.12499719525E+03 0.  0.
    9000005    1    3    3    0    0 -0.54847205960E+01 -0.59616558937E+02 -0.44114704630E+02  0.74372867526E+02  0.10000000000E+01 0.  0.
    9000005    1    3    3    0    0  0.54847205960E+01  0.59616558937E+02 -0.98457624010E+02  0.11523506404E+03  0.10000000000E+01 0.  0.
<mgrwt>
<rscale>  0 0.12499720E+03</rscale>
<asrwt>0</asrwt>
<pdfrwt beam="2">  1        4 0.25552327E-01 0.12499720E+03</pdfrwt>
<pdfrwt beam="1">  1       -4 0.36181234E-02 0.12499720E+03</pdfrwt>
<totfact> 0.91921353E+03</totfact>
</mgrwt>
</event>
<event>
 5    1  0.3206665E-002  0.1250004E+03  0.7818608E-02  0.1235069E+00
          4   -1    0    0  501    0  0.00000000000E+00  0.00000000000E+00  0.12965427940E+02  0.13027479483E+02  0.12700000000E+01 0.  1.
         -4   -1    0    0    0  501 -0.00000000000E+00 -0.00000000000E+00 -0.30050107276E+03  0.30050375643E+03  0.12700000000E+01 0.  1.
         25    2    1    2    0    0  0.00000000000E+00  0.00000000000E+00 -0.28753564482E+03  0.31353123592E+03  0.12500035541E+03 0.  0.
    9000005    1    3    3    0    0 -0.19876704724E+02 -0.22168916061E+02 -0.59575608822E+01  0.30381520069E+02  0.10000000000E+01 0.  0.
    9000005    1    3    3    0    0  0.19876704724E+02  0.22168916061E+02 -0.28157808394E+03  0.28314971585E+03  0.10000000000E+01 0.  0.
<mgrwt>
<rscale>  0 0.12500036E+03</rscale>
<asrwt>0</asrwt>
<pdfrwt beam="1">  1        4 0.19996611E-02 0.12500036E+03</pdfrwt>
<pdfrwt beam="2">  1       -4 0.46235908E-01 0.12500036E+03</pdfrwt>
<totfact> 0.73931582E+03</totfact>
</mgrwt>
</event>
<event>
 4    1  0.3206665E-002  0.1250848E+03  0.7818608E-02  0.1234937E+00
         -4   -1    0    0    0  501 -0.00000000000E+00  0.00000000000E+00  0.22063558399E+02  0.22100079394E+02  0.12700000000E+01 0. -1.
          4   -1    0    0  501    0  0.00000000000E+00 -0.00000000000E+00 -0.17710028188E+03  0.17710483546E+03  0.12700000000E+01 0. -1.
    9000005    1    1    2    0    0  0.36996551935E+02  0.33636430930E+02 -0.13732734215E+03  0.14615044729E+03  0.10000000000E+01 0.  0.
    9000005    1    1    2    0    0 -0.36996551935E+02 -0.33636430930E+02 -0.17709381327E+02  0.53054467557E+02  0.10000000000E+01 0.  0.
<mgrwt>
<rscale>  0 0.12508482E+03</rscale>
<asrwt>0</asrwt>
<pdfrwt beam="2">  1        4 0.27249356E-01 0.12508482E+03</pdfrwt>
<pdfrwt beam="1">  1       -4 0.33975533E-02 0.12508482E+03</pdfrwt>
<totfact> 0.90098641E+03</totfact>
</mgrwt>
</event>
<event>
 5    1  0.3206665E-002  0.1249944E+03  0.7818608E-02  0.1235078E+00
          4   -1    0    0  501    0  0.00000000000E+00  0.00000000000E+00  0.58372430060E+02  0.58386244023E+02  0.12700000000E+01 0. -1.
         -4   -1    0    0    0  501 -0.00000000000E+00 -0.00000000000E+00 -0.66885635973E+02  0.66897692034E+02  0.12700000000E+01 0. -1.
         25    2    1    2    0    0  0.00000000000E+00  0.00000000000E+00 -0.85132059122E+01  0.12528393606E+03  0.12499435971E+03 0.  0.
    9000005    1    3    3    0    0 -0.11650725106E+02 -0.87778569015E+00 -0.65786013604E+02  0.66822971268E+02  0.10000000000E+01 0.  0.
    9000005    1    3    3    0    0  0.11650725106E+02  0.87778569015E+00  0.57272807692E+02  0.58460964789E+02  0.10000000000E+01 0.  0.
<mgrwt>
<rscale>  0 0.12499436E+03</rscale>
<asrwt>0</asrwt>
<pdfrwt beam="1">  1        4 0.89823639E-02 0.12499436E+03</pdfrwt>
<pdfrwt beam="2">  1       -4 0.10292088E-01 0.12499436E+03</pdfrwt>
<totfact> 0.10448030E+04</totfact>
</mgrwt>
</event>
<event>
 5    1  0.3206665E-002  0.1250026E+03  0.7818608E-02  0.1235065E+00
          4   -1    0    0  501    0  0.00000000000E+00  0.00000000000E+00  0.42308576203E+02  0.42327633058E+02  0.12700000000E+01 0.  1.
         -4   -1    0    0    0  501 -0.00000000000E+00 -0.00000000000E+00 -0.92287243717E+02  0.92295981780E+02  0.12700000000E+01 0.  1.
         25    2    1    2    0    0  0.00000000000E+00  0.00000000000E+00 -0.49978667514E+02  0.13462361484E+03  0.12500260184E+03 0.  0.
    9000005    1    3    3    0    0 -0.20301804763E+02  0.96383389289E+01  0.37811313309E+02  0.43997230232E+02  0.10000000000E+01 0.  0.
    9000005    1    3    3    0    0  0.20301804763E+02 -0.96383389289E+01 -0.87789980823E+02  0.90626384606E+02  0.10000000000E+01 0.  0.
<mgrwt>
<rscale>  0 0.12500260E+03</rscale>
<asrwt>0</asrwt>
<pdfrwt beam="1">  1        4 0.65111498E-02 0.12500260E+03</pdfrwt>
<pdfrwt beam="2">  1       -4 0.14200175E-01 0.12500260E+03</pdfrwt>
<totfact> 0.10245409E+04</totfact>
</mgrwt>
</event>
<event>
 5    1  0.3206665E-002  0.1250072E+03  0.7818608E-02  0.1235058E+00
          4   -1    0    0  501    0  0.00000000000E+00  0.00000000000E+00  0.94574998631E+03  0.94575083902E+03  0.12700000000E+01 0. -1.
         -4   -1    0    0    0  501 -0.00000000000E+00 -0.00000000000E+00 -0.40323034964E+01  0.42275727654E+01  0.12700000000E+01 0. -1.
         25    2    1    2    0    0  0.00000000000E+00  0.00000000000E+00  0.94171768281E+03  0.94997841178E+03  0.12500715473E+03 0.  0.
    9000005    1    3    3    0    0  0.20676378041E+02 -0.54615144725E+02  0.30171976539E+03  0.30732091284E+03  0.10000000000E+01 0.  0.
    9000005    1    3    3    0    0 -0.20676378041E+02  0.54615144725E+02  0.63999791742E+03  0.64265749894E+03  0.10000000000E+01 0.  0.
<mgrwt>
<rscale>  0 0.12500715E+03</rscale>
<asrwt>0</asrwt>
<pdfrwt beam="1">  1        4 0.14551521E+00 0.12500715E+03</pdfrwt>
<pdfrwt beam="2">  1       -4 0.63544012E-03 0.12500715E+03</pdfrwt>
<totfact> 0.32311661E+03</totfact>
</mgrwt>
</event>
<event>
 5    1  0.3206665E-002  0.1250030E+03  0.7818608E-02  0.1235065E+00
         -4   -1    0    0    0  501 -0.00000000000E+00  0.00000000000E+00  0.79475224751E+02  0.79485371291E+02  0.12700000000E+01 0. -1.
          4   -1    0    0  501    0  0.00000000000E+00 -0.00000000000E+00 -0.49131396517E+02  0.49147807924E+02  0.12700000000E+01 0. -1.
         25    2    1    2    0    0  0.00000000000E+00  0.00000000000E+00  0.30343828234E+02  0.12863317921E+03  0.12500298750E+03 0.  0.
    9000005    1    3    3    0    0 -0.42130407473E+02  0.30426083122E+02  0.50888955945E+02  0.72742034651E+02  0.10000000000E+01 0.  0.
    9000005    1    3    3    0    0  0.42130407473E+02 -0.30426083122E+02 -0.20545127712E+02  0.55891144564E+02  0.10000000000E+01 0.  0.
<mgrwt>
<rscale>  0 0.12500299E+03</rscale>
<asrwt>0</asrwt>
<pdfrwt beam="2">  1        4 0.75607194E-02 0.12500299E+03</pdfrwt>
<pdfrwt beam="1">  1       -4 0.12229000E-01 0.12500299E+03</pdfrwt>
<totfact> 0.10373136E+04</totfact>
</mgrwt>
</event>
<event>
 5    1  0.3206665E-002  0.1250066E+03  0.7818608E-02  0.1235059E+00
          4   -1    0    0  501    0  0.00000000000E+00  0.00000000000E+00  0.42185975549E+03  0.42186166714E+03  0.12700000000E+01 0. -1.
         -4   -1    0    0    0  501 -0.00000000000E+00 -0.00000000000E+00 -0.92150900991E+01  0.93021925122E+01  0.12700000000E+01 0. -1.
         25    2    1    2    0    0  0.00000000000E+00  0.00000000000E+00  0.41264466539E+03  0.43116385965E+03  0.12500661580E+03 0.  0.
    9000005    1    3    3    0    0  0.44543063125E+02 -0.31625856426E+02  0.31101824861E+03  0.31578098460E+03  0.10000000000E+01 0.  0.
    9000005    1    3    3    0    0 -0.44543063125E+02  0.31625856426E+02  0.10162641678E+03  0.11538287505E+03  0.10000000000E+01 0.  0.
<mgrwt>
<rscale>  0 0.12500662E+03</rscale>
<asrwt>0</asrwt>
<pdfrwt beam="1">  1        4 0.64908342E-01 0.12500662E+03</pdfrwt>
<pdfrwt beam="2">  1       -4 0.14245535E-02 0.12500662E+03</pdfrwt>
<totfact> 0.61621649E+03</totfact>
</mgrwt>
</event>
<event>
 5    1  0.3206665E-002  0.1249994E+03  0.7818608E-02  0.1235070E+00
          4   -1    0    0  501    0  0.00000000000E+00  0.00000000000E+00  0.91428192400E+01  0.92306036453E+01  0.12700000000E+01 0.  1.
         -4   -1    0    0    0  501 -0.00000000000E+00 -0.00000000000E+00 -0.42511397179E+03  0.42511586881E+03  0.12700000000E+01 0.  1.
         25    2    1    2    0    0  0.00000000000E+00  0.00000000000E+00 -0.41597115255E+03  0.43434647245E+03  0.12499943351E+03 0.  0.
    9000005    1    3    3    0    0 -0.49366586136E+02 -0.38229127329E+02 -0.19899897269E+03  0.20856681696E+03  0.10000000000E+01 0.  0.
    9000005    1    3    3    0    0  0.49366586136E+02  0.38229127329E+02 -0.21697217986E+03  0.22577965549E+03  0.10000000000E+01 0.  0.
<mgrwt>
<rscale>  0 0.12499943E+03</rscale>
<asrwt>0</asrwt>
<pdfrwt beam="1">  1        4 0.14134865E-02 0.12499943E+03</pdfrwt>
<pdfrwt beam="2">  1       -4 0.65409033E-01 0.12499943E+03</pdfrwt>
<totfact> 0.61344750E+03</totfact>
</mgrwt>
</event>
<event>
 5    1  0.3206665E-002  0.1250010E+03  0.7818608E-02  0.1235068E+00
         -4   -1    0    0    0  501 -0.00000000000E+00  0.00000000000E+00  0.13792119697E+04  0.13792125544E+04  0.12700000000E+01 0. -1.
          4   -1    0    0  501    0  0.00000000000E+00 -0.00000000000E+00 -0.26892959120E+01  0.29740901974E+01  0.12700000000E+01 0. -1.
         25    2    1    2    0    0  0.00000000000E+00  0.00000000000E+00  0.13765226738E+04  0.13821866446E+04  0.12500099640E+03 0.  0.
    9000005    1    3    3    0    0 -0.56775085147E+01  0.56792540913E+02  0.96966859474E+03  0.97134742005E+03  0.10000000000E+01 0.  0.
    9000005    1    3    3    0    0  0.56775085147E+01 -0.56792540913E+02  0.40685407907E+03  0.41083922459E+03  0.10000000000E+01 0.  0.
<mgrwt>
<rscale>  0 0.12500100E+03</rscale>
<asrwt>0</asrwt>
<pdfrwt beam="2">  1        4 0.43568924E-03 0.12500100E+03</pdfrwt>
<pdfrwt beam="1">  1       -4 0.21220881E+00 0.12500100E+03</pdfrwt>
<totfact> 0.20365941E+03</totfact>
</mgrwt>
</event>
<event>
 5    1  0.3206665E-002  0.1249975E+03  0.7818608E-02  0.1235073E+00
          4   -1    0    0  501    0  0.00000000000E+00  0.00000000000E+00  0.80269196898E+02  0.80279243087E+02  0.12700000000E+01 0. -1.
         -4   -1    0    0    0  501 -0.00000000000E+00 -0.00000000000E+00 -0.48641082240E+02  0.48657659021E+02  0.12700000000E+01 0. -1.
         25    2    1    2    0    0  0.00000000000E+00  0.00000000000E+00  0.31628114659E+02  0.12893690211E+03  0.12499754833E+03 0.  0.
    9000005    1    3    3    0    0 -0.72000970672E+01 -0.42253003476E+02 -0.31093693110E+02  0.52962018955E+02  0.10000000000E+01 0.  0.
    9000005    1    3    3    0    0  0.72000970672E+01  0.42253003476E+02  0.62721807768E+02  0.75974883154E+02  0.10000000000E+01 0.  0.
<mgrwt>
<rscale>  0 0.12499755E+03</rscale>
<asrwt>0</asrwt>
<pdfrwt beam="1">  1        4 0.12351155E-01 0.12499755E+03</pdfrwt>
<pdfrwt beam="2">  1       -4 0.74852914E-02 0.12499755E+03</pdfrwt>
<totfact> 0.10367877E+04</totfact>
</mgrwt>
</event>
<event>
 5    1  0.3206665E-002  0.1249970E+03  0.7818608E-02  0.1235074E+00
          4   -1    0    0  501    0  0.00000000000E+00  0.00000000000E+00  0.26233975214E+03  0.26234282619E+03  0.12700000000E+01 0. -1.
         -4   -1    0    0    0  501 -0.00000000000E+00 -0.00000000000E+00 -0.14859086195E+02  0.14913260627E+02  0.12700000000E+01 0. -1.
         25    2    1    2    0    0  0.00000000000E+00  0.00000000000E+00  0.24748066595E+03  0.27725608682E+03  0.12499703060E+03 0.  0.
    9000005    1    3    3    0    0 -0.31330740011E+02  0.41528550851E+02  0.46940558886E+02  0.70076043510E+02  0.10000000000E+01 0.  0.
    9000005    1    3    3    0    0  0.31330740011E+02 -0.41528550851E+02  0.20054010706E+03  0.20718004331E+03  0.10000000000E+01 0.  0.
<mgrwt>
<rscale>  0 0.12499703E+03</rscale>
<asrwt>0</asrwt>
<pdfrwt beam="1">  1        4 0.40364369E-01 0.12499703E+03</pdfrwt>
<pdfrwt beam="2">  1       -4 0.22904168E-02 0.12499703E+03</pdfrwt>
<totfact> 0.78548522E+03</totfact>
</mgrwt>
</event>
<event>
 5    1  0.3206665E-002  0.1250052E+03  0.7818608E-02  0.1235061E+00
         -4   -1    0    0    0  501 -0.00000000000E+00  0.00000000000E+00  0.39150848035E+03  0.39151054020E+03  0.12700000000E+01 0. -1.
          4   -1    0    0  501    0  0.00000000000E+00 -0.00000000000E+00 -0.99357614615E+01  0.10016599015E+02  0.12700000000E+01 0. -1.
         25    2    1    2    0    0  0.00000000000E+00  0.00000000000E+00  0.38157271889E+03  0.40152713922E+03  0.12500521479E+03 0.  0.
    9000005    1    3    3    0    0  0.42990760255E+02  0.37008431576E+02  0.27502298372E+03  0.28081394383E+03  0.10000000000E+01 0.  0.
    9000005    1    3    3    0    0 -0.42990760255E+02 -0.37008431576E+02  0.10654973517E+03  0.12071319538E+03  0.10000000000E+01 0.  0.
<mgrwt>
<rscale>  0 0.12500521E+03</rscale>
<asrwt>0</asrwt>
<pdfrwt beam="2">  1        4 0.15349557E-02 0.12500521E+03</pdfrwt>
<pdfrwt beam="1">  1       -4 0.60238439E-01 0.12500521E+03</pdfrwt>
<totfact> 0.64397124E+03</totfact>
</mgrwt>
</event>
<event>
 5    1  0.3206665E-002  0.1249999E+03  0.7818608E-02  0.1235069E+00
          4   -1    0    0  501    0  0.00000000000E+00  0.00000000000E+00  0.43689201116E+03  0.43689385704E+03  0.12700000000E+01 0. -1.
         -4   -1    0    0    0  501 -0.00000000000E+00 -0.00000000000E+00 -0.88940160389E+01  0.89842318147E+01  0.12700000000E+01 0. -1.
         25    2    1    2    0    0  0.00000000000E+00  0.00000000000E+00  0.42799799512E+03  0.44587808885E+03  0.12499994516E+03 0.  0.
    9000005    1    3    3    0    0  0.22694449239E+02 -0.58207332034E+02  0.20881140381E+03  0.21795947763E+03  0.10000000000E+01 0.  0.
    9000005    1    3    3    0    0 -0.22694449239E+02  0.58207332034E+02  0.21918659132E+03  0.22791861122E+03  0.10000000000E+01 0.  0.
<mgrwt>
<rscale>  0 0.12499995E+03</rscale>
<asrwt>0</asrwt>
<pdfrwt beam="1">  1        4 0.67221235E-01 0.12499995E+03</pdfrwt>
<pdfrwt beam="2">  1       -4 0.13753919E-02 0.12499995E+03</pdfrwt>
<totfact> 0.60322618E+03</totfact>
</mgrwt>
</event>
<event>
 5    1  0.3206665E-002  0.1250066E+03  0.7818608E-02  0.1235059E+00
          4   -1    0    0  501    0  0.00000000000E+00  0.00000000000E+00  0.12471003291E+03  0.12471649934E+03  0.12700000000E+01 0. -1.
         -4   -1    0    0    0  501 -0.00000000000E+00 -0.00000000000E+00 -0.31305800716E+02  0.31331550527E+02  0.12700000000E+01 0. -1.
         25    2    1    2    0    0  0.00000000000E+00  0.00000000000E+00  0.93404232195E+02  0.15604804987E+03  0.12500657293E+03 0.  0.
    9000005    1    3    3    0    0 -0.19105677139E+02 -0.58411672089E+02  0.60864372677E+02  0.86500995350E+02  0.10000000000E+01 0.  0.
    9000005    1    3    3    0    0  0.19105677139E+02  0.58411672089E+02  0.32539859518E+02  0.69547054521E+02  0.10000000000E+01 0.  0.
<mgrwt>
<rscale>  0 0.12500657E+03</rscale>
<asrwt>0</asrwt>
<pdfrwt beam="1">  1        4 0.19188637E-01 0.12500657E+03</pdfrwt>
<pdfrwt beam="2">  1       -4 0.48187552E-02 0.12500657E+03</pdfrwt>
<totfact> 0.98095646E+03</totfact>
</mgrwt>
</event>
<event>
 5    1  0.3206665E-002  0.1249993E+03  0.7818608E-02  0.1235070E+00
          4   -1    0    0  501    0  0.00000000000E+00  0.00000000000E+00  0.18822947356E+03  0.18823375791E+03  0.12700000000E+01 0. -1.
         -4   -1    0    0    0  501 -0.00000000000E+00 -0.00000000000E+00 -0.20728402141E+02  0.20767271254E+02  0.12700000000E+01 0. -1.
         25    2    1    2    0    0  0.00000000000E+00  0.00000000000E+00  0.16750107142E+03  0.20900102916E+03  0.12499928506E+03 0.  0.
    9000005    1    3    3    0    0  0.51152041006E+02 -0.57801224094E+01  0.14298963785E+03  0.15197689839E+03  0.10000000000E+01 0.  0.
    9000005    1    3    3    0    0 -0.51152041006E+02  0.57801224094E+01  0.24511433572E+02  0.57024130768E+02  0.10000000000E+01 0.  0.
<mgrwt>
<rscale>  0 0.12499929E+03</rscale>
<asrwt>0</asrwt>
<pdfrwt beam="1">  1        4 0.28961701E-01 0.12499929E+03</pdfrwt>
<pdfrwt beam="2">  1       -4 0.31923043E-02 0.12499929E+03</pdfrwt>
<totfact> 0.88640702E+03</totfact>
</mgrwt>
</event>
<event>
 5    1  0.3206665E-002  0.1249988E+03  0.7818608E-02  0.1235071E+00
          4   -1    0    0  501    0  0.00000000000E+00  0.00000000000E+00  0.11570703626E+03  0.11571400581E+03  0.12700000000E+01 0.  1.
         -4   -1    0    0    0  501 -0.00000000000E+00 -0.00000000000E+00 -0.33739232543E+02  0.33763126523E+02  0.12700000000E+01 0.  1.
         25    2    1    2    0    0  0.00000000000E+00  0.00000000000E+00  0.81967803716E+02  0.14947713233E+03  0.12499876897E+03 0.  0.
    9000005    1    3    3    0    0 -0.35931817925E+02 -0.34527703617E+02 -0.41087597640E+01  0.50011396334E+02  0.10000000000E+01 0.  0.
    9000005    1    3    3    0    0  0.35931817925E+02  0.34527703617E+02  0.86076563480E+02  0.99465735995E+02  0.10000000000E+01 0.  0.
<mgrwt>
<rscale>  0 0.12499877E+03</rscale>
<asrwt>0</asrwt>
<pdfrwt beam="1">  1        4 0.17803457E-01 0.12499877E+03</pdfrwt>
<pdfrwt beam="2">  1       -4 0.51930253E-02 0.12499877E+03</pdfrwt>
<totfact> 0.99410780E+03</totfact>
</mgrwt>
</event>
<event>
 5    1  0.3206665E-002  0.1250045E+03  0.7818608E-02  0.1235062E+00
         -4   -1    0    0    0  501 -0.00000000000E+00  0.00000000000E+00  0.12819032640E+03  0.12819661728E+03  0.12700000000E+01 0. -1.
          4   -1    0    0  501    0  0.00000000000E+00 -0.00000000000E+00 -0.30454211740E+02  0.30480680975E+02  0.12700000000E+01 0. -1.
         25    2    1    2    0    0  0.00000000000E+00  0.00000000000E+00  0.97736114656E+02  0.15867729825E+03  0.12500454741E+03 0.  0.
    9000005    1    3    3    0    0  0.60115246697E+01 -0.72850086923E+01 -0.29549196530E+02  0.31038118436E+02  0.10000000000E+01 0.  0.
    9000005    1    3    3    0    0 -0.60115246697E+01  0.72850086923E+01  0.12728531119E+03  0.12763917982E+03  0.10000000000E+01 0.  0.
<mgrwt>
<rscale>  0 0.12500455E+03</rscale>
<asrwt>0</asrwt>
<pdfrwt beam="2">  1        4 0.46877834E-02 0.12500455E+03</pdfrwt>
<pdfrwt beam="1">  1       -4 0.19724109E-01 0.12500455E+03</pdfrwt>
<totfact> 0.97588422E+03</totfact>
</mgrwt>
</event>
<event>
 4    1  0.3206665E-002  0.1251010E+03  0.7818608E-02  0.1234911E+00
         -4   -1    0    0    0  501 -0.00000000000E+00  0.00000000000E+00  0.29897497606E+03  0.29897767343E+03  0.12700000000E+01 0.  1.
          4   -1    0    0  501    0  0.00000000000E+00 -0.00000000000E+00 -0.13053024950E+02  0.13114662037E+02  0.12700000000E+01 0.  1.
    9000005    1    1    2    0    0 -0.52551822794E+02  0.33845531350E+02  0.13775670584E+03  0.15127830008E+03  0.10000000000E+01 0.  0.
    9000005    1    1    2    0    0  0.52551822794E+02 -0.33845531350E+02  0.14816524527E+03  0.16081403538E+03  0.10000000000E+01 0.  0.
<mgrwt>
<rscale>  0 0.12510101E+03</rscale>
<asrwt>0</asrwt>
<pdfrwt beam="2">  1        4 0.20131066E-02 0.12510101E+03</pdfrwt>
<pdfrwt beam="1">  1       -4 0.46001097E-01 0.12510101E+03</pdfrwt>
<totfact> 0.73940801E+03</totfact>
</mgrwt>
</event>
<event>
 5    1  0.3206665E-002  0.1249966E+03  0.7818608E-02  0.1235075E+00
         -4   -1    0    0    0  501 -0.00000000000E+00  0.00000000000E+00  0.10005056700E+02  0.10085338842E+02  0.12700000000E+01 0. -1.
          4   -1    0    0  501    0  0.00000000000E+00 -0.00000000000E+00 -0.38876511792E+03  0.38876719230E+03  0.12700000000E+01 0. -1.
         25    2    1    2    0    0  0.00000000000E+00  0.00000000000E+00 -0.37876006122E+03  0.39885253115E+03  0.12499663046E+03 0.  0.
    9000005    1    3    3    0    0 -0.29697508977E+02  0.77012397321E+01 -0.15664905163E+02  0.34462158763E+02  0.10000000000E+01 0.  0.
    9000005    1    3    3    0    0  0.29697508977E+02 -0.77012397321E+01 -0.36309515606E+03  0.36439037238E+03  0.10000000000E+01 0.  0.
<mgrwt>
<rscale>  0 0.12499663E+03</rscale>
<asrwt>0</asrwt>
<pdfrwt beam="2">  1        4 0.59816342E-01 0.12499663E+03</pdfrwt>
<pdfrwt beam="1">  1       -4 0.15455749E-02 0.12499663E+03</pdfrwt>
<totfact> 0.64669360E+03</totfact>
</mgrwt>
</event>
<event>
 5    1  0.3206665E-002  0.1249877E+03  0.7818608E-02  0.1235088E+00
         -4   -1    0    0    0  501 -0.00000000000E+00  0.00000000000E+00  0.56241565009E+03  0.56241708399E+03  0.12700000000E+01 0.  1.
          4   -1    0    0  501    0  0.00000000000E+00 -0.00000000000E+00 -0.68846015448E+01  0.70007598467E+01  0.12700000000E+01 0.  1.
         25    2    1    2    0    0  0.00000000000E+00  0.00000000000E+00  0.55553104854E+03  0.56941784383E+03  0.12498773934E+03 0.  0.
    9000005    1    3    3    0    0  0.48998718881E+01 -0.61902994114E+02  0.24603997849E+03  0.25375708944E+03  0.10000000000E+01 0.  0.
    9000005    1    3    3    0    0 -0.48998718881E+01  0.61902994114E+02  0.30949107005E+03  0.31566075440E+03  0.10000000000E+01 0.  0.
<mgrwt>
<rscale>  0 0.12498774E+03</rscale>
<asrwt>0</asrwt>
<pdfrwt beam="2">  1        4 0.10682149E-02 0.12498774E+03</pdfrwt>
<pdfrwt beam="1">  1       -4 0.86534543E-01 0.12498774E+03</pdfrwt>
<totfact> 0.50870434E+03</totfact>
</mgrwt>
</event>
<event>
 5    1  0.3206665E-002  0.1250002E+03  0.7818608E-02  0.1235069E+00
         -4   -1    0    0    0  501 -0.00000000000E+00  0.00000000000E+00  0.36909356080E+02  0.36931199090E+02  0.12700000000E+01 0. -1.
          4   -1    0    0  501    0  0.00000000000E+00 -0.00000000000E+00 -0.10577696627E+03  0.10578459006E+03  0.12700000000E+01 0. -1.
         25    2    1    2    0    0  0.00000000000E+00  0.00000000000E+00 -0.68867610193E+02  0.14271578915E+03  0.12500019495E+03 0.  0.
    9000005    1    3    3    0    0  0.31426694075E+02 -0.54014465287E+02 -0.34719518876E+02  0.71495765971E+02  0.10000000000E+01 0.  0.
    9000005    1    3    3    0    0 -0.31426694075E+02  0.54014465287E+02 -0.34148091316E+02  0.71220023177E+02  0.10000000000E+01 0.  0.
<mgrwt>
<rscale>  0 0.12500019E+03</rscale>
<asrwt>0</asrwt>
<pdfrwt beam="2">  1        4 0.16275646E-01 0.12500019E+03</pdfrwt>
<pdfrwt beam="1">  1       -4 0.56806292E-02 0.12500019E+03</pdfrwt>
<totfact> 0.10077562E+04</totfact>
</mgrwt>
</event>
<event>
 5    1  0.3206665E-002  0.1250057E+03  0.7818608E-02  0.1235060E+00
          4   -1    0    0  501    0  0.00000000000E+00  0.00000000000E+00  0.14100832871E+03  0.14101404776E+03  0.12700000000E+01 0.  1.
         -4   -1    0    0    0  501 -0.00000000000E+00 -0.00000000000E+00 -0.27683947405E+02  0.27713062695E+02  0.12700000000E+01 0.  1.
         25    2    1    2    0    0  0.00000000000E+00  0.00000000000E+00  0.11332438131E+03  0.16872711046E+03  0.12500568949E+03 0.  0.
    9000005    1    3    3    0    0  0.28807789229E+02 -0.44203720067E+02  0.11455497098E+02  0.54000796307E+02  0.10000000000E+01 0.  0.
    9000005    1    3    3    0    0 -0.28807789229E+02  0.44203720067E+02  0.10186888421E+03  0.11472631415E+03  0.10000000000E+01 0.  0.
<mgrwt>
<rscale>  0 0.12500569E+03</rscale>
<asrwt>0</asrwt>
<pdfrwt beam="1">  1        4 0.21696269E-01 0.12500569E+03</pdfrwt>
<pdfrwt beam="2">  1       -4 0.42617484E-02 0.12500569E+03</pdfrwt>
<totfact> 0.95673932E+03</totfact>
</mgrwt>
</event>
<event>
 5    1  0.3206665E-002  0.1249981E+03  0.7818608E-02  0.1235072E+00
         -4   -1    0    0    0  501 -0.00000000000E+00  0.00000000000E+00  0.75023588288E+02  0.75034336804E+02  0.12700000000E+01 0.  1.
          4   -1    0    0  501    0  0.00000000000E+00 -0.00000000000E+00 -0.52043122695E+02  0.52058616193E+02  0.12700000000E+01 0.  1.
         25    2    1    2    0    0  0.00000000000E+00  0.00000000000E+00  0.22980465592E+02  0.12709295300E+03  0.12499806759E+03 0.  0.
    9000005    1    3    3    0    0 -0.13658950128E+02  0.57927531124E+02  0.30861124609E+02  0.67049047666E+02  0.10000000000E+01 0.  0.
    9000005    1    3    3    0    0  0.13658950128E+02 -0.57927531124E+02 -0.78806590170E+01  0.60043905330E+02  0.10000000000E+01 0.  0.
<mgrwt>
<rscale>  0 0.12499807E+03</rscale>
<asrwt>0</asrwt>
<pdfrwt beam="2">  1        4 0.80086529E-02 0.12499807E+03</pdfrwt>
<pdfrwt beam="1">  1       -4 0.11544109E-01 0.12499807E+03</pdfrwt>
<totfact> 0.10407581E+04</totfact>
</mgrwt>
</event>
<event>
 5    1  0.3206665E-002  0.1249994E+03  0.7818608E-02  0.1235070E+00
          4   -1    0    0  501    0  0.00000000000E+00  0.00000000000E+00  0.21565553430E+02  0.21602916348E+02  0.12700000000E+01 0.  1.
         -4   -1    0    0    0  501 -0.00000000000E+00 -0.00000000000E+00 -0.18093559841E+03  0.18094005547E+03  0.12700000000E+01 0.  1.
         25    2    1    2    0    0  0.00000000000E+00  0.00000000000E+00 -0.15937004498E+03  0.20254297182E+03  0.12499937678E+03 0.  0.
    9000005    1    3    3    0    0 -0.37899752002E+02  0.44020940750E+02 -0.42347368188E+02  0.71892517126E+02  0.10000000000E+01 0.  0.
    9000005    1    3    3    0    0  0.37899752002E+02 -0.44020940750E+02 -0.11702267680E+03  0.13065045469E+03  0.10000000000E+01 0.  0.
<mgrwt>
<rscale>  0 0.12499938E+03</rscale>
<asrwt>0</asrwt>
<pdfrwt beam="1">  1        4 0.33209945E-02 0.12499938E+03</pdfrwt>
<pdfrwt beam="2">  1       -4 0.27839462E-01 0.12499938E+03</pdfrwt>
<totfact> 0.89709630E+03</totfact>
</mgrwt>
</event>
<event>
 5    1  0.3206665E-002  0.1250139E+03  0.7818608E-02  0.1235048E+00
         -4   -1    0    0    0  501 -0.00000000000E+00  0.00000000000E+00  0.22737206787E+02  0.22772647463E+02  0.12700000000E+01 0.  1.
          4   -1    0    0  501    0  0.00000000000E+00 -0.00000000000E+00 -0.17166639462E+03  0.17167109233E+03  0.12700000000E+01 0.  1.
         25    2    1    2    0    0  0.00000000000E+00  0.00000000000E+00 -0.14892918784E+03  0.19444373980E+03  0.12501385906E+03 0.  0.
    9000005    1    3    3    0    0 -0.60653290149E+02  0.33461376910E+01 -0.97329065732E+02  0.11473432477E+03  0.10000000000E+01 0.  0.
    9000005    1    3    3    0    0  0.60653290149E+02 -0.33461376910E+01 -0.51600122104E+02  0.79709415031E+02  0.10000000000E+01 0.  0.
<mgrwt>
<rscale>  0 0.12501386E+03</rscale>
<asrwt>0</asrwt>
<pdfrwt beam="2">  1        4 0.26413301E-01 0.12501386E+03</pdfrwt>
<pdfrwt beam="1">  1       -4 0.35011195E-02 0.12501386E+03</pdfrwt>
<totfact> 0.91051559E+03</totfact>
</mgrwt>
</event>
<event>
 5    1  0.3206665E-002  0.1249938E+03  0.7818608E-02  0.1235079E+00
          4   -1    0    0  501    0  0.00000000000E+00  0.00000000000E+00  0.29610581320E+03  0.29610853670E+03  0.12700000000E+01 0. -1.
         -4   -1    0    0    0  501 -0.00000000000E+00 -0.00000000000E+00 -0.13157414846E+02  0.13218565180E+02  0.12700000000E+01 0. -1.
         25    2    1    2    0    0  0.00000000000E+00  0.00000000000E+00  0.28294839835E+03  0.30932710188E+03  0.12499383917E+03 0.  0.
    9000005    1    3    3    0    0  0.91948587981E+01  0.37897942360E+02  0.20640392879E+02  0.44134173626E+02  0.10000000000E+01 0.  0.
    9000005    1    3    3    0    0 -0.91948587981E+01 -0.37897942360E+02  0.26230800547E+03  0.26519292826E+03  0.10000000000E+01 0.  0.
<mgrwt>
<rscale>  0 0.12499384E+03</rscale>
<asrwt>0</asrwt>
<pdfrwt beam="1">  1        4 0.45559652E-01 0.12499384E+03</pdfrwt>
<pdfrwt beam="2">  1       -4 0.20291311E-02 0.12499384E+03</pdfrwt>
<totfact> 0.74453739E+03</totfact>
</mgrwt>
</event>
<event>
 5    1  0.3206665E-002  0.1250009E+03  0.7818608E-02  0.1235068E+00
         -4   -1    0    0    0  501 -0.00000000000E+00  0.00000000000E+00  0.39734394086E+02  0.39754684924E+02  0.12700000000E+01 0.  1.
          4   -1    0    0  501    0  0.00000000000E+00 -0.00000000000E+00 -0.98260947325E+02  0.98269154211E+02  0.12700000000E+01 0.  1.
         25    2    1    2    0    0  0.00000000000E+00  0.00000000000E+00 -0.58526553240E+02  0.13802383913E+03  0.12500089094E+03 0.  0.
    9000005    1    3    3    0    0 -0.58275595447E+02 -0.16399946484E+02 -0.12146575715E+02  0.61753887092E+02  0.10000000000E+01 0.  0.
    9000005    1    3    3    0    0  0.58275595447E+02  0.16399946484E+02 -0.46379977524E+02  0.76269952042E+02  0.10000000000E+01 0.  0.
<mgrwt>
<rscale>  0 0.12500089E+03</rscale>
<asrwt>0</asrwt>
<pdfrwt beam="2">  1        4 0.15119261E-01 0.12500089E+03</pdfrwt>
<pdfrwt beam="1">  1       -4 0.61151758E-02 0.12500089E+03</pdfrwt>
<totfact> 0.10174504E+04</totfact>
</mgrwt>
</event>
<event>
 5    1  0.3206665E-002  0.1250012E+03  0.7818608E-02  0.1235067E+00
          4   -1    0    0  501    0  0.00000000000E+00  0.00000000000E+00  0.72184765959E+01  0.73293454254E+01  0.12700000000E+01 0.  1.
         -4   -1    0    0    0  501 -0.00000000000E+00 -0.00000000000E+00 -0.53692106887E+03  0.53692257086E+03  0.12700000000E+01 0.  1.
         25    2    1    2    0    0  0.00000000000E+00  0.00000000000E+00 -0.52970259227E+03  0.54425191628E+03  0.12500124846E+03 0.  0.
    9000005    1    3    3    0    0 -0.63329950640E+00 -0.42468068691E+02 -0.65261213735E+02  0.77871457831E+02  0.10000000000E+01 0.  0.
    9000005    1    3    3    0    0  0.63329950640E+00  0.42468068691E+02 -0.46444137854E+03  0.46638045845E+03  0.10000000000E+01 0.  0.
<mgrwt>
<rscale>  0 0.12500125E+03</rscale>
<asrwt>0</asrwt>
<pdfrwt beam="1">  1        4 0.11191792E-02 0.12500125E+03</pdfrwt>
<pdfrwt beam="2">  1       -4 0.82611854E-01 0.12500125E+03</pdfrwt>
<totfact> 0.52585894E+03</totfact>
</mgrwt>
</event>
<event>
 5    1  0.3206665E-002  0.1249990E+03  0.7818608E-02  0.1235071E+00
         -4   -1    0    0    0  501 -0.00000000000E+00  0.00000000000E+00  0.20160726001E+02  0.20200687436E+02  0.12700000000E+01 0. -1.
          4   -1    0    0  501    0  0.00000000000E+00 -0.00000000000E+00 -0.19351851964E+03  0.19352268689E+03  0.12700000000E+01 0. -1.
         25    2    1    2    0    0  0.00000000000E+00  0.00000000000E+00 -0.17335779364E+03  0.21372337433E+03  0.12499902448E+03 0.  0.
    9000005    1    3    3    0    0 -0.43503357390E+02 -0.31637383578E+02 -0.32294265866E+02  0.62748591631E+02  0.10000000000E+01 0.  0.
    9000005    1    3    3    0    0  0.43503357390E+02  0.31637383578E+02 -0.14106352777E+03  0.15097478270E+03  0.10000000000E+01 0.  0.
<mgrwt>
<rscale>  0 0.12499902E+03</rscale>
<asrwt>0</asrwt>
<pdfrwt beam="2">  1        4 0.29775473E-01 0.12499902E+03</pdfrwt>
<pdfrwt beam="1">  1       -4 0.31050448E-02 0.12499902E+03</pdfrwt>
<totfact> 0.87873309E+03</totfact>
</mgrwt>
</event>
<event>
 5    1  0.3206665E-002  0.1250012E+03  0.7818608E-02  0.1235067E+00
         -4   -1    0    0    0  501 -0.00000000000E+00  0.00000000000E+00  0.22202831628E+03  0.22203194844E+03  0.12700000000E+01 0. -1.
          4   -1    0    0  501    0  0.00000000000E+00 -0.00000000000E+00 -0.17567126323E+02  0.17612973266E+02  0.12700000000E+01 0. -1.
         25    2    1    2    0    0  0.00000000000E+00  0.00000000000E+00  0.20446118995E+03  0.23964492171E+03  0.12500124121E+03 0.  0.
    9000005    1    3    3    0    0  0.46289817051E+02  0.19617306520E+02  0.17339090087E+03  0.18053528847E+03  0.10000000000E+01 0.  0.
    9000005    1    3    3    0    0 -0.46289817051E+02 -0.19617306520E+02  0.31070289080E+02  0.59109633236E+02  0.10000000000E+01 0.  0.
<mgrwt>
<rscale>  0 0.12500124E+03</rscale>
<asrwt>0</asrwt>
<pdfrwt beam="2">  1        4 0.27064409E-02 0.12500124E+03</pdfrwt>
<pdfrwt beam="1">  1       -4 0.34162009E-01 0.12500124E+03</pdfrwt>
<totfact> 0.83847957E+03</totfact>
</mgrwt>
</event>
<event>
 5    1  0.3206665E-002  0.1249984E+03  0.7818608E-02  0.1235072E+00
          4   -1    0    0  501    0  0.00000000000E+00  0.00000000000E+00  0.32296645315E+03  0.32296895014E+03  0.12700000000E+01 0.  1.
         -4   -1    0    0    0  501 -0.00000000000E+00 -0.00000000000E+00 -0.12058704273E+02  0.12125396849E+02  0.12700000000E+01 0.  1.
         25    2    1    2    0    0  0.00000000000E+00  0.00000000000E+00  0.31090774887E+03  0.33509434699E+03  0.12499837230E+03 0.  0.
    9000005    1    3    3    0    0  0.28180002086E+02 -0.31150706775E+02  0.27948695374E+03  0.28262773459E+03  0.10000000000E+01 0.  0.
    9000005    1    3    3    0    0 -0.28180002086E+02  0.31150706775E+02  0.31420795136E+02  0.52466612403E+02  0.10000000000E+01 0.  0.
<mgrwt>
<rscale>  0 0.12499837E+03</rscale>
<asrwt>0</asrwt>
<pdfrwt beam="1">  1        4 0.49692467E-01 0.12499837E+03</pdfrwt>
<pdfrwt beam="2">  1       -4 0.18605076E-02 0.12499837E+03</pdfrwt>
<totfact> 0.71398674E+03</totfact>
</mgrwt>
</event>
<event>
 5    1  0.3206665E-002  0.1249959E+03  0.7818608E-02  0.1235076E+00
          4   -1    0    0  501    0  0.00000000000E+00  0.00000000000E+00  0.40390301451E+02  0.40410262945E+02  0.12700000000E+01 0. -1.
         -4   -1    0    0    0  501 -0.00000000000E+00 -0.00000000000E+00 -0.96658217368E+02  0.96666560324E+02  0.12700000000E+01 0. -1.
         25    2    1    2    0    0  0.00000000000E+00  0.00000000000E+00 -0.56267915917E+02  0.13707682327E+03  0.12499590840E+03 0.  0.
    9000005    1    3    3    0    0 -0.44361673509E+02  0.90596434946E+01  0.19097940138E+02  0.49150447956E+02  0.10000000000E+01 0.  0.
    9000005    1    3    3    0    0  0.44361673509E+02 -0.90596434946E+01 -0.75365856055E+02  0.87926375313E+02  0.10000000000E+01 0.  0.
<mgrwt>
<rscale>  0 0.12499591E+03</rscale>
<asrwt>0</asrwt>
<pdfrwt beam="1">  1        4 0.62160698E-02 0.12499591E+03</pdfrwt>
<pdfrwt beam="2">  1       -4 0.14872672E-01 0.12499591E+03</pdfrwt>
<totfact> 0.10195420E+04</totfact>
</mgrwt>
</event>
<event>
 5    1  0.3206665E-002  0.1250061E+03  0.7818608E-02  0.1235060E+00
         -4   -1    0    0    0  501 -0.00000000000E+00  0.00000000000E+00  0.86534860860E+02  0.86544179724E+02  0.12700000000E+01 0.  1.
          4   -1    0    0  501    0  0.00000000000E+00 -0.00000000000E+00 -0.45124522144E+02  0.45142390264E+02  0.12700000000E+01 0.  1.
         25    2    1    2    0    0  0.00000000000E+00  0.00000000000E+00  0.41410338716E+02  0.13168656999E+03  0.12500614610E+03 0.  0.
    9000005    1    3    3    0    0  0.17762963635E+02  0.10797064451E+01  0.83814496692E+02  0.85688730291E+02  0.10000000000E+01 0.  0.
    9000005    1    3    3    0    0 -0.17762963635E+02 -0.10797064451E+01 -0.42404157976E+02  0.45997839697E+02  0.10000000000E+01 0.  0.
<mgrwt>
<rscale>  0 0.12500615E+03</rscale>
<asrwt>0</asrwt>
<pdfrwt beam="2">  1        4 0.69443256E-02 0.12500615E+03</pdfrwt>
<pdfrwt beam="1">  1       -4 0.13315147E-01 0.12500615E+03</pdfrwt>
<totfact> 0.10306964E+04</totfact>
</mgrwt>
</event>
<event>
 4    1  0.3206665E-002  0.1251433E+03  0.7818608E-02  0.1234845E+00
          4   -1    0    0  501    0  0.00000000000E+00  0.00000000000E+00  0.87817608835E+02  0.87826791593E+02  0.12700000000E+01 0. -1.
         -4   -1    0    0    0  501 -0.00000000000E+00 -0.00000000000E+00 -0.44562887855E+02  0.44580981079E+02  0.12700000000E+01 0. -1.
    9000005    1    1    2    0    0 -0.26502416808E+02  0.35981185761E+02  0.67954790072E+02  0.81338043492E+02  0.10000000000E+01 0.  0.
    9000005    1    1    2    0    0  0.26502416808E+02 -0.35981185761E+02 -0.24700069091E+02  0.51069729181E+02  0.10000000000E+01 0.  0.
<mgrwt>
<rscale>  0 0.12514331E+03</rscale>
<asrwt>0</asrwt>
<pdfrwt beam="1">  1        4 0.13512499E-01 0.12514331E+03</pdfrwt>
<pdfrwt beam="2">  1       -4 0.68579271E-02 0.12514331E+03</pdfrwt>
<totfact> 0.10259798E+04</totfact>
</mgrwt>
</event>
<event>
 5    1  0.3206665E-002  0.1249988E+03  0.7818608E-02  0.1235071E+00
         -4   -1    0    0    0  501 -0.00000000000E+00  0.00000000000E+00  0.16269966943E+03  0.16270462603E+03  0.12700000000E+01 0. -1.
          4   -1    0    0  501    0  0.00000000000E+00 -0.00000000000E+00 -0.23986389279E+02  0.24019986900E+02  0.12700000000E+01 0. -1.
         25    2    1    2    0    0  0.00000000000E+00  0.00000000000E+00  0.13871328015E+03  0.18672461293E+03  0.12499882793E+03 0.  0.
    9000005    1    3    3    0    0  0.11013837936E+02  0.61343587787E+02  0.76175417691E+02  0.98427814408E+02  0.10000000000E+01 0.  0.
    9000005    1    3    3    0    0 -0.11013837936E+02 -0.61343587787E+02  0.62537862457E+02  0.88296798523E+02  0.10000000000E+01 0.  0.
<mgrwt>
<rscale>  0 0.12499883E+03</rscale>
<asrwt>0</asrwt>
<pdfrwt beam="2">  1        4 0.36931797E-02 0.12499883E+03</pdfrwt>
<pdfrwt beam="1">  1       -4 0.25033683E-01 0.12499883E+03</pdfrwt>
<totfact> 0.92422793E+03</totfact>
</mgrwt>
</event>
<event>
 4    1  0.3206665E-002  0.1248053E+03  0.7818608E-02  0.1235374E+00
          4   -1    0    0  501    0  0.00000000000E+00  0.00000000000E+00  0.27578849721E+02  0.27608075846E+02  0.12700000000E+01 0.  1.
         -4   -1    0    0    0  501 -0.00000000000E+00 -0.00000000000E+00 -0.14109149469E+03  0.14109721037E+03  0.12700000000E+01 0.  1.
    9000005    1    1    2    0    0  0.62905535927E+01 -0.54370639841E+01  0.26833271661E+02  0.28109734920E+02  0.10000000000E+01 0.  0.
    9000005    1    1    2    0    0 -0.62905535927E+01  0.54370639841E+01 -0.14034591663E+03  0.14059555130E+03  0.10000000000E+01 0.  0.
<mgrwt>
<rscale>  0 0.12480526E+03</rscale>
<asrwt>0</asrwt>
<pdfrwt beam="1">  1        4 0.42455879E-02 0.12480526E+03</pdfrwt>
<pdfrwt beam="2">  1       -4 0.21709071E-01 0.12480526E+03</pdfrwt>
<totfact> 0.96109891E+03</totfact>
</mgrwt>
</event>
<event>
 5    1  0.3206665E-002  0.1250046E+03  0.7818608E-02  0.1235062E+00
          4   -1    0    0  501    0  0.00000000000E+00  0.00000000000E+00  0.54178066541E+03  0.54178215393E+03  0.12700000000E+01 0. -1.
         -4   -1    0    0    0  501 -0.00000000000E+00 -0.00000000000E+00 -0.71531200635E+01  0.72649863484E+01  0.12700000000E+01 0. -1.
         25    2    1    2    0    0  0.00000000000E+00  0.00000000000E+00  0.53462754535E+03  0.54904714027E+03  0.12500459991E+03 0.  0.
    9000005    1    3    3    0    0 -0.28393943575E+02 -0.50992793621E+02  0.16919355947E+03  0.17898028271E+03  0.10000000000E+01 0.  0.
    9000005    1    3    3    0    0  0.28393943575E+02  0.50992793621E+02  0.36543398588E+03  0.37006685757E+03  0.10000000000E+01 0.  0.
<mgrwt>
<rscale>  0 0.12500460E+03</rscale>
<asrwt>0</asrwt>
<pdfrwt beam="1">  1        4 0.83359549E-01 0.12500460E+03</pdfrwt>
<pdfrwt beam="2">  1       -4 0.11092002E-02 0.12500460E+03</pdfrwt>
<totfact> 0.52245150E+03</totfact>
</mgrwt>
</event>
<event>
 5    1  0.3206665E-002  0.1250016E+03  0.7818608E-02  0.1235067E+00
          4   -1    0    0  501    0  0.00000000000E+00  0.00000000000E+00  0.27437845211E+03  0.27438139128E+03  0.12700000000E+01 0. -1.
         -4   -1    0    0    0  501 -0.00000000000E+00 -0.00000000000E+00 -0.14205754631E+02  0.14262410898E+02  0.12700000000E+01 0. -1.
         25    2    1    2    0    0  0.00000000000E+00  0.00000000000E+00  0.26017269748E+03  0.28864380218E+03  0.12500164808E+03 0.  0.
    9000005    1    3    3    0    0  0.45321021439E+02 -0.39521211369E+02  0.90801989335E+02  0.10891245291E+03  0.10000000000E+01 0.  0.
    9000005    1    3    3    0    0 -0.45321021439E+02  0.39521211369E+02  0.16937070815E+03  0.17973134927E+03  0.10000000000E+01 0.  0.
<mgrwt>
<rscale>  0 0.12500165E+03</rscale>
<asrwt>0</asrwt>
<pdfrwt beam="1">  1        4 0.42216650E-01 0.12500165E+03</pdfrwt>
<pdfrwt beam="2">  1       -4 0.21900852E-02 0.12500165E+03</pdfrwt>
<totfact> 0.77042964E+03</totfact>
</mgrwt>
</event>
<event>
 5    1  0.3206665E-002  0.1249985E+03  0.7818608E-02  0.1235072E+00
         -4   -1    0    0    0  501 -0.00000000000E+00  0.00000000000E+00  0.76683845328E+03  0.76683950493E+03  0.12700000000E+01 0. -1.
          4   -1    0    0  501    0  0.00000000000E+00 -0.00000000000E+00 -0.50136101681E+01  0.51719616121E+01  0.12700000000E+01 0. -1.
         25    2    1    2    0    0  0.00000000000E+00  0.00000000000E+00  0.76182484311E+03  0.77201146654E+03  0.12499845158E+03 0.  0.
    9000005    1    3    3    0    0 -0.35523912864E+02  0.51137893188E+02  0.34816083585E+03  0.35368630186E+03  0.10000000000E+01 0.  0.
    9000005    1    3    3    0    0  0.35523912864E+02 -0.51137893188E+02  0.41366400726E+03  0.41832516468E+03  0.10000000000E+01 0.  0.
<mgrwt>
<rscale>  0 0.12499845E+03</rscale>
<asrwt>0</asrwt>
<pdfrwt beam="2">  1        4 0.78358644E-03 0.12499845E+03</pdfrwt>
<pdfrwt beam="1">  1       -4 0.11798741E+00 0.12499845E+03</pdfrwt>
<totfact> 0.39544125E+03</totfact>
</mgrwt>
</event>
<event>
 5    1  0.3206665E-002  0.1250027E+03  0.7818608E-02  0.1235065E+00
          4   -1    0    0  501    0  0.00000000000E+00  0.00000000000E+00  0.67014885473E+02  0.67026918287E+02  0.12700000000E+01 0. -1.
         -4   -1    0    0    0  501 -0.00000000000E+00 -0.00000000000E+00 -0.58267635401E+02  0.58281474202E+02  0.12700000000E+01 0. -1.
         25    2    1    2    0    0  0.00000000000E+00  0.00000000000E+00  0.87472500724E+01  0.12530839249E+03  0.12500271535E+03 0.  0.
    9000005    1    3    3    0    0  0.39941548147E+02  0.27842784113E+02  0.43646868274E+02  0.65395695620E+02  0.10000000000E+01 0.  0.
    9000005    1    3    3    0    0 -0.39941548147E+02 -0.27842784113E+02 -0.34899618201E+02  0.59912696869E+02  0.10000000000E+01 0.  0.
<mgrwt>
<rscale>  0 0.12500272E+03</rscale>
<asrwt>0</asrwt>
<pdfrwt beam="1">  1        4 0.10311972E-01 0.12500272E+03</pdfrwt>
<pdfrwt beam="2">  1       -4 0.89662418E-02 0.12500272E+03</pdfrwt>
<totfact> 0.10445527E+04</totfact>
</mgrwt>
</event>
<event>
 5    1  0.3206665E-002  0.1250007E+03  0.7818608E-02  0.1235068E+00
         -4   -1    0    0    0  501 -0.00000000000E+00  0.00000000000E+00  0.62826019256E+03  0.62826147618E+03  0.12700000000E+01 0. -1.
          4   -1    0    0  501    0  0.00000000000E+00 -0.00000000000E+00 -0.61514768051E+01  0.62812074384E+01  0.12700000000E+01 0. -1.
         25    2    1    2    0    0  0.00000000000E+00  0.00000000000E+00  0.62210871575E+03  0.63454268362E+03  0.12500065247E+03 0.  0.
    9000005    1    3    3    0    0 -0.14146942859E+02 -0.22105000304E+00  0.20611911411E+01  0.14332946810E+02  0.10000000000E+01 0.  0.
    9000005    1    3    3    0    0  0.14146942859E+02  0.22105000304E+00  0.62004752461E+03  0.62020973681E+03  0.10000000000E+01 0.  0.
<mgrwt>
<rscale>  0 0.12500065E+03</rscale>
<asrwt>0</asrwt>
<pdfrwt beam="2">  1        4 0.95645897E-03 0.12500065E+03</pdfrwt>
<pdfrwt beam="1">  1       -4 0.96665502E-01 0.12500065E+03</pdfrwt>
<totfact> 0.46756661E+03</totfact>
</mgrwt>
</event>
<event>
 5    1  0.3206665E-002  0.1249959E+03  0.7818608E-02  0.1235076E+00
          4   -1    0    0  501    0  0.00000000000E+00  0.00000000000E+00  0.65113262859E+02  0.65125647023E+02  0.12700000000E+01 0.  1.
         -4   -1    0    0    0  501 -0.00000000000E+00 -0.00000000000E+00 -0.59962869075E+02  0.59976316723E+02  0.12700000000E+01 0.  1.
         25    2    1    2    0    0  0.00000000000E+00  0.00000000000E+00  0.51503937840E+01  0.12510196375E+03  0.12499589904E+03 0.  0.
    9000005    1    3    3    0    0  0.50168168902E+01  0.40600860819E+02  0.49852927705E+02  0.64497385619E+02  0.10000000000E+01 0.  0.
    9000005    1    3    3    0    0 -0.50168168902E+01 -0.40600860819E+02 -0.44702533921E+02  0.60604578127E+02  0.10000000000E+01 0.  0.
<mgrwt>
<rscale>  0 0.12499590E+03</rscale>
<asrwt>0</asrwt>
<pdfrwt beam="1">  1        4 0.10019412E-01 0.12499590E+03</pdfrwt>
<pdfrwt beam="2">  1       -4 0.92270438E-02 0.12499590E+03</pdfrwt>
<totfact> 0.10451617E+04</totfact>
</mgrwt>
</event>
<event>
 5    1  0.3206665E-002  0.1250010E+03  0.7818608E-02  0.1235068E+00
          4   -1    0    0  501    0  0.00000000000E+00  0.00000000000E+00  0.81070881745E+02  0.81080828603E+02  0.12700000000E+01 0. -1.
         -4   -1    0    0    0  501 -0.00000000000E+00 -0.00000000000E+00 -0.48162663101E+02  0.48179404490E+02  0.12700000000E+01 0. -1.
         25    2    1    2    0    0  0.00000000000E+00  0.00000000000E+00  0.32908218644E+02  0.12926023309E+03  0.12500102802E+03 0.  0.
    9000005    1    3    3    0    0  0.65640429883E+01 -0.59779349479E+02 -0.11147017200E+01  0.60157292529E+02  0.10000000000E+01 0.  0.
    9000005    1    3    3    0    0 -0.65640429883E+01  0.59779349479E+02  0.34022920364E+02  0.69102940564E+02  0.10000000000E+01 0.  0.
<mgrwt>
<rscale>  0 0.12500103E+03</rscale>
<asrwt>0</asrwt>
<pdfrwt beam="1">  1        4 0.12474496E-01 0.12500103E+03</pdfrwt>
<pdfrwt beam="2">  1       -4 0.74116935E-02 0.12500103E+03</pdfrwt>
<totfact> 0.10360118E+04</totfact>
</mgrwt>
</event>
<event>
 5    1  0.3206665E-002  0.1249987E+03  0.7818608E-02  0.1235071E+00
          4   -1    0    0  501    0  0.00000000000E+00  0.00000000000E+00  0.28851183886E+01  0.31522703114E+01  0.12700000000E+01 0. -1.
         -4   -1    0    0    0  501 -0.00000000000E+00 -0.00000000000E+00 -0.12937262080E+04  0.12937268314E+04  0.12700000000E+01 0. -1.
         25    2    1    2    0    0  0.00000000000E+00  0.00000000000E+00 -0.12908410896E+04  0.12968791017E+04  0.12499874283E+03 0.  0.
    9000005    1    3    3    0    0 -0.64663343744E+01  0.46482822686E+02 -0.10735386263E+04  0.10745643994E+04  0.10000000000E+01 0.  0.
    9000005    1    3    3    0    0  0.64663343744E+01 -0.46482822686E+02 -0.21730246329E+03  0.22231470225E+03  0.10000000000E+01 0.  0.
<mgrwt>
<rscale>  0 0.12499874E+03</rscale>
<asrwt>0</asrwt>
<pdfrwt beam="1">  1        4 0.46446350E-03 0.12499874E+03</pdfrwt>
<pdfrwt beam="2">  1       -4 0.19905496E+00 0.12499874E+03</pdfrwt>
<totfact> 0.22302972E+03</totfact>
</mgrwt>
</event>
<event>
 5    1  0.3206665E-002  0.1249973E+03  0.7818608E-02  0.1235074E+00
         -4   -1    0    0    0  501 -0.00000000000E+00  0.00000000000E+00  0.41219711675E+02  0.41239271702E+02  0.12700000000E+01 0.  1.
          4   -1    0    0  501    0  0.00000000000E+00 -0.00000000000E+00 -0.94716150065E+02  0.94724664070E+02  0.12700000000E+01 0.  1.
         25    2    1    2    0    0  0.00000000000E+00  0.00000000000E+00 -0.53496438390E+02  0.13596393577E+03  0.12499729161E+03 0.  0.
    9000005    1    3    3    0    0  0.60075805564E+02  0.15579827314E+02 -0.34685502777E+02  0.71104975467E+02  0.10000000000E+01 0.  0.
    9000005    1    3    3    0    0 -0.60075805564E+02 -0.15579827314E+02 -0.18810935613E+02  0.64858960305E+02  0.10000000000E+01 0.  0.
<mgrwt>
<rscale>  0 0.12499729E+03</rscale>
<asrwt>0</asrwt>
<pdfrwt beam="2">  1        4 0.14573875E-01 0.12499729E+03</pdfrwt>
<pdfrwt beam="1">  1       -4 0.63436537E-02 0.12499729E+03</pdfrwt>
<totfact> 0.10218417E+04</totfact>
</mgrwt>
</event>
<event>
 4    1  0.3206665E-002  0.1255788E+03  0.7818608E-02  0.1234168E+00
          4   -1    0    0  501    0  0.00000000000E+00  0.00000000000E+00  0.15904243437E+03  0.15904750494E+03  0.12700000000E+01 0.  1.
         -4   -1    0    0    0  501 -0.00000000000E+00 -0.00000000000E+00 -0.24767288083E+02  0.24799827801E+02  0.12700000000E+01 0.  1.
    9000005    1    1    2    0    0 -0.24924662630E+02  0.52228577575E+02  0.31503569554E+02  0.65897936367E+02  0.10000000000E+01 0.  0.
    9000005    1    1    2    0    0  0.24924662630E+02 -0.52228577575E+02  0.10277157673E+03  0.11794939638E+03  0.10000000000E+01 0.  0.
<mgrwt>
<rscale>  0 0.12557877E+03</rscale>
<asrwt>0</asrwt>
<pdfrwt beam="1">  1        4 0.24470960E-01 0.12557877E+03</pdfrwt>
<pdfrwt beam="2">  1       -4 0.38132450E-02 0.12557877E+03</pdfrwt>
<totfact> 0.91733742E+03</totfact>
</mgrwt>
</event>
<event>
 5    1  0.3206665E-002  0.1249941E+03  0.7818608E-02  0.1235079E+00
         -4   -1    0    0    0  501 -0.00000000000E+00  0.00000000000E+00  0.48322846748E+01  0.49963862119E+01  0.12700000000E+01 0.  1.
          4   -1    0    0  501    0  0.00000000000E+00 -0.00000000000E+00 -0.79462832431E+03  0.79462933919E+03  0.12700000000E+01 0.  1.
         25    2    1    2    0    0  0.00000000000E+00  0.00000000000E+00 -0.78979603964E+03  0.79962572540E+03  0.12499406584E+03 0.  0.
    9000005    1    3    3    0    0 -0.16169157347E+02 -0.30169408685E+02 -0.60443873438E+02  0.69470113760E+02  0.10000000000E+01 0.  0.
    9000005    1    3    3    0    0  0.16169157347E+02  0.30169408685E+02 -0.72935216620E+03  0.73015561164E+03  0.10000000000E+01 0.  0.
<mgrwt>
<rscale>  0 0.12499407E+03</rscale>
<asrwt>0</asrwt>
<pdfrwt beam="2">  1        4 0.12226311E+00 0.12499407E+03</pdfrwt>
<pdfrwt beam="1">  1       -4 0.75613030E-03 0.12499407E+03</pdfrwt>
<totfact> 0.38286430E+03</totfact>
</mgrwt>
</event>
<event>
 5    1  0.3206665E-002  0.1249955E+03  0.7818608E-02  0.1235076E+00
         -4   -1    0    0    0  501 -0.00000000000E+00  0.00000000000E+00  0.37421277013E+02  0.37442821385E+02  0.12700000000E+01 0. -1.
          4   -1    0    0  501    0  0.00000000000E+00 -0.00000000000E+00 -0.10432277621E+03  0.10433050626E+03  0.12700000000E+01 0. -1.
         25    2    1    2    0    0  0.00000000000E+00  0.00000000000E+00 -0.66901499197E+02  0.14177332764E+03  0.12499546326E+03 0.  0.
    9000005    1    3    3    0    0 -0.32961877195E+02 -0.43843488110E+01  0.26558996996E+02  0.42568629108E+02  0.10000000000E+01 0.  0.
    9000005    1    3    3    0    0  0.32961877195E+02  0.43843488110E+01 -0.93460496193E+02  0.99204698535E+02  0.10000000000E+01 0.  0.
<mgrwt>
<rscale>  0 0.12499546E+03</rscale>
<asrwt>0</asrwt>
<pdfrwt beam="2">  1        4 0.16051910E-01 0.12499546E+03</pdfrwt>
<pdfrwt beam="1">  1       -4 0.57593715E-02 0.12499546E+03</pdfrwt>
<totfact> 0.10097996E+04</totfact>
</mgrwt>
</event>
<event>
 5    1  0.3206665E-002  0.1249928E+03  0.7818608E-02  0.1235081E+00
          4   -1    0    0  501    0  0.00000000000E+00  0.00000000000E+00  0.33032348642E+03  0.33032592780E+03  0.12700000000E+01 0. -1.
         -4   -1    0    0    0  501 -0.00000000000E+00 -0.00000000000E+00 -0.11787569508E+02  0.11855787401E+02  0.12700000000E+01 0. -1.
         25    2    1    2    0    0  0.00000000000E+00  0.00000000000E+00  0.31853591691E+03  0.34218171520E+03  0.12499278323E+03 0.  0.
    9000005    1    3    3    0    0 -0.51785461265E+02  0.45061237224E+01  0.64325315953E+02  0.82709040751E+02  0.10000000000E+01 0.  0.
    9000005    1    3    3    0    0  0.51785461265E+02 -0.45061237224E+01  0.25421060096E+03  0.25947267445E+03  0.10000000000E+01 0.  0.
<mgrwt>
<rscale>  0 0.12499278E+03</rscale>
<asrwt>0</asrwt>
<pdfrwt beam="1">  1        4 0.50824429E-01 0.12499278E+03</pdfrwt>
<pdfrwt beam="2">  1       -4 0.18189077E-02 0.12499278E+03</pdfrwt>
<totfact> 0.70604595E+03</totfact>
</mgrwt>
</event>
<event>
 5    1  0.3206665E-002  0.1249989E+03  0.7818608E-02  0.1235071E+00
          4   -1    0    0  501    0  0.00000000000E+00  0.00000000000E+00  0.33793534501E+01  0.36101149207E+01  0.12700000000E+01 0. -1.
         -4   -1    0    0    0  501 -0.00000000000E+00 -0.00000000000E+00 -0.11175028819E+04  0.11175036035E+04  0.12700000000E+01 0. -1.
         25    2    1    2    0    0  0.00000000000E+00  0.00000000000E+00 -0.11141235284E+04  0.11211137184E+04  0.12499893241E+03 0.  0.
    9000005    1    3    3    0    0  0.35942541442E+02  0.96031169094E+01 -0.10672422272E+03  0.11302719077E+03  0.10000000000E+01 0.  0.
    9000005    1    3    3    0    0 -0.35942541442E+02 -0.96031169094E+01 -0.10073993057E+04  0.10080865277E+04  0.10000000000E+01 0.  0.
<mgrwt>
<rscale>  0 0.12499893E+03</rscale>
<asrwt>0</asrwt>
<pdfrwt beam="1">  1        4 0.53770781E-03 0.12499893E+03</pdfrwt>
<pdfrwt beam="2">  1       -4 0.17194104E+00 0.12499893E+03</pdfrwt>
<totfact> 0.26874207E+03</totfact>
</mgrwt>
</event>
<event>
 5    1  0.3206665E-002  0.1250027E+03  0.7818608E-02  0.1235065E+00
          4   -1    0    0  501    0  0.00000000000E+00  0.00000000000E+00  0.86543899643E+00  0.15368424306E+01  0.12700000000E+01 0.  1.
         -4   -1    0    0    0  501 -0.00000000000E+00 -0.00000000000E+00 -0.32515873313E+04  0.32515875793E+04  0.12700000000E+01 0.  1.
         25    2    1    2    0    0  0.00000000000E+00  0.00000000000E+00 -0.32507218923E+04  0.32531244217E+04  0.12500272905E+03 0.  0.
    9000005    1    3    3    0    0  0.32328990208E+02  0.11116571764E+02 -0.29867839755E+04  0.29869797887E+04  0.10000000000E+01 0.  0.
    9000005    1    3    3    0    0 -0.32328990208E+02 -0.11116571764E+02 -0.26393791679E+03  0.26614463304E+03  0.10000000000E+01 0.  0.
<mgrwt>
<rscale>  0 0.12500273E+03</rscale>
<asrwt>0</asrwt>
<pdfrwt beam="1">  1        4 0.18481256E-03 0.12500273E+03</pdfrwt>
<pdfrwt beam="2">  1       -4 0.50028882E+00 0.12500273E+03</pdfrwt>
<totfact> 0.10424798E+02</totfact>
</mgrwt>
</event>
<event>
 5    1  0.3206665E-002  0.1249997E+03  0.7818608E-02  0.1235070E+00
          4   -1    0    0  501    0  0.00000000000E+00  0.00000000000E+00  0.26861665557E+03  0.26861965779E+03  0.12700000000E+01 0. -1.
         -4   -1    0    0    0  501 -0.00000000000E+00 -0.00000000000E+00 -0.14511210739E+02  0.14566679001E+02  0.12700000000E+01 0. -1.
         25    2    1    2    0    0  0.00000000000E+00  0.00000000000E+00  0.25410544483E+03  0.28318633679E+03  0.12499969700E+03 0.  0.
    9000005    1    3    3    0    0  0.17551116556E+02 -0.57895828344E+02  0.16253233339E+03  0.17342931710E+03  0.10000000000E+01 0.  0.
    9000005    1    3    3    0    0 -0.17551116556E+02  0.57895828344E+02  0.91573111442E+02  0.10975701969E+03  0.10000000000E+01 0.  0.
<mgrwt>
<rscale>  0 0.12499970E+03</rscale>
<asrwt>0</asrwt>
<pdfrwt beam="1">  1        4 0.41330135E-01 0.12499970E+03</pdfrwt>
<pdfrwt beam="2">  1       -4 0.22369918E-02 0.12499970E+03</pdfrwt>
<totfact> 0.77758032E+03</totfact>
</mgrwt>
</event>
<event>
 5    1  0.3206665E-002  0.1249989E+03  0.7818608E-02  0.1235071E+00
         -4   -1    0    0    0  501 -0.00000000000E+00  0.00000000000E+00  0.24916912485E+02  0.24949257058E+02  0.12700000000E+01 0. -1.
          4   -1    0    0  501    0  0.00000000000E+00 -0.00000000000E+00 -0.15663173094E+03  0.15663687956E+03  0.12700000000E+01 0. -1.
         25    2    1    2    0    0  0.00000000000E+00  0.00000000000E+00 -0.13171481846E+03  0.18158613662E+03  0.12499892644E+03 0.  0.
    9000005    1    3    3    0    0 -0.62391930088E+02 -0.29752823576E+01 -0.68605150159E+02  0.92786162080E+02  0.10000000000E+01 0.  0.
    9000005    1    3    3    0    0  0.62391930088E+02  0.29752823576E+01 -0.63109668300E+02  0.88799974539E+02  0.10000000000E+01 0.  0.
<mgrwt>
<rscale>  0 0.12499893E+03</rscale>
<asrwt>0</asrwt>
<pdfrwt beam="2">  1        4 0.24100073E-01 0.12499893E+03</pdfrwt>
<pdfrwt beam="1">  1       -4 0.38362553E-02 0.12499893E+03</pdfrwt>
<totfact> 0.93334517E+03</totfact>
</mgrwt>
</event>
<event>
 5    1  0.3206665E-002  0.1249948E+03  0.7818608E-02  0.1235077E+00
         -4   -1    0    0    0  501 -0.00000000000E+00  0.00000000000E+00  0.59846306820E+01  0.61179003261E+01  0.12700000000E+01 0.  1.
          4   -1    0    0  501    0  0.00000000000E+00 -0.00000000000E+00 -0.64533898093E+03  0.64534023058E+03  0.12700000000E+01 0.  1.
         25    2    1    2    0    0  0.00000000000E+00  0.00000000000E+00 -0.63935435025E+03  0.65145813091E+03  0.12499484448E+03 0.  0.
    9000005    1    3    3    0    0 -0.48717319202E+02 -0.24606835445E+02 -0.47828062218E+03  0.48138573628E+03  0.10000000000E+01 0.  0.
    9000005    1    3    3    0    0  0.48717319202E+02  0.24606835445E+02 -0.16107372806E+03  0.17007239462E+03  0.10000000000E+01 0.  0.
<mgrwt>
<rscale>  0 0.12499484E+03</rscale>
<asrwt>0</asrwt>
<pdfrwt beam="2">  1        4 0.99293213E-01 0.12499484E+03</pdfrwt>
<pdfrwt beam="1">  1       -4 0.93106056E-03 0.12499484E+03</pdfrwt>
<totfact> 0.45777584E+03</totfact>
</mgrwt>
</event>
<event>
 5    1  0.3206665E-002  0.1250024E+03  0.7818608E-02  0.1235066E+00
          4   -1    0    0  501    0  0.00000000000E+00  0.00000000000E+00  0.34216533002E+02  0.34240093906E+02  0.12700000000E+01 0.  1.
         -4   -1    0    0    0  501 -0.00000000000E+00 -0.00000000000E+00 -0.11410062538E+03  0.11410769305E+03  0.12700000000E+01 0.  1.
         25    2    1    2    0    0  0.00000000000E+00  0.00000000000E+00 -0.79884092379E+02  0.14834778695E+03  0.12500239069E+03 0.  0.
    9000005    1    3    3    0    0 -0.45398244496E+02 -0.29868547631E+02 -0.76564083682E+02  0.93894566674E+02  0.10000000000E+01 0.  0.
    9000005    1    3    3    0    0  0.45398244496E+02  0.29868547631E+02 -0.33200086966E+01  0.54453220278E+02  0.10000000000E+01 0.  0.
<mgrwt>
<rscale>  0 0.12500239E+03</rscale>
<asrwt>0</asrwt>
<pdfrwt beam="1">  1        4 0.52664381E-02 0.12500239E+03</pdfrwt>
<pdfrwt beam="2">  1       -4 0.17556298E-01 0.12500239E+03</pdfrwt>
<totfact> 0.99628705E+03</totfact>
</mgrwt>
</event>
<event>
 5    1  0.3206665E-002  0.1249994E+03  0.7818608E-02  0.1235070E+00
         -4   -1    0    0    0  501 -0.00000000000E+00  0.00000000000E+00  0.24567615593E+01  0.27656061468E+01  0.12700000000E+01 0. -1.
          4   -1    0    0  501    0  0.00000000000E+00 -0.00000000000E+00 -0.14956447944E+04  0.14956453336E+04  0.12700000000E+01 0. -1.
         25    2    1    2    0    0  0.00000000000E+00  0.00000000000E+00 -0.14931880328E+04  0.14984109397E+04  0.12499937172E+03 0.  0.
    9000005    1    3    3    0    0 -0.45928453353E+02 -0.20356256638E+02 -0.30105625742E+03  0.30522069088E+03  0.10000000000E+01 0.  0.
    9000005    1    3    3    0    0  0.45928453353E+02  0.20356256638E+02 -0.11921317754E+04  0.11931902489E+04  0.10000000000E+01 0.  0.
<mgrwt>
<rscale>  0 0.12499937E+03</rscale>
<asrwt>0</asrwt>
<pdfrwt beam="2">  1        4 0.23012231E+00 0.12499937E+03</pdfrwt>
<pdfrwt beam="1">  1       -4 0.40176326E-03 0.12499937E+03</pdfrwt>
<totfact> 0.17962040E+03</totfact>
</mgrwt>
</event>
<event>
 5    1  0.3206665E-002  0.1249818E+03  0.7818608E-02  0.1235098E+00
         -4   -1    0    0    0  501 -0.00000000000E+00  0.00000000000E+00  0.13157802174E+01  0.18287092663E+01  0.12700000000E+01 0. -1.
          4   -1    0    0  501    0  0.00000000000E+00 -0.00000000000E+00 -0.24832696372E+04  0.24832699619E+04  0.12700000000E+01 0. -1.
         25    2    1    2    0    0  0.00000000000E+00  0.00000000000E+00 -0.24819538569E+04  0.24850986712E+04  0.12498182870E+03 0.  0.
    9000005    1    3    3    0    0  0.23357588478E+02  0.41705257977E+02 -0.20410841728E+04  0.20416440693E+04  0.10000000000E+01 0.  0.
    9000005    1    3    3    0    0 -0.23357588478E+02 -0.41705257977E+02 -0.44086968415E+03  0.44345460183E+03  0.10000000000E+01 0.  0.
<mgrwt>
<rscale>  0 0.12498183E+03</rscale>
<asrwt>0</asrwt>
<pdfrwt beam="2">  1        4 0.38207782E+00 0.12498183E+03</pdfrwt>
<pdfrwt beam="1">  1       -4 0.24191078E-03 0.12498183E+03</pdfrwt>
<totfact> 0.47895768E+02</totfact>
</mgrwt>
</event>
<event>
 5    1  0.3206665E-002  0.1250001E+03  0.7818608E-02  0.1235069E+00
          4   -1    0    0  501    0  0.00000000000E+00  0.00000000000E+00  0.20546370478E+02  0.20585583301E+02  0.12700000000E+01 0. -1.
         -4   -1    0    0    0  501 -0.00000000000E+00 -0.00000000000E+00 -0.18989642521E+03  0.18990067196E+03  0.12700000000E+01 0. -1.
         25    2    1    2    0    0  0.00000000000E+00  0.00000000000E+00 -0.16935005474E+03  0.21048625526E+03  0.12500009045E+03 0.  0.
    9000005    1    3    3    0    0  0.41715841079E+02 -0.71141553102E+01 -0.16210522785E+03  0.16754082338E+03  0.10000000000E+01 0.  0.
    9000005    1    3    3    0    0 -0.41715841079E+02  0.71141553102E+01 -0.72448268909E+01  0.42945431881E+02  0.10000000000E+01 0.  0.
<mgrwt>
<rscale>  0 0.12500009E+03</rscale>
<asrwt>0</asrwt>
<pdfrwt beam="1">  1        4 0.31643232E-02 0.12500009E+03</pdfrwt>
<pdfrwt beam="2">  1       -4 0.29218177E-01 0.12500009E+03</pdfrwt>
<totfact> 0.88396352E+03</totfact>
</mgrwt>
</event>
<event>
 5    1  0.3206665E-002  0.1249963E+03  0.7818608E-02  0.1235075E+00
         -4   -1    0    0    0  501 -0.00000000000E+00  0.00000000000E+00  0.45388103100E+02  0.45405867495E+02  0.12700000000E+01 0. -1.
          4   -1    0    0  501    0  0.00000000000E+00 -0.00000000000E+00 -0.86018957831E+02  0.86028332579E+02  0.12700000000E+01 0. -1.
         25    2    1    2    0    0  0.00000000000E+00  0.00000000000E+00 -0.40630854731E+02  0.13143420007E+03  0.12499633032E+03 0.  0.
    9000005    1    3    3    0    0  0.42897453054E+02 -0.23575071867E+02  0.20531767865E+02  0.53089819963E+02  0.10000000000E+01 0.  0.
    9000005    1    3    3    0    0 -0.42897453054E+02  0.23575071867E+02 -0.61162622596E+02  0.78344380111E+02  0.10000000000E+01 0.  0.
<mgrwt>
<rscale>  0 0.12499633E+03</rscale>
<asrwt>0</asrwt>
<pdfrwt beam="2">  1        4 0.13235773E-01 0.12499633E+03</pdfrwt>
<pdfrwt beam="1">  1       -4 0.69848727E-02 0.12499633E+03</pdfrwt>
<totfact> 0.10314644E+04</totfact>
</mgrwt>
</event>
<event>
 5    1  0.3206665E-002  0.1249954E+03  0.7818608E-02  0.1235076E+00
         -4   -1    0    0    0  501 -0.00000000000E+00  0.00000000000E+00  0.45747073469E+01  0.47477202224E+01  0.12700000000E+01 0. -1.
          4   -1    0    0  501    0  0.00000000000E+00 -0.00000000000E+00 -0.83779818149E+03  0.83779914407E+03  0.12700000000E+01 0. -1.
         25    2    1    2    0    0  0.00000000000E+00  0.00000000000E+00 -0.83322347414E+03  0.84254686430E+03  0.12499544259E+03 0.  0.
    9000005    1    3    3    0    0  0.44516869329E+02  0.34068223279E+02 -0.60275171298E+03  0.60535363466E+03  0.10000000000E+01 0.  0.
    9000005    1    3    3    0    0 -0.44516869329E+02 -0.34068223279E+02 -0.23047176116E+03  0.23719322964E+03  0.10000000000E+01 0.  0.
<mgrwt>
<rscale>  0 0.12499544E+03</rscale>
<asrwt>0</asrwt>
<pdfrwt beam="2">  1        4 0.12890529E+00 0.12499544E+03</pdfrwt>
<pdfrwt beam="1">  1       -4 0.71718452E-03 0.12499544E+03</pdfrwt>
<totfact> 0.36437927E+03</totfact>
</mgrwt>
</event>
<event>
 5    1  0.3206665E-002  0.1250038E+03  0.7818608E-02  0.1235063E+00
          4   -1    0    0  501    0  0.00000000000E+00  0.00000000000E+00  0.34379746760E+03  0.34379981330E+03  0.12700000000E+01 0.  1.
         -4   -1    0    0    0  501 -0.00000000000E+00 -0.00000000000E+00 -0.11324880681E+02  0.11395868657E+02  0.12700000000E+01 0.  1.
         25    2    1    2    0    0  0.00000000000E+00  0.00000000000E+00  0.33247258691E+03  0.35519568196E+03  0.12500380567E+03 0.  0.
    9000005    1    3    3    0    0  0.15777534672E+02  0.29285080154E+02  0.15907787716E+02  0.36886369163E+02  0.10000000000E+01 0.  0.
    9000005    1    3    3    0    0 -0.15777534672E+02 -0.29285080154E+02  0.31656479920E+03  0.31830931279E+03  0.10000000000E+01 0.  0.
<mgrwt>
<rscale>  0 0.12500381E+03</rscale>
<asrwt>0</asrwt>
<pdfrwt beam="1">  1        4 0.52897556E-01 0.12500381E+03</pdfrwt>
<pdfrwt beam="2">  1       -4 0.17479305E-02 0.12500381E+03</pdfrwt>
<totfact> 0.69150902E+03</totfact>
</mgrwt>
</event>
<event>
 5    1  0.3206665E-002  0.1249993E+03  0.7818608E-02  0.1235070E+00
         -4   -1    0    0    0  501 -0.00000000000E+00  0.00000000000E+00  0.29160794206E+02  0.29188436387E+02  0.12700000000E+01 0.  1.
          4   -1    0    0  501    0  0.00000000000E+00 -0.00000000000E+00 -0.13385986732E+03  0.13386589177E+03  0.12700000000E+01 0.  1.
         25    2    1    2    0    0  0.00000000000E+00  0.00000000000E+00 -0.10469907312E+03  0.16305432816E+03  0.12499927207E+03 0.  0.
    9000005    1    3    3    0    0 -0.22553477737E+02 -0.44579710092E+02 -0.33817659793E+01  0.50084391291E+02  0.10000000000E+01 0.  0.
    9000005    1    3    3    0    0  0.22553477737E+02  0.44579710092E+02 -0.10131730714E+03  0.11296993686E+03  0.10000000000E+01 0.  0.
<mgrwt>
<rscale>  0 0.12499927E+03</rscale>
<asrwt>0</asrwt>
<pdfrwt beam="2">  1        4 0.20596415E-01 0.12499927E+03</pdfrwt>
<pdfrwt beam="1">  1       -4 0.44888658E-02 0.12499927E+03</pdfrwt>
<totfact> 0.96758728E+03</totfact>
</mgrwt>
</event>
<event>
 5    1  0.3206665E-002  0.1250033E+03  0.7818608E-02  0.1235064E+00
          4   -1    0    0  501    0  0.00000000000E+00  0.00000000000E+00  0.12686388166E+03  0.12687023832E+03  0.12700000000E+01 0.  1.
         -4   -1    0    0    0  501 -0.00000000000E+00 -0.00000000000E+00 -0.30772271102E+02  0.30798466987E+02  0.12700000000E+01 0.  1.
         25    2    1    2    0    0  0.00000000000E+00  0.00000000000E+00  0.96091610560E+02  0.15766870530E+03  0.12500329200E+03 0.  0.
    9000005    1    3    3    0    0 -0.17322772732E+02 -0.20302529335E+02 -0.23229004029E+02  0.35395731108E+02  0.10000000000E+01 0.  0.
    9000005    1    3    3    0    0  0.17322772732E+02  0.20302529335E+02  0.11932061459E+03  0.12227297419E+03  0.10000000000E+01 0.  0.
<mgrwt>
<rscale>  0 0.12500329E+03</rscale>
<asrwt>0</asrwt>
<pdfrwt beam="1">  1        4 0.19520024E-01 0.12500329E+03</pdfrwt>
<pdfrwt beam="2">  1       -4 0.47366996E-02 0.12500329E+03</pdfrwt>
<totfact> 0.97786894E+03</totfact>
</mgrwt>
</event>
<event>
 5    1  0.3206665E-002  0.1249991E+03  0.7818608E-02  0.1235071E+00
          4   -1    0    0  501    0  0.00000000000E+00  0.00000000000E+00  0.60510300103E+02  0.60523626119E+02  0.12700000000E+01 0. -1.
         -4   -1    0    0    0  501 -0.00000000000E+00 -0.00000000000E+00 -0.64527544676E+02  0.64540041230E+02  0.12700000000E+01 0. -1.
         25    2    1    2    0    0  0.00000000000E+00  0.00000000000E+00 -0.40172445736E+01  0.12506366735E+03  0.12499913054E+03 0.  0.
    9000005    1    3    3    0    0 -0.29603680046E+02 -0.22651415293E+02  0.48174338734E+02  0.60919876884E+02  0.10000000000E+01 0.  0.
    9000005    1    3    3    0    0  0.29603680046E+02  0.22651415293E+02 -0.52191583308E+02  0.64143790465E+02  0.10000000000E+01 0.  0.
<mgrwt>
<rscale>  0 0.12499913E+03</rscale>
<asrwt>0</asrwt>
<pdfrwt beam="1">  1        4 0.93112633E-02 0.12499913E+03</pdfrwt>
<pdfrwt beam="2">  1       -4 0.99293009E-02 0.12499913E+03</pdfrwt>
<totfact> 0.10451685E+04</totfact>
</mgrwt>
</event>
<event>
 5    1  0.3206665E-002  0.1250010E+03  0.7818608E-02  0.1235068E+00
         -4   -1    0    0    0  501 -0.00000000000E+00  0.00000000000E+00  0.87458930192E+01  0.88376209867E+01  0.12700000000E+01 0.  1.
          4   -1    0    0  501    0  0.00000000000E+00 -0.00000000000E+00 -0.44422290758E+03  0.44422472299E+03  0.12700000000E+01 0.  1.
         25    2    1    2    0    0  0.00000000000E+00  0.00000000000E+00 -0.43547701456E+03  0.45306234398E+03  0.12500102928E+03 0.  0.
    9000005    1    3    3    0    0  0.44389458417E+02  0.22917609334E+02 -0.35382143537E+03  0.35733212697E+03  0.10000000000E+01 0.  0.
    9000005    1    3    3    0    0 -0.44389458417E+02 -0.22917609334E+02 -0.81655579186E+02  0.95730217008E+02  0.10000000000E+01 0.  0.
<mgrwt>
<rscale>  0 0.12500103E+03</rscale>
<asrwt>0</asrwt>
<pdfrwt beam="2">  1        4 0.68349164E-01 0.12500103E+03</pdfrwt>
<pdfrwt beam="1">  1       -4 0.13527180E-02 0.12500103E+03</pdfrwt>
<totfact> 0.59698074E+03</totfact>
</mgrwt>
</event>
<event>
 5    1  0.3206665E-002  0.1250050E+03  0.7818608E-02  0.1235062E+00
          4   -1    0    0  501    0  0.00000000000E+00  0.00000000000E+00  0.54026420218E+02  0.54041345113E+02  0.12700000000E+01 0. -1.
         -4   -1    0    0    0  501 -0.00000000000E+00 -0.00000000000E+00 -0.72277855298E+02  0.72289012073E+02  0.12700000000E+01 0. -1.
         25    2    1    2    0    0  0.00000000000E+00  0.00000000000E+00 -0.18251435079E+02  0.12633035719E+03  0.12500497696E+03 0.  0.
    9000005    1    3    3    0    0 -0.14818325375E+02  0.58989721178E+02 -0.23637319970E+02  0.65261725896E+02  0.10000000000E+01 0.  0.
    9000005    1    3    3    0    0  0.14818325375E+02 -0.58989721178E+02  0.53858848903E+01  0.61068631290E+02  0.10000000000E+01 0.  0.
<mgrwt>
<rscale>  0 0.12500498E+03</rscale>
<asrwt>0</asrwt>
<pdfrwt beam="1">  1        4 0.83137633E-02 0.12500498E+03</pdfrwt>
<pdfrwt beam="2">  1       -4 0.11121676E-01 0.12500498E+03</pdfrwt>
<totfact> 0.10422559E+04</totfact>
</mgrwt>
</event>
<event>
 5    1  0.3206665E-002  0.1249963E+03  0.7818608E-02  0.1235075E+00
         -4   -1    0    0    0  501 -0.00000000000E+00  0.00000000000E+00  0.54732048610E+02  0.54746781138E+02  0.12700000000E+01 0. -1.
          4   -1    0    0  501    0  0.00000000000E+00 -0.00000000000E+00 -0.71336162370E+02  0.71347466400E+02  0.12700000000E+01 0. -1.
         25    2    1    2    0    0  0.00000000000E+00  0.00000000000E+00 -0.16604113760E+02  0.12609424754E+03  0.12499625062E+03 0.  0.
    9000005    1    3    3    0    0 -0.33260411484E+02 -0.21890722936E+02  0.40282786564E+02  0.56649462628E+02  0.10000000000E+01 0.  0.
    9000005    1    3    3    0    0  0.33260411484E+02  0.21890722936E+02 -0.56886900324E+02  0.69444784910E+02  0.10000000000E+01 0.  0.
<mgrwt>
<rscale>  0 0.12499625E+03</rscale>
<asrwt>0</asrwt>
<pdfrwt beam="2">  1        4 0.10976797E-01 0.12499625E+03</pdfrwt>
<pdfrwt beam="1">  1       -4 0.84223180E-02 0.12499625E+03</pdfrwt>
<totfact> 0.10429775E+04</totfact>
</mgrwt>
</event>
<event>
 5    1  0.3206665E-002  0.1249823E+03  0.7818608E-02  0.1235097E+00
          4   -1    0    0  501    0  0.00000000000E+00  0.00000000000E+00  0.40053939646E+03  0.40054140987E+03  0.12700000000E+01 0.  1.
         -4   -1    0    0    0  501 -0.00000000000E+00 -0.00000000000E+00 -0.97063033074E+01  0.97890359022E+01  0.12700000000E+01 0.  1.
         25    2    1    2    0    0  0.00000000000E+00  0.00000000000E+00  0.39083309316E+03  0.41033044577E+03  0.12498227082E+03 0.  0.
    9000005    1    3    3    0    0  0.19695791721E+02 -0.23572406291E+02  0.37405387884E+03  0.37531438399E+03  0.10000000000E+01 0.  0.
    9000005    1    3    3    0    0 -0.19695791721E+02  0.23572406291E+02  0.16779214312E+02  0.35016061783E+02  0.10000000000E+01 0.  0.
<mgrwt>
<rscale>  0 0.12498227E+03</rscale>
<asrwt>0</asrwt>
<pdfrwt beam="1">  1        4 0.61627966E-01 0.12498227E+03</pdfrwt>
<pdfrwt beam="2">  1       -4 0.14997963E-02 0.12498227E+03</pdfrwt>
<totfact> 0.63585182E+03</totfact>
</mgrwt>
</event>
<event>
 5    1  0.3206665E-002  0.1250013E+03  0.7818608E-02  0.1235067E+00
         -4   -1    0    0    0  501 -0.00000000000E+00  0.00000000000E+00  0.38677824205E+02  0.38698669037E+02  0.12700000000E+01 0.  1.
          4   -1    0    0  501    0  0.00000000000E+00 -0.00000000000E+00 -0.10094454551E+03  0.10095253423E+03  0.12700000000E+01 0.  1.
         25    2    1    2    0    0  0.00000000000E+00  0.00000000000E+00 -0.62266721301E+02  0.13965120327E+03  0.12500125596E+03 0.  0.
    9000005    1    3    3    0    0 -0.11387374665E+02 -0.47920266417E+02 -0.74102737920E+02  0.88984493045E+02  0.10000000000E+01 0.  0.
    9000005    1    3    3    0    0  0.11387374665E+02  0.47920266417E+02  0.11836016620E+02  0.50666710221E+02  0.10000000000E+01 0.  0.
<mgrwt>
<rscale>  0 0.12500126E+03</rscale>
<asrwt>0</asrwt>
<pdfrwt beam="2">  1        4 0.15532148E-01 0.12500126E+03</pdfrwt>
<pdfrwt beam="1">  1       -4 0.59526525E-02 0.12500126E+03</pdfrwt>
<totfact> 0.10140533E+04</totfact>
</mgrwt>
</event>
<event>
 5    1  0.3206665E-002  0.1249994E+03  0.7818608E-02  0.1235070E+00
         -4   -1    0    0    0  501 -0.00000000000E+00  0.00000000000E+00  0.10144843428E+02  0.10224027982E+02  0.12700000000E+01 0.  1.
          4   -1    0    0  501    0  0.00000000000E+00 -0.00000000000E+00 -0.38346700824E+03  0.38346911129E+03  0.12700000000E+01 0.  1.
         25    2    1    2    0    0  0.00000000000E+00  0.00000000000E+00 -0.37332216482E+03  0.39369313927E+03  0.12499939666E+03 0.  0.
    9000005    1    3    3    0    0 -0.38795783861E+02 -0.46157114617E+02 -0.23837722878E+03  0.24588675295E+03  0.10000000000E+01 0.  0.
    9000005    1    3    3    0    0  0.38795783861E+02  0.46157114617E+02 -0.13494493604E+03  0.14780638632E+03  0.10000000000E+01 0.  0.
<mgrwt>
<rscale>  0 0.12499940E+03</rscale>
<asrwt>0</asrwt>
<pdfrwt beam="2">  1        4 0.59001166E-01 0.12499940E+03</pdfrwt>
<pdfrwt beam="1">  1       -4 0.15669983E-02 0.12499940E+03</pdfrwt>
<totfact> 0.65171717E+03</totfact>
</mgrwt>
</event>
<event>
 5    1  0.3206665E-002  0.1249986E+03  0.7818608E-02  0.1235071E+00
          4   -1    0    0  501    0  0.00000000000E+00  0.00000000000E+00  0.26261734340E+03  0.26262041420E+03  0.12700000000E+01 0. -1.
         -4   -1    0    0    0  501 -0.00000000000E+00 -0.00000000000E+00 -0.14843701120E+02  0.14897931499E+02  0.12700000000E+01 0. -1.
         25    2    1    2    0    0  0.00000000000E+00  0.00000000000E+00  0.24777364228E+03  0.27751834570E+03  0.12499861756E+03 0.  0.
    9000005    1    3    3    0    0  0.36887570191E+02  0.17989912533E+02  0.22851400076E+03  0.23217230311E+03  0.10000000000E+01 0.  0.
    9000005    1    3    3    0    0 -0.36887570191E+02 -0.17989912533E+02  0.19259641528E+02  0.45346042598E+02  0.10000000000E+01 0.  0.
<mgrwt>
<rscale>  0 0.12499862E+03</rscale>
<asrwt>0</asrwt>
<pdfrwt beam="1">  1        4 0.40407075E-01 0.12499862E+03</pdfrwt>
<pdfrwt beam="2">  1       -4 0.22880542E-02 0.12499862E+03</pdfrwt>
<totfact> 0.78510722E+03</totfact>
</mgrwt>
</event>
<event>
 5    1  0.3206665E-002  0.1249980E+03  0.7818608E-02  0.1235072E+00
         -4   -1    0    0    0  501 -0.00000000000E+00  0.00000000000E+00  0.55346439464E+03  0.55346585173E+03  0.12700000000E+01 0. -1.
          4   -1    0    0  501    0  0.00000000000E+00 -0.00000000000E+00 -0.69989811891E+01  0.71132719395E+01  0.12700000000E+01 0. -1.
         25    2    1    2    0    0  0.00000000000E+00  0.00000000000E+00  0.54646541345E+03  0.56057912367E+03  0.12499802318E+03 0.  0.
    9000005    1    3    3    0    0  0.57105630227E+02 -0.21953531110E+01  0.15984382850E+03  0.16975547735E+03  0.10000000000E+01 0.  0.
    9000005    1    3    3    0    0 -0.57105630227E+02  0.21953531110E+01  0.38662158495E+03  0.39082364632E+03  0.10000000000E+01 0.  0.
<mgrwt>
<rscale>  0 0.12499802E+03</rscale>
<asrwt>0</asrwt>
<pdfrwt beam="2">  1        4 0.10856699E-02 0.12499802E+03</pdfrwt>
<pdfrwt beam="1">  1       -4 0.85157284E-01 0.12499802E+03</pdfrwt>
<totfact> 0.51456653E+03</totfact>
</mgrwt>
</event>
<event>
 5    1  0.3206665E-002  0.1249986E+03  0.7818608E-02  0.1235071E+00
         -4   -1    0    0    0  501 -0.00000000000E+00  0.00000000000E+00  0.55831698228E+02  0.55846140663E+02  0.12700000000E+01 0.  1.
          4   -1    0    0  501    0  0.00000000000E+00 -0.00000000000E+00 -0.69933926848E+02  0.69945457497E+02  0.12700000000E+01 0.  1.
         25    2    1    2    0    0  0.00000000000E+00  0.00000000000E+00 -0.14102228621E+02  0.12579159816E+03  0.12499861325E+03 0.  0.
    9000005    1    3    3    0    0 -0.52300350437E+02 -0.28629894720E+02 -0.25882544486E+02  0.65006950679E+02  0.10000000000E+01 0.  0.
    9000005    1    3    3    0    0  0.52300350437E+02  0.28629894720E+02  0.11780315865E+02  0.60784647481E+02  0.10000000000E+01 0.  0.
<mgrwt>
<rscale>  0 0.12499861E+03</rscale>
<asrwt>0</asrwt>
<pdfrwt beam="2">  1        4 0.10761064E-01 0.12499861E+03</pdfrwt>
<pdfrwt beam="1">  1       -4 0.85914899E-02 0.12499861E+03</pdfrwt>
<totfact> 0.10435856E+04</totfact>
</mgrwt>
</event>
<event>
 5    1  0.3206665E-002  0.1249980E+03  0.7818608E-02  0.1235072E+00
          4   -1    0    0  501    0  0.00000000000E+00  0.00000000000E+00  0.81193327421E+01  0.82180572021E+01  0.12700000000E+01 0.  1.
         -4   -1    0    0    0  501 -0.00000000000E+00 -0.00000000000E+00 -0.47808276612E+03  0.47808445296E+03  0.12700000000E+01 0.  1.
         25    2    1    2    0    0  0.00000000000E+00  0.00000000000E+00 -0.46996343338E+03  0.48630251016E+03  0.12499801069E+03 0.  0.
    9000005    1    3    3    0    0  0.12926139337E+02 -0.64666383559E+01 -0.47150968589E+03  0.47173221893E+03  0.10000000000E+01 0.  0.
    9000005    1    3    3    0    0 -0.12926139337E+02  0.64666383559E+01  0.15462525090E+01  0.14570291233E+02  0.10000000000E+01 0.  0.
<mgrwt>
<rscale>  0 0.12499801E+03</rscale>
<asrwt>0</asrwt>
<pdfrwt beam="1">  1        4 0.12568524E-02 0.12499801E+03</pdfrwt>
<pdfrwt beam="2">  1       -4 0.73558897E-01 0.12499801E+03</pdfrwt>
<totfact> 0.56945509E+03</totfact>
</mgrwt>
</event>
<event>
 5    1  0.3206665E-002  0.1249956E+03  0.7818608E-02  0.1235076E+00
         -4   -1    0    0    0  501 -0.00000000000E+00  0.00000000000E+00  0.26663697354E+03  0.26663999805E+03  0.12700000000E+01 0. -1.
          4   -1    0    0  501    0  0.00000000000E+00 -0.00000000000E+00 -0.14618398363E+02  0.14673461442E+02  0.12700000000E+01 0. -1.
         25    2    1    2    0    0  0.00000000000E+00  0.00000000000E+00  0.25201857518E+03  0.28131345949E+03  0.12499560095E+03 0.  0.
    9000005    1    3    3    0    0  0.21073346367E+02  0.12856788482E+02  0.25520928681E+03  0.25640234595E+03  0.10000000000E+01 0.  0.
    9000005    1    3    3    0    0 -0.21073346367E+02 -0.12856788482E+02 -0.31907116260E+01  0.24911113541E+02  0.10000000000E+01 0.  0.
<mgrwt>
<rscale>  0 0.12499560E+03</rscale>
<asrwt>0</asrwt>
<pdfrwt beam="2">  1        4 0.22534527E-02 0.12499560E+03</pdfrwt>
<pdfrwt beam="1">  1       -4 0.41025540E-01 0.12499560E+03</pdfrwt>
<totfact> 0.78011899E+03</totfact>
</mgrwt>
</event>
<event>
 5    1  0.3206665E-002  0.1249982E+03  0.7818608E-02  0.1235072E+00
         -4   -1    0    0    0  501 -0.00000000000E+00  0.00000000000E+00  0.10785098299E+03  0.10785846018E+03  0.12700000000E+01 0.  1.
          4   -1    0    0  501    0  0.00000000000E+00 -0.00000000000E+00 -0.36198018864E+02  0.36220290856E+02  0.12700000000E+01 0.  1.
         25    2    1    2    0    0  0.00000000000E+00  0.00000000000E+00  0.71652964124E+02  0.14407875103E+03  0.12499815691E+03 0.  0.
    9000005    1    3    3    0    0  0.33535166751E+02 -0.51358916257E+02  0.22052995690E+02  0.65189572073E+02  0.10000000000E+01 0.  0.
    9000005    1    3    3    0    0 -0.33535166751E+02  0.51358916257E+02  0.49599968434E+02  0.78889178959E+02  0.10000000000E+01 0.  0.
<mgrwt>
<rscale>  0 0.12499816E+03</rscale>
<asrwt>0</asrwt>
<pdfrwt beam="2">  1        4 0.55712144E-02 0.12499816E+03</pdfrwt>
<pdfrwt beam="1">  1       -4 0.16594747E-01 0.12499816E+03</pdfrwt>
<totfact> 0.10050157E+04</totfact>
</mgrwt>
</event>
<event>
 5    1  0.3206665E-002  0.1250047E+03  0.7818608E-02  0.1235062E+00
         -4   -1    0    0    0  501 -0.00000000000E+00  0.00000000000E+00  0.25464297573E+03  0.25464614269E+03  0.12700000000E+01 0. -1.
          4   -1    0    0  501    0  0.00000000000E+00 -0.00000000000E+00 -0.15311706738E+02  0.15364285314E+02  0.12700000000E+01 0. -1.
         25    2    1    2    0    0  0.00000000000E+00  0.00000000000E+00  0.23933126899E+03  0.27001042800E+03  0.12500469957E+03 0.  0.
    9000005    1    3    3    0    0 -0.60113377867E+02  0.12575468550E+01  0.82860305530E+02  0.10238178478E+03  0.10000000000E+01 0.  0.
    9000005    1    3    3    0    0  0.60113377867E+02 -0.12575468550E+01  0.15647096346E+03  0.16762864322E+03  0.10000000000E+01 0.  0.
<mgrwt>
<rscale>  0 0.12500470E+03</rscale>
<asrwt>0</asrwt>
<pdfrwt beam="2">  1        4 0.23599353E-02 0.12500470E+03</pdfrwt>
<pdfrwt beam="1">  1       -4 0.39180130E-01 0.12500470E+03</pdfrwt>
<totfact> 0.79513132E+03</totfact>
</mgrwt>
</event>
<event>
 5    1  0.3206665E-002  0.1249755E+03  0.7818608E-02  0.1235108E+00
         -4   -1    0    0    0  501 -0.00000000000E+00  0.00000000000E+00  0.90321545664E+03  0.90321634950E+03  0.12700000000E+01 0.  1.
          4   -1    0    0  501    0  0.00000000000E+00 -0.00000000000E+00 -0.42289435020E+01  0.44155252397E+01  0.12700000000E+01 0.  1.
         25    2    1    2    0    0  0.00000000000E+00  0.00000000000E+00  0.89898651314E+03  0.90763187474E+03  0.12497547459E+03 0.  0.
    9000005    1    3    3    0    0 -0.10231145659E+02  0.29286116227E+02  0.55617402327E+02  0.63691823547E+02  0.10000000000E+01 0.  0.
    9000005    1    3    3    0    0  0.10231145659E+02 -0.29286116227E+02  0.84336911081E+03  0.84394005120E+03  0.10000000000E+01 0.  0.
<mgrwt>
<rscale>  0 0.12497547E+03</rscale>
<asrwt>0</asrwt>
<pdfrwt beam="2">  1        4 0.66502836E-03 0.12497547E+03</pdfrwt>
<pdfrwt beam="1">  1       -4 0.13897053E+00 0.12497547E+03</pdfrwt>
<totfact> 0.33887529E+03</totfact>
</mgrwt>
</event>
<event>
 5    1  0.3206665E-002  0.1250019E+03  0.7818608E-02  0.1235066E+00
         -4   -1    0    0    0  501 -0.00000000000E+00  0.00000000000E+00  0.72397673255E+02  0.72408811568E+02  0.12700000000E+01 0.  1.
          4   -1    0    0  501    0  0.00000000000E+00 -0.00000000000E+00 -0.53934333556E+02  0.53949283926E+02  0.12700000000E+01 0.  1.
         25    2    1    2    0    0  0.00000000000E+00  0.00000000000E+00  0.18463339699E+02  0.12635809549E+03  0.12500189352E+03 0.  0.
    9000005    1    3    3    0    0 -0.48255910883E+02  0.28398691412E+02  0.37286152160E+02  0.67278345342E+02  0.10000000000E+01 0.  0.
    9000005    1    3    3    0    0  0.48255910883E+02 -0.28398691412E+02 -0.18822812462E+02  0.59079750152E+02  0.10000000000E+01 0.  0.
<mgrwt>
<rscale>  0 0.12500189E+03</rscale>
<asrwt>0</asrwt>
<pdfrwt beam="2">  1        4 0.82995966E-02 0.12500189E+03</pdfrwt>
<pdfrwt beam="1">  1       -4 0.11140110E-01 0.12500189E+03</pdfrwt>
<totfact> 0.10422679E+04</totfact>
</mgrwt>
</event>
<event>
 5    1  0.3206665E-002  0.1249998E+03  0.7818608E-02  0.1235070E+00
         -4   -1    0    0    0  501 -0.00000000000E+00  0.00000000000E+00  0.25744697189E+03  0.25745010436E+03  0.12700000000E+01 0.  1.
          4   -1    0    0  501    0  0.00000000000E+00 -0.00000000000E+00 -0.15143164368E+02  0.15196326104E+02  0.12700000000E+01 0.  1.
         25    2    1    2    0    0  0.00000000000E+00  0.00000000000E+00  0.24230380753E+03  0.27264643047E+03  0.12499976362E+03 0.  0.
    9000005    1    3    3    0    0 -0.20093250777E+01 -0.20957499006E+02 -0.71854171993E+01  0.22268461378E+02  0.10000000000E+01 0.  0.
    9000005    1    3    3    0    0  0.20093250777E+01  0.20957499006E+02  0.24948922472E+03  0.25037796909E+03  0.10000000000E+01 0.  0.
<mgrwt>
<rscale>  0 0.12499976E+03</rscale>
<asrwt>0</asrwt>
<pdfrwt beam="2">  1        4 0.23340481E-02 0.12499976E+03</pdfrwt>
<pdfrwt beam="1">  1       -4 0.39611554E-01 0.12499976E+03</pdfrwt>
<totfact> 0.79163765E+03</totfact>
</mgrwt>
</event>
<event>
 5    1  0.3206665E-002  0.1249977E+03  0.7818608E-02  0.1235073E+00
          4   -1    0    0  501    0  0.00000000000E+00  0.00000000000E+00  0.18140431738E+03  0.18140876292E+03  0.12700000000E+01 0.  1.
         -4   -1    0    0    0  501 -0.00000000000E+00 -0.00000000000E+00 -0.21509162413E+02  0.21546623116E+02  0.12700000000E+01 0.  1.
         25    2    1    2    0    0  0.00000000000E+00  0.00000000000E+00  0.15989515497E+03  0.20295538604E+03  0.12499771254E+03 0.  0.
    9000005    1    3    3    0    0 -0.30134942871E+01  0.12346002173E+02  0.17929196985E+03  0.17974458371E+03  0.10000000000E+01 0.  0.
    9000005    1    3    3    0    0  0.30134942871E+01 -0.12346002173E+02 -0.19396814881E+02  0.23210802335E+02  0.10000000000E+01 0.  0.
<mgrwt>
<rscale>  0 0.12499771E+03</rscale>
<asrwt>0</asrwt>
<pdfrwt beam="1">  1        4 0.27911580E-01 0.12499771E+03</pdfrwt>
<pdfrwt beam="2">  1       -4 0.33123255E-02 0.12499771E+03</pdfrwt>
<totfact> 0.89644027E+03</totfact>
</mgrwt>
</event>
<event>
 4    1  0.3206665E-002  0.1249123E+03  0.7818608E-02  0.1235206E+00
          4   -1    0    0  501    0  0.00000000000E+00  0.00000000000E+00  0.65589524380E+01  0.66807751859E+01  0.12700000000E+01 0.  1.
         -4   -1    0    0    0  501 -0.00000000000E+00 -0.00000000000E+00 -0.58912950709E+03  0.58913087597E+03  0.12700000000E+01 0.  1.
    9000005    1    1    2    0    0  0.59905134565E+02 -0.16541746875E+02 -0.26207079176E+03  0.26934059187E+03  0.10000000000E+01 0.  0.
    9000005    1    1    2    0    0 -0.59905134565E+02  0.16541746875E+02 -0.32049976289E+03  0.32647105928E+03  0.10000000000E+01 0.  0.
<mgrwt>
<rscale>  0 0.12491226E+03</rscale>
<asrwt>0</asrwt>
<pdfrwt beam="1">  1        4 0.10185463E-02 0.12491226E+03</pdfrwt>
<pdfrwt beam="2">  1       -4 0.90644744E-01 0.12491226E+03</pdfrwt>
<totfact> 0.49227737E+03</totfact>
</mgrwt>
</event>
<event>
 5    1  0.3206665E-002  0.1250017E+03  0.7818608E-02  0.1235067E+00
         -4   -1    0    0    0  501 -0.00000000000E+00  0.00000000000E+00  0.18522675122E+02  0.18566162600E+02  0.12700000000E+01 0. -1.
          4   -1    0    0  501    0  0.00000000000E+00 -0.00000000000E+00 -0.21060305265E+03  0.21060688186E+03  0.12700000000E+01 0. -1.
         25    2    1    2    0    0  0.00000000000E+00  0.00000000000E+00 -0.19208037753E+03  0.22917304446E+03  0.12500165149E+03 0.  0.
    9000005    1    3    3    0    0 -0.34529130012E+02  0.51845271679E+02 -0.86844063893E+02  0.10687883068E+03  0.10000000000E+01 0.  0.
    9000005    1    3    3    0    0  0.34529130012E+02 -0.51845271679E+02 -0.10523631364E+03  0.12229421377E+03  0.10000000000E+01 0.  0.
<mgrwt>
<rscale>  0 0.12500165E+03</rscale>
<asrwt>0</asrwt>
<pdfrwt beam="2">  1        4 0.32404108E-01 0.12500165E+03</pdfrwt>
<pdfrwt beam="1">  1       -4 0.28532822E-02 0.12500165E+03</pdfrwt>
<totfact> 0.85433591E+03</totfact>
</mgrwt>
</event>
<event>
 5    1  0.3206665E-002  0.1250040E+03  0.7818608E-02  0.1235063E+00
         -4   -1    0    0    0  501 -0.00000000000E+00  0.00000000000E+00  0.20908257864E+03  0.20908643569E+03  0.12700000000E+01 0. -1.
          4   -1    0    0  501    0  0.00000000000E+00 -0.00000000000E+00 -0.18658396270E+02  0.18701568152E+02  0.12700000000E+01 0. -1.
         25    2    1    2    0    0  0.00000000000E+00  0.00000000000E+00  0.19042418237E+03  0.22778800384E+03  0.12500402179E+03 0.  0.
    9000005    1    3    3    0    0 -0.35371353003E+02 -0.16477251874E+02  0.62598408227E+01  0.39532493593E+02  0.10000000000E+01 0.  0.
    9000005    1    3    3    0    0  0.35371353003E+02  0.16477251874E+02  0.18416434155E+03  0.18825551025E+03  0.10000000000E+01 0.  0.
<mgrwt>
<rscale>  0 0.12500402E+03</rscale>
<asrwt>0</asrwt>
<pdfrwt beam="2">  1        4 0.28741401E-02 0.12500402E+03</pdfrwt>
<pdfrwt beam="1">  1       -4 0.32170168E-01 0.12500402E+03</pdfrwt>
<totfact> 0.85642725E+03</totfact>
</mgrwt>
</event>
<event>
 5    1  0.3206665E-002  0.1249979E+03  0.7818608E-02  0.1235073E+00
          4   -1    0    0  501    0  0.00000000000E+00  0.00000000000E+00  0.48608286312E+02  0.48624874274E+02  0.12700000000E+01 0.  1.
         -4   -1    0    0    0  501 -0.00000000000E+00 -0.00000000000E+00 -0.80323820870E+02  0.80333860228E+02  0.12700000000E+01 0.  1.
         25    2    1    2    0    0  0.00000000000E+00  0.00000000000E+00 -0.31715534558E+02  0.12895873450E+03  0.12499792027E+03 0.  0.
    9000005    1    3    3    0    0  0.37057941350E+02  0.49581574729E+02 -0.70131070954E+01  0.62304151072E+02  0.10000000000E+01 0.  0.
    9000005    1    3    3    0    0 -0.37057941350E+02 -0.49581574729E+02 -0.24702427463E+02  0.66654583430E+02  0.10000000000E+01 0.  0.
<mgrwt>
<rscale>  0 0.12499792E+03</rscale>
<asrwt>0</asrwt>
<pdfrwt beam="1">  1        4 0.74802462E-02 0.12499792E+03</pdfrwt>
<pdfrwt beam="2">  1       -4 0.12359559E-01 0.12499792E+03</pdfrwt>
<totfact> 0.10367320E+04</totfact>
</mgrwt>
</event>
<event>
 5    1  0.3206665E-002  0.1250019E+03  0.7818608E-02  0.1235066E+00
          4   -1    0    0  501    0  0.00000000000E+00  0.00000000000E+00  0.55639458123E+02  0.55653950446E+02  0.12700000000E+01 0. -1.
         -4   -1    0    0    0  501 -0.00000000000E+00 -0.00000000000E+00 -0.70179192037E+02  0.70190682395E+02  0.12700000000E+01 0. -1.
         25    2    1    2    0    0  0.00000000000E+00  0.00000000000E+00 -0.14539733915E+02  0.12584463284E+03  0.12500187100E+03 0.  0.
    9000005    1    3    3    0    0 -0.28994175070E+02  0.54902812577E+02 -0.12370612097E+00  0.62096669154E+02  0.10000000000E+01 0.  0.
    9000005    1    3    3    0    0  0.28994175070E+02 -0.54902812577E+02 -0.14416027794E+02  0.63747963686E+02  0.10000000000E+01 0.  0.
<mgrwt>
<rscale>  0 0.12500187E+03</rscale>
<asrwt>0</asrwt>
<pdfrwt beam="1">  1        4 0.85619152E-02 0.12500187E+03</pdfrwt>
<pdfrwt beam="2">  1       -4 0.10798798E-01 0.12500187E+03</pdfrwt>
<totfact> 0.10433924E+04</totfact>
</mgrwt>
</event>
<event>
 5    1  0.3206665E-002  0.1249979E+03  0.7818608E-02  0.1235073E+00
          4   -1    0    0  501    0  0.00000000000E+00  0.00000000000E+00  0.67470560553E+01  0.68655418878E+01  0.12700000000E+01 0.  1.
         -4   -1    0    0    0  501 -0.00000000000E+00 -0.00000000000E+00 -0.57377846524E+03  0.57377987075E+03  0.12700000000E+01 0.  1.
         25    2    1    2    0    0  0.00000000000E+00  0.00000000000E+00 -0.56703140919E+03  0.58064541263E+03  0.12499790482E+03 0.  0.
    9000005    1    3    3    0    0  0.32992457963E+02 -0.29027674837E+02 -0.48990303565E+03  0.49187101209E+03  0.10000000000E+01 0.  0.
    9000005    1    3    3    0    0 -0.32992457963E+02  0.29027674837E+02 -0.77128373533E+02  0.88774400548E+02  0.10000000000E+01 0.  0.
<mgrwt>
<rscale>  0 0.12499790E+03</rscale>
<asrwt>0</asrwt>
<pdfrwt beam="1">  1        4 0.10472315E-02 0.12499790E+03</pdfrwt>
<pdfrwt beam="2">  1       -4 0.88282794E-01 0.12499790E+03</pdfrwt>
<totfact> 0.50114890E+03</totfact>
</mgrwt>
</event>
<event>
 5    1  0.3206665E-002  0.1249996E+03  0.7818608E-02  0.1235070E+00
          4   -1    0    0  501    0  0.00000000000E+00  0.00000000000E+00  0.64569017786E+01  0.65806139971E+01  0.12700000000E+01 0. -1.
         -4   -1    0    0    0  501 -0.00000000000E+00 -0.00000000000E+00 -0.59910399906E+03  0.59910534515E+03  0.12700000000E+01 0. -1.
         25    2    1    2    0    0  0.00000000000E+00  0.00000000000E+00 -0.59264709728E+03  0.60568595915E+03  0.12499959678E+03 0.  0.
    9000005    1    3    3    0    0 -0.14737848447E+02 -0.52844632560E+02 -0.15132511642E+03  0.16096599090E+03  0.10000000000E+01 0.  0.
    9000005    1    3    3    0    0  0.14737848447E+02  0.52844632560E+02 -0.44132198086E+03  0.44471996825E+03  0.10000000000E+01 0.  0.
<mgrwt>
<rscale>  0 0.12499960E+03</rscale>
<asrwt>0</asrwt>
<pdfrwt beam="1">  1        4 0.10029898E-02 0.12499960E+03</pdfrwt>
<pdfrwt beam="2">  1       -4 0.92179423E-01 0.12499960E+03</pdfrwt>
<totfact> 0.48511098E+03</totfact>
</mgrwt>
</event>
<event>
 5    1  0.3206665E-002  0.1250007E+03  0.7818608E-02  0.1235068E+00
         -4   -1    0    0    0  501 -0.00000000000E+00  0.00000000000E+00  0.23442065411E+01  0.26661215853E+01  0.12700000000E+01 0. -1.
          4   -1    0    0  501    0  0.00000000000E+00 -0.00000000000E+00 -0.15589739916E+04  0.15589745089E+04  0.12700000000E+01 0. -1.
         25    2    1    2    0    0  0.00000000000E+00  0.00000000000E+00 -0.15566297851E+04  0.15616406305E+04  0.12500068414E+03 0.  0.
    9000005    1    3    3    0    0 -0.37421150265E+01 -0.30800161120E+02 -0.14560144989E+04  0.14563453829E+04  0.10000000000E+01 0.  0.
    9000005    1    3    3    0    0  0.37421150265E+01  0.30800161120E+02 -0.10061528618E+03  0.10529524758E+03  0.10000000000E+01 0.  0.
<mgrwt>
<rscale>  0 0.12500068E+03</rscale>
<asrwt>0</asrwt>
<pdfrwt beam="2">  1        4 0.23986618E+00 0.12500068E+03</pdfrwt>
<pdfrwt beam="1">  1       -4 0.38545089E-03 0.12500068E+03</pdfrwt>
<totfact> 0.16749914E+03</totfact>
</mgrwt>
</event>
<event>
 5    1  0.3206665E-002  0.1249624E+03  0.7818608E-02  0.1235128E+00
          4   -1    0    0  501    0  0.00000000000E+00  0.00000000000E+00  0.23046272928E+02  0.23081239046E+02  0.12700000000E+01 0. -1.
         -4   -1    0    0    0  501 -0.00000000000E+00 -0.00000000000E+00 -0.16922822016E+03  0.16923298555E+03  0.12700000000E+01 0. -1.
         25    2    1    2    0    0  0.00000000000E+00  0.00000000000E+00 -0.14618194723E+03  0.19231422459E+03  0.12496239148E+03 0.  0.
    9000005    1    3    3    0    0 -0.45897641244E+02  0.41891939851E+02 -0.82989804291E+02  0.10368141450E+03  0.10000000000E+01 0.  0.
    9000005    1    3    3    0    0  0.45897641244E+02 -0.41891939851E+02 -0.63192142936E+02  0.88632810093E+02  0.10000000000E+01 0.  0.
<mgrwt>
<rscale>  0 0.12496239E+03</rscale>
<asrwt>0</asrwt>
<pdfrwt beam="1">  1        4 0.35486368E-02 0.12496239E+03</pdfrwt>
<pdfrwt beam="2">  1       -4 0.26038166E-01 0.12496239E+03</pdfrwt>
<totfact> 0.91523262E+03</totfact>
</mgrwt>
</event>
<event>
 5    1  0.3206665E-002  0.1250004E+03  0.7818608E-02  0.1235069E+00
         -4   -1    0    0    0  501 -0.00000000000E+00  0.00000000000E+00  0.23658919017E+04  0.23658922426E+04  0.12700000000E+01 0. -1.
          4   -1    0    0  501    0  0.00000000000E+00 -0.00000000000E+00 -0.14064686333E+01  0.18950076560E+01  0.12700000000E+01 0. -1.
         25    2    1    2    0    0  0.00000000000E+00  0.00000000000E+00  0.23644854331E+04  0.23677872502E+04  0.12500039650E+03 0.  0.
    9000005    1    3    3    0    0 -0.36007183393E+02 -0.48618416770E+02  0.14787399196E+04  0.14799773706E+04  0.10000000000E+01 0.  0.
    9000005    1    3    3    0    0  0.36007183393E+02  0.48618416770E+02  0.88574551349E+03  0.88780987963E+03  0.10000000000E+01 0.  0.
<mgrwt>
<rscale>  0 0.12500040E+03</rscale>
<asrwt>0</asrwt>
<pdfrwt beam="2">  1        4 0.25398629E-03 0.12500040E+03</pdfrwt>
<pdfrwt beam="1">  1       -4 0.36402047E+00 0.12500040E+03</pdfrwt>
<totfact> 0.57928279E+02</totfact>
</mgrwt>
</event>
<event>
 5    1  0.3206665E-002  0.1250003E+03  0.7818608E-02  0.1235069E+00
         -4   -1    0    0    0  501 -0.00000000000E+00  0.00000000000E+00  0.37343119849E+03  0.37343335805E+03  0.12700000000E+01 0.  1.
          4   -1    0    0  501    0  0.00000000000E+00 -0.00000000000E+00 -0.10419735985E+02  0.10496847050E+02  0.12700000000E+01 0.  1.
         25    2    1    2    0    0  0.00000000000E+00  0.00000000000E+00  0.36301146250E+03  0.38393020510E+03  0.12500032191E+03 0.  0.
    9000005    1    3    3    0    0  0.35753927257E+02  0.42466554989E+02  0.93364759818E+02  0.10862656205E+03  0.10000000000E+01 0.  0.
    9000005    1    3    3    0    0 -0.35753927257E+02 -0.42466554989E+02  0.26964670269E+03  0.27530364305E+03  0.10000000000E+01 0.  0.
<mgrwt>
<rscale>  0 0.12500032E+03</rscale>
<asrwt>0</asrwt>
<pdfrwt beam="2">  1        4 0.16091339E-02 0.12500032E+03</pdfrwt>
<pdfrwt beam="1">  1       -4 0.57457055E-01 0.12500032E+03</pdfrwt>
<totfact> 0.66145839E+03</totfact>
</mgrwt>
</event>
<event>
 5    1  0.3206665E-002  0.1249993E+03  0.7818608E-02  0.1235070E+00
          4   -1    0    0  501    0  0.00000000000E+00  0.00000000000E+00  0.10656583031E+03  0.10657339766E+03  0.12700000000E+01 0.  1.
         -4   -1    0    0    0  501 -0.00000000000E+00 -0.00000000000E+00 -0.36635471228E+02  0.36657477438E+02  0.12700000000E+01 0.  1.
         25    2    1    2    0    0  0.00000000000E+00  0.00000000000E+00  0.69930359078E+02  0.14323087510E+03  0.12499931384E+03 0.  0.
    9000005    1    3    3    0    0 -0.18964214514E+02  0.42904937650E+02  0.82275629014E+02  0.94714065674E+02  0.10000000000E+01 0.  0.
    9000005    1    3    3    0    0  0.18964214514E+02 -0.42904937650E+02 -0.12345269936E+02  0.48516809424E+02  0.10000000000E+01 0.  0.
<mgrwt>
<rscale>  0 0.12499931E+03</rscale>
<asrwt>0</asrwt>
<pdfrwt beam="1">  1        4 0.16397018E-01 0.12499931E+03</pdfrwt>
<pdfrwt beam="2">  1       -4 0.56385013E-02 0.12499931E+03</pdfrwt>
<totfact> 0.10067213E+04</totfact>
</mgrwt>
</event>
<event>
 5    1  0.3206665E-002  0.1250039E+03  0.7818608E-02  0.1235063E+00
          4   -1    0    0  501    0  0.00000000000E+00  0.00000000000E+00  0.16529094816E+02  0.16577812746E+02  0.12700000000E+01 0.  1.
         -4   -1    0    0    0  501 -0.00000000000E+00 -0.00000000000E+00 -0.23594224970E+03  0.23594566768E+03  0.12700000000E+01 0.  1.
         25    2    1    2    0    0  0.00000000000E+00  0.00000000000E+00 -0.21941315489E+03  0.25252348042E+03  0.12500390245E+03 0.  0.
    9000005    1    3    3    0    0 -0.42038894766E+01  0.18940467186E+02  0.10301075490E+02  0.21989227822E+02  0.10000000000E+01 0.  0.
    9000005    1    3    3    0    0  0.42038894766E+01 -0.18940467186E+02 -0.22971423038E+03  0.23053425260E+03  0.10000000000E+01 0.  0.
<mgrwt>
<rscale>  0 0.12500390E+03</rscale>
<asrwt>0</asrwt>
<pdfrwt beam="1">  1        4 0.25469483E-02 0.12500390E+03</pdfrwt>
<pdfrwt beam="2">  1       -4 0.36302816E-01 0.12500390E+03</pdfrwt>
<totfact> 0.81959746E+03</totfact>
</mgrwt>
</event>
<event>
 4    1  0.3206665E-002  0.1250787E+03  0.7818608E-02  0.1234946E+00
         -4   -1    0    0    0  501 -0.00000000000E+00  0.00000000000E+00  0.13254412363E+02  0.13315117239E+02  0.12700000000E+01 0.  1.
          4   -1    0    0  501    0  0.00000000000E+00 -0.00000000000E+00 -0.29434808800E+03  0.29435082777E+03  0.12700000000E+01 0.  1.
    9000005    1    1    2    0    0 -0.55238301482E+02  0.25475485285E+02 -0.10490978291E+03  0.12127379293E+03  0.10000000000E+01 0.  0.
    9000005    1    1    2    0    0  0.55238301482E+02 -0.25475485285E+02 -0.17618389273E+03  0.18639215208E+03  0.10000000000E+01 0.  0.
<mgrwt>
<rscale>  0 0.12507869E+03</rscale>
<asrwt>0</asrwt>
<pdfrwt beam="2">  1        4 0.45289196E-01 0.12507869E+03</pdfrwt>
<pdfrwt beam="1">  1       -4 0.20440210E-02 0.12507869E+03</pdfrwt>
<totfact> 0.74517004E+03</totfact>
</mgrwt>
</event>
<event>
 5    1  0.3206665E-002  0.1250042E+03  0.7818608E-02  0.1235063E+00
          4   -1    0    0  501    0  0.00000000000E+00  0.00000000000E+00  0.54885553201E+02  0.54900244537E+02  0.12700000000E+01 0.  1.
         -4   -1    0    0    0  501 -0.00000000000E+00 -0.00000000000E+00 -0.71145706707E+02  0.71157040992E+02  0.12700000000E+01 0.  1.
         25    2    1    2    0    0  0.00000000000E+00  0.00000000000E+00 -0.16260153506E+02  0.12605728553E+03  0.12500418650E+03 0.  0.
    9000005    1    3    3    0    0 -0.37856285602E+02  0.36108165430E+02 -0.42603060745E+02  0.67475319600E+02  0.10000000000E+01 0.  0.
    9000005    1    3    3    0    0  0.37856285602E+02 -0.36108165430E+02  0.26342907240E+02  0.58581965929E+02  0.10000000000E+01 0.  0.
<mgrwt>
<rscale>  0 0.12500419E+03</rscale>
<asrwt>0</asrwt>
<pdfrwt beam="1">  1        4 0.84459332E-02 0.12500419E+03</pdfrwt>
<pdfrwt beam="2">  1       -4 0.10947495E-01 0.12500419E+03</pdfrwt>
<totfact> 0.10428717E+04</totfact>
</mgrwt>
</event>
<event>
 5    1  0.3206665E-002  0.1250001E+03  0.7818608E-02  0.1235069E+00
         -4   -1    0    0    0  501 -0.00000000000E+00  0.00000000000E+00  0.14434018941E+03  0.14434577645E+03  0.12700000000E+01 0.  1.
          4   -1    0    0  501    0  0.00000000000E+00 -0.00000000000E+00 -0.27041823442E+02  0.27071629339E+02  0.12700000000E+01 0.  1.
         25    2    1    2    0    0  0.00000000000E+00  0.00000000000E+00  0.11729836597E+03  0.17141740579E+03  0.12500008139E+03 0.  0.
    9000005    1    3    3    0    0 -0.54462361980E+02 -0.14029007270E+02  0.96011375560E+02  0.11127509225E+03  0.10000000000E+01 0.  0.
    9000005    1    3    3    0    0  0.54462361980E+02  0.14029007270E+02  0.21286990405E+02  0.60142313540E+02  0.10000000000E+01 0.  0.
<mgrwt>
<rscale>  0 0.12500008E+03</rscale>
<asrwt>0</asrwt>
<pdfrwt beam="2">  1        4 0.41630032E-02 0.12500008E+03</pdfrwt>
<pdfrwt beam="1">  1       -4 0.22208905E-01 0.12500008E+03</pdfrwt>
<totfact> 0.95184936E+03</totfact>
</mgrwt>
</event>
<event>
 5    1  0.3206665E-002  0.1250075E+03  0.7818608E-02  0.1235058E+00
         -4   -1    0    0    0  501 -0.00000000000E+00  0.00000000000E+00  0.65384444831E+02  0.65396777641E+02  0.12700000000E+01 0.  1.
          4   -1    0    0  501    0  0.00000000000E+00 -0.00000000000E+00 -0.59725249984E+02  0.59738751123E+02  0.12700000000E+01 0.  1.
         25    2    1    2    0    0  0.00000000000E+00  0.00000000000E+00  0.56591948467E+01  0.12513552876E+03  0.12500749607E+03 0.  0.
    9000005    1    3    3    0    0 -0.33523491062E+02 -0.50709934769E+02 -0.11690312289E+02  0.61911108362E+02  0.10000000000E+01 0.  0.
    9000005    1    3    3    0    0  0.33523491062E+02  0.50709934769E+02  0.17349507136E+02  0.63224420401E+02  0.10000000000E+01 0.  0.
<mgrwt>
<rscale>  0 0.12500750E+03</rscale>
<asrwt>0</asrwt>
<pdfrwt beam="2">  1        4 0.91904872E-02 0.12500750E+03</pdfrwt>
<pdfrwt beam="1">  1       -4 0.10061133E-01 0.12500750E+03</pdfrwt>
<totfact> 0.10448150E+04</totfact>
</mgrwt>
</event>
<event>
 5    1  0.3206665E-002  0.1249978E+03  0.7818608E-02  0.1235073E+00
          4   -1    0    0  501    0  0.00000000000E+00  0.00000000000E+00  0.12527563069E+04  0.12527569506E+04  0.12700000000E+01 0. -1.
         -4   -1    0    0    0  501 -0.00000000000E+00 -0.00000000000E+00 -0.29880223846E+01  0.32467179999E+01  0.12700000000E+01 0. -1.
         25    2    1    2    0    0  0.00000000000E+00  0.00000000000E+00  0.12497682845E+04  0.12560036686E+04  0.12499780261E+03 0.  0.
    9000005    1    3    3    0    0  0.40074766233E+02  0.25675896892E+00  0.11066806726E+04  0.11074065034E+04  0.10000000000E+01 0.  0.
    9000005    1    3    3    0    0 -0.40074766233E+02 -0.25675896892E+00  0.14308761190E+03  0.14859716516E+03  0.10000000000E+01 0.  0.
<mgrwt>
<rscale>  0 0.12499780E+03</rscale>
<asrwt>0</asrwt>
<pdfrwt beam="1">  1        4 0.19275179E+00 0.12499780E+03</pdfrwt>
<pdfrwt beam="2">  1       -4 0.47964467E-03 0.12499780E+03</pdfrwt>
<totfact> 0.23292397E+03</totfact>
</mgrwt>
</event>
<event>
 5    1  0.3206665E-002  0.1250006E+03  0.7818608E-02  0.1235068E+00
         -4   -1    0    0    0  501 -0.00000000000E+00  0.00000000000E+00  0.16196934631E+02  0.16246648622E+02  0.12700000000E+01 0.  1.
          4   -1    0    0  501    0  0.00000000000E+00 -0.00000000000E+00 -0.24075354717E+03  0.24075689684E+03  0.12700000000E+01 0.  1.
         25    2    1    2    0    0  0.00000000000E+00  0.00000000000E+00 -0.22455661254E+03  0.25700354546E+03  0.12500060058E+03 0.  0.
    9000005    1    3    3    0    0 -0.15182093874E+00  0.39292486394E+02 -0.12368394397E+02  0.41205578707E+02  0.10000000000E+01 0.  0.
    9000005    1    3    3    0    0  0.15182093874E+00 -0.39292486394E+02 -0.21218821814E+03  0.21579796675E+03  0.10000000000E+01 0.  0.
<mgrwt>
<rscale>  0 0.12500060E+03</rscale>
<asrwt>0</asrwt>
<pdfrwt beam="2">  1        4 0.37043086E-01 0.12500060E+03</pdfrwt>
<pdfrwt beam="1">  1       -4 0.24959181E-02 0.12500060E+03</pdfrwt>
<totfact> 0.81327332E+03</totfact>
</mgrwt>
</event>
<event>
 5    1  0.3206665E-002  0.1249935E+03  0.7818608E-02  0.1235079E+00
          4   -1    0    0  501    0  0.00000000000E+00  0.00000000000E+00  0.85605390361E+02  0.85614810395E+02  0.12700000000E+01 0.  1.
         -4   -1    0    0    0  501 -0.00000000000E+00 -0.00000000000E+00 -0.45605344156E+02  0.45623023963E+02  0.12700000000E+01 0.  1.
         25    2    1    2    0    0  0.00000000000E+00  0.00000000000E+00  0.40000046206E+02  0.13123783436E+03  0.12499346171E+03 0.  0.
    9000005    1    3    3    0    0  0.14973098736E+02  0.55632673759E+02 -0.54092390315E+01  0.57874415265E+02  0.10000000000E+01 0.  0.
    9000005    1    3    3    0    0 -0.14973098736E+02 -0.55632673759E+02  0.45409285237E+02  0.73363419093E+02  0.10000000000E+01 0.  0.
<mgrwt>
<rscale>  0 0.12499346E+03</rscale>
<asrwt>0</asrwt>
<pdfrwt beam="1">  1        4 0.13172145E-01 0.12499346E+03</pdfrwt>
<pdfrwt beam="2">  1       -4 0.70182913E-02 0.12499346E+03</pdfrwt>
<totfact> 0.10319515E+04</totfact>
</mgrwt>
</event>
<event>
 5    1  0.3206665E-002  0.1250183E+03  0.7818608E-02  0.1235041E+00
         -4   -1    0    0    0  501 -0.00000000000E+00  0.00000000000E+00  0.49638537868E+01  0.51237432036E+01  0.12700000000E+01 0.  1.
          4   -1    0    0  501    0  0.00000000000E+00 -0.00000000000E+00 -0.77453217788E+03  0.77453321909E+03  0.12700000000E+01 0.  1.
         25    2    1    2    0    0  0.00000000000E+00  0.00000000000E+00 -0.76956832409E+03  0.77965696229E+03  0.12501829227E+03 0.  0.
    9000005    1    3    3    0    0 -0.23614193026E+02  0.34553529409E+02 -0.95293086312E+02  0.10408337430E+03  0.10000000000E+01 0.  0.
    9000005    1    3    3    0    0  0.23614193026E+02 -0.34553529409E+02 -0.67427523778E+03  0.67557358799E+03  0.10000000000E+01 0.  0.
<mgrwt>
<rscale>  0 0.12501829E+03</rscale>
<asrwt>0</asrwt>
<pdfrwt beam="2">  1        4 0.11917108E+00 0.12501829E+03</pdfrwt>
<pdfrwt beam="1">  1       -4 0.77604971E-03 0.12501829E+03</pdfrwt>
<totfact> 0.39173546E+03</totfact>
</mgrwt>
</event>
<event>
 5    1  0.3206665E-002  0.1250007E+03  0.7818608E-02  0.1235068E+00
          4   -1    0    0  501    0  0.00000000000E+00  0.00000000000E+00  0.14861938355E+02  0.14916102429E+02  0.12700000000E+01 0.  1.
         -4   -1    0    0    0  501 -0.00000000000E+00 -0.00000000000E+00 -0.26230488563E+03  0.26230796009E+03  0.12700000000E+01 0.  1.
         25    2    1    2    0    0  0.00000000000E+00  0.00000000000E+00 -0.24744294728E+03  0.27722406252E+03  0.12500067473E+03 0.  0.
    9000005    1    3    3    0    0  0.44527817696E+02 -0.43832503096E+02 -0.12121499493E+03  0.13637481392E+03  0.10000000000E+01 0.  0.
    9000005    1    3    3    0    0 -0.44527817696E+02  0.43832503096E+02 -0.12622795235E+03  0.14084924860E+03  0.10000000000E+01 0.  0.
<mgrwt>
<rscale>  0 0.12500067E+03</rscale>
<asrwt>0</asrwt>
<pdfrwt beam="1">  1        4 0.22908552E-02 0.12500067E+03</pdfrwt>
<pdfrwt beam="2">  1       -4 0.40358997E-01 0.12500067E+03</pdfrwt>
<totfact> 0.78546443E+03</totfact>
</mgrwt>
</event>
<event>
 5    1  0.3206665E-002  0.1249994E+03  0.7818608E-02  0.1235070E+00
          4   -1    0    0  501    0  0.00000000000E+00  0.00000000000E+00  0.91112723174E+03  0.91112811685E+03  0.12700000000E+01 0. -1.
         -4   -1    0    0    0  501 -0.00000000000E+00 -0.00000000000E+00 -0.41922688418E+01  0.43804129990E+01  0.12700000000E+01 0. -1.
         25    2    1    2    0    0  0.00000000000E+00  0.00000000000E+00  0.90693496290E+03  0.91550852985E+03  0.12499936521E+03 0.  0.
    9000005    1    3    3    0    0  0.39583202682E+02 -0.43319258666E+02  0.29607209447E+03  0.30183285645E+03  0.10000000000E+01 0.  0.
    9000005    1    3    3    0    0 -0.39583202682E+02  0.43319258666E+02  0.61086286842E+03  0.61367567340E+03  0.10000000000E+01 0.  0.
<mgrwt>
<rscale>  0 0.12499937E+03</rscale>
<asrwt>0</asrwt>
<pdfrwt beam="1">  1        4 0.14018805E+00 0.12499937E+03</pdfrwt>
<pdfrwt beam="2">  1       -4 0.65950472E-03 0.12499937E+03</pdfrwt>
<totfact> 0.33573446E+03</totfact>
</mgrwt>
</event>
<event>
 5    1  0.3206665E-002  0.1249916E+03  0.7818608E-02  0.1235082E+00
          4   -1    0    0  501    0  0.00000000000E+00  0.00000000000E+00  0.71482570659E+02  0.71493851540E+02  0.12700000000E+01 0.  1.
         -4   -1    0    0    0  501 -0.00000000000E+00 -0.00000000000E+00 -0.54615861455E+02  0.54630625316E+02  0.12700000000E+01 0.  1.
         25    2    1    2    0    0  0.00000000000E+00  0.00000000000E+00  0.16866709204E+02  0.12612447686E+03  0.12499159085E+03 0.  0.
    9000005    1    3    3    0    0  0.18341579528E+02 -0.58662135940E+02  0.19807821792E+02  0.64583353403E+02  0.10000000000E+01 0.  0.
    9000005    1    3    3    0    0 -0.18341579528E+02  0.58662135940E+02 -0.29411125882E+01  0.61541123453E+02  0.10000000000E+01 0.  0.
<mgrwt>
<rscale>  0 0.12499159E+03</rscale>
<asrwt>0</asrwt>
<pdfrwt beam="1">  1        4 0.10999322E-01 0.12499159E+03</pdfrwt>
<pdfrwt beam="2">  1       -4 0.84044437E-02 0.12499159E+03</pdfrwt>
<totfact> 0.10430210E+04</totfact>
</mgrwt>
</event>
<event>
 5    1  0.3206665E-002  0.1249712E+03  0.7818608E-02  0.1235114E+00
          4   -1    0    0  501    0  0.00000000000E+00  0.00000000000E+00  0.80780657353E+02  0.80790639943E+02  0.12700000000E+01 0.  1.
         -4   -1    0    0    0  501 -0.00000000000E+00 -0.00000000000E+00 -0.48312661729E+02  0.48329351158E+02  0.12700000000E+01 0.  1.
         25    2    1    2    0    0  0.00000000000E+00  0.00000000000E+00  0.32467995624E+02  0.12911999110E+03  0.12497120213E+03 0.  0.
    9000005    1    3    3    0    0  0.34824403844E+02  0.51872057992E+02  0.16263892310E+02  0.64567512701E+02  0.10000000000E+01 0.  0.
    9000005    1    3    3    0    0 -0.34824403844E+02 -0.51872057992E+02  0.16204103314E+02  0.64552478400E+02  0.10000000000E+01 0.  0.
<mgrwt>
<rscale>  0 0.12497120E+03</rscale>
<asrwt>0</asrwt>
<pdfrwt beam="1">  1        4 0.12429845E-01 0.12497120E+03</pdfrwt>
<pdfrwt beam="2">  1       -4 0.74347690E-02 0.12497120E+03</pdfrwt>
<totfact> 0.10370109E+04</totfact>
</mgrwt>
</event>
<event>
 5    1  0.3206665E-002  0.1250042E+03  0.7818608E-02  0.1235063E+00
         -4   -1    0    0    0  501 -0.00000000000E+00  0.00000000000E+00  0.42292110763E+03  0.42292301448E+03  0.12700000000E+01 0. -1.
          4   -1    0    0  501    0  0.00000000000E+00 -0.00000000000E+00 -0.91913884524E+01  0.92787133635E+01  0.12700000000E+01 0. -1.
         25    2    1    2    0    0  0.00000000000E+00  0.00000000000E+00  0.41372971918E+03  0.43220172785E+03  0.12500421202E+03 0.  0.
    9000005    1    3    3    0    0 -0.35610324011E+02 -0.27662655431E+02  0.57262839099E+02  0.72892732308E+02  0.10000000000E+01 0.  0.
    9000005    1    3    3    0    0  0.35610324011E+02  0.27662655431E+02  0.35646688008E+03  0.35930899554E+03  0.10000000000E+01 0.  0.
<mgrwt>
<rscale>  0 0.12500421E+03</rscale>
<asrwt>0</asrwt>
<pdfrwt beam="2">  1        4 0.14209239E-02 0.12500421E+03</pdfrwt>
<pdfrwt beam="1">  1       -4 0.65071642E-01 0.12500421E+03</pdfrwt>
<totfact> 0.61531213E+03</totfact>
</mgrwt>
</event>
<event>
 5    1  0.3206665E-002  0.1250180E+03  0.7818608E-02  0.1235041E+00
         -4   -1    0    0    0  501 -0.00000000000E+00  0.00000000000E+00  0.62556324567E+02  0.62569214821E+02  0.12700000000E+01 0.  1.
          4   -1    0    0  501    0  0.00000000000E+00 -0.00000000000E+00 -0.62435974861E+02  0.62448889957E+02  0.12700000000E+01 0.  1.
         25    2    1    2    0    0  0.00000000000E+00  0.00000000000E+00  0.12034970580E+00  0.12501810478E+03  0.12501804685E+03 0.  0.
    9000005    1    3    3    0    0  0.50594885078E+02  0.35425509906E+02 -0.95089915819E+01  0.62499840552E+02  0.10000000000E+01 0.  0.
    9000005    1    3    3    0    0 -0.50594885078E+02 -0.35425509906E+02  0.96293412877E+01  0.62518264226E+02  0.10000000000E+01 0.  0.
<mgrwt>
<rscale>  0 0.12501805E+03</rscale>
<asrwt>0</asrwt>
<pdfrwt beam="2">  1        4 0.96075196E-02 0.12501805E+03</pdfrwt>
<pdfrwt beam="1">  1       -4 0.96260350E-02 0.12501805E+03</pdfrwt>
<totfact> 0.10448207E+04</totfact>
</mgrwt>
</event>
<event>
 5    1  0.3206665E-002  0.1250006E+03  0.7818608E-02  0.1235068E+00
         -4   -1    0    0    0  501 -0.00000000000E+00  0.00000000000E+00  0.46890770850E+02  0.46907966177E+02  0.12700000000E+01 0. -1.
          4   -1    0    0  501    0  0.00000000000E+00 -0.00000000000E+00 -0.83268797244E+02  0.83278481581E+02  0.12700000000E+01 0. -1.
         25    2    1    2    0    0  0.00000000000E+00  0.00000000000E+00 -0.36378026394E+02  0.13018644776E+03  0.12500060150E+03 0.  0.
    9000005    1    3    3    0    0 -0.47843010017E+02  0.63366960999E+01 -0.59537214080E+02  0.76647160321E+02  0.10000000000E+01 0.  0.
    9000005    1    3    3    0    0  0.47843010017E+02 -0.63366960999E+01  0.23159187686E+02  0.53539287437E+02  0.10000000000E+01 0.  0.
<mgrwt>
<rscale>  0 0.12500060E+03</rscale>
<asrwt>0</asrwt>
<pdfrwt beam="2">  1        4 0.12812652E-01 0.12500060E+03</pdfrwt>
<pdfrwt beam="1">  1       -4 0.72160324E-02 0.12500060E+03</pdfrwt>
<totfact> 0.10340380E+04</totfact>
</mgrwt>
</event>
<event>
 5    1  0.3206665E-002  0.1249980E+03  0.7818608E-02  0.1235072E+00
         -4   -1    0    0    0  501 -0.00000000000E+00  0.00000000000E+00  0.17398889019E+02  0.17445178104E+02  0.12700000000E+01 0. -1.
          4   -1    0    0  501    0  0.00000000000E+00 -0.00000000000E+00 -0.22415783007E+03  0.22416142773E+03  0.12700000000E+01 0. -1.
         25    2    1    2    0    0  0.00000000000E+00  0.00000000000E+00 -0.20675894106E+03  0.24160660584E+03  0.12499796910E+03 0.  0.
    9000005    1    3    3    0    0 -0.31940118677E+02  0.34374283280E+02 -0.23605880270E+02  0.52535703245E+02  0.10000000000E+01 0.  0.
    9000005    1    3    3    0    0  0.31940118677E+02 -0.34374283280E+02 -0.18315306079E+03  0.18907090259E+03  0.10000000000E+01 0.  0.
<mgrwt>
<rscale>  0 0.12499797E+03</rscale>
<asrwt>0</asrwt>
<pdfrwt beam="2">  1        4 0.34489655E-01 0.12499797E+03</pdfrwt>
<pdfrwt beam="1">  1       -4 0.26805898E-02 0.12499797E+03</pdfrwt>
<totfact> 0.83562456E+03</totfact>
</mgrwt>
</event>
<event>
 5    1  0.3206665E-002  0.1250037E+03  0.7818608E-02  0.1235063E+00
          4   -1    0    0  501    0  0.00000000000E+00  0.00000000000E+00  0.14574880792E+02  0.14630107658E+02  0.12700000000E+01 0.  1.
         -4   -1    0    0    0  501 -0.00000000000E+00 -0.00000000000E+00 -0.26746482747E+03  0.26746784261E+03  0.12700000000E+01 0.  1.
         25    2    1    2    0    0  0.00000000000E+00  0.00000000000E+00 -0.25288994668E+03  0.28209795027E+03  0.12500371362E+03 0.  0.
    9000005    1    3    3    0    0 -0.37432849975E+02 -0.18951711816E+02 -0.21924725929E+02  0.47350599205E+02  0.10000000000E+01 0.  0.
    9000005    1    3    3    0    0  0.37432849975E+02  0.18951711816E+02 -0.23096522075E+03  0.23474735107E+03  0.10000000000E+01 0.  0.
<mgrwt>
<rscale>  0 0.12500371E+03</rscale>
<asrwt>0</asrwt>
<pdfrwt beam="1">  1        4 0.22467697E-02 0.12500371E+03</pdfrwt>
<pdfrwt beam="2">  1       -4 0.41152911E-01 0.12500371E+03</pdfrwt>
<totfact> 0.77894325E+03</totfact>
</mgrwt>
</event>
<event>
 5    1  0.3206665E-002  0.1249990E+03  0.7818608E-02  0.1235071E+00
          4   -1    0    0  501    0  0.00000000000E+00  0.00000000000E+00  0.56341989356E+01  0.57755603750E+01  0.12700000000E+01 0.  1.
         -4   -1    0    0    0  501 -0.00000000000E+00 -0.00000000000E+00 -0.68456830743E+03  0.68456948547E+03  0.12700000000E+01 0.  1.
         25    2    1    2    0    0  0.00000000000E+00  0.00000000000E+00 -0.67893410849E+03  0.69034504584E+03  0.12499903458E+03 0.  0.
    9000005    1    3    3    0    0  0.45656947266E+02  0.31611179448E+02 -0.49774775243E+03  0.50083694807E+03  0.10000000000E+01 0.  0.
    9000005    1    3    3    0    0 -0.45656947266E+02 -0.31611179448E+02 -0.18118635606E+03  0.18950809777E+03  0.10000000000E+01 0.  0.
<mgrwt>
<rscale>  0 0.12499903E+03</rscale>
<asrwt>0</asrwt>
<pdfrwt beam="1">  1        4 0.87776495E-03 0.12499903E+03</pdfrwt>
<pdfrwt beam="2">  1       -4 0.10532910E+00 0.12499903E+03</pdfrwt>
<totfact> 0.43602229E+03</totfact>
</mgrwt>
</event>
<event>
 5    1  0.3206665E-002  0.1249987E+03  0.7818608E-02  0.1235071E+00
          4   -1    0    0  501    0  0.00000000000E+00  0.00000000000E+00  0.14271101599E+02  0.14327499462E+02  0.12700000000E+01 0. -1.
         -4   -1    0    0    0  501 -0.00000000000E+00 -0.00000000000E+00 -0.27311426669E+03  0.27311721947E+03  0.12700000000E+01 0. -1.
         25    2    1    2    0    0  0.00000000000E+00  0.00000000000E+00 -0.25884316509E+03  0.28744471893E+03  0.12499872930E+03 0.  0.
    9000005    1    3    3    0    0 -0.36921044903E+02  0.41013894283E+02 -0.61989821283E+02  0.83000247130E+02  0.10000000000E+01 0.  0.
    9000005    1    3    3    0    0  0.36921044903E+02 -0.41013894283E+02 -0.19685334381E+03  0.20444447180E+03  0.10000000000E+01 0.  0.
<mgrwt>
<rscale>  0 0.12499873E+03</rscale>
<asrwt>0</asrwt>
<pdfrwt beam="1">  1        4 0.22001197E-02 0.12499873E+03</pdfrwt>
<pdfrwt beam="2">  1       -4 0.42022141E-01 0.12499873E+03</pdfrwt>
<totfact> 0.77203414E+03</totfact>
</mgrwt>
</event>
<event>
 5    1  0.3206665E-002  0.1249943E+03  0.7818608E-02  0.1235078E+00
          4   -1    0    0  501    0  0.00000000000E+00  0.00000000000E+00  0.42871375210E+03  0.42871563319E+03  0.12700000000E+01 0.  1.
         -4   -1    0    0    0  501 -0.00000000000E+00 -0.00000000000E+00 -0.90645511992E+01  0.91530862797E+01  0.12700000000E+01 0.  1.
         25    2    1    2    0    0  0.00000000000E+00  0.00000000000E+00  0.41964920090E+03  0.43786871947E+03  0.12499425455E+03 0.  0.
    9000005    1    3    3    0    0  0.29942110292E+02 -0.11383674094E+02  0.21868003140E+02  0.38798551080E+02  0.10000000000E+01 0.  0.
    9000005    1    3    3    0    0 -0.29942110292E+02  0.11383674094E+02  0.39778119776E+03  0.39907016839E+03  0.10000000000E+01 0.  0.
<mgrwt>
<rscale>  0 0.12499425E+03</rscale>
<asrwt>0</asrwt>
<pdfrwt beam="1">  1        4 0.65962919E-01 0.12499425E+03</pdfrwt>
<pdfrwt beam="2">  1       -4 0.14015014E-02 0.12499425E+03</pdfrwt>
<totfact> 0.61036885E+03</totfact>
</mgrwt>
</event>
<event>
 5    1  0.3206665E-002  0.1250013E+03  0.7818608E-02  0.1235067E+00
          4   -1    0    0  501    0  0.00000000000E+00  0.00000000000E+00  0.48652170786E+03  0.48652336544E+03  0.12700000000E+01 0. -1.
         -4   -1    0    0    0  501 -0.00000000000E+00 -0.00000000000E+00 -0.79771916819E+01  0.80776535658E+01  0.12700000000E+01 0. -1.
         25    2    1    2    0    0  0.00000000000E+00  0.00000000000E+00  0.47854451618E+03  0.49460101901E+03  0.12500125614E+03 0.  0.
    9000005    1    3    3    0    0  0.36825456030E+01 -0.79085305445E+01  0.48411990309E+03  0.48419953177E+03  0.10000000000E+01 0.  0.
    9000005    1    3    3    0    0 -0.36825456030E+01  0.79085305445E+01 -0.55753869128E+01  0.10401487236E+02  0.10000000000E+01 0.  0.
<mgrwt>
<rscale>  0 0.12500126E+03</rscale>
<asrwt>0</asrwt>
<pdfrwt beam="1">  1        4 0.74857347E-01 0.12500126E+03</pdfrwt>
<pdfrwt beam="2">  1       -4 0.12351156E-02 0.12500126E+03</pdfrwt>
<totfact> 0.56284152E+03</totfact>
</mgrwt>
</event>
<event>
 5    1  0.3206665E-002  0.1250035E+03  0.7818608E-02  0.1235064E+00
         -4   -1    0    0    0  501 -0.00000000000E+00  0.00000000000E+00  0.34991665829E+02  0.35014705161E+02  0.12700000000E+01 0.  1.
          4   -1    0    0  501    0  0.00000000000E+00 -0.00000000000E+00 -0.11157659761E+03  0.11158382515E+03  0.12700000000E+01 0.  1.
         25    2    1    2    0    0  0.00000000000E+00  0.00000000000E+00 -0.76584931783E+02  0.14659853031E+03  0.12500350920E+03 0.  0.
    9000005    1    3    3    0    0  0.17113600389E+02 -0.26767128439E+02 -0.10140495391E+03  0.10627002945E+03  0.10000000000E+01 0.  0.
    9000005    1    3    3    0    0 -0.17113600389E+02  0.26767128439E+02  0.24820022123E+02  0.40328500857E+02  0.10000000000E+01 0.  0.
<mgrwt>
<rscale>  0 0.12500351E+03</rscale>
<asrwt>0</asrwt>
<pdfrwt beam="2">  1        4 0.17167958E-01 0.12500351E+03</pdfrwt>
<pdfrwt beam="1">  1       -4 0.53856615E-02 0.12500351E+03</pdfrwt>
<totfact> 0.99978205E+03</totfact>
</mgrwt>
</event>
<event>
 5    1  0.3206665E-002  0.1249989E+03  0.7818608E-02  0.1235071E+00
         -4   -1    0    0    0  501 -0.00000000000E+00  0.00000000000E+00  0.51235252057E+02  0.51250989779E+02  0.12700000000E+01 0.  1.
          4   -1    0    0  501    0  0.00000000000E+00 -0.00000000000E+00 -0.76207366451E+02  0.76217948027E+02  0.12700000000E+01 0.  1.
         25    2    1    2    0    0  0.00000000000E+00  0.00000000000E+00 -0.24972114394E+02  0.12746893781E+03  0.12499889443E+03 0.  0.
    9000005    1    3    3    0    0 -0.77777299348E+01  0.58390379267E+02 -0.33760994917E+02  0.67902387673E+02  0.10000000000E+01 0.  0.
    9000005    1    3    3    0    0  0.77777299348E+01 -0.58390379267E+02  0.87888805235E+01  0.59566550133E+02  0.10000000000E+01 0.  0.
<mgrwt>
<rscale>  0 0.12499889E+03</rscale>
<asrwt>0</asrwt>
<pdfrwt beam="2">  1        4 0.11726235E-01 0.12499889E+03</pdfrwt>
<pdfrwt beam="1">  1       -4 0.78843711E-02 0.12499889E+03</pdfrwt>
<totfact> 0.10399233E+04</totfact>
</mgrwt>
</event>
<event>
 5    1  0.3206665E-002  0.1249787E+03  0.7818608E-02  0.1235103E+00
          4   -1    0    0  501    0  0.00000000000E+00  0.00000000000E+00  0.50794463709E+02  0.50810337959E+02  0.12700000000E+01 0. -1.
         -4   -1    0    0    0  501 -0.00000000000E+00 -0.00000000000E+00 -0.76843711499E+02  0.76854205460E+02  0.12700000000E+01 0. -1.
         25    2    1    2    0    0  0.00000000000E+00  0.00000000000E+00 -0.26049247790E+02  0.12766454342E+03  0.12497868753E+03 0.  0.
    9000005    1    3    3    0    0 -0.33303550494E+02 -0.50445669564E+02  0.31274000551E+01  0.60536540076E+02  0.10000000000E+01 0.  0.
    9000005    1    3    3    0    0  0.33303550494E+02  0.50445669564E+02 -0.29176647845E+02  0.67128003343E+02  0.10000000000E+01 0.  0.
<mgrwt>
<rscale>  0 0.12497869E+03</rscale>
<asrwt>0</asrwt>
<pdfrwt beam="1">  1        4 0.78165612E-02 0.12497869E+03</pdfrwt>
<pdfrwt beam="2">  1       -4 0.11824138E-01 0.12497869E+03</pdfrwt>
<totfact> 0.10399741E+04</totfact>
</mgrwt>
</event>
<event>
 5    1  0.3206665E-002  0.1250072E+03  0.7818608E-02  0.1235058E+00
          4   -1    0    0  501    0  0.00000000000E+00  0.00000000000E+00  0.11158789215E+02  0.11230827073E+02  0.12700000000E+01 0. -1.
         -4   -1    0    0    0  501 -0.00000000000E+00 -0.00000000000E+00 -0.34890123172E+03  0.34890354311E+03  0.12700000000E+01 0. -1.
         25    2    1    2    0    0  0.00000000000E+00  0.00000000000E+00 -0.33774244251E+03  0.36013437019E+03  0.12500722826E+03 0.  0.
    9000005    1    3    3    0    0  0.35012338589E+02  0.39061067144E+02 -0.26674034540E+03  0.27185114067E+03  0.10000000000E+01 0.  0.
    9000005    1    3    3    0    0 -0.35012338589E+02 -0.39061067144E+02 -0.71002097105E+02  0.88283229513E+02  0.10000000000E+01 0.  0.
<mgrwt>
<rscale>  0 0.12500723E+03</rscale>
<asrwt>0</asrwt>
<pdfrwt beam="1">  1        4 0.17224562E-02 0.12500723E+03</pdfrwt>
<pdfrwt beam="2">  1       -4 0.53682823E-01 0.12500723E+03</pdfrwt>
<totfact> 0.68612888E+03</totfact>
</mgrwt>
</event>
<event>
 5    1  0.3206665E-002  0.1249991E+03  0.7818608E-02  0.1235071E+00
          4   -1    0    0  501    0  0.00000000000E+00  0.00000000000E+00  0.33560922570E+03  0.33561162864E+03  0.12700000000E+01 0.  1.
         -4   -1    0    0    0  501 -0.00000000000E+00 -0.00000000000E+00 -0.11602017897E+02  0.11671320374E+02  0.12700000000E+01 0.  1.
         25    2    1    2    0    0  0.00000000000E+00  0.00000000000E+00  0.32400720780E+03  0.34728294901E+03  0.12499910385E+03 0.  0.
    9000005    1    3    3    0    0 -0.78115131322E+01 -0.34722332601E+02  0.19292456407E+02  0.40495172464E+02  0.10000000000E+01 0.  0.
    9000005    1    3    3    0    0  0.78115131322E+01  0.34722332601E+02  0.30471475140E+03  0.30678777655E+03  0.10000000000E+01 0.  0.
<mgrwt>
<rscale>  0 0.12499910E+03</rscale>
<asrwt>0</asrwt>
<pdfrwt beam="1">  1        4 0.51637696E-01 0.12499910E+03</pdfrwt>
<pdfrwt beam="2">  1       -4 0.17904419E-02 0.12499910E+03</pdfrwt>
<totfact> 0.70025895E+03</totfact>
</mgrwt>
</event>
<event>
 5    1  0.3206665E-002  0.1250052E+03  0.7818608E-02  0.1235061E+00
          4   -1    0    0  501    0  0.00000000000E+00  0.00000000000E+00  0.19294242889E+01  0.23098870290E+01  0.12700000000E+01 0. -1.
         -4   -1    0    0    0  501 -0.00000000000E+00 -0.00000000000E+00 -0.18426414921E+04  0.18426419298E+04  0.12700000000E+01 0. -1.
         25    2    1    2    0    0  0.00000000000E+00  0.00000000000E+00 -0.18407120678E+04  0.18449518168E+04  0.12500515864E+03 0.  0.
    9000005    1    3    3    0    0  0.62147513468E+02  0.61126091040E+01 -0.95619034418E+03  0.95822787046E+03  0.10000000000E+01 0.  0.
    9000005    1    3    3    0    0 -0.62147513468E+02 -0.61126091040E+01 -0.88452172366E+03  0.88672394636E+03  0.10000000000E+01 0.  0.
<mgrwt>
<rscale>  0 0.12500516E+03</rscale>
<asrwt>0</asrwt>
<pdfrwt beam="1">  1        4 0.32613601E-03 0.12500516E+03</pdfrwt>
<pdfrwt beam="2">  1       -4 0.28351133E+00 0.12500516E+03</pdfrwt>
<totfact> 0.12022341E+03</totfact>
</mgrwt>
</event>
<event>
 5    1  0.3206665E-002  0.1250002E+03  0.7818608E-02  0.1235069E+00
          4   -1    0    0  501    0  0.00000000000E+00  0.00000000000E+00  0.12674695424E+02  0.12738163294E+02  0.12700000000E+01 0.  1.
         -4   -1    0    0    0  501 -0.00000000000E+00 -0.00000000000E+00 -0.30735910318E+03  0.30736172698E+03  0.12700000000E+01 0.  1.
         25    2    1    2    0    0  0.00000000000E+00  0.00000000000E+00 -0.29468440776E+03  0.32009989027E+03  0.12500015830E+03 0.  0.
    9000005    1    3    3    0    0 -0.11566350589E+02  0.60784982425E+02 -0.12492019640E+03  0.13940821361E+03  0.10000000000E+01 0.  0.
    9000005    1    3    3    0    0  0.11566350589E+02 -0.60784982425E+02 -0.16976421136E+03  0.18069167666E+03  0.10000000000E+01 0.  0.
<mgrwt>
<rscale>  0 0.12500016E+03</rscale>
<asrwt>0</asrwt>
<pdfrwt beam="1">  1        4 0.19550373E-02 0.12500016E+03</pdfrwt>
<pdfrwt beam="2">  1       -4 0.47291094E-01 0.12500016E+03</pdfrwt>
<totfact> 0.73143992E+03</totfact>
</mgrwt>
</event>
<event>
 5    1  0.3206665E-002  0.1250045E+03  0.7818608E-02  0.1235062E+00
          4   -1    0    0  501    0  0.00000000000E+00  0.00000000000E+00  0.26577992285E+02  0.26608317758E+02  0.12700000000E+01 0.  1.
         -4   -1    0    0    0  501 -0.00000000000E+00 -0.00000000000E+00 -0.14686683431E+03  0.14687232523E+03  0.12700000000E+01 0.  1.
         25    2    1    2    0    0  0.00000000000E+00  0.00000000000E+00 -0.12028884202E+03  0.17348064299E+03  0.12500451183E+03 0.  0.
    9000005    1    3    3    0    0 -0.36793359183E+02 -0.24838426670E+02 -0.12118900081E+03  0.12906770563E+03  0.10000000000E+01 0.  0.
    9000005    1    3    3    0    0  0.36793359183E+02  0.24838426670E+02  0.90015878479E+00  0.44412937363E+02  0.10000000000E+01 0.  0.
<mgrwt>
<rscale>  0 0.12500451E+03</rscale>
<asrwt>0</asrwt>
<pdfrwt beam="1">  1        4 0.40916771E-02 0.12500451E+03</pdfrwt>
<pdfrwt beam="2">  1       -4 0.22597652E-01 0.12500451E+03</pdfrwt>
<totfact> 0.94794250E+03</totfact>
</mgrwt>
</event>
<event>
 5    1  0.3206665E-002  0.1249950E+03  0.7818608E-02  0.1235077E+00
          4   -1    0    0  501    0  0.00000000000E+00  0.00000000000E+00  0.12363354000E+03  0.12364006274E+03  0.12700000000E+01 0.  1.
         -4   -1    0    0    0  501 -0.00000000000E+00 -0.00000000000E+00 -0.31572758197E+02  0.31598290463E+02  0.12700000000E+01 0.  1.
         25    2    1    2    0    0  0.00000000000E+00  0.00000000000E+00  0.92060781807E+02  0.15523835320E+03  0.12499503493E+03 0.  0.
    9000005    1    3    3    0    0  0.50251081488E+00  0.58023623369E+02  0.17224870306E+02  0.60536679319E+02  0.10000000000E+01 0.  0.
    9000005    1    3    3    0    0 -0.50251081488E+00 -0.58023623369E+02  0.74835911501E+02  0.94701673882E+02  0.10000000000E+01 0.  0.
<mgrwt>
<rscale>  0 0.12499503E+03</rscale>
<asrwt>0</asrwt>
<pdfrwt beam="1">  1        4 0.19023010E-01 0.12499503E+03</pdfrwt>
<pdfrwt beam="2">  1       -4 0.48598132E-02 0.12499503E+03</pdfrwt>
<totfact> 0.98279701E+03</totfact>
</mgrwt>
</event>
<event>
 5    1  0.3206665E-002  0.1249913E+03  0.7818608E-02  0.1235083E+00
          4   -1    0    0  501    0  0.00000000000E+00  0.00000000000E+00  0.10531720130E+03  0.10532485836E+03  0.12700000000E+01 0. -1.
         -4   -1    0    0    0  501 -0.00000000000E+00 -0.00000000000E+00 -0.37065279817E+02  0.37087030994E+02  0.12700000000E+01 0. -1.
         25    2    1    2    0    0  0.00000000000E+00  0.00000000000E+00  0.68251921482E+02  0.14241188936E+03  0.12499128547E+03 0.  0.
    9000005    1    3    3    0    0 -0.54475968437E+02 -0.27143017567E+02  0.17999450398E+02  0.63477198697E+02  0.10000000000E+01 0.  0.
    9000005    1    3    3    0    0  0.54475968437E+02  0.27143017567E+02  0.50252471085E+02  0.78934690662E+02  0.10000000000E+01 0.  0.
<mgrwt>
<rscale>  0 0.12499129E+03</rscale>
<asrwt>0</asrwt>
<pdfrwt beam="1">  1        4 0.16204908E-01 0.12499129E+03</pdfrwt>
<pdfrwt beam="2">  1       -4 0.57046130E-02 0.12499129E+03</pdfrwt>
<totfact> 0.10085820E+04</totfact>
</mgrwt>
</event>
<event>
 5    1  0.3206665E-002  0.1249988E+03  0.7818608E-02  0.1235071E+00
          4   -1    0    0  501    0  0.00000000000E+00  0.00000000000E+00  0.23742658129E+02  0.23776600157E+02  0.12700000000E+01 0. -1.
         -4   -1    0    0    0  501 -0.00000000000E+00 -0.00000000000E+00 -0.16436736697E+03  0.16437227329E+03  0.12700000000E+01 0. -1.
         25    2    1    2    0    0  0.00000000000E+00  0.00000000000E+00 -0.14062470884E+03  0.18814887344E+03  0.12499875936E+03 0.  0.
    9000005    1    3    3    0    0 -0.18387592265E+02 -0.50695903493E+00  0.19582746311E+02  0.26885767793E+02  0.10000000000E+01 0.  0.
    9000005    1    3    3    0    0  0.18387592265E+02  0.50695903493E+00 -0.16020745515E+03  0.16126310565E+03  0.10000000000E+01 0.  0.
<mgrwt>
<rscale>  0 0.12499876E+03</rscale>
<asrwt>0</asrwt>
<pdfrwt beam="1">  1        4 0.36557051E-02 0.12499876E+03</pdfrwt>
<pdfrwt beam="2">  1       -4 0.25290275E-01 0.12499876E+03</pdfrwt>
<totfact> 0.92172968E+03</totfact>
</mgrwt>
</event>
<event>
 5    1  0.3206665E-002  0.1249996E+03  0.7818608E-02  0.1235070E+00
         -4   -1    0    0    0  501 -0.00000000000E+00  0.00000000000E+00  0.40776517882E+03  0.40776715655E+03  0.12700000000E+01 0. -1.
          4   -1    0    0  501    0  0.00000000000E+00 -0.00000000000E+00 -0.95354894923E+01  0.96196912558E+01  0.12700000000E+01 0. -1.
         25    2    1    2    0    0  0.00000000000E+00  0.00000000000E+00  0.39822968933E+03  0.41738684780E+03  0.12499958102E+03 0.  0.
    9000005    1    3    3    0    0  0.31850281455E+02 -0.50708782010E+02  0.13943886317E+03  0.15175644159E+03  0.10000000000E+01 0.  0.
    9000005    1    3    3    0    0 -0.31850281455E+02  0.50708782010E+02  0.25879082616E+03  0.26563040621E+03  0.10000000000E+01 0.  0.
<mgrwt>
<rscale>  0 0.12499958E+03</rscale>
<asrwt>0</asrwt>
<pdfrwt beam="2">  1        4 0.14736277E-02 0.12499958E+03</pdfrwt>
<pdfrwt beam="1">  1       -4 0.62739730E-01 0.12499958E+03</pdfrwt>
<totfact> 0.62896760E+03</totfact>
</mgrwt>
</event>
<event>
 5    1  0.3206665E-002  0.1249761E+03  0.7818608E-02  0.1235107E+00
          4   -1    0    0  501    0  0.00000000000E+00  0.00000000000E+00  0.59010560989E+02  0.59024225605E+02  0.12700000000E+01 0.  1.
         -4   -1    0    0    0  501 -0.00000000000E+00 -0.00000000000E+00 -0.66143038575E+02  0.66155229967E+02  0.12700000000E+01 0.  1.
         25    2    1    2    0    0  0.00000000000E+00  0.00000000000E+00 -0.71324775860E+01  0.12517945557E+03  0.12497609316E+03 0.  0.
    9000005    1    3    3    0    0  0.50100817752E+02 -0.66702172693E+01 -0.40357087848E+02  0.64685997537E+02  0.10000000000E+01 0.  0.
    9000005    1    3    3    0    0 -0.50100817752E+02  0.66702172693E+01  0.33224610262E+02  0.60493458034E+02  0.10000000000E+01 0.  0.
<mgrwt>
<rscale>  0 0.12497609E+03</rscale>
<asrwt>0</asrwt>
<pdfrwt beam="1">  1        4 0.90805368E-02 0.12497609E+03</pdfrwt>
<pdfrwt beam="2">  1       -4 0.10177841E-01 0.12497609E+03</pdfrwt>
<totfact> 0.10454614E+04</totfact>
</mgrwt>
</event>
<event>
 5    1  0.3206665E-002  0.1250011E+03  0.7818608E-02  0.1235068E+00
          4   -1    0    0  501    0  0.00000000000E+00  0.00000000000E+00  0.10827495274E+03  0.10828240066E+03  0.12700000000E+01 0. -1.
         -4   -1    0    0    0  501 -0.00000000000E+00 -0.00000000000E+00 -0.36057920666E+02  0.36080279139E+02  0.12700000000E+01 0. -1.
         25    2    1    2    0    0  0.00000000000E+00  0.00000000000E+00  0.72217032078E+02  0.14436267979E+03  0.12500113438E+03 0.  0.
    9000005    1    3    3    0    0  0.42173697302E+02  0.42917308199E+02  0.16618390247E+02  0.62431458269E+02  0.10000000000E+01 0.  0.
    9000005    1    3    3    0    0 -0.42173697302E+02 -0.42917308199E+02  0.55598641831E+02  0.81931221525E+02  0.10000000000E+01 0.  0.
<mgrwt>
<rscale>  0 0.12500113E+03</rscale>
<asrwt>0</asrwt>
<pdfrwt beam="1">  1        4 0.16659978E-01 0.12500113E+03</pdfrwt>
<pdfrwt beam="2">  1       -4 0.55496653E-02 0.12500113E+03</pdfrwt>
<totfact> 0.10043697E+04</totfact>
</mgrwt>
</event>
<event>
 4    1  0.3206665E-002  0.1249186E+03  0.7818608E-02  0.1235197E+00
         -4   -1    0    0    0  501 -0.00000000000E+00  0.00000000000E+00  0.11502897344E+04  0.11502904355E+04  0.12700000000E+01 0. -1.
          4   -1    0    0  501    0  0.00000000000E+00 -0.00000000000E+00 -0.32718418082E+01  0.35096793041E+01  0.12700000000E+01 0. -1.
    9000005    1    1    2    0    0  0.32477854384E+02  0.39446296988E+02  0.90516485003E+03  0.90660643451E+03  0.10000000000E+01 0.  0.
    9000005    1    1    2    0    0 -0.32477854384E+02 -0.39446296988E+02  0.24185304257E+03  0.24719368028E+03  0.10000000000E+01 0.  0.
<mgrwt>
<rscale>  0 0.12491861E+03</rscale>
<asrwt>0</asrwt>
<pdfrwt beam="2">  1        4 0.52171002E-03 0.12491861E+03</pdfrwt>
<pdfrwt beam="1">  1       -4 0.17698579E+00 0.12491861E+03</pdfrwt>
<totfact> 0.26001197E+03</totfact>
</mgrwt>
</event>
<event>
 5    1  0.3206665E-002  0.1250018E+03  0.7818608E-02  0.1235066E+00
          4   -1    0    0  501    0  0.00000000000E+00  0.00000000000E+00  0.36314023074E+02  0.36336223962E+02  0.12700000000E+01 0.  1.
         -4   -1    0    0    0  501 -0.00000000000E+00 -0.00000000000E+00 -0.10751291566E+03  0.10752041636E+03  0.12700000000E+01 0.  1.
         25    2    1    2    0    0  0.00000000000E+00  0.00000000000E+00 -0.71198892584E+02  0.14385664032E+03  0.12500180262E+03 0.  0.
    9000005    1    3    3    0    0 -0.56505019663E+02  0.22051866266E+02 -0.52910285236E+02  0.80495964723E+02  0.10000000000E+01 0.  0.
    9000005    1    3    3    0    0  0.56505019663E+02 -0.22051866266E+02 -0.18288607348E+02  0.63360675594E+02  0.10000000000E+01 0.  0.
<mgrwt>
<rscale>  0 0.12500180E+03</rscale>
<asrwt>0</asrwt>
<pdfrwt beam="1">  1        4 0.55890575E-02 0.12500180E+03</pdfrwt>
<pdfrwt beam="2">  1       -4 0.16542733E-01 0.12500180E+03</pdfrwt>
<totfact> 0.10053863E+04</totfact>
</mgrwt>
</event>
<event>
 5    1  0.3206665E-002  0.1250012E+03  0.7818608E-02  0.1235067E+00
          4   -1    0    0  501    0  0.00000000000E+00  0.00000000000E+00  0.33061332078E+02  0.33085715630E+02  0.12700000000E+01 0. -1.
         -4   -1    0    0    0  501 -0.00000000000E+00 -0.00000000000E+00 -0.11808258254E+03  0.11808941188E+03  0.12700000000E+01 0. -1.
         25    2    1    2    0    0  0.00000000000E+00  0.00000000000E+00 -0.85021250459E+02  0.15117512751E+03  0.12500122459E+03 0.  0.
    9000005    1    3    3    0    0 -0.25023319029E+01 -0.51883291040E+02 -0.84530398783E+02  0.99219584117E+02  0.10000000000E+01 0.  0.
    9000005    1    3    3    0    0  0.25023319029E+01  0.51883291040E+02 -0.49085167618E+00  0.51955543395E+02  0.10000000000E+01 0.  0.
<mgrwt>
<rscale>  0 0.12500122E+03</rscale>
<asrwt>0</asrwt>
<pdfrwt beam="1">  1        4 0.50887598E-02 0.12500122E+03</pdfrwt>
<pdfrwt beam="2">  1       -4 0.18168952E-01 0.12500122E+03</pdfrwt>
<totfact> 0.99067238E+03</totfact>
</mgrwt>
</event>
<event>
 5    1  0.3206665E-002  0.1250013E+03  0.7818608E-02  0.1235067E+00
          4   -1    0    0  501    0  0.00000000000E+00  0.00000000000E+00  0.44569718720E+02  0.44587809172E+02  0.12700000000E+01 0. -1.
         -4   -1    0    0    0  501 -0.00000000000E+00 -0.00000000000E+00 -0.87604966920E+02  0.87614171964E+02  0.12700000000E+01 0. -1.
         25    2    1    2    0    0  0.00000000000E+00  0.00000000000E+00 -0.43035248200E+02  0.13220198114E+03  0.12500132491E+03 0.  0.
    9000005    1    3    3    0    0  0.59060595531E+01 -0.62178630976E+02 -0.19332417958E+02  0.65389648061E+02  0.10000000000E+01 0.  0.
    9000005    1    3    3    0    0 -0.59060595531E+01  0.62178630976E+02 -0.23702830241E+02  0.66812333075E+02  0.10000000000E+01 0.  0.
<mgrwt>
<rscale>  0 0.12500132E+03</rscale>
<asrwt>0</asrwt>
<pdfrwt beam="1">  1        4 0.68589795E-02 0.12500132E+03</pdfrwt>
<pdfrwt beam="2">  1       -4 0.13479787E-01 0.12500132E+03</pdfrwt>
<totfact> 0.10297081E+04</totfact>
</mgrwt>
</event>
<event>
 5    1  0.3206665E-002  0.1249999E+03  0.7818608E-02  0.1235069E+00
          4   -1    0    0  501    0  0.00000000000E+00  0.00000000000E+00  0.56532797143E+02  0.56547060515E+02  0.12700000000E+01 0. -1.
         -4   -1    0    0    0  501 -0.00000000000E+00 -0.00000000000E+00 -0.69068173464E+02  0.69079848622E+02  0.12700000000E+01 0. -1.
         25    2    1    2    0    0  0.00000000000E+00  0.00000000000E+00 -0.12535376320E+02  0.12562690914E+03  0.12499993856E+03 0.  0.
    9000005    1    3    3    0    0 -0.53185580526E+02 -0.16161903758E+02  0.22429569626E+02  0.59949968328E+02  0.10000000000E+01 0.  0.
    9000005    1    3    3    0    0  0.53185580526E+02  0.16161903758E+02 -0.34964945946E+02  0.65676940809E+02  0.10000000000E+01 0.  0.
<mgrwt>
<rscale>  0 0.12499994E+03</rscale>
<asrwt>0</asrwt>
<pdfrwt beam="1">  1        4 0.86993487E-02 0.12499994E+03</pdfrwt>
<pdfrwt beam="2">  1       -4 0.10627868E-01 0.12499994E+03</pdfrwt>
<totfact> 0.10439168E+04</totfact>
</mgrwt>
</event>
<event>
 5    1  0.3206665E-002  0.1250026E+03  0.7818608E-02  0.1235065E+00
          4   -1    0    0  501    0  0.00000000000E+00  0.00000000000E+00  0.11907987563E+03  0.11908664778E+03  0.12700000000E+01 0.  1.
         -4   -1    0    0    0  501 -0.00000000000E+00 -0.00000000000E+00 -0.32784956382E+02  0.32809545333E+02  0.12700000000E+01 0.  1.
         25    2    1    2    0    0  0.00000000000E+00  0.00000000000E+00  0.86294919251E+02  0.15189619312E+03  0.12500256155E+03 0.  0.
    9000005    1    3    3    0    0  0.17234132872E+01  0.50419647952E+02 -0.16697871772E+01  0.50486624388E+02  0.10000000000E+01 0.  0.
    9000005    1    3    3    0    0 -0.17234132872E+01 -0.50419647952E+02  0.87964706428E+02  0.10140956873E+03  0.10000000000E+01 0.  0.
<mgrwt>
<rscale>  0 0.12500256E+03</rscale>
<asrwt>0</asrwt>
<pdfrwt beam="1">  1        4 0.18322393E-01 0.12500256E+03</pdfrwt>
<pdfrwt beam="2">  1       -4 0.50462518E-02 0.12500256E+03</pdfrwt>
<totfact> 0.98921353E+03</totfact>
</mgrwt>
</event>
<event>
 5    1  0.3206665E-002  0.1249982E+03  0.7818608E-02  0.1235072E+00
          4   -1    0    0  501    0  0.00000000000E+00  0.00000000000E+00  0.13277662051E+03  0.13278269411E+03  0.12700000000E+01 0. -1.
         -4   -1    0    0    0  501 -0.00000000000E+00 -0.00000000000E+00 -0.29398390739E+02  0.29425809726E+02  0.12700000000E+01 0. -1.
         25    2    1    2    0    0  0.00000000000E+00  0.00000000000E+00  0.10337822977E+03  0.16220850383E+03  0.12499816129E+03 0.  0.
    9000005    1    3    3    0    0 -0.38739625213E+02 -0.48893256876E+02  0.56514339249E+02  0.84179449216E+02  0.10000000000E+01 0.  0.
    9000005    1    3    3    0    0  0.38739625213E+02  0.48893256876E+02  0.46863890524E+02  0.78029054618E+02  0.10000000000E+01 0.  0.
<mgrwt>
<rscale>  0 0.12499816E+03</rscale>
<asrwt>0</asrwt>
<pdfrwt beam="1">  1        4 0.20429749E-01 0.12499816E+03</pdfrwt>
<pdfrwt beam="2">  1       -4 0.45254057E-02 0.12499816E+03</pdfrwt>
<totfact> 0.96922690E+03</totfact>
</mgrwt>
</event>
<event>
 5    1  0.3206665E-002  0.1249999E+03  0.7818608E-02  0.1235069E+00
          4   -1    0    0  501    0  0.00000000000E+00  0.00000000000E+00  0.51552985523E+02  0.51568626279E+02  0.12700000000E+01 0. -1.
         -4   -1    0    0    0  501 -0.00000000000E+00 -0.00000000000E+00 -0.75738991356E+02  0.75749638360E+02  0.12700000000E+01 0. -1.
         25    2    1    2    0    0  0.00000000000E+00  0.00000000000E+00 -0.24186005833E+02  0.12731826464E+03  0.12499991053E+03 0.  0.
    9000005    1    3    3    0    0 -0.37077977281E+02  0.42703630841E+02  0.14987089685E+02  0.58514864295E+02  0.10000000000E+01 0.  0.
    9000005    1    3    3    0    0  0.37077977281E+02 -0.42703630841E+02 -0.39173095519E+02  0.68803400343E+02  0.10000000000E+01 0.  0.
<mgrwt>
<rscale>  0 0.12499991E+03</rscale>
<asrwt>0</asrwt>
<pdfrwt beam="1">  1        4 0.79332506E-02 0.12499991E+03</pdfrwt>
<pdfrwt beam="2">  1       -4 0.11654175E-01 0.12499991E+03</pdfrwt>
<totfact> 0.10402259E+04</totfact>
</mgrwt>
</event>
<event>
 5    1  0.3206665E-002  0.1250007E+03  0.7818608E-02  0.1235068E+00
          4   -1    0    0  501    0  0.00000000000E+00  0.00000000000E+00  0.24369950323E+02  0.24403019869E+02  0.12700000000E+01 0. -1.
         -4   -1    0    0    0  501 -0.00000000000E+00 -0.00000000000E+00 -0.16014713019E+03  0.16015216579E+03  0.12700000000E+01 0. -1.
         25    2    1    2    0    0  0.00000000000E+00  0.00000000000E+00 -0.13577717986E+03  0.18455518566E+03  0.12500069592E+03 0.  0.
    9000005    1    3    3    0    0 -0.34407988276E+02 -0.52063891473E+02 -0.63051148560E+02  0.88718689053E+02  0.10000000000E+01 0.  0.
    9000005    1    3    3    0    0  0.34407988276E+02  0.52063891473E+02 -0.72726031303E+02  0.95836496605E+02  0.10000000000E+01 0.  0.
<mgrwt>
<rscale>  0 0.12500070E+03</rscale>
<asrwt>0</asrwt>
<pdfrwt beam="1">  1        4 0.37521544E-02 0.12500070E+03</pdfrwt>
<pdfrwt beam="2">  1       -4 0.24640951E-01 0.12500070E+03</pdfrwt>
<totfact> 0.92801975E+03</totfact>
</mgrwt>
</event>
<event>
 5    1  0.3206665E-002  0.1250002E+03  0.7818608E-02  0.1235069E+00
          4   -1    0    0  501    0  0.00000000000E+00  0.00000000000E+00  0.76228026615E+02  0.76238605323E+02  0.12700000000E+01 0.  1.
         -4   -1    0    0    0  501 -0.00000000000E+00 -0.00000000000E+00 -0.51222466498E+02  0.51238208148E+02  0.12700000000E+01 0.  1.
         25    2    1    2    0    0  0.00000000000E+00  0.00000000000E+00  0.25005560117E+02  0.12747681347E+03  0.12500023974E+03 0.  0.
    9000005    1    3    3    0    0 -0.32918822335E+01  0.62163314899E+02  0.69030176527E+01  0.62639970152E+02  0.10000000000E+01 0.  0.
    9000005    1    3    3    0    0  0.32918822335E+01 -0.62163314899E+02  0.18102542464E+02  0.64836843319E+02  0.10000000000E+01 0.  0.
<mgrwt>
<rscale>  0 0.12500024E+03</rscale>
<asrwt>0</asrwt>
<pdfrwt beam="1">  1        4 0.11729413E-01 0.12500024E+03</pdfrwt>
<pdfrwt beam="2">  1       -4 0.78824042E-02 0.12500024E+03</pdfrwt>
<totfact> 0.10398746E+04</totfact>
</mgrwt>
</event>
<event>
 5    1  0.3206665E-002  0.1249843E+03  0.7818608E-02  0.1235094E+00
         -4   -1    0    0    0  501 -0.00000000000E+00  0.00000000000E+00  0.84704174290E+02  0.84713694537E+02  0.12700000000E+01 0. -1.
          4   -1    0    0  501    0  0.00000000000E+00 -0.00000000000E+00 -0.46083967614E+02  0.46101463871E+02  0.12700000000E+01 0. -1.
         25    2    1    2    0    0  0.00000000000E+00  0.00000000000E+00  0.38620206676E+02  0.13081515841E+03  0.12498434024E+03 0.  0.
    9000005    1    3    3    0    0 -0.41948415115E+02  0.45057304890E+02  0.81133160515E+01  0.62101981868E+02  0.10000000000E+01 0.  0.
    9000005    1    3    3    0    0  0.41948415115E+02 -0.45057304890E+02  0.30506890624E+02  0.68713176540E+02  0.10000000000E+01 0.  0.
<mgrwt>
<rscale>  0 0.12498434E+03</rscale>
<asrwt>0</asrwt>
<pdfrwt beam="2">  1        4 0.70919194E-02 0.12498434E+03</pdfrwt>
<pdfrwt beam="1">  1       -4 0.13033490E-01 0.12498434E+03</pdfrwt>
<totfact> 0.10330703E+04</totfact>
</mgrwt>
</event>
<event>
 5    1  0.3206665E-002  0.1249791E+03  0.7818608E-02  0.1235102E+00
         -4   -1    0    0    0  501 -0.00000000000E+00  0.00000000000E+00  0.43590432156E+03  0.43590617162E+03  0.12700000000E+01 0.  1.
          4   -1    0    0  501    0  0.00000000000E+00 -0.00000000000E+00 -0.89113667122E+01  0.90014085941E+01  0.12700000000E+01 0.  1.
         25    2    1    2    0    0  0.00000000000E+00  0.00000000000E+00  0.42699295485E+03  0.44490758021E+03  0.12497908401E+03 0.  0.
    9000005    1    3    3    0    0  0.15389703858E+02  0.60388065858E+02  0.22956771169E+03  0.23787790089E+03  0.10000000000E+01 0.  0.
    9000005    1    3    3    0    0 -0.15389703858E+02 -0.60388065858E+02  0.19742524316E+03  0.20702967932E+03  0.10000000000E+01 0.  0.
<mgrwt>
<rscale>  0 0.12497908E+03</rscale>
<asrwt>0</asrwt>
<pdfrwt beam="2">  1        4 0.13780481E-02 0.12497908E+03</pdfrwt>
<pdfrwt beam="1">  1       -4 0.67069271E-01 0.12497908E+03</pdfrwt>
<totfact> 0.60435347E+03</totfact>
</mgrwt>
</event>
<event>
 5    1  0.3206665E-002  0.1250013E+03  0.7818608E-02  0.1235067E+00
          4   -1    0    0  501    0  0.00000000000E+00  0.00000000000E+00  0.16290340690E+03  0.16290835731E+03  0.12700000000E+01 0. -1.
         -4   -1    0    0    0  501 -0.00000000000E+00 -0.00000000000E+00 -0.23957293743E+02  0.23990932110E+02  0.12700000000E+01 0. -1.
         25    2    1    2    0    0  0.00000000000E+00  0.00000000000E+00  0.13894611316E+03  0.18689928942E+03  0.12500128808E+03 0.  0.
    9000005    1    3    3    0    0 -0.17538409286E+02 -0.29349537157E+02  0.14768591205E+03  0.15159524976E+03  0.10000000000E+01 0.  0.
    9000005    1    3    3    0    0  0.17538409286E+02  0.29349537157E+02 -0.87397988885E+01  0.35304039659E+02  0.10000000000E+01 0.  0.
<mgrwt>
<rscale>  0 0.12500129E+03</rscale>
<asrwt>0</asrwt>
<pdfrwt beam="1">  1        4 0.25065030E-01 0.12500129E+03</pdfrwt>
<pdfrwt beam="2">  1       -4 0.36887061E-02 0.12500129E+03</pdfrwt>
<totfact> 0.92386979E+03</totfact>
</mgrwt>
</event>
<event>
 5    1  0.3206665E-002  0.1250025E+03  0.7818608E-02  0.1235065E+00
         -4   -1    0    0    0  501 -0.00000000000E+00  0.00000000000E+00  0.34481177454E+03  0.34481411335E+03  0.12700000000E+01 0.  1.
          4   -1    0    0  501    0  0.00000000000E+00 -0.00000000000E+00 -0.11291113082E+02  0.11362312029E+02  0.12700000000E+01 0.  1.
         25    2    1    2    0    0  0.00000000000E+00  0.00000000000E+00  0.33352066146E+03  0.35617642538E+03  0.12500245746E+03 0.  0.
    9000005    1    3    3    0    0  0.26847046860E+02  0.44299687661E+02  0.67147855050E+02  0.84811913607E+02  0.10000000000E+01 0.  0.
    9000005    1    3    3    0    0 -0.26847046860E+02 -0.44299687661E+02  0.26637280641E+03  0.27136451177E+03  0.10000000000E+01 0.  0.
<mgrwt>
<rscale>  0 0.12500246E+03</rscale>
<asrwt>0</asrwt>
<pdfrwt beam="2">  1        4 0.17427511E-02 0.12500246E+03</pdfrwt>
<pdfrwt beam="1">  1       -4 0.53053620E-01 0.12500246E+03</pdfrwt>
<totfact> 0.69046622E+03</totfact>
</mgrwt>
</event>
<event>
 5    1  0.3206665E-002  0.1250013E+03  0.7818608E-02  0.1235067E+00
          4   -1    0    0  501    0  0.00000000000E+00  0.00000000000E+00  0.35885409747E+02  0.35907875636E+02  0.12700000000E+01 0.  1.
         -4   -1    0    0    0  501 -0.00000000000E+00 -0.00000000000E+00 -0.10879545568E+03  0.10880286796E+03  0.12700000000E+01 0.  1.
         25    2    1    2    0    0  0.00000000000E+00  0.00000000000E+00 -0.72910045936E+02  0.14471074360E+03  0.12500129805E+03 0.  0.
    9000005    1    3    3    0    0 -0.17802222589E+02 -0.43659719688E+02 -0.83937169406E+02  0.96278443383E+02  0.10000000000E+01 0.  0.
    9000005    1    3    3    0    0  0.17802222589E+02  0.43659719688E+02  0.11027123469E+02  0.48432300218E+02  0.10000000000E+01 0.  0.
<mgrwt>
<rscale>  0 0.12500130E+03</rscale>
<asrwt>0</asrwt>
<pdfrwt beam="1">  1        4 0.55231307E-02 0.12500130E+03</pdfrwt>
<pdfrwt beam="2">  1       -4 0.16740061E-01 0.12500130E+03</pdfrwt>
<totfact> 0.10036575E+04</totfact>
</mgrwt>
</event>
<event>
 5    1  0.3206665E-002  0.1250015E+03  0.7818608E-02  0.1235067E+00
          4   -1    0    0  501    0  0.00000000000E+00  0.00000000000E+00  0.14562447493E+03  0.14563001270E+03  0.12700000000E+01 0.  1.
         -4   -1    0    0    0  501 -0.00000000000E+00 -0.00000000000E+00 -0.26803710094E+02  0.26833780479E+02  0.12700000000E+01 0.  1.
         25    2    1    2    0    0  0.00000000000E+00  0.00000000000E+00  0.11882076483E+03  0.17246379318E+03  0.12500154319E+03 0.  0.
    9000005    1    3    3    0    0  0.27395458608E+02  0.42433453731E+02  0.11018304574E+03  0.12121226306E+03  0.10000000000E+01 0.  0.
    9000005    1    3    3    0    0 -0.27395458608E+02 -0.42433453731E+02  0.86377190938E+01  0.51251530114E+02  0.10000000000E+01 0.  0.
<mgrwt>
<rscale>  0 0.12500154E+03</rscale>
<asrwt>0</asrwt>
<pdfrwt beam="1">  1        4 0.22406504E-01 0.12500154E+03</pdfrwt>
<pdfrwt beam="2">  1       -4 0.41263868E-02 0.12500154E+03</pdfrwt>
<totfact> 0.94988115E+03</totfact>
</mgrwt>
</event>
<event>
 5    1  0.3206665E-002  0.1250060E+03  0.7818608E-02  0.1235060E+00
         -4   -1    0    0    0  501 -0.00000000000E+00  0.00000000000E+00  0.31646273509E+02  0.31671746511E+02  0.12700000000E+01 0.  1.
          4   -1    0    0  501    0  0.00000000000E+00 -0.00000000000E+00 -0.12336823295E+03  0.12337476971E+03  0.12700000000E+01 0.  1.
         25    2    1    2    0    0  0.00000000000E+00  0.00000000000E+00 -0.91721959439E+02  0.15504651622E+03  0.12500601725E+03 0.  0.
    9000005    1    3    3    0    0 -0.55053616314E+02  0.29434044098E+02 -0.49447706309E+02  0.79645083216E+02  0.10000000000E+01 0.  0.
    9000005    1    3    3    0    0  0.55053616314E+02 -0.29434044098E+02 -0.42274253130E+02  0.75401433003E+02  0.10000000000E+01 0.  0.
<mgrwt>
<rscale>  0 0.12500602E+03</rscale>
<asrwt>0</asrwt>
<pdfrwt beam="2">  1        4 0.18982190E-01 0.12500602E+03</pdfrwt>
<pdfrwt beam="1">  1       -4 0.48711198E-02 0.12500602E+03</pdfrwt>
<totfact> 0.98293066E+03</totfact>
</mgrwt>
</event>
<event>
 5    1  0.3206665E-002  0.1249979E+03  0.7818608E-02  0.1235073E+00
          4   -1    0    0  501    0  0.00000000000E+00  0.00000000000E+00  0.77829646494E+01  0.78859012632E+01  0.12700000000E+01 0.  1.
         -4   -1    0    0    0  501 -0.00000000000E+00 -0.00000000000E+00 -0.49847937254E+03  0.49848099035E+03  0.12700000000E+01 0.  1.
         25    2    1    2    0    0  0.00000000000E+00  0.00000000000E+00 -0.49069640789E+03  0.50636689162E+03  0.12499785683E+03 0.  0.
    9000005    1    3    3    0    0  0.54382855674E+02 -0.22899814029E+02 -0.32868669078E+03  0.33394286512E+03  0.10000000000E+01 0.  0.
    9000005    1    3    3    0    0 -0.54382855674E+02  0.22899814029E+02 -0.16200971711E+03  0.17242402649E+03  0.10000000000E+01 0.  0.
<mgrwt>
<rscale>  0 0.12499786E+03</rscale>
<asrwt>0</asrwt>
<pdfrwt beam="1">  1        4 0.12054222E-02 0.12499786E+03</pdfrwt>
<pdfrwt beam="2">  1       -4 0.76697152E-01 0.12499786E+03</pdfrwt>
<totfact> 0.55376356E+03</totfact>
</mgrwt>
</event>
<event>
 5    1  0.3206665E-002  0.1249958E+03  0.7818608E-02  0.1235076E+00
          4   -1    0    0  501    0  0.00000000000E+00  0.00000000000E+00  0.10641394689E+03  0.10642152505E+03  0.12700000000E+01 0.  1.
         -4   -1    0    0    0  501 -0.00000000000E+00 -0.00000000000E+00 -0.36685704556E+02  0.36707680651E+02  0.12700000000E+01 0.  1.
         25    2    1    2    0    0  0.00000000000E+00  0.00000000000E+00  0.69728242337E+02  0.14312920570E+03  0.12499576691E+03 0.  0.
    9000005    1    3    3    0    0 -0.12325046870E+02  0.21595171530E+02 -0.30782864098E+02  0.39583366909E+02  0.10000000000E+01 0.  0.
    9000005    1    3    3    0    0  0.12325046870E+02 -0.21595171530E+02  0.10051110644E+03  0.10354583879E+03  0.10000000000E+01 0.  0.
<mgrwt>
<rscale>  0 0.12499577E+03</rscale>
<asrwt>0</asrwt>
<pdfrwt beam="1">  1        4 0.16373650E-01 0.12499577E+03</pdfrwt>
<pdfrwt beam="2">  1       -4 0.56462280E-02 0.12499577E+03</pdfrwt>
<totfact> 0.10070098E+04</totfact>
</mgrwt>
</event>
<event>
 5    1  0.3206665E-002  0.1249997E+03  0.7818608E-02  0.1235070E+00
         -4   -1    0    0    0  501 -0.00000000000E+00  0.00000000000E+00  0.65836362621E+01  0.67050105467E+01  0.12700000000E+01 0.  1.
          4   -1    0    0  501    0  0.00000000000E+00 -0.00000000000E+00 -0.58778259248E+03  0.58778396450E+03  0.12700000000E+01 0.  1.
         25    2    1    2    0    0  0.00000000000E+00  0.00000000000E+00 -0.58119895622E+03  0.59448897505E+03  0.12499965897E+03 0.  0.
    9000005    1    3    3    0    0  0.22919790009E+02  0.27519676571E+02 -0.53415573579E+03  0.53535595584E+03  0.10000000000E+01 0.  0.
    9000005    1    3    3    0    0 -0.22919790009E+02 -0.27519676571E+02 -0.47043220433E+02  0.59133019214E+02  0.10000000000E+01 0.  0.
<mgrwt>
<rscale>  0 0.12499966E+03</rscale>
<asrwt>0</asrwt>
<pdfrwt beam="2">  1        4 0.90437493E-01 0.12499966E+03</pdfrwt>
<pdfrwt beam="1">  1       -4 0.10223096E-02 0.12499966E+03</pdfrwt>
<totfact> 0.49217725E+03</totfact>
</mgrwt>
</event>
<event>
 5    1  0.3206665E-002  0.1250012E+03  0.7818608E-02  0.1235067E+00
         -4   -1    0    0    0  501 -0.00000000000E+00  0.00000000000E+00  0.10355503503E+02  0.10433089322E+02  0.12700000000E+01 0. -1.
          4   -1    0    0  501    0  0.00000000000E+00 -0.00000000000E+00 -0.37573540481E+03  0.37573755113E+03  0.12700000000E+01 0. -1.
         25    2    1    2    0    0  0.00000000000E+00  0.00000000000E+00 -0.36537990131E+03  0.38617064045E+03  0.12500116506E+03 0.  0.
    9000005    1    3    3    0    0 -0.80126790291E+01 -0.61212801127E+02 -0.15271976255E+03  0.16472867364E+03  0.10000000000E+01 0.  0.
    9000005    1    3    3    0    0  0.80126790291E+01  0.61212801127E+02 -0.21266013876E+03  0.22144196681E+03  0.10000000000E+01 0.  0.
<mgrwt>
<rscale>  0 0.12500117E+03</rscale>
<asrwt>0</asrwt>
<pdfrwt beam="2">  1        4 0.57811570E-01 0.12500117E+03</pdfrwt>
<pdfrwt beam="1">  1       -4 0.15992879E-02 0.12500117E+03</pdfrwt>
<totfact> 0.65918721E+03</totfact>
</mgrwt>
</event>
<event>
 5    1  0.3206665E-002  0.1249857E+03  0.7818608E-02  0.1235092E+00
          4   -1    0    0  501    0  0.00000000000E+00  0.00000000000E+00  0.89063702989E+02  0.89072757283E+02  0.12700000000E+01 0. -1.
         -4   -1    0    0    0  501 -0.00000000000E+00 -0.00000000000E+00 -0.43828572704E+02  0.43846968941E+02  0.12700000000E+01 0. -1.
         25    2    1    2    0    0  0.00000000000E+00  0.00000000000E+00  0.45235130284E+02  0.13291972622E+03  0.12498574562E+03 0.  0.
    9000005    1    3    3    0    0  0.51280160790E+02  0.35019297526E+02  0.30012612227E+02  0.68976539364E+02  0.10000000000E+01 0.  0.
    9000005    1    3    3    0    0 -0.51280160790E+02 -0.35019297526E+02  0.15222518057E+02  0.63943186861E+02  0.10000000000E+01 0.  0.
<mgrwt>
<rscale>  0 0.12498575E+03</rscale>
<asrwt>0</asrwt>
<pdfrwt beam="1">  1        4 0.13704220E-01 0.12498575E+03</pdfrwt>
<pdfrwt beam="2">  1       -4 0.67449690E-02 0.12498575E+03</pdfrwt>
<totfact> 0.10285413E+04</totfact>
</mgrwt>
</event>
<event>
 5    1  0.3206665E-002  0.1250022E+03  0.7818608E-02  0.1235066E+00
          4   -1    0    0  501    0  0.00000000000E+00  0.00000000000E+00  0.51797332884E+01  0.53331545017E+01  0.12700000000E+01 0. -1.
         -4   -1    0    0    0  501 -0.00000000000E+00 -0.00000000000E+00 -0.74300776741E+03  0.74300885279E+03  0.12700000000E+01 0. -1.
         25    2    1    2    0    0  0.00000000000E+00  0.00000000000E+00 -0.73782803412E+03  0.74834200729E+03  0.12500220778E+03 0.  0.
    9000005    1    3    3    0    0 -0.21951178188E+02 -0.52385707824E+02 -0.52494257659E+03  0.52800741029E+03  0.10000000000E+01 0.  0.
    9000005    1    3    3    0    0  0.21951178188E+02  0.52385707824E+02 -0.21288545753E+03  0.22033459700E+03  0.10000000000E+01 0.  0.
<mgrwt>
<rscale>  0 0.12500221E+03</rscale>
<asrwt>0</asrwt>
<pdfrwt beam="1">  1        4 0.80876776E-03 0.12500221E+03</pdfrwt>
<pdfrwt beam="2">  1       -4 0.11432069E+00 0.12500221E+03</pdfrwt>
<totfact> 0.40651625E+03</totfact>
</mgrwt>
</event>
<event>
 5    1  0.3206665E-002  0.1249966E+03  0.7818608E-02  0.1235075E+00
         -4   -1    0    0    0  501 -0.00000000000E+00  0.00000000000E+00  0.64550565648E+02  0.64563057746E+02  0.12700000000E+01 0. -1.
          4   -1    0    0  501    0  0.00000000000E+00 -0.00000000000E+00 -0.60486250936E+02  0.60499582248E+02  0.12700000000E+01 0. -1.
         25    2    1    2    0    0  0.00000000000E+00  0.00000000000E+00  0.40643147125E+01  0.12506263999E+03  0.12499658103E+03 0.  0.
    9000005    1    3    3    0    0 -0.15923047539E+02  0.60074686482E+02  0.85567169421E+01  0.62743356649E+02  0.10000000000E+01 0.  0.
    9000005    1    3    3    0    0  0.15923047539E+02 -0.60074686482E+02 -0.44924022296E+01  0.62319283345E+02  0.10000000000E+01 0.  0.
<mgrwt>
<rscale>  0 0.12499658E+03</rscale>
<asrwt>0</asrwt>
<pdfrwt beam="2">  1        4 0.93075634E-02 0.12499658E+03</pdfrwt>
<pdfrwt beam="1">  1       -4 0.99328427E-02 0.12499658E+03</pdfrwt>
<totfact> 0.10452310E+04</totfact>
</mgrwt>
</event>
<event>
 5    1  0.3206665E-002  0.1250002E+03  0.7818608E-02  0.1235069E+00
          4   -1    0    0  501    0  0.00000000000E+00  0.00000000000E+00  0.57239604175E+02  0.57253691462E+02  0.12700000000E+01 0.  1.
         -4   -1    0    0    0  501 -0.00000000000E+00 -0.00000000000E+00 -0.68215689018E+02  0.68227510055E+02  0.12700000000E+01 0.  1.
         25    2    1    2    0    0  0.00000000000E+00  0.00000000000E+00 -0.10976084844E+02  0.12548120152E+03  0.12500022998E+03 0.  0.
    9000005    1    3    3    0    0 -0.51855137849E+02 -0.32564940823E+02 -0.18019411532E+02  0.63836743997E+02  0.10000000000E+01 0.  0.
    9000005    1    3    3    0    0  0.51855137849E+02  0.32564940823E+02  0.70433266886E+01  0.61644457520E+02  0.10000000000E+01 0.  0.
<mgrwt>
<rscale>  0 0.12500023E+03</rscale>
<asrwt>0</asrwt>
<pdfrwt beam="1">  1        4 0.88080859E-02 0.12500023E+03</pdfrwt>
<pdfrwt beam="2">  1       -4 0.10496714E-01 0.12500023E+03</pdfrwt>
<totfact> 0.10442315E+04</totfact>
</mgrwt>
</event>
<event>
 5    1  0.3206665E-002  0.1250023E+03  0.7818608E-02  0.1235066E+00
          4   -1    0    0  501    0  0.00000000000E+00  0.00000000000E+00  0.12709400538E+02  0.12772695958E+02  0.12700000000E+01 0. -1.
         -4   -1    0    0    0  501 -0.00000000000E+00 -0.00000000000E+00 -0.30653445338E+03  0.30653708423E+03  0.12700000000E+01 0. -1.
         25    2    1    2    0    0  0.00000000000E+00  0.00000000000E+00 -0.29382505284E+03  0.31930978019E+03  0.12500229617E+03 0.  0.
    9000005    1    3    3    0    0 -0.41868089914E+02  0.31391814487E+02 -0.59649228980E+02  0.79356244163E+02  0.10000000000E+01 0.  0.
    9000005    1    3    3    0    0  0.41868089914E+02 -0.31391814487E+02 -0.23417582386E+03  0.23995353602E+03  0.10000000000E+01 0.  0.
<mgrwt>
<rscale>  0 0.12500230E+03</rscale>
<asrwt>0</asrwt>
<pdfrwt beam="1">  1        4 0.19603639E-02 0.12500230E+03</pdfrwt>
<pdfrwt beam="2">  1       -4 0.47164212E-01 0.12500230E+03</pdfrwt>
<totfact> 0.73234567E+03</totfact>
</mgrwt>
</event>
<event>
 5    1  0.3206665E-002  0.1249990E+03  0.7818608E-02  0.1235071E+00
         -4   -1    0    0    0  501 -0.00000000000E+00  0.00000000000E+00  0.75950162013E+01  0.77004656416E+01  0.12700000000E+01 0.  1.
          4   -1    0    0  501    0  0.00000000000E+00 -0.00000000000E+00 -0.51065749162E+03  0.51065907086E+03  0.12700000000E+01 0.  1.
         25    2    1    2    0    0  0.00000000000E+00  0.00000000000E+00 -0.50306247542E+03  0.51835953650E+03  0.12499901961E+03 0.  0.
    9000005    1    3    3    0    0  0.45154046499E+02 -0.20891325710E+01 -0.43047101799E+03  0.43283894201E+03  0.10000000000E+01 0.  0.
    9000005    1    3    3    0    0 -0.45154046499E+02  0.20891325710E+01 -0.72591457431E+02  0.85520594491E+02  0.10000000000E+01 0.  0.
<mgrwt>
<rscale>  0 0.12499902E+03</rscale>
<asrwt>0</asrwt>
<pdfrwt beam="2">  1        4 0.78570897E-01 0.12499902E+03</pdfrwt>
<pdfrwt beam="1">  1       -4 0.11766974E-02 0.12499902E+03</pdfrwt>
<totfact> 0.54468694E+03</totfact>
</mgrwt>
</event>
<event>
 5    1  0.3206665E-002  0.1250008E+03  0.7818608E-02  0.1235068E+00
          4   -1    0    0  501    0  0.00000000000E+00  0.00000000000E+00  0.15397016557E+03  0.15397540318E+03  0.12700000000E+01 0.  1.
         -4   -1    0    0    0  501 -0.00000000000E+00 -0.00000000000E+00 -0.25348952879E+02  0.25380746877E+02  0.12700000000E+01 0.  1.
         25    2    1    2    0    0  0.00000000000E+00  0.00000000000E+00  0.12862121269E+03  0.17935615006E+03  0.12500084884E+03 0.  0.
    9000005    1    3    3    0    0  0.24395017975E+02  0.54564011108E+02  0.90492193995E+02  0.10845360936E+03  0.10000000000E+01 0.  0.
    9000005    1    3    3    0    0 -0.24395017975E+02 -0.54564011108E+02  0.38129018692E+02  0.70902540692E+02  0.10000000000E+01 0.  0.
<mgrwt>
<rscale>  0 0.12500085E+03</rscale>
<asrwt>0</asrwt>
<pdfrwt beam="1">  1        4 0.23690566E-01 0.12500085E+03</pdfrwt>
<pdfrwt beam="2">  1       -4 0.39026875E-02 0.12500085E+03</pdfrwt>
<totfact> 0.93731242E+03</totfact>
</mgrwt>
</event>
<event>
 5    1  0.3206665E-002  0.1249998E+03  0.7818608E-02  0.1235070E+00
         -4   -1    0    0    0  501 -0.00000000000E+00  0.00000000000E+00  0.32391912023E+02  0.32416799109E+02  0.12700000000E+01 0. -1.
          4   -1    0    0  501    0  0.00000000000E+00 -0.00000000000E+00 -0.12051854250E+03  0.12052523382E+03  0.12700000000E+01 0. -1.
         25    2    1    2    0    0  0.00000000000E+00  0.00000000000E+00 -0.88126630478E+02  0.15294203293E+03  0.12499984974E+03 0.  0.
    9000005    1    3    3    0    0 -0.32639085919E+02 -0.85092439591E+01  0.20303648298E+02  0.39382169780E+02  0.10000000000E+01 0.  0.
    9000005    1    3    3    0    0  0.32639085919E+02  0.85092439591E+01 -0.10843027878E+03  0.11355986315E+03  0.10000000000E+01 0.  0.
<mgrwt>
<rscale>  0 0.12499985E+03</rscale>
<asrwt>0</asrwt>
<pdfrwt beam="2">  1        4 0.18543743E-01 0.12499985E+03</pdfrwt>
<pdfrwt beam="1">  1       -4 0.49858002E-02 0.12499985E+03</pdfrwt>
<totfact> 0.98720782E+03</totfact>
</mgrwt>
</event>
<event>
 4    1  0.3206665E-002  0.1249112E+03  0.7818608E-02  0.1235208E+00
         -4   -1    0    0    0  501 -0.00000000000E+00  0.00000000000E+00  0.42067806087E+02  0.42086971963E+02  0.12700000000E+01 0. -1.
          4   -1    0    0  501    0  0.00000000000E+00 -0.00000000000E+00 -0.92679573360E+02  0.92688274437E+02  0.12700000000E+01 0. -1.
    9000005    1    1    2    0    0  0.40134853810E+02 -0.46622367109E+02 -0.13722547864E+02  0.63037765863E+02  0.10000000000E+01 0.  0.
    9000005    1    1    2    0    0 -0.40134853810E+02  0.46622367109E+02 -0.36889219408E+02  0.71737480536E+02  0.10000000000E+01 0.  0.
<mgrwt>
<rscale>  0 0.12491123E+03</rscale>
<asrwt>0</asrwt>
<pdfrwt beam="2">  1        4 0.14260539E-01 0.12491123E+03</pdfrwt>
<pdfrwt beam="1">  1       -4 0.64741138E-02 0.12491123E+03</pdfrwt>
<totfact> 0.10263343E+04</totfact>
</mgrwt>
</event>
<event>
 5    1  0.3206665E-002  0.1250051E+03  0.7818608E-02  0.1235061E+00
          4   -1    0    0  501    0  0.00000000000E+00  0.00000000000E+00  0.43538481721E+02  0.43557000478E+02  0.12700000000E+01 0.  1.
         -4   -1    0    0    0  501 -0.00000000000E+00 -0.00000000000E+00 -0.89684770085E+02  0.89693761685E+02  0.12700000000E+01 0.  1.
         25    2    1    2    0    0  0.00000000000E+00  0.00000000000E+00 -0.46146288364E+02  0.13325076216E+03  0.12500514264E+03 0.  0.
    9000005    1    3    3    0    0  0.10293353057E+02  0.19150283408E+02  0.39382464619E+02  0.44996277526E+02  0.10000000000E+01 0.  0.
    9000005    1    3    3    0    0 -0.10293353057E+02 -0.19150283408E+02 -0.85528752983E+02  0.88254484637E+02  0.10000000000E+01 0.  0.
<mgrwt>
<rscale>  0 0.12500514E+03</rscale>
<asrwt>0</asrwt>
<pdfrwt beam="1">  1        4 0.67003442E-02 0.12500514E+03</pdfrwt>
<pdfrwt beam="2">  1       -4 0.13799773E-01 0.12500514E+03</pdfrwt>
<totfact> 0.10273882E+04</totfact>
</mgrwt>
</event>
<event>
 5    1  0.3206665E-002  0.1250003E+03  0.7818608E-02  0.1235069E+00
         -4   -1    0    0    0  501 -0.00000000000E+00  0.00000000000E+00  0.45195285783E+01  0.46945754409E+01  0.12700000000E+01 0.  1.
          4   -1    0    0  501    0  0.00000000000E+00 -0.00000000000E+00 -0.84771304528E+03  0.84771399661E+03  0.12700000000E+01 0.  1.
         25    2    1    2    0    0  0.00000000000E+00  0.00000000000E+00 -0.84319351670E+03  0.85240857205E+03  0.12500026835E+03 0.  0.
    9000005    1    3    3    0    0 -0.34105956570E+02 -0.93598618354E+01 -0.70259988004E+02  0.78665679946E+02  0.10000000000E+01 0.  0.
    9000005    1    3    3    0    0  0.34105956570E+02  0.93598618354E+01 -0.77293352870E+03  0.77374289210E+03  0.10000000000E+01 0.  0.
<mgrwt>
<rscale>  0 0.12500027E+03</rscale>
<asrwt>0</asrwt>
<pdfrwt beam="2">  1        4 0.13043081E+00 0.12500027E+03</pdfrwt>
<pdfrwt beam="1">  1       -4 0.70885109E-03 0.12500027E+03</pdfrwt>
<totfact> 0.36028784E+03</totfact>
</mgrwt>
</event>
<event>
 5    1  0.3206665E-002  0.1250028E+03  0.7818608E-02  0.1235065E+00
         -4   -1    0    0    0  501 -0.00000000000E+00  0.00000000000E+00  0.14801576609E+02  0.14855960761E+02  0.12700000000E+01 0.  1.
          4   -1    0    0  501    0  0.00000000000E+00 -0.00000000000E+00 -0.26337975279E+03  0.26338281470E+03  0.12700000000E+01 0.  1.
         25    2    1    2    0    0  0.00000000000E+00  0.00000000000E+00 -0.24857817618E+03  0.27823877546E+03  0.12500282596E+03 0.  0.
    9000005    1    3    3    0    0 -0.14120689809E+01 -0.51083835326E+02 -0.20435430622E+03  0.21064955409E+03  0.10000000000E+01 0.  0.
    9000005    1    3    3    0    0  0.14120689809E+01  0.51083835326E+02 -0.44223869961E+02  0.67589221366E+02  0.10000000000E+01 0.  0.
<mgrwt>
<rscale>  0 0.12500283E+03</rscale>
<asrwt>0</asrwt>
<pdfrwt beam="2">  1        4 0.40524378E-01 0.12500283E+03</pdfrwt>
<pdfrwt beam="1">  1       -4 0.22815847E-02 0.12500283E+03</pdfrwt>
<totfact> 0.78407287E+03</totfact>
</mgrwt>
</event>
<event>
 5    1  0.3206665E-002  0.1250016E+03  0.7818608E-02  0.1235067E+00
         -4   -1    0    0    0  501 -0.00000000000E+00  0.00000000000E+00  0.44479351856E+01  0.46256921012E+01  0.12700000000E+01 0. -1.
          4   -1    0    0  501    0  0.00000000000E+00 -0.00000000000E+00 -0.86085547000E+03  0.86085640680E+03  0.12700000000E+01 0. -1.
         25    2    1    2    0    0  0.00000000000E+00  0.00000000000E+00 -0.85640753481E+03  0.86548209890E+03  0.12500159132E+03 0.  0.
    9000005    1    3    3    0    0  0.20413444495E+02 -0.48905185241E+02 -0.19888967884E+03  0.20583131493E+03  0.10000000000E+01 0.  0.
    9000005    1    3    3    0    0 -0.20413444495E+02  0.48905185241E+02 -0.65751785597E+03  0.65965078396E+03  0.10000000000E+01 0.  0.
<mgrwt>
<rscale>  0 0.12500159E+03</rscale>
<asrwt>0</asrwt>
<pdfrwt beam="2">  1        4 0.13245292E+00 0.12500159E+03</pdfrwt>
<pdfrwt beam="1">  1       -4 0.69804407E-03 0.12500159E+03</pdfrwt>
<totfact> 0.35500824E+03</totfact>
</mgrwt>
</event>
<event>
 5    1  0.3206665E-002  0.1249984E+03  0.7818608E-02  0.1235072E+00
         -4   -1    0    0    0  501 -0.00000000000E+00  0.00000000000E+00  0.71531598246E+03  0.71531710986E+03  0.12700000000E+01 0. -1.
          4   -1    0    0  501    0  0.00000000000E+00 -0.00000000000E+00 -0.53857462811E+01  0.55334585030E+01  0.12700000000E+01 0. -1.
         25    2    1    2    0    0  0.00000000000E+00  0.00000000000E+00  0.70993023618E+03  0.72085056836E+03  0.12499840668E+03 0.  0.
    9000005    1    3    3    0    0  0.45302379429E+01 -0.22958494257E+02  0.68912248188E+03  0.68952042069E+03  0.10000000000E+01 0.  0.
    9000005    1    3    3    0    0 -0.45302379429E+01  0.22958494257E+02  0.20807754292E+02  0.31330147671E+02  0.10000000000E+01 0.  0.
<mgrwt>
<rscale>  0 0.12499841E+03</rscale>
<asrwt>0</asrwt>
<pdfrwt beam="2">  1        4 0.84002602E-03 0.12499841E+03</pdfrwt>
<pdfrwt beam="1">  1       -4 0.11006000E+00 0.12499841E+03</pdfrwt>
<totfact> 0.42010098E+03</totfact>
</mgrwt>
</event>
<event>
 5    1  0.3206665E-002  0.1249975E+03  0.7818608E-02  0.1235073E+00
         -4   -1    0    0    0  501 -0.00000000000E+00  0.00000000000E+00  0.25831139237E+02  0.25862340464E+02  0.12700000000E+01 0.  1.
          4   -1    0    0  501    0  0.00000000000E+00 -0.00000000000E+00 -0.15109133058E+03  0.15109666799E+03  0.12700000000E+01 0.  1.
         25    2    1    2    0    0  0.00000000000E+00  0.00000000000E+00 -0.12526019135E+03  0.17695900845E+03  0.12499750052E+03 0.  0.
    9000005    1    3    3    0    0 -0.30456524501E+01  0.64989651855E+01  0.25252647936E+02  0.26271824739E+02  0.10000000000E+01 0.  0.
    9000005    1    3    3    0    0  0.30456524501E+01 -0.64989651855E+01 -0.15051283928E+03  0.15068718371E+03  0.10000000000E+01 0.  0.
<mgrwt>
<rscale>  0 0.12499750E+03</rscale>
<asrwt>0</asrwt>
<pdfrwt beam="2">  1        4 0.23247630E-01 0.12499750E+03</pdfrwt>
<pdfrwt beam="1">  1       -4 0.39768322E-02 0.12499750E+03</pdfrwt>
<totfact> 0.94172552E+03</totfact>
</mgrwt>
</event>
<event>
 5    1  0.3206665E-002  0.1250051E+03  0.7818608E-02  0.1235061E+00
         -4   -1    0    0    0  501 -0.00000000000E+00  0.00000000000E+00  0.11620414026E+04  0.11620420966E+04  0.12700000000E+01 0. -1.
          4   -1    0    0  501    0  0.00000000000E+00 -0.00000000000E+00 -0.32411506768E+01  0.34810857084E+01  0.12700000000E+01 0. -1.
         25    2    1    2    0    0  0.00000000000E+00  0.00000000000E+00  0.11588002519E+04  0.11655231823E+04  0.12500505841E+03 0.  0.
    9000005    1    3    3    0    0 -0.33798434162E+02  0.49704643662E+02  0.41988930465E+03  0.42417085463E+03  0.10000000000E+01 0.  0.
    9000005    1    3    3    0    0  0.33798434162E+02 -0.49704643662E+02  0.73891094726E+03  0.74135232766E+03  0.10000000000E+01 0.  0.
<mgrwt>
<rscale>  0 0.12500506E+03</rscale>
<asrwt>0</asrwt>
<pdfrwt beam="2">  1        4 0.51714796E-03 0.12500506E+03</pdfrwt>
<pdfrwt beam="1">  1       -4 0.17879429E+00 0.12500506E+03</pdfrwt>
<totfact> 0.25630566E+03</totfact>
</mgrwt>
</event>
<event>
 5    1  0.3206665E-002  0.1250002E+03  0.7818608E-02  0.1235069E+00
         -4   -1    0    0    0  501 -0.00000000000E+00  0.00000000000E+00  0.36658596793E+03  0.36658816782E+03  0.12700000000E+01 0. -1.
          4   -1    0    0  501    0  0.00000000000E+00 -0.00000000000E+00 -0.10615704332E+02  0.10691402081E+02  0.12700000000E+01 0. -1.
         25    2    1    2    0    0  0.00000000000E+00  0.00000000000E+00  0.35597026360E+03  0.37727956990E+03  0.12500018119E+03 0.  0.
    9000005    1    3    3    0    0 -0.21588851436E+01  0.20943251172E+02  0.39657766548E+00  0.21081694157E+02  0.10000000000E+01 0.  0.
    9000005    1    3    3    0    0  0.21588851436E+01 -0.20943251172E+02  0.35557368593E+03  0.35619787574E+03  0.10000000000E+01 0.  0.
<mgrwt>
<rscale>  0 0.12500018E+03</rscale>
<asrwt>0</asrwt>
<pdfrwt beam="2">  1        4 0.16391771E-02 0.12500018E+03</pdfrwt>
<pdfrwt beam="1">  1       -4 0.56403845E-01 0.12500018E+03</pdfrwt>
<totfact> 0.66823895E+03</totfact>
</mgrwt>
</event>
<event>
 5    1  0.3206665E-002  0.1249951E+03  0.7818608E-02  0.1235077E+00
         -4   -1    0    0    0  501 -0.00000000000E+00  0.00000000000E+00  0.26436284636E+02  0.26466772477E+02  0.12700000000E+01 0.  1.
          4   -1    0    0  501    0  0.00000000000E+00 -0.00000000000E+00 -0.14763092944E+03  0.14763639195E+03  0.12700000000E+01 0.  1.
         25    2    1    2    0    0  0.00000000000E+00  0.00000000000E+00 -0.12119464480E+03  0.17410316442E+03  0.12499507964E+03 0.  0.
    9000005    1    3    3    0    0 -0.17516618169E+02 -0.52334854622E+02 -0.19769689637E+02  0.58631131225E+02  0.10000000000E+01 0.  0.
    9000005    1    3    3    0    0  0.17516618169E+02  0.52334854622E+02 -0.10142495517E+03  0.11547203320E+03  0.10000000000E+01 0.  0.
<mgrwt>
<rscale>  0 0.12499508E+03</rscale>
<asrwt>0</asrwt>
<pdfrwt beam="2">  1        4 0.22715216E-01 0.12499508E+03</pdfrwt>
<pdfrwt beam="1">  1       -4 0.40698862E-02 0.12499508E+03</pdfrwt>
<totfact> 0.94699805E+03</totfact>
</mgrwt>
</event>
<event>
 5    1  0.3206665E-002  0.1249992E+03  0.7818608E-02  0.1235071E+00
         -4   -1    0    0    0  501 -0.00000000000E+00  0.00000000000E+00  0.40176471420E+02  0.40196539102E+02  0.12700000000E+01 0.  1.
          4   -1    0    0  501    0  0.00000000000E+00 -0.00000000000E+00 -0.97177591966E+02  0.97185890336E+02  0.12700000000E+01 0.  1.
         25    2    1    2    0    0  0.00000000000E+00  0.00000000000E+00 -0.57001120547E+02  0.13738242944E+03  0.12499921670E+03 0.  0.
    9000005    1    3    3    0    0 -0.31657712293E+02  0.51640846354E+02 -0.45392365269E+02  0.75699766080E+02  0.10000000000E+01 0.  0.
    9000005    1    3    3    0    0  0.31657712293E+02 -0.51640846354E+02 -0.11608755278E+02  0.61682663358E+02  0.10000000000E+01 0.  0.
<mgrwt>
<rscale>  0 0.12499922E+03</rscale>
<asrwt>0</asrwt>
<pdfrwt beam="2">  1        4 0.14952581E-01 0.12499922E+03</pdfrwt>
<pdfrwt beam="1">  1       -4 0.61831776E-02 0.12499922E+03</pdfrwt>
<totfact> 0.10188276E+04</totfact>
</mgrwt>
</event>
<event>
 5    1  0.3206665E-002  0.1250021E+03  0.7818608E-02  0.1235066E+00
          4   -1    0    0  501    0  0.00000000000E+00  0.00000000000E+00  0.44175627800E+03  0.44175810355E+03  0.12700000000E+01 0.  1.
         -4   -1    0    0    0  501 -0.00000000000E+00 -0.00000000000E+00 -0.87953834661E+01  0.88866006052E+01  0.12700000000E+01 0.  1.
         25    2    1    2    0    0  0.00000000000E+00  0.00000000000E+00  0.43296089453E+03  0.45064470415E+03  0.12500205273E+03 0.  0.
    9000005    1    3    3    0    0 -0.32890828707E+02 -0.45992767105E+02  0.12053895914E+03  0.13314571683E+03  0.10000000000E+01 0.  0.
    9000005    1    3    3    0    0  0.32890828707E+02  0.45992767105E+02  0.31242193539E+03  0.31749898732E+03  0.10000000000E+01 0.  0.
<mgrwt>
<rscale>  0 0.12500205E+03</rscale>
<asrwt>0</asrwt>
<pdfrwt beam="1">  1        4 0.67969644E-01 0.12500205E+03</pdfrwt>
<pdfrwt beam="2">  1       -4 0.13602934E-02 0.12500205E+03</pdfrwt>
<totfact> 0.59905284E+03</totfact>
</mgrwt>
</event>
<event>
 5    1  0.3206665E-002  0.1250003E+03  0.7818608E-02  0.1235069E+00
         -4   -1    0    0    0  501 -0.00000000000E+00  0.00000000000E+00  0.17531377368E+03  0.17531837366E+03  0.12700000000E+01 0.  1.
          4   -1    0    0  501    0  0.00000000000E+00 -0.00000000000E+00 -0.22258586680E+02  0.22294788202E+02  0.12700000000E+01 0.  1.
         25    2    1    2    0    0  0.00000000000E+00  0.00000000000E+00  0.15305518700E+03  0.19761316186E+03  0.12500028589E+03 0.  0.
    9000005    1    3    3    0    0 -0.58621356809E+02  0.71830938385E+01  0.10881855256E+03  0.12381654854E+03  0.10000000000E+01 0.  0.
    9000005    1    3    3    0    0  0.58621356809E+02 -0.71830938385E+01  0.44236634449E+02  0.73796613327E+02  0.10000000000E+01 0.  0.
<mgrwt>
<rscale>  0 0.12500029E+03</rscale>
<asrwt>0</asrwt>
<pdfrwt beam="2">  1        4 0.34275364E-02 0.12500029E+03</pdfrwt>
<pdfrwt beam="1">  1       -4 0.26974489E-01 0.12500029E+03</pdfrwt>
<totfact> 0.90538682E+03</totfact>
</mgrwt>
</event>
<event>
 5    1  0.3206665E-002  0.1250022E+03  0.7818608E-02  0.1235066E+00
         -4   -1    0    0    0  501 -0.00000000000E+00  0.00000000000E+00  0.14747812463E+03  0.14748359280E+03  0.12700000000E+01 0.  1.
          4   -1    0    0  501    0  0.00000000000E+00 -0.00000000000E+00 -0.26466735119E+02  0.26497187924E+02  0.12700000000E+01 0.  1.
         25    2    1    2    0    0  0.00000000000E+00  0.00000000000E+00  0.12101138951E+03  0.17398078072E+03  0.12500222266E+03 0.  0.
    9000005    1    3    3    0    0 -0.21527907905E+02 -0.23762267046E+02 -0.14152170355E+02  0.35062516734E+02  0.10000000000E+01 0.  0.
    9000005    1    3    3    0    0  0.21527907905E+02  0.23762267046E+02  0.13516355986E+03  0.13891826399E+03  0.10000000000E+01 0.  0.
<mgrwt>
<rscale>  0 0.12500222E+03</rscale>
<asrwt>0</asrwt>
<pdfrwt beam="2">  1        4 0.40745686E-02 0.12500222E+03</pdfrwt>
<pdfrwt beam="1">  1       -4 0.22691705E-01 0.12500222E+03</pdfrwt>
<totfact> 0.94707117E+03</totfact>
</mgrwt>
</event>
<event>
 5    1  0.3206665E-002  0.1250395E+03  0.7818608E-02  0.1235008E+00
         -4   -1    0    0    0  501 -0.00000000000E+00  0.00000000000E+00  0.39313409030E+03  0.39313614163E+03  0.12700000000E+01 0.  1.
          4   -1    0    0  501    0  0.00000000000E+00 -0.00000000000E+00 -0.98998220033E+01  0.99809506410E+01  0.12700000000E+01 0.  1.
         25    2    1    2    0    0  0.00000000000E+00  0.00000000000E+00  0.38323426829E+03  0.40311709227E+03  0.12503953648E+03 0.  0.
    9000005    1    3    3    0    0  0.46058947381E+02  0.10934036619E+02  0.59998312263E+02  0.76431520102E+02  0.10000000000E+01 0.  0.
    9000005    1    3    3    0    0 -0.46058947381E+02 -0.10934036619E+02  0.32323595603E+03  0.32668557217E+03  0.10000000000E+01 0.  0.
<mgrwt>
<rscale>  0 0.12503954E+03</rscale>
<asrwt>0</asrwt>
<pdfrwt beam="2">  1        4 0.15294480E-02 0.12503954E+03</pdfrwt>
<pdfrwt beam="1">  1       -4 0.60488567E-01 0.12503954E+03</pdfrwt>
<totfact> 0.64194707E+03</totfact>
</mgrwt>
</event>
<event>
 5    1  0.3206665E-002  0.1249997E+03  0.7818608E-02  0.1235070E+00
         -4   -1    0    0    0  501 -0.00000000000E+00  0.00000000000E+00  0.44384969702E+02  0.44403135424E+02  0.12700000000E+01 0.  1.
          4   -1    0    0  501    0  0.00000000000E+00 -0.00000000000E+00 -0.87967186492E+02  0.87976353638E+02  0.12700000000E+01 0.  1.
         25    2    1    2    0    0  0.00000000000E+00  0.00000000000E+00 -0.43582216790E+02  0.13237948906E+03  0.12499967801E+03 0.  0.
    9000005    1    3    3    0    0  0.33348344047E+01  0.62210246719E+02 -0.26978663933E+02  0.67897601025E+02  0.10000000000E+01 0.  0.
    9000005    1    3    3    0    0 -0.33348344047E+01 -0.62210246719E+02 -0.16603552857E+02  0.64481888037E+02  0.10000000000E+01 0.  0.
<mgrwt>
<rscale>  0 0.12499968E+03</rscale>
<asrwt>0</asrwt>
<pdfrwt beam="2">  1        4 0.13535516E-01 0.12499968E+03</pdfrwt>
<pdfrwt beam="1">  1       -4 0.68305594E-02 0.12499968E+03</pdfrwt>
<totfact> 0.10293680E+04</totfact>
</mgrwt>
</event>
<event>
 5    1  0.3206665E-002  0.1249979E+03  0.7818608E-02  0.1235073E+00
          4   -1    0    0  501    0  0.00000000000E+00  0.00000000000E+00  0.56723121445E+01  0.58127467746E+01  0.12700000000E+01 0. -1.
         -4   -1    0    0    0  501 -0.00000000000E+00 -0.00000000000E+00 -0.68006752748E+03  0.68006871331E+03  0.12700000000E+01 0. -1.
         25    2    1    2    0    0  0.00000000000E+00  0.00000000000E+00 -0.67439521533E+03  0.68588146009E+03  0.12499788330E+03 0.  0.
    9000005    1    3    3    0    0  0.42615031104E+01  0.55686624451E+02 -0.49102930826E+03  0.49419625871E+03  0.10000000000E+01 0.  0.
    9000005    1    3    3    0    0 -0.42615031104E+01 -0.55686624451E+02 -0.18336590707E+03  0.19168520138E+03  0.10000000000E+01 0.  0.
<mgrwt>
<rscale>  0 0.12499788E+03</rscale>
<asrwt>0</asrwt>
<pdfrwt beam="1">  1        4 0.88355783E-03 0.12499788E+03</pdfrwt>
<pdfrwt beam="2">  1       -4 0.10463660E+00 0.12499788E+03</pdfrwt>
<totfact> 0.43844598E+03</totfact>
</mgrwt>
</event>
<event>
 5    1  0.3206665E-002  0.1250024E+03  0.7818608E-02  0.1235065E+00
         -4   -1    0    0    0  501 -0.00000000000E+00  0.00000000000E+00  0.13946097992E+02  0.14003804811E+02  0.12700000000E+01 0.  1.
          4   -1    0    0  501    0  0.00000000000E+00 -0.00000000000E+00 -0.27946977047E+03  0.27947265609E+03  0.12700000000E+01 0.  1.
         25    2    1    2    0    0  0.00000000000E+00  0.00000000000E+00 -0.26552367247E+03  0.29347646090E+03  0.12500244982E+03 0.  0.
    9000005    1    3    3    0    0  0.16234362031E+02 -0.61838260837E+00 -0.27443672841E+03  0.27491899681E+03  0.10000000000E+01 0.  0.
    9000005    1    3    3    0    0 -0.16234362031E+02  0.61838260837E+00  0.89130559336E+01  0.18557464096E+02  0.10000000000E+01 0.  0.
<mgrwt>
<rscale>  0 0.12500245E+03</rscale>
<asrwt>0</asrwt>
<pdfrwt beam="2">  1        4 0.43000006E-01 0.12500245E+03</pdfrwt>
<pdfrwt beam="1">  1       -4 0.21502147E-02 0.12500245E+03</pdfrwt>
<totfact> 0.76420338E+03</totfact>
</mgrwt>
</event>
<event>
 5    1  0.3206665E-002  0.1250032E+03  0.7818608E-02  0.1235064E+00
         -4   -1    0    0    0  501 -0.00000000000E+00  0.00000000000E+00  0.11193128838E+04  0.11193136043E+04  0.12700000000E+01 0.  1.
          4   -1    0    0  501    0  0.00000000000E+00 -0.00000000000E+00 -0.33737624202E+01  0.36048818105E+01  0.12700000000E+01 0.  1.
         25    2    1    2    0    0  0.00000000000E+00  0.00000000000E+00  0.11159391214E+04  0.11229184861E+04  0.12500321513E+03 0.  0.
    9000005    1    3    3    0    0 -0.17431683545E+02  0.57537950523E+02  0.71120257822E+03  0.71373985920E+03  0.10000000000E+01 0.  0.
    9000005    1    3    3    0    0  0.17431683545E+02 -0.57537950523E+02  0.40473654315E+03  0.40917862689E+03  0.10000000000E+01 0.  0.
<mgrwt>
<rscale>  0 0.12500322E+03</rscale>
<asrwt>0</asrwt>
<pdfrwt beam="2">  1        4 0.53687461E-03 0.12500322E+03</pdfrwt>
<pdfrwt beam="1">  1       -4 0.17221969E+00 0.12500322E+03</pdfrwt>
<totfact> 0.26820274E+03</totfact>
</mgrwt>
</event>
<event>
 5    1  0.3206665E-002  0.1250016E+03  0.7818608E-02  0.1235067E+00
         -4   -1    0    0    0  501 -0.00000000000E+00  0.00000000000E+00  0.16281489802E+03  0.16281985111E+03  0.12700000000E+01 0.  1.
          4   -1    0    0  501    0  0.00000000000E+00 -0.00000000000E+00 -0.23970464375E+02  0.24004084285E+02  0.12700000000E+01 0.  1.
         25    2    1    2    0    0  0.00000000000E+00  0.00000000000E+00  0.13884443364E+03  0.18682393540E+03  0.12500162432E+03 0.  0.
    9000005    1    3    3    0    0 -0.11711789390E+02  0.60956996697E+02  0.58600228691E+02  0.85369246568E+02  0.10000000000E+01 0.  0.
    9000005    1    3    3    0    0  0.11711789390E+02 -0.60956996697E+02  0.80244204949E+02  0.10145468883E+03  0.10000000000E+01 0.  0.
<mgrwt>
<rscale>  0 0.12500162E+03</rscale>
<asrwt>0</asrwt>
<pdfrwt beam="2">  1        4 0.36907308E-02 0.12500162E+03</pdfrwt>
<pdfrwt beam="1">  1       -4 0.25051414E-01 0.12500162E+03</pdfrwt>
<totfact> 0.92399531E+03</totfact>
</mgrwt>
</event>
<event>
 5    1  0.3206665E-002  0.1250040E+03  0.7818608E-02  0.1235063E+00
         -4   -1    0    0    0  501 -0.00000000000E+00  0.00000000000E+00  0.29968551790E+03  0.29968820888E+03  0.12700000000E+01 0. -1.
          4   -1    0    0  501    0  0.00000000000E+00 -0.00000000000E+00 -0.13001632876E+02  0.13063512447E+02  0.12700000000E+01 0. -1.
         25    2    1    2    0    0  0.00000000000E+00  0.00000000000E+00  0.28668388503E+03  0.31275172133E+03  0.12500395697E+03 0.  0.
    9000005    1    3    3    0    0  0.47090515610E+02  0.10061999578E+02  0.24300366697E+03  0.24773078666E+03  0.10000000000E+01 0.  0.
    9000005    1    3    3    0    0 -0.47090515610E+02 -0.10061999578E+02  0.43680218056E+02  0.65020934669E+02  0.10000000000E+01 0.  0.
<mgrwt>
<rscale>  0 0.12500396E+03</rscale>
<asrwt>0</asrwt>
<pdfrwt beam="2">  1        4 0.20052179E-02 0.12500396E+03</pdfrwt>
<pdfrwt beam="1">  1       -4 0.46110437E-01 0.12500396E+03</pdfrwt>
<totfact> 0.74020085E+03</totfact>
</mgrwt>
</event>
<event>
 5    1  0.3206665E-002  0.1249929E+03  0.7818608E-02  0.1235080E+00
         -4   -1    0    0    0  501 -0.00000000000E+00  0.00000000000E+00  0.18881972661E+02  0.18924634516E+02  0.12700000000E+01 0.  1.
          4   -1    0    0  501    0  0.00000000000E+00 -0.00000000000E+00 -0.20657557597E+03  0.20657947983E+03  0.12700000000E+01 0.  1.
         25    2    1    2    0    0  0.00000000000E+00  0.00000000000E+00 -0.18769360330E+03  0.22550411434E+03  0.12499286725E+03 0.  0.
    9000005    1    3    3    0    0 -0.38950730749E+02  0.40604276310E+01 -0.59952451544E+01  0.39630663165E+02  0.10000000000E+01 0.  0.
    9000005    1    3    3    0    0  0.38950730749E+02 -0.40604276310E+01 -0.18169835815E+03  0.18587345118E+03  0.10000000000E+01 0.  0.
<mgrwt>
<rscale>  0 0.12499287E+03</rscale>
<asrwt>0</asrwt>
<pdfrwt beam="2">  1        4 0.31784438E-01 0.12499287E+03</pdfrwt>
<pdfrwt beam="1">  1       -4 0.29085010E-02 0.12499287E+03</pdfrwt>
<totfact> 0.86018454E+03</totfact>
</mgrwt>
</event>
<event>
 5    1  0.3206665E-002  0.1249992E+03  0.7818608E-02  0.1235070E+00
         -4   -1    0    0    0  501 -0.00000000000E+00  0.00000000000E+00  0.31755691136E+02  0.31781076437E+02  0.12700000000E+01 0.  1.
          4   -1    0    0  501    0  0.00000000000E+00 -0.00000000000E+00 -0.12293015623E+03  0.12293671628E+03  0.12700000000E+01 0.  1.
         25    2    1    2    0    0  0.00000000000E+00  0.00000000000E+00 -0.91174465095E+02  0.15471779272E+03  0.12499924920E+03 0.  0.
    9000005    1    3    3    0    0  0.96558224784E+01  0.24002131037E+02 -0.11599622220E+03  0.11885058168E+03  0.10000000000E+01 0.  0.
    9000005    1    3    3    0    0 -0.96558224784E+01 -0.24002131037E+02  0.24821757103E+02  0.35867211039E+02  0.10000000000E+01 0.  0.
<mgrwt>
<rscale>  0 0.12499925E+03</rscale>
<asrwt>0</asrwt>
<pdfrwt beam="2">  1        4 0.18914789E-01 0.12499925E+03</pdfrwt>
<pdfrwt beam="1">  1       -4 0.48879484E-02 0.12499925E+03</pdfrwt>
<totfact> 0.98372589E+03</totfact>
</mgrwt>
</event>
<event>
 5    1  0.3206665E-002  0.1250001E+03  0.7818608E-02  0.1235069E+00
          4   -1    0    0  501    0  0.00000000000E+00  0.00000000000E+00  0.92254388819E+01  0.93124444999E+01  0.12700000000E+01 0.  1.
         -4   -1    0    0    0  501 -0.00000000000E+00 -0.00000000000E+00 -0.42134713902E+03  0.42134905300E+03  0.12700000000E+01 0.  1.
         25    2    1    2    0    0  0.00000000000E+00  0.00000000000E+00 -0.41212170014E+03  0.43066149750E+03  0.12500011880E+03 0.  0.
    9000005    1    3    3    0    0 -0.54735850483E+02 -0.29831817613E+02 -0.19092244009E+03  0.20084404099E+03  0.10000000000E+01 0.  0.
    9000005    1    3    3    0    0  0.54735850483E+02  0.29831817613E+02 -0.22119926005E+03  0.22981745651E+03  0.10000000000E+01 0.  0.
<mgrwt>
<rscale>  0 0.12500012E+03</rscale>
<asrwt>0</asrwt>
<pdfrwt beam="1">  1        4 0.14261386E-02 0.12500012E+03</pdfrwt>
<pdfrwt beam="2">  1       -4 0.64829462E-01 0.12500012E+03</pdfrwt>
<totfact> 0.61675921E+03</totfact>
</mgrwt>
</event>
<event>
 5    1  0.3206665E-002  0.1249904E+03  0.7818608E-02  0.1235084E+00
          4   -1    0    0  501    0  0.00000000000E+00  0.00000000000E+00  0.16173941982E+02  0.16223726429E+02  0.12700000000E+01 0.  1.
         -4   -1    0    0    0  501 -0.00000000000E+00 -0.00000000000E+00 -0.24105549252E+03  0.24105883799E+03  0.12700000000E+01 0.  1.
         25    2    1    2    0    0  0.00000000000E+00  0.00000000000E+00 -0.22488155054E+03  0.25728256442E+03  0.12499042436E+03 0.  0.
    9000005    1    3    3    0    0  0.51976289851E+02  0.87900660786E+01 -0.43373204146E+02  0.68271771665E+02  0.10000000000E+01 0.  0.
    9000005    1    3    3    0    0 -0.51976289851E+02 -0.87900660786E+01 -0.18150834639E+03  0.18901079276E+03  0.10000000000E+01 0.  0.
<mgrwt>
<rscale>  0 0.12499042E+03</rscale>
<asrwt>0</asrwt>
<pdfrwt beam="1">  1        4 0.24923859E-02 0.12499042E+03</pdfrwt>
<pdfrwt beam="2">  1       -4 0.37089545E-01 0.12499042E+03</pdfrwt>
<totfact> 0.81306267E+03</totfact>
</mgrwt>
</event>
<event>
 5    1  0.3206665E-002  0.1249980E+03  0.7818608E-02  0.1235072E+00
         -4   -1    0    0    0  501 -0.00000000000E+00  0.00000000000E+00  0.25976561604E+03  0.25976872055E+03  0.12700000000E+01 0.  1.
          4   -1    0    0  501    0  0.00000000000E+00 -0.00000000000E+00 -0.15007087476E+02  0.15060729548E+02  0.12700000000E+01 0.  1.
         25    2    1    2    0    0  0.00000000000E+00  0.00000000000E+00  0.24475852856E+03  0.27482945010E+03  0.12499795733E+03 0.  0.
    9000005    1    3    3    0    0 -0.31023720447E+02  0.24174862320E+02  0.15608298990E+02  0.42326282567E+02  0.10000000000E+01 0.  0.
    9000005    1    3    3    0    0  0.31023720447E+02 -0.24174862320E+02  0.22915022957E+03  0.23250316753E+03  0.10000000000E+01 0.  0.
<mgrwt>
<rscale>  0 0.12499796E+03</rscale>
<asrwt>0</asrwt>
<pdfrwt beam="2">  1        4 0.23131479E-02 0.12499796E+03</pdfrwt>
<pdfrwt beam="1">  1       -4 0.39968305E-01 0.12499796E+03</pdfrwt>
<totfact> 0.78872297E+03</totfact>
</mgrwt>
</event>
<event>
 5    1  0.3206665E-002  0.1249967E+03  0.7818608E-02  0.1235074E+00
         -4   -1    0    0    0  501 -0.00000000000E+00  0.00000000000E+00  0.38951995011E+02  0.38972693201E+02  0.12700000000E+01 0.  1.
          4   -1    0    0  501    0  0.00000000000E+00 -0.00000000000E+00 -0.10022698680E+03  0.10023503271E+03  0.12700000000E+01 0.  1.
         25    2    1    2    0    0  0.00000000000E+00  0.00000000000E+00 -0.61274991790E+02  0.13920772592E+03  0.12499666530E+03 0.  0.
    9000005    1    3    3    0    0  0.54018677918E+02 -0.29435984729E+02 -0.18409851601E+02  0.64221627174E+02  0.10000000000E+01 0.  0.
    9000005    1    3    3    0    0 -0.54018677918E+02  0.29435984729E+02 -0.42865140189E+02  0.74986098741E+02  0.10000000000E+01 0.  0.
<mgrwt>
<rscale>  0 0.12499667E+03</rscale>
<asrwt>0</asrwt>
<pdfrwt beam="2">  1        4 0.15421747E-01 0.12499667E+03</pdfrwt>
<pdfrwt beam="1">  1       -4 0.59948257E-02 0.12499667E+03</pdfrwt>
<totfact> 0.10150795E+04</totfact>
</mgrwt>
</event>
<event>
 5    1  0.3206665E-002  0.1250088E+03  0.7818608E-02  0.1235055E+00
          4   -1    0    0  501    0  0.00000000000E+00  0.00000000000E+00  0.45210665022E+01  0.46960560385E+01  0.12700000000E+01 0.  1.
         -4   -1    0    0    0  501 -0.00000000000E+00 -0.00000000000E+00 -0.84755169642E+03  0.84755264792E+03  0.12700000000E+01 0.  1.
         25    2    1    2    0    0  0.00000000000E+00  0.00000000000E+00 -0.84303062992E+03  0.85224870396E+03  0.12500884140E+03 0.  0.
    9000005    1    3    3    0    0  0.46341217837E+01 -0.57327510139E+02 -0.58821474795E+03  0.59102073416E+03  0.10000000000E+01 0.  0.
    9000005    1    3    3    0    0 -0.46341217837E+01  0.57327510139E+02 -0.25481588197E+03  0.26122796980E+03  0.10000000000E+01 0.  0.
<mgrwt>
<rscale>  0 0.12500884E+03</rscale>
<asrwt>0</asrwt>
<pdfrwt beam="1">  1        4 0.70908329E-03 0.12500884E+03</pdfrwt>
<pdfrwt beam="2">  1       -4 0.13040598E+00 0.12500884E+03</pdfrwt>
<totfact> 0.36028555E+03</totfact>
</mgrwt>
</event>
<event>
 5    1  0.3206665E-002  0.1249942E+03  0.7818608E-02  0.1235078E+00
          4   -1    0    0  501    0  0.00000000000E+00  0.00000000000E+00  0.54324184510E+02  0.54339027620E+02  0.12700000000E+01 0.  1.
         -4   -1    0    0    0  501 -0.00000000000E+00 -0.00000000000E+00 -0.71869331035E+02  0.71880551218E+02  0.12700000000E+01 0.  1.
         25    2    1    2    0    0  0.00000000000E+00  0.00000000000E+00 -0.17545146524E+02  0.12621957884E+03  0.12499419953E+03 0.  0.
    9000005    1    3    3    0    0  0.47245228150E+01 -0.96163351031E+01 -0.70939839444E+02  0.71751347284E+02  0.10000000000E+01 0.  0.
    9000005    1    3    3    0    0 -0.47245228150E+01  0.96163351031E+01  0.53394692920E+02  0.54468231554E+02  0.10000000000E+01 0.  0.
<mgrwt>
<rscale>  0 0.12499420E+03</rscale>
<asrwt>0</asrwt>
<pdfrwt beam="1">  1        4 0.83595716E-02 0.12499420E+03</pdfrwt>
<pdfrwt beam="2">  1       -4 0.11058825E-01 0.12499420E+03</pdfrwt>
<totfact> 0.10427516E+04</totfact>
</mgrwt>
</event>
<event>
 5    1  0.3206665E-002  0.1249964E+03  0.7818608E-02  0.1235075E+00
         -4   -1    0    0    0  501 -0.00000000000E+00  0.00000000000E+00  0.32056267586E+03  0.32056519158E+03  0.12700000000E+01 0.  1.
          4   -1    0    0  501    0  0.00000000000E+00 -0.00000000000E+00 -0.12149239653E+02  0.12215437943E+02  0.12700000000E+01 0.  1.
         25    2    1    2    0    0  0.00000000000E+00  0.00000000000E+00  0.30841343620E+03  0.33278062952E+03  0.12499639897E+03 0.  0.
    9000005    1    3    3    0    0 -0.47250164370E+02 -0.26091760990E+01  0.26286203724E+03  0.26708956635E+03  0.10000000000E+01 0.  0.
    9000005    1    3    3    0    0  0.47250164370E+02  0.26091760990E+01  0.45551398968E+02  0.65691063173E+02  0.10000000000E+01 0.  0.
<mgrwt>
<rscale>  0 0.12499640E+03</rscale>
<asrwt>0</asrwt>
<pdfrwt beam="2">  1        4 0.18743994E-02 0.12499640E+03</pdfrwt>
<pdfrwt beam="1">  1       -4 0.49322622E-01 0.12499640E+03</pdfrwt>
<totfact> 0.71667100E+03</totfact>
</mgrwt>
</event>
<event>
 5    1  0.3206665E-002  0.1250007E+03  0.7818608E-02  0.1235068E+00
          4   -1    0    0  501    0  0.00000000000E+00  0.00000000000E+00  0.64054092319E+02  0.64066681222E+02  0.12700000000E+01 0. -1.
         -4   -1    0    0    0  501 -0.00000000000E+00 -0.00000000000E+00 -0.60959105371E+02  0.60972333297E+02  0.12700000000E+01 0. -1.
         25    2    1    2    0    0  0.00000000000E+00  0.00000000000E+00  0.30949869477E+01  0.12503901452E+03  0.12500070483E+03 0.  0.
    9000005    1    3    3    0    0  0.32740201663E+02 -0.72038776530E+01  0.54303370549E+02  0.63825329699E+02  0.10000000000E+01 0.  0.
    9000005    1    3    3    0    0 -0.32740201663E+02  0.72038776530E+01 -0.51208383601E+02  0.61213684820E+02  0.10000000000E+01 0.  0.
<mgrwt>
<rscale>  0 0.12500070E+03</rscale>
<asrwt>0</asrwt>
<pdfrwt beam="1">  1        4 0.98564617E-02 0.12500070E+03</pdfrwt>
<pdfrwt beam="2">  1       -4 0.93803098E-02 0.12500070E+03</pdfrwt>
<totfact> 0.10451849E+04</totfact>
</mgrwt>
</event>
<event>
 5    1  0.3206665E-002  0.1249963E+03  0.7818608E-02  0.1235075E+00
          4   -1    0    0  501    0  0.00000000000E+00  0.00000000000E+00  0.25890843906E+03  0.25891155385E+03  0.12700000000E+01 0. -1.
         -4   -1    0    0    0  501 -0.00000000000E+00 -0.00000000000E+00 -0.15056537149E+02  0.15110003670E+02  0.12700000000E+01 0. -1.
         25    2    1    2    0    0  0.00000000000E+00  0.00000000000E+00  0.24385190191E+03  0.27402155752E+03  0.12499625562E+03 0.  0.
    9000005    1    3    3    0    0  0.38793659000E+02 -0.48981554331E+02  0.12397699620E+03  0.13883600480E+03  0.10000000000E+01 0.  0.
    9000005    1    3    3    0    0 -0.38793659000E+02  0.48981554331E+02  0.11987490571E+03  0.13518555271E+03  0.10000000000E+01 0.  0.
<mgrwt>
<rscale>  0 0.12499626E+03</rscale>
<asrwt>0</asrwt>
<pdfrwt beam="1">  1        4 0.39836416E-01 0.12499626E+03</pdfrwt>
<pdfrwt beam="2">  1       -4 0.23207430E-02 0.12499626E+03</pdfrwt>
<totfact> 0.78984119E+03</totfact>
</mgrwt>
</event>
<event>
 5    1  0.3206665E-002  0.1250019E+03  0.7818608E-02  0.1235066E+00
         -4   -1    0    0    0  501 -0.00000000000E+00  0.00000000000E+00  0.41057840227E+01  0.42977159563E+01  0.12700000000E+01 0. -1.
          4   -1    0    0  501    0  0.00000000000E+00 -0.00000000000E+00 -0.92950766444E+03  0.92950853205E+03  0.12700000000E+01 0. -1.
         25    2    1    2    0    0  0.00000000000E+00  0.00000000000E+00 -0.92540188042E+03  0.93380624801E+03  0.12500187413E+03 0.  0.
    9000005    1    3    3    0    0  0.53609890549E+02 -0.29307811416E+02 -0.56078706364E+03  0.56410646062E+03  0.10000000000E+01 0.  0.
    9000005    1    3    3    0    0 -0.53609890549E+02  0.29307811416E+02 -0.36461481678E+03  0.36969978738E+03  0.10000000000E+01 0.  0.
<mgrwt>
<rscale>  0 0.12500187E+03</rscale>
<asrwt>0</asrwt>
<pdfrwt beam="2">  1        4 0.14301585E+00 0.12500187E+03</pdfrwt>
<pdfrwt beam="1">  1       -4 0.64649055E-03 0.12500187E+03</pdfrwt>
<totfact> 0.32896675E+03</totfact>
</mgrwt>
</event>
<event>
 5    1  0.3206665E-002  0.1249999E+03  0.7818608E-02  0.1235069E+00
         -4   -1    0    0    0  501 -0.00000000000E+00  0.00000000000E+00  0.33431699111E+01  0.35762669160E+01  0.12700000000E+01 0.  1.
          4   -1    0    0  501    0  0.00000000000E+00 -0.00000000000E+00 -0.11288300715E+04  0.11288307859E+04  0.12700000000E+01 0.  1.
         25    2    1    2    0    0  0.00000000000E+00  0.00000000000E+00 -0.11254869016E+04  0.11324070528E+04  0.12499987059E+03 0.  0.
    9000005    1    3    3    0    0  0.21697128725E+02  0.51043370165E+02 -0.82358909817E+03  0.82545514333E+03  0.10000000000E+01 0.  0.
    9000005    1    3    3    0    0 -0.21697128725E+02 -0.51043370165E+02 -0.30189780342E+03  0.30695190950E+03  0.10000000000E+01 0.  0.
<mgrwt>
<rscale>  0 0.12499987E+03</rscale>
<asrwt>0</asrwt>
<pdfrwt beam="2">  1        4 0.17368386E+00 0.12499987E+03</pdfrwt>
<pdfrwt beam="1">  1       -4 0.53232023E-03 0.12499987E+03</pdfrwt>
<totfact> 0.26553585E+03</totfact>
</mgrwt>
</event>
<event>
 5    1  0.3206665E-002  0.1250120E+03  0.7818608E-02  0.1235050E+00
          4   -1    0    0  501    0  0.00000000000E+00  0.00000000000E+00  0.61499161685E+01  0.62796790427E+01  0.12700000000E+01 0. -1.
         -4   -1    0    0    0  501 -0.00000000000E+00 -0.00000000000E+00 -0.62853095052E+03  0.62853223359E+03  0.12700000000E+01 0. -1.
         25    2    1    2    0    0  0.00000000000E+00  0.00000000000E+00 -0.62238103435E+03  0.63481191263E+03  0.12501204942E+03 0.  0.
    9000005    1    3    3    0    0  0.14460184240E+01 -0.41234917716E+02 -0.54956455643E+03  0.55111215836E+03  0.10000000000E+01 0.  0.
    9000005    1    3    3    0    0 -0.14460184240E+01  0.41234917716E+02 -0.72816477918E+02  0.83699754269E+02  0.10000000000E+01 0.  0.
<mgrwt>
<rscale>  0 0.12501205E+03</rscale>
<asrwt>0</asrwt>
<pdfrwt beam="1">  1        4 0.95622190E-03 0.12501205E+03</pdfrwt>
<pdfrwt beam="2">  1       -4 0.96707100E-01 0.12501205E+03</pdfrwt>
<totfact> 0.46729099E+03</totfact>
</mgrwt>
</event>
<event>
 5    1  0.3206665E-002  0.1249939E+03  0.7818608E-02  0.1235079E+00
         -4   -1    0    0    0  501 -0.00000000000E+00  0.00000000000E+00  0.48217852692E+03  0.48218019943E+03  0.12700000000E+01 0. -1.
          4   -1    0    0  501    0  0.00000000000E+00 -0.00000000000E+00 -0.80489805829E+01  0.81485574444E+01  0.12700000000E+01 0. -1.
         25    2    1    2    0    0  0.00000000000E+00  0.00000000000E+00  0.47412954633E+03  0.49032875687E+03  0.12499385228E+03 0.  0.
    9000005    1    3    3    0    0  0.30072101641E+02  0.51424912931E+02  0.31108178089E+03  0.31673605316E+03  0.10000000000E+01 0.  0.
    9000005    1    3    3    0    0 -0.30072101641E+02 -0.51424912931E+02  0.16304776544E+03  0.17359270372E+03  0.10000000000E+01 0.  0.
<mgrwt>
<rscale>  0 0.12499385E+03</rscale>
<asrwt>0</asrwt>
<pdfrwt beam="2">  1        4 0.12460929E-02 0.12499385E+03</pdfrwt>
<pdfrwt beam="1">  1       -4 0.74189115E-01 0.12499385E+03</pdfrwt>
<totfact> 0.56630270E+03</totfact>
</mgrwt>
</event>
<event>
 5    1  0.3206665E-002  0.1249944E+03  0.7818608E-02  0.1235078E+00
          4   -1    0    0  501    0  0.00000000000E+00  0.00000000000E+00  0.52906252451E+02  0.52921493256E+02  0.12700000000E+01 0.  1.
         -4   -1    0    0    0  501 -0.00000000000E+00 -0.00000000000E+00 -0.73795463574E+02  0.73806390943E+02  0.12700000000E+01 0.  1.
         25    2    1    2    0    0  0.00000000000E+00  0.00000000000E+00 -0.20889211123E+02  0.12672788420E+03  0.12499438984E+03 0.  0.
    9000005    1    3    3    0    0 -0.48184022622E+01  0.61028008562E+02 -0.23159040762E+02  0.65459728065E+02  0.10000000000E+01 0.  0.
    9000005    1    3    3    0    0  0.48184022622E+01 -0.61028008562E+02  0.22698296391E+01  0.61268156133E+02  0.10000000000E+01 0.  0.
<mgrwt>
<rscale>  0 0.12499439E+03</rscale>
<asrwt>0</asrwt>
<pdfrwt beam="1">  1        4 0.81414364E-02 0.12499439E+03</pdfrwt>
<pdfrwt beam="2">  1       -4 0.11355161E-01 0.12499439E+03</pdfrwt>
<totfact> 0.10416382E+04</totfact>
</mgrwt>
</event>
<event>
 5    1  0.3206665E-002  0.1250010E+03  0.7818608E-02  0.1235068E+00
         -4   -1    0    0    0  501 -0.00000000000E+00  0.00000000000E+00  0.30854276142E+03  0.30854537514E+03  0.12700000000E+01 0.  1.
          4   -1    0    0  501    0  0.00000000000E+00 -0.00000000000E+00 -0.12625989487E+02  0.12689700963E+02  0.12700000000E+01 0.  1.
         25    2    1    2    0    0  0.00000000000E+00  0.00000000000E+00  0.29591677193E+03  0.32123507611E+03  0.12500095284E+03 0.  0.
    9000005    1    3    3    0    0  0.60373445437E+01  0.50113691563E+02  0.53274510066E+02  0.73396219480E+02  0.10000000000E+01 0.  0.
    9000005    1    3    3    0    0 -0.60373445437E+01 -0.50113691563E+02  0.24264226186E+03  0.24783885663E+03  0.10000000000E+01 0.  0.
<mgrwt>
<rscale>  0 0.12500095E+03</rscale>
<asrwt>0</asrwt>
<pdfrwt beam="2">  1        4 0.19475619E-02 0.12500095E+03</pdfrwt>
<pdfrwt beam="1">  1       -4 0.47473218E-01 0.12500095E+03</pdfrwt>
<totfact> 0.73007927E+03</totfact>
</mgrwt>
</event>
<event>
 5    1  0.3206665E-002  0.1249985E+03  0.7818608E-02  0.1235072E+00
         -4   -1    0    0    0  501 -0.00000000000E+00  0.00000000000E+00  0.15974906105E+02  0.16025308891E+02  0.12700000000E+01 0.  1.
          4   -1    0    0  501    0  0.00000000000E+00 -0.00000000000E+00 -0.24408094002E+03  0.24408424403E+03  0.12700000000E+01 0.  1.
         25    2    1    2    0    0  0.00000000000E+00  0.00000000000E+00 -0.22810603392E+03  0.26010955292E+03  0.12499846723E+03 0.  0.
    9000005    1    3    3    0    0 -0.61060563849E+02  0.96793783367E+01 -0.95086947902E+02  0.11342226626E+03  0.10000000000E+01 0.  0.
    9000005    1    3    3    0    0  0.61060563849E+02 -0.96793783367E+01 -0.13301908601E+03  0.14668728666E+03  0.10000000000E+01 0.  0.
<mgrwt>
<rscale>  0 0.12499847E+03</rscale>
<asrwt>0</asrwt>
<pdfrwt beam="2">  1        4 0.37555042E-01 0.12499847E+03</pdfrwt>
<pdfrwt beam="1">  1       -4 0.24618093E-02 0.12499847E+03</pdfrwt>
<totfact> 0.80893450E+03</totfact>
</mgrwt>
</event>
<event>
 5    1  0.3206665E-002  0.1250004E+03  0.7818608E-02  0.1235069E+00
          4   -1    0    0  501    0  0.00000000000E+00  0.00000000000E+00  0.14892796918E+03  0.14893338412E+03  0.12700000000E+01 0.  1.
         -4   -1    0    0    0  501 -0.00000000000E+00 -0.00000000000E+00 -0.26208036168E+02  0.26238789221E+02  0.12700000000E+01 0.  1.
         25    2    1    2    0    0  0.00000000000E+00  0.00000000000E+00  0.12271993302E+03  0.17517217334E+03  0.12500043341E+03 0.  0.
    9000005    1    3    3    0    0 -0.52792985977E+02 -0.27089858776E+02  0.33887443195E+02  0.68339729464E+02  0.10000000000E+01 0.  0.
    9000005    1    3    3    0    0  0.52792985977E+02  0.27089858776E+02  0.88832489821E+02  0.10683244388E+03  0.10000000000E+01 0.  0.
<mgrwt>
<rscale>  0 0.12500043E+03</rscale>
<asrwt>0</asrwt>
<pdfrwt beam="1">  1        4 0.22914777E-01 0.12500043E+03</pdfrwt>
<pdfrwt beam="2">  1       -4 0.40347878E-02 0.12500043E+03</pdfrwt>
<totfact> 0.94492398E+03</totfact>
</mgrwt>
</event>
<event>
 5    1  0.3206665E-002  0.1249999E+03  0.7818608E-02  0.1235069E+00
          4   -1    0    0  501    0  0.00000000000E+00  0.00000000000E+00  0.35980822593E+02  0.36003228945E+02  0.12700000000E+01 0.  1.
         -4   -1    0    0    0  501 -0.00000000000E+00 -0.00000000000E+00 -0.10850469873E+03  0.10851213087E+03  0.12700000000E+01 0.  1.
         25    2    1    2    0    0  0.00000000000E+00  0.00000000000E+00 -0.72523876136E+02  0.14451535982E+03  0.12499990645E+03 0.  0.
    9000005    1    3    3    0    0  0.37319470549E+02 -0.17606238625E+02  0.17996140721E+02  0.45028697532E+02  0.10000000000E+01 0.  0.
    9000005    1    3    3    0    0 -0.37319470549E+02  0.17606238625E+02 -0.90520016857E+02  0.99486662284E+02  0.10000000000E+01 0.  0.
<mgrwt>
<rscale>  0 0.12499991E+03</rscale>
<asrwt>0</asrwt>
<pdfrwt beam="1">  1        4 0.55378065E-02 0.12499991E+03</pdfrwt>
<pdfrwt beam="2">  1       -4 0.16695326E-01 0.12499991E+03</pdfrwt>
<totfact> 0.10040866E+04</totfact>
</mgrwt>
</event>
<event>
 5    1  0.3206665E-002  0.1249981E+03  0.7818608E-02  0.1235072E+00
          4   -1    0    0  501    0  0.00000000000E+00  0.00000000000E+00  0.98051830887E+02  0.98060055273E+02  0.12700000000E+01 0. -1.
         -4   -1    0    0    0  501 -0.00000000000E+00 -0.00000000000E+00 -0.39817406198E+02  0.39837654755E+02  0.12700000000E+01 0. -1.
         25    2    1    2    0    0  0.00000000000E+00  0.00000000000E+00  0.58234424689E+02  0.13789771003E+03  0.12499812083E+03 0.  0.
    9000005    1    3    3    0    0  0.14929990382E+02  0.30960953882E+01  0.95973595215E+02  0.97182413007E+02  0.10000000000E+01 0.  0.
    9000005    1    3    3    0    0 -0.14929990382E+02 -0.30960953882E+01 -0.37739170526E+02  0.40715297021E+02  0.10000000000E+01 0.  0.
<mgrwt>
<rscale>  0 0.12499812E+03</rscale>
<asrwt>0</asrwt>
<pdfrwt beam="1">  1        4 0.15087087E-01 0.12499812E+03</pdfrwt>
<pdfrwt beam="2">  1       -4 0.61279452E-02 0.12499812E+03</pdfrwt>
<totfact> 0.10177775E+04</totfact>
</mgrwt>
</event>
<event>
 5    1  0.3206665E-002  0.1249999E+03  0.7818608E-02  0.1235069E+00
          4   -1    0    0  501    0  0.00000000000E+00  0.00000000000E+00  0.42956954410E+02  0.42975723754E+02  0.12700000000E+01 0.  1.
         -4   -1    0    0    0  501 -0.00000000000E+00 -0.00000000000E+00 -0.90890886318E+02  0.90899758612E+02  0.12700000000E+01 0.  1.
         25    2    1    2    0    0  0.00000000000E+00  0.00000000000E+00 -0.47933931908E+02  0.13387548237E+03  0.12499993180E+03 0.  0.
    9000005    1    3    3    0    0  0.45180798064E+02  0.40492406685E+02 -0.79266863061E+01  0.61194541167E+02  0.10000000000E+01 0.  0.
    9000005    1    3    3    0    0 -0.45180798064E+02 -0.40492406685E+02 -0.40007245602E+02  0.72680941199E+02  0.10000000000E+01 0.  0.
<mgrwt>
<rscale>  0 0.12499993E+03</rscale>
<asrwt>0</asrwt>
<pdfrwt beam="1">  1        4 0.66108885E-02 0.12499993E+03</pdfrwt>
<pdfrwt beam="2">  1       -4 0.13985340E-01 0.12499993E+03</pdfrwt>
<totfact> 0.10261843E+04</totfact>
</mgrwt>
</event>
<event>
 5    1  0.3206665E-002  0.1249999E+03  0.7818608E-02  0.1235069E+00
          4   -1    0    0  501    0  0.00000000000E+00  0.00000000000E+00  0.83985722717E+02  0.83995324395E+02  0.12700000000E+01 0. -1.
         -4   -1    0    0    0  501 -0.00000000000E+00 -0.00000000000E+00 -0.46489863953E+02  0.46507207510E+02  0.12700000000E+01 0. -1.
         25    2    1    2    0    0  0.00000000000E+00  0.00000000000E+00  0.37495858764E+02  0.13050253190E+03  0.12499988564E+03 0.  0.
    9000005    1    3    3    0    0  0.42059679920E+02  0.38488217691E+02  0.45465149707E+02  0.72927631347E+02  0.10000000000E+01 0.  0.
    9000005    1    3    3    0    0 -0.42059679920E+02 -0.38488217691E+02 -0.79692909435E+01  0.57574900557E+02  0.10000000000E+01 0.  0.
<mgrwt>
<rscale>  0 0.12499989E+03</rscale>
<asrwt>0</asrwt>
<pdfrwt beam="1">  1        4 0.12922953E-01 0.12499989E+03</pdfrwt>
<pdfrwt beam="2">  1       -4 0.71543595E-02 0.12499989E+03</pdfrwt>
<totfact> 0.10333793E+04</totfact>
</mgrwt>
</event>
<event>
 4    1  0.3206665E-002  0.1251202E+03  0.7818608E-02  0.1234882E+00
         -4   -1    0    0    0  501 -0.00000000000E+00  0.00000000000E+00  0.35389091437E+03  0.35389319317E+03  0.12700000000E+01 0. -1.
          4   -1    0    0  501    0  0.00000000000E+00 -0.00000000000E+00 -0.11020464556E+02  0.11093400697E+02  0.12700000000E+01 0. -1.
    9000005    1    1    2    0    0 -0.94745986444E+01  0.29820628694E+02  0.32943608044E+03  0.33092018526E+03  0.10000000000E+01 0.  0.
    9000005    1    1    2    0    0  0.94745986444E+01 -0.29820628694E+02  0.13434369372E+02  0.34066408610E+02  0.10000000000E+01 0.  0.
<mgrwt>
<rscale>  0 0.12512022E+03</rscale>
<asrwt>0</asrwt>
<pdfrwt beam="2">  1        4 0.17012417E-02 0.12512022E+03</pdfrwt>
<pdfrwt beam="1">  1       -4 0.54450546E-01 0.12512022E+03</pdfrwt>
<totfact> 0.67925974E+03</totfact>
</mgrwt>
</event>
<event>
 5    1  0.3206665E-002  0.1249989E+03  0.7818608E-02  0.1235071E+00
          4   -1    0    0  501    0  0.00000000000E+00  0.00000000000E+00  0.19889044420E+03  0.19889449891E+03  0.12700000000E+01 0.  1.
         -4   -1    0    0    0  501 -0.00000000000E+00 -0.00000000000E+00 -0.19615066900E+02  0.19656137706E+02  0.12700000000E+01 0.  1.
         25    2    1    2    0    0  0.00000000000E+00  0.00000000000E+00  0.17927537730E+03  0.21855063661E+03  0.12499887942E+03 0.  0.
    9000005    1    3    3    0    0  0.59215197942E+02 -0.14173756212E+02  0.11423051372E+03  0.12944862030E+03  0.10000000000E+01 0.  0.
    9000005    1    3    3    0    0 -0.59215197942E+02  0.14173756212E+02  0.65044863578E+02  0.89102016309E+02  0.10000000000E+01 0.  0.
<mgrwt>
<rscale>  0 0.12499888E+03</rscale>
<asrwt>0</asrwt>
<pdfrwt beam="1">  1        4 0.30602001E-01 0.12499888E+03</pdfrwt>
<pdfrwt beam="2">  1       -4 0.30211738E-02 0.12499888E+03</pdfrwt>
<totfact> 0.87100393E+03</totfact>
</mgrwt>
</event>
<event>
 5    1  0.3206665E-002  0.1250019E+03  0.7818608E-02  0.1235066E+00
          4   -1    0    0  501    0  0.00000000000E+00  0.00000000000E+00  0.89748554882E+02  0.89757540092E+02  0.12700000000E+01 0.  1.
         -4   -1    0    0    0  501 -0.00000000000E+00 -0.00000000000E+00 -0.43505291245E+02  0.43523824124E+02  0.12700000000E+01 0.  1.
         25    2    1    2    0    0  0.00000000000E+00  0.00000000000E+00  0.46243263636E+02  0.13328136422E+03  0.12500193045E+03 0.  0.
    9000005    1    3    3    0    0  0.54080688978E+02  0.11385754294E+00  0.56510891982E+02  0.78225410171E+02  0.10000000000E+01 0.  0.
    9000005    1    3    3    0    0 -0.54080688978E+02 -0.11385754294E+00 -0.10267628346E+02  0.55055954044E+02  0.10000000000E+01 0.  0.
<mgrwt>
<rscale>  0 0.12500193E+03</rscale>
<asrwt>0</asrwt>
<pdfrwt beam="1">  1        4 0.13809587E-01 0.12500193E+03</pdfrwt>
<pdfrwt beam="2">  1       -4 0.66952386E-02 0.12500193E+03</pdfrwt>
<totfact> 0.10273976E+04</totfact>
</mgrwt>
</event>
<event>
 5    1  0.3206665E-002  0.1249921E+03  0.7818608E-02  0.1235082E+00
         -4   -1    0    0    0  501 -0.00000000000E+00  0.00000000000E+00  0.62800775071E+03  0.62800903485E+03  0.12700000000E+01 0.  1.
          4   -1    0    0  501    0  0.00000000000E+00 -0.00000000000E+00 -0.61531402289E+01  0.62828365152E+01  0.12700000000E+01 0.  1.
         25    2    1    2    0    0  0.00000000000E+00  0.00000000000E+00  0.62185461048E+03  0.63429187137E+03  0.12499208576E+03 0.  0.
    9000005    1    3    3    0    0  0.33185289695E+02 -0.28591078785E+02  0.84775082872E+02  0.95428129575E+02  0.10000000000E+01 0.  0.
    9000005    1    3    3    0    0 -0.33185289695E+02  0.28591078785E+02  0.53707952761E+03  0.53886374179E+03  0.10000000000E+01 0.  0.
<mgrwt>
<rscale>  0 0.12499209E+03</rscale>
<asrwt>0</asrwt>
<pdfrwt beam="2">  1        4 0.95671263E-03 0.12499209E+03</pdfrwt>
<pdfrwt beam="1">  1       -4 0.96626626E-01 0.12499209E+03</pdfrwt>
<totfact> 0.46780288E+03</totfact>
</mgrwt>
</event>
<event>
 5    1  0.3206665E-002  0.1250006E+03  0.7818608E-02  0.1235068E+00
         -4   -1    0    0    0  501 -0.00000000000E+00  0.00000000000E+00  0.28080970109E+03  0.28081257295E+03  0.12700000000E+01 0. -1.
          4   -1    0    0  501    0  0.00000000000E+00 -0.00000000000E+00 -0.13878857243E+02  0.13936842482E+02  0.12700000000E+01 0. -1.
         25    2    1    2    0    0  0.00000000000E+00  0.00000000000E+00  0.26693084385E+03  0.29474941543E+03  0.12500057000E+03 0.  0.
    9000005    1    3    3    0    0 -0.83708767216E+01 -0.60626154016E+02  0.16326231462E+03  0.17435935737E+03  0.10000000000E+01 0.  0.
    9000005    1    3    3    0    0  0.83708767216E+01  0.60626154016E+02  0.10366852923E+03  0.12039005807E+03  0.10000000000E+01 0.  0.
<mgrwt>
<rscale>  0 0.12500057E+03</rscale>
<asrwt>0</asrwt>
<pdfrwt beam="2">  1        4 0.21398905E-02 0.12500057E+03</pdfrwt>
<pdfrwt beam="1">  1       -4 0.43206166E-01 0.12500057E+03</pdfrwt>
<totfact> 0.76261257E+03</totfact>
</mgrwt>
</event>
<event>
 5    1  0.3206665E-002  0.1250011E+03  0.7818608E-02  0.1235068E+00
         -4   -1    0    0    0  501 -0.00000000000E+00  0.00000000000E+00  0.39964434590E+01  0.41933829209E+01  0.12700000000E+01 0.  1.
          4   -1    0    0  501    0  0.00000000000E+00 -0.00000000000E+00 -0.95374664237E+03  0.95374748793E+03  0.12700000000E+01 0.  1.
         25    2    1    2    0    0  0.00000000000E+00  0.00000000000E+00 -0.94975019891E+03  0.95794087085E+03  0.12500108685E+03 0.  0.
    9000005    1    3    3    0    0 -0.36076848567E+02  0.37379052696E+02 -0.74107257774E+03  0.74289184816E+03  0.10000000000E+01 0.  0.
    9000005    1    3    3    0    0  0.36076848567E+02 -0.37379052696E+02 -0.20867762117E+03  0.21504902269E+03  0.10000000000E+01 0.  0.
<mgrwt>
<rscale>  0 0.12500109E+03</rscale>
<asrwt>0</asrwt>
<pdfrwt beam="2">  1        4 0.14674529E+00 0.12500109E+03</pdfrwt>
<pdfrwt beam="1">  1       -4 0.63005245E-03 0.12500109E+03</pdfrwt>
<totfact> 0.32034984E+03</totfact>
</mgrwt>
</event>
<event>
 5    1  0.3206665E-002  0.1250029E+03  0.7818608E-02  0.1235065E+00
          4   -1    0    0  501    0  0.00000000000E+00  0.00000000000E+00  0.17048718554E+03  0.17049191574E+03  0.12700000000E+01 0.  1.
         -4   -1    0    0    0  501 -0.00000000000E+00 -0.00000000000E+00 -0.22890700157E+02  0.22925903552E+02  0.12700000000E+01 0.  1.
         25    2    1    2    0    0  0.00000000000E+00  0.00000000000E+00  0.14759648538E+03  0.19341781930E+03  0.12500292126E+03 0.  0.
    9000005    1    3    3    0    0  0.60073585896E+02 -0.14472759656E+02  0.88241839115E+02  0.10773076935E+03  0.10000000000E+01 0.  0.
    9000005    1    3    3    0    0 -0.60073585896E+02  0.14472759656E+02  0.59354646269E+02  0.85687049945E+02  0.10000000000E+01 0.  0.
<mgrwt>
<rscale>  0 0.12500292E+03</rscale>
<asrwt>0</asrwt>
<pdfrwt beam="1">  1        4 0.26231869E-01 0.12500292E+03</pdfrwt>
<pdfrwt beam="2">  1       -4 0.35247180E-02 0.12500292E+03</pdfrwt>
<totfact> 0.91250034E+03</totfact>
</mgrwt>
</event>
<event>
 5    1  0.3206665E-002  0.1250001E+03  0.7818608E-02  0.1235069E+00
          4   -1    0    0  501    0  0.00000000000E+00  0.00000000000E+00  0.72821974050E+02  0.72833047475E+02  0.12700000000E+01 0. -1.
         -4   -1    0    0    0  501 -0.00000000000E+00 -0.00000000000E+00 -0.53618479488E+02  0.53633517903E+02  0.12700000000E+01 0. -1.
         25    2    1    2    0    0  0.00000000000E+00  0.00000000000E+00  0.19203494562E+02  0.12646656538E+03  0.12500007182E+03 0.  0.
    9000005    1    3    3    0    0 -0.37746484694E+02  0.32182471498E+01  0.59884929289E+02  0.70868603609E+02  0.10000000000E+01 0.  0.
    9000005    1    3    3    0    0  0.37746484694E+02 -0.32182471498E+01 -0.40681434727E+02  0.55597961770E+02  0.10000000000E+01 0.  0.
<mgrwt>
<rscale>  0 0.12500007E+03</rscale>
<asrwt>0</asrwt>
<pdfrwt beam="1">  1        4 0.11205389E-01 0.12500007E+03</pdfrwt>
<pdfrwt beam="2">  1       -4 0.82510054E-02 0.12500007E+03</pdfrwt>
<totfact> 0.10420740E+04</totfact>
</mgrwt>
</event>
<event>
 5    1  0.3206665E-002  0.1249968E+03  0.7818608E-02  0.1235074E+00
         -4   -1    0    0    0  501 -0.00000000000E+00  0.00000000000E+00  0.33532830645E+02  0.33556871592E+02  0.12700000000E+01 0. -1.
          4   -1    0    0  501    0  0.00000000000E+00 -0.00000000000E+00 -0.11641508795E+03  0.11642201512E+03  0.12700000000E+01 0. -1.
         25    2    1    2    0    0  0.00000000000E+00  0.00000000000E+00 -0.82882257310E+02  0.14997888671E+03  0.12499679148E+03 0.  0.
    9000005    1    3    3    0    0 -0.61230552021E+01  0.56895831864E+02 -0.71567507569E+02  0.91638068662E+02  0.10000000000E+01 0.  0.
    9000005    1    3    3    0    0  0.61230552021E+01 -0.56895831864E+02 -0.11314749741E+02  0.58340818046E+02  0.10000000000E+01 0.  0.
<mgrwt>
<rscale>  0 0.12499679E+03</rscale>
<asrwt>0</asrwt>
<pdfrwt beam="2">  1        4 0.17912396E-01 0.12499679E+03</pdfrwt>
<pdfrwt beam="1">  1       -4 0.51612792E-02 0.12499679E+03</pdfrwt>
<totfact> 0.99315078E+03</totfact>
</mgrwt>
</event>
<event>
 5    1  0.3206665E-002  0.1249972E+03  0.7818608E-02  0.1235074E+00
         -4   -1    0    0    0  501 -0.00000000000E+00  0.00000000000E+00  0.18776476255E+02  0.18819377263E+02  0.12700000000E+01 0. -1.
          4   -1    0    0  501    0  0.00000000000E+00 -0.00000000000E+00 -0.20774792807E+03  0.20775180990E+03  0.12700000000E+01 0. -1.
         25    2    1    2    0    0  0.00000000000E+00  0.00000000000E+00 -0.18897145181E+03  0.22657118716E+03  0.12499717298E+03 0.  0.
    9000005    1    3    3    0    0  0.10539724012E+02  0.15581494413E+02  0.13531329594E+02  0.23194086121E+02  0.10000000000E+01 0.  0.
    9000005    1    3    3    0    0 -0.10539724012E+02 -0.15581494413E+02 -0.20250278140E+03  0.20337710104E+03  0.10000000000E+01 0.  0.
<mgrwt>
<rscale>  0 0.12499717E+03</rscale>
<asrwt>0</asrwt>
<pdfrwt beam="2">  1        4 0.31964817E-01 0.12499717E+03</pdfrwt>
<pdfrwt beam="1">  1       -4 0.28922875E-02 0.12499717E+03</pdfrwt>
<totfact> 0.85844307E+03</totfact>
</mgrwt>
</event>
<event>
 5    1  0.3206665E-002  0.1250070E+03  0.7818608E-02  0.1235058E+00
         -4   -1    0    0    0  501 -0.00000000000E+00  0.00000000000E+00  0.37174646420E+03  0.37174863355E+03  0.12700000000E+01 0. -1.
          4   -1    0    0  501    0  0.00000000000E+00 -0.00000000000E+00 -0.10468436090E+02  0.10545191045E+02  0.12700000000E+01 0. -1.
         25    2    1    2    0    0  0.00000000000E+00  0.00000000000E+00  0.36127802811E+03  0.38229382460E+03  0.12500701871E+03 0.  0.
    9000005    1    3    3    0    0 -0.45506036929E+02  0.42832943399E+02  0.17917797019E+03  0.18976618624E+03  0.10000000000E+01 0.  0.
    9000005    1    3    3    0    0  0.45506036929E+02 -0.42832943399E+02  0.18210005792E+03  0.19252763836E+03  0.10000000000E+01 0.  0.
<mgrwt>
<rscale>  0 0.12500702E+03</rscale>
<asrwt>0</asrwt>
<pdfrwt beam="2">  1        4 0.16165997E-02 0.12500702E+03</pdfrwt>
<pdfrwt beam="1">  1       -4 0.57197835E-01 0.12500702E+03</pdfrwt>
<totfact> 0.66301803E+03</totfact>
</mgrwt>
</event>
<event>
 5    1  0.3206665E-002  0.1249990E+03  0.7818608E-02  0.1235071E+00
          4   -1    0    0  501    0  0.00000000000E+00  0.00000000000E+00  0.24908277933E+02  0.24940633704E+02  0.12700000000E+01 0. -1.
         -4   -1    0    0    0  501 -0.00000000000E+00 -0.00000000000E+00 -0.15668604875E+03  0.15669119558E+03  0.12700000000E+01 0. -1.
         25    2    1    2    0    0  0.00000000000E+00  0.00000000000E+00 -0.13177777081E+03  0.18163182928E+03  0.12499896211E+03 0.  0.
    9000005    1    3    3    0    0  0.39481942146E+01  0.61795057477E+02 -0.78129863383E+02  0.99697005564E+02  0.10000000000E+01 0.  0.
    9000005    1    3    3    0    0 -0.39481942146E+01 -0.61795057477E+02 -0.53647907432E+02  0.81934823720E+02  0.10000000000E+01 0.  0.
<mgrwt>
<rscale>  0 0.12499896E+03</rscale>
<asrwt>0</asrwt>
<pdfrwt beam="1">  1        4 0.38349277E-02 0.12499896E+03</pdfrwt>
<pdfrwt beam="2">  1       -4 0.24108430E-01 0.12499896E+03</pdfrwt>
<totfact> 0.93326262E+03</totfact>
</mgrwt>
</event>
<event>
 5    1  0.3206665E-002  0.1249877E+03  0.7818608E-02  0.1235088E+00
          4   -1    0    0  501    0  0.00000000000E+00  0.00000000000E+00  0.12103684736E+03  0.12104351002E+03  0.12700000000E+01 0.  1.
         -4   -1    0    0    0  501 -0.00000000000E+00 -0.00000000000E+00 -0.32246852525E+02  0.32271851477E+02  0.12700000000E+01 0.  1.
         25    2    1    2    0    0  0.00000000000E+00  0.00000000000E+00  0.88789994836E+02  0.15331536150E+03  0.12498774696E+03 0.  0.
    9000005    1    3    3    0    0  0.53970161106E+01  0.33061101210E+02  0.10909760339E+03  0.11412909910E+03  0.10000000000E+01 0.  0.
    9000005    1    3    3    0    0 -0.53970161106E+01 -0.33061101210E+02 -0.20307608550E+02  0.39186262404E+02  0.10000000000E+01 0.  0.
<mgrwt>
<rscale>  0 0.12498775E+03</rscale>
<asrwt>0</asrwt>
<pdfrwt beam="1">  1        4 0.18623489E-01 0.12498775E+03</pdfrwt>
<pdfrwt beam="2">  1       -4 0.49634897E-02 0.12498775E+03</pdfrwt>
<totfact> 0.98674086E+03</totfact>
</mgrwt>
</event>
<event>
 5    1  0.3206665E-002  0.1250025E+03  0.7818608E-02  0.1235065E+00
         -4   -1    0    0    0  501 -0.00000000000E+00  0.00000000000E+00  0.28980924275E+02  0.29008737853E+02  0.12700000000E+01 0. -1.
          4   -1    0    0  501    0  0.00000000000E+00 -0.00000000000E+00 -0.13469678728E+03  0.13470277430E+03  0.12700000000E+01 0. -1.
         25    2    1    2    0    0  0.00000000000E+00  0.00000000000E+00 -0.10571586301E+03  0.16371151216E+03  0.12500246206E+03 0.  0.
    9000005    1    3    3    0    0 -0.89888669387E+01 -0.56868911447E+02 -0.21031933864E+02  0.61304282559E+02  0.10000000000E+01 0.  0.
    9000005    1    3    3    0    0  0.89888669387E+01  0.56868911447E+02 -0.84683929145E+02  0.10240722960E+03  0.10000000000E+01 0.  0.
<mgrwt>
<rscale>  0 0.12500246E+03</rscale>
<asrwt>0</asrwt>
<pdfrwt beam="2">  1        4 0.20725182E-01 0.12500246E+03</pdfrwt>
<pdfrwt beam="1">  1       -4 0.44612039E-02 0.12500246E+03</pdfrwt>
<totfact> 0.96626624E+03</totfact>
</mgrwt>
</event>
<event>
 5    1  0.3206665E-002  0.1249978E+03  0.7818608E-02  0.1235073E+00
         -4   -1    0    0    0  501 -0.00000000000E+00  0.00000000000E+00  0.11024848990E+04  0.11024856305E+04  0.12700000000E+01 0. -1.
          4   -1    0    0  501    0  0.00000000000E+00 -0.00000000000E+00 -0.34284447296E+01  0.36561090333E+01  0.12700000000E+01 0. -1.
         25    2    1    2    0    0  0.00000000000E+00  0.00000000000E+00  0.10990564543E+04  0.11061417395E+04  0.12499783289E+03 0.  0.
    9000005    1    3    3    0    0 -0.30260786138E+02 -0.32063413549E+02  0.94143646765E+03  0.94246877948E+03  0.10000000000E+01 0.  0.
    9000005    1    3    3    0    0  0.30260786138E+02  0.32063413549E+02  0.15761998661E+03  0.16367296003E+03  0.10000000000E+01 0.  0.
<mgrwt>
<rscale>  0 0.12499783E+03</rscale>
<asrwt>0</asrwt>
<pdfrwt beam="2">  1        4 0.54502230E-03 0.12499783E+03</pdfrwt>
<pdfrwt beam="1">  1       -4 0.16963052E+00 0.12499783E+03</pdfrwt>
<totfact> 0.27305645E+03</totfact>
</mgrwt>
</event>
<event>
 5    1  0.3206665E-002  0.1250005E+03  0.7818608E-02  0.1235068E+00
          4   -1    0    0  501    0  0.00000000000E+00  0.00000000000E+00  0.64900984999E+02  0.64913409661E+02  0.12700000000E+01 0. -1.
         -4   -1    0    0    0  501 -0.00000000000E+00 -0.00000000000E+00 -0.60163452716E+02  0.60176855540E+02  0.12700000000E+01 0. -1.
         25    2    1    2    0    0  0.00000000000E+00  0.00000000000E+00  0.47375322834E+01  0.12509026520E+03  0.12500052094E+03 0.  0.
    9000005    1    3    3    0    0  0.43082257914E+02 -0.44491738609E+02  0.10722621950E+02  0.62861517425E+02  0.10000000000E+01 0.  0.
    9000005    1    3    3    0    0 -0.43082257914E+02  0.44491738609E+02 -0.59850896667E+01  0.62228747776E+02  0.10000000000E+01 0.  0.
<mgrwt>
<rscale>  0 0.12500052E+03</rscale>
<asrwt>0</asrwt>
<pdfrwt beam="1">  1        4 0.99867536E-02 0.12500052E+03</pdfrwt>
<pdfrwt beam="2">  1       -4 0.92579026E-02 0.12500052E+03</pdfrwt>
<totfact> 0.10450779E+04</totfact>
</mgrwt>
</event>
<event>
 5    1  0.3206665E-002  0.1249990E+03  0.7818608E-02  0.1235071E+00
         -4   -1    0    0    0  501 -0.00000000000E+00  0.00000000000E+00  0.31375391663E+02  0.31401084408E+02  0.12700000000E+01 0. -1.
          4   -1    0    0  501    0  0.00000000000E+00 -0.00000000000E+00 -0.12441852857E+03  0.12442501016E+03  0.12700000000E+01 0. -1.
         25    2    1    2    0    0  0.00000000000E+00  0.00000000000E+00 -0.93043136912E+02  0.15582609457E+03  0.12499898568E+03 0.  0.
    9000005    1    3    3    0    0  0.51896782821E+02  0.10143813910E+02 -0.50068469496E+01  0.53124773356E+02  0.10000000000E+01 0.  0.
    9000005    1    3    3    0    0 -0.51896782821E+02 -0.10143813910E+02 -0.88036289962E+02  0.10270132121E+03  0.10000000000E+01 0.  0.
<mgrwt>
<rscale>  0 0.12499899E+03</rscale>
<asrwt>0</asrwt>
<pdfrwt beam="2">  1        4 0.19143787E-01 0.12499899E+03</pdfrwt>
<pdfrwt beam="1">  1       -4 0.48294584E-02 0.12499899E+03</pdfrwt>
<totfact> 0.98155809E+03</totfact>
</mgrwt>
</event>
<event>
 5    1  0.3206665E-002  0.1250072E+03  0.7818608E-02  0.1235058E+00
          4   -1    0    0  501    0  0.00000000000E+00  0.00000000000E+00  0.16219602733E+03  0.16220099933E+03  0.12700000000E+01 0. -1.
         -4   -1    0    0    0  501 -0.00000000000E+00 -0.00000000000E+00 -0.24064200864E+02  0.24097689998E+02  0.12700000000E+01 0. -1.
         25    2    1    2    0    0  0.00000000000E+00  0.00000000000E+00  0.13813182647E+03  0.18629868933E+03  0.12500720044E+03 0.  0.
    9000005    1    3    3    0    0  0.48339042678E+02  0.30810946114E+02  0.10616587268E+03  0.12065724168E+03  0.10000000000E+01 0.  0.
    9000005    1    3    3    0    0 -0.48339042678E+02 -0.30810946114E+02  0.31965953788E+02  0.65641447646E+02  0.10000000000E+01 0.  0.
<mgrwt>
<rscale>  0 0.12500720E+03</rscale>
<asrwt>0</asrwt>
<pdfrwt beam="1">  1        4 0.24956193E-01 0.12500720E+03</pdfrwt>
<pdfrwt beam="2">  1       -4 0.37051434E-02 0.12500720E+03</pdfrwt>
<totfact> 0.92480427E+03</totfact>
</mgrwt>
</event>
<event>
 5    1  0.3206665E-002  0.1249990E+03  0.7818608E-02  0.1235071E+00
          4   -1    0    0  501    0  0.00000000000E+00  0.00000000000E+00  0.20066103768E+03  0.20066505661E+03  0.12700000000E+01 0. -1.
         -4   -1    0    0    0  501 -0.00000000000E+00 -0.00000000000E+00 -0.19441672788E+02  0.19483109116E+02  0.12700000000E+01 0. -1.
         25    2    1    2    0    0  0.00000000000E+00  0.00000000000E+00  0.18121936489E+03  0.22014816572E+03  0.12499902663E+03 0.  0.
    9000005    1    3    3    0    0  0.34242552722E+02  0.43155690095E+02  0.38655111955E+02  0.67306639232E+02  0.10000000000E+01 0.  0.
    9000005    1    3    3    0    0 -0.34242552722E+02 -0.43155690095E+02  0.14256425294E+03  0.15284152649E+03  0.10000000000E+01 0.  0.
<mgrwt>
<rscale>  0 0.12499903E+03</rscale>
<asrwt>0</asrwt>
<pdfrwt beam="1">  1        4 0.30874427E-01 0.12499903E+03</pdfrwt>
<pdfrwt beam="2">  1       -4 0.29945230E-02 0.12499903E+03</pdfrwt>
<totfact> 0.86846796E+03</totfact>
</mgrwt>
</event>
<event>
 5    1  0.3206665E-002  0.1250010E+03  0.7818608E-02  0.1235068E+00
          4   -1    0    0  501    0  0.00000000000E+00  0.00000000000E+00  0.15841698612E+03  0.15842207672E+03  0.12700000000E+01 0. -1.
         -4   -1    0    0    0  501 -0.00000000000E+00 -0.00000000000E+00 -0.24636563629E+02  0.24669275778E+02  0.12700000000E+01 0. -1.
         25    2    1    2    0    0  0.00000000000E+00  0.00000000000E+00  0.13378042249E+03  0.18309135250E+03  0.12500096766E+03 0.  0.
    9000005    1    3    3    0    0 -0.43244872297E+02 -0.45019446896E+02  0.62634728401E+02  0.88436297869E+02  0.10000000000E+01 0.  0.
    9000005    1    3    3    0    0  0.43244872297E+02  0.45019446896E+02  0.71145694093E+02  0.94655054629E+02  0.10000000000E+01 0.  0.
<mgrwt>
<rscale>  0 0.12500097E+03</rscale>
<asrwt>0</asrwt>
<pdfrwt beam="1">  1        4 0.24374751E-01 0.12500097E+03</pdfrwt>
<pdfrwt beam="2">  1       -4 0.37931485E-02 0.12500097E+03</pdfrwt>
<totfact> 0.93061473E+03</totfact>
</mgrwt>
</event>
<event>
 5    1  0.3206665E-002  0.1250024E+03  0.7818608E-02  0.1235066E+00
          4   -1    0    0  501    0  0.00000000000E+00  0.00000000000E+00  0.41364411411E+02  0.41383903047E+02  0.12700000000E+01 0. -1.
         -4   -1    0    0    0  501 -0.00000000000E+00 -0.00000000000E+00 -0.94392585886E+02  0.94401129073E+02  0.12700000000E+01 0. -1.
         25    2    1    2    0    0  0.00000000000E+00  0.00000000000E+00 -0.53028174475E+02  0.13578503212E+03  0.12500235062E+03 0.  0.
    9000005    1    3    3    0    0 -0.43517148870E+02 -0.46212200709E+01 -0.74975144112E+02  0.86818028976E+02  0.10000000000E+01 0.  0.
    9000005    1    3    3    0    0  0.43517148870E+02  0.46212200709E+01  0.21946969637E+02  0.48967003144E+02  0.10000000000E+01 0.  0.
<mgrwt>
<rscale>  0 0.12500235E+03</rscale>
<asrwt>0</asrwt>
<pdfrwt beam="1">  1        4 0.63659121E-02 0.12500235E+03</pdfrwt>
<pdfrwt beam="2">  1       -4 0.14524093E-01 0.12500235E+03</pdfrwt>
<totfact> 0.10221009E+04</totfact>
</mgrwt>
</event>
<event>
 5    1  0.3206665E-002  0.1249990E+03  0.7818608E-02  0.1235071E+00
         -4   -1    0    0    0  501 -0.00000000000E+00  0.00000000000E+00  0.27107738173E+03  0.27108035670E+03  0.12700000000E+01 0.  1.
          4   -1    0    0  501    0  0.00000000000E+00 -0.00000000000E+00 -0.14378813413E+02  0.14434790444E+02  0.12700000000E+01 0.  1.
         25    2    1    2    0    0  0.00000000000E+00  0.00000000000E+00  0.25669856832E+03  0.28551514714E+03  0.12499897707E+03 0.  0.
    9000005    1    3    3    0    0  0.21925287626E+02  0.10192515575E+02 -0.32730833093E+01  0.24419637294E+02  0.10000000000E+01 0.  0.
    9000005    1    3    3    0    0 -0.21925287626E+02 -0.10192515575E+02  0.25997165163E+03  0.26109550984E+03  0.10000000000E+01 0.  0.
<mgrwt>
<rscale>  0 0.12499898E+03</rscale>
<asrwt>0</asrwt>
<pdfrwt beam="2">  1        4 0.22166601E-02 0.12499898E+03</pdfrwt>
<pdfrwt beam="1">  1       -4 0.41708744E-01 0.12499898E+03</pdfrwt>
<totfact> 0.77454236E+03</totfact>
</mgrwt>
</event>
<event>
 5    1  0.3206665E-002  0.1250033E+03  0.7818608E-02  0.1235064E+00
          4   -1    0    0  501    0  0.00000000000E+00  0.00000000000E+00  0.93303354926E+02  0.93311997838E+02  0.12700000000E+01 0. -1.
         -4   -1    0    0    0  501 -0.00000000000E+00 -0.00000000000E+00 -0.41848106969E+02  0.41867373418E+02  0.12700000000E+01 0. -1.
         25    2    1    2    0    0  0.00000000000E+00  0.00000000000E+00  0.51455247957E+02  0.13517937126E+03  0.12500327944E+03 0.  0.
    9000005    1    3    3    0    0 -0.33229982499E+02  0.52466934315E+02  0.18200844936E+02  0.64724660599E+02  0.10000000000E+01 0.  0.
    9000005    1    3    3    0    0  0.33229982499E+02 -0.52466934315E+02  0.33254403021E+02  0.70454710656E+02  0.10000000000E+01 0.  0.
<mgrwt>
<rscale>  0 0.12500328E+03</rscale>
<asrwt>0</asrwt>
<pdfrwt beam="1">  1        4 0.14356509E-01 0.12500328E+03</pdfrwt>
<pdfrwt beam="2">  1       -4 0.64403173E-02 0.12500328E+03</pdfrwt>
<totfact> 0.10233535E+04</totfact>
</mgrwt>
</event>
<event>
 5    1  0.3206665E-002  0.1249996E+03  0.7818608E-02  0.1235070E+00
         -4   -1    0    0    0  501 -0.00000000000E+00  0.00000000000E+00  0.28827273535E+01  0.31500820616E+01  0.12700000000E+01 0. -1.
          4   -1    0    0  501    0  0.00000000000E+00 -0.00000000000E+00 -0.12947266030E+04  0.12947272259E+04  0.12700000000E+01 0. -1.
         25    2    1    2    0    0  0.00000000000E+00  0.00000000000E+00 -0.12918438757E+04  0.12978773080E+04  0.12499962962E+03 0.  0.
    9000005    1    3    3    0    0  0.24080311279E+02 -0.52803362263E+02 -0.40527466333E+03  0.40941007461E+03  0.10000000000E+01 0.  0.
    9000005    1    3    3    0    0 -0.24080311279E+02  0.52803362263E+02 -0.88656921236E+03  0.88846723336E+03  0.10000000000E+01 0.  0.
<mgrwt>
<rscale>  0 0.12499963E+03</rscale>
<asrwt>0</asrwt>
<pdfrwt beam="2">  1        4 0.19920888E+00 0.12499963E+03</pdfrwt>
<pdfrwt beam="1">  1       -4 0.46411121E-03 0.12499963E+03</pdfrwt>
<totfact> 0.22278917E+03</totfact>
</mgrwt>
</event>
<event>
 5    1  0.3206665E-002  0.1249997E+03  0.7818608E-02  0.1235070E+00
          4   -1    0    0  501    0  0.00000000000E+00  0.00000000000E+00  0.21052795485E+01  0.24586789089E+01  0.12700000000E+01 0. -1.
         -4   -1    0    0    0  501 -0.00000000000E+00 -0.00000000000E+00 -0.17114190213E+04  0.17114194925E+04  0.12700000000E+01 0. -1.
         25    2    1    2    0    0  0.00000000000E+00  0.00000000000E+00 -0.17093137417E+04  0.17138781714E+04  0.12499967500E+03 0.  0.
    9000005    1    3    3    0    0  0.53183322812E+02  0.20397943065E+02 -0.12070838936E+04  0.12084275188E+04  0.10000000000E+01 0.  0.
    9000005    1    3    3    0    0 -0.53183322812E+02 -0.20397943065E+02 -0.50222984813E+03  0.50545065264E+03  0.10000000000E+01 0.  0.
<mgrwt>
<rscale>  0 0.12499967E+03</rscale>
<asrwt>0</asrwt>
<pdfrwt beam="1">  1        4 0.35111134E-03 0.12499967E+03</pdfrwt>
<pdfrwt beam="2">  1       -4 0.26332143E+00 0.12499967E+03</pdfrwt>
<totfact> 0.14077885E+03</totfact>
</mgrwt>
</event>
<event>
 5    1  0.3206665E-002  0.1250064E+03  0.7818608E-02  0.1235059E+00
          4   -1    0    0  501    0  0.00000000000E+00  0.00000000000E+00  0.17882157465E+03  0.17882608440E+03  0.12700000000E+01 0.  1.
         -4   -1    0    0    0  501 -0.00000000000E+00 -0.00000000000E+00 -0.21823372986E+02  0.21860295251E+02  0.12700000000E+01 0.  1.
         25    2    1    2    0    0  0.00000000000E+00  0.00000000000E+00  0.15699820167E+03  0.20068637965E+03  0.12500635044E+03 0.  0.
    9000005    1    3    3    0    0 -0.43885730498E+01 -0.59519254967E+02  0.48729872637E+02  0.77054537650E+02  0.10000000000E+01 0.  0.
    9000005    1    3    3    0    0  0.43885730498E+01  0.59519254967E+02  0.10826832903E+03  0.12363184200E+03  0.10000000000E+01 0.  0.
<mgrwt>
<rscale>  0 0.12500635E+03</rscale>
<asrwt>0</asrwt>
<pdfrwt beam="1">  1        4 0.27514197E-01 0.12500635E+03</pdfrwt>
<pdfrwt beam="2">  1       -4 0.33606293E-02 0.12500635E+03</pdfrwt>
<totfact> 0.90007083E+03</totfact>
</mgrwt>
</event>
<event>
 5    1  0.3206665E-002  0.1249933E+03  0.7818608E-02  0.1235080E+00
         -4   -1    0    0    0  501 -0.00000000000E+00  0.00000000000E+00  0.39082668245E+02  0.39103297267E+02  0.12700000000E+01 0. -1.
          4   -1    0    0  501    0  0.00000000000E+00 -0.00000000000E+00 -0.99886695114E+02  0.99894768436E+02  0.12700000000E+01 0. -1.
         25    2    1    2    0    0  0.00000000000E+00  0.00000000000E+00 -0.60804026869E+02  0.13899806570E+03  0.12499333017E+03 0.  0.
    9000005    1    3    3    0    0 -0.32129728668E+02 -0.84826451781E+01 -0.89251711009E+02  0.95242546435E+02  0.10000000000E+01 0.  0.
    9000005    1    3    3    0    0  0.32129728668E+02  0.84826451781E+01  0.28447684140E+02  0.43755519268E+02  0.10000000000E+01 0.  0.
<mgrwt>
<rscale>  0 0.12499333E+03</rscale>
<asrwt>0</asrwt>
<pdfrwt beam="2">  1        4 0.15369392E-01 0.12499333E+03</pdfrwt>
<pdfrwt beam="1">  1       -4 0.60149261E-02 0.12499333E+03</pdfrwt>
<totfact> 0.10155920E+04</totfact>
</mgrwt>
</event>
<event>
 5    1  0.3206665E-002  0.1250016E+03  0.7818608E-02  0.1235067E+00
          4   -1    0    0  501    0  0.00000000000E+00  0.00000000000E+00  0.12587811949E+03  0.12588452592E+03  0.12700000000E+01 0. -1.
         -4   -1    0    0    0  501 -0.00000000000E+00 -0.00000000000E+00 -0.31012614336E+02  0.31038607378E+02  0.12700000000E+01 0. -1.
         25    2    1    2    0    0  0.00000000000E+00  0.00000000000E+00  0.94865505157E+02  0.15692313330E+03  0.12500162278E+03 0.  0.
    9000005    1    3    3    0    0  0.94846119559E+01  0.47150506395E+02 -0.26598168150E+01  0.48178861991E+02  0.10000000000E+01 0.  0.
    9000005    1    3    3    0    0 -0.94846119559E+01 -0.47150506395E+02  0.97525321972E+02  0.10874427131E+03  0.10000000000E+01 0.  0.
<mgrwt>
<rscale>  0 0.12500162E+03</rscale>
<asrwt>0</asrwt>
<pdfrwt beam="1">  1        4 0.19368357E-01 0.12500162E+03</pdfrwt>
<pdfrwt beam="2">  1       -4 0.47736636E-02 0.12500162E+03</pdfrwt>
<totfact> 0.97935707E+03</totfact>
</mgrwt>
</event>
<event>
 5    1  0.3206665E-002  0.1249997E+03  0.7818608E-02  0.1235070E+00
          4   -1    0    0  501    0  0.00000000000E+00  0.00000000000E+00  0.61497830397E+02  0.61510942470E+02  0.12700000000E+01 0.  1.
         -4   -1    0    0    0  501 -0.00000000000E+00 -0.00000000000E+00 -0.63492004890E+02  0.63504705219E+02  0.12700000000E+01 0.  1.
         25    2    1    2    0    0  0.00000000000E+00  0.00000000000E+00 -0.19941744930E+01  0.12501564769E+03  0.12499974174E+03 0.  0.
    9000005    1    3    3    0    0 -0.33742864425E+02  0.43082638876E+02  0.29181894342E+02  0.62026426864E+02  0.10000000000E+01 0.  0.
    9000005    1    3    3    0    0  0.33742864425E+02 -0.43082638876E+02 -0.31176068835E+02  0.62989220825E+02  0.10000000000E+01 0.  0.
<mgrwt>
<rscale>  0 0.12499974E+03</rscale>
<asrwt>0</asrwt>
<pdfrwt beam="1">  1        4 0.94631903E-02 0.12499974E+03</pdfrwt>
<pdfrwt beam="2">  1       -4 0.97699863E-02 0.12499974E+03</pdfrwt>
<totfact> 0.10452584E+04</totfact>
</mgrwt>
</event>
<event>
 5    1  0.3206665E-002  0.1249994E+03  0.7818608E-02  0.1235070E+00
         -4   -1    0    0    0  501 -0.00000000000E+00  0.00000000000E+00  0.76311226829E+02  0.76321794005E+02  0.12700000000E+01 0. -1.
          4   -1    0    0  501    0  0.00000000000E+00 -0.00000000000E+00 -0.51165927034E+02  0.51181686073E+02  0.12700000000E+01 0. -1.
         25    2    1    2    0    0  0.00000000000E+00  0.00000000000E+00  0.25145299795E+02  0.12750348008E+03  0.12499940532E+03 0.  0.
    9000005    1    3    3    0    0 -0.48070110732E+02  0.38975744015E+02  0.37172229742E+01  0.62005337786E+02  0.10000000000E+01 0.  0.
    9000005    1    3    3    0    0  0.48070110732E+02 -0.38975744015E+02  0.21428076820E+02  0.65498142291E+02  0.10000000000E+01 0.  0.
<mgrwt>
<rscale>  0 0.12499941E+03</rscale>
<asrwt>0</asrwt>
<pdfrwt beam="2">  1        4 0.78737062E-02 0.12499941E+03</pdfrwt>
<pdfrwt beam="1">  1       -4 0.11742214E-01 0.12499941E+03</pdfrwt>
<totfact> 0.10398365E+04</totfact>
</mgrwt>
</event>
<event>
 5    1  0.3206665E-002  0.1250017E+03  0.7818608E-02  0.1235067E+00
          4   -1    0    0  501    0  0.00000000000E+00  0.00000000000E+00  0.34136062450E+02  0.34159678857E+02  0.12700000000E+01 0. -1.
         -4   -1    0    0    0  501 -0.00000000000E+00 -0.00000000000E+00 -0.11436823099E+03  0.11437528212E+03  0.12700000000E+01 0. -1.
         25    2    1    2    0    0  0.00000000000E+00  0.00000000000E+00 -0.80232168537E+02  0.14853496097E+03  0.12500173504E+03 0.  0.
    9000005    1    3    3    0    0 -0.47430766581E+01  0.59805596974E+02 -0.19324797788E+02  0.63036925807E+02  0.10000000000E+01 0.  0.
    9000005    1    3    3    0    0  0.47430766581E+01 -0.59805596974E+02 -0.60907370748E+02  0.85498035165E+02  0.10000000000E+01 0.  0.
<mgrwt>
<rscale>  0 0.12500174E+03</rscale>
<asrwt>0</asrwt>
<pdfrwt beam="1">  1        4 0.52540610E-02 0.12500174E+03</pdfrwt>
<pdfrwt beam="2">  1       -4 0.17597471E-01 0.12500174E+03</pdfrwt>
<totfact> 0.99592647E+03</totfact>
</mgrwt>
</event>
<event>
 5    1  0.3206665E-002  0.1249749E+03  0.7818608E-02  0.1235109E+00
          4   -1    0    0  501    0  0.00000000000E+00  0.00000000000E+00  0.33080991037E+02  0.33105360110E+02  0.12700000000E+01 0. -1.
         -4   -1    0    0    0  501 -0.00000000000E+00 -0.00000000000E+00 -0.11796270015E+03  0.11796953643E+03  0.12700000000E+01 0. -1.
         25    2    1    2    0    0  0.00000000000E+00  0.00000000000E+00 -0.84881709112E+02  0.15107489654E+03  0.12497487677E+03 0.  0.
    9000005    1    3    3    0    0  0.56669021755E+02  0.18101124507E+02 -0.65524714166E+02  0.88507157346E+02  0.10000000000E+01 0.  0.
    9000005    1    3    3    0    0 -0.56669021755E+02 -0.18101124507E+02 -0.19356994947E+02  0.62567739198E+02  0.10000000000E+01 0.  0.
<mgrwt>
<rscale>  0 0.12497488E+03</rscale>
<asrwt>0</asrwt>
<pdfrwt beam="1">  1        4 0.50917837E-02 0.12497488E+03</pdfrwt>
<pdfrwt beam="2">  1       -4 0.18150508E-01 0.12497488E+03</pdfrwt>
<totfact> 0.99145905E+03</totfact>
</mgrwt>
</event>
<event>
 5    1  0.3206665E-002  0.1250046E+03  0.7818608E-02  0.1235062E+00
          4   -1    0    0  501    0  0.00000000000E+00  0.00000000000E+00  0.30288308585E+03  0.30288574842E+03  0.12700000000E+01 0. -1.
         -4   -1    0    0    0  501 -0.00000000000E+00 -0.00000000000E+00 -0.12863860028E+02  0.12926399143E+02  0.12700000000E+01 0. -1.
         25    2    1    2    0    0  0.00000000000E+00  0.00000000000E+00  0.29001922582E+03  0.31581214756E+03  0.12500464471E+03 0.  0.
    9000005    1    3    3    0    0 -0.44963511950E+02 -0.28832663134E+02  0.22697185343E+03  0.23317431702E+03  0.10000000000E+01 0.  0.
    9000005    1    3    3    0    0  0.44963511950E+02  0.28832663134E+02  0.63047372395E+02  0.82637830539E+02  0.10000000000E+01 0.  0.
<mgrwt>
<rscale>  0 0.12500464E+03</rscale>
<asrwt>0</asrwt>
<pdfrwt beam="1">  1        4 0.46602412E-01 0.12500464E+03</pdfrwt>
<pdfrwt beam="2">  1       -4 0.19840709E-02 0.12500464E+03</pdfrwt>
<totfact> 0.73649412E+03</totfact>
</mgrwt>
</event>
<event>
 5    1  0.3206665E-002  0.1250085E+03  0.7818608E-02  0.1235056E+00
         -4   -1    0    0    0  501 -0.00000000000E+00  0.00000000000E+00  0.56210270395E+02  0.56224615586E+02  0.12700000000E+01 0. -1.
          4   -1    0    0  501    0  0.00000000000E+00 -0.00000000000E+00 -0.69473954709E+02  0.69485561687E+02  0.12700000000E+01 0. -1.
         25    2    1    2    0    0  0.00000000000E+00  0.00000000000E+00 -0.13263684314E+02  0.12571017727E+03  0.12500849311E+03 0.  0.
    9000005    1    3    3    0    0  0.40766644454E+02 -0.46251512605E+02 -0.16919569739E+02  0.63940547061E+02  0.10000000000E+01 0.  0.
    9000005    1    3    3    0    0 -0.40766644454E+02  0.46251512605E+02  0.36558854254E+01  0.61769630212E+02  0.10000000000E+01 0.  0.
<mgrwt>
<rscale>  0 0.12500849E+03</rscale>
<asrwt>0</asrwt>
<pdfrwt beam="2">  1        4 0.10690297E-01 0.12500849E+03</pdfrwt>
<pdfrwt beam="1">  1       -4 0.86497302E-02 0.12500849E+03</pdfrwt>
<totfact> 0.10435321E+04</totfact>
</mgrwt>
</event>
<event>
 5    1  0.3206665E-002  0.1250015E+03  0.7818608E-02  0.1235067E+00
         -4   -1    0    0    0  501 -0.00000000000E+00  0.00000000000E+00  0.20661181341E+03  0.20661571659E+03  0.12700000000E+01 0.  1.
          4   -1    0    0  501    0  0.00000000000E+00 -0.00000000000E+00 -0.18881278394E+02  0.18923941814E+02  0.12700000000E+01 0.  1.
         25    2    1    2    0    0  0.00000000000E+00  0.00000000000E+00  0.18773053502E+03  0.22553965841E+03  0.12500153493E+03 0.  0.
    9000005    1    3    3    0    0  0.59993582313E+02  0.19608974050E+01  0.62495901656E+02  0.86659175862E+02  0.10000000000E+01 0.  0.
    9000005    1    3    3    0    0 -0.59993582313E+02 -0.19608974050E+01  0.12523463336E+03  0.13888048254E+03  0.10000000000E+01 0.  0.
<mgrwt>
<rscale>  0 0.12500153E+03</rscale>
<asrwt>0</asrwt>
<pdfrwt beam="2">  1        4 0.29083939E-02 0.12500153E+03</pdfrwt>
<pdfrwt beam="1">  1       -4 0.31790017E-01 0.12500153E+03</pdfrwt>
<totfact> 0.85996277E+03</totfact>
</mgrwt>
</event>
<event>
 5    1  0.3206665E-002  0.1250011E+03  0.7818608E-02  0.1235068E+00
          4   -1    0    0  501    0  0.00000000000E+00  0.00000000000E+00  0.18018735705E+02  0.18063436451E+02  0.12700000000E+01 0. -1.
         -4   -1    0    0    0  501 -0.00000000000E+00 -0.00000000000E+00 -0.21647674973E+03  0.21648047504E+03  0.12700000000E+01 0. -1.
         25    2    1    2    0    0  0.00000000000E+00  0.00000000000E+00 -0.19845801403E+03  0.23454391150E+03  0.12500105235E+03 0.  0.
    9000005    1    3    3    0    0  0.25138372908E+02  0.35304675736E+02 -0.14753101970E+02  0.45793142926E+02  0.10000000000E+01 0.  0.
    9000005    1    3    3    0    0 -0.25138372908E+02 -0.35304675736E+02 -0.18370491206E+03  0.18875076857E+03  0.10000000000E+01 0.  0.
<mgrwt>
<rscale>  0 0.12500105E+03</rscale>
<asrwt>0</asrwt>
<pdfrwt beam="1">  1        4 0.27758384E-02 0.12500105E+03</pdfrwt>
<pdfrwt beam="2">  1       -4 0.33307839E-01 0.12500105E+03</pdfrwt>
<totfact> 0.84614739E+03</totfact>
</mgrwt>
</event>
<event>
 5    1  0.3206665E-002  0.1250056E+03  0.7818608E-02  0.1235061E+00
          4   -1    0    0  501    0  0.00000000000E+00  0.00000000000E+00  0.48310165777E+02  0.48326856067E+02  0.12700000000E+01 0. -1.
         -4   -1    0    0    0  501 -0.00000000000E+00 -0.00000000000E+00 -0.80829284794E+02  0.80839261379E+02  0.12700000000E+01 0. -1.
         25    2    1    2    0    0  0.00000000000E+00  0.00000000000E+00 -0.32519119018E+02  0.12916611745E+03  0.12500557105E+03 0.  0.
    9000005    1    3    3    0    0  0.49400180618E+02 -0.27006336190E+02  0.11770382142E+02  0.57526184780E+02  0.10000000000E+01 0.  0.
    9000005    1    3    3    0    0 -0.49400180618E+02  0.27006336190E+02 -0.44289501160E+02  0.71639932667E+02  0.10000000000E+01 0.  0.
<mgrwt>
<rscale>  0 0.12500557E+03</rscale>
<asrwt>0</asrwt>
<pdfrwt beam="1">  1        4 0.74343845E-02 0.12500557E+03</pdfrwt>
<pdfrwt beam="2">  1       -4 0.12437326E-01 0.12500557E+03</pdfrwt>
<totfact> 0.10361076E+04</totfact>
</mgrwt>
</event>
<event>
 5    1  0.3206665E-002  0.1249993E+03  0.7818608E-02  0.1235070E+00
         -4   -1    0    0    0  501 -0.00000000000E+00  0.00000000000E+00  0.14187709086E+03  0.14188277489E+03  0.12700000000E+01 0.  1.
          4   -1    0    0  501    0  0.00000000000E+00 -0.00000000000E+00 -0.27511438866E+02  0.27540736527E+02  0.12700000000E+01 0.  1.
         25    2    1    2    0    0  0.00000000000E+00  0.00000000000E+00  0.11436565199E+03  0.16942351142E+03  0.12499929546E+03 0.  0.
    9000005    1    3    3    0    0  0.36321599490E+01  0.22553349393E+02 -0.21656010537E+02  0.31493315912E+02  0.10000000000E+01 0.  0.
    9000005    1    3    3    0    0 -0.36321599490E+01 -0.22553349393E+02  0.13602166253E+03  0.13793019551E+03  0.10000000000E+01 0.  0.
<mgrwt>
<rscale>  0 0.12499930E+03</rscale>
<asrwt>0</asrwt>
<pdfrwt beam="2">  1        4 0.42352200E-02 0.12499930E+03</pdfrwt>
<pdfrwt beam="1">  1       -4 0.21829935E-01 0.12499930E+03</pdfrwt>
<totfact> 0.95557657E+03</totfact>
</mgrwt>
</event>
<event>
 5    1  0.3206665E-002  0.1249970E+03  0.7818608E-02  0.1235074E+00
          4   -1    0    0  501    0  0.00000000000E+00  0.00000000000E+00  0.92995027544E+02  0.93003699109E+02  0.12700000000E+01 0.  1.
         -4   -1    0    0    0  501 -0.00000000000E+00 -0.00000000000E+00 -0.41982671345E+02  0.42001876068E+02  0.12700000000E+01 0.  1.
         25    2    1    2    0    0  0.00000000000E+00  0.00000000000E+00  0.51012356200E+02  0.13500557518E+03  0.12499697934E+03 0.  0.
    9000005    1    3    3    0    0  0.30685311089E+02 -0.54329658920E+02  0.29210215335E+02  0.68902371766E+02  0.10000000000E+01 0.  0.
    9000005    1    3    3    0    0 -0.30685311089E+02  0.54329658920E+02  0.21802140864E+02  0.66103203412E+02  0.10000000000E+01 0.  0.
<mgrwt>
<rscale>  0 0.12499698E+03</rscale>
<asrwt>0</asrwt>
<pdfrwt beam="1">  1        4 0.14309072E-01 0.12499698E+03</pdfrwt>
<pdfrwt beam="2">  1       -4 0.64610168E-02 0.12499698E+03</pdfrwt>
<totfact> 0.10238651E+04</totfact>
</mgrwt>
</event>
<event>
 5    1  0.3206665E-002  0.1250110E+03  0.7818608E-02  0.1235052E+00
          4   -1    0    0  501    0  0.00000000000E+00  0.00000000000E+00  0.71481804688E+02  0.71493085689E+02  0.12700000000E+01 0. -1.
         -4   -1    0    0    0  501 -0.00000000000E+00 -0.00000000000E+00 -0.54633422357E+02  0.54648181474E+02  0.12700000000E+01 0. -1.
         25    2    1    2    0    0  0.00000000000E+00  0.00000000000E+00  0.16848382331E+02  0.12614126716E+03  0.12501100469E+03 0.  0.
    9000005    1    3    3    0    0  0.45081508062E+02  0.43257831969E+02  0.99728075252E+01  0.63277478503E+02  0.10000000000E+01 0.  0.
    9000005    1    3    3    0    0 -0.45081508062E+02 -0.43257831969E+02  0.68755748057E+01  0.62863788660E+02  0.10000000000E+01 0.  0.
<mgrwt>
<rscale>  0 0.12501100E+03</rscale>
<asrwt>0</asrwt>
<pdfrwt beam="1">  1        4 0.10999204E-01 0.12501100E+03</pdfrwt>
<pdfrwt beam="2">  1       -4 0.84071450E-02 0.12501100E+03</pdfrwt>
<totfact> 0.10425274E+04</totfact>
</mgrwt>
</event>
<event>
 5    1  0.3206665E-002  0.1250013E+03  0.7818608E-02  0.1235067E+00
          4   -1    0    0  501    0  0.00000000000E+00  0.00000000000E+00  0.30879903360E+01  0.33389495826E+01  0.12700000000E+01 0. -1.
         -4   -1    0    0    0  501 -0.00000000000E+00 -0.00000000000E+00 -0.12153609490E+04  0.12153616125E+04  0.12700000000E+01 0. -1.
         25    2    1    2    0    0  0.00000000000E+00  0.00000000000E+00 -0.12122729586E+04  0.12187005621E+04  0.12500133531E+03 0.  0.
    9000005    1    3    3    0    0  0.41311835435E+02  0.34822898237E+02 -0.91228188531E+03  0.91388103178E+03  0.10000000000E+01 0.  0.
    9000005    1    3    3    0    0 -0.41311835435E+02 -0.34822898237E+02 -0.29999107334E+03  0.30481953033E+03  0.10000000000E+01 0.  0.
<mgrwt>
<rscale>  0 0.12500134E+03</rscale>
<asrwt>0</asrwt>
<pdfrwt beam="1">  1        4 0.49443201E-03 0.12500134E+03</pdfrwt>
<pdfrwt beam="2">  1       -4 0.18699760E+00 0.12500134E+03</pdfrwt>
<totfact> 0.24227805E+03</totfact>
</mgrwt>
</event>
<event>
 4    1  0.3206665E-002  0.1248847E+03  0.7818608E-02  0.1235250E+00
         -4   -1    0    0    0  501 -0.00000000000E+00  0.00000000000E+00  0.44524317764E+02  0.44542426655E+02  0.12700000000E+01 0. -1.
          4   -1    0    0  501    0  0.00000000000E+00 -0.00000000000E+00 -0.87530611603E+02  0.87539824466E+02  0.12700000000E+01 0. -1.
    9000005    1    1    2    0    0 -0.98886875017E+01  0.61640373561E+02 -0.20603757174E+02  0.65748282129E+02  0.10000000000E+01 0.  0.
    9000005    1    1    2    0    0  0.98886875017E+01 -0.61640373561E+02 -0.22402536664E+02  0.66333968992E+02  0.10000000000E+01 0.  0.
<mgrwt>
<rscale>  0 0.12488467E+03</rscale>
<asrwt>0</asrwt>
<pdfrwt beam="2">  1        4 0.13468350E-01 0.12488467E+03</pdfrwt>
<pdfrwt beam="1">  1       -4 0.68519967E-02 0.12488467E+03</pdfrwt>
<totfact> 0.10326787E+04</totfact>
</mgrwt>
</event>
<event>
 5    1  0.3206665E-002  0.1250024E+03  0.7818608E-02  0.1235066E+00
         -4   -1    0    0    0  501 -0.00000000000E+00  0.00000000000E+00  0.73706585293E+01  0.74792718332E+01  0.12700000000E+01 0.  1.
          4   -1    0    0  501    0  0.00000000000E+00 -0.00000000000E+00 -0.52600769755E+03  0.52600923070E+03  0.12700000000E+01 0.  1.
         25    2    1    2    0    0  0.00000000000E+00  0.00000000000E+00 -0.51863703902E+03  0.53348850253E+03  0.12500241634E+03 0.  0.
    9000005    1    3    3    0    0 -0.14548002564E+02 -0.52829063894E+02 -0.13108143018E+03  0.14207707665E+03  0.10000000000E+01 0.  0.
    9000005    1    3    3    0    0  0.14548002564E+02  0.52829063894E+02 -0.38755560884E+03  0.39141142588E+03  0.10000000000E+01 0.  0.
<mgrwt>
<rscale>  0 0.12500242E+03</rscale>
<asrwt>0</asrwt>
<pdfrwt beam="2">  1        4 0.80932705E-01 0.12500242E+03</pdfrwt>
<pdfrwt beam="1">  1       -4 0.11424207E-02 0.12500242E+03</pdfrwt>
<totfact> 0.53353754E+03</totfact>
</mgrwt>
</event>
<event>
 5    1  0.3206665E-002  0.1249944E+03  0.7818608E-02  0.1235078E+00
         -4   -1    0    0    0  501 -0.00000000000E+00  0.00000000000E+00  0.27260687767E+02  0.27290254625E+02  0.12700000000E+01 0. -1.
          4   -1    0    0  501    0  0.00000000000E+00 -0.00000000000E+00 -0.14316956731E+03  0.14317520003E+03  0.12700000000E+01 0. -1.
         25    2    1    2    0    0  0.00000000000E+00  0.00000000000E+00 -0.11590887954E+03  0.17046545465E+03  0.12499441137E+03 0.  0.
    9000005    1    3    3    0    0  0.26076920426E+02  0.54161671232E+02 -0.81235178170E+02  0.10106258745E+03  0.10000000000E+01 0.  0.
    9000005    1    3    3    0    0 -0.26076920426E+02 -0.54161671232E+02 -0.34673701372E+02  0.69402867206E+02  0.10000000000E+01 0.  0.
<mgrwt>
<rscale>  0 0.12499441E+03</rscale>
<asrwt>0</asrwt>
<pdfrwt beam="2">  1        4 0.22028795E-01 0.12499441E+03</pdfrwt>
<pdfrwt beam="1">  1       -4 0.41966597E-02 0.12499441E+03</pdfrwt>
<totfact> 0.95373916E+03</totfact>
</mgrwt>
</event>
<event>
 5    1  0.3206665E-002  0.1250021E+03  0.7818608E-02  0.1235066E+00
          4   -1    0    0  501    0  0.00000000000E+00  0.00000000000E+00  0.23282120410E+02  0.23316732849E+02  0.12700000000E+01 0.  1.
         -4   -1    0    0    0  501 -0.00000000000E+00 -0.00000000000E+00 -0.16762305618E+03  0.16762786721E+03  0.12700000000E+01 0.  1.
         25    2    1    2    0    0  0.00000000000E+00  0.00000000000E+00 -0.14434093577E+03  0.19094460005E+03  0.12500213818E+03 0.  0.
    9000005    1    3    3    0    0  0.56470790587E+02  0.54637156949E+01 -0.32145046623E+02  0.65215844709E+02  0.10000000000E+01 0.  0.
    9000005    1    3    3    0    0 -0.56470790587E+02 -0.54637156949E+01 -0.11219588915E+03  0.12572875535E+03  0.10000000000E+01 0.  0.
<mgrwt>
<rscale>  0 0.12500214E+03</rscale>
<asrwt>0</asrwt>
<pdfrwt beam="1">  1        4 0.35848974E-02 0.12500214E+03</pdfrwt>
<pdfrwt beam="2">  1       -4 0.25791194E-01 0.12500214E+03</pdfrwt>
<totfact> 0.91678826E+03</totfact>
</mgrwt>
</event>
<event>
 5    1  0.3206665E-002  0.1250096E+03  0.7818608E-02  0.1235054E+00
          4   -1    0    0  501    0  0.00000000000E+00  0.00000000000E+00  0.10866020925E+03  0.10866763076E+03  0.12700000000E+01 0.  1.
         -4   -1    0    0    0  501 -0.00000000000E+00 -0.00000000000E+00 -0.35934891882E+02  0.35957326855E+02  0.12700000000E+01 0.  1.
         25    2    1    2    0    0  0.00000000000E+00  0.00000000000E+00  0.72725317373E+02  0.14462495762E+03  0.12500962594E+03 0.  0.
    9000005    1    3    3    0    0 -0.86995293913E+01 -0.21111610344E+02 -0.30941997002E+02  0.38468026742E+02  0.10000000000E+01 0.  0.
    9000005    1    3    3    0    0  0.86995293913E+01  0.21111610344E+02  0.10366731437E+03  0.10615693087E+03  0.10000000000E+01 0.  0.
<mgrwt>
<rscale>  0 0.12500963E+03</rscale>
<asrwt>0</asrwt>
<pdfrwt beam="1">  1        4 0.16719251E-01 0.12500963E+03</pdfrwt>
<pdfrwt beam="2">  1       -4 0.55307417E-02 0.12500963E+03</pdfrwt>
<totfact> 0.10036438E+04</totfact>
</mgrwt>
</event>
<event>
 5    1  0.3206665E-002  0.1250029E+03  0.7818608E-02  0.1235065E+00
         -4   -1    0    0    0  501 -0.00000000000E+00  0.00000000000E+00  0.25619250011E+03  0.25619564792E+03  0.12700000000E+01 0.  1.
          4   -1    0    0  501    0  0.00000000000E+00 -0.00000000000E+00 -0.15218328146E+02  0.15271228227E+02  0.12700000000E+01 0.  1.
         25    2    1    2    0    0  0.00000000000E+00  0.00000000000E+00  0.24097417196E+03  0.27146687614E+03  0.12500285313E+03 0.  0.
    9000005    1    3    3    0    0  0.41055632583E+02 -0.42048592671E+02  0.74327698140E+02  0.94758935321E+02  0.10000000000E+01 0.  0.
    9000005    1    3    3    0    0 -0.41055632583E+02  0.42048592671E+02  0.16664647382E+03  0.17670794082E+03  0.10000000000E+01 0.  0.
<mgrwt>
<rscale>  0 0.12500285E+03</rscale>
<asrwt>0</asrwt>
<pdfrwt beam="2">  1        4 0.23455926E-02 0.12500285E+03</pdfrwt>
<pdfrwt beam="1">  1       -4 0.39418542E-01 0.12500285E+03</pdfrwt>
<totfact> 0.79318266E+03</totfact>
</mgrwt>
</event>
<event>
 5    1  0.3206665E-002  0.1250005E+03  0.7818608E-02  0.1235068E+00
         -4   -1    0    0    0  501 -0.00000000000E+00  0.00000000000E+00  0.15779095493E+03  0.15779606572E+03  0.12700000000E+01 0.  1.
          4   -1    0    0  501    0  0.00000000000E+00 -0.00000000000E+00 -0.24734269078E+02  0.24766852178E+02  0.12700000000E+01 0.  1.
         25    2    1    2    0    0  0.00000000000E+00  0.00000000000E+00  0.13305668585E+03  0.18256291790E+03  0.12500054937E+03 0.  0.
    9000005    1    3    3    0    0 -0.46517346364E+02  0.13605376550E+02  0.89115161707E+01  0.49288790858E+02  0.10000000000E+01 0.  0.
    9000005    1    3    3    0    0  0.46517346364E+02 -0.13605376550E+02  0.12414516968E+03  0.13327412704E+03  0.10000000000E+01 0.  0.
<mgrwt>
<rscale>  0 0.12500055E+03</rscale>
<asrwt>0</asrwt>
<pdfrwt beam="2">  1        4 0.38081718E-02 0.12500055E+03</pdfrwt>
<pdfrwt beam="1">  1       -4 0.24278431E-01 0.12500055E+03</pdfrwt>
<totfact> 0.93156546E+03</totfact>
</mgrwt>
</event>
<event>
 5    1  0.3206665E-002  0.1249990E+03  0.7818608E-02  0.1235071E+00
          4   -1    0    0  501    0  0.00000000000E+00  0.00000000000E+00  0.15442426458E+02  0.15494561462E+02  0.12700000000E+01 0.  1.
         -4   -1    0    0    0  501 -0.00000000000E+00 -0.00000000000E+00 -0.25247153161E+03  0.25247472581E+03  0.12700000000E+01 0.  1.
         25    2    1    2    0    0  0.00000000000E+00  0.00000000000E+00 -0.23702910515E+03  0.26796928727E+03  0.12499896892E+03 0.  0.
    9000005    1    3    3    0    0 -0.31794375568E+02 -0.52928160586E+02 -0.97850430163E+02  0.11570643536E+03  0.10000000000E+01 0.  0.
    9000005    1    3    3    0    0  0.31794375568E+02  0.52928160586E+02 -0.13917867499E+03  0.15226285191E+03  0.10000000000E+01 0.  0.
<mgrwt>
<rscale>  0 0.12499897E+03</rscale>
<asrwt>0</asrwt>
<pdfrwt beam="1">  1        4 0.23800142E-02 0.12499897E+03</pdfrwt>
<pdfrwt beam="2">  1       -4 0.38846027E-01 0.12499897E+03</pdfrwt>
<totfact> 0.79802363E+03</totfact>
</mgrwt>
</event>
<event>
 5    1  0.3206665E-002  0.1249862E+03  0.7818608E-02  0.1235091E+00
          4   -1    0    0  501    0  0.00000000000E+00  0.00000000000E+00  0.17899833688E+02  0.17944830623E+02  0.12700000000E+01 0. -1.
         -4   -1    0    0    0  501 -0.00000000000E+00 -0.00000000000E+00 -0.21785953338E+03  0.21786323504E+03  0.12700000000E+01 0. -1.
         25    2    1    2    0    0  0.00000000000E+00  0.00000000000E+00 -0.19995969969E+03  0.23580806566E+03  0.12498624858E+03 0.  0.
    9000005    1    3    3    0    0  0.50174038065E+02  0.34112365744E+02 -0.71786693951E+02  0.93996898995E+02  0.10000000000E+01 0.  0.
    9000005    1    3    3    0    0 -0.50174038065E+02 -0.34112365744E+02 -0.12817300574E+03  0.14181116667E+03  0.10000000000E+01 0.  0.
<mgrwt>
<rscale>  0 0.12498625E+03</rscale>
<asrwt>0</asrwt>
<pdfrwt beam="1">  1        4 0.27575668E-02 0.12498625E+03</pdfrwt>
<pdfrwt beam="2">  1       -4 0.33520595E-01 0.12498625E+03</pdfrwt>
<totfact> 0.84451566E+03</totfact>
</mgrwt>
</event>
<event>
 5    1  0.3206665E-002  0.1250016E+03  0.7818608E-02  0.1235067E+00
         -4   -1    0    0    0  501 -0.00000000000E+00  0.00000000000E+00  0.15257988885E+03  0.15258517419E+03  0.12700000000E+01 0. -1.
          4   -1    0    0  501    0  0.00000000000E+00 -0.00000000000E+00 -0.25580509420E+02  0.25612015973E+02  0.12700000000E+01 0. -1.
         25    2    1    2    0    0  0.00000000000E+00  0.00000000000E+00  0.12699937943E+03  0.17819719016E+03  0.12500158481E+03 0.  0.
    9000005    1    3    3    0    0  0.11566940256E+01 -0.50226750106E+02  0.10517862655E+02  0.51338969624E+02  0.10000000000E+01 0.  0.
    9000005    1    3    3    0    0 -0.11566940256E+01  0.50226750106E+02  0.11648151678E+03  0.12685822054E+03  0.10000000000E+01 0.  0.
<mgrwt>
<rscale>  0 0.12500158E+03</rscale>
<asrwt>0</asrwt>
<pdfrwt beam="2">  1        4 0.39382931E-02 0.12500158E+03</pdfrwt>
<pdfrwt beam="1">  1       -4 0.23476659E-01 0.12500158E+03</pdfrwt>
<totfact> 0.93939186E+03</totfact>
</mgrwt>
</event>
<event>
 5    1  0.3206665E-002  0.1250003E+03  0.7818608E-02  0.1235069E+00
          4   -1    0    0  501    0  0.00000000000E+00  0.00000000000E+00  0.13342667182E+03  0.13343271582E+03  0.12700000000E+01 0. -1.
         -4   -1    0    0    0  501 -0.00000000000E+00 -0.00000000000E+00 -0.29256035128E+02  0.29283587406E+02  0.12700000000E+01 0. -1.
         25    2    1    2    0    0  0.00000000000E+00  0.00000000000E+00  0.10417063669E+03  0.16271630323E+03  0.12500029515E+03 0.  0.
    9000005    1    3    3    0    0 -0.45355949848E+02  0.10458081153E+01 -0.38588668800E+01  0.45542801351E+02  0.10000000000E+01 0.  0.
    9000005    1    3    3    0    0  0.45355949848E+02 -0.10458081153E+01  0.10802950357E+03  0.11717350188E+03  0.10000000000E+01 0.  0.
<mgrwt>
<rscale>  0 0.12500030E+03</rscale>
<asrwt>0</asrwt>
<pdfrwt beam="1">  1        4 0.20529764E-01 0.12500030E+03</pdfrwt>
<pdfrwt beam="2">  1       -4 0.45035129E-02 0.12500030E+03</pdfrwt>
<totfact> 0.96821003E+03</totfact>
</mgrwt>
</event>
<event>
 5    1  0.3206665E-002  0.1250002E+03  0.7818608E-02  0.1235069E+00
          4   -1    0    0  501    0  0.00000000000E+00  0.00000000000E+00  0.25591637664E+03  0.25591952784E+03  0.12700000000E+01 0.  1.
         -4   -1    0    0    0  501 -0.00000000000E+00 -0.00000000000E+00 -0.15234162789E+02  0.15287008075E+02  0.12700000000E+01 0.  1.
         25    2    1    2    0    0  0.00000000000E+00  0.00000000000E+00  0.24068221385E+03  0.27120653592E+03  0.12500022824E+03 0.  0.
    9000005    1    3    3    0    0  0.93843734572E+01  0.40541521997E+02  0.22149379755E+03  0.22537121339E+03  0.10000000000E+01 0.  0.
    9000005    1    3    3    0    0 -0.93843734572E+01 -0.40541521997E+02  0.19188416294E+02  0.45835322524E+02  0.10000000000E+01 0.  0.
<mgrwt>
<rscale>  0 0.12500023E+03</rscale>
<asrwt>0</asrwt>
<pdfrwt beam="1">  1        4 0.39376059E-01 0.12500023E+03</pdfrwt>
<pdfrwt beam="2">  1       -4 0.23480247E-02 0.12500023E+03</pdfrwt>
<totfact> 0.79358254E+03</totfact>
</mgrwt>
</event>
<event>
 5    1  0.3206665E-002  0.1250000E+03  0.7818608E-02  0.1235069E+00
          4   -1    0    0  501    0  0.00000000000E+00  0.00000000000E+00  0.22960213095E+02  0.22995310073E+02  0.12700000000E+01 0.  1.
         -4   -1    0    0    0  501 -0.00000000000E+00 -0.00000000000E+00 -0.16996398137E+03  0.16996872613E+03  0.12700000000E+01 0.  1.
         25    2    1    2    0    0  0.00000000000E+00  0.00000000000E+00 -0.14700376827E+03  0.19296403621E+03  0.12500004553E+03 0.  0.
    9000005    1    3    3    0    0  0.29852556920E+02  0.51348033455E+02 -0.10349351156E+03  0.11933022513E+03  0.10000000000E+01 0.  0.
    9000005    1    3    3    0    0 -0.29852556920E+02 -0.51348033455E+02 -0.43510256717E+02  0.73633811078E+02  0.10000000000E+01 0.  0.
<mgrwt>
<rscale>  0 0.12500005E+03</rscale>
<asrwt>0</asrwt>
<pdfrwt beam="1">  1        4 0.35354053E-02 0.12500005E+03</pdfrwt>
<pdfrwt beam="2">  1       -4 0.26151369E-01 0.12500005E+03</pdfrwt>
<totfact> 0.91334032E+03</totfact>
</mgrwt>
</event>
<event>
 5    1  0.3206665E-002  0.1250005E+03  0.7818608E-02  0.1235068E+00
         -4   -1    0    0    0  501 -0.00000000000E+00  0.00000000000E+00  0.14750727947E+03  0.14751274656E+03  0.12700000000E+01 0.  1.
          4   -1    0    0  501    0  0.00000000000E+00 -0.00000000000E+00 -0.26460784967E+02  0.26491244612E+02  0.12700000000E+01 0.  1.
         25    2    1    2    0    0  0.00000000000E+00  0.00000000000E+00  0.12104649450E+03  0.17400399117E+03  0.12500054044E+03 0.  0.
    9000005    1    3    3    0    0 -0.26736016751E+02  0.43446562316E+02  0.10277756070E+02  0.52048541177E+02  0.10000000000E+01 0.  0.
    9000005    1    3    3    0    0  0.26736016751E+02 -0.43446562316E+02  0.11076873843E+03  0.12195544999E+03  0.10000000000E+01 0.  0.
<mgrwt>
<rscale>  0 0.12500054E+03</rscale>
<asrwt>0</asrwt>
<pdfrwt beam="2">  1        4 0.40736537E-02 0.12500054E+03</pdfrwt>
<pdfrwt beam="1">  1       -4 0.22696191E-01 0.12500054E+03</pdfrwt>
<totfact> 0.94706426E+03</totfact>
</mgrwt>
</event>
<event>
 5    1  0.3206665E-002  0.1250020E+03  0.7818608E-02  0.1235066E+00
          4   -1    0    0  501    0  0.00000000000E+00  0.00000000000E+00  0.39606913354E+01  0.41593239660E+01  0.12700000000E+01 0. -1.
         -4   -1    0    0    0  501 -0.00000000000E+00 -0.00000000000E+00 -0.96195974368E+03  0.96196058202E+03  0.12700000000E+01 0. -1.
         25    2    1    2    0    0  0.00000000000E+00  0.00000000000E+00 -0.95799905235E+03  0.96611990599E+03  0.12500195378E+03 0.  0.
    9000005    1    3    3    0    0 -0.47335214675E+02  0.77068809702E+01 -0.78866984104E+03  0.79012729147E+03  0.10000000000E+01 0.  0.
    9000005    1    3    3    0    0  0.47335214675E+02 -0.77068809702E+01 -0.16932921131E+03  0.17599261452E+03  0.10000000000E+01 0.  0.
<mgrwt>
<rscale>  0 0.12500195E+03</rscale>
<asrwt>0</asrwt>
<pdfrwt beam="1">  1        4 0.62468182E-03 0.12500195E+03</pdfrwt>
<pdfrwt beam="2">  1       -4 0.14800897E+00 0.12500195E+03</pdfrwt>
<totfact> 0.31749163E+03</totfact>
</mgrwt>
</event>
<event>
 5    1  0.3206665E-002  0.1250002E+03  0.7818608E-02  0.1235069E+00
         -4   -1    0    0    0  501 -0.00000000000E+00  0.00000000000E+00  0.18885216589E+03  0.18885643611E+03  0.12700000000E+01 0. -1.
          4   -1    0    0  501    0  0.00000000000E+00 -0.00000000000E+00 -0.20660239135E+02  0.20699236245E+02  0.12700000000E+01 0. -1.
         25    2    1    2    0    0  0.00000000000E+00  0.00000000000E+00  0.16819192675E+03  0.20955567236E+03  0.12500022237E+03 0.  0.
    9000005    1    3    3    0    0  0.46810306619E+02 -0.37180379610E+02  0.11462740227E+03  0.12928273970E+03  0.10000000000E+01 0.  0.
    9000005    1    3    3    0    0 -0.46810306619E+02  0.37180379610E+02  0.53564524481E+02  0.80272932652E+02  0.10000000000E+01 0.  0.
<mgrwt>
<rscale>  0 0.12500022E+03</rscale>
<asrwt>0</asrwt>
<pdfrwt beam="2">  1        4 0.31818266E-02 0.12500022E+03</pdfrwt>
<pdfrwt beam="1">  1       -4 0.29057508E-01 0.12500022E+03</pdfrwt>
<totfact> 0.88548056E+03</totfact>
</mgrwt>
</event>
<event>
 5    1  0.3206665E-002  0.1249998E+03  0.7818608E-02  0.1235070E+00
          4   -1    0    0  501    0  0.00000000000E+00  0.00000000000E+00  0.22958554660E+02  0.22993654170E+02  0.12700000000E+01 0. -1.
         -4   -1    0    0    0  501 -0.00000000000E+00 -0.00000000000E+00 -0.16997554368E+03  0.16998028812E+03  0.12700000000E+01 0. -1.
         25    2    1    2    0    0  0.00000000000E+00  0.00000000000E+00 -0.14701698902E+03  0.19297394229E+03  0.12499978937E+03 0.  0.
    9000005    1    3    3    0    0  0.56280504440E+02 -0.20272839833E+02 -0.10141462318E+03  0.11774722506E+03  0.10000000000E+01 0.  0.
    9000005    1    3    3    0    0 -0.56280504440E+02  0.20272839833E+02 -0.45602365842E+02  0.75226717230E+02  0.10000000000E+01 0.  0.
<mgrwt>
<rscale>  0 0.12499979E+03</rscale>
<asrwt>0</asrwt>
<pdfrwt beam="1">  1        4 0.35351504E-02 0.12499979E+03</pdfrwt>
<pdfrwt beam="2">  1       -4 0.26153148E-01 0.12499979E+03</pdfrwt>
<totfact> 0.91332849E+03</totfact>
</mgrwt>
</event>
<event>
 5    1  0.3206665E-002  0.1250023E+03  0.7818608E-02  0.1235066E+00
         -4   -1    0    0    0  501 -0.00000000000E+00  0.00000000000E+00  0.43915059300E+01  0.45714575720E+01  0.12700000000E+01 0.  1.
          4   -1    0    0  501    0  0.00000000000E+00 -0.00000000000E+00 -0.87149448177E+03  0.87149540714E+03  0.12700000000E+01 0.  1.
         25    2    1    2    0    0  0.00000000000E+00  0.00000000000E+00 -0.86710297584E+03  0.87606686471E+03  0.12500232288E+03 0.  0.
    9000005    1    3    3    0    0  0.32918070667E+00  0.19419778069E+02 -0.84983887053E+03  0.85006137543E+03  0.10000000000E+01 0.  0.
    9000005    1    3    3    0    0 -0.32918070667E+00 -0.19419778069E+02 -0.17264105313E+02  0.26005489275E+02  0.10000000000E+01 0.  0.
<mgrwt>
<rscale>  0 0.12500232E+03</rscale>
<asrwt>0</asrwt>
<pdfrwt beam="2">  1        4 0.13408985E+00 0.12500232E+03</pdfrwt>
<pdfrwt beam="1">  1       -4 0.68953061E-03 0.12500232E+03</pdfrwt>
<totfact> 0.35081990E+03</totfact>
</mgrwt>
</event>
<event>
 5    1  0.3206665E-002  0.1250045E+03  0.7818608E-02  0.1235062E+00
         -4   -1    0    0    0  501 -0.00000000000E+00  0.00000000000E+00  0.94561848300E+02  0.94570376197E+02  0.12700000000E+01 0.  1.
          4   -1    0    0  501    0  0.00000000000E+00 -0.00000000000E+00 -0.41291741922E+02  0.41311267845E+02  0.12700000000E+01 0.  1.
         25    2    1    2    0    0  0.00000000000E+00  0.00000000000E+00  0.53270106378E+02  0.13588164404E+03  0.12500446774E+03 0.  0.
    9000005    1    3    3    0    0 -0.21456724208E+02 -0.39918030142E+01  0.90289962171E+02  0.92895655302E+02  0.10000000000E+01 0.  0.
    9000005    1    3    3    0    0  0.21456724208E+02  0.39918030142E+01 -0.37019855793E+02  0.42985988740E+02  0.10000000000E+01 0.  0.
<mgrwt>
<rscale>  0 0.12500447E+03</rscale>
<asrwt>0</asrwt>
<pdfrwt beam="2">  1        4 0.63547337E-02 0.12500447E+03</pdfrwt>
<pdfrwt beam="1">  1       -4 0.14550135E-01 0.12500447E+03</pdfrwt>
<totfact> 0.10218492E+04</totfact>
</mgrwt>
</event>
<event>
 5    1  0.3206665E-002  0.1249990E+03  0.7818608E-02  0.1235071E+00
          4   -1    0    0  501    0  0.00000000000E+00  0.00000000000E+00  0.11838318380E+03  0.11838999580E+03  0.12700000000E+01 0.  1.
         -4   -1    0    0    0  501 -0.00000000000E+00 -0.00000000000E+00 -0.32976167143E+02  0.33000613622E+02  0.12700000000E+01 0.  1.
         25    2    1    2    0    0  0.00000000000E+00  0.00000000000E+00  0.85407016658E+02  0.15139060943E+03  0.12499903251E+03 0.  0.
    9000005    1    3    3    0    0  0.40346120275E+02  0.13193297242E+02 -0.12841451063E+02  0.44359614276E+02  0.10000000000E+01 0.  0.
    9000005    1    3    3    0    0 -0.40346120275E+02 -0.13193297242E+02  0.98248467721E+02  0.10703099515E+03  0.10000000000E+01 0.  0.
<mgrwt>
<rscale>  0 0.12499903E+03</rscale>
<asrwt>0</asrwt>
<pdfrwt beam="1">  1        4 0.18215202E-01 0.12499903E+03</pdfrwt>
<pdfrwt beam="2">  1       -4 0.50756610E-02 0.12499903E+03</pdfrwt>
<totfact> 0.99029376E+03</totfact>
</mgrwt>
</event>
<event>
 5    1  0.3206665E-002  0.1250003E+03  0.7818608E-02  0.1235069E+00
         -4   -1    0    0    0  501 -0.00000000000E+00  0.00000000000E+00  0.11016239551E+03  0.11016971582E+03  0.12700000000E+01 0. -1.
          4   -1    0    0  501    0  0.00000000000E+00 -0.00000000000E+00 -0.35439301145E+02  0.35462049653E+02  0.12700000000E+01 0. -1.
         25    2    1    2    0    0  0.00000000000E+00  0.00000000000E+00  0.74723094367E+02  0.14563176548E+03  0.12500028114E+03 0.  0.
    9000005    1    3    3    0    0 -0.21236439934E+01  0.18181082438E+02 -0.32251678674E+02  0.37097606387E+02  0.10000000000E+01 0.  0.
    9000005    1    3    3    0    0  0.21236439934E+01 -0.18181082438E+02  0.10697477304E+03  0.10853415909E+03  0.10000000000E+01 0.  0.
<mgrwt>
<rscale>  0 0.12500028E+03</rscale>
<asrwt>0</asrwt>
<pdfrwt beam="2">  1        4 0.54545133E-02 0.12500028E+03</pdfrwt>
<pdfrwt beam="1">  1       -4 0.16950374E-01 0.12500028E+03</pdfrwt>
<totfact> 0.10018105E+04</totfact>
</mgrwt>
</event>
<event>
 5    1  0.3206665E-002  0.1250006E+03  0.7818608E-02  0.1235068E+00
         -4   -1    0    0    0  501 -0.00000000000E+00  0.00000000000E+00  0.20400015374E+03  0.20400410688E+03  0.12700000000E+01 0. -1.
          4   -1    0    0  501    0  0.00000000000E+00 -0.00000000000E+00 -0.19123240454E+02  0.19165365258E+02  0.12700000000E+01 0. -1.
         25    2    1    2    0    0  0.00000000000E+00  0.00000000000E+00  0.18487691329E+03  0.22316947214E+03  0.12500056092E+03 0.  0.
    9000005    1    3    3    0    0  0.23729673256E+02  0.38690084417E+02  0.15746079307E+02  0.48051628885E+02  0.10000000000E+01 0.  0.
    9000005    1    3    3    0    0 -0.23729673256E+02 -0.38690084417E+02  0.16913083398E+03  0.17511784326E+03  0.10000000000E+01 0.  0.
<mgrwt>
<rscale>  0 0.12500056E+03</rscale>
<asrwt>0</asrwt>
<pdfrwt beam="2">  1        4 0.29455817E-02 0.12500056E+03</pdfrwt>
<pdfrwt beam="1">  1       -4 0.31388181E-01 0.12500056E+03</pdfrwt>
<totfact> 0.86368214E+03</totfact>
</mgrwt>
</event>
<event>
 5    1  0.3206665E-002  0.1249988E+03  0.7818608E-02  0.1235071E+00
          4   -1    0    0  501    0  0.00000000000E+00  0.00000000000E+00  0.91478177311E+02  0.91486992650E+02  0.12700000000E+01 0. -1.
         -4   -1    0    0    0  501 -0.00000000000E+00 -0.00000000000E+00 -0.42680307491E+02  0.42699198442E+02  0.12700000000E+01 0. -1.
         25    2    1    2    0    0  0.00000000000E+00  0.00000000000E+00  0.48797869820E+02  0.13418619109E+03  0.12499880712E+03 0.  0.
    9000005    1    3    3    0    0 -0.20833327696E+02  0.58454180604E+02  0.32306240692E+02  0.69968649841E+02  0.10000000000E+01 0.  0.
    9000005    1    3    3    0    0  0.20833327696E+02 -0.58454180604E+02  0.16491629128E+02  0.64217541250E+02  0.10000000000E+01 0.  0.
<mgrwt>
<rscale>  0 0.12499881E+03</rscale>
<asrwt>0</asrwt>
<pdfrwt beam="1">  1        4 0.14075697E-01 0.12499881E+03</pdfrwt>
<pdfrwt beam="2">  1       -4 0.65683325E-02 0.12499881E+03</pdfrwt>
<totfact> 0.10255528E+04</totfact>
</mgrwt>
</event>
<event>
 5    1  0.3206665E-002  0.1250030E+03  0.7818608E-02  0.1235065E+00
         -4   -1    0    0    0  501 -0.00000000000E+00  0.00000000000E+00  0.79498833647E+01  0.80506860275E+01  0.12700000000E+01 0. -1.
          4   -1    0    0  501    0  0.00000000000E+00 -0.00000000000E+00 -0.48818575606E+03  0.48818740799E+03  0.12700000000E+01 0. -1.
         25    2    1    2    0    0  0.00000000000E+00  0.00000000000E+00 -0.48023587269E+03  0.49623809401E+03  0.12500301009E+03 0.  0.
    9000005    1    3    3    0    0 -0.58595438327E+02 -0.12628919068E+02 -0.31029750923E+03  0.31603553475E+03  0.10000000000E+01 0.  0.
    9000005    1    3    3    0    0  0.58595438327E+02  0.12628919068E+02 -0.16993836346E+03  0.18020255926E+03  0.10000000000E+01 0.  0.
<mgrwt>
<rscale>  0 0.12500301E+03</rscale>
<asrwt>0</asrwt>
<pdfrwt beam="2">  1        4 0.75113359E-01 0.12500301E+03</pdfrwt>
<pdfrwt beam="1">  1       -4 0.12309405E-02 0.12500301E+03</pdfrwt>
<totfact> 0.56153723E+03</totfact>
</mgrwt>
</event>
<event>
 5    1  0.3206665E-002  0.1249870E+03  0.7818608E-02  0.1235090E+00
         -4   -1    0    0    0  501 -0.00000000000E+00  0.00000000000E+00  0.16143534782E+03  0.16144034325E+03  0.12700000000E+01 0. -1.
          4   -1    0    0  501    0  0.00000000000E+00 -0.00000000000E+00 -0.24169929327E+02  0.24203272168E+02  0.12700000000E+01 0. -1.
         25    2    1    2    0    0  0.00000000000E+00  0.00000000000E+00  0.13726541850E+03  0.18564361541E+03  0.12498702664E+03 0.  0.
    9000005    1    3    3    0    0  0.32516352763E+02  0.53350395492E+02  0.67254246414E+02  0.91802568357E+02  0.10000000000E+01 0.  0.
    9000005    1    3    3    0    0 -0.32516352763E+02 -0.53350395492E+02  0.70011172084E+02  0.93841047057E+02  0.10000000000E+01 0.  0.
<mgrwt>
<rscale>  0 0.12498703E+03</rscale>
<asrwt>0</asrwt>
<pdfrwt beam="2">  1        4 0.37213997E-02 0.12498703E+03</pdfrwt>
<pdfrwt beam="1">  1       -4 0.24839157E-01 0.12498703E+03</pdfrwt>
<totfact> 0.92637814E+03</totfact>
</mgrwt>
</event>
<event>
 5    1  0.3206665E-002  0.1249920E+03  0.7818608E-02  0.1235082E+00
          4   -1    0    0  501    0  0.00000000000E+00  0.00000000000E+00  0.80593882529E+02  0.80603888250E+02  0.12700000000E+01 0. -1.
         -4   -1    0    0    0  501 -0.00000000000E+00 -0.00000000000E+00 -0.48440741312E+02  0.48457386629E+02  0.12700000000E+01 0. -1.
         25    2    1    2    0    0  0.00000000000E+00  0.00000000000E+00  0.32153141216E+02  0.12906127488E+03  0.12499195247E+03 0.  0.
    9000005    1    3    3    0    0 -0.96868774344E+01 -0.25217176708E+02 -0.42105093162E+02  0.50035791847E+02  0.10000000000E+01 0.  0.
    9000005    1    3    3    0    0  0.96868774344E+01  0.25217176708E+02  0.74258234378E+02  0.79025483032E+02  0.10000000000E+01 0.  0.
<mgrwt>
<rscale>  0 0.12499195E+03</rscale>
<asrwt>0</asrwt>
<pdfrwt beam="1">  1        4 0.12401109E-01 0.12499195E+03</pdfrwt>
<pdfrwt beam="2">  1       -4 0.74544718E-02 0.12499195E+03</pdfrwt>
<totfact> 0.10366513E+04</totfact>
</mgrwt>
</event>
<event>
 5    1  0.3206665E-002  0.1249973E+03  0.7818608E-02  0.1235074E+00
          4   -1    0    0  501    0  0.00000000000E+00  0.00000000000E+00  0.46910506481E+03  0.46910678393E+03  0.12700000000E+01 0.  1.
         -4   -1    0    0    0  501 -0.00000000000E+00 -0.00000000000E+00 -0.82764951045E+01  0.83733667790E+01  0.12700000000E+01 0.  1.
         25    2    1    2    0    0  0.00000000000E+00  0.00000000000E+00  0.46082856970E+03  0.47748015071E+03  0.12499729463E+03 0.  0.
    9000005    1    3    3    0    0 -0.19756035005E+02 -0.53907065138E+02  0.13616132439E+03  0.14777408045E+03  0.10000000000E+01 0.  0.
    9000005    1    3    3    0    0  0.19756035005E+02  0.53907065138E+02  0.32466724531E+03  0.32970607026E+03  0.10000000000E+01 0.  0.
<mgrwt>
<rscale>  0 0.12499729E+03</rscale>
<asrwt>0</asrwt>
<pdfrwt beam="1">  1        4 0.72177564E-01 0.12499729E+03</pdfrwt>
<pdfrwt beam="2">  1       -4 0.12808914E-02 0.12499729E+03</pdfrwt>
<totfact> 0.57658414E+03</totfact>
</mgrwt>
</event>
<event>
 5    1  0.3206665E-002  0.1250013E+03  0.7818608E-02  0.1235067E+00
         -4   -1    0    0    0  501 -0.00000000000E+00  0.00000000000E+00  0.91833977003E+01  0.92707978794E+01  0.12700000000E+01 0. -1.
          4   -1    0    0  501    0  0.00000000000E+00 -0.00000000000E+00 -0.42326582580E+03  0.42326773110E+03  0.12700000000E+01 0. -1.
         25    2    1    2    0    0  0.00000000000E+00  0.00000000000E+00 -0.41408242810E+03  0.43253852898E+03  0.12500128715E+03 0.  0.
    9000005    1    3    3    0    0  0.52663924635E+02  0.25708936378E+02 -0.13195313279E+03  0.14438513642E+03  0.10000000000E+01 0.  0.
    9000005    1    3    3    0    0 -0.52663924635E+02 -0.25708936378E+02 -0.28212929531E+03  0.28815339255E+03  0.10000000000E+01 0.  0.
<mgrwt>
<rscale>  0 0.12500129E+03</rscale>
<asrwt>0</asrwt>
<pdfrwt beam="2">  1        4 0.65124674E-01 0.12500129E+03</pdfrwt>
<pdfrwt beam="1">  1       -4 0.14197004E-02 0.12500129E+03</pdfrwt>
<totfact> 0.61504823E+03</totfact>
</mgrwt>
</event>
<event>
 5    1  0.3206665E-002  0.1250028E+03  0.7818608E-02  0.1235065E+00
         -4   -1    0    0    0  501 -0.00000000000E+00  0.00000000000E+00  0.40754683947E+03  0.40754881826E+03  0.12700000000E+01 0.  1.
          4   -1    0    0  501    0  0.00000000000E+00 -0.00000000000E+00 -0.95411320288E+01  0.96252844317E+01  0.12700000000E+01 0.  1.
         25    2    1    2    0    0  0.00000000000E+00  0.00000000000E+00  0.39800570744E+03  0.41717410269E+03  0.12500275516E+03 0.  0.
    9000005    1    3    3    0    0  0.56161364234E+02 -0.26390564156E+02  0.17428381625E+03  0.18500380893E+03  0.10000000000E+01 0.  0.
    9000005    1    3    3    0    0 -0.56161364234E+02  0.26390564156E+02  0.22372189119E+03  0.23217029376E+03  0.10000000000E+01 0.  0.
<mgrwt>
<rscale>  0 0.12500276E+03</rscale>
<asrwt>0</asrwt>
<pdfrwt beam="2">  1        4 0.14744917E-02 0.12500276E+03</pdfrwt>
<pdfrwt beam="1">  1       -4 0.62706150E-01 0.12500276E+03</pdfrwt>
<totfact> 0.62912209E+03</totfact>
</mgrwt>
</event>
<event>
 5    1  0.3206665E-002  0.1250007E+03  0.7818608E-02  0.1235068E+00
          4   -1    0    0  501    0  0.00000000000E+00  0.00000000000E+00  0.29303880138E+01  0.31937554558E+01  0.12700000000E+01 0.  1.
         -4   -1    0    0    0  501 -0.00000000000E+00 -0.00000000000E+00 -0.12754394805E+04  0.12754401128E+04  0.12700000000E+01 0.  1.
         25    2    1    2    0    0  0.00000000000E+00  0.00000000000E+00 -0.12725090925E+04  0.12786338683E+04  0.12500071428E+03 0.  0.
    9000005    1    3    3    0    0 -0.61274744688E+02  0.10123299557E+02 -0.56522430118E+03  0.56862693058E+03  0.10000000000E+01 0.  0.
    9000005    1    3    3    0    0  0.61274744688E+02 -0.10123299557E+02 -0.70728479133E+03  0.71000693770E+03  0.10000000000E+01 0.  0.
<mgrwt>
<rscale>  0 0.12500071E+03</rscale>
<asrwt>0</asrwt>
<pdfrwt beam="1">  1        4 0.47113762E-03 0.12500071E+03</pdfrwt>
<pdfrwt beam="2">  1       -4 0.19624134E+00 0.12500071E+03</pdfrwt>
<totfact> 0.22738191E+03</totfact>
</mgrwt>
</event>
<event>
 5    1  0.3206665E-002  0.1249816E+03  0.7818608E-02  0.1235098E+00
          4   -1    0    0  501    0  0.00000000000E+00  0.00000000000E+00  0.10423727650E+03  0.10424501289E+03  0.12700000000E+01 0. -1.
         -4   -1    0    0    0  501 -0.00000000000E+00 -0.00000000000E+00 -0.37443686512E+02  0.37465217998E+02  0.12700000000E+01 0. -1.
         25    2    1    2    0    0  0.00000000000E+00  0.00000000000E+00  0.66793589991E+02  0.14171023089E+03  0.12498162215E+03 0.  0.
    9000005    1    3    3    0    0  0.10131752377E+02 -0.42687975825E+02 -0.17045905605E+02  0.47079492183E+02  0.10000000000E+01 0.  0.
    9000005    1    3    3    0    0 -0.10131752377E+02  0.42687975825E+02  0.83839495596E+02  0.94630738706E+02  0.10000000000E+01 0.  0.
<mgrwt>
<rscale>  0 0.12498162E+03</rscale>
<asrwt>0</asrwt>
<pdfrwt beam="1">  1        4 0.16038755E-01 0.12498162E+03</pdfrwt>
<pdfrwt beam="2">  1       -4 0.57628187E-02 0.12498162E+03</pdfrwt>
<totfact> 0.10102444E+04</totfact>
</mgrwt>
</event>
<event>
 5    1  0.3206665E-002  0.1250004E+03  0.7818608E-02  0.1235069E+00
          4   -1    0    0  501    0  0.00000000000E+00  0.00000000000E+00  0.24707416904E+03  0.24707743302E+03  0.12700000000E+01 0.  1.
         -4   -1    0    0    0  501 -0.00000000000E+00 -0.00000000000E+00 -0.15781254293E+02  0.15832273591E+02  0.12700000000E+01 0.  1.
         25    2    1    2    0    0  0.00000000000E+00  0.00000000000E+00  0.23129291475E+03  0.26290970661E+03  0.12500040567E+03 0.  0.
    9000005    1    3    3    0    0  0.49332033584E+02  0.34554054411E+02  0.80600439976E+02  0.10062337272E+03  0.10000000000E+01 0.  0.
    9000005    1    3    3    0    0 -0.49332033584E+02 -0.34554054411E+02  0.15069247477E+03  0.16228633389E+03  0.10000000000E+01 0.  0.
<mgrwt>
<rscale>  0 0.12500041E+03</rscale>
<asrwt>0</asrwt>
<pdfrwt beam="1">  1        4 0.38015588E-01 0.12500041E+03</pdfrwt>
<pdfrwt beam="2">  1       -4 0.24320608E-02 0.12500041E+03</pdfrwt>
<totfact> 0.80498722E+03</totfact>
</mgrwt>
</event>
<event>
 5    1  0.3206665E-002  0.1249972E+03  0.7818608E-02  0.1235074E+00
         -4   -1    0    0    0  501 -0.00000000000E+00  0.00000000000E+00  0.19278706853E+03  0.19279125160E+03  0.12700000000E+01 0. -1.
          4   -1    0    0  501    0  0.00000000000E+00 -0.00000000000E+00 -0.20236773090E+02  0.20276584651E+02  0.12700000000E+01 0. -1.
         25    2    1    2    0    0  0.00000000000E+00  0.00000000000E+00  0.17255029544E+03  0.21306783625E+03  0.12499719352E+03 0.  0.
    9000005    1    3    3    0    0 -0.53038223777E+02 -0.32171900442E+02  0.99143349622E+02  0.11695506887E+03  0.10000000000E+01 0.  0.
    9000005    1    3    3    0    0  0.53038223777E+02  0.32171900442E+02  0.73406945821E+02  0.96112767384E+02  0.10000000000E+01 0.  0.
<mgrwt>
<rscale>  0 0.12499719E+03</rscale>
<asrwt>0</asrwt>
<pdfrwt beam="2">  1        4 0.31167340E-02 0.12499719E+03</pdfrwt>
<pdfrwt beam="1">  1       -4 0.29662932E-01 0.12499719E+03</pdfrwt>
<totfact> 0.87982821E+03</totfact>
</mgrwt>
</event>
<event>
 5    1  0.3206665E-002  0.1250021E+03  0.7818608E-02  0.1235066E+00
          4   -1    0    0  501    0  0.00000000000E+00  0.00000000000E+00  0.17825928772E+04  0.17825933296E+04  0.12700000000E+01 0.  1.
         -4   -1    0    0    0  501 -0.00000000000E+00 -0.00000000000E+00 -0.20069094677E+01  0.23749917077E+01  0.12700000000E+01 0.  1.
         25    2    1    2    0    0  0.00000000000E+00  0.00000000000E+00  0.17805859677E+04  0.17849683213E+04  0.12500207837E+03 0.  0.
    9000005    1    3    3    0    0 -0.69849041552E+01 -0.62031936869E+02  0.93224126576E+03  0.93432945350E+03  0.10000000000E+01 0.  0.
    9000005    1    3    3    0    0  0.69849041552E+01  0.62031936869E+02  0.84834470192E+03  0.85063886777E+03  0.10000000000E+01 0.  0.
<mgrwt>
<rscale>  0 0.12500208E+03</rscale>
<asrwt>0</asrwt>
<pdfrwt beam="1">  1        4 0.27427211E+00 0.12500208E+03</pdfrwt>
<pdfrwt beam="2">  1       -4 0.33710571E-03 0.12500208E+03</pdfrwt>
<totfact> 0.12936042E+03</totfact>
</mgrwt>
</event>
<event>
 5    1  0.3206665E-002  0.1250000E+03  0.7818608E-02  0.1235069E+00
          4   -1    0    0  501    0  0.00000000000E+00  0.00000000000E+00  0.12422810709E+03  0.12423459861E+03  0.12700000000E+01 0. -1.
         -4   -1    0    0    0  501 -0.00000000000E+00 -0.00000000000E+00 -0.31424040746E+02  0.31449693748E+02  0.12700000000E+01 0. -1.
         25    2    1    2    0    0  0.00000000000E+00  0.00000000000E+00  0.92804066346E+02  0.15568429236E+03  0.12500001663E+03 0.  0.
    9000005    1    3    3    0    0 -0.33424571130E+01  0.60437046196E+02  0.27049333549E+02  0.66305919931E+02  0.10000000000E+01 0.  0.
    9000005    1    3    3    0    0  0.33424571130E+01 -0.60437046196E+02  0.65754732797E+02  0.89378372426E+02  0.10000000000E+01 0.  0.
<mgrwt>
<rscale>  0 0.12500002E+03</rscale>
<asrwt>0</asrwt>
<pdfrwt beam="1">  1        4 0.19114489E-01 0.12500002E+03</pdfrwt>
<pdfrwt beam="2">  1       -4 0.48369404E-02 0.12500002E+03</pdfrwt>
<totfact> 0.98181294E+03</totfact>
</mgrwt>
</event>
<event>
 4    1  0.3206665E-002  0.1250816E+03  0.7818608E-02  0.1234942E+00
         -4   -1    0    0    0  501 -0.00000000000E+00  0.00000000000E+00  0.25831497708E+02  0.25862698502E+02  0.12700000000E+01 0.  1.
          4   -1    0    0  501    0  0.00000000000E+00 -0.00000000000E+00 -0.15129275618E+03  0.15129808648E+03  0.12700000000E+01 0.  1.
    9000005    1    1    2    0    0 -0.62052785129E+02  0.11321244329E+01 -0.51895304533E+02  0.80907060759E+02  0.10000000000E+01 0.  0.
    9000005    1    1    2    0    0  0.62052785129E+02 -0.11321244329E+01 -0.73565953943E+02  0.96253724227E+02  0.10000000000E+01 0.  0.
<mgrwt>
<rscale>  0 0.12508164E+03</rscale>
<asrwt>0</asrwt>
<pdfrwt beam="2">  1        4 0.23278618E-01 0.12508164E+03</pdfrwt>
<pdfrwt beam="1">  1       -4 0.39768868E-02 0.12508164E+03</pdfrwt>
<totfact> 0.93958434E+03</totfact>
</mgrwt>
</event>
<event>
 5    1  0.3206665E-002  0.1249990E+03  0.7818608E-02  0.1235071E+00
         -4   -1    0    0    0  501 -0.00000000000E+00  0.00000000000E+00  0.16223988290E+02  0.16273619635E+02  0.12700000000E+01 0.  1.
          4   -1    0    0  501    0  0.00000000000E+00 -0.00000000000E+00 -0.24034706933E+03  0.24035042466E+03  0.12700000000E+01 0.  1.
         25    2    1    2    0    0  0.00000000000E+00  0.00000000000E+00 -0.22412308104E+03  0.25662404430E+03  0.12499897862E+03 0.  0.
    9000005    1    3    3    0    0  0.44589570234E+02  0.19724856840E+02 -0.19230994661E+03  0.19839711519E+03  0.10000000000E+01 0.  0.
    9000005    1    3    3    0    0 -0.44589570234E+02 -0.19724856840E+02 -0.31813134433E+02  0.58226929109E+02  0.10000000000E+01 0.  0.
<mgrwt>
<rscale>  0 0.12499898E+03</rscale>
<asrwt>0</asrwt>
<pdfrwt beam="2">  1        4 0.36980546E-01 0.12499898E+03</pdfrwt>
<pdfrwt beam="1">  1       -4 0.25000743E-02 0.12499898E+03</pdfrwt>
<totfact> 0.81384027E+03</totfact>
</mgrwt>
</event>
<event>
 5    1  0.3206665E-002  0.1249974E+03  0.7818608E-02  0.1235073E+00
          4   -1    0    0  501    0  0.00000000000E+00  0.00000000000E+00  0.11667627218E+04  0.11667634130E+04  0.12700000000E+01 0. -1.
         -4   -1    0    0    0  501 -0.00000000000E+00 -0.00000000000E+00 -0.32266359965E+01  0.34675755008E+01  0.12700000000E+01 0. -1.
         25    2    1    2    0    0  0.00000000000E+00  0.00000000000E+00  0.11635360858E+04  0.11702309885E+04  0.12499737376E+03 0.  0.
    9000005    1    3    3    0    0 -0.17268596582E+02 -0.23185095994E+02  0.11004399109E+04  0.11008200355E+04  0.10000000000E+01 0.  0.
    9000005    1    3    3    0    0  0.17268596582E+02  0.23185095994E+02  0.63096174909E+02  0.69410952971E+02  0.10000000000E+01 0.  0.
<mgrwt>
<rscale>  0 0.12499737E+03</rscale>
<asrwt>0</asrwt>
<pdfrwt beam="1">  1        4 0.17952052E+00 0.12499737E+03</pdfrwt>
<pdfrwt beam="2">  1       -4 0.51499259E-03 0.12499737E+03</pdfrwt>
<totfact> 0.25506983E+03</totfact>
</mgrwt>
</event>
<event>
 5    1  0.3206665E-002  0.1250006E+03  0.7818608E-02  0.1235068E+00
          4   -1    0    0  501    0  0.00000000000E+00  0.00000000000E+00  0.77941080063E+02  0.77951426295E+02  0.12700000000E+01 0.  1.
         -4   -1    0    0    0  501 -0.00000000000E+00 -0.00000000000E+00 -0.50096753983E+02  0.50112849247E+02  0.12700000000E+01 0.  1.
         25    2    1    2    0    0  0.00000000000E+00  0.00000000000E+00  0.27844326080E+02  0.12806427554E+03  0.12500060870E+03 0.  0.
    9000005    1    3    3    0    0  0.40071024570E+02  0.31713400161E+02  0.50774049807E+02  0.72044645142E+02  0.10000000000E+01 0.  0.
    9000005    1    3    3    0    0 -0.40071024570E+02 -0.31713400161E+02 -0.22929723727E+02  0.56019630399E+02  0.10000000000E+01 0.  0.
<mgrwt>
<rscale>  0 0.12500061E+03</rscale>
<asrwt>0</asrwt>
<pdfrwt beam="1">  1        4 0.11992969E-01 0.12500061E+03</pdfrwt>
<pdfrwt beam="2">  1       -4 0.77092270E-02 0.12500061E+03</pdfrwt>
<totfact> 0.10385957E+04</totfact>
</mgrwt>
</event>
<event>
 5    1  0.3206665E-002  0.1250025E+03  0.7818608E-02  0.1235065E+00
         -4   -1    0    0    0  501 -0.00000000000E+00  0.00000000000E+00  0.88161481652E+02  0.88170628596E+02  0.12700000000E+01 0. -1.
          4   -1    0    0  501    0  0.00000000000E+00 -0.00000000000E+00 -0.44289096080E+02  0.44307301109E+02  0.12700000000E+01 0. -1.
         25    2    1    2    0    0  0.00000000000E+00  0.00000000000E+00  0.43872385572E+02  0.13247792971E+03  0.12500246255E+03 0.  0.
    9000005    1    3    3    0    0  0.20777088943E+02 -0.48093368013E+02  0.58043347738E+02  0.78196481304E+02  0.10000000000E+01 0.  0.
    9000005    1    3    3    0    0 -0.20777088943E+02  0.48093368013E+02 -0.14170962166E+02  0.54281448401E+02  0.10000000000E+01 0.  0.
<mgrwt>
<rscale>  0 0.12500246E+03</rscale>
<asrwt>0</asrwt>
<pdfrwt beam="2">  1        4 0.68158111E-02 0.12500246E+03</pdfrwt>
<pdfrwt beam="1">  1       -4 0.13565409E-01 0.12500246E+03</pdfrwt>
<totfact> 0.10290936E+04</totfact>
</mgrwt>
</event>
<event>
 5    1  0.3206665E-002  0.1250029E+03  0.7818608E-02  0.1235065E+00
         -4   -1    0    0    0  501 -0.00000000000E+00  0.00000000000E+00  0.97981805434E+03  0.97981887740E+03  0.12700000000E+01 0. -1.
          4   -1    0    0  501    0  0.00000000000E+00 -0.00000000000E+00 -0.38849090110E+01  0.40872262017E+01  0.12700000000E+01 0. -1.
         25    2    1    2    0    0  0.00000000000E+00  0.00000000000E+00  0.97593314533E+03  0.98390610361E+03  0.12500286618E+03 0.  0.
    9000005    1    3    3    0    0  0.20072832579E+01 -0.10307142435E+02  0.30702539485E+01  0.10986028881E+02  0.10000000000E+01 0.  0.
    9000005    1    3    3    0    0 -0.20072832579E+01  0.10307142435E+02  0.97286289138E+03  0.97292007472E+03  0.10000000000E+01 0.  0.
<mgrwt>
<rscale>  0 0.12500287E+03</rscale>
<asrwt>0</asrwt>
<pdfrwt beam="2">  1        4 0.61330471E-03 0.12500287E+03</pdfrwt>
<pdfrwt beam="1">  1       -4 0.15075681E+00 0.12500287E+03</pdfrwt>
<totfact> 0.31139979E+03</totfact>
</mgrwt>
</event>
<event>
 5    1  0.3206665E-002  0.1249685E+03  0.7818608E-02  0.1235118E+00
          4   -1    0    0  501    0  0.00000000000E+00  0.00000000000E+00  0.18471114924E+03  0.18471551520E+03  0.12700000000E+01 0. -1.
         -4   -1    0    0    0  501 -0.00000000000E+00 -0.00000000000E+00 -0.21113537894E+02  0.21151699280E+02  0.12700000000E+01 0. -1.
         25    2    1    2    0    0  0.00000000000E+00  0.00000000000E+00  0.16359761135E+03  0.20586721448E+03  0.12496852227E+03 0.  0.
    9000005    1    3    3    0    0  0.59036701530E+02 -0.51006245010E+01  0.11441199268E+03  0.12885050472E+03  0.10000000000E+01 0.  0.
    9000005    1    3    3    0    0 -0.59036701530E+02  0.51006245010E+01  0.49185618669E+02  0.77016709756E+02  0.10000000000E+01 0.  0.
<mgrwt>
<rscale>  0 0.12496852E+03</rscale>
<asrwt>0</asrwt>
<pdfrwt beam="1">  1        4 0.28420372E-01 0.12496852E+03</pdfrwt>
<pdfrwt beam="2">  1       -4 0.32515078E-02 0.12496852E+03</pdfrwt>
<totfact> 0.89218091E+03</totfact>
</mgrwt>
</event>
<event>
 5    1  0.3206665E-002  0.1250027E+03  0.7818608E-02  0.1235065E+00
          4   -1    0    0  501    0  0.00000000000E+00  0.00000000000E+00  0.20451792198E+03  0.20452186511E+03  0.12700000000E+01 0. -1.
         -4   -1    0    0    0  501 -0.00000000000E+00 -0.00000000000E+00 -0.19075360861E+02  0.19117591165E+02  0.12700000000E+01 0. -1.
         25    2    1    2    0    0  0.00000000000E+00  0.00000000000E+00  0.18544256112E+03  0.22363945628E+03  0.12500265170E+03 0.  0.
    9000005    1    3    3    0    0  0.15291681211E+02 -0.57250615807E+02  0.12823107968E+03  0.14126456853E+03  0.10000000000E+01 0.  0.
    9000005    1    3    3    0    0 -0.15291681211E+02  0.57250615807E+02  0.57211481434E+02  0.82374887753E+02  0.10000000000E+01 0.  0.
<mgrwt>
<rscale>  0 0.12500265E+03</rscale>
<asrwt>0</asrwt>
<pdfrwt beam="1">  1        4 0.31467847E-01 0.12500265E+03</pdfrwt>
<pdfrwt beam="2">  1       -4 0.29382227E-02 0.12500265E+03</pdfrwt>
<totfact> 0.86290600E+03</totfact>
</mgrwt>
</event>
<event>
 5    1  0.3206665E-002  0.1250159E+03  0.7818608E-02  0.1235044E+00
          4   -1    0    0  501    0  0.00000000000E+00  0.00000000000E+00  0.22902857724E+03  0.22903209839E+03  0.12700000000E+01 0. -1.
         -4   -1    0    0    0  501 -0.00000000000E+00 -0.00000000000E+00 -0.17032772836E+02  0.17080054171E+02  0.12700000000E+01 0. -1.
         25    2    1    2    0    0  0.00000000000E+00  0.00000000000E+00  0.21199580440E+03  0.24611215256E+03  0.12501588120E+03 0.  0.
    9000005    1    3    3    0    0  0.23636468886E+02  0.35072603195E+02  0.19658717220E+03  0.20108775803E+03  0.10000000000E+01 0.  0.
    9000005    1    3    3    0    0 -0.23636468886E+02 -0.35072603195E+02  0.15408632203E+02  0.45024394529E+02  0.10000000000E+01 0.  0.
<mgrwt>
<rscale>  0 0.12501588E+03</rscale>
<asrwt>0</asrwt>
<pdfrwt beam="1">  1        4 0.35239071E-01 0.12501588E+03</pdfrwt>
<pdfrwt beam="2">  1       -4 0.26243347E-02 0.12501588E+03</pdfrwt>
<totfact> 0.82866083E+03</totfact>
</mgrwt>
</event>
<event>
 5    1  0.3206665E-002  0.1250012E+03  0.7818608E-02  0.1235067E+00
         -4   -1    0    0    0  501 -0.00000000000E+00  0.00000000000E+00  0.37829498061E+03  0.37829711241E+03  0.12700000000E+01 0.  1.
          4   -1    0    0  501    0  0.00000000000E+00 -0.00000000000E+00 -0.10284909837E+02  0.10363024190E+02  0.12700000000E+01 0.  1.
         25    2    1    2    0    0  0.00000000000E+00  0.00000000000E+00  0.36801007077E+03  0.38866013660E+03  0.12500115835E+03 0.  0.
    9000005    1    3    3    0    0  0.60132875598E+02 -0.75181391670E+01  0.13656093733E+03  0.14940674265E+03  0.10000000000E+01 0.  0.
    9000005    1    3    3    0    0 -0.60132875598E+02  0.75181391670E+01  0.23144913344E+03  0.23925339395E+03  0.10000000000E+01 0.  0.
<mgrwt>
<rscale>  0 0.12500116E+03</rscale>
<asrwt>0</asrwt>
<pdfrwt beam="2">  1        4 0.15884669E-02 0.12500116E+03</pdfrwt>
<pdfrwt beam="1">  1       -4 0.58205391E-01 0.12500116E+03</pdfrwt>
<totfact> 0.65669162E+03</totfact>
</mgrwt>
</event>
<event>
 5    1  0.3206665E-002  0.1249999E+03  0.7818608E-02  0.1235069E+00
         -4   -1    0    0    0  501 -0.00000000000E+00  0.00000000000E+00  0.61520458828E+01  0.62817647635E+01  0.12700000000E+01 0.  1.
          4   -1    0    0  501    0  0.00000000000E+00 -0.00000000000E+00 -0.62819550754E+03  0.62819679129E+03  0.12700000000E+01 0.  1.
         25    2    1    2    0    0  0.00000000000E+00  0.00000000000E+00 -0.62204346166E+03  0.63447855606E+03  0.12499987963E+03 0.  0.
    9000005    1    3    3    0    0 -0.12568845862E+01 -0.50821967551E+02 -0.12655234815E+03  0.13638529601E+03  0.10000000000E+01 0.  0.
    9000005    1    3    3    0    0  0.12568845862E+01  0.50821967551E+02 -0.49549111350E+03  0.49809326005E+03  0.10000000000E+01 0.  0.
<mgrwt>
<rscale>  0 0.12499988E+03</rscale>
<asrwt>0</asrwt>
<pdfrwt beam="2">  1        4 0.96655490E-01 0.12499988E+03</pdfrwt>
<pdfrwt beam="1">  1       -4 0.95654622E-03 0.12499988E+03</pdfrwt>
<totfact> 0.46761267E+03</totfact>
</mgrwt>
</event>
<event>
 5    1  0.3206665E-002  0.1250001E+03  0.7818608E-02  0.1235069E+00
          4   -1    0    0  501    0  0.00000000000E+00  0.00000000000E+00  0.99007062409E+01  0.99818276918E+01  0.12700000000E+01 0.  1.
         -4   -1    0    0    0  501 -0.00000000000E+00 -0.00000000000E+00 -0.39285139896E+03  0.39285345177E+03  0.12700000000E+01 0.  1.
         25    2    1    2    0    0  0.00000000000E+00  0.00000000000E+00 -0.38295069272E+03  0.40283527946E+03  0.12500011729E+03 0.  0.
    9000005    1    3    3    0    0  0.20543924531E+02 -0.14631215678E+02 -0.37573629704E+03  0.37658317835E+03  0.10000000000E+01 0.  0.
    9000005    1    3    3    0    0 -0.20543924531E+02  0.14631215678E+02 -0.72143956820E+01  0.26252101105E+02  0.10000000000E+01 0.  0.
<mgrwt>
<rscale>  0 0.12500012E+03</rscale>
<asrwt>0</asrwt>
<pdfrwt beam="1">  1        4 0.15295839E-02 0.12500012E+03</pdfrwt>
<pdfrwt beam="2">  1       -4 0.60445063E-01 0.12500012E+03</pdfrwt>
<totfact> 0.64277803E+03</totfact>
</mgrwt>
</event>
<event>
 5    1  0.3206665E-002  0.1250011E+03  0.7818608E-02  0.1235068E+00
         -4   -1    0    0    0  501 -0.00000000000E+00  0.00000000000E+00  0.15476050986E+02  0.15528073097E+02  0.12700000000E+01 0. -1.
          4   -1    0    0  501    0  0.00000000000E+00 -0.00000000000E+00 -0.25193332607E+03  0.25193652710E+03  0.12700000000E+01 0. -1.
         25    2    1    2    0    0  0.00000000000E+00  0.00000000000E+00 -0.23645727509E+03  0.26746460020E+03  0.12500107766E+03 0.  0.
    9000005    1    3    3    0    0 -0.58637971426E+02  0.18688082304E+02 -0.14143832353E+03  0.15425127382E+03  0.10000000000E+01 0.  0.
    9000005    1    3    3    0    0  0.58637971426E+02 -0.18688082304E+02 -0.95018951557E+02  0.11321332637E+03  0.10000000000E+01 0.  0.
<mgrwt>
<rscale>  0 0.12500108E+03</rscale>
<asrwt>0</asrwt>
<pdfrwt beam="2">  1        4 0.38763218E-01 0.12500108E+03</pdfrwt>
<pdfrwt beam="1">  1       -4 0.23851790E-02 0.12500108E+03</pdfrwt>
<totfact> 0.79867877E+03</totfact>
</mgrwt>
</event>
<event>
 5    1  0.3206665E-002  0.1249998E+03  0.7818608E-02  0.1235070E+00
          4   -1    0    0  501    0  0.00000000000E+00  0.00000000000E+00  0.38424336974E+03  0.38424546853E+03  0.12700000000E+01 0.  1.
         -4   -1    0    0    0  501 -0.00000000000E+00 -0.00000000000E+00 -0.10124249642E+02  0.10203594014E+02  0.12700000000E+01 0.  1.
         25    2    1    2    0    0  0.00000000000E+00  0.00000000000E+00  0.37411912010E+03  0.39444906255E+03  0.12499978769E+03 0.  0.
    9000005    1    3    3    0    0  0.28476808579E+02  0.54562861876E+02  0.22122205252E+03  0.22962628562E+03  0.10000000000E+01 0.  0.
    9000005    1    3    3    0    0 -0.28476808579E+02 -0.54562861876E+02  0.15289706757E+03  0.16482277693E+03  0.10000000000E+01 0.  0.
<mgrwt>
<rscale>  0 0.12499979E+03</rscale>
<asrwt>0</asrwt>
<pdfrwt beam="1">  1        4 0.59120618E-01 0.12499979E+03</pdfrwt>
<pdfrwt beam="2">  1       -4 0.15638420E-02 0.12499979E+03</pdfrwt>
<totfact> 0.65096581E+03</totfact>
</mgrwt>
</event>
<event>
 5    1  0.3206665E-002  0.1250041E+03  0.7818608E-02  0.1235063E+00
         -4   -1    0    0    0  501 -0.00000000000E+00  0.00000000000E+00  0.91906968724E+01  0.92780282927E+01  0.12700000000E+01 0.  1.
          4   -1    0    0  501    0  0.00000000000E+00 -0.00000000000E+00 -0.42295168728E+03  0.42295359399E+03  0.12700000000E+01 0.  1.
         25    2    1    2    0    0  0.00000000000E+00  0.00000000000E+00 -0.41376099041E+03  0.43223162229E+03  0.12500407242E+03 0.  0.
    9000005    1    3    3    0    0  0.12475908264E+02 -0.30586432528E+02 -0.23446592322E+02  0.40520622321E+02  0.10000000000E+01 0.  0.
    9000005    1    3    3    0    0 -0.12475908264E+02  0.30586432528E+02 -0.39031439808E+03  0.39171099996E+03  0.10000000000E+01 0.  0.
<mgrwt>
<rscale>  0 0.12500407E+03</rscale>
<asrwt>0</asrwt>
<pdfrwt beam="2">  1        4 0.65076340E-01 0.12500407E+03</pdfrwt>
<pdfrwt beam="1">  1       -4 0.14208182E-02 0.12500407E+03</pdfrwt>
<totfact> 0.61528711E+03</totfact>
</mgrwt>
</event>
<event>
 5    1  0.3206665E-002  0.1249988E+03  0.7818608E-02  0.1235071E+00
         -4   -1    0    0    0  501 -0.00000000000E+00  0.00000000000E+00  0.19537653134E+02  0.19578886332E+02  0.12700000000E+01 0.  1.
          4   -1    0    0  501    0  0.00000000000E+00 -0.00000000000E+00 -0.19967645432E+03  0.19968049306E+03  0.12700000000E+01 0.  1.
         25    2    1    2    0    0  0.00000000000E+00  0.00000000000E+00 -0.18013880118E+03  0.21925937939E+03  0.12499875103E+03 0.  0.
    9000005    1    3    3    0    0 -0.74291604332E+01 -0.34909513274E+02 -0.18004777345E+03  0.18355399005E+03  0.10000000000E+01 0.  0.
    9000005    1    3    3    0    0  0.74291604332E+01  0.34909513274E+02 -0.91027737250E-01  0.35705389339E+02  0.10000000000E+01 0.  0.
<mgrwt>
<rscale>  0 0.12499875E+03</rscale>
<asrwt>0</asrwt>
<pdfrwt beam="2">  1        4 0.30722936E-01 0.12499875E+03</pdfrwt>
<pdfrwt beam="1">  1       -4 0.30092754E-02 0.12499875E+03</pdfrwt>
<totfact> 0.86988106E+03</totfact>
</mgrwt>
</event>
<event>
 5    1  0.3206665E-002  0.1250007E+03  0.7818608E-02  0.1235068E+00
         -4   -1    0    0    0  501 -0.00000000000E+00  0.00000000000E+00  0.12815849339E+02  0.12878621599E+02  0.12700000000E+01 0. -1.
          4   -1    0    0  501    0  0.00000000000E+00 -0.00000000000E+00 -0.30399281902E+03  0.30399547187E+03  0.12700000000E+01 0. -1.
         25    2    1    2    0    0  0.00000000000E+00  0.00000000000E+00 -0.29117696968E+03  0.31687409347E+03  0.12500065375E+03 0.  0.
    9000005    1    3    3    0    0 -0.26820538224E+01  0.49127149794E+02 -0.24326320846E+03  0.24819077108E+03  0.10000000000E+01 0.  0.
    9000005    1    3    3    0    0  0.26820538224E+01 -0.49127149794E+02 -0.47913761225E+02  0.68683322389E+02  0.10000000000E+01 0.  0.
<mgrwt>
<rscale>  0 0.12500065E+03</rscale>
<asrwt>0</asrwt>
<pdfrwt beam="2">  1        4 0.46773153E-01 0.12500065E+03</pdfrwt>
<pdfrwt beam="1">  1       -4 0.19767021E-02 0.12500065E+03</pdfrwt>
<totfact> 0.73528396E+03</totfact>
</mgrwt>
</event>
<event>
 5    1  0.3206665E-002  0.1249958E+03  0.7818608E-02  0.1235076E+00
         -4   -1    0    0    0  501 -0.00000000000E+00  0.00000000000E+00  0.88905352853E+03  0.88905443561E+03  0.12700000000E+01 0.  1.
          4   -1    0    0  501    0  0.00000000000E+00 -0.00000000000E+00 -0.43007161523E+01  0.44843125920E+01  0.12700000000E+01 0.  1.
         25    2    1    2    0    0  0.00000000000E+00  0.00000000000E+00  0.88475281237E+03  0.89353874821E+03  0.12499582210E+03 0.  0.
    9000005    1    3    3    0    0 -0.32788952830E+02 -0.27836790072E+02  0.11831867446E+03  0.12589801840E+03  0.10000000000E+01 0.  0.
    9000005    1    3    3    0    0  0.32788952830E+02  0.27836790072E+02  0.76643413791E+03  0.76764072981E+03  0.10000000000E+01 0.  0.
<mgrwt>
<rscale>  0 0.12499582E+03</rscale>
<asrwt>0</asrwt>
<pdfrwt beam="2">  1        4 0.67584100E-03 0.12499582E+03</pdfrwt>
<pdfrwt beam="1">  1       -4 0.13679170E+00 0.12499582E+03</pdfrwt>
<totfact> 0.34411661E+03</totfact>
</mgrwt>
</event>
<event>
 5    1  0.3206665E-002  0.1249986E+03  0.7818608E-02  0.1235071E+00
         -4   -1    0    0    0  501 -0.00000000000E+00  0.00000000000E+00  0.33180027139E+02  0.33204323528E+02  0.12700000000E+01 0.  1.
          4   -1    0    0  501    0  0.00000000000E+00 -0.00000000000E+00 -0.11765550212E+03  0.11766235625E+03  0.12700000000E+01 0.  1.
         25    2    1    2    0    0  0.00000000000E+00  0.00000000000E+00 -0.84475474976E+02  0.15086667978E+03  0.12499859677E+03 0.  0.
    9000005    1    3    3    0    0 -0.34507118293E+02 -0.42685645073E+02 -0.78292070137E+02  0.95621408454E+02  0.10000000000E+01 0.  0.
    9000005    1    3    3    0    0  0.34507118293E+02  0.42685645073E+02 -0.61834048391E+01  0.55245271324E+02  0.10000000000E+01 0.  0.
<mgrwt>
<rscale>  0 0.12499860E+03</rscale>
<asrwt>0</asrwt>
<pdfrwt beam="2">  1        4 0.18103243E-01 0.12499860E+03</pdfrwt>
<pdfrwt beam="1">  1       -4 0.51070158E-02 0.12499860E+03</pdfrwt>
<totfact> 0.99134349E+03</totfact>
</mgrwt>
</event>
<event>
 5    1  0.3206665E-002  0.1249962E+03  0.7818608E-02  0.1235075E+00
          4   -1    0    0  501    0  0.00000000000E+00  0.00000000000E+00  0.23269939132E+03  0.23270285692E+03  0.12700000000E+01 0.  1.
         -4   -1    0    0    0  501 -0.00000000000E+00 -0.00000000000E+00 -0.16758049707E+02  0.16806103950E+02  0.12700000000E+01 0.  1.
         25    2    1    2    0    0  0.00000000000E+00  0.00000000000E+00  0.21594134161E+03  0.24950896087E+03  0.12499623410E+03 0.  0.
    9000005    1    3    3    0    0  0.50398119079E+02  0.36604655568E+02  0.11797991724E+03  0.13341713566E+03  0.10000000000E+01 0.  0.
    9000005    1    3    3    0    0 -0.50398119079E+02 -0.36604655568E+02  0.97961424365E+02  0.11609182521E+03  0.10000000000E+01 0.  0.
<mgrwt>
<rscale>  0 0.12499623E+03</rscale>
<asrwt>0</asrwt>
<pdfrwt beam="1">  1        4 0.35803871E-01 0.12499623E+03</pdfrwt>
<pdfrwt beam="2">  1       -4 0.25821245E-02 0.12499623E+03</pdfrwt>
<totfact> 0.82408161E+03</totfact>
</mgrwt>
</event>
<event>
 5    1  0.3206665E-002  0.1250017E+03  0.7818608E-02  0.1235067E+00
          4   -1    0    0  501    0  0.00000000000E+00  0.00000000000E+00  0.24615401682E+02  0.24648141917E+02  0.12700000000E+01 0.  1.
         -4   -1    0    0    0  501 -0.00000000000E+00 -0.00000000000E+00 -0.15855479234E+03  0.15855987852E+03  0.12700000000E+01 0.  1.
         25    2    1    2    0    0  0.00000000000E+00  0.00000000000E+00 -0.13393939066E+03  0.18320802043E+03  0.12500167351E+03 0.  0.
    9000005    1    3    3    0    0 -0.41330648023E+02 -0.36371281446E+02 -0.23633631762E+02  0.59921958665E+02  0.10000000000E+01 0.  0.
    9000005    1    3    3    0    0  0.41330648023E+02  0.36371281446E+02 -0.11030575890E+03  0.12328606177E+03  0.10000000000E+01 0.  0.
<mgrwt>
<rscale>  0 0.12500167E+03</rscale>
<asrwt>0</asrwt>
<pdfrwt beam="1">  1        4 0.37898947E-02 0.12500167E+03</pdfrwt>
<pdfrwt beam="2">  1       -4 0.24395954E-01 0.12500167E+03</pdfrwt>
<totfact> 0.93039226E+03</totfact>
</mgrwt>
</event>
<event>
 5    1  0.3206665E-002  0.1250003E+03  0.7818608E-02  0.1235069E+00
         -4   -1    0    0    0  501 -0.00000000000E+00  0.00000000000E+00  0.11593263970E+03  0.11593959569E+03  0.12700000000E+01 0.  1.
          4   -1    0    0  501    0  0.00000000000E+00 -0.00000000000E+00 -0.33674344921E+02  0.33698284910E+02  0.12700000000E+01 0.  1.
         25    2    1    2    0    0  0.00000000000E+00  0.00000000000E+00  0.82258294780E+02  0.14963788060E+03  0.12500027300E+03 0.  0.
    9000005    1    3    3    0    0  0.92559274150E+01 -0.40462257063E+02  0.97053095676E+02  0.10556121361E+03  0.10000000000E+01 0.  0.
    9000005    1    3    3    0    0 -0.92559274150E+01  0.40462257063E+02 -0.14794800896E+02  0.44076666985E+02  0.10000000000E+01 0.  0.
<mgrwt>
<rscale>  0 0.12500027E+03</rscale>
<asrwt>0</asrwt>
<pdfrwt beam="2">  1        4 0.51830451E-02 0.12500027E+03</pdfrwt>
<pdfrwt beam="1">  1       -4 0.17838167E-01 0.12500027E+03</pdfrwt>
<totfact> 0.99375319E+03</totfact>
</mgrwt>
</event>
<event>
 5    1  0.3206665E-002  0.1250191E+03  0.7818608E-02  0.1235039E+00
         -4   -1    0    0    0  501 -0.00000000000E+00  0.00000000000E+00  0.36428566552E+03  0.36428787930E+03  0.12700000000E+01 0.  1.
          4   -1    0    0  501    0  0.00000000000E+00 -0.00000000000E+00 -0.10686467924E+02  0.10761667932E+02  0.12700000000E+01 0.  1.
         25    2    1    2    0    0  0.00000000000E+00  0.00000000000E+00  0.35359919760E+03  0.37504954723E+03  0.12501907989E+03 0.  0.
    9000005    1    3    3    0    0 -0.46069365085E+02  0.48187596508E+01  0.50915240743E+02  0.68840166937E+02  0.10000000000E+01 0.  0.
    9000005    1    3    3    0    0  0.46069365085E+02 -0.48187596508E+01  0.30268395686E+03  0.30620938030E+03  0.10000000000E+01 0.  0.
<mgrwt>
<rscale>  0 0.12501908E+03</rscale>
<asrwt>0</asrwt>
<pdfrwt beam="2">  1        4 0.16500272E-02 0.12501908E+03</pdfrwt>
<pdfrwt beam="1">  1       -4 0.56049894E-01 0.12501908E+03</pdfrwt>
<totfact> 0.67025683E+03</totfact>
</mgrwt>
</event>
<event>
 5    1  0.3206665E-002  0.1249992E+03  0.7818608E-02  0.1235071E+00
         -4   -1    0    0    0  501 -0.00000000000E+00  0.00000000000E+00  0.36101512411E+01  0.38270212939E+01  0.12700000000E+01 0.  1.
          4   -1    0    0  501    0  0.00000000000E+00 -0.00000000000E+00 -0.10502353899E+04  0.10502361578E+04  0.12700000000E+01 0.  1.
         25    2    1    2    0    0  0.00000000000E+00  0.00000000000E+00 -0.10466252387E+04  0.10540631791E+04  0.12499918108E+03 0.  0.
    9000005    1    3    3    0    0 -0.21480258594E+02  0.58378514798E+02 -0.47289583573E+03  0.47697056927E+03  0.10000000000E+01 0.  0.
    9000005    1    3    3    0    0  0.21480258594E+02 -0.58378514798E+02 -0.57372940295E+03  0.57709260982E+03  0.10000000000E+01 0.  0.
<mgrwt>
<rscale>  0 0.12499918E+03</rscale>
<asrwt>0</asrwt>
<pdfrwt beam="2">  1        4 0.16159118E+00 0.12499918E+03</pdfrwt>
<pdfrwt beam="1">  1       -4 0.57215010E-03 0.12499918E+03</pdfrwt>
<totfact> 0.28868800E+03</totfact>
</mgrwt>
</event>
<event>
 5    1  0.3206665E-002  0.1249986E+03  0.7818608E-02  0.1235071E+00
          4   -1    0    0  501    0  0.00000000000E+00  0.00000000000E+00  0.34375205886E+03  0.34375440488E+03  0.12700000000E+01 0. -1.
         -4   -1    0    0    0  501 -0.00000000000E+00 -0.00000000000E+00 -0.11325433632E+02  0.11396418163E+02  0.12700000000E+01 0. -1.
         25    2    1    2    0    0  0.00000000000E+00  0.00000000000E+00  0.33242662523E+03  0.35515082304E+03  0.12499858377E+03 0.  0.
    9000005    1    3    3    0    0 -0.50829948014E+02 -0.61337540145E+01  0.64409109220E+02  0.82285113501E+02  0.10000000000E+01 0.  0.
    9000005    1    3    3    0    0  0.50829948014E+02  0.61337540145E+01  0.26801751601E+03  0.27286570954E+03  0.10000000000E+01 0.  0.
<mgrwt>
<rscale>  0 0.12499858E+03</rscale>
<asrwt>0</asrwt>
<pdfrwt beam="1">  1        4 0.52890573E-01 0.12499858E+03</pdfrwt>
<pdfrwt beam="2">  1       -4 0.17480152E-02 0.12499858E+03</pdfrwt>
<totfact> 0.69163760E+03</totfact>
</mgrwt>
</event>
<event>
 5    1  0.3206665E-002  0.1250015E+03  0.7818608E-02  0.1235067E+00
         -4   -1    0    0    0  501 -0.00000000000E+00  0.00000000000E+00  0.25823287001E+03  0.25823599294E+03  0.12700000000E+01 0. -1.
          4   -1    0    0  501    0  0.00000000000E+00 -0.00000000000E+00 -0.15097347776E+02  0.15150670278E+02  0.12700000000E+01 0. -1.
         25    2    1    2    0    0  0.00000000000E+00  0.00000000000E+00  0.24313552223E+03  0.27338666322E+03  0.12500154182E+03 0.  0.
    9000005    1    3    3    0    0 -0.38275939024E+02 -0.82096703858E+01  0.15030460644E+02  0.41944736776E+02  0.10000000000E+01 0.  0.
    9000005    1    3    3    0    0  0.38275939024E+02  0.82096703858E+01  0.22810506159E+03  0.23144192645E+03  0.10000000000E+01 0.  0.
<mgrwt>
<rscale>  0 0.12500154E+03</rscale>
<asrwt>0</asrwt>
<pdfrwt beam="2">  1        4 0.23270110E-02 0.12500154E+03</pdfrwt>
<pdfrwt beam="1">  1       -4 0.39732473E-01 0.12500154E+03</pdfrwt>
<totfact> 0.79060527E+03</totfact>
</mgrwt>
</event>
<event>
 5    1  0.3206665E-002  0.1250012E+03  0.7818608E-02  0.1235067E+00
         -4   -1    0    0    0  501 -0.00000000000E+00  0.00000000000E+00  0.48349684786E+02  0.48366361439E+02  0.12700000000E+01 0. -1.
          4   -1    0    0  501    0  0.00000000000E+00 -0.00000000000E+00 -0.80757621217E+02  0.80767606654E+02  0.12700000000E+01 0. -1.
         25    2    1    2    0    0  0.00000000000E+00  0.00000000000E+00 -0.32407936431E+02  0.12913396809E+03  0.12500122948E+03 0.  0.
    9000005    1    3    3    0    0  0.14686947705E+02  0.42422965377E+02  0.28706445024E+02  0.53296101266E+02  0.10000000000E+01 0.  0.
    9000005    1    3    3    0    0 -0.14686947705E+02 -0.42422965377E+02 -0.61114381456E+02  0.75837866828E+02  0.10000000000E+01 0.  0.
<mgrwt>
<rscale>  0 0.12500123E+03</rscale>
<asrwt>0</asrwt>
<pdfrwt beam="2">  1        4 0.12426300E-01 0.12500123E+03</pdfrwt>
<pdfrwt beam="1">  1       -4 0.74404640E-02 0.12500123E+03</pdfrwt>
<totfact> 0.10362781E+04</totfact>
</mgrwt>
</event>
<event>
 5    1  0.3206665E-002  0.1250004E+03  0.7818608E-02  0.1235069E+00
          4   -1    0    0  501    0  0.00000000000E+00  0.00000000000E+00  0.12571403207E+02  0.12635389926E+02  0.12700000000E+01 0. -1.
         -4   -1    0    0    0  501 -0.00000000000E+00 -0.00000000000E+00 -0.30987307681E+03  0.30987567932E+03  0.12700000000E+01 0. -1.
         25    2    1    2    0    0  0.00000000000E+00  0.00000000000E+00 -0.29730167361E+03  0.32251106925E+03  0.12500041863E+03 0.  0.
    9000005    1    3    3    0    0  0.60317487258E+02 -0.14818445220E+02 -0.16643104645E+03  0.17764593666E+03  0.10000000000E+01 0.  0.
    9000005    1    3    3    0    0 -0.60317487258E+02  0.14818445220E+02 -0.13087062716E+03  0.14486513259E+03  0.10000000000E+01 0.  0.
<mgrwt>
<rscale>  0 0.12500042E+03</rscale>
<asrwt>0</asrwt>
<pdfrwt beam="1">  1        4 0.19391845E-02 0.12500042E+03</pdfrwt>
<pdfrwt beam="2">  1       -4 0.47677897E-01 0.12500042E+03</pdfrwt>
<totfact> 0.72857786E+03</totfact>
</mgrwt>
</event>
<event>
 5    1  0.3206665E-002  0.1250004E+03  0.7818608E-02  0.1235069E+00
         -4   -1    0    0    0  501 -0.00000000000E+00  0.00000000000E+00  0.41051773661E+02  0.41071413669E+02  0.12700000000E+01 0.  1.
          4   -1    0    0  501    0  0.00000000000E+00 -0.00000000000E+00 -0.95108143586E+02  0.95116622503E+02  0.12700000000E+01 0.  1.
         25    2    1    2    0    0  0.00000000000E+00  0.00000000000E+00 -0.54056369925E+02  0.13618803617E+03  0.12500036027E+03 0.  0.
    9000005    1    3    3    0    0  0.25928157725E+02 -0.32904972946E+02  0.23493028990E+02  0.48040909845E+02  0.10000000000E+01 0.  0.
    9000005    1    3    3    0    0 -0.25928157725E+02  0.32904972946E+02 -0.77549398915E+02  0.88147126327E+02  0.10000000000E+01 0.  0.
<mgrwt>
<rscale>  0 0.12500036E+03</rscale>
<asrwt>0</asrwt>
<pdfrwt beam="2">  1        4 0.14634185E-01 0.12500036E+03</pdfrwt>
<pdfrwt beam="1">  1       -4 0.63178205E-02 0.12500036E+03</pdfrwt>
<totfact> 0.10213007E+04</totfact>
</mgrwt>
</event>
<event>
 5    1  0.3206665E-002  0.1249982E+03  0.7818608E-02  0.1235072E+00
         -4   -1    0    0    0  501 -0.00000000000E+00  0.00000000000E+00  0.18564360026E+02  0.18607750084E+02  0.12700000000E+01 0.  1.
          4   -1    0    0  501    0  0.00000000000E+00 -0.00000000000E+00 -0.21011948102E+03  0.21012331904E+03  0.12700000000E+01 0.  1.
         25    2    1    2    0    0  0.00000000000E+00  0.00000000000E+00 -0.19155512100E+03  0.22873106912E+03  0.12499815040E+03 0.  0.
    9000005    1    3    3    0    0  0.23015958813E+02 -0.24146921719E+02 -0.19247270121E+03  0.19534469253E+03  0.10000000000E+01 0.  0.
    9000005    1    3    3    0    0 -0.23015958813E+02  0.24146921719E+02  0.91758021512E+00  0.33386376594E+02  0.10000000000E+01 0.  0.
<mgrwt>
<rscale>  0 0.12499815E+03</rscale>
<asrwt>0</asrwt>
<pdfrwt beam="2">  1        4 0.32329705E-01 0.12499815E+03</pdfrwt>
<pdfrwt beam="1">  1       -4 0.28596885E-02 0.12499815E+03</pdfrwt>
<totfact> 0.85508354E+03</totfact>
</mgrwt>
</event>
<event>
 5    1  0.3206665E-002  0.1250001E+03  0.7818608E-02  0.1235069E+00
          4   -1    0    0  501    0  0.00000000000E+00  0.00000000000E+00  0.53271368400E+02  0.53286504775E+02  0.12700000000E+01 0.  1.
         -4   -1    0    0    0  501 -0.00000000000E+00 -0.00000000000E+00 -0.73296467669E+02  0.73307469419E+02  0.12700000000E+01 0.  1.
         25    2    1    2    0    0  0.00000000000E+00  0.00000000000E+00 -0.20025099269E+02  0.12659397419E+03  0.12500011881E+03 0.  0.
    9000005    1    3    3    0    0  0.59246991338E+02 -0.19306160248E+02 -0.52275169122E+01  0.62540073067E+02  0.10000000000E+01 0.  0.
    9000005    1    3    3    0    0 -0.59246991338E+02  0.19306160248E+02 -0.14797582357E+02  0.64053901128E+02  0.10000000000E+01 0.  0.
<mgrwt>
<rscale>  0 0.12500012E+03</rscale>
<asrwt>0</asrwt>
<pdfrwt beam="1">  1        4 0.81976057E-02 0.12500012E+03</pdfrwt>
<pdfrwt beam="2">  1       -4 0.11278390E-01 0.12500012E+03</pdfrwt>
<totfact> 0.10417952E+04</totfact>
</mgrwt>
</event>
<event>
 5    1  0.3206665E-002  0.1249975E+03  0.7818608E-02  0.1235073E+00
          4   -1    0    0  501    0  0.00000000000E+00  0.00000000000E+00  0.30908033872E+03  0.30908294790E+03  0.12700000000E+01 0.  1.
         -4   -1    0    0    0  501 -0.00000000000E+00 -0.00000000000E+00 -0.12603228756E+02  0.12667054712E+02  0.12700000000E+01 0.  1.
         25    2    1    2    0    0  0.00000000000E+00  0.00000000000E+00  0.29647710997E+03  0.32175000262E+03  0.12499754977E+03 0.  0.
    9000005    1    3    3    0    0  0.56246948533E+02 -0.19264162530E+02  0.98707664335E+02  0.11523467436E+03  0.10000000000E+01 0.  0.
    9000005    1    3    3    0    0 -0.56246948533E+02  0.19264162530E+02  0.19776944563E+03  0.20651532825E+03  0.10000000000E+01 0.  0.
<mgrwt>
<rscale>  0 0.12499755E+03</rscale>
<asrwt>0</asrwt>
<pdfrwt beam="1">  1        4 0.47555929E-01 0.12499755E+03</pdfrwt>
<pdfrwt beam="2">  1       -4 0.19440688E-02 0.12499755E+03</pdfrwt>
<totfact> 0.72952430E+03</totfact>
</mgrwt>
</event>
<event>
 5    1  0.3206665E-002  0.1249954E+03  0.7818608E-02  0.1235076E+00
          4   -1    0    0  501    0  0.00000000000E+00  0.00000000000E+00  0.83560153040E+01  0.84519756129E+01  0.12700000000E+01 0.  1.
         -4   -1    0    0    0  501 -0.00000000000E+00 -0.00000000000E+00 -0.46467776518E+03  0.46467950068E+03  0.12700000000E+01 0.  1.
         25    2    1    2    0    0  0.00000000000E+00  0.00000000000E+00 -0.45632174987E+03  0.47313147629E+03  0.12499541771E+03 0.  0.
    9000005    1    3    3    0    0  0.13874573782E+02 -0.10020683118E+01  0.24394359192E+01  0.14158346872E+02  0.10000000000E+01 0.  0.
    9000005    1    3    3    0    0 -0.13874573782E+02  0.10020683118E+01 -0.45876118579E+03  0.45897312942E+03  0.10000000000E+01 0.  0.
<mgrwt>
<rscale>  0 0.12499542E+03</rscale>
<asrwt>0</asrwt>
<pdfrwt beam="1">  1        4 0.12930562E-02 0.12499542E+03</pdfrwt>
<pdfrwt beam="2">  1       -4 0.71496382E-01 0.12499542E+03</pdfrwt>
<totfact> 0.58016869E+03</totfact>
</mgrwt>
</event>
<event>
 5    1  0.3206665E-002  0.1250016E+03  0.7818608E-02  0.1235067E+00
          4   -1    0    0  501    0  0.00000000000E+00  0.00000000000E+00  0.16410663539E+02  0.16459732009E+02  0.12700000000E+01 0.  1.
         -4   -1    0    0    0  501 -0.00000000000E+00 -0.00000000000E+00 -0.23763105257E+03  0.23763444625E+03  0.12700000000E+01 0.  1.
         25    2    1    2    0    0  0.00000000000E+00  0.00000000000E+00 -0.22122038903E+03  0.25409417826E+03  0.12500156360E+03 0.  0.
    9000005    1    3    3    0    0 -0.73401519104E+00 -0.40806776924E+02 -0.20680819402E+03  0.21079933808E+03  0.10000000000E+01 0.  0.
    9000005    1    3    3    0    0  0.73401519104E+00  0.40806776924E+02 -0.14412195009E+02  0.43294840180E+02  0.10000000000E+01 0.  0.
<mgrwt>
<rscale>  0 0.12500156E+03</rscale>
<asrwt>0</asrwt>
<pdfrwt beam="1">  1        4 0.25287532E-02 0.12500156E+03</pdfrwt>
<pdfrwt beam="2">  1       -4 0.36562656E-01 0.12500156E+03</pdfrwt>
<totfact> 0.81739224E+03</totfact>
</mgrwt>
</event>
<event>
 5    1  0.3206665E-002  0.1250010E+03  0.7818608E-02  0.1235068E+00
          4   -1    0    0  501    0  0.00000000000E+00  0.00000000000E+00  0.28266661871E+02  0.28295177563E+02  0.12700000000E+01 0.  1.
         -4   -1    0    0    0  501 -0.00000000000E+00 -0.00000000000E+00 -0.13809385424E+03  0.13809969399E+03  0.12700000000E+01 0.  1.
         25    2    1    2    0    0  0.00000000000E+00  0.00000000000E+00 -0.10982719237E+03  0.16639487155E+03  0.12500096437E+03 0.  0.
    9000005    1    3    3    0    0  0.26728023720E+02 -0.38653291089E+02 -0.79864610997E-01  0.47005005504E+02  0.10000000000E+01 0.  0.
    9000005    1    3    3    0    0 -0.26728023720E+02  0.38653291089E+02 -0.10974732776E+03  0.11938986604E+03  0.10000000000E+01 0.  0.
<mgrwt>
<rscale>  0 0.12500096E+03</rscale>
<asrwt>0</asrwt>
<pdfrwt beam="1">  1        4 0.43513600E-02 0.12500096E+03</pdfrwt>
<pdfrwt beam="2">  1       -4 0.21247851E-01 0.12500096E+03</pdfrwt>
<totfact> 0.96121794E+03</totfact>
</mgrwt>
</event>
<event>
 5    1  0.3206665E-002  0.1250000E+03  0.7818608E-02  0.1235069E+00
         -4   -1    0    0    0  501 -0.00000000000E+00  0.00000000000E+00  0.13857879511E+03  0.13858461442E+03  0.12700000000E+01 0. -1.
          4   -1    0    0  501    0  0.00000000000E+00 -0.00000000000E+00 -0.28167208213E+02  0.28195824487E+02  0.12700000000E+01 0. -1.
         25    2    1    2    0    0  0.00000000000E+00  0.00000000000E+00  0.11041158690E+03  0.16678043891E+03  0.12499998513E+03 0.  0.
    9000005    1    3    3    0    0  0.43943234635E+02  0.17399151207E+02  0.65642379371E+00  0.47277576346E+02  0.10000000000E+01 0.  0.
    9000005    1    3    3    0    0 -0.43943234635E+02 -0.17399151207E+02  0.10975516311E+03  0.11950286257E+03  0.10000000000E+01 0.  0.
<mgrwt>
<rscale>  0 0.12499999E+03</rscale>
<asrwt>0</asrwt>
<pdfrwt beam="2">  1        4 0.43360655E-02 0.12499999E+03</pdfrwt>
<pdfrwt beam="1">  1       -4 0.21322464E-01 0.12499999E+03</pdfrwt>
<totfact> 0.96051296E+03</totfact>
</mgrwt>
</event>
<event>
 5    1  0.3206665E-002  0.1250018E+03  0.7818608E-02  0.1235067E+00
         -4   -1    0    0    0  501 -0.00000000000E+00  0.00000000000E+00  0.46966258997E+02  0.46983426697E+02  0.12700000000E+01 0. -1.
          4   -1    0    0  501    0  0.00000000000E+00 -0.00000000000E+00 -0.83136532067E+02  0.83146231810E+02  0.12700000000E+01 0. -1.
         25    2    1    2    0    0  0.00000000000E+00  0.00000000000E+00 -0.36170273070E+02  0.13012965851E+03  0.12500175746E+03 0.  0.
    9000005    1    3    3    0    0  0.51187741527E+02 -0.34591243564E+02 -0.82850914492E+01  0.62340851407E+02  0.10000000000E+01 0.  0.
    9000005    1    3    3    0    0 -0.51187741527E+02  0.34591243564E+02 -0.27885181621E+02  0.67788807099E+02  0.10000000000E+01 0.  0.
<mgrwt>
<rscale>  0 0.12500176E+03</rscale>
<asrwt>0</asrwt>
<pdfrwt beam="2">  1        4 0.12792302E-01 0.12500176E+03</pdfrwt>
<pdfrwt beam="1">  1       -4 0.72276451E-02 0.12500176E+03</pdfrwt>
<totfact> 0.10341324E+04</totfact>
</mgrwt>
</event>
<event>
 5    1  0.3206665E-002  0.1249994E+03  0.7818608E-02  0.1235070E+00
         -4   -1    0    0    0  501 -0.00000000000E+00  0.00000000000E+00  0.59028854290E+02  0.59042514672E+02  0.12700000000E+01 0.  1.
          4   -1    0    0  501    0  0.00000000000E+00 -0.00000000000E+00 -0.66147257717E+02  0.66159448331E+02  0.12700000000E+01 0.  1.
         25    2    1    2    0    0  0.00000000000E+00  0.00000000000E+00 -0.71184034270E+01  0.12520196300E+03  0.12499943949E+03 0.  0.
    9000005    1    3    3    0    0  0.46983856450E+02  0.54652787671E+01 -0.44464847228E+02  0.64926686947E+02  0.10000000000E+01 0.  0.
    9000005    1    3    3    0    0 -0.46983856450E+02 -0.54652787671E+01  0.37346443801E+02  0.60275276055E+02  0.10000000000E+01 0.  0.
<mgrwt>
<rscale>  0 0.12499944E+03</rscale>
<asrwt>0</asrwt>
<pdfrwt beam="2">  1        4 0.10178490E-01 0.12499944E+03</pdfrwt>
<pdfrwt beam="1">  1       -4 0.90833507E-02 0.12499944E+03</pdfrwt>
<totfact> 0.10448610E+04</totfact>
</mgrwt>
</event>
<event>
 5    1  0.3206665E-002  0.1250022E+03  0.7818608E-02  0.1235066E+00
          4   -1    0    0  501    0  0.00000000000E+00  0.00000000000E+00  0.63111974328E+02  0.63124751117E+02  0.12700000000E+01 0.  1.
         -4   -1    0    0    0  501 -0.00000000000E+00 -0.00000000000E+00 -0.61870552738E+02  0.61883585837E+02  0.12700000000E+01 0.  1.
         25    2    1    2    0    0  0.00000000000E+00  0.00000000000E+00  0.12414215900E+01  0.12500833695E+03  0.12500217270E+03 0.  0.
    9000005    1    3    3    0    0 -0.27570619484E+02 -0.79540844462E+01  0.56139025329E+02  0.63055504779E+02  0.10000000000E+01 0.  0.
    9000005    1    3    3    0    0  0.27570619484E+02  0.79540844462E+01 -0.54897603739E+02  0.61952832174E+02  0.10000000000E+01 0.  0.
<mgrwt>
<rscale>  0 0.12500217E+03</rscale>
<asrwt>0</asrwt>
<pdfrwt beam="1">  1        4 0.97115199E-02 0.12500217E+03</pdfrwt>
<pdfrwt beam="2">  1       -4 0.95205320E-02 0.12500217E+03</pdfrwt>
<totfact> 0.10452168E+04</totfact>
</mgrwt>
</event>
<event>
 5    1  0.3206665E-002  0.1250001E+03  0.7818608E-02  0.1235069E+00
          4   -1    0    0  501    0  0.00000000000E+00  0.00000000000E+00  0.10360130462E+02  0.10437681888E+02  0.12700000000E+01 0.  1.
         -4   -1    0    0    0  501 -0.00000000000E+00 -0.00000000000E+00 -0.37556255144E+03  0.37556469875E+03  0.12700000000E+01 0.  1.
         25    2    1    2    0    0  0.00000000000E+00  0.00000000000E+00 -0.36520242098E+03  0.38600238064E+03  0.12500011827E+03 0.  0.
    9000005    1    3    3    0    0  0.50894007604E+02 -0.35273687090E+02 -0.15661332451E+03  0.16841367648E+03  0.10000000000E+01 0.  0.
    9000005    1    3    3    0    0 -0.50894007604E+02  0.35273687090E+02 -0.20858909647E+03  0.21758870416E+03  0.10000000000E+01 0.  0.
<mgrwt>
<rscale>  0 0.12500012E+03</rscale>
<asrwt>0</asrwt>
<pdfrwt beam="1">  1        4 0.15999972E-02 0.12500012E+03</pdfrwt>
<pdfrwt beam="2">  1       -4 0.57784974E-01 0.12500012E+03</pdfrwt>
<totfact> 0.65937168E+03</totfact>
</mgrwt>
</event>
<event>
 5    1  0.3206665E-002  0.1250062E+03  0.7818608E-02  0.1235060E+00
          4   -1    0    0  501    0  0.00000000000E+00  0.00000000000E+00  0.82819212041E+02  0.82828948944E+02  0.12700000000E+01 0.  1.
         -4   -1    0    0    0  501 -0.00000000000E+00 -0.00000000000E+00 -0.47149634037E+02  0.47166734993E+02  0.12700000000E+01 0.  1.
         25    2    1    2    0    0  0.00000000000E+00  0.00000000000E+00  0.35669578004E+02  0.12999568394E+03  0.12500623603E+03 0.  0.
    9000005    1    3    3    0    0  0.46574110587E+02  0.55633049513E+01 -0.25111774276E+02  0.53213713892E+02  0.10000000000E+01 0.  0.
    9000005    1    3    3    0    0 -0.46574110587E+02 -0.55633049513E+01  0.60781352279E+02  0.76781970044E+02  0.10000000000E+01 0.  0.
<mgrwt>
<rscale>  0 0.12500624E+03</rscale>
<asrwt>0</asrwt>
<pdfrwt beam="1">  1        4 0.12743482E-01 0.12500624E+03</pdfrwt>
<pdfrwt beam="2">  1       -4 0.72558543E-02 0.12500624E+03</pdfrwt>
<totfact> 0.10343144E+04</totfact>
</mgrwt>
</event>
<event>
 5    1  0.3206665E-002  0.1250008E+03  0.7818608E-02  0.1235068E+00
          4   -1    0    0  501    0  0.00000000000E+00  0.00000000000E+00  0.24275403445E+02  0.24308601613E+02  0.12700000000E+01 0.  1.
         -4   -1    0    0    0  501 -0.00000000000E+00 -0.00000000000E+00 -0.16077032746E+03  0.16077534354E+03  0.12700000000E+01 0.  1.
         25    2    1    2    0    0  0.00000000000E+00  0.00000000000E+00 -0.13649492401E+03  0.18508394515E+03  0.12500080989E+03 0.  0.
    9000005    1    3    3    0    0 -0.15252483168E+02  0.12211423532E+02  0.19643808145E+02  0.27724290900E+02  0.10000000000E+01 0.  0.
    9000005    1    3    3    0    0  0.15252483168E+02 -0.12211423532E+02 -0.15613873216E+03  0.15735965425E+03  0.10000000000E+01 0.  0.
<mgrwt>
<rscale>  0 0.12500081E+03</rscale>
<asrwt>0</asrwt>
<pdfrwt beam="1">  1        4 0.37376171E-02 0.12500081E+03</pdfrwt>
<pdfrwt beam="2">  1       -4 0.24736836E-01 0.12500081E+03</pdfrwt>
<totfact> 0.92708116E+03</totfact>
</mgrwt>
</event>
<event>
 5    1  0.3206665E-002  0.1249993E+03  0.7818608E-02  0.1235070E+00
         -4   -1    0    0    0  501 -0.00000000000E+00  0.00000000000E+00  0.46011389471E+02  0.46028913316E+02  0.12700000000E+01 0. -1.
          4   -1    0    0  501    0  0.00000000000E+00 -0.00000000000E+00 -0.84858042725E+02  0.84867545712E+02  0.12700000000E+01 0. -1.
         25    2    1    2    0    0  0.00000000000E+00  0.00000000000E+00 -0.38846653254E+02  0.13089645903E+03  0.12499928207E+03 0.  0.
    9000005    1    3    3    0    0 -0.49630565142E+02  0.32941280456E+02 -0.39205956475E+02  0.71319197819E+02  0.10000000000E+01 0.  0.
    9000005    1    3    3    0    0  0.49630565142E+02 -0.32941280456E+02  0.35930322138E+00  0.59577261209E+02  0.10000000000E+01 0.  0.
<mgrwt>
<rscale>  0 0.12499928E+03</rscale>
<asrwt>0</asrwt>
<pdfrwt beam="2">  1        4 0.13057162E-01 0.12499928E+03</pdfrwt>
<pdfrwt beam="1">  1       -4 0.70807543E-02 0.12499928E+03</pdfrwt>
<totfact> 0.10325477E+04</totfact>
</mgrwt>
</event>
<event>
 5    1  0.3206665E-002  0.1249949E+03  0.7818608E-02  0.1235077E+00
          4   -1    0    0  501    0  0.00000000000E+00  0.00000000000E+00  0.22380138581E+04  0.22380142185E+04  0.12700000000E+01 0.  1.
         -4   -1    0    0    0  501 -0.00000000000E+00 -0.00000000000E+00 -0.15138189161E+01  0.19759928418E+01  0.12700000000E+01 0.  1.
         25    2    1    2    0    0  0.00000000000E+00  0.00000000000E+00  0.22365000392E+04  0.22399902113E+04  0.12499488540E+03 0.  0.
    9000005    1    3    3    0    0 -0.30256748368E+01 -0.21346593031E+02  0.21693386132E+04  0.21694459777E+04  0.10000000000E+01 0.  0.
    9000005    1    3    3    0    0  0.30256748368E+01  0.21346593031E+02  0.67161426049E+02  0.70544233578E+02  0.10000000000E+01 0.  0.
<mgrwt>
<rscale>  0 0.12499489E+03</rscale>
<asrwt>0</asrwt>
<pdfrwt beam="1">  1        4 0.34434740E+00 0.12499489E+03</pdfrwt>
<pdfrwt beam="2">  1       -4 0.26847322E-03 0.12499489E+03</pdfrwt>
<totfact> 0.70456740E+02</totfact>
</mgrwt>
</event>
<event>
 5    1  0.3206665E-002  0.1249998E+03  0.7818608E-02  0.1235070E+00
         -4   -1    0    0    0  501 -0.00000000000E+00  0.00000000000E+00  0.16314926185E+03  0.16315420479E+03  0.12700000000E+01 0.  1.
          4   -1    0    0  501    0  0.00000000000E+00 -0.00000000000E+00 -0.23920588162E+02  0.23954278073E+02  0.12700000000E+01 0.  1.
         25    2    1    2    0    0  0.00000000000E+00  0.00000000000E+00  0.13922867368E+03  0.18710848286E+03  0.12499984313E+03 0.  0.
    9000005    1    3    3    0    0  0.39525996542E+01  0.49459536171E+02  0.12648300564E+03  0.13587059828E+03  0.10000000000E+01 0.  0.
    9000005    1    3    3    0    0 -0.39525996542E+01 -0.49459536171E+02  0.12745668044E+02  0.51237884580E+02  0.10000000000E+01 0.  0.
<mgrwt>
<rscale>  0 0.12499984E+03</rscale>
<asrwt>0</asrwt>
<pdfrwt beam="2">  1        4 0.36830623E-02 0.12499984E+03</pdfrwt>
<pdfrwt beam="1">  1       -4 0.25102858E-01 0.12499984E+03</pdfrwt>
<totfact> 0.92353201E+03</totfact>
</mgrwt>
</event>
<event>
 5    1  0.3206665E-002  0.1250002E+03  0.7818608E-02  0.1235069E+00
          4   -1    0    0  501    0  0.00000000000E+00  0.00000000000E+00  0.27392405766E+03  0.27392700171E+03  0.12700000000E+01 0.  1.
         -4   -1    0    0    0  501 -0.00000000000E+00 -0.00000000000E+00 -0.14229074385E+02  0.14285638167E+02  0.12700000000E+01 0.  1.
         25    2    1    2    0    0  0.00000000000E+00  0.00000000000E+00  0.25969498328E+03  0.28821263988E+03  0.12500016578E+03 0.  0.
    9000005    1    3    3    0    0  0.35348788604E+02 -0.40903571190E+02  0.57571254070E+02  0.78981569287E+02  0.10000000000E+01 0.  0.
    9000005    1    3    3    0    0 -0.35348788604E+02  0.40903571190E+02  0.20212372921E+03  0.20923107059E+03  0.10000000000E+01 0.  0.
<mgrwt>
<rscale>  0 0.12500017E+03</rscale>
<asrwt>0</asrwt>
<pdfrwt beam="1">  1        4 0.42146740E-01 0.12500017E+03</pdfrwt>
<pdfrwt beam="2">  1       -4 0.21936659E-02 0.12500017E+03</pdfrwt>
<totfact> 0.77101335E+03</totfact>
</mgrwt>
</event>
<event>
 5    1  0.3206665E-002  0.1249937E+03  0.7818608E-02  0.1235079E+00
         -4   -1    0    0    0  501 -0.00000000000E+00  0.00000000000E+00  0.12570445561E+02  0.12634437131E+02  0.12700000000E+01 0. -1.
          4   -1    0    0  501    0  0.00000000000E+00 -0.00000000000E+00 -0.30986301929E+03  0.30986562188E+03  0.12700000000E+01 0. -1.
         25    2    1    2    0    0  0.00000000000E+00  0.00000000000E+00 -0.29729257373E+03  0.32250005901E+03  0.12499365451E+03 0.  0.
    9000005    1    3    3    0    0  0.52754619924E+02 -0.32548068935E+02 -0.16903205260E+03  0.18004238812E+03  0.10000000000E+01 0.  0.
    9000005    1    3    3    0    0 -0.52754619924E+02  0.32548068935E+02 -0.12826052113E+03  0.14245767089E+03  0.10000000000E+01 0.  0.
<mgrwt>
<rscale>  0 0.12499365E+03</rscale>
<asrwt>0</asrwt>
<pdfrwt beam="2">  1        4 0.47676350E-01 0.12499365E+03</pdfrwt>
<pdfrwt beam="1">  1       -4 0.19390376E-02 0.12499365E+03</pdfrwt>
<totfact> 0.72870010E+03</totfact>
</mgrwt>
</event>
<event>
 5    1  0.3206665E-002  0.1250009E+03  0.7818608E-02  0.1235068E+00
         -4   -1    0    0    0  501 -0.00000000000E+00  0.00000000000E+00  0.37385368317E+02  0.37406933370E+02  0.12700000000E+01 0. -1.
          4   -1    0    0  501    0  0.00000000000E+00 -0.00000000000E+00 -0.10443205088E+03  0.10443977284E+03  0.12700000000E+01 0. -1.
         25    2    1    2    0    0  0.00000000000E+00  0.00000000000E+00 -0.67046682564E+02  0.14184670621E+03  0.12500092168E+03 0.  0.
    9000005    1    3    3    0    0 -0.30419893208E+02 -0.46987994920E+02 -0.65054015997E+02  0.85826957110E+02  0.10000000000E+01 0.  0.
    9000005    1    3    3    0    0  0.30419893208E+02  0.46987994920E+02 -0.19926665672E+01  0.56019749102E+02  0.10000000000E+01 0.  0.
<mgrwt>
<rscale>  0 0.12500092E+03</rscale>
<asrwt>0</asrwt>
<pdfrwt beam="2">  1        4 0.16068722E-01 0.12500092E+03</pdfrwt>
<pdfrwt beam="1">  1       -4 0.57538480E-02 0.12500092E+03</pdfrwt>
<totfact> 0.10095245E+04</totfact>
</mgrwt>
</event>
<event>
 5    1  0.3206665E-002  0.1250019E+03  0.7818608E-02  0.1235066E+00
          4   -1    0    0  501    0  0.00000000000E+00  0.00000000000E+00  0.42122255867E+02  0.42141396979E+02  0.12700000000E+01 0. -1.
         -4   -1    0    0    0  501 -0.00000000000E+00 -0.00000000000E+00 -0.92694333535E+02  0.92703033227E+02  0.12700000000E+01 0. -1.
         25    2    1    2    0    0  0.00000000000E+00  0.00000000000E+00 -0.50572077668E+02  0.13484443021E+03  0.12500194126E+03 0.  0.
    9000005    1    3    3    0    0 -0.96208085475E+01  0.26721252654E+02  0.34763828123E+02  0.44901102951E+02  0.10000000000E+01 0.  0.
    9000005    1    3    3    0    0  0.96208085475E+01 -0.26721252654E+02 -0.85335905791E+02  0.89943327255E+02  0.10000000000E+01 0.  0.
<mgrwt>
<rscale>  0 0.12500194E+03</rscale>
<asrwt>0</asrwt>
<pdfrwt beam="1">  1        4 0.64824887E-02 0.12500194E+03</pdfrwt>
<pdfrwt beam="2">  1       -4 0.14262808E-01 0.12500194E+03</pdfrwt>
<totfact> 0.10240903E+04</totfact>
</mgrwt>
</event>
<event>
 5    1  0.3206665E-002  0.1250011E+03  0.7818608E-02  0.1235067E+00
         -4   -1    0    0    0  501 -0.00000000000E+00  0.00000000000E+00  0.10335476748E+02  0.10413211782E+02  0.12700000000E+01 0. -1.
          4   -1    0    0  501    0  0.00000000000E+00 -0.00000000000E+00 -0.37645793825E+03  0.37646008045E+03  0.12700000000E+01 0. -1.
         25    2    1    2    0    0  0.00000000000E+00  0.00000000000E+00 -0.36612246151E+03  0.38687329223E+03  0.12500114970E+03 0.  0.
    9000005    1    3    3    0    0 -0.35101990305E+02  0.50888031583E+02 -0.21135604833E+03  0.22021380667E+03  0.10000000000E+01 0.  0.
    9000005    1    3    3    0    0  0.35101990305E+02 -0.50888031583E+02 -0.15476641317E+03  0.16665948556E+03  0.10000000000E+01 0.  0.
<mgrwt>
<rscale>  0 0.12500115E+03</rscale>
<asrwt>0</asrwt>
<pdfrwt beam="2">  1        4 0.57922740E-01 0.12500115E+03</pdfrwt>
<pdfrwt beam="1">  1       -4 0.15962180E-02 0.12500115E+03</pdfrwt>
<totfact> 0.65848151E+03</totfact>
</mgrwt>
</event>
<event>
 5    1  0.3206665E-002  0.1249980E+03  0.7818608E-02  0.1235072E+00
         -4   -1    0    0    0  501 -0.00000000000E+00  0.00000000000E+00  0.22323324590E+03  0.22323685846E+03  0.12700000000E+01 0.  1.
          4   -1    0    0  501    0  0.00000000000E+00 -0.00000000000E+00 -0.17471151617E+02  0.17517249750E+02  0.12700000000E+01 0.  1.
         25    2    1    2    0    0  0.00000000000E+00  0.00000000000E+00  0.20576209428E+03  0.24075410821E+03  0.12499800469E+03 0.  0.
    9000005    1    3    3    0    0  0.31944414727E+02 -0.53275757937E+02  0.11599714126E+03  0.13158681088E+03  0.10000000000E+01 0.  0.
    9000005    1    3    3    0    0 -0.31944414727E+02  0.53275757937E+02  0.89764953022E+02  0.10916729733E+03  0.10000000000E+01 0.  0.
<mgrwt>
<rscale>  0 0.12499800E+03</rscale>
<asrwt>0</asrwt>
<pdfrwt beam="2">  1        4 0.26916935E-02 0.12499800E+03</pdfrwt>
<pdfrwt beam="1">  1       -4 0.34347399E-01 0.12499800E+03</pdfrwt>
<totfact> 0.83688907E+03</totfact>
</mgrwt>
</event>
<event>
 5    1  0.3206665E-002  0.1250007E+03  0.7818608E-02  0.1235068E+00
          4   -1    0    0  501    0  0.00000000000E+00  0.00000000000E+00  0.72581707250E+01  0.73684423234E+01  0.12700000000E+01 0.  1.
         -4   -1    0    0    0  501 -0.00000000000E+00 -0.00000000000E+00 -0.53402431268E+03  0.53402582281E+03  0.12700000000E+01 0.  1.
         25    2    1    2    0    0  0.00000000000E+00  0.00000000000E+00 -0.52676614195E+03  0.54139426514E+03  0.12500072806E+03 0.  0.
    9000005    1    3    3    0    0 -0.32332966399E+02  0.52107897530E+02 -0.31547231100E+03  0.32137895499E+03  0.10000000000E+01 0.  0.
    9000005    1    3    3    0    0  0.32332966399E+02 -0.52107897530E+02 -0.21129383095E+03  0.22001531015E+03  0.10000000000E+01 0.  0.
<mgrwt>
<rscale>  0 0.12500073E+03</rscale>
<asrwt>0</asrwt>
<pdfrwt beam="1">  1        4 0.11252407E-02 0.12500073E+03</pdfrwt>
<pdfrwt beam="2">  1       -4 0.82166155E-01 0.12500073E+03</pdfrwt>
<totfact> 0.52789052E+03</totfact>
</mgrwt>
</event>
<event>
 5    1  0.3206665E-002  0.1250033E+03  0.7818608E-02  0.1235064E+00
         -4   -1    0    0    0  501 -0.00000000000E+00  0.00000000000E+00  0.46700662233E+01  0.48396713246E+01  0.12700000000E+01 0.  1.
          4   -1    0    0  501    0  0.00000000000E+00 -0.00000000000E+00 -0.82139911459E+03  0.82140009639E+03  0.12700000000E+01 0.  1.
         25    2    1    2    0    0  0.00000000000E+00  0.00000000000E+00 -0.81672904837E+03  0.82623976771E+03  0.12500326118E+03 0.  0.
    9000005    1    3    3    0    0 -0.48973952518E+02  0.27509692865E+02 -0.58940672574E+03  0.59207813638E+03  0.10000000000E+01 0.  0.
    9000005    1    3    3    0    0  0.48973952518E+02 -0.27509692865E+02 -0.22732232262E+03  0.23416163134E+03  0.10000000000E+01 0.  0.
<mgrwt>
<rscale>  0 0.12500326E+03</rscale>
<asrwt>0</asrwt>
<pdfrwt beam="2">  1        4 0.12638210E+00 0.12500326E+03</pdfrwt>
<pdfrwt beam="1">  1       -4 0.73159445E-03 0.12500326E+03</pdfrwt>
<totfact> 0.37117195E+03</totfact>
</mgrwt>
</event>
<event>
 5    1  0.3206665E-002  0.1250044E+03  0.7818608E-02  0.1235062E+00
          4   -1    0    0  501    0  0.00000000000E+00  0.00000000000E+00  0.20946787032E+03  0.20947172028E+03  0.12700000000E+01 0.  1.
         -4   -1    0    0    0  501 -0.00000000000E+00 -0.00000000000E+00 -0.18624098981E+02  0.18667350183E+02  0.12700000000E+01 0.  1.
         25    2    1    2    0    0  0.00000000000E+00  0.00000000000E+00  0.19084377134E+03  0.22813907046E+03  0.12500436157E+03 0.  0.
    9000005    1    3    3    0    0 -0.33655672380E+02 -0.21508654525E+02  0.77018247712E+01  0.40689613019E+02  0.10000000000E+01 0.  0.
    9000005    1    3    3    0    0  0.33655672380E+02  0.21508654525E+02  0.18314194657E+03  0.18744945744E+03  0.10000000000E+01 0.  0.
<mgrwt>
<rscale>  0 0.12500436E+03</rscale>
<asrwt>0</asrwt>
<pdfrwt beam="1">  1        4 0.32229450E-01 0.12500436E+03</pdfrwt>
<pdfrwt beam="2">  1       -4 0.28688691E-02 0.12500436E+03</pdfrwt>
<totfact> 0.85587834E+03</totfact>
</mgrwt>
</event>
<event>
 5    1  0.3206665E-002  0.1250027E+03  0.7818608E-02  0.1235065E+00
         -4   -1    0    0    0  501 -0.00000000000E+00  0.00000000000E+00  0.72491017747E+03  0.72491128995E+03  0.12700000000E+01 0.  1.
          4   -1    0    0  501    0  0.00000000000E+00 -0.00000000000E+00 -0.53128771214E+01  0.54625601422E+01  0.12700000000E+01 0.  1.
         25    2    1    2    0    0  0.00000000000E+00  0.00000000000E+00  0.71959730035E+03  0.73037385009E+03  0.12500274490E+03 0.  0.
    9000005    1    3    3    0    0  0.32102713430E+02 -0.17297066676E+02  0.63268408766E+02  0.73031940087E+02  0.10000000000E+01 0.  0.
    9000005    1    3    3    0    0 -0.32102713430E+02  0.17297066676E+02  0.65632889158E+03  0.65734191001E+03  0.10000000000E+01 0.  0.
<mgrwt>
<rscale>  0 0.12500274E+03</rscale>
<asrwt>0</asrwt>
<pdfrwt beam="2">  1        4 0.82896535E-03 0.12500274E+03</pdfrwt>
<pdfrwt beam="1">  1       -4 0.11153624E+00 0.12500274E+03</pdfrwt>
<totfact> 0.41528410E+03</totfact>
</mgrwt>
</event>
<event>
 5    1  0.3206665E-002  0.1249799E+03  0.7818608E-02  0.1235101E+00
          4   -1    0    0  501    0  0.00000000000E+00  0.00000000000E+00  0.88445737093E+02  0.88454854643E+02  0.12700000000E+01 0.  1.
         -4   -1    0    0    0  501 -0.00000000000E+00 -0.00000000000E+00 -0.44130791702E+02  0.44149062009E+02  0.12700000000E+01 0.  1.
         25    2    1    2    0    0  0.00000000000E+00  0.00000000000E+00  0.44314945391E+02  0.13260391665E+03  0.12497993570E+03 0.  0.
    9000005    1    3    3    0    0  0.10650964482E+01 -0.53495178720E+01 -0.43882906282E+02  0.44231902917E+02  0.10000000000E+01 0.  0.
    9000005    1    3    3    0    0 -0.10650964482E+01  0.53495178720E+01  0.88197851673E+02  0.88372013735E+02  0.10000000000E+01 0.  0.
<mgrwt>
<rscale>  0 0.12497994E+03</rscale>
<asrwt>0</asrwt>
<pdfrwt beam="1">  1        4 0.13609143E-01 0.12497994E+03</pdfrwt>
<pdfrwt beam="2">  1       -4 0.67914594E-02 0.12497994E+03</pdfrwt>
<totfact> 0.10293483E+04</totfact>
</mgrwt>
</event>
<event>
 5    1  0.3206665E-002  0.1250009E+03  0.7818608E-02  0.1235068E+00
         -4   -1    0    0    0  501 -0.00000000000E+00  0.00000000000E+00  0.93642430869E+02  0.93651042488E+02  0.12700000000E+01 0.  1.
          4   -1    0    0  501    0  0.00000000000E+00 -0.00000000000E+00 -0.41694956297E+02  0.41714293481E+02  0.12700000000E+01 0.  1.
         25    2    1    2    0    0  0.00000000000E+00  0.00000000000E+00  0.51947474572E+02  0.13536533597E+03  0.12500093627E+03 0.  0.
    9000005    1    3    3    0    0 -0.13901833549E+02  0.17030395533E+02 -0.37374573373E+02  0.43372273203E+02  0.10000000000E+01 0.  0.
    9000005    1    3    3    0    0  0.13901833549E+02 -0.17030395533E+02  0.89322047944E+02  0.91993062766E+02  0.10000000000E+01 0.  0.
<mgrwt>
<rscale>  0 0.12500094E+03</rscale>
<asrwt>0</asrwt>
<pdfrwt beam="2">  1        4 0.64167586E-02 0.12500094E+03</pdfrwt>
<pdfrwt beam="1">  1       -4 0.14408678E-01 0.12500094E+03</pdfrwt>
<totfact> 0.10230160E+04</totfact>
</mgrwt>
</event>
<event>
 5    1  0.3206665E-002  0.1250008E+03  0.7818608E-02  0.1235068E+00
         -4   -1    0    0    0  501 -0.00000000000E+00  0.00000000000E+00  0.27883799353E+03  0.27884088570E+03  0.12700000000E+01 0.  1.
          4   -1    0    0  501    0  0.00000000000E+00 -0.00000000000E+00 -0.13977447210E+02  0.14035025134E+02  0.12700000000E+01 0.  1.
         25    2    1    2    0    0  0.00000000000E+00  0.00000000000E+00  0.26486054632E+03  0.29287591083E+03  0.12500076059E+03 0.  0.
    9000005    1    3    3    0    0  0.38596525538E+02  0.48084715709E+01  0.24703315796E+03  0.25007837634E+03  0.10000000000E+01 0.  0.
    9000005    1    3    3    0    0 -0.38596525538E+02 -0.48084715709E+01  0.17827388360E+02  0.42797534488E+02  0.10000000000E+01 0.  0.
<mgrwt>
<rscale>  0 0.12500076E+03</rscale>
<asrwt>0</asrwt>
<pdfrwt beam="2">  1        4 0.21550283E-02 0.12500076E+03</pdfrwt>
<pdfrwt beam="1">  1       -4 0.42902800E-01 0.12500076E+03</pdfrwt>
<totfact> 0.76499960E+03</totfact>
</mgrwt>
</event>
<event>
 5    1  0.3206665E-002  0.1250001E+03  0.7818608E-02  0.1235069E+00
         -4   -1    0    0    0  501 -0.00000000000E+00  0.00000000000E+00  0.81028564751E+02  0.81038516803E+02  0.12700000000E+01 0. -1.
          4   -1    0    0  501    0  0.00000000000E+00 -0.00000000000E+00 -0.48187078603E+02  0.48203811512E+02  0.12700000000E+01 0. -1.
         25    2    1    2    0    0  0.00000000000E+00  0.00000000000E+00  0.32841486148E+02  0.12924232832E+03  0.12500006486E+03 0.  0.
    9000005    1    3    3    0    0  0.27803600697E+02 -0.48979692045E+02  0.44417442329E+02  0.71735344340E+02  0.10000000000E+01 0.  0.
    9000005    1    3    3    0    0 -0.27803600697E+02  0.48979692045E+02 -0.11575956180E+02  0.57506983976E+02  0.10000000000E+01 0.  0.
<mgrwt>
<rscale>  0 0.12500006E+03</rscale>
<asrwt>0</asrwt>
<pdfrwt beam="2">  1        4 0.74154494E-02 0.12500006E+03</pdfrwt>
<pdfrwt beam="1">  1       -4 0.12467986E-01 0.12500006E+03</pdfrwt>
<totfact> 0.10360727E+04</totfact>
</mgrwt>
</event>
<event>
 5    1  0.3206665E-002  0.1250012E+03  0.7818608E-02  0.1235067E+00
         -4   -1    0    0    0  501 -0.00000000000E+00  0.00000000000E+00  0.28128528767E+01  0.30862665643E+01  0.12700000000E+01 0. -1.
          4   -1    0    0  501    0  0.00000000000E+00 -0.00000000000E+00 -0.13241021757E+04  0.13241027847E+04  0.12700000000E+01 0. -1.
         25    2    1    2    0    0  0.00000000000E+00  0.00000000000E+00 -0.13212893228E+04  0.13271890513E+04  0.12500121332E+03 0.  0.
    9000005    1    3    3    0    0 -0.50399487328E+02 -0.22777418867E+02 -0.96953769085E+03  0.97111443873E+03  0.10000000000E+01 0.  0.
    9000005    1    3    3    0    0  0.50399487328E+02  0.22777418867E+02 -0.35175163195E+03  0.35607461256E+03  0.10000000000E+01 0.  0.
<mgrwt>
<rscale>  0 0.12500121E+03</rscale>
<asrwt>0</asrwt>
<pdfrwt beam="2">  1        4 0.20372863E+00 0.12500121E+03</pdfrwt>
<pdfrwt beam="1">  1       -4 0.45382633E-03 0.12500121E+03</pdfrwt>
<totfact> 0.21595268E+03</totfact>
</mgrwt>
</event>
<event>
 5    1  0.3206665E-002  0.1249882E+03  0.7818608E-02  0.1235088E+00
          4   -1    0    0  501    0  0.00000000000E+00  0.00000000000E+00  0.28224799681E+02  0.28253357624E+02  0.12700000000E+01 0. -1.
         -4   -1    0    0    0  501 -0.00000000000E+00 -0.00000000000E+00 -0.13827018074E+03  0.13827601304E+03  0.12700000000E+01 0. -1.
         25    2    1    2    0    0  0.00000000000E+00  0.00000000000E+00 -0.11004538106E+03  0.16652937066E+03  0.12498818104E+03 0.  0.
    9000005    1    3    3    0    0  0.15357479874E+02 -0.29345651960E+02  0.15573480549E+02  0.36613559967E+02  0.10000000000E+01 0.  0.
    9000005    1    3    3    0    0 -0.15357479874E+02  0.29345651960E+02 -0.12561886161E+03  0.12991581070E+03  0.10000000000E+01 0.  0.
<mgrwt>
<rscale>  0 0.12498818E+03</rscale>
<asrwt>0</asrwt>
<pdfrwt beam="1">  1        4 0.43449224E-02 0.12498818E+03</pdfrwt>
<pdfrwt beam="2">  1       -4 0.21274981E-01 0.12498818E+03</pdfrwt>
<totfact> 0.96124051E+03</totfact>
</mgrwt>
</event>
<event>
 5    1  0.3206665E-002  0.1250048E+03  0.7818608E-02  0.1235062E+00
         -4   -1    0    0    0  501 -0.00000000000E+00  0.00000000000E+00  0.22810390574E+03  0.22810744116E+03  0.12700000000E+01 0. -1.
          4   -1    0    0  501    0  0.00000000000E+00 -0.00000000000E+00 -0.17098970735E+02  0.17146069526E+02  0.12700000000E+01 0. -1.
         25    2    1    2    0    0  0.00000000000E+00  0.00000000000E+00  0.21100493500E+03  0.24525351069E+03  0.12500480754E+03 0.  0.
    9000005    1    3    3    0    0 -0.71568820557E+00 -0.62490298204E+02  0.10544367779E+03  0.12257617535E+03  0.10000000000E+01 0.  0.
    9000005    1    3    3    0    0  0.71568820557E+00  0.62490298204E+02  0.10556125722E+03  0.12267733533E+03  0.10000000000E+01 0.  0.
<mgrwt>
<rscale>  0 0.12500481E+03</rscale>
<asrwt>0</asrwt>
<pdfrwt beam="2">  1        4 0.26345061E-02 0.12500481E+03</pdfrwt>
<pdfrwt beam="1">  1       -4 0.35096799E-01 0.12500481E+03</pdfrwt>
<totfact> 0.83012228E+03</totfact>
</mgrwt>
</event>
<event>
 5    1  0.3206665E-002  0.1250027E+03  0.7818608E-02  0.1235065E+00
         -4   -1    0    0    0  501 -0.00000000000E+00  0.00000000000E+00  0.20501682993E+02  0.20540981124E+02  0.12700000000E+01 0.  1.
          4   -1    0    0  501    0  0.00000000000E+00 -0.00000000000E+00 -0.19031747822E+03  0.19032171556E+03  0.12700000000E+01 0.  1.
         25    2    1    2    0    0  0.00000000000E+00  0.00000000000E+00 -0.16981579523E+03  0.21086269669E+03  0.12500269016E+03 0.  0.
    9000005    1    3    3    0    0 -0.28565024749E+02 -0.60493045077E+01  0.82960021014E+01  0.30370682818E+02  0.10000000000E+01 0.  0.
    9000005    1    3    3    0    0  0.28565024749E+02  0.60493045077E+01 -0.17811179733E+03  0.18049201387E+03  0.10000000000E+01 0.  0.
<mgrwt>
<rscale>  0 0.12500269E+03</rscale>
<asrwt>0</asrwt>
<pdfrwt beam="2">  1        4 0.29282960E-01 0.12500269E+03</pdfrwt>
<pdfrwt beam="1">  1       -4 0.31574541E-02 0.12500269E+03</pdfrwt>
<totfact> 0.88329873E+03</totfact>
</mgrwt>
</event>
<event>
 4    1  0.3206665E-002  0.1251616E+03  0.7818608E-02  0.1234817E+00
         -4   -1    0    0    0  501 -0.00000000000E+00  0.00000000000E+00  0.65582498628E+02  0.65594794201E+02  0.12700000000E+01 0. -1.
          4   -1    0    0  501    0  0.00000000000E+00 -0.00000000000E+00 -0.59691838074E+02  0.59705346768E+02  0.12700000000E+01 0. -1.
    9000005    1    1    2    0    0  0.47958491219E+02 -0.72625845349E+01  0.42518750522E+02  0.64510512012E+02  0.10000000000E+01 0.  0.
    9000005    1    1    2    0    0 -0.47958491219E+02  0.72625845349E+01 -0.36628089968E+02  0.60789628958E+02  0.10000000000E+01 0.  0.
<mgrwt>
<rscale>  0 0.12516160E+03</rscale>
<asrwt>0</asrwt>
<pdfrwt beam="2">  1        4 0.91853447E-02 0.12516160E+03</pdfrwt>
<pdfrwt beam="1">  1       -4 0.10091600E-01 0.12516160E+03</pdfrwt>
<totfact> 0.10408288E+04</totfact>
</mgrwt>
</event>
<event>
 5    1  0.3206665E-002  0.1250009E+03  0.7818608E-02  0.1235068E+00
         -4   -1    0    0    0  501 -0.00000000000E+00  0.00000000000E+00  0.16234021369E+02  0.16283622134E+02  0.12700000000E+01 0. -1.
          4   -1    0    0  501    0  0.00000000000E+00 -0.00000000000E+00 -0.24020631552E+03  0.24020967282E+03  0.12700000000E+01 0. -1.
         25    2    1    2    0    0  0.00000000000E+00  0.00000000000E+00 -0.22397229416E+03  0.25649329496E+03  0.12500088723E+03 0.  0.
    9000005    1    3    3    0    0  0.26605770628E+02  0.37474477430E+02 -0.25097024025E+02  0.52374269487E+02  0.10000000000E+01 0.  0.
    9000005    1    3    3    0    0 -0.26605770628E+02 -0.37474477430E+02 -0.19887527013E+03  0.20411902547E+03  0.10000000000E+01 0.  0.
<mgrwt>
<rscale>  0 0.12500089E+03</rscale>
<asrwt>0</asrwt>
<pdfrwt beam="2">  1        4 0.36958889E-01 0.12500089E+03</pdfrwt>
<pdfrwt beam="1">  1       -4 0.25016156E-02 0.12500089E+03</pdfrwt>
<totfact> 0.81399102E+03</totfact>
</mgrwt>
</event>
<event>
 5    1  0.3206665E-002  0.1249977E+03  0.7818608E-02  0.1235073E+00
         -4   -1    0    0    0  501 -0.00000000000E+00  0.00000000000E+00  0.47466219538E+02  0.47483206475E+02  0.12700000000E+01 0. -1.
          4   -1    0    0  501    0  0.00000000000E+00 -0.00000000000E+00 -0.82255715829E+02  0.82265519427E+02  0.12700000000E+01 0. -1.
         25    2    1    2    0    0  0.00000000000E+00  0.00000000000E+00 -0.34789496292E+02  0.12974872590E+03  0.12499769126E+03 0.  0.
    9000005    1    3    3    0    0  0.23729789554E+02  0.31800330072E+02 -0.67507493182E+02  0.78311081851E+02  0.10000000000E+01 0.  0.
    9000005    1    3    3    0    0 -0.23729789554E+02 -0.31800330072E+02  0.32717996891E+02  0.51437644051E+02  0.10000000000E+01 0.  0.
<mgrwt>
<rscale>  0 0.12499769E+03</rscale>
<asrwt>0</asrwt>
<pdfrwt beam="2">  1        4 0.12656786E-01 0.12499769E+03</pdfrwt>
<pdfrwt beam="1">  1       -4 0.73045561E-02 0.12499769E+03</pdfrwt>
<totfact> 0.10350425E+04</totfact>
</mgrwt>
</event>
<event>
 5    1  0.3206665E-002  0.1250014E+03  0.7818608E-02  0.1235067E+00
         -4   -1    0    0    0  501 -0.00000000000E+00  0.00000000000E+00  0.54538047565E+01  0.55997219862E+01  0.12700000000E+01 0. -1.
          4   -1    0    0  501    0  0.00000000000E+00 -0.00000000000E+00 -0.70665767854E+03  0.70665881976E+03  0.12700000000E+01 0. -1.
         25    2    1    2    0    0  0.00000000000E+00  0.00000000000E+00 -0.70120387379E+03  0.71225854174E+03  0.12500143070E+03 0.  0.
    9000005    1    3    3    0    0 -0.18477037984E+02  0.42724302251E+02 -0.58818697272E+03  0.59002684839E+03  0.10000000000E+01 0.  0.
    9000005    1    3    3    0    0  0.18477037984E+02 -0.42724302251E+02 -0.11301690106E+03  0.12223169336E+03  0.10000000000E+01 0.  0.
<mgrwt>
<rscale>  0 0.12500143E+03</rscale>
<asrwt>0</asrwt>
<pdfrwt beam="2">  1        4 0.10872781E+00 0.12500143E+03</pdfrwt>
<pdfrwt beam="1">  1       -4 0.85035963E-03 0.12500143E+03</pdfrwt>
<totfact> 0.42446133E+03</totfact>
</mgrwt>
</event>
<event>
 5    1  0.3206665E-002  0.1249984E+03  0.7818608E-02  0.1235072E+00
         -4   -1    0    0    0  501 -0.00000000000E+00  0.00000000000E+00  0.29417922376E+02  0.29445323176E+02  0.12700000000E+01 0. -1.
          4   -1    0    0  501    0  0.00000000000E+00 -0.00000000000E+00 -0.13268912023E+03  0.13269519783E+03  0.12700000000E+01 0. -1.
         25    2    1    2    0    0  0.00000000000E+00  0.00000000000E+00 -0.10327119785E+03  0.16214052101E+03  0.12499843297E+03 0.  0.
    9000005    1    3    3    0    0 -0.47348232559E+02 -0.40042070000E+02 -0.61677306238E+02  0.87466065427E+02  0.10000000000E+01 0.  0.
    9000005    1    3    3    0    0  0.47348232559E+02  0.40042070000E+02 -0.41593891615E+02  0.74674455579E+02  0.10000000000E+01 0.  0.
<mgrwt>
<rscale>  0 0.12499843E+03</rscale>
<asrwt>0</asrwt>
<pdfrwt beam="2">  1        4 0.20416286E-01 0.12499843E+03</pdfrwt>
<pdfrwt beam="1">  1       -4 0.45284095E-02 0.12499843E+03</pdfrwt>
<totfact> 0.96935103E+03</totfact>
</mgrwt>
</event>
<event>
 5    1  0.3206665E-002  0.1250243E+03  0.7818608E-02  0.1235031E+00
          4   -1    0    0  501    0  0.00000000000E+00  0.00000000000E+00  0.24668999571E+02  0.24701668766E+02  0.12700000000E+01 0. -1.
         -4   -1    0    0    0  501 -0.00000000000E+00 -0.00000000000E+00 -0.15826794031E+03  0.15827303571E+03  0.12700000000E+01 0. -1.
         25    2    1    2    0    0  0.00000000000E+00  0.00000000000E+00 -0.13359894074E+03  0.18297470447E+03  0.12502425968E+03 0.  0.
    9000005    1    3    3    0    0  0.14182201779E+02  0.33674505218E+02 -0.14101648357E+03  0.14567688831E+03  0.10000000000E+01 0.  0.
    9000005    1    3    3    0    0 -0.14182201779E+02 -0.33674505218E+02  0.74175428264E+01  0.37297816163E+02  0.10000000000E+01 0.  0.
<mgrwt>
<rscale>  0 0.12502426E+03</rscale>
<asrwt>0</asrwt>
<pdfrwt beam="1">  1        4 0.37981358E-02 0.12502426E+03</pdfrwt>
<pdfrwt beam="2">  1       -4 0.24351818E-01 0.12502426E+03</pdfrwt>
<totfact> 0.93033671E+03</totfact>
</mgrwt>
</event>
<event>
 5    1  0.3206665E-002  0.1249992E+03  0.7818608E-02  0.1235071E+00
         -4   -1    0    0    0  501 -0.00000000000E+00  0.00000000000E+00  0.93699354630E+01  0.94556115921E+01  0.12700000000E+01 0.  1.
          4   -1    0    0  501    0  0.00000000000E+00 -0.00000000000E+00 -0.41490270030E+03  0.41490464401E+03  0.12700000000E+01 0.  1.
         25    2    1    2    0    0  0.00000000000E+00  0.00000000000E+00 -0.40553276484E+03  0.42436025560E+03  0.12499921269E+03 0.  0.
    9000005    1    3    3    0    0  0.24246149191E+02  0.50202211329E+02 -0.29861232992E+03  0.30377370089E+03  0.10000000000E+01 0.  0.
    9000005    1    3    3    0    0 -0.24246149191E+02 -0.50202211329E+02 -0.10692043492E+03  0.12058655471E+03  0.10000000000E+01 0.  0.
<mgrwt>
<rscale>  0 0.12499921E+03</rscale>
<asrwt>0</asrwt>
<pdfrwt beam="2">  1        4 0.63837910E-01 0.12499921E+03</pdfrwt>
<pdfrwt beam="1">  1       -4 0.14482688E-02 0.12499921E+03</pdfrwt>
<totfact> 0.62251635E+03</totfact>
</mgrwt>
</event>
<event>
 5    1  0.3206665E-002  0.1249981E+03  0.7818608E-02  0.1235072E+00
         -4   -1    0    0    0  501 -0.00000000000E+00  0.00000000000E+00  0.20642406513E+03  0.20642797186E+03  0.12700000000E+01 0. -1.
          4   -1    0    0  501    0  0.00000000000E+00 -0.00000000000E+00 -0.18897440191E+02  0.18940067206E+02  0.12700000000E+01 0. -1.
         25    2    1    2    0    0  0.00000000000E+00  0.00000000000E+00  0.18752662494E+03  0.22536803906E+03  0.12499807186E+03 0.  0.
    9000005    1    3    3    0    0 -0.46824224473E+02  0.66070358019E+01  0.20106471039E+02  0.51394854774E+02  0.10000000000E+01 0.  0.
    9000005    1    3    3    0    0  0.46824224473E+02 -0.66070358019E+01  0.16742015390E+03  0.17397318429E+03  0.10000000000E+01 0.  0.
<mgrwt>
<rscale>  0 0.12499807E+03</rscale>
<asrwt>0</asrwt>
<pdfrwt beam="2">  1        4 0.29108781E-02 0.12499807E+03</pdfrwt>
<pdfrwt beam="1">  1       -4 0.31761127E-01 0.12499807E+03</pdfrwt>
<totfact> 0.86029654E+03</totfact>
</mgrwt>
</event>
<event>
 5    1  0.3206665E-002  0.1250007E+03  0.7818608E-02  0.1235068E+00
         -4   -1    0    0    0  501 -0.00000000000E+00  0.00000000000E+00  0.40206518537E+02  0.40226571229E+02  0.12700000000E+01 0. -1.
          4   -1    0    0  501    0  0.00000000000E+00 -0.00000000000E+00 -0.97107251246E+02  0.97115555626E+02  0.12700000000E+01 0. -1.
         25    2    1    2    0    0  0.00000000000E+00  0.00000000000E+00 -0.56900732709E+02  0.13734212686E+03  0.12500066570E+03 0.  0.
    9000005    1    3    3    0    0 -0.18049038089E+01  0.22285636313E+02  0.35666827983E+02  0.42107361375E+02  0.10000000000E+01 0.  0.
    9000005    1    3    3    0    0  0.18049038089E+01 -0.22285636313E+02 -0.92567560692E+02  0.95234765480E+02  0.10000000000E+01 0.  0.
<mgrwt>
<rscale>  0 0.12500067E+03</rscale>
<asrwt>0</asrwt>
<pdfrwt beam="2">  1        4 0.14941758E-01 0.12500067E+03</pdfrwt>
<pdfrwt beam="1">  1       -4 0.61877996E-02 0.12500067E+03</pdfrwt>
<totfact> 0.10188784E+04</totfact>
</mgrwt>
</event>
<event>
 5    1  0.3206665E-002  0.1250076E+03  0.7818608E-02  0.1235057E+00
          4   -1    0    0  501    0  0.00000000000E+00  0.00000000000E+00  0.10063695014E+02  0.10143513066E+02  0.12700000000E+01 0. -1.
         -4   -1    0    0    0  501 -0.00000000000E+00 -0.00000000000E+00 -0.38658537796E+03  0.38658746404E+03  0.12700000000E+01 0. -1.
         25    2    1    2    0    0  0.00000000000E+00  0.00000000000E+00 -0.37652168295E+03  0.39673097711E+03  0.12500756164E+03 0.  0.
    9000005    1    3    3    0    0 -0.89356296234E+01 -0.50235575441E+02 -0.30278823107E+03  0.30705890541E+03  0.10000000000E+01 0.  0.
    9000005    1    3    3    0    0  0.89356296234E+01  0.50235575441E+02 -0.73733451872E+02  0.89672071692E+02  0.10000000000E+01 0.  0.
<mgrwt>
<rscale>  0 0.12500756E+03</rscale>
<asrwt>0</asrwt>
<pdfrwt beam="1">  1        4 0.15545614E-02 0.12500756E+03</pdfrwt>
<pdfrwt beam="2">  1       -4 0.59480962E-01 0.12500756E+03</pdfrwt>
<totfact> 0.64861152E+03</totfact>
</mgrwt>
</event>
<event>
 5    1  0.3206665E-002  0.1249992E+03  0.7818608E-02  0.1235071E+00
         -4   -1    0    0    0  501 -0.00000000000E+00  0.00000000000E+00  0.41621341354E+02  0.41640712723E+02  0.12700000000E+01 0. -1.
          4   -1    0    0  501    0  0.00000000000E+00 -0.00000000000E+00 -0.93805355924E+02  0.93813952588E+02  0.12700000000E+01 0. -1.
         25    2    1    2    0    0  0.00000000000E+00  0.00000000000E+00 -0.52184014571E+02  0.13545466531E+03  0.12499917991E+03 0.  0.
    9000005    1    3    3    0    0 -0.51626903073E+02  0.24086481322E+02  0.17410585479E+01  0.57004622517E+02  0.10000000000E+01 0.  0.
    9000005    1    3    3    0    0  0.51626903073E+02 -0.24086481322E+02 -0.53925073119E+02  0.78450042794E+02  0.10000000000E+01 0.  0.
<mgrwt>
<rscale>  0 0.12499918E+03</rscale>
<asrwt>0</asrwt>
<pdfrwt beam="2">  1        4 0.14433745E-01 0.12499918E+03</pdfrwt>
<pdfrwt beam="1">  1       -4 0.64054347E-02 0.12499918E+03</pdfrwt>
<totfact> 0.10228686E+04</totfact>
</mgrwt>
</event>
<event>
 5    1  0.3206665E-002  0.1249983E+03  0.7818608E-02  0.1235072E+00
          4   -1    0    0  501    0  0.00000000000E+00  0.00000000000E+00  0.16174901548E+02  0.16224683051E+02  0.12700000000E+01 0.  1.
         -4   -1    0    0    0  501 -0.00000000000E+00 -0.00000000000E+00 -0.24107170725E+03  0.24107505249E+03  0.12700000000E+01 0.  1.
         25    2    1    2    0    0  0.00000000000E+00  0.00000000000E+00 -0.22489680570E+03  0.25729973554E+03  0.12499832278E+03 0.  0.
    9000005    1    3    3    0    0 -0.25458084999E+02 -0.25079813292E+02 -0.21797225770E+03  0.22088462204E+03  0.10000000000E+01 0.  0.
    9000005    1    3    3    0    0  0.25458084999E+02  0.25079813292E+02 -0.69245479979E+01  0.36415113505E+02  0.10000000000E+01 0.  0.
<mgrwt>
<rscale>  0 0.12499832E+03</rscale>
<asrwt>0</asrwt>
<pdfrwt beam="1">  1        4 0.24925332E-02 0.12499832E+03</pdfrwt>
<pdfrwt beam="2">  1       -4 0.37092039E-01 0.12499832E+03</pdfrwt>
<totfact> 0.81289541E+03</totfact>
</mgrwt>
</event>
<event>
 5    1  0.3206665E-002  0.1250006E+03  0.7818608E-02  0.1235068E+00
         -4   -1    0    0    0  501 -0.00000000000E+00  0.00000000000E+00  0.19833670320E+03  0.19834076922E+03  0.12700000000E+01 0. -1.
          4   -1    0    0  501    0  0.00000000000E+00 -0.00000000000E+00 -0.19670485735E+02  0.19711441070E+02  0.12700000000E+01 0. -1.
         25    2    1    2    0    0  0.00000000000E+00  0.00000000000E+00  0.17866621746E+03  0.21805221029E+03  0.12500059660E+03 0.  0.
    9000005    1    3    3    0    0  0.32294241741E+02  0.39027666047E+02  0.25496055165E+02  0.56719710821E+02  0.10000000000E+01 0.  0.
    9000005    1    3    3    0    0 -0.32294241741E+02 -0.39027666047E+02  0.15317016230E+03  0.16133249947E+03  0.10000000000E+01 0.  0.
<mgrwt>
<rscale>  0 0.12500060E+03</rscale>
<asrwt>0</asrwt>
<pdfrwt beam="2">  1        4 0.30296916E-02 0.12500060E+03</pdfrwt>
<pdfrwt beam="1">  1       -4 0.30516803E-01 0.12500060E+03</pdfrwt>
<totfact> 0.87176340E+03</totfact>
</mgrwt>
</event>
<event>
 5    1  0.3206665E-002  0.1249995E+03  0.7818608E-02  0.1235070E+00
         -4   -1    0    0    0  501 -0.00000000000E+00  0.00000000000E+00  0.34900598471E+03  0.34900829540E+03  0.12700000000E+01 0. -1.
          4   -1    0    0  501    0  0.00000000000E+00 -0.00000000000E+00 -0.11154037577E+02  0.11226105927E+02  0.12700000000E+01 0. -1.
         25    2    1    2    0    0  0.00000000000E+00  0.00000000000E+00  0.33785194713E+03  0.36023440133E+03  0.12499954289E+03 0.  0.
    9000005    1    3    3    0    0 -0.51989315757E+02 -0.23213693018E+02  0.24315660046E+03  0.24973565393E+03  0.10000000000E+01 0.  0.
    9000005    1    3    3    0    0  0.51989315757E+02  0.23213693018E+02  0.94695346666E+02  0.11049874740E+03  0.10000000000E+01 0.  0.
<mgrwt>
<rscale>  0 0.12499954E+03</rscale>
<asrwt>0</asrwt>
<pdfrwt beam="2">  1        4 0.17217273E-02 0.12499954E+03</pdfrwt>
<pdfrwt beam="1">  1       -4 0.53698949E-01 0.12499954E+03</pdfrwt>
<totfact> 0.68613822E+03</totfact>
</mgrwt>
</event>
<event>
 5    1  0.3206665E-002  0.1250019E+03  0.7818608E-02  0.1235066E+00
         -4   -1    0    0    0  501 -0.00000000000E+00  0.00000000000E+00  0.55444169068E+01  0.56880100946E+01  0.12700000000E+01 0.  1.
          4   -1    0    0  501    0  0.00000000000E+00 -0.00000000000E+00 -0.69540741372E+03  0.69540857340E+03  0.12700000000E+01 0.  1.
         25    2    1    2    0    0  0.00000000000E+00  0.00000000000E+00 -0.68986299681E+03  0.70109658349E+03  0.12500186004E+03 0.  0.
    9000005    1    3    3    0    0  0.61675220114E+01 -0.39726367070E+02 -0.61327921368E+03  0.61459630369E+03  0.10000000000E+01 0.  0.
    9000005    1    3    3    0    0 -0.61675220114E+01  0.39726367070E+02 -0.76583783130E+02  0.86500279808E+02  0.10000000000E+01 0.  0.
<mgrwt>
<rscale>  0 0.12500186E+03</rscale>
<asrwt>0</asrwt>
<pdfrwt beam="2">  1        4 0.10699682E+00 0.12500186E+03</pdfrwt>
<pdfrwt beam="1">  1       -4 0.86412260E-03 0.12500186E+03</pdfrwt>
<totfact> 0.43027138E+03</totfact>
</mgrwt>
</event>
<event>
 5    1  0.3206665E-002  0.1249987E+03  0.7818608E-02  0.1235071E+00
          4   -1    0    0  501    0  0.00000000000E+00  0.00000000000E+00  0.86229359991E+03  0.86229453514E+03  0.12700000000E+01 0.  1.
         -4   -1    0    0    0  501 -0.00000000000E+00 -0.00000000000E+00 -0.44400072691E+01  0.46180693530E+01  0.12700000000E+01 0.  1.
         25    2    1    2    0    0  0.00000000000E+00  0.00000000000E+00  0.85785359264E+03  0.86691260450E+03  0.12499870974E+03 0.  0.
    9000005    1    3    3    0    0 -0.39492602901E+02  0.10242372649E+02  0.75721230220E+03  0.75831130974E+03  0.10000000000E+01 0.  0.
    9000005    1    3    3    0    0  0.39492602901E+02 -0.10242372649E+02  0.10064129044E+03  0.10860129475E+03  0.10000000000E+01 0.  0.
<mgrwt>
<rscale>  0 0.12499871E+03</rscale>
<asrwt>0</asrwt>
<pdfrwt beam="1">  1        4 0.13267435E+00 0.12499871E+03</pdfrwt>
<pdfrwt beam="2">  1       -4 0.69684690E-03 0.12499871E+03</pdfrwt>
<totfact> 0.35446056E+03</totfact>
</mgrwt>
</event>
<event>
 5    1  0.3206665E-002  0.1249801E+03  0.7818608E-02  0.1235100E+00
          4   -1    0    0  501    0  0.00000000000E+00  0.00000000000E+00  0.23374870146E+01  0.26602153190E+01  0.12700000000E+01 0. -1.
         -4   -1    0    0    0  501 -0.00000000000E+00 -0.00000000000E+00 -0.15623988944E+04  0.15623994106E+04  0.12700000000E+01 0. -1.
         25    2    1    2    0    0  0.00000000000E+00  0.00000000000E+00 -0.15600614074E+04  0.15650596259E+04  0.12498014941E+03 0.  0.
    9000005    1    3    3    0    0 -0.92224730981E+01 -0.55225347848E+02 -0.43274582063E+03  0.43635402866E+03  0.10000000000E+01 0.  0.
    9000005    1    3    3    0    0  0.92224730981E+01  0.55225347848E+02 -0.11273155868E+04  0.11287055973E+04  0.10000000000E+01 0.  0.
<mgrwt>
<rscale>  0 0.12498015E+03</rscale>
<asrwt>0</asrwt>
<pdfrwt beam="1">  1        4 0.38447959E-03 0.12498015E+03</pdfrwt>
<pdfrwt beam="2">  1       -4 0.24039314E+00 0.12498015E+03</pdfrwt>
<totfact> 0.16693745E+03</totfact>
</mgrwt>
</event>
<event>
 5    1  0.3206665E-002  0.1250048E+03  0.7818608E-02  0.1235062E+00
          4   -1    0    0  501    0  0.00000000000E+00  0.00000000000E+00  0.14886225834E+03  0.14886767567E+03  0.12700000000E+01 0. -1.
         -4   -1    0    0    0  501 -0.00000000000E+00 -0.00000000000E+00 -0.26221461586E+02  0.26252198912E+02  0.12700000000E+01 0. -1.
         25    2    1    2    0    0  0.00000000000E+00  0.00000000000E+00  0.12264079675E+03  0.17511987458E+03  0.12500482168E+03 0.  0.
    9000005    1    3    3    0    0  0.16876801340E+02 -0.57347199188E+02  0.86847011939E+02  0.10543685864E+03  0.10000000000E+01 0.  0.
    9000005    1    3    3    0    0 -0.16876801340E+02  0.57347199188E+02  0.35793784815E+02  0.69683015933E+02  0.10000000000E+01 0.  0.
<mgrwt>
<rscale>  0 0.12500482E+03</rscale>
<asrwt>0</asrwt>
<pdfrwt beam="1">  1        4 0.22904667E-01 0.12500482E+03</pdfrwt>
<pdfrwt beam="2">  1       -4 0.40368522E-02 0.12500482E+03</pdfrwt>
<totfact> 0.94492669E+03</totfact>
</mgrwt>
</event>
<event>
 5    1  0.3206665E-002  0.1250056E+03  0.7818608E-02  0.1235061E+00
         -4   -1    0    0    0  501 -0.00000000000E+00  0.00000000000E+00  0.20078297057E+02  0.20118422222E+02  0.12700000000E+01 0. -1.
          4   -1    0    0  501    0  0.00000000000E+00 -0.00000000000E+00 -0.19433188779E+03  0.19433603760E+03  0.12700000000E+01 0. -1.
         25    2    1    2    0    0  0.00000000000E+00  0.00000000000E+00 -0.17425359073E+03  0.21445445983E+03  0.12500560570E+03 0.  0.
    9000005    1    3    3    0    0  0.34992407321E+02 -0.13134434254E+02 -0.12011311627E+01  0.37408884631E+02  0.10000000000E+01 0.  0.
    9000005    1    3    3    0    0 -0.34992407321E+02  0.13134434254E+02 -0.17305245957E+03  0.17704557519E+03  0.10000000000E+01 0.  0.
<mgrwt>
<rscale>  0 0.12500561E+03</rscale>
<asrwt>0</asrwt>
<pdfrwt beam="2">  1        4 0.29900618E-01 0.12500561E+03</pdfrwt>
<pdfrwt beam="1">  1       -4 0.30923747E-02 0.12500561E+03</pdfrwt>
<totfact> 0.87742546E+03</totfact>
</mgrwt>
</event>
<event>
 5    1  0.3206665E-002  0.1249999E+03  0.7818608E-02  0.1235069E+00
          4   -1    0    0  501    0  0.00000000000E+00  0.00000000000E+00  0.34463921204E+02  0.34487313099E+02  0.12700000000E+01 0. -1.
         -4   -1    0    0    0  501 -0.00000000000E+00 -0.00000000000E+00 -0.11327764918E+03  0.11328476819E+03  0.12700000000E+01 0. -1.
         25    2    1    2    0    0  0.00000000000E+00  0.00000000000E+00 -0.78813727977E+02  0.14777208129E+03  0.12499993716E+03 0.  0.
    9000005    1    3    3    0    0  0.59468579327E+02 -0.14207362980E+02 -0.24135028940E+02  0.65740860292E+02  0.10000000000E+01 0.  0.
    9000005    1    3    3    0    0 -0.59468579327E+02  0.14207362980E+02 -0.54678699036E+02  0.82031220997E+02  0.10000000000E+01 0.  0.
<mgrwt>
<rscale>  0 0.12499994E+03</rscale>
<asrwt>0</asrwt>
<pdfrwt beam="1">  1        4 0.53044888E-02 0.12499994E+03</pdfrwt>
<pdfrwt beam="2">  1       -4 0.17429677E-01 0.12499994E+03</pdfrwt>
<totfact> 0.99749809E+03</totfact>
</mgrwt>
</event>
<event>
 5    1  0.3206665E-002  0.1250446E+03  0.7818608E-02  0.1235000E+00
          4   -1    0    0  501    0  0.00000000000E+00  0.00000000000E+00  0.66624235722E+03  0.66624356766E+03  0.12700000000E+01 0.  1.
         -4   -1    0    0    0  501 -0.00000000000E+00 -0.00000000000E+00 -0.57973371223E+01  0.59348140417E+01  0.12700000000E+01 0.  1.
         25    2    1    2    0    0  0.00000000000E+00  0.00000000000E+00  0.66044502009E+03  0.67217838170E+03  0.12504460109E+03 0.  0.
    9000005    1    3    3    0    0  0.55868163075E+02  0.27424627883E+02  0.36187700425E+03  0.36719113287E+03  0.10000000000E+01 0.  0.
    9000005    1    3    3    0    0 -0.55868163075E+02 -0.27424627883E+02  0.29856801585E+03  0.30498724883E+03  0.10000000000E+01 0.  0.
<mgrwt>
<rscale>  0 0.12504460E+03</rscale>
<asrwt>0</asrwt>
<pdfrwt beam="1">  1        4 0.10250955E+00 0.12504460E+03</pdfrwt>
<pdfrwt beam="2">  1       -4 0.90256579E-03 0.12504460E+03</pdfrwt>
<totfact> 0.44553074E+03</totfact>
</mgrwt>
</event>
<event>
 5    1  0.3206665E-002  0.1250019E+03  0.7818608E-02  0.1235066E+00
          4   -1    0    0  501    0  0.00000000000E+00  0.00000000000E+00  0.10576201968E+03  0.10576964454E+03  0.12700000000E+01 0.  1.
         -4   -1    0    0    0  501 -0.00000000000E+00 -0.00000000000E+00 -0.36915561554E+02  0.36937400895E+02  0.12700000000E+01 0.  1.
         25    2    1    2    0    0  0.00000000000E+00  0.00000000000E+00  0.68846458122E+02  0.14270704543E+03  0.12500186407E+03 0.  0.
    9000005    1    3    3    0    0 -0.89719812851E+00 -0.39571051839E+02  0.89632952300E+02  0.97988464862E+02  0.10000000000E+01 0.  0.
    9000005    1    3    3    0    0  0.89719812851E+00  0.39571051839E+02 -0.20786494178E+02  0.44718580572E+02  0.10000000000E+01 0.  0.
<mgrwt>
<rscale>  0 0.12500186E+03</rscale>
<asrwt>0</asrwt>
<pdfrwt beam="1">  1        4 0.16273346E-01 0.12500186E+03</pdfrwt>
<pdfrwt beam="2">  1       -4 0.56815838E-02 0.12500186E+03</pdfrwt>
<totfact> 0.10077363E+04</totfact>
</mgrwt>
</event>
<event>
 5    1  0.3206665E-002  0.1249995E+03  0.7818608E-02  0.1235070E+00
          4   -1    0    0  501    0  0.00000000000E+00  0.00000000000E+00  0.15576488708E+03  0.15577006435E+03  0.12700000000E+01 0. -1.
         -4   -1    0    0    0  501 -0.00000000000E+00 -0.00000000000E+00 -0.25055995554E+02  0.25088160817E+02  0.12700000000E+01 0. -1.
         25    2    1    2    0    0  0.00000000000E+00  0.00000000000E+00  0.13070889152E+03  0.18085822516E+03  0.12499953314E+03 0.  0.
    9000005    1    3    3    0    0  0.44190848212E+02  0.44039684164E+02  0.70550299940E+02  0.94184232591E+02  0.10000000000E+01 0.  0.
    9000005    1    3    3    0    0 -0.44190848212E+02 -0.44039684164E+02  0.60158591584E+02  0.86673992572E+02  0.10000000000E+01 0.  0.
<mgrwt>
<rscale>  0 0.12499953E+03</rscale>
<asrwt>0</asrwt>
<pdfrwt beam="1">  1        4 0.23966701E-01 0.12499953E+03</pdfrwt>
<pdfrwt beam="2">  1       -4 0.38576410E-02 0.12499953E+03</pdfrwt>
<totfact> 0.93463725E+03</totfact>
</mgrwt>
</event>
<event>
 5    1  0.3206665E-002  0.1249967E+03  0.7818608E-02  0.1235074E+00
          4   -1    0    0  501    0  0.00000000000E+00  0.00000000000E+00  0.24106375718E+03  0.24106710254E+03  0.12700000000E+01 0. -1.
         -4   -1    0    0    0  501 -0.00000000000E+00 -0.00000000000E+00 -0.16175020666E+02  0.16224801803E+02  0.12700000000E+01 0. -1.
         25    2    1    2    0    0  0.00000000000E+00  0.00000000000E+00  0.22488873651E+03  0.25729190434E+03  0.12499672087E+03 0.  0.
    9000005    1    3    3    0    0 -0.38402574867E+02  0.40404517115E+02  0.54305810347E+02  0.77829324790E+02  0.10000000000E+01 0.  0.
    9000005    1    3    3    0    0  0.38402574867E+02 -0.40404517115E+02  0.17058292617E+03  0.17946257955E+03  0.10000000000E+01 0.  0.
<mgrwt>
<rscale>  0 0.12499672E+03</rscale>
<asrwt>0</asrwt>
<pdfrwt beam="1">  1        4 0.37090819E-01 0.12499672E+03</pdfrwt>
<pdfrwt beam="2">  1       -4 0.24925513E-02 0.12499672E+03</pdfrwt>
<totfact> 0.81293545E+03</totfact>
</mgrwt>
</event>
<event>
 5    1  0.3206665E-002  0.1249982E+03  0.7818608E-02  0.1235072E+00
          4   -1    0    0  501    0  0.00000000000E+00  0.00000000000E+00  0.20457104368E+02  0.20496487970E+02  0.12700000000E+01 0. -1.
         -4   -1    0    0    0  501 -0.00000000000E+00 -0.00000000000E+00 -0.19071774730E+03  0.19072197575E+03  0.12700000000E+01 0. -1.
         25    2    1    2    0    0  0.00000000000E+00  0.00000000000E+00 -0.17026064293E+03  0.21121846372E+03  0.12499821153E+03 0.  0.
    9000005    1    3    3    0    0  0.51873347108E+02 -0.16377717069E+02 -0.13710459712E+03  0.14750506536E+03  0.10000000000E+01 0.  0.
    9000005    1    3    3    0    0 -0.51873347108E+02  0.16377717069E+02 -0.33156045810E+02  0.63713398358E+02  0.10000000000E+01 0.  0.
<mgrwt>
<rscale>  0 0.12499821E+03</rscale>
<asrwt>0</asrwt>
<pdfrwt beam="1">  1        4 0.31506017E-02 0.12499821E+03</pdfrwt>
<pdfrwt beam="2">  1       -4 0.29344545E-01 0.12499821E+03</pdfrwt>
<totfact> 0.88280806E+03</totfact>
</mgrwt>
</event>
<event>
 5    1  0.3206665E-002  0.1250030E+03  0.7818608E-02  0.1235065E+00
          4   -1    0    0  501    0  0.00000000000E+00  0.00000000000E+00  0.28671691355E+03  0.28671972624E+03  0.12700000000E+01 0.  1.
         -4   -1    0    0    0  501 -0.00000000000E+00 -0.00000000000E+00 -0.13592238520E+02  0.13651441242E+02  0.12700000000E+01 0.  1.
         25    2    1    2    0    0  0.00000000000E+00  0.00000000000E+00  0.27312467503E+03  0.30037116748E+03  0.12500300054E+03 0.  0.
    9000005    1    3    3    0    0  0.56978830056E+02  0.20345195843E+02  0.17416797928E+03  0.18438003980E+03  0.10000000000E+01 0.  0.
    9000005    1    3    3    0    0 -0.56978830056E+02 -0.20345195843E+02  0.98956695744E+02  0.11599112768E+03  0.10000000000E+01 0.  0.
<mgrwt>
<rscale>  0 0.12500300E+03</rscale>
<asrwt>0</asrwt>
<pdfrwt beam="1">  1        4 0.44115063E-01 0.12500300E+03</pdfrwt>
<pdfrwt beam="2">  1       -4 0.20958841E-02 0.12500300E+03</pdfrwt>
<totfact> 0.75547272E+03</totfact>
</mgrwt>
</event>
<event>
 5    1  0.3206665E-002  0.1249972E+03  0.7818608E-02  0.1235074E+00
         -4   -1    0    0    0  501 -0.00000000000E+00  0.00000000000E+00  0.62298554305E+03  0.62298683754E+03  0.12700000000E+01 0. -1.
          4   -1    0    0  501    0  0.00000000000E+00 -0.00000000000E+00 -0.62043077229E+01  0.63329562070E+01  0.12700000000E+01 0. -1.
         25    2    1    2    0    0  0.00000000000E+00  0.00000000000E+00  0.61678123533E+03  0.62931979375E+03  0.12499724218E+03 0.  0.
    9000005    1    3    3    0    0 -0.58388038900E+02 -0.60523799062E+01  0.41628808815E+03  0.42040761973E+03  0.10000000000E+01 0.  0.
    9000005    1    3    3    0    0  0.58388038900E+02  0.60523799062E+01  0.20049314718E+03  0.20891217402E+03  0.10000000000E+01 0.  0.
<mgrwt>
<rscale>  0 0.12499724E+03</rscale>
<asrwt>0</asrwt>
<pdfrwt beam="2">  1        4 0.96450472E-03 0.12499724E+03</pdfrwt>
<pdfrwt beam="1">  1       -4 0.95853902E-01 0.12499724E+03</pdfrwt>
<totfact> 0.47070516E+03</totfact>
</mgrwt>
</event>
<event>
 5    1  0.3206665E-002  0.1250030E+03  0.7818608E-02  0.1235065E+00
         -4   -1    0    0    0  501 -0.00000000000E+00  0.00000000000E+00  0.83209027885E+02  0.83218719178E+02  0.12700000000E+01 0.  1.
          4   -1    0    0  501    0  0.00000000000E+00 -0.00000000000E+00 -0.46926264137E+02  0.46943446463E+02  0.12700000000E+01 0.  1.
         25    2    1    2    0    0  0.00000000000E+00  0.00000000000E+00  0.36282763748E+02  0.13016216564E+03  0.12500300164E+03 0.  0.
    9000005    1    3    3    0    0 -0.17636428892E+02 -0.46436296198E+02  0.57628322630E+02  0.76088085781E+02  0.10000000000E+01 0.  0.
    9000005    1    3    3    0    0  0.17636428892E+02  0.46436296198E+02 -0.21345558882E+02  0.54074079860E+02  0.10000000000E+01 0.  0.
<mgrwt>
<rscale>  0 0.12500300E+03</rscale>
<asrwt>0</asrwt>
<pdfrwt beam="2">  1        4 0.72214925E-02 0.12500300E+03</pdfrwt>
<pdfrwt beam="1">  1       -4 0.12803456E-01 0.12500300E+03</pdfrwt>
<totfact> 0.10340339E+04</totfact>
</mgrwt>
</event>
<event>
 4    1  0.3206665E-002  0.1248951E+03  0.7818608E-02  0.1235233E+00
         -4   -1    0    0    0  501 -0.00000000000E+00  0.00000000000E+00  0.64734339318E+01  0.65968361257E+01  0.12700000000E+01 0.  1.
          4   -1    0    0  501    0  0.00000000000E+00 -0.00000000000E+00 -0.59660358723E+03  0.59660493897E+03  0.12700000000E+01 0.  1.
    9000005    1    1    2    0    0 -0.58707373641E+02 -0.10766023202E+02 -0.38362502797E+03  0.38824170958E+03  0.10000000000E+01 0.  0.
    9000005    1    1    2    0    0  0.58707373641E+02  0.10766023202E+02 -0.20650512533E+03  0.21496006551E+03  0.10000000000E+01 0.  0.
<mgrwt>
<rscale>  0 0.12489509E+03</rscale>
<asrwt>0</asrwt>
<pdfrwt beam="2">  1        4 0.91794721E-01 0.12489509E+03</pdfrwt>
<pdfrwt beam="1">  1       -4 0.10055098E-02 0.12489509E+03</pdfrwt>
<totfact> 0.48778256E+03</totfact>
</mgrwt>
</event>
<event>
 5    1  0.3206665E-002  0.1249947E+03  0.7818608E-02  0.1235078E+00
          4   -1    0    0  501    0  0.00000000000E+00  0.00000000000E+00  0.72045174763E+01  0.73155978612E+01  0.12700000000E+01 0. -1.
         -4   -1    0    0    0  501 -0.00000000000E+00 -0.00000000000E+00 -0.53788918979E+03  0.53789068908E+03  0.12700000000E+01 0. -1.
         25    2    1    2    0    0  0.00000000000E+00  0.00000000000E+00 -0.53068467232E+03  0.54520628694E+03  0.12499469543E+03 0.  0.
    9000005    1    3    3    0    0  0.57946728858E+02  0.23046484413E+01 -0.36686949490E+03  0.37142611793E+03  0.10000000000E+01 0.  0.
    9000005    1    3    3    0    0 -0.57946728858E+02 -0.23046484413E+01 -0.16381517741E+03  0.17378016901E+03  0.10000000000E+01 0.  0.
<mgrwt>
<rscale>  0 0.12499470E+03</rscale>
<asrwt>0</asrwt>
<pdfrwt beam="1">  1        4 0.11170477E-02 0.12499470E+03</pdfrwt>
<pdfrwt beam="2">  1       -4 0.82760812E-01 0.12499470E+03</pdfrwt>
<totfact> 0.52526071E+03</totfact>
</mgrwt>
</event>
<event>
 5    1  0.3206665E-002  0.1250013E+03  0.7818608E-02  0.1235067E+00
         -4   -1    0    0    0  501 -0.00000000000E+00  0.00000000000E+00  0.28848616127E+03  0.28848895671E+03  0.12700000000E+01 0.  1.
          4   -1    0    0  501    0  0.00000000000E+00 -0.00000000000E+00 -0.13508136473E+02  0.13567706179E+02  0.12700000000E+01 0.  1.
         25    2    1    2    0    0  0.00000000000E+00  0.00000000000E+00  0.27497802480E+03  0.30205666289E+03  0.12500125389E+03 0.  0.
    9000005    1    3    3    0    0  0.28825986730E+02 -0.27277819361E+02  0.20840008891E+02  0.44836624657E+02  0.10000000000E+01 0.  0.
    9000005    1    3    3    0    0 -0.28825986730E+02  0.27277819361E+02  0.25413801591E+03  0.25722003824E+03  0.10000000000E+01 0.  0.
<mgrwt>
<rscale>  0 0.12500125E+03</rscale>
<asrwt>0</asrwt>
<pdfrwt beam="2">  1        4 0.20829723E-02 0.12500125E+03</pdfrwt>
<pdfrwt beam="1">  1       -4 0.44387280E-01 0.12500125E+03</pdfrwt>
<totfact> 0.75339481E+03</totfact>
</mgrwt>
</event>
<event>
 5    1  0.3206665E-002  0.1249636E+03  0.7818608E-02  0.1235126E+00
         -4   -1    0    0    0  501 -0.00000000000E+00  0.00000000000E+00  0.11947135211E+03  0.11947810208E+03  0.12700000000E+01 0.  1.
          4   -1    0    0  501    0  0.00000000000E+00 -0.00000000000E+00 -0.32657068012E+02  0.32681753183E+02  0.12700000000E+01 0.  1.
         25    2    1    2    0    0  0.00000000000E+00  0.00000000000E+00  0.86814284101E+02  0.15215985526E+03  0.12496360121E+03 0.  0.
    9000005    1    3    3    0    0  0.41977564384E+02 -0.44301189176E+02  0.59664446545E+02  0.85355477009E+02  0.10000000000E+01 0.  0.
    9000005    1    3    3    0    0 -0.41977564384E+02  0.44301189176E+02  0.27149837556E+02  0.66804378249E+02  0.10000000000E+01 0.  0.
<mgrwt>
<rscale>  0 0.12496360E+03</rscale>
<asrwt>0</asrwt>
<pdfrwt beam="2">  1        4 0.50265824E-02 0.12496360E+03</pdfrwt>
<pdfrwt beam="1">  1       -4 0.18382626E-01 0.12496360E+03</pdfrwt>
<totfact> 0.98955913E+03</totfact>
</mgrwt>
</event>
<event>
 5    1  0.3206665E-002  0.1250013E+03  0.7818608E-02  0.1235067E+00
         -4   -1    0    0    0  501 -0.00000000000E+00  0.00000000000E+00  0.79472405930E+02  0.79482552830E+02  0.12700000000E+01 0.  1.
          4   -1    0    0  501    0  0.00000000000E+00 -0.00000000000E+00 -0.49131806778E+02  0.49148218048E+02  0.12700000000E+01 0.  1.
         25    2    1    2    0    0  0.00000000000E+00  0.00000000000E+00  0.30340599152E+02  0.12863077088E+03  0.12500129303E+03 0.  0.
    9000005    1    3    3    0    0  0.53038326913E+02  0.27833048730E+02 -0.31681439286E+01  0.59989831299E+02  0.10000000000E+01 0.  0.
    9000005    1    3    3    0    0 -0.53038326913E+02 -0.27833048730E+02  0.33508743081E+02  0.68640939578E+02  0.10000000000E+01 0.  0.
<mgrwt>
<rscale>  0 0.12500129E+03</rscale>
<asrwt>0</asrwt>
<pdfrwt beam="2">  1        4 0.75607825E-02 0.12500129E+03</pdfrwt>
<pdfrwt beam="1">  1       -4 0.12228567E-01 0.12500129E+03</pdfrwt>
<totfact> 0.10373585E+04</totfact>
</mgrwt>
</event>
<event>
 5    1  0.3206665E-002  0.1250010E+03  0.7818608E-02  0.1235068E+00
         -4   -1    0    0    0  501 -0.00000000000E+00  0.00000000000E+00  0.21457949754E+03  0.21458325578E+03  0.12700000000E+01 0.  1.
          4   -1    0    0  501    0  0.00000000000E+00 -0.00000000000E+00 -0.18178418192E+02  0.18222727237E+02  0.12700000000E+01 0.  1.
         25    2    1    2    0    0  0.00000000000E+00  0.00000000000E+00  0.19640107934E+03  0.23280598302E+03  0.12500096705E+03 0.  0.
    9000005    1    3    3    0    0 -0.14978159308E+02  0.42193198486E+02  0.17939706763E+03  0.18490245842E+03  0.10000000000E+01 0.  0.
    9000005    1    3    3    0    0  0.14978159308E+02 -0.42193198486E+02  0.17004011710E+02  0.47903524599E+02  0.10000000000E+01 0.  0.
<mgrwt>
<rscale>  0 0.12500097E+03</rscale>
<asrwt>0</asrwt>
<pdfrwt beam="2">  1        4 0.28003772E-02 0.12500097E+03</pdfrwt>
<pdfrwt beam="1">  1       -4 0.33015928E-01 0.12500097E+03</pdfrwt>
<totfact> 0.84878758E+03</totfact>
</mgrwt>
</event>
<event>
 5    1  0.3206665E-002  0.1250000E+03  0.7818608E-02  0.1235069E+00
          4   -1    0    0  501    0  0.00000000000E+00  0.00000000000E+00  0.11535335644E+03  0.11536034735E+03  0.12700000000E+01 0.  1.
         -4   -1    0    0    0  501 -0.00000000000E+00 -0.00000000000E+00 -0.33843390045E+02  0.33867210540E+02  0.12700000000E+01 0.  1.
         25    2    1    2    0    0  0.00000000000E+00  0.00000000000E+00  0.81509966392E+02  0.14922755789E+03  0.12499995765E+03 0.  0.
    9000005    1    3    3    0    0 -0.31393960005E+02 -0.35144522568E+02  0.89752992160E+02  0.10137710685E+03  0.10000000000E+01 0.  0.
    9000005    1    3    3    0    0  0.31393960005E+02  0.35144522568E+02 -0.82430257672E+01  0.47850451044E+02  0.10000000000E+01 0.  0.
<mgrwt>
<rscale>  0 0.12499996E+03</rscale>
<asrwt>0</asrwt>
<pdfrwt beam="1">  1        4 0.17749040E-01 0.12499996E+03</pdfrwt>
<pdfrwt beam="2">  1       -4 0.52090456E-02 0.12499996E+03</pdfrwt>
<totfact> 0.99457991E+03</totfact>
</mgrwt>
</event>
<event>
 5    1  0.3206665E-002  0.1250047E+03  0.7818608E-02  0.1235062E+00
         -4   -1    0    0    0  501 -0.00000000000E+00  0.00000000000E+00  0.59572358149E+03  0.59572493522E+03  0.12700000000E+01 0. -1.
          4   -1    0    0  501    0  0.00000000000E+00 -0.00000000000E+00 -0.64947860297E+01  0.66177900821E+01  0.12700000000E+01 0. -1.
         25    2    1    2    0    0  0.00000000000E+00  0.00000000000E+00  0.58922879546E+03  0.60234272530E+03  0.12500474121E+03 0.  0.
    9000005    1    3    3    0    0 -0.14266499047E+02  0.20388651354E+02  0.57084504445E+03  0.57138804229E+03  0.10000000000E+01 0.  0.
    9000005    1    3    3    0    0  0.14266499047E+02 -0.20388651354E+02  0.18383751006E+02  0.30954683008E+02  0.10000000000E+01 0.  0.
<mgrwt>
<rscale>  0 0.12500474E+03</rscale>
<asrwt>0</asrwt>
<pdfrwt beam="2">  1        4 0.10087638E-02 0.12500474E+03</pdfrwt>
<pdfrwt beam="1">  1       -4 0.91659351E-01 0.12500474E+03</pdfrwt>
<totfact> 0.48714998E+03</totfact>
</mgrwt>
</event>
<event>
 5    1  0.3206665E-002  0.1250013E+03  0.7818608E-02  0.1235067E+00
          4   -1    0    0  501    0  0.00000000000E+00  0.00000000000E+00  0.39084970348E+03  0.39085176680E+03  0.12700000000E+01 0. -1.
         -4   -1    0    0    0  501 -0.00000000000E+00 -0.00000000000E+00 -0.99520172946E+01  0.10032723869E+02  0.12700000000E+01 0. -1.
         25    2    1    2    0    0  0.00000000000E+00  0.00000000000E+00  0.38089768619E+03  0.40088449067E+03  0.12500131006E+03 0.  0.
    9000005    1    3    3    0    0 -0.58769831419E+02 -0.21189659950E+02  0.19545543106E+03  0.20519922101E+03  0.10000000000E+01 0.  0.
    9000005    1    3    3    0    0  0.58769831419E+02  0.21189659950E+02  0.18544225513E+03  0.19568526966E+03  0.10000000000E+01 0.  0.
<mgrwt>
<rscale>  0 0.12500131E+03</rscale>
<asrwt>0</asrwt>
<pdfrwt beam="1">  1        4 0.60137084E-01 0.12500131E+03</pdfrwt>
<pdfrwt beam="2">  1       -4 0.15374467E-02 0.12500131E+03</pdfrwt>
<totfact> 0.64464994E+03</totfact>
</mgrwt>
</event>
<event>
 5    1  0.3206665E-002  0.1250000E+03  0.7818608E-02  0.1235069E+00
          4   -1    0    0  501    0  0.00000000000E+00  0.00000000000E+00  0.53896830678E+03  0.53896980306E+03  0.12700000000E+01 0. -1.
         -4   -1    0    0    0  501 -0.00000000000E+00 -0.00000000000E+00 -0.71904882806E+01  0.73017820916E+01  0.12700000000E+01 0. -1.
         25    2    1    2    0    0  0.00000000000E+00  0.00000000000E+00  0.53177781850E+03  0.54627158515E+03  0.12499998600E+03 0.  0.
    9000005    1    3    3    0    0 -0.36090060185E+02 -0.23443600785E+02  0.67868735580E+02  0.80369522402E+02  0.10000000000E+01 0.  0.
    9000005    1    3    3    0    0  0.36090060185E+02  0.23443600785E+02  0.46390908292E+03  0.46590206275E+03  0.10000000000E+01 0.  0.
<mgrwt>
<rscale>  0 0.12499999E+03</rscale>
<asrwt>0</asrwt>
<pdfrwt beam="1">  1        4 0.82926891E-01 0.12499999E+03</pdfrwt>
<pdfrwt beam="2">  1       -4 0.11149049E-02 0.12499999E+03</pdfrwt>
<totfact> 0.52444891E+03</totfact>
</mgrwt>
</event>
<event>
 5    1  0.3206665E-002  0.1250002E+03  0.7818608E-02  0.1235069E+00
         -4   -1    0    0    0  501 -0.00000000000E+00  0.00000000000E+00  0.22630717479E+03  0.22631073828E+03  0.12700000000E+01 0.  1.
          4   -1    0    0  501    0  0.00000000000E+00 -0.00000000000E+00 -0.17233813467E+02  0.17280544743E+02  0.12700000000E+01 0.  1.
         25    2    1    2    0    0  0.00000000000E+00  0.00000000000E+00  0.20907336132E+03  0.24359128302E+03  0.12500017100E+03 0.  0.
    9000005    1    3    3    0    0  0.15798079216E+02 -0.58824585159E+02  0.13177356059E+03  0.14517293962E+03  0.10000000000E+01 0.  0.
    9000005    1    3    3    0    0 -0.15798079216E+02  0.58824585159E+02  0.77299800730E+02  0.98418343407E+02  0.10000000000E+01 0.  0.
<mgrwt>
<rscale>  0 0.12500017E+03</rscale>
<asrwt>0</asrwt>
<pdfrwt beam="2">  1        4 0.26552245E-02 0.12500017E+03</pdfrwt>
<pdfrwt beam="1">  1       -4 0.34820360E-01 0.12500017E+03</pdfrwt>
<totfact> 0.83265079E+03</totfact>
</mgrwt>
</event>
<event>
 5    1  0.3206665E-002  0.1250059E+03  0.7818608E-02  0.1235060E+00
          4   -1    0    0  501    0  0.00000000000E+00  0.00000000000E+00  0.11988244497E+03  0.11988917179E+03  0.12700000000E+01 0. -1.
         -4   -1    0    0    0  501 -0.00000000000E+00 -0.00000000000E+00 -0.32567056533E+02  0.32591809880E+02  0.12700000000E+01 0. -1.
         25    2    1    2    0    0  0.00000000000E+00  0.00000000000E+00  0.87315388435E+02  0.15248098167E+03  0.12500589071E+03 0.  0.
    9000005    1    3    3    0    0 -0.37150783140E+02 -0.24276880745E+02  0.97329448414E+02  0.10697461921E+03  0.10000000000E+01 0.  0.
    9000005    1    3    3    0    0  0.37150783140E+02  0.24276880745E+02 -0.10014059979E+02  0.45506362455E+02  0.10000000000E+01 0.  0.
<mgrwt>
<rscale>  0 0.12500589E+03</rscale>
<asrwt>0</asrwt>
<pdfrwt beam="1">  1        4 0.18445875E-01 0.12500589E+03</pdfrwt>
<pdfrwt beam="2">  1       -4 0.50127379E-02 0.12500589E+03</pdfrwt>
<totfact> 0.98798336E+03</totfact>
</mgrwt>
</event>
<event>
 5    1  0.3206665E-002  0.1250051E+03  0.7818608E-02  0.1235061E+00
          4   -1    0    0  501    0  0.00000000000E+00  0.00000000000E+00  0.11903786186E+03  0.11904463640E+03  0.12700000000E+01 0.  1.
         -4   -1    0    0    0  501 -0.00000000000E+00 -0.00000000000E+00 -0.32797866618E+02  0.32822445898E+02  0.12700000000E+01 0.  1.
         25    2    1    2    0    0  0.00000000000E+00  0.00000000000E+00  0.86239995244E+02  0.15186708230E+03  0.12500509553E+03 0.  0.
    9000005    1    3    3    0    0 -0.26881063245E+02  0.44376994485E+02  0.79622984969E+00  0.51899356284E+02  0.10000000000E+01 0.  0.
    9000005    1    3    3    0    0  0.26881063245E+02 -0.44376994485E+02  0.85443765394E+02  0.99967726019E+02  0.10000000000E+01 0.  0.
<mgrwt>
<rscale>  0 0.12500510E+03</rscale>
<asrwt>0</asrwt>
<pdfrwt beam="1">  1        4 0.18315929E-01 0.12500510E+03</pdfrwt>
<pdfrwt beam="2">  1       -4 0.50482375E-02 0.12500510E+03</pdfrwt>
<totfact> 0.98921475E+03</totfact>
</mgrwt>
</event>
<event>
 5    1  0.3206665E-002  0.1250013E+03  0.7818608E-02  0.1235067E+00
         -4   -1    0    0    0  501 -0.00000000000E+00  0.00000000000E+00  0.77471521125E+02  0.77481930057E+02  0.12700000000E+01 0. -1.
          4   -1    0    0  501    0  0.00000000000E+00 -0.00000000000E+00 -0.50401030140E+02  0.50417028266E+02  0.12700000000E+01 0. -1.
         25    2    1    2    0    0  0.00000000000E+00  0.00000000000E+00  0.27070490985E+02  0.12789895832E+03  0.12500132822E+03 0.  0.
    9000005    1    3    3    0    0  0.16785489096E+02  0.18329679954E+02  0.72202001858E+02  0.76366608434E+02  0.10000000000E+01 0.  0.
    9000005    1    3    3    0    0 -0.16785489096E+02 -0.18329679954E+02 -0.45131510873E+02  0.51532349889E+02  0.10000000000E+01 0.  0.
<mgrwt>
<rscale>  0 0.12500133E+03</rscale>
<asrwt>0</asrwt>
<pdfrwt beam="2">  1        4 0.77560360E-02 0.12500133E+03</pdfrwt>
<pdfrwt beam="1">  1       -4 0.11920727E-01 0.12500133E+03</pdfrwt>
<totfact> 0.10389359E+04</totfact>
</mgrwt>
</event>
<event>
 5    1  0.3206665E-002  0.1249995E+03  0.7818608E-02  0.1235070E+00
         -4   -1    0    0    0  501 -0.00000000000E+00  0.00000000000E+00  0.12116479701E+03  0.12117145264E+03  0.12700000000E+01 0.  1.
          4   -1    0    0  501    0  0.00000000000E+00 -0.00000000000E+00 -0.32218855962E+02  0.32243876621E+02  0.12700000000E+01 0.  1.
         25    2    1    2    0    0  0.00000000000E+00  0.00000000000E+00  0.88945941049E+02  0.15341532926E+03  0.12499953129E+03 0.  0.
    9000005    1    3    3    0    0  0.99520838078E+01  0.61691832733E+02  0.43806917626E+02  0.76321505685E+02  0.10000000000E+01 0.  0.
    9000005    1    3    3    0    0 -0.99520838078E+01 -0.61691832733E+02  0.45139023423E+02  0.77093823576E+02  0.10000000000E+01 0.  0.
<mgrwt>
<rscale>  0 0.12499953E+03</rscale>
<asrwt>0</asrwt>
<pdfrwt beam="2">  1        4 0.49591837E-02 0.12499953E+03</pdfrwt>
<pdfrwt beam="1">  1       -4 0.18643175E-01 0.12499953E+03</pdfrwt>
<totfact> 0.98628248E+03</totfact>
</mgrwt>
</event>
<event>
 4    1  0.3206665E-002  0.1249374E+03  0.7818608E-02  0.1235167E+00
         -4   -1    0    0    0  501 -0.00000000000E+00  0.00000000000E+00  0.30640931686E+02  0.30667239761E+02  0.12700000000E+01 0.  1.
          4   -1    0    0  501    0  0.00000000000E+00 -0.00000000000E+00 -0.12727291778E+03  0.12727925401E+03  0.12700000000E+01 0.  1.
    9000005    1    1    2    0    0 -0.62087206907E+02  0.54212024754E+01 -0.43083979728E+02  0.75772290496E+02  0.10000000000E+01 0.  0.
    9000005    1    1    2    0    0  0.62087206907E+02 -0.54212024754E+01 -0.53548006371E+02  0.82174203276E+02  0.10000000000E+01 0.  0.
<mgrwt>
<rscale>  0 0.12493740E+03</rscale>
<asrwt>0</asrwt>
<pdfrwt beam="2">  1        4 0.19582960E-01 0.12493740E+03</pdfrwt>
<pdfrwt beam="1">  1       -4 0.47165007E-02 0.12493740E+03</pdfrwt>
<totfact> 0.97877837E+03</totfact>
</mgrwt>
</event>
<event>
 5    1  0.3206665E-002  0.1249977E+03  0.7818608E-02  0.1235073E+00
          4   -1    0    0  501    0  0.00000000000E+00  0.00000000000E+00  0.24737777744E+02  0.24770356229E+02  0.12700000000E+01 0.  1.
         -4   -1    0    0    0  501 -0.00000000000E+00 -0.00000000000E+00 -0.15776145119E+03  0.15776656294E+03  0.12700000000E+01 0.  1.
         25    2    1    2    0    0  0.00000000000E+00  0.00000000000E+00 -0.13302367345E+03  0.18253691917E+03  0.12499771663E+03 0.  0.
    9000005    1    3    3    0    0 -0.19958352150E+02 -0.43638092656E+02 -0.12497012245E+03  0.13386990124E+03  0.10000000000E+01 0.  0.
    9000005    1    3    3    0    0  0.19958352150E+02  0.43638092656E+02 -0.80535509983E+01  0.48667017937E+02  0.10000000000E+01 0.  0.
<mgrwt>
<rscale>  0 0.12499772E+03</rscale>
<asrwt>0</asrwt>
<pdfrwt beam="1">  1        4 0.38087113E-02 0.12499772E+03</pdfrwt>
<pdfrwt beam="2">  1       -4 0.24273891E-01 0.12499772E+03</pdfrwt>
<totfact> 0.93167101E+03</totfact>
</mgrwt>
</event>
<event>
 5    1  0.3206665E-002  0.1249953E+03  0.7818608E-02  0.1235077E+00
         -4   -1    0    0    0  501 -0.00000000000E+00  0.00000000000E+00  0.41167738319E+01  0.43082161950E+01  0.12700000000E+01 0.  1.
          4   -1    0    0  501    0  0.00000000000E+00 -0.00000000000E+00 -0.92703870636E+03  0.92703957628E+03  0.12700000000E+01 0.  1.
         25    2    1    2    0    0  0.00000000000E+00  0.00000000000E+00 -0.92292193253E+03  0.93134779248E+03  0.12499526794E+03 0.  0.
    9000005    1    3    3    0    0  0.44832821111E+02  0.39981797929E+02 -0.58974662348E+03  0.59279895911E+03  0.10000000000E+01 0.  0.
    9000005    1    3    3    0    0 -0.44832821111E+02 -0.39981797929E+02 -0.33317530905E+03  0.33854883337E+03  0.10000000000E+01 0.  0.
<mgrwt>
<rscale>  0 0.12499527E+03</rscale>
<asrwt>0</asrwt>
<pdfrwt beam="2">  1        4 0.14263597E+00 0.12499527E+03</pdfrwt>
<pdfrwt beam="1">  1       -4 0.64814381E-03 0.12499527E+03</pdfrwt>
<totfact> 0.32991037E+03</totfact>
</mgrwt>
</event>
<event>
 5    1  0.3206665E-002  0.1250029E+03  0.7818608E-02  0.1235065E+00
         -4   -1    0    0    0  501 -0.00000000000E+00  0.00000000000E+00  0.10150897023E+04  0.10150904967E+04  0.12700000000E+01 0. -1.
          4   -1    0    0  501    0  0.00000000000E+00 -0.00000000000E+00 -0.37427640958E+01  0.39523642388E+01  0.12700000000E+01 0. -1.
         25    2    1    2    0    0  0.00000000000E+00  0.00000000000E+00  0.10113469382E+04  0.10190428610E+04  0.12500289253E+03 0.  0.
    9000005    1    3    3    0    0  0.29939059336E+02 -0.32748867690E+02  0.14692355054E+03  0.15348083044E+03  0.10000000000E+01 0.  0.
    9000005    1    3    3    0    0 -0.29939059336E+02  0.32748867690E+02  0.86442338763E+03  0.86556203053E+03  0.10000000000E+01 0.  0.
<mgrwt>
<rscale>  0 0.12500289E+03</rscale>
<asrwt>0</asrwt>
<pdfrwt beam="2">  1        4 0.59199380E-03 0.12500289E+03</pdfrwt>
<pdfrwt beam="1">  1       -4 0.15618390E+00 0.12500289E+03</pdfrwt>
<totfact> 0.29979472E+03</totfact>
</mgrwt>
</event>
<event>
 5    1  0.3206665E-002  0.1250017E+03  0.7818608E-02  0.1235067E+00
          4   -1    0    0  501    0  0.00000000000E+00  0.00000000000E+00  0.13358161479E+03  0.13358765179E+03  0.12700000000E+01 0.  1.
         -4   -1    0    0    0  501 -0.00000000000E+00 -0.00000000000E+00 -0.29222750546E+02  0.29250334177E+02  0.12700000000E+01 0.  1.
         25    2    1    2    0    0  0.00000000000E+00  0.00000000000E+00  0.10435886425E+03  0.16283798597E+03  0.12500174850E+03 0.  0.
    9000005    1    3    3    0    0  0.47901923503E+01  0.57037489707E+02  0.19504655295E+02  0.60478531340E+02  0.10000000000E+01 0.  0.
    9000005    1    3    3    0    0 -0.47901923503E+01 -0.57037489707E+02  0.84854208953E+02  0.10235945463E+03  0.10000000000E+01 0.  0.
<mgrwt>
<rscale>  0 0.12500175E+03</rscale>
<asrwt>0</asrwt>
<pdfrwt beam="1">  1        4 0.20553604E-01 0.12500175E+03</pdfrwt>
<pdfrwt beam="2">  1       -4 0.44983939E-02 0.12500175E+03</pdfrwt>
<totfact> 0.96794614E+03</totfact>
</mgrwt>
</event>
<event>
 5    1  0.3206665E-002  0.1249651E+03  0.7818608E-02  0.1235124E+00
          4   -1    0    0  501    0  0.00000000000E+00  0.00000000000E+00  0.45462589817E+02  0.45480325118E+02  0.12700000000E+01 0.  1.
         -4   -1    0    0    0  501 -0.00000000000E+00 -0.00000000000E+00 -0.85835077895E+02  0.85844472724E+02  0.12700000000E+01 0.  1.
         25    2    1    2    0    0  0.00000000000E+00  0.00000000000E+00 -0.40372488078E+02  0.13132479784E+03  0.12496505405E+03 0.  0.
    9000005    1    3    3    0    0 -0.41222438943E+02 -0.26170363722E+02 -0.61142584608E+02  0.78253390101E+02  0.10000000000E+01 0.  0.
    9000005    1    3    3    0    0  0.41222438943E+02  0.26170363722E+02  0.20770096530E+02  0.53071407741E+02  0.10000000000E+01 0.  0.
<mgrwt>
<rscale>  0 0.12496505E+03</rscale>
<asrwt>0</asrwt>
<pdfrwt beam="1">  1        4 0.69963315E-02 0.12496505E+03</pdfrwt>
<pdfrwt beam="2">  1       -4 0.13207484E-01 0.12496505E+03</pdfrwt>
<totfact> 0.10324269E+04</totfact>
</mgrwt>
</event>
<event>
 5    1  0.3206665E-002  0.1250038E+03  0.7818608E-02  0.1235063E+00
          4   -1    0    0  501    0  0.00000000000E+00  0.00000000000E+00  0.82324316000E+03  0.82324413960E+03  0.12700000000E+01 0. -1.
         -4   -1    0    0    0  501 -0.00000000000E+00 -0.00000000000E+00 -0.46592652408E+01  0.48292496917E+01  0.12700000000E+01 0. -1.
         25    2    1    2    0    0  0.00000000000E+00  0.00000000000E+00  0.81858389476E+03  0.82807338929E+03  0.12500378112E+03 0.  0.
    9000005    1    3    3    0    0  0.58625707421E+02 -0.20653859086E+02  0.45218752825E+03  0.45644070389E+03  0.10000000000E+01 0.  0.
    9000005    1    3    3    0    0 -0.58625707421E+02  0.20653859086E+02  0.36639636651E+03  0.37163268540E+03  0.10000000000E+01 0.  0.
<mgrwt>
<rscale>  0 0.12500378E+03</rscale>
<asrwt>0</asrwt>
<pdfrwt beam="1">  1        4 0.12666608E+00 0.12500378E+03</pdfrwt>
<pdfrwt beam="2">  1       -4 0.72996034E-03 0.12500378E+03</pdfrwt>
<totfact> 0.37038654E+03</totfact>
</mgrwt>
</event>
<event>
 5    1  0.3206665E-002  0.1250153E+03  0.7818608E-02  0.1235045E+00
          4   -1    0    0  501    0  0.00000000000E+00  0.00000000000E+00  0.49894173452E+01  0.51485129353E+01  0.12700000000E+01 0.  1.
         -4   -1    0    0    0  501 -0.00000000000E+00 -0.00000000000E+00 -0.77064963032E+03  0.77065067677E+03  0.12700000000E+01 0.  1.
         25    2    1    2    0    0  0.00000000000E+00  0.00000000000E+00 -0.76566021298E+03  0.77579918971E+03  0.12501528315E+03 0.  0.
    9000005    1    3    3    0    0  0.19229405978E+02 -0.59399110131E+02 -0.36508056264E+03  0.37038202111E+03  0.10000000000E+01 0.  0.
    9000005    1    3    3    0    0 -0.19229405978E+02  0.59399110131E+02 -0.40057965033E+03  0.40541716860E+03  0.10000000000E+01 0.  0.
<mgrwt>
<rscale>  0 0.12501528E+03</rscale>
<asrwt>0</asrwt>
<pdfrwt beam="1">  1        4 0.77992190E-03 0.12501528E+03</pdfrwt>
<pdfrwt beam="2">  1       -4 0.11857371E+00 0.12501528E+03</pdfrwt>
<totfact> 0.39355076E+03</totfact>
</mgrwt>
</event>
<event>
 5    1  0.3206665E-002  0.1250001E+03  0.7818608E-02  0.1235069E+00
          4   -1    0    0  501    0  0.00000000000E+00  0.00000000000E+00  0.34754113663E+01  0.37001870446E+01  0.12700000000E+01 0.  1.
         -4   -1    0    0    0  501 -0.00000000000E+00 -0.00000000000E+00 -0.10885366543E+04  0.10885373952E+04  0.12700000000E+01 0.  1.
         25    2    1    2    0    0  0.00000000000E+00  0.00000000000E+00 -0.10850612430E+04  0.10922375822E+04  0.12500014023E+03 0.  0.
    9000005    1    3    3    0    0  0.15346071892E+02  0.17155227964E+02 -0.34870818808E+02  0.41794470608E+02  0.10000000000E+01 0.  0.
    9000005    1    3    3    0    0 -0.15346071892E+02 -0.17155227964E+02 -0.10501904242E+04  0.10504431116E+04  0.10000000000E+01 0.  0.
<mgrwt>
<rscale>  0 0.12500014E+03</rscale>
<asrwt>0</asrwt>
<pdfrwt beam="1">  1        4 0.55202697E-03 0.12500014E+03</pdfrwt>
<pdfrwt beam="2">  1       -4 0.16748426E+00 0.12500014E+03</pdfrwt>
<totfact> 0.27711652E+03</totfact>
</mgrwt>
</event>
<event>
 5    1  0.3206665E-002  0.1249945E+03  0.7818608E-02  0.1235078E+00
          4   -1    0    0  501    0  0.00000000000E+00  0.00000000000E+00  0.58070750717E+01  0.59443267817E+01  0.12700000000E+01 0.  1.
         -4   -1    0    0    0  501 -0.00000000000E+00 -0.00000000000E+00 -0.66461773479E+03  0.66461894820E+03  0.12700000000E+01 0.  1.
         25    2    1    2    0    0  0.00000000000E+00  0.00000000000E+00 -0.65881065972E+03  0.67056327498E+03  0.12499448142E+03 0.  0.
    9000005    1    3    3    0    0 -0.84543801210E+01 -0.22239876590E+02 -0.63939355481E+03  0.63983685936E+03  0.10000000000E+01 0.  0.
    9000005    1    3    3    0    0  0.84543801210E+01  0.22239876590E+02 -0.19417104910E+02  0.30726415624E+02  0.10000000000E+01 0.  0.
<mgrwt>
<rscale>  0 0.12499448E+03</rscale>
<asrwt>0</asrwt>
<pdfrwt beam="1">  1        4 0.90404785E-03 0.12499448E+03</pdfrwt>
<pdfrwt beam="2">  1       -4 0.10225947E+00 0.12499448E+03</pdfrwt>
<totfact> 0.44692240E+03</totfact>
</mgrwt>
</event>
<event>
 5    1  0.3206665E-002  0.1249989E+03  0.7818608E-02  0.1235071E+00
         -4   -1    0    0    0  501 -0.00000000000E+00  0.00000000000E+00  0.65781215828E+03  0.65781338424E+03  0.12700000000E+01 0.  1.
          4   -1    0    0  501    0  0.00000000000E+00 -0.00000000000E+00 -0.58689927411E+01  0.60048293727E+01  0.12700000000E+01 0.  1.
         25    2    1    2    0    0  0.00000000000E+00  0.00000000000E+00  0.65194316554E+03  0.66381821361E+03  0.12499891850E+03 0.  0.
    9000005    1    3    3    0    0 -0.42944415775E+02  0.36094055559E+02  0.47219896402E+03  0.47552062554E+03  0.10000000000E+01 0.  0.
    9000005    1    3    3    0    0  0.42944415775E+02 -0.36094055559E+02  0.17974420152E+03  0.18829758807E+03  0.10000000000E+01 0.  0.
<mgrwt>
<rscale>  0 0.12499892E+03</rscale>
<asrwt>0</asrwt>
<pdfrwt beam="2">  1        4 0.91346552E-03 0.12499892E+03</pdfrwt>
<pdfrwt beam="1">  1       -4 0.10121238E+00 0.12499892E+03</pdfrwt>
<totfact> 0.45067726E+03</totfact>
</mgrwt>
</event>
<event>
 5    1  0.3206665E-002  0.1249991E+03  0.7818608E-02  0.1235071E+00
         -4   -1    0    0    0  501 -0.00000000000E+00  0.00000000000E+00  0.10059189355E+02  0.10139042878E+02  0.12700000000E+01 0.  1.
          4   -1    0    0  501    0  0.00000000000E+00 -0.00000000000E+00 -0.38670456047E+03  0.38670664591E+03  0.12700000000E+01 0.  1.
         25    2    1    2    0    0  0.00000000000E+00  0.00000000000E+00 -0.37664537111E+03  0.39684568878E+03  0.12499906050E+03 0.  0.
    9000005    1    3    3    0    0  0.35162648293E+02 -0.10297633473E+02 -0.27603753375E+02  0.45884859055E+02  0.10000000000E+01 0.  0.
    9000005    1    3    3    0    0 -0.35162648293E+02  0.10297633473E+02 -0.34904161774E+03  0.35096082973E+03  0.10000000000E+01 0.  0.
<mgrwt>
<rscale>  0 0.12499906E+03</rscale>
<asrwt>0</asrwt>
<pdfrwt beam="2">  1        4 0.59499301E-01 0.12499906E+03</pdfrwt>
<pdfrwt beam="1">  1       -4 0.15538709E-02 0.12499906E+03</pdfrwt>
<totfact> 0.64862085E+03</totfact>
</mgrwt>
</event>
<event>
 5    1  0.3206665E-002  0.1250154E+03  0.7818608E-02  0.1235045E+00
         -4   -1    0    0    0  501 -0.00000000000E+00  0.00000000000E+00  0.59419912991E+02  0.59433483491E+02  0.12700000000E+01 0.  1.
          4   -1    0    0  501    0  0.00000000000E+00 -0.00000000000E+00 -0.65728687723E+02  0.65740955954E+02  0.12700000000E+01 0.  1.
         25    2    1    2    0    0  0.00000000000E+00  0.00000000000E+00 -0.63087747319E+01  0.12517443944E+03  0.12501535766E+03 0.  0.
    9000005    1    3    3    0    0  0.16847286480E+02  0.46770203739E+02  0.34774244297E+02  0.60675621842E+02  0.10000000000E+01 0.  0.
    9000005    1    3    3    0    0 -0.16847286480E+02 -0.46770203739E+02 -0.41083019029E+02  0.64498817602E+02  0.10000000000E+01 0.  0.
<mgrwt>
<rscale>  0 0.12501536E+03</rscale>
<asrwt>0</asrwt>
<pdfrwt beam="2">  1        4 0.10114093E-01 0.12501536E+03</pdfrwt>
<pdfrwt beam="1">  1       -4 0.91435127E-02 0.12501536E+03</pdfrwt>
<totfact> 0.10445449E+04</totfact>
</mgrwt>
</event>
<event>
 5    1  0.3206665E-002  0.1250000E+03  0.7818608E-02  0.1235069E+00
         -4   -1    0    0    0  501 -0.00000000000E+00  0.00000000000E+00  0.82063139286E+03  0.82063237558E+03  0.12700000000E+01 0. -1.
          4   -1    0    0  501    0  0.00000000000E+00 -0.00000000000E+00 -0.46743410534E+01  0.48437964742E+01  0.12700000000E+01 0. -1.
         25    2    1    2    0    0  0.00000000000E+00  0.00000000000E+00  0.81595705181E+03  0.82547617205E+03  0.12500000093E+03 0.  0.
    9000005    1    3    3    0    0  0.14776422888E+02 -0.15191550278E+02  0.79620861793E+03  0.79649123607E+03  0.10000000000E+01 0.  0.
    9000005    1    3    3    0    0 -0.14776422888E+02  0.15191550278E+02  0.19748433875E+02  0.28984935979E+02  0.10000000000E+01 0.  0.
<mgrwt>
<rscale>  0 0.12500000E+03</rscale>
<asrwt>0</asrwt>
<pdfrwt beam="2">  1        4 0.73223951E-03 0.12500000E+03</pdfrwt>
<pdfrwt beam="1">  1       -4 0.12626418E+00 0.12500000E+03</pdfrwt>
<totfact> 0.37152364E+03</totfact>
</mgrwt>
</event>
<event>
 5    1  0.3206665E-002  0.1249995E+03  0.7818608E-02  0.1235070E+00
          4   -1    0    0  501    0  0.00000000000E+00  0.00000000000E+00  0.23158961953E+03  0.23159310174E+03  0.12700000000E+01 0. -1.
         -4   -1    0    0    0  501 -0.00000000000E+00 -0.00000000000E+00 -0.16839463863E+02  0.16887286436E+02  0.12700000000E+01 0. -1.
         25    2    1    2    0    0  0.00000000000E+00  0.00000000000E+00  0.21475015567E+03  0.24848038818E+03  0.12499949580E+03 0.  0.
    9000005    1    3    3    0    0  0.42282908566E+02 -0.46011236344E+02  0.10621552708E+03  0.12323804777E+03  0.10000000000E+01 0.  0.
    9000005    1    3    3    0    0 -0.42282908566E+02  0.46011236344E+02  0.10853462859E+03  0.12524234040E+03  0.10000000000E+01 0.  0.
<mgrwt>
<rscale>  0 0.12499950E+03</rscale>
<asrwt>0</asrwt>
<pdfrwt beam="1">  1        4 0.35633118E-01 0.12499950E+03</pdfrwt>
<pdfrwt beam="2">  1       -4 0.25946333E-02 0.12499950E+03</pdfrwt>
<totfact> 0.82551283E+03</totfact>
</mgrwt>
</event>
<event>
 5    1  0.3206665E-002  0.1250003E+03  0.7818608E-02  0.1235069E+00
          4   -1    0    0  501    0  0.00000000000E+00  0.00000000000E+00  0.11853984031E+03  0.11854664331E+03  0.12700000000E+01 0.  1.
         -4   -1    0    0    0  501 -0.00000000000E+00 -0.00000000000E+00 -0.32933204307E+02  0.32957682654E+02  0.12700000000E+01 0.  1.
         25    2    1    2    0    0  0.00000000000E+00  0.00000000000E+00  0.85606636004E+02  0.15150432597E+03  0.12500025864E+03 0.  0.
    9000005    1    3    3    0    0 -0.25986642849E+02  0.10318783601E+02  0.11054152761E+03  0.11402724336E+03  0.10000000000E+01 0.  0.
    9000005    1    3    3    0    0  0.25986642849E+02 -0.10318783601E+02 -0.24934891606E+02  0.37477082610E+02  0.10000000000E+01 0.  0.
<mgrwt>
<rscale>  0 0.12500026E+03</rscale>
<asrwt>0</asrwt>
<pdfrwt beam="1">  1        4 0.18239305E-01 0.12500026E+03</pdfrwt>
<pdfrwt beam="2">  1       -4 0.50690530E-02 0.12500026E+03</pdfrwt>
<totfact> 0.99004098E+03</totfact>
</mgrwt>
</event>
<event>
 5    1  0.3206665E-002  0.1249973E+03  0.7818608E-02  0.1235073E+00
          4   -1    0    0  501    0  0.00000000000E+00  0.00000000000E+00  0.52199243683E+02  0.52214690855E+02  0.12700000000E+01 0. -1.
         -4   -1    0    0    0  501 -0.00000000000E+00 -0.00000000000E+00 -0.74798324705E+02  0.74809105587E+02  0.12700000000E+01 0. -1.
         25    2    1    2    0    0  0.00000000000E+00  0.00000000000E+00 -0.22599081023E+02  0.12702379644E+03  0.12499730557E+03 0.  0.
    9000005    1    3    3    0    0  0.49597392238E+02  0.32726905155E+02  0.83564838655E+01  0.60014851999E+02  0.10000000000E+01 0.  0.
    9000005    1    3    3    0    0 -0.49597392238E+02 -0.32726905155E+02 -0.30955564888E+02  0.67008944443E+02  0.10000000000E+01 0.  0.
<mgrwt>
<rscale>  0 0.12499731E+03</rscale>
<asrwt>0</asrwt>
<pdfrwt beam="1">  1        4 0.80326704E-02 0.12499731E+03</pdfrwt>
<pdfrwt beam="2">  1       -4 0.11509452E-01 0.12499731E+03</pdfrwt>
<totfact> 0.10409262E+04</totfact>
</mgrwt>
</event>
<event>
 5    1  0.3206665E-002  0.1249700E+03  0.7818608E-02  0.1235116E+00
         -4   -1    0    0    0  501 -0.00000000000E+00  0.00000000000E+00  0.11523072189E+03  0.11523772025E+03  0.12700000000E+01 0.  1.
          4   -1    0    0  501    0  0.00000000000E+00 -0.00000000000E+00 -0.33863195321E+02  0.33887001893E+02  0.12700000000E+01 0.  1.
         25    2    1    2    0    0  0.00000000000E+00  0.00000000000E+00  0.81367526570E+02  0.14912472214E+03  0.12497002990E+03 0.  0.
    9000005    1    3    3    0    0 -0.55136521872E+02  0.11693613733E+02  0.85181671991E+01  0.57011716504E+02  0.10000000000E+01 0.  0.
    9000005    1    3    3    0    0  0.55136521872E+02 -0.11693613733E+02  0.72849359371E+02  0.92113005635E+02  0.10000000000E+01 0.  0.
<mgrwt>
<rscale>  0 0.12497003E+03</rscale>
<asrwt>0</asrwt>
<pdfrwt beam="2">  1        4 0.52120919E-02 0.12497003E+03</pdfrwt>
<pdfrwt beam="1">  1       -4 0.17730173E-01 0.12497003E+03</pdfrwt>
<totfact> 0.99545592E+03</totfact>
</mgrwt>
</event>
<event>
 5    1  0.3206665E-002  0.1249990E+03  0.7818608E-02  0.1235071E+00
         -4   -1    0    0    0  501 -0.00000000000E+00  0.00000000000E+00  0.67914356953E+02  0.67926230429E+02  0.12700000000E+01 0. -1.
          4   -1    0    0  501    0  0.00000000000E+00 -0.00000000000E+00 -0.57492424561E+02  0.57506449916E+02  0.12700000000E+01 0. -1.
         25    2    1    2    0    0  0.00000000000E+00  0.00000000000E+00  0.10421932392E+02  0.12543268034E+03  0.12499896249E+03 0.  0.
    9000005    1    3    3    0    0  0.21525957829E+02  0.43100035605E+02 -0.34729213570E+02  0.59397796296E+02  0.10000000000E+01 0.  0.
    9000005    1    3    3    0    0 -0.21525957829E+02 -0.43100035605E+02  0.45151145962E+02  0.66034884049E+02  0.10000000000E+01 0.  0.
<mgrwt>
<rscale>  0 0.12499896E+03</rscale>
<asrwt>0</asrwt>
<pdfrwt beam="2">  1        4 0.88469806E-02 0.12499896E+03</pdfrwt>
<pdfrwt beam="1">  1       -4 0.10450355E-01 0.12499896E+03</pdfrwt>
<totfact> 0.10443687E+04</totfact>
</mgrwt>
</event>
<event>
 5    1  0.3206665E-002  0.1249998E+03  0.7818608E-02  0.1235070E+00
         -4   -1    0    0    0  501 -0.00000000000E+00  0.00000000000E+00  0.33465938435E+02  0.33490027402E+02  0.12700000000E+01 0.  1.
          4   -1    0    0  501    0  0.00000000000E+00 -0.00000000000E+00 -0.11665326007E+03  0.11666017309E+03  0.12700000000E+01 0.  1.
         25    2    1    2    0    0  0.00000000000E+00  0.00000000000E+00 -0.83187321637E+02  0.15015020049E+03  0.12499980891E+03 0.  0.
    9000005    1    3    3    0    0  0.42208398823E+02 -0.42139858649E+02 -0.63999290955E+02  0.87488432726E+02  0.10000000000E+01 0.  0.
    9000005    1    3    3    0    0 -0.42208398823E+02  0.42139858649E+02 -0.19188030682E+02  0.62661767766E+02  0.10000000000E+01 0.  0.
<mgrwt>
<rscale>  0 0.12499981E+03</rscale>
<asrwt>0</asrwt>
<pdfrwt beam="2">  1        4 0.17949040E-01 0.12499981E+03</pdfrwt>
<pdfrwt beam="1">  1       -4 0.51509908E-02 0.12499981E+03</pdfrwt>
<totfact> 0.99274193E+03</totfact>
</mgrwt>
</event>
<event>
 5    1  0.3206665E-002  0.1250003E+03  0.7818608E-02  0.1235069E+00
         -4   -1    0    0    0  501 -0.00000000000E+00  0.00000000000E+00  0.22543764396E+01  0.25874916679E+01  0.12700000000E+01 0. -1.
          4   -1    0    0  501    0  0.00000000000E+00 -0.00000000000E+00 -0.16132040600E+04  0.16132045599E+04  0.12700000000E+01 0. -1.
         25    2    1    2    0    0  0.00000000000E+00  0.00000000000E+00 -0.16109496835E+04  0.16157920516E+04  0.12500028386E+03 0.  0.
    9000005    1    3    3    0    0  0.52935513021E+02  0.20723571062E+02 -0.46997981839E+03  0.47340644760E+03  0.10000000000E+01 0.  0.
    9000005    1    3    3    0    0 -0.52935513021E+02 -0.20723571062E+02 -0.11409698652E+04  0.11423856040E+04  0.10000000000E+01 0.  0.
<mgrwt>
<rscale>  0 0.12500028E+03</rscale>
<asrwt>0</asrwt>
<pdfrwt beam="2">  1        4 0.24821004E+00 0.12500028E+03</pdfrwt>
<pdfrwt beam="1">  1       -4 0.37249114E-03 0.12500028E+03</pdfrwt>
<totfact> 0.15762380E+03</totfact>
</mgrwt>
</event>
<event>
 5    1  0.3206665E-002  0.1250008E+03  0.7818608E-02  0.1235068E+00
         -4   -1    0    0    0  501 -0.00000000000E+00  0.00000000000E+00  0.56574340899E+02  0.56588593799E+02  0.12700000000E+01 0. -1.
          4   -1    0    0  501    0  0.00000000000E+00 -0.00000000000E+00 -0.69018411393E+02  0.69030094968E+02  0.12700000000E+01 0. -1.
         25    2    1    2    0    0  0.00000000000E+00  0.00000000000E+00 -0.12444070494E+02  0.12561868877E+03  0.12500080031E+03 0.  0.
    9000005    1    3    3    0    0  0.32995156712E+02 -0.45570055925E+02 -0.33559251399E+02  0.65517430642E+02  0.10000000000E+01 0.  0.
    9000005    1    3    3    0    0 -0.32995156712E+02  0.45570055925E+02  0.21115180905E+02  0.60101258124E+02  0.10000000000E+01 0.  0.
<mgrwt>
<rscale>  0 0.12500080E+03</rscale>
<asrwt>0</asrwt>
<pdfrwt beam="2">  1        4 0.10620212E-01 0.12500080E+03</pdfrwt>
<pdfrwt beam="1">  1       -4 0.87057399E-02 0.12500080E+03</pdfrwt>
<totfact> 0.10439147E+04</totfact>
</mgrwt>
</event>
<event>
 5    1  0.3206665E-002  0.1250002E+03  0.7818608E-02  0.1235069E+00
          4   -1    0    0  501    0  0.00000000000E+00  0.00000000000E+00  0.26717907881E+03  0.26718209719E+03  0.12700000000E+01 0. -1.
         -4   -1    0    0    0  501 -0.00000000000E+00 -0.00000000000E+00 -0.14589696058E+02  0.14644867055E+02  0.12700000000E+01 0. -1.
         25    2    1    2    0    0  0.00000000000E+00  0.00000000000E+00  0.25258938276E+03  0.28182696424E+03  0.12500016597E+03 0.  0.
    9000005    1    3    3    0    0 -0.35864782692E+02 -0.18271645526E+02  0.18517489119E+02  0.44317412730E+02  0.10000000000E+01 0.  0.
    9000005    1    3    3    0    0  0.35864782692E+02  0.18271645526E+02  0.23407189364E+03  0.23750955151E+03  0.10000000000E+01 0.  0.
<mgrwt>
<rscale>  0 0.12500017E+03</rscale>
<asrwt>0</asrwt>
<pdfrwt beam="1">  1        4 0.41108946E-01 0.12500017E+03</pdfrwt>
<pdfrwt beam="2">  1       -4 0.22490449E-02 0.12500017E+03</pdfrwt>
<totfact> 0.77936200E+03</totfact>
</mgrwt>
</event>
<event>
 5    1  0.3206665E-002  0.1250012E+03  0.7818608E-02  0.1235067E+00
          4   -1    0    0  501    0  0.00000000000E+00  0.00000000000E+00  0.11021014601E+04  0.11021021919E+04  0.12700000000E+01 0. -1.
         -4   -1    0    0    0  501 -0.00000000000E+00 -0.00000000000E+00 -0.34299156415E+01  0.36574883879E+01  0.12700000000E+01 0. -1.
         25    2    1    2    0    0  0.00000000000E+00  0.00000000000E+00  0.10986715445E+04  0.11057596803E+04  0.12500123124E+03 0.  0.
    9000005    1    3    3    0    0 -0.48724199723E+02  0.20910839336E+02  0.25674655410E+03  0.26216617609E+03  0.10000000000E+01 0.  0.
    9000005    1    3    3    0    0  0.48724199723E+02 -0.20910839336E+02  0.84192499038E+03  0.84359350417E+03  0.10000000000E+01 0.  0.
<mgrwt>
<rscale>  0 0.12500123E+03</rscale>
<asrwt>0</asrwt>
<pdfrwt beam="1">  1        4 0.16957155E+00 0.12500123E+03</pdfrwt>
<pdfrwt beam="2">  1       -4 0.54524148E-03 0.12500123E+03</pdfrwt>
<totfact> 0.27314714E+03</totfact>
</mgrwt>
</event>
<event>
 5    1  0.3206665E-002  0.1250015E+03  0.7818608E-02  0.1235067E+00
         -4   -1    0    0    0  501 -0.00000000000E+00  0.00000000000E+00  0.23710594401E+01  0.26897626045E+01  0.12700000000E+01 0.  1.
          4   -1    0    0  501    0  0.00000000000E+00 -0.00000000000E+00 -0.15434407804E+04  0.15434413029E+04  0.12700000000E+01 0.  1.
         25    2    1    2    0    0  0.00000000000E+00  0.00000000000E+00 -0.15410697210E+04  0.15461310655E+04  0.12500154744E+03 0.  0.
    9000005    1    3    3    0    0 -0.57091231317E+02 -0.16603192590E+02 -0.10085427556E+04  0.10102942960E+04  0.10000000000E+01 0.  0.
    9000005    1    3    3    0    0  0.57091231317E+02  0.16603192590E+02 -0.53252696535E+03  0.53583676948E+03  0.10000000000E+01 0.  0.
<mgrwt>
<rscale>  0 0.12500155E+03</rscale>
<asrwt>0</asrwt>
<pdfrwt beam="2">  1        4 0.23747623E+00 0.12500155E+03</pdfrwt>
<pdfrwt beam="1">  1       -4 0.38933543E-03 0.12500155E+03</pdfrwt>
<totfact> 0.17040737E+03</totfact>
</mgrwt>
</event>
<event>
 5    1  0.3206665E-002  0.1249999E+03  0.7818608E-02  0.1235069E+00
         -4   -1    0    0    0  501 -0.00000000000E+00  0.00000000000E+00  0.33758579768E+02  0.33782460063E+02  0.12700000000E+01 0. -1.
          4   -1    0    0  501    0  0.00000000000E+00 -0.00000000000E+00 -0.11564285890E+03  0.11564983231E+03  0.12700000000E+01 0. -1.
         25    2    1    2    0    0  0.00000000000E+00  0.00000000000E+00 -0.81884279128E+02  0.14943229237E+03  0.12499989934E+03 0.  0.
    9000005    1    3    3    0    0  0.10775821214E+02  0.56706121781E+02 -0.12312420749E+02  0.59027944865E+02  0.10000000000E+01 0.  0.
    9000005    1    3    3    0    0 -0.10775821214E+02 -0.56706121781E+02 -0.69571858379E+02  0.90404347509E+02  0.10000000000E+01 0.  0.
<mgrwt>
<rscale>  0 0.12499990E+03</rscale>
<asrwt>0</asrwt>
<pdfrwt beam="2">  1        4 0.17793582E-01 0.12499990E+03</pdfrwt>
<pdfrwt beam="1">  1       -4 0.51960011E-02 0.12499990E+03</pdfrwt>
<totfact> 0.99417208E+03</totfact>
</mgrwt>
</event>
<event>
 5    1  0.3206665E-002  0.1249988E+03  0.7818608E-02  0.1235071E+00
         -4   -1    0    0    0  501 -0.00000000000E+00  0.00000000000E+00  0.34674819732E+02  0.34698069448E+02  0.12700000000E+01 0.  1.
          4   -1    0    0  501    0  0.00000000000E+00 -0.00000000000E+00 -0.11258701416E+03  0.11259417684E+03  0.12700000000E+01 0.  1.
         25    2    1    2    0    0  0.00000000000E+00  0.00000000000E+00 -0.77912194433E+02  0.14729224629E+03  0.12499878310E+03 0.  0.
    9000005    1    3    3    0    0  0.24314507925E+02  0.25988008378E+02  0.21572561423E+02  0.41628683398E+02  0.10000000000E+01 0.  0.
    9000005    1    3    3    0    0 -0.24314507925E+02 -0.25988008378E+02 -0.99484755856E+02  0.10566356289E+03  0.10000000000E+01 0.  0.
<mgrwt>
<rscale>  0 0.12499878E+03</rscale>
<asrwt>0</asrwt>
<pdfrwt beam="2">  1        4 0.17323418E-01 0.12499878E+03</pdfrwt>
<pdfrwt beam="1">  1       -4 0.53369271E-02 0.12499878E+03</pdfrwt>
<totfact> 0.99848948E+03</totfact>
</mgrwt>
</event>
<event>
 5    1  0.3206665E-002  0.1250003E+03  0.7818608E-02  0.1235069E+00
          4   -1    0    0  501    0  0.00000000000E+00  0.00000000000E+00  0.38805521241E+02  0.38826297516E+02  0.12700000000E+01 0. -1.
         -4   -1    0    0    0  501 -0.00000000000E+00 -0.00000000000E+00 -0.10061105513E+03  0.10061907033E+03  0.12700000000E+01 0. -1.
         25    2    1    2    0    0  0.00000000000E+00  0.00000000000E+00 -0.61805533886E+02  0.13944536784E+03  0.12500034638E+03 0.  0.
    9000005    1    3    3    0    0 -0.21078923359E+02 -0.23317479014E+02  0.29350331969E+02  0.43017064337E+02  0.10000000000E+01 0.  0.
    9000005    1    3    3    0    0  0.21078923359E+02  0.23317479014E+02 -0.91155865855E+02  0.96428303507E+02  0.10000000000E+01 0.  0.
<mgrwt>
<rscale>  0 0.12500035E+03</rscale>
<asrwt>0</asrwt>
<pdfrwt beam="1">  1        4 0.59722950E-02 0.12500035E+03</pdfrwt>
<pdfrwt beam="2">  1       -4 0.15480839E-01 0.12500035E+03</pdfrwt>
<totfact> 0.10145015E+04</totfact>
</mgrwt>
</event>
<event>
 5    1  0.3206665E-002  0.1250011E+03  0.7818608E-02  0.1235068E+00
         -4   -1    0    0    0  501 -0.00000000000E+00  0.00000000000E+00  0.63239376808E+03  0.63239504331E+03  0.12700000000E+01 0. -1.
          4   -1    0    0  501    0  0.00000000000E+00 -0.00000000000E+00 -0.61104631338E+01  0.62410463634E+01  0.12700000000E+01 0. -1.
         25    2    1    2    0    0  0.00000000000E+00  0.00000000000E+00  0.62628330494E+03  0.63863608967E+03  0.12500110792E+03 0.  0.
    9000005    1    3    3    0    0 -0.25470977344E+02  0.42889684505E+01  0.60387061463E+03  0.60442359745E+03  0.10000000000E+01 0.  0.
    9000005    1    3    3    0    0  0.25470977344E+02 -0.42889684505E+01  0.22412690312E+02  0.34212492225E+02  0.10000000000E+01 0.  0.
<mgrwt>
<rscale>  0 0.12500111E+03</rscale>
<asrwt>0</asrwt>
<pdfrwt beam="2">  1        4 0.95021397E-03 0.12500111E+03</pdfrwt>
<pdfrwt beam="1">  1       -4 0.97301516E-01 0.12500111E+03</pdfrwt>
<totfact> 0.46515033E+03</totfact>
</mgrwt>
</event>
<event>
 5    1  0.3206665E-002  0.1250006E+03  0.7818608E-02  0.1235068E+00
          4   -1    0    0  501    0  0.00000000000E+00  0.00000000000E+00  0.22740837797E+02  0.22776272823E+02  0.12700000000E+01 0. -1.
         -4   -1    0    0    0  501 -0.00000000000E+00 -0.00000000000E+00 -0.17160249235E+03  0.17160719181E+03  0.12700000000E+01 0. -1.
         25    2    1    2    0    0  0.00000000000E+00  0.00000000000E+00 -0.14886165456E+03  0.19438346463E+03  0.12500055650E+03 0.  0.
    9000005    1    3    3    0    0 -0.45649044931E+02 -0.99131023715E+01 -0.98783847592E+01  0.47756542873E+02  0.10000000000E+01 0.  0.
    9000005    1    3    3    0    0  0.45649044931E+02  0.99131023715E+01 -0.13898326980E+03  0.14662692176E+03  0.10000000000E+01 0.  0.
<mgrwt>
<rscale>  0 0.12500056E+03</rscale>
<asrwt>0</asrwt>
<pdfrwt beam="1">  1        4 0.35016778E-02 0.12500056E+03</pdfrwt>
<pdfrwt beam="2">  1       -4 0.26403470E-01 0.12500056E+03</pdfrwt>
<totfact> 0.91089016E+03</totfact>
</mgrwt>
</event>
<event>
 5    1  0.3206665E-002  0.1250015E+03  0.7818608E-02  0.1235067E+00
         -4   -1    0    0    0  501 -0.00000000000E+00  0.00000000000E+00  0.80830539544E+01  0.81822161564E+01  0.12700000000E+01 0. -1.
          4   -1    0    0  501    0  0.00000000000E+00 -0.00000000000E+00 -0.48022928985E+03  0.48023096915E+03  0.12700000000E+01 0. -1.
         25    2    1    2    0    0  0.00000000000E+00  0.00000000000E+00 -0.47214623589E+03  0.48841318530E+03  0.12500148603E+03 0.  0.
    9000005    1    3    3    0    0 -0.82703209825E+01 -0.28453738165E+02 -0.21091143701E+02  0.36384746355E+02  0.10000000000E+01 0.  0.
    9000005    1    3    3    0    0  0.82703209825E+01  0.28453738165E+02 -0.45105509219E+03  0.45202843895E+03  0.10000000000E+01 0.  0.
<mgrwt>
<rscale>  0 0.12500149E+03</rscale>
<asrwt>0</asrwt>
<pdfrwt beam="2">  1        4 0.73889164E-01 0.12500149E+03</pdfrwt>
<pdfrwt beam="1">  1       -4 0.12513042E-02 0.12500149E+03</pdfrwt>
<totfact> 0.56772856E+03</totfact>
</mgrwt>
</event>
<event>
 5    1  0.3206665E-002  0.1249974E+03  0.7818608E-02  0.1235073E+00
          4   -1    0    0  501    0  0.00000000000E+00  0.00000000000E+00  0.16279224778E+03  0.16279720156E+03  0.12700000000E+01 0.  1.
         -4   -1    0    0    0  501 -0.00000000000E+00 -0.00000000000E+00 -0.23972194737E+02  0.24005812223E+02  0.12700000000E+01 0.  1.
         25    2    1    2    0    0  0.00000000000E+00  0.00000000000E+00  0.13882005304E+03  0.18680301378E+03  0.12499743531E+03 0.  0.
    9000005    1    3    3    0    0  0.43701308413E+02  0.16005107199E+02  0.70871072807E+01  0.47087099115E+02  0.10000000000E+01 0.  0.
    9000005    1    3    3    0    0 -0.43701308413E+02 -0.16005107199E+02  0.13173294576E+03  0.13971591467E+03  0.10000000000E+01 0.  0.
<mgrwt>
<rscale>  0 0.12499744E+03</rscale>
<asrwt>0</asrwt>
<pdfrwt beam="1">  1        4 0.25047927E-01 0.12499744E+03</pdfrwt>
<pdfrwt beam="2">  1       -4 0.36909971E-02 0.12499744E+03</pdfrwt>
<totfact> 0.92411885E+03</totfact>
</mgrwt>
</event>
<event>
 5    1  0.3206665E-002  0.1249893E+03  0.7818608E-02  0.1235086E+00
          4   -1    0    0  501    0  0.00000000000E+00  0.00000000000E+00  0.22054181373E+03  0.22054547038E+03  0.12700000000E+01 0. -1.
         -4   -1    0    0    0  501 -0.00000000000E+00 -0.00000000000E+00 -0.17682458859E+02  0.17728007539E+02  0.12700000000E+01 0. -1.
         25    2    1    2    0    0  0.00000000000E+00  0.00000000000E+00  0.20285935487E+03  0.23827347791E+03  0.12498932922E+03 0.  0.
    9000005    1    3    3    0    0 -0.40479616426E+02 -0.32265242042E+02  0.34709098616E+02  0.62332709847E+02  0.10000000000E+01 0.  0.
    9000005    1    3    3    0    0  0.40479616426E+02  0.32265242042E+02  0.16815025625E+03  0.17594076807E+03  0.10000000000E+01 0.  0.
<mgrwt>
<rscale>  0 0.12498933E+03</rscale>
<asrwt>0</asrwt>
<pdfrwt beam="1">  1        4 0.33933296E-01 0.12498933E+03</pdfrwt>
<pdfrwt beam="2">  1       -4 0.27241632E-02 0.12498933E+03</pdfrwt>
<totfact> 0.84075176E+03</totfact>
</mgrwt>
</event>
<event>
 5    1  0.3206665E-002  0.1250003E+03  0.7818608E-02  0.1235069E+00
          4   -1    0    0  501    0  0.00000000000E+00  0.00000000000E+00  0.58563597497E+02  0.58577366378E+02  0.12700000000E+01 0.  1.
         -4   -1    0    0    0  501 -0.00000000000E+00 -0.00000000000E+00 -0.66673659363E+02  0.66685753748E+02  0.12700000000E+01 0.  1.
         25    2    1    2    0    0  0.00000000000E+00  0.00000000000E+00 -0.81100618661E+01  0.12526312013E+03  0.12500030464E+03 0.  0.
    9000005    1    3    3    0    0  0.24672399628E+02  0.23113776210E+02  0.48613012996E+02  0.59221609120E+02  0.10000000000E+01 0.  0.
    9000005    1    3    3    0    0 -0.24672399628E+02 -0.23113776210E+02 -0.56723074863E+02  0.66041511006E+02  0.10000000000E+01 0.  0.
<mgrwt>
<rscale>  0 0.12500030E+03</rscale>
<asrwt>0</asrwt>
<pdfrwt beam="1">  1        4 0.90117737E-02 0.12500030E+03</pdfrwt>
<pdfrwt beam="2">  1       -4 0.10259476E-01 0.12500030E+03</pdfrwt>
<totfact> 0.10447078E+04</totfact>
</mgrwt>
</event>
<event>
 5    1  0.3206665E-002  0.1250215E+03  0.7818608E-02  0.1235036E+00
          4   -1    0    0  501    0  0.00000000000E+00  0.00000000000E+00  0.17129615840E+02  0.17176630601E+02  0.12700000000E+01 0.  1.
         -4   -1    0    0    0  501 -0.00000000000E+00 -0.00000000000E+00 -0.22775777189E+03  0.22776131268E+03  0.12700000000E+01 0.  1.
         25    2    1    2    0    0  0.00000000000E+00  0.00000000000E+00 -0.21062815605E+03  0.24493794329E+03  0.12502150191E+03 0.  0.
    9000005    1    3    3    0    0 -0.24461406709E+02 -0.55967161938E+02 -0.79329417154E+02  0.10012412326E+03  0.10000000000E+01 0.  0.
    9000005    1    3    3    0    0  0.24461406709E+02  0.55967161938E+02 -0.13129873890E+03  0.14481382002E+03  0.10000000000E+01 0.  0.
<mgrwt>
<rscale>  0 0.12502150E+03</rscale>
<asrwt>0</asrwt>
<pdfrwt beam="1">  1        4 0.26392146E-02 0.12502150E+03</pdfrwt>
<pdfrwt beam="2">  1       -4 0.35043544E-01 0.12502150E+03</pdfrwt>
<totfact> 0.83027611E+03</totfact>
</mgrwt>
</event>
<event>
 5    1  0.3206665E-002  0.1250005E+03  0.7818608E-02  0.1235068E+00
          4   -1    0    0  501    0  0.00000000000E+00  0.00000000000E+00  0.10414207214E+02  0.10491358915E+02  0.12700000000E+01 0.  1.
         -4   -1    0    0    0  501 -0.00000000000E+00 -0.00000000000E+00 -0.37362918246E+03  0.37363134088E+03  0.12700000000E+01 0.  1.
         25    2    1    2    0    0  0.00000000000E+00  0.00000000000E+00 -0.36321497525E+03  0.38412269980E+03  0.12500052101E+03 0.  0.
    9000005    1    3    3    0    0 -0.12031300145E+02  0.40122952883E+02 -0.39097287506E+02  0.57307952516E+02  0.10000000000E+01 0.  0.
    9000005    1    3    3    0    0  0.12031300145E+02 -0.40122952883E+02 -0.32411768774E+03  0.32681474728E+03  0.10000000000E+01 0.  0.
<mgrwt>
<rscale>  0 0.12500052E+03</rscale>
<asrwt>0</asrwt>
<pdfrwt beam="1">  1        4 0.16082868E-02 0.12500052E+03</pdfrwt>
<pdfrwt beam="2">  1       -4 0.57487503E-01 0.12500052E+03</pdfrwt>
<totfact> 0.66126099E+03</totfact>
</mgrwt>
</event>
<event>
 5    1  0.3206665E-002  0.1250022E+03  0.7818608E-02  0.1235066E+00
         -4   -1    0    0    0  501 -0.00000000000E+00  0.00000000000E+00  0.72345352511E+03  0.72345463983E+03  0.12700000000E+01 0.  1.
          4   -1    0    0  501    0  0.00000000000E+00 -0.00000000000E+00 -0.53238292751E+01  0.54732127814E+01  0.12700000000E+01 0.  1.
         25    2    1    2    0    0  0.00000000000E+00  0.00000000000E+00  0.71812969583E+03  0.72892785261E+03  0.12500221708E+03 0.  0.
    9000005    1    3    3    0    0  0.22010911367E+02 -0.58487712675E+02  0.35725981500E+03  0.36268563270E+03  0.10000000000E+01 0.  0.
    9000005    1    3    3    0    0 -0.22010911367E+02  0.58487712675E+02  0.36086988084E+03  0.36624221991E+03  0.10000000000E+01 0.  0.
<mgrwt>
<rscale>  0 0.12500222E+03</rscale>
<asrwt>0</asrwt>
<pdfrwt beam="2">  1        4 0.83062737E-03 0.12500222E+03</pdfrwt>
<pdfrwt beam="1">  1       -4 0.11131213E+00 0.12500222E+03</pdfrwt>
<totfact> 0.41600840E+03</totfact>
</mgrwt>
</event>
<event>
 5    1  0.3206665E-002  0.1250014E+03  0.7818608E-02  0.1235067E+00
          4   -1    0    0  501    0  0.00000000000E+00  0.00000000000E+00  0.21173757755E+02  0.21211810801E+02  0.12700000000E+01 0. -1.
         -4   -1    0    0    0  501 -0.00000000000E+00 -0.00000000000E+00 -0.18428355672E+03  0.18428793280E+03  0.12700000000E+01 0. -1.
         25    2    1    2    0    0  0.00000000000E+00  0.00000000000E+00 -0.16310979896E+03  0.20549974360E+03  0.12500135240E+03 0.  0.
    9000005    1    3    3    0    0  0.27270767292E+02 -0.42226976959E+02 -0.14259334347E+03  0.15119746669E+03  0.10000000000E+01 0.  0.
    9000005    1    3    3    0    0 -0.27270767292E+02  0.42226976959E+02 -0.20516455492E+02  0.54302276911E+02  0.10000000000E+01 0.  0.
<mgrwt>
<rscale>  0 0.12500135E+03</rscale>
<asrwt>0</asrwt>
<pdfrwt beam="1">  1        4 0.32607651E-02 0.12500135E+03</pdfrwt>
<pdfrwt beam="2">  1       -4 0.28354579E-01 0.12500135E+03</pdfrwt>
<totfact> 0.89213448E+03</totfact>
</mgrwt>
</event>
<event>
 5    1  0.3206665E-002  0.1250033E+03  0.7818608E-02  0.1235064E+00
          4   -1    0    0  501    0  0.00000000000E+00  0.00000000000E+00  0.22837116672E+02  0.22872402538E+02  0.12700000000E+01 0. -1.
         -4   -1    0    0    0  501 -0.00000000000E+00 -0.00000000000E+00 -0.17088770275E+03  0.17089242186E+03  0.12700000000E+01 0. -1.
         25    2    1    2    0    0  0.00000000000E+00  0.00000000000E+00 -0.14805058608E+03  0.19376482440E+03  0.12500332451E+03 0.  0.
    9000005    1    3    3    0    0 -0.88894120323E+01 -0.32380984271E+02 -0.15572345852E+03  0.15930582325E+03  0.10000000000E+01 0.  0.
    9000005    1    3    3    0    0  0.88894120323E+01  0.32380984271E+02  0.76728724439E+01  0.34459001149E+02  0.10000000000E+01 0.  0.
<mgrwt>
<rscale>  0 0.12500332E+03</rscale>
<asrwt>0</asrwt>
<pdfrwt beam="1">  1        4 0.35164800E-02 0.12500332E+03</pdfrwt>
<pdfrwt beam="2">  1       -4 0.26293492E-01 0.12500332E+03</pdfrwt>
<totfact> 0.91189555E+03</totfact>
</mgrwt>
</event>
<event>
 5    1  0.3206665E-002  0.1249717E+03  0.7818608E-02  0.1235113E+00
          4   -1    0    0  501    0  0.00000000000E+00  0.00000000000E+00  0.22077316980E+02  0.22113815253E+02  0.12700000000E+01 0.  1.
         -4   -1    0    0    0  501 -0.00000000000E+00 -0.00000000000E+00 -0.17667008272E+03  0.17667464739E+03  0.12700000000E+01 0.  1.
         25    2    1    2    0    0  0.00000000000E+00  0.00000000000E+00 -0.15459276574E+03  0.19878846264E+03  0.12497171544E+03 0.  0.
    9000005    1    3    3    0    0  0.90627957839E+01 -0.56978790612E+02 -0.39161289389E+02  0.69737532461E+02  0.10000000000E+01 0.  0.
    9000005    1    3    3    0    0 -0.90627957839E+01  0.56978790612E+02 -0.11543147635E+03  0.12905093018E+03  0.10000000000E+01 0.  0.
<mgrwt>
<rscale>  0 0.12497172E+03</rscale>
<asrwt>0</asrwt>
<pdfrwt beam="1">  1        4 0.33996691E-02 0.12497172E+03</pdfrwt>
<pdfrwt beam="2">  1       -4 0.27183170E-01 0.12497172E+03</pdfrwt>
<totfact> 0.90397450E+03</totfact>
</mgrwt>
</event>
<event>
 5    1  0.3206665E-002  0.1250030E+03  0.7818608E-02  0.1235065E+00
         -4   -1    0    0    0  501 -0.00000000000E+00  0.00000000000E+00  0.29495349521E+03  0.29495622936E+03  0.12700000000E+01 0. -1.
          4   -1    0    0  501    0  0.00000000000E+00 -0.00000000000E+00 -0.13210997481E+02  0.13271900935E+02  0.12700000000E+01 0. -1.
         25    2    1    2    0    0  0.00000000000E+00  0.00000000000E+00  0.28174249773E+03  0.30822813029E+03  0.12500298107E+03 0.  0.
    9000005    1    3    3    0    0 -0.23056518439E+02 -0.19514485095E+02  0.59729177764E+01  0.30807367914E+02  0.10000000000E+01 0.  0.
    9000005    1    3    3    0    0  0.23056518439E+02  0.19514485095E+02  0.27576957996E+03  0.27742076238E+03  0.10000000000E+01 0.  0.
<mgrwt>
<rscale>  0 0.12500298E+03</rscale>
<asrwt>0</asrwt>
<pdfrwt beam="2">  1        4 0.20373566E-02 0.12500298E+03</pdfrwt>
<pdfrwt beam="1">  1       -4 0.45382351E-01 0.12500298E+03</pdfrwt>
<totfact> 0.74573244E+03</totfact>
</mgrwt>
</event>
<event>
 5    1  0.3206665E-002  0.1249998E+03  0.7818608E-02  0.1235070E+00
         -4   -1    0    0    0  501 -0.00000000000E+00  0.00000000000E+00  0.18187195108E+02  0.18231482822E+02  0.12700000000E+01 0. -1.
          4   -1    0    0  501    0  0.00000000000E+00 -0.00000000000E+00 -0.21447216627E+03  0.21447592639E+03  0.12700000000E+01 0. -1.
         25    2    1    2    0    0  0.00000000000E+00  0.00000000000E+00 -0.19628497116E+03  0.23270740922E+03  0.12499979361E+03 0.  0.
    9000005    1    3    3    0    0 -0.21067069223E+02 -0.45186824224E+02 -0.28000379279E+02  0.57189961784E+02  0.10000000000E+01 0.  0.
    9000005    1    3    3    0    0  0.21067069223E+02  0.45186824224E+02 -0.16828459188E+03  0.17551744743E+03  0.10000000000E+01 0.  0.
<mgrwt>
<rscale>  0 0.12499979E+03</rscale>
<asrwt>0</asrwt>
<pdfrwt beam="2">  1        4 0.32999412E-01 0.12499979E+03</pdfrwt>
<pdfrwt beam="1">  1       -4 0.28017262E-02 0.12499979E+03</pdfrwt>
<totfact> 0.84895990E+03</totfact>
</mgrwt>
</event>
<event>
 5    1  0.3206665E-002  0.1249983E+03  0.7818608E-02  0.1235072E+00
         -4   -1    0    0    0  501 -0.00000000000E+00  0.00000000000E+00  0.10004224157E+04  0.10004232218E+04  0.12700000000E+01 0. -1.
          4   -1    0    0  501    0  0.00000000000E+00 -0.00000000000E+00 -0.38003959821E+01  0.40069826080E+01  0.12700000000E+01 0. -1.
         25    2    1    2    0    0  0.00000000000E+00  0.00000000000E+00  0.99662201971E+03  0.10044302044E+04  0.12499834142E+03 0.  0.
    9000005    1    3    3    0    0  0.52731738404E+02  0.32597297349E+02  0.43507665166E+03  0.43947231181E+03  0.10000000000E+01 0.  0.
    9000005    1    3    3    0    0 -0.52731738404E+02 -0.32597297349E+02  0.56154536805E+03  0.56495789259E+03  0.10000000000E+01 0.  0.
<mgrwt>
<rscale>  0 0.12499834E+03</rscale>
<asrwt>0</asrwt>
<pdfrwt beam="2">  1        4 0.60062956E-03 0.12499834E+03</pdfrwt>
<pdfrwt beam="1">  1       -4 0.15392710E+00 0.12499834E+03</pdfrwt>
<totfact> 0.30459751E+03</totfact>
</mgrwt>
</event>
<event>
 5    1  0.3206665E-002  0.1250029E+03  0.7818608E-02  0.1235065E+00
         -4   -1    0    0    0  501 -0.00000000000E+00  0.00000000000E+00  0.73423040292E+03  0.73423150128E+03  0.12700000000E+01 0.  1.
          4   -1    0    0  501    0  0.00000000000E+00 -0.00000000000E+00 -0.52435382907E+01  0.53951453925E+01  0.12700000000E+01 0.  1.
         25    2    1    2    0    0  0.00000000000E+00  0.00000000000E+00  0.72898686463E+03  0.73962664668E+03  0.12500291063E+03 0.  0.
    9000005    1    3    3    0    0 -0.39112383461E+02  0.45905888426E+02  0.26757530509E+03  0.27428939649E+03  0.10000000000E+01 0.  0.
    9000005    1    3    3    0    0  0.39112383461E+02 -0.45905888426E+02  0.46141155954E+03  0.46533725019E+03  0.10000000000E+01 0.  0.
<mgrwt>
<rscale>  0 0.12500291E+03</rscale>
<asrwt>0</asrwt>
<pdfrwt beam="2">  1        4 0.81844456E-03 0.12500291E+03</pdfrwt>
<pdfrwt beam="1">  1       -4 0.11297030E+00 0.12500291E+03</pdfrwt>
<totfact> 0.41072653E+03</totfact>
</mgrwt>
</event>
<event>
 5    1  0.3206665E-002  0.1249997E+03  0.7818608E-02  0.1235070E+00
         -4   -1    0    0    0  501 -0.00000000000E+00  0.00000000000E+00  0.24199825387E+03  0.24200158631E+03  0.12700000000E+01 0.  1.
          4   -1    0    0  501    0  0.00000000000E+00 -0.00000000000E+00 -0.16113129184E+02  0.16163100943E+02  0.12700000000E+01 0.  1.
         25    2    1    2    0    0  0.00000000000E+00  0.00000000000E+00  0.22588512468E+03  0.25816468725E+03  0.12499966476E+03 0.  0.
    9000005    1    3    3    0    0 -0.25486569668E+02 -0.55341216358E+02  0.14163595681E+03  0.15418806609E+03  0.10000000000E+01 0.  0.
    9000005    1    3    3    0    0  0.25486569668E+02  0.55341216358E+02  0.84249167869E+02  0.10397662116E+03  0.10000000000E+01 0.  0.
<mgrwt>
<rscale>  0 0.12499966E+03</rscale>
<asrwt>0</asrwt>
<pdfrwt beam="2">  1        4 0.24830434E-02 0.12499966E+03</pdfrwt>
<pdfrwt beam="1">  1       -4 0.37234599E-01 0.12499966E+03</pdfrwt>
<totfact> 0.81164919E+03</totfact>
</mgrwt>
</event>
<event>
 5    1  0.3206665E-002  0.1249993E+03  0.7818608E-02  0.1235070E+00
          4   -1    0    0  501    0  0.00000000000E+00  0.00000000000E+00  0.25214429963E+03  0.25214749797E+03  0.12700000000E+01 0.  1.
         -4   -1    0    0    0  501 -0.00000000000E+00 -0.00000000000E+00 -0.15462625515E+02  0.15514692644E+02  0.12700000000E+01 0.  1.
         25    2    1    2    0    0  0.00000000000E+00  0.00000000000E+00  0.23668167411E+03  0.26766219062E+03  0.12499933370E+03 0.  0.
    9000005    1    3    3    0    0  0.41324438362E+02  0.36364407982E+02  0.54995396122E+02  0.77817562082E+02  0.10000000000E+01 0.  0.
    9000005    1    3    3    0    0 -0.41324438362E+02 -0.36364407982E+02  0.18168627799E+03  0.18984462853E+03  0.10000000000E+01 0.  0.
<mgrwt>
<rscale>  0 0.12499933E+03</rscale>
<asrwt>0</asrwt>
<pdfrwt beam="1">  1        4 0.38795679E-01 0.12499933E+03</pdfrwt>
<pdfrwt beam="2">  1       -4 0.23831168E-02 0.12499933E+03</pdfrwt>
<totfact> 0.79843847E+03</totfact>
</mgrwt>
</event>
<event>
 5    1  0.3206665E-002  0.1249937E+03  0.7818608E-02  0.1235079E+00
          4   -1    0    0  501    0  0.00000000000E+00  0.00000000000E+00  0.52933533455E+03  0.52933685806E+03  0.12700000000E+01 0.  1.
         -4   -1    0    0    0  501 -0.00000000000E+00 -0.00000000000E+00 -0.73226052786E+01  0.74319208867E+01  0.12700000000E+01 0.  1.
         25    2    1    2    0    0  0.00000000000E+00  0.00000000000E+00  0.52201272927E+03  0.53676877894E+03  0.12499372997E+03 0.  0.
    9000005    1    3    3    0    0 -0.52675206679E+02 -0.22006814887E+02  0.37014417026E+03  0.37452194072E+03  0.10000000000E+01 0.  0.
    9000005    1    3    3    0    0  0.52675206679E+02  0.22006814887E+02  0.15186855900E+03  0.16224683822E+03  0.10000000000E+01 0.  0.
<mgrwt>
<rscale>  0 0.12499373E+03</rscale>
<asrwt>0</asrwt>
<pdfrwt beam="1">  1        4 0.81444726E-01 0.12499373E+03</pdfrwt>
<pdfrwt beam="2">  1       -4 0.11350808E-02 0.12499373E+03</pdfrwt>
<totfact> 0.53127626E+03</totfact>
</mgrwt>
</event>
<event>
 5    1  0.3206665E-002  0.1249989E+03  0.7818608E-02  0.1235071E+00
         -4   -1    0    0    0  501 -0.00000000000E+00  0.00000000000E+00  0.46764921690E+01  0.48458723680E+01  0.12700000000E+01 0.  1.
          4   -1    0    0  501    0  0.00000000000E+00 -0.00000000000E+00 -0.82025319702E+03  0.82025418019E+03  0.12700000000E+01 0.  1.
         25    2    1    2    0    0  0.00000000000E+00  0.00000000000E+00 -0.81557670485E+03  0.82510005256E+03  0.12499894095E+03 0.  0.
    9000005    1    3    3    0    0  0.14891039076E+02 -0.97287580264E+01 -0.80322273434E+03  0.80342028400E+03  0.10000000000E+01 0.  0.
    9000005    1    3    3    0    0 -0.14891039076E+02  0.97287580264E+01 -0.12353970509E+02  0.21679768560E+02  0.10000000000E+01 0.  0.
<mgrwt>
<rscale>  0 0.12499894E+03</rscale>
<asrwt>0</asrwt>
<pdfrwt beam="2">  1        4 0.12620579E+00 0.12499894E+03</pdfrwt>
<pdfrwt beam="1">  1       -4 0.73256586E-03 0.12499894E+03</pdfrwt>
<totfact> 0.37169343E+03</totfact>
</mgrwt>
</event>
<event>
 5    1  0.3206665E-002  0.1250040E+03  0.7818608E-02  0.1235063E+00
          4   -1    0    0  501    0  0.00000000000E+00  0.00000000000E+00  0.90967516308E+02  0.90976381128E+02  0.12700000000E+01 0. -1.
         -4   -1    0    0    0  501 -0.00000000000E+00 -0.00000000000E+00 -0.42923562961E+02  0.42942346900E+02  0.12700000000E+01 0. -1.
         25    2    1    2    0    0  0.00000000000E+00  0.00000000000E+00  0.48043953347E+02  0.13391872803E+03  0.12500401699E+03 0.  0.
    9000005    1    3    3    0    0  0.17712491800E+02  0.26533410614E+02 -0.33548112705E+02  0.46305832361E+02  0.10000000000E+01 0.  0.
    9000005    1    3    3    0    0 -0.17712491800E+02 -0.26533410614E+02  0.81592066051E+02  0.87612895667E+02  0.10000000000E+01 0.  0.
<mgrwt>
<rscale>  0 0.12500402E+03</rscale>
<asrwt>0</asrwt>
<pdfrwt beam="1">  1        4 0.13997129E-01 0.12500402E+03</pdfrwt>
<pdfrwt beam="2">  1       -4 0.66057521E-02 0.12500402E+03</pdfrwt>
<totfact> 0.10259982E+04</totfact>
</mgrwt>
</event>
<event>
 5    1  0.3206665E-002  0.1250012E+03  0.7818608E-02  0.1235067E+00
          4   -1    0    0  501    0  0.00000000000E+00  0.00000000000E+00  0.95565040341E+01  0.96405222553E+01  0.12700000000E+01 0. -1.
         -4   -1    0    0    0  501 -0.00000000000E+00 -0.00000000000E+00 -0.40688683548E+03  0.40688881748E+03  0.12700000000E+01 0. -1.
         25    2    1    2    0    0  0.00000000000E+00  0.00000000000E+00 -0.39733033145E+03  0.41652933973E+03  0.12500119427E+03 0.  0.
    9000005    1    3    3    0    0  0.27613101490E+02  0.34258220341E+02 -0.34653448385E+03  0.34931827541E+03  0.10000000000E+01 0.  0.
    9000005    1    3    3    0    0 -0.27613101490E+02 -0.34258220341E+02 -0.50795847593E+02  0.67211064324E+02  0.10000000000E+01 0.  0.
<mgrwt>
<rscale>  0 0.12500119E+03</rscale>
<asrwt>0</asrwt>
<pdfrwt beam="1">  1        4 0.14768471E-02 0.12500119E+03</pdfrwt>
<pdfrwt beam="2">  1       -4 0.62604577E-01 0.12500119E+03</pdfrwt>
<totfact> 0.62974646E+03</totfact>
</mgrwt>
</event>
<event>
 5    1  0.3206665E-002  0.1250013E+03  0.7818608E-02  0.1235067E+00
          4   -1    0    0  501    0  0.00000000000E+00  0.00000000000E+00  0.29916096072E+02  0.29943040997E+02  0.12700000000E+01 0.  1.
         -4   -1    0    0    0  501 -0.00000000000E+00 -0.00000000000E+00 -0.13048736169E+03  0.13049354184E+03  0.12700000000E+01 0.  1.
         25    2    1    2    0    0  0.00000000000E+00  0.00000000000E+00 -0.10057126562E+03  0.16043658283E+03  0.12500127057E+03 0.  0.
    9000005    1    3    3    0    0  0.82136547143E+01  0.23789275808E+02  0.23130474305E+02  0.34196675406E+02  0.10000000000E+01 0.  0.
    9000005    1    3    3    0    0 -0.82136547143E+01 -0.23789275808E+02 -0.12370173992E+03  0.12623990743E+03  0.10000000000E+01 0.  0.
<mgrwt>
<rscale>  0 0.12500127E+03</rscale>
<asrwt>0</asrwt>
<pdfrwt beam="1">  1        4 0.46050245E-02 0.12500127E+03</pdfrwt>
<pdfrwt beam="2">  1       -4 0.20077526E-01 0.12500127E+03</pdfrwt>
<totfact> 0.97255904E+03</totfact>
</mgrwt>
</event>
<event>
 5    1  0.3206665E-002  0.1250011E+03  0.7818608E-02  0.1235067E+00
         -4   -1    0    0    0  501 -0.00000000000E+00  0.00000000000E+00  0.55610443490E+02  0.55624943372E+02  0.12700000000E+01 0.  1.
          4   -1    0    0  501    0  0.00000000000E+00 -0.00000000000E+00 -0.70214991157E+02  0.70226475656E+02  0.12700000000E+01 0.  1.
         25    2    1    2    0    0  0.00000000000E+00  0.00000000000E+00 -0.14604547666E+02  0.12585141903E+03  0.12500114743E+03 0.  0.
    9000005    1    3    3    0    0 -0.26116997948E+02 -0.52924678227E+02 -0.27989609071E+02  0.65326391016E+02  0.10000000000E+01 0.  0.
    9000005    1    3    3    0    0  0.26116997948E+02  0.52924678227E+02  0.13385061405E+02  0.60525028013E+02  0.10000000000E+01 0.  0.
<mgrwt>
<rscale>  0 0.12500115E+03</rscale>
<asrwt>0</asrwt>
<pdfrwt beam="2">  1        4 0.10804305E-01 0.12500115E+03</pdfrwt>
<pdfrwt beam="1">  1       -4 0.85574516E-02 0.12500115E+03</pdfrwt>
<totfact> 0.10433946E+04</totfact>
</mgrwt>
</event>
<event>
 5    1  0.3206665E-002  0.1249926E+03  0.7818608E-02  0.1235081E+00
          4   -1    0    0  501    0  0.00000000000E+00  0.00000000000E+00  0.92716161089E+02  0.92724858733E+02  0.12700000000E+01 0.  1.
         -4   -1    0    0    0  501 -0.00000000000E+00 -0.00000000000E+00 -0.42106039346E+02  0.42125187826E+02  0.12700000000E+01 0.  1.
         25    2    1    2    0    0  0.00000000000E+00  0.00000000000E+00  0.50610121743E+02  0.13485004656E+03  0.12499260232E+03 0.  0.
    9000005    1    3    3    0    0 -0.75326913916E+01  0.58393403745E+02  0.47890629661E+02  0.75901537862E+02  0.10000000000E+01 0.  0.
    9000005    1    3    3    0    0  0.75326913916E+01 -0.58393403745E+02  0.27194920827E+01  0.58948508698E+02  0.10000000000E+01 0.  0.
<mgrwt>
<rscale>  0 0.12499260E+03</rscale>
<asrwt>0</asrwt>
<pdfrwt beam="1">  1        4 0.14266167E-01 0.12499260E+03</pdfrwt>
<pdfrwt beam="2">  1       -4 0.64799943E-02 0.12499260E+03</pdfrwt>
<totfact> 0.10242941E+04</totfact>
</mgrwt>
</event>
<event>
 5    1  0.3206665E-002  0.1250027E+03  0.7818608E-02  0.1235065E+00
         -4   -1    0    0    0  501 -0.00000000000E+00  0.00000000000E+00  0.37532633014E+02  0.37554113502E+02  0.12700000000E+01 0. -1.
          4   -1    0    0  501    0  0.00000000000E+00 -0.00000000000E+00 -0.10402549601E+03  0.10403324814E+03  0.12700000000E+01 0. -1.
         25    2    1    2    0    0  0.00000000000E+00  0.00000000000E+00 -0.66492862994E+02  0.14158736165E+03  0.12500272057E+03 0.  0.
    9000005    1    3    3    0    0 -0.22976397529E+02  0.54270277877E+02 -0.56795220199E+02  0.81852763800E+02  0.10000000000E+01 0.  0.
    9000005    1    3    3    0    0  0.22976397529E+02 -0.54270277877E+02 -0.96976427950E+01  0.59734597848E+02  0.10000000000E+01 0.  0.
<mgrwt>
<rscale>  0 0.12500272E+03</rscale>
<asrwt>0</asrwt>
<pdfrwt beam="2">  1        4 0.16006171E-01 0.12500272E+03</pdfrwt>
<pdfrwt beam="1">  1       -4 0.57764999E-02 0.12500272E+03</pdfrwt>
<totfact> 0.10100173E+04</totfact>
</mgrwt>
</event>
<event>
 5    1  0.3206665E-002  0.1249992E+03  0.7818608E-02  0.1235070E+00
          4   -1    0    0  501    0  0.00000000000E+00  0.00000000000E+00  0.26835508550E+03  0.26835809065E+03  0.12700000000E+01 0.  1.
         -4   -1    0    0    0  501 -0.00000000000E+00 -0.00000000000E+00 -0.14525298790E+02  0.14580713458E+02  0.12700000000E+01 0.  1.
         25    2    1    2    0    0  0.00000000000E+00  0.00000000000E+00  0.25382978671E+03  0.28293880410E+03  0.12499922498E+03 0.  0.
    9000005    1    3    3    0    0 -0.40573058669E+02  0.12816703289E+02  0.23316650242E+02  0.48529446230E+02  0.10000000000E+01 0.  0.
    9000005    1    3    3    0    0  0.40573058669E+02 -0.12816703289E+02  0.23051313647E+03  0.23440935787E+03  0.10000000000E+01 0.  0.
<mgrwt>
<rscale>  0 0.12499922E+03</rscale>
<asrwt>0</asrwt>
<pdfrwt beam="1">  1        4 0.41289886E-01 0.12499922E+03</pdfrwt>
<pdfrwt beam="2">  1       -4 0.22391555E-02 0.12499922E+03</pdfrwt>
<totfact> 0.77791391E+03</totfact>
</mgrwt>
</event>
<event>
 5    1  0.3206665E-002  0.1250088E+03  0.7818608E-02  0.1235056E+00
         -4   -1    0    0    0  501 -0.00000000000E+00  0.00000000000E+00  0.47288745086E+02  0.47305795753E+02  0.12700000000E+01 0. -1.
          4   -1    0    0  501    0  0.00000000000E+00 -0.00000000000E+00 -0.82579049971E+02  0.82588815188E+02  0.12700000000E+01 0. -1.
         25    2    1    2    0    0  0.00000000000E+00  0.00000000000E+00 -0.35290304884E+02  0.12989461094E+03  0.12500881702E+03 0.  0.
    9000005    1    3    3    0    0  0.53206289934E+02  0.32776013310E+02 -0.18466453307E+02  0.65170439885E+02  0.10000000000E+01 0.  0.
    9000005    1    3    3    0    0 -0.53206289934E+02 -0.32776013310E+02 -0.16823851578E+02  0.64724171056E+02  0.10000000000E+01 0.  0.
<mgrwt>
<rscale>  0 0.12500882E+03</rscale>
<asrwt>0</asrwt>
<pdfrwt beam="2">  1        4 0.12706532E-01 0.12500882E+03</pdfrwt>
<pdfrwt beam="1">  1       -4 0.72772543E-02 0.12500882E+03</pdfrwt>
<totfact> 0.10344704E+04</totfact>
</mgrwt>
</event>
<event>
 5    1  0.3206665E-002  0.1250002E+03  0.7818608E-02  0.1235069E+00
          4   -1    0    0  501    0  0.00000000000E+00  0.00000000000E+00  0.10036717202E+02  0.10116748104E+02  0.12700000000E+01 0.  1.
         -4   -1    0    0    0  501 -0.00000000000E+00 -0.00000000000E+00 -0.38757052627E+03  0.38757260705E+03  0.12700000000E+01 0.  1.
         25    2    1    2    0    0  0.00000000000E+00  0.00000000000E+00 -0.37753380907E+03  0.39768935515E+03  0.12500018484E+03 0.  0.
    9000005    1    3    3    0    0  0.31790052284E+02 -0.18377290217E+02 -0.27890380567E+02  0.46121638610E+02  0.10000000000E+01 0.  0.
    9000005    1    3    3    0    0 -0.31790052284E+02  0.18377290217E+02 -0.34964342850E+03  0.35156771654E+03  0.10000000000E+01 0.  0.
<mgrwt>
<rscale>  0 0.12500018E+03</rscale>
<asrwt>0</asrwt>
<pdfrwt beam="1">  1        4 0.15504269E-02 0.12500018E+03</pdfrwt>
<pdfrwt beam="2">  1       -4 0.59632540E-01 0.12500018E+03</pdfrwt>
<totfact> 0.64777883E+03</totfact>
</mgrwt>
</event>
<event>
 5    1  0.3206665E-002  0.1250000E+03  0.7818608E-02  0.1235069E+00
          4   -1    0    0  501    0  0.00000000000E+00  0.00000000000E+00  0.47399946331E+03  0.47400116468E+03  0.12700000000E+01 0.  1.
         -4   -1    0    0    0  501 -0.00000000000E+00 -0.00000000000E+00 -0.81903843677E+01  0.82882625495E+01  0.12700000000E+01 0.  1.
         25    2    1    2    0    0  0.00000000000E+00  0.00000000000E+00  0.46580907894E+03  0.48228942723E+03  0.12499997437E+03 0.  0.
    9000005    1    3    3    0    0 -0.37350106388E+01  0.17967711714E+02  0.46338716854E+03  0.46375150343E+03  0.10000000000E+01 0.  0.
    9000005    1    3    3    0    0  0.37350106388E+01 -0.17967711714E+02  0.24219104021E+01  0.18537923797E+02  0.10000000000E+01 0.  0.
<mgrwt>
<rscale>  0 0.12499997E+03</rscale>
<asrwt>0</asrwt>
<pdfrwt beam="1">  1        4 0.72930667E-01 0.12499997E+03</pdfrwt>
<pdfrwt beam="2">  1       -4 0.12677189E-02 0.12499997E+03</pdfrwt>
<totfact> 0.57265182E+03</totfact>
</mgrwt>
</event>
<event>
 5    1  0.3206665E-002  0.1250014E+03  0.7818608E-02  0.1235067E+00
          4   -1    0    0  501    0  0.00000000000E+00  0.00000000000E+00  0.40581924629E+01  0.42522730470E+01  0.12700000000E+01 0.  1.
         -4   -1    0    0    0  501 -0.00000000000E+00 -0.00000000000E+00 -0.93990671037E+03  0.93990756838E+03  0.12700000000E+01 0.  1.
         25    2    1    2    0    0  0.00000000000E+00  0.00000000000E+00 -0.93584851791E+03  0.94415984143E+03  0.12500143077E+03 0.  0.
    9000005    1    3    3    0    0 -0.54424998797E+02 -0.26338584950E+02 -0.58724028340E+03  0.59034562080E+03  0.10000000000E+01 0.  0.
    9000005    1    3    3    0    0  0.54424998797E+02  0.26338584950E+02 -0.34860823451E+03  0.35381422062E+03  0.10000000000E+01 0.  0.
<mgrwt>
<rscale>  0 0.12500143E+03</rscale>
<asrwt>0</asrwt>
<pdfrwt beam="1">  1        4 0.63933333E-03 0.12500143E+03</pdfrwt>
<pdfrwt beam="2">  1       -4 0.14461586E+00 0.12500143E+03</pdfrwt>
<totfact> 0.32523255E+03</totfact>
</mgrwt>
</event>
<event>
 5    1  0.3206665E-002  0.1249991E+03  0.7818608E-02  0.1235071E+00
          4   -1    0    0  501    0  0.00000000000E+00  0.00000000000E+00  0.67470598309E+02  0.67482549864E+02  0.12700000000E+01 0. -1.
         -4   -1    0    0    0  501 -0.00000000000E+00 -0.00000000000E+00 -0.57870726284E+02  0.57884659977E+02  0.12700000000E+01 0. -1.
         25    2    1    2    0    0  0.00000000000E+00  0.00000000000E+00  0.95998720247E+01  0.12536720984E+03  0.12499911904E+03 0.  0.
    9000005    1    3    3    0    0  0.35579278539E+02 -0.90447111651E+01 -0.45920746712E+02  0.58799718027E+02  0.10000000000E+01 0.  0.
    9000005    1    3    3    0    0 -0.35579278539E+02  0.90447111651E+01  0.55520618737E+02  0.66567491814E+02  0.10000000000E+01 0.  0.
<mgrwt>
<rscale>  0 0.12499912E+03</rscale>
<asrwt>0</asrwt>
<pdfrwt beam="1">  1        4 0.10382083E-01 0.12499912E+03</pdfrwt>
<pdfrwt beam="2">  1       -4 0.89051798E-02 0.12499912E+03</pdfrwt>
<totfact> 0.10445100E+04</totfact>
</mgrwt>
</event>
<event>
 5    1  0.3206665E-002  0.1250007E+03  0.7818608E-02  0.1235068E+00
          4   -1    0    0  501    0  0.00000000000E+00  0.00000000000E+00  0.27058888313E+02  0.27088675433E+02  0.12700000000E+01 0. -1.
         -4   -1    0    0    0  501 -0.00000000000E+00 -0.00000000000E+00 -0.14425060910E+03  0.14425619961E+03  0.12700000000E+01 0. -1.
         25    2    1    2    0    0  0.00000000000E+00  0.00000000000E+00 -0.11719172078E+03  0.17134487504E+03  0.12500066713E+03 0.  0.
    9000005    1    3    3    0    0  0.50476604556E+02  0.23755633259E+02 -0.97198378732E+02  0.11207471859E+03  0.10000000000E+01 0.  0.
    9000005    1    3    3    0    0 -0.50476604556E+02 -0.23755633259E+02 -0.19993342053E+02  0.59270156449E+02  0.10000000000E+01 0.  0.
<mgrwt>
<rscale>  0 0.12500067E+03</rscale>
<asrwt>0</asrwt>
<pdfrwt beam="1">  1        4 0.41656273E-02 0.12500067E+03</pdfrwt>
<pdfrwt beam="2">  1       -4 0.22195122E-01 0.12500067E+03</pdfrwt>
<totfact> 0.95197138E+03</totfact>
</mgrwt>
</event>
<event>
 5    1  0.3206665E-002  0.1249962E+03  0.7818608E-02  0.1235075E+00
         -4   -1    0    0    0  501 -0.00000000000E+00  0.00000000000E+00  0.51790328281E+01  0.53324741944E+01  0.12700000000E+01 0. -1.
          4   -1    0    0  501    0  0.00000000000E+00 -0.00000000000E+00 -0.74303362374E+03  0.74303470908E+03  0.12700000000E+01 0. -1.
         25    2    1    2    0    0  0.00000000000E+00  0.00000000000E+00 -0.73785459091E+03  0.74836718328E+03  0.12499617467E+03 0.  0.
    9000005    1    3    3    0    0  0.25477188382E+02 -0.38057382007E+02 -0.62347214257E+03  0.62515275255E+03  0.10000000000E+01 0.  0.
    9000005    1    3    3    0    0 -0.25477188382E+02  0.38057382007E+02 -0.11438244834E+03  0.12321443073E+03  0.10000000000E+01 0.  0.
<mgrwt>
<rscale>  0 0.12499617E+03</rscale>
<asrwt>0</asrwt>
<pdfrwt beam="2">  1        4 0.11432467E+00 0.12499617E+03</pdfrwt>
<pdfrwt beam="1">  1       -4 0.80866154E-03 0.12499617E+03</pdfrwt>
<totfact> 0.40655779E+03</totfact>
</mgrwt>
</event>
<event>
 5    1  0.3206665E-002  0.1250038E+03  0.7818608E-02  0.1235063E+00
          4   -1    0    0  501    0  0.00000000000E+00  0.00000000000E+00  0.12483120235E+03  0.12483766250E+03  0.12700000000E+01 0.  1.
         -4   -1    0    0    0  501 -0.00000000000E+00 -0.00000000000E+00 -0.31274025582E+02  0.31299801534E+02  0.12700000000E+01 0.  1.
         25    2    1    2    0    0  0.00000000000E+00  0.00000000000E+00  0.93557176766E+02  0.15613746404E+03  0.12500384935E+03 0.  0.
    9000005    1    3    3    0    0  0.83116151002E+01 -0.55072089602E+02  0.82183968970E+02  0.99283547249E+02  0.10000000000E+01 0.  0.
    9000005    1    3    3    0    0 -0.83116151002E+01  0.55072089602E+02  0.11373207797E+02  0.56853916790E+02  0.10000000000E+01 0.  0.
<mgrwt>
<rscale>  0 0.12500385E+03</rscale>
<asrwt>0</asrwt>
<pdfrwt beam="1">  1        4 0.19207280E-01 0.12500385E+03</pdfrwt>
<pdfrwt beam="2">  1       -4 0.48138683E-02 0.12500385E+03</pdfrwt>
<totfact> 0.98084172E+03</totfact>
</mgrwt>
</event>
<event>
 5    1  0.3206665E-002  0.1249564E+03  0.7818608E-02  0.1235137E+00
         -4   -1    0    0    0  501 -0.00000000000E+00  0.00000000000E+00  0.17075046048E+03  0.17075518339E+03  0.12700000000E+01 0. -1.
          4   -1    0    0  501    0  0.00000000000E+00 -0.00000000000E+00 -0.22838305761E+02  0.22873589794E+02  0.12700000000E+01 0. -1.
         25    2    1    2    0    0  0.00000000000E+00  0.00000000000E+00  0.14791215472E+03  0.19362877318E+03  0.12495637755E+03 0.  0.
    9000005    1    3    3    0    0  0.11031906103E+02  0.61372296673E+02  0.68104046916E+02  0.92344046682E+02  0.10000000000E+01 0.  0.
    9000005    1    3    3    0    0 -0.11031906103E+02 -0.61372296673E+02  0.79808107801E+02  0.10128472650E+03  0.10000000000E+01 0.  0.
<mgrwt>
<rscale>  0 0.12495638E+03</rscale>
<asrwt>0</asrwt>
<pdfrwt beam="2">  1        4 0.35166630E-02 0.12495638E+03</pdfrwt>
<pdfrwt beam="1">  1       -4 0.26272379E-01 0.12495638E+03</pdfrwt>
<totfact> 0.91308885E+03</totfact>
</mgrwt>
</event>
<event>
 5    1  0.3206665E-002  0.1250049E+03  0.7818608E-02  0.1235062E+00
         -4   -1    0    0    0  501 -0.00000000000E+00  0.00000000000E+00  0.16383038846E+02  0.16432189806E+02  0.12700000000E+01 0.  1.
          4   -1    0    0  501    0  0.00000000000E+00 -0.00000000000E+00 -0.23804307776E+03  0.23804646557E+03  0.12700000000E+01 0.  1.
         25    2    1    2    0    0  0.00000000000E+00  0.00000000000E+00 -0.22166003892E+03  0.25447865538E+03  0.12500485267E+03 0.  0.
    9000005    1    3    3    0    0 -0.52560100770E+02  0.30679091877E+02 -0.81912158952E+02  0.10205083368E+03  0.10000000000E+01 0.  0.
    9000005    1    3    3    0    0  0.52560100770E+02 -0.30679091877E+02 -0.13974787996E+03  0.15242782169E+03  0.10000000000E+01 0.  0.
<mgrwt>
<rscale>  0 0.12500485E+03</rscale>
<asrwt>0</asrwt>
<pdfrwt beam="2">  1        4 0.36626051E-01 0.12500485E+03</pdfrwt>
<pdfrwt beam="1">  1       -4 0.25245091E-02 0.12500485E+03</pdfrwt>
<totfact> 0.81678376E+03</totfact>
</mgrwt>
</event>
<event>
 5    1  0.3206665E-002  0.1250007E+03  0.7818608E-02  0.1235068E+00
         -4   -1    0    0    0  501 -0.00000000000E+00  0.00000000000E+00  0.37511577169E+02  0.37533069708E+02  0.12700000000E+01 0. -1.
          4   -1    0    0  501    0  0.00000000000E+00 -0.00000000000E+00 -0.10408043856E+03  0.10408818660E+03  0.12700000000E+01 0. -1.
         25    2    1    2    0    0  0.00000000000E+00  0.00000000000E+00 -0.66568861390E+02  0.14162125631E+03  0.12500066773E+03 0.  0.
    9000005    1    3    3    0    0  0.25797493353E+02 -0.51908743533E+02 -0.59740132650E+02  0.83246091605E+02  0.10000000000E+01 0.  0.
    9000005    1    3    3    0    0 -0.25797493353E+02  0.51908743533E+02 -0.68287287400E+01  0.58375164708E+02  0.10000000000E+01 0.  0.
<mgrwt>
<rscale>  0 0.12500067E+03</rscale>
<asrwt>0</asrwt>
<pdfrwt beam="2">  1        4 0.16014624E-01 0.12500067E+03</pdfrwt>
<pdfrwt beam="1">  1       -4 0.57732612E-02 0.12500067E+03</pdfrwt>
<totfact> 0.10099942E+04</totfact>
</mgrwt>
</event>
<event>
 5    1  0.3206665E-002  0.1249949E+03  0.7818608E-02  0.1235077E+00
         -4   -1    0    0    0  501 -0.00000000000E+00  0.00000000000E+00  0.10496408539E+04  0.10496416222E+04  0.12700000000E+01 0.  1.
          4   -1    0    0  501    0  0.00000000000E+00 -0.00000000000E+00 -0.36120582596E+01  0.38288202976E+01  0.12700000000E+01 0.  1.
         25    2    1    2    0    0  0.00000000000E+00  0.00000000000E+00  0.10460287956E+04  0.10534704425E+04  0.12499492761E+03 0.  0.
    9000005    1    3    3    0    0  0.35621950579E+01 -0.45663284271E+02  0.16473482634E+03  0.17098651343E+03  0.10000000000E+01 0.  0.
    9000005    1    3    3    0    0 -0.35621950579E+01  0.45663284271E+02  0.88129396929E+03  0.88248392908E+03  0.10000000000E+01 0.  0.
<mgrwt>
<rscale>  0 0.12499493E+03</rscale>
<asrwt>0</asrwt>
<pdfrwt beam="2">  1        4 0.57243482E-03 0.12499493E+03</pdfrwt>
<pdfrwt beam="1">  1       -4 0.16149982E+00 0.12499493E+03</pdfrwt>
<totfact> 0.28889874E+03</totfact>
</mgrwt>
</event>
<event>
 5    1  0.3206665E-002  0.1249852E+03  0.7818608E-02  0.1235092E+00
          4   -1    0    0  501    0  0.00000000000E+00  0.00000000000E+00  0.10401432159E+03  0.10402207456E+03  0.12700000000E+01 0. -1.
         -4   -1    0    0    0  501 -0.00000000000E+00 -0.00000000000E+00 -0.37526113396E+02  0.37547597615E+02  0.12700000000E+01 0. -1.
         25    2    1    2    0    0  0.00000000000E+00  0.00000000000E+00  0.66488208197E+02  0.14156967218E+03  0.12498516012E+03 0.  0.
    9000005    1    3    3    0    0 -0.27564842512E+02  0.48949423843E+02  0.64232199977E+02  0.85338397871E+02  0.10000000000E+01 0.  0.
    9000005    1    3    3    0    0  0.27564842512E+02 -0.48949423843E+02  0.22560082200E+01  0.56231274308E+02  0.10000000000E+01 0.  0.
<mgrwt>
<rscale>  0 0.12498516E+03</rscale>
<asrwt>0</asrwt>
<pdfrwt beam="1">  1        4 0.16004452E-01 0.12498516E+03</pdfrwt>
<pdfrwt beam="2">  1       -4 0.57754973E-02 0.12498516E+03</pdfrwt>
<totfact> 0.10104534E+04</totfact>
</mgrwt>
</event>
<event>
 5    1  0.3206665E-002  0.1249981E+03  0.7818608E-02  0.1235072E+00
         -4   -1    0    0    0  501 -0.00000000000E+00  0.00000000000E+00  0.75625306722E+02  0.75635969728E+02  0.12700000000E+01 0.  1.
          4   -1    0    0  501    0  0.00000000000E+00 -0.00000000000E+00 -0.51628993638E+02  0.51644611375E+02  0.12700000000E+01 0.  1.
         25    2    1    2    0    0  0.00000000000E+00  0.00000000000E+00  0.23996313084E+02  0.12728058110E+03  0.12499809312E+03 0.  0.
    9000005    1    3    3    0    0 -0.35506893481E+02 -0.41128352446E+02 -0.19433771532E+02  0.57714403190E+02  0.10000000000E+01 0.  0.
    9000005    1    3    3    0    0  0.35506893481E+02  0.41128352446E+02  0.43430084616E+02  0.69566177913E+02  0.10000000000E+01 0.  0.
<mgrwt>
<rscale>  0 0.12499809E+03</rscale>
<asrwt>0</asrwt>
<pdfrwt beam="2">  1        4 0.79449437E-02 0.12499809E+03</pdfrwt>
<pdfrwt beam="1">  1       -4 0.11636684E-01 0.12499809E+03</pdfrwt>
<totfact> 0.10403503E+04</totfact>
</mgrwt>
</event>
<event>
 5    1  0.3206665E-002  0.1250002E+03  0.7818608E-02  0.1235069E+00
          4   -1    0    0  501    0  0.00000000000E+00  0.00000000000E+00  0.28254269074E+02  0.28282797261E+02  0.12700000000E+01 0. -1.
         -4   -1    0    0    0  501 -0.00000000000E+00 -0.00000000000E+00 -0.13815266802E+03  0.13815850528E+03  0.12700000000E+01 0. -1.
         25    2    1    2    0    0  0.00000000000E+00  0.00000000000E+00 -0.10989839894E+03  0.16644130254E+03  0.12500019640E+03 0.  0.
    9000005    1    3    3    0    0 -0.37448017817E+02 -0.23594674449E+02  0.37921740334E+01  0.44434708108E+02  0.10000000000E+01 0.  0.
    9000005    1    3    3    0    0  0.37448017817E+02  0.23594674449E+02 -0.11369057298E+03  0.12200659443E+03  0.10000000000E+01 0.  0.
<mgrwt>
<rscale>  0 0.12500020E+03</rscale>
<asrwt>0</asrwt>
<pdfrwt beam="1">  1        4 0.43494542E-02 0.12500020E+03</pdfrwt>
<pdfrwt beam="2">  1       -4 0.21256900E-01 0.12500020E+03</pdfrwt>
<totfact> 0.96114703E+03</totfact>
</mgrwt>
</event>
<event>
 5    1  0.3206665E-002  0.1249976E+03  0.7818608E-02  0.1235073E+00
         -4   -1    0    0    0  501 -0.00000000000E+00  0.00000000000E+00  0.19976961074E+03  0.19977364760E+03  0.12700000000E+01 0.  1.
          4   -1    0    0  501    0  0.00000000000E+00 -0.00000000000E+00 -0.19528159925E+02  0.19569413125E+02  0.12700000000E+01 0.  1.
         25    2    1    2    0    0  0.00000000000E+00  0.00000000000E+00  0.18024145082E+03  0.21934306073E+03  0.12499759076E+03 0.  0.
    9000005    1    3    3    0    0  0.77359628025E+00 -0.16562501838E+02 -0.15606444294E+02  0.22792016625E+02  0.10000000000E+01 0.  0.
    9000005    1    3    3    0    0 -0.77359628025E+00  0.16562501838E+02  0.19584789511E+03  0.19655104410E+03  0.10000000000E+01 0.  0.
<mgrwt>
<rscale>  0 0.12499759E+03</rscale>
<asrwt>0</asrwt>
<pdfrwt beam="2">  1        4 0.30078162E-02 0.12499759E+03</pdfrwt>
<pdfrwt beam="1">  1       -4 0.30737270E-01 0.12499759E+03</pdfrwt>
<totfact> 0.86977089E+03</totfact>
</mgrwt>
</event>
<event>
 5    1  0.3206665E-002  0.1249974E+03  0.7818608E-02  0.1235073E+00
          4   -1    0    0  501    0  0.00000000000E+00  0.00000000000E+00  0.12871838787E+03  0.12872465294E+03  0.12700000000E+01 0.  1.
         -4   -1    0    0    0  501 -0.00000000000E+00 -0.00000000000E+00 -0.30325713176E+02  0.30352294470E+02  0.12700000000E+01 0.  1.
         25    2    1    2    0    0  0.00000000000E+00  0.00000000000E+00  0.98392674694E+02  0.15907694741E+03  0.12499742703E+03 0.  0.
    9000005    1    3    3    0    0 -0.11008117697E+01  0.34789215472E+02  0.11524617441E+03  0.12039178550E+03  0.10000000000E+01 0.  0.
    9000005    1    3    3    0    0  0.11008117697E+01 -0.34789215472E+02 -0.16853499716E+02  0.38685161915E+02  0.10000000000E+01 0.  0.
<mgrwt>
<rscale>  0 0.12499743E+03</rscale>
<asrwt>0</asrwt>
<pdfrwt beam="1">  1        4 0.19805356E-01 0.12499743E+03</pdfrwt>
<pdfrwt beam="2">  1       -4 0.46680209E-02 0.12499743E+03</pdfrwt>
<totfact> 0.97526678E+03</totfact>
</mgrwt>
</event>
<event>
 5    1  0.3206665E-002  0.1250063E+03  0.7818608E-02  0.1235059E+00
         -4   -1    0    0    0  501 -0.00000000000E+00  0.00000000000E+00  0.10364555663E+03  0.10365333718E+03  0.12700000000E+01 0.  1.
          4   -1    0    0  501    0  0.00000000000E+00 -0.00000000000E+00 -0.37672447512E+02  0.37693848325E+02  0.12700000000E+01 0.  1.
         25    2    1    2    0    0  0.00000000000E+00  0.00000000000E+00  0.65973109118E+02  0.14134718551E+03  0.12500630274E+03 0.  0.
    9000005    1    3    3    0    0 -0.41350880225E+02 -0.40618142638E+02  0.59405642353E+02  0.83004573067E+02  0.10000000000E+01 0.  0.
    9000005    1    3    3    0    0  0.41350880225E+02  0.40618142638E+02  0.65674667654E+01  0.58342612441E+02  0.10000000000E+01 0.  0.
<mgrwt>
<rscale>  0 0.12500630E+03</rscale>
<asrwt>0</asrwt>
<pdfrwt beam="2">  1        4 0.57980059E-02 0.12500630E+03</pdfrwt>
<pdfrwt beam="1">  1       -4 0.15947715E-01 0.12500630E+03</pdfrwt>
<totfact> 0.10104306E+04</totfact>
</mgrwt>
</event>
<event>
 5    1  0.3206665E-002  0.1249994E+03  0.7818608E-02  0.1235070E+00
         -4   -1    0    0    0  501 -0.00000000000E+00  0.00000000000E+00  0.26445168727E+02  0.26475646337E+02  0.12700000000E+01 0. -1.
          4   -1    0    0  501    0  0.00000000000E+00 -0.00000000000E+00 -0.14759164962E+03  0.14759711358E+03  0.12700000000E+01 0. -1.
         25    2    1    2    0    0  0.00000000000E+00  0.00000000000E+00 -0.12114648089E+03  0.17407275992E+03  0.12499942365E+03 0.  0.
    9000005    1    3    3    0    0 -0.26163009210E+02 -0.21454662252E+02  0.12592786775E+02  0.36116254817E+02  0.10000000000E+01 0.  0.
    9000005    1    3    3    0    0  0.26163009210E+02  0.21454662252E+02 -0.13373926767E+03  0.13795650510E+03  0.10000000000E+01 0.  0.
<mgrwt>
<rscale>  0 0.12499942E+03</rscale>
<asrwt>0</asrwt>
<pdfrwt beam="2">  1        4 0.22709172E-01 0.12499942E+03</pdfrwt>
<pdfrwt beam="1">  1       -4 0.40712523E-02 0.12499942E+03</pdfrwt>
<totfact> 0.94696162E+03</totfact>
</mgrwt>
</event>
<event>
 5    1  0.3206665E-002  0.1250011E+03  0.7818608E-02  0.1235067E+00
          4   -1    0    0  501    0  0.00000000000E+00  0.00000000000E+00  0.61857566589E+02  0.61870602424E+02  0.12700000000E+01 0. -1.
         -4   -1    0    0    0  501 -0.00000000000E+00 -0.00000000000E+00 -0.63124183393E+02  0.63136957711E+02  0.12700000000E+01 0. -1.
         25    2    1    2    0    0  0.00000000000E+00  0.00000000000E+00 -0.12666168043E+01  0.12500756014E+03  0.12500114309E+03 0.  0.
    9000005    1    3    3    0    0  0.15659952810E+02  0.48614260957E+01 -0.60939421098E+02  0.63114820997E+02  0.10000000000E+01 0.  0.
    9000005    1    3    3    0    0 -0.15659952810E+02 -0.48614260957E+01  0.59672804294E+02  0.61892739138E+02  0.10000000000E+01 0.  0.
<mgrwt>
<rscale>  0 0.12500114E+03</rscale>
<asrwt>0</asrwt>
<pdfrwt beam="1">  1        4 0.95185341E-02 0.12500114E+03</pdfrwt>
<pdfrwt beam="2">  1       -4 0.97133982E-02 0.12500114E+03</pdfrwt>
<totfact> 0.10452428E+04</totfact>
</mgrwt>
</event>
<event>
 5    1  0.3206665E-002  0.1249986E+03  0.7818608E-02  0.1235071E+00
         -4   -1    0    0    0  501 -0.00000000000E+00  0.00000000000E+00  0.63335812887E+02  0.63348544530E+02  0.12700000000E+01 0. -1.
          4   -1    0    0  501    0  0.00000000000E+00 -0.00000000000E+00 -0.61648408417E+02  0.61661488470E+02  0.12700000000E+01 0. -1.
         25    2    1    2    0    0  0.00000000000E+00  0.00000000000E+00  0.16874044703E+01  0.12501003300E+03  0.12499864406E+03 0.  0.
    9000005    1    3    3    0    0  0.10585278108E+02  0.18698244873E+02 -0.57842925708E+02  0.61712855455E+02  0.10000000000E+01 0.  0.
    9000005    1    3    3    0    0 -0.10585278108E+02 -0.18698244873E+02  0.59530330179E+02  0.63297177545E+02  0.10000000000E+01 0.  0.
<mgrwt>
<rscale>  0 0.12499864E+03</rscale>
<asrwt>0</asrwt>
<pdfrwt beam="2">  1        4 0.94863560E-02 0.12499864E+03</pdfrwt>
<pdfrwt beam="1">  1       -4 0.97459567E-02 0.12499864E+03</pdfrwt>
<totfact> 0.10452965E+04</totfact>
</mgrwt>
</event>
<event>
 5    1  0.3206665E-002  0.1250142E+03  0.7818608E-02  0.1235047E+00
         -4   -1    0    0    0  501 -0.00000000000E+00  0.00000000000E+00  0.11137591594E+03  0.11138315650E+03  0.12700000000E+01 0.  1.
          4   -1    0    0  501    0  0.00000000000E+00 -0.00000000000E+00 -0.35060781056E+02  0.35083775000E+02  0.12700000000E+01 0.  1.
         25    2    1    2    0    0  0.00000000000E+00  0.00000000000E+00  0.76315134882E+02  0.14646693150E+03  0.12501424803E+03 0.  0.
    9000005    1    3    3    0    0 -0.74123219207E+01  0.61694027000E+02  0.30294288223E+02  0.69136382482E+02  0.10000000000E+01 0.  0.
    9000005    1    3    3    0    0  0.74123219207E+01 -0.61694027000E+02  0.46020846659E+02  0.77330549015E+02  0.10000000000E+01 0.  0.
<mgrwt>
<rscale>  0 0.12501425E+03</rscale>
<asrwt>0</asrwt>
<pdfrwt beam="2">  1        4 0.53962921E-02 0.12501425E+03</pdfrwt>
<pdfrwt beam="1">  1       -4 0.17137082E-01 0.12501425E+03</pdfrwt>
<totfact> 0.99980608E+03</totfact>
</mgrwt>
</event>
<event>
 5    1  0.3206665E-002  0.1250172E+03  0.7818608E-02  0.1235042E+00
          4   -1    0    0  501    0  0.00000000000E+00  0.00000000000E+00  0.31087000180E+03  0.31087259596E+03  0.12700000000E+01 0. -1.
         -4   -1    0    0    0  501 -0.00000000000E+00 -0.00000000000E+00 -0.12534258919E+02  0.12598434294E+02  0.12700000000E+01 0. -1.
         25    2    1    2    0    0  0.00000000000E+00  0.00000000000E+00  0.29833574288E+03  0.32347103026E+03  0.12501716656E+03 0.  0.
    9000005    1    3    3    0    0 -0.45024660073E+01 -0.89492625036E+01 -0.10456034853E+02  0.14515170146E+02  0.10000000000E+01 0.  0.
    9000005    1    3    3    0    0  0.45024660073E+01  0.89492625036E+01  0.30879177774E+03  0.30895586011E+03  0.10000000000E+01 0.  0.
<mgrwt>
<rscale>  0 0.12501717E+03</rscale>
<asrwt>0</asrwt>
<pdfrwt beam="1">  1        4 0.47831288E-01 0.12501717E+03</pdfrwt>
<pdfrwt beam="2">  1       -4 0.19334838E-02 0.12501717E+03</pdfrwt>
<totfact> 0.72717516E+03</totfact>
</mgrwt>
</event>
<event>
 5    1  0.3206665E-002  0.1249994E+03  0.7818608E-02  0.1235070E+00
          4   -1    0    0  501    0  0.00000000000E+00  0.00000000000E+00  0.35239138255E+02  0.35262015895E+02  0.12700000000E+01 0. -1.
         -4   -1    0    0    0  501 -0.00000000000E+00 -0.00000000000E+00 -0.11078624295E+03  0.11079352205E+03  0.12700000000E+01 0. -1.
         25    2    1    2    0    0  0.00000000000E+00  0.00000000000E+00 -0.75547104697E+02  0.14605553794E+03  0.12499942054E+03 0.  0.
    9000005    1    3    3    0    0 -0.41808230176E+02  0.96313318557E+01  0.15317325241E+02  0.45566556994E+02  0.10000000000E+01 0.  0.
    9000005    1    3    3    0    0  0.41808230176E+02 -0.96313318557E+01 -0.90864429939E+02  0.10048898095E+03  0.10000000000E+01 0.  0.
<mgrwt>
<rscale>  0 0.12499942E+03</rscale>
<asrwt>0</asrwt>
<pdfrwt beam="1">  1        4 0.54237257E-02 0.12499942E+03</pdfrwt>
<pdfrwt beam="2">  1       -4 0.17046357E-01 0.12499942E+03</pdfrwt>
<totfact> 0.10009717E+04</totfact>
</mgrwt>
</event>
<event>
 5    1  0.3206665E-002  0.1250013E+03  0.7818608E-02  0.1235067E+00
          4   -1    0    0  501    0  0.00000000000E+00  0.00000000000E+00  0.50300712032E+03  0.50300872358E+03  0.12700000000E+01 0. -1.
         -4   -1    0    0    0  501 -0.00000000000E+00 -0.00000000000E+00 -0.77124042827E+01  0.78162701987E+01  0.12700000000E+01 0. -1.
         25    2    1    2    0    0  0.00000000000E+00  0.00000000000E+00  0.49529471604E+03  0.51082499377E+03  0.12500127411E+03 0.  0.
    9000005    1    3    3    0    0  0.28810888711E+01  0.54422699318E+02  0.37261847728E+03  0.37658420105E+03  0.10000000000E+01 0.  0.
    9000005    1    3    3    0    0 -0.28810888711E+01 -0.54422699318E+02  0.12267623876E+03  0.13424079272E+03  0.10000000000E+01 0.  0.
<mgrwt>
<rscale>  0 0.12500127E+03</rscale>
<asrwt>0</asrwt>
<pdfrwt beam="1">  1        4 0.77393819E-01 0.12500127E+03</pdfrwt>
<pdfrwt beam="2">  1       -4 0.11946368E-02 0.12500127E+03</pdfrwt>
<totfact> 0.55032614E+03</totfact>
</mgrwt>
</event>
<event>
 5    1  0.3206665E-002  0.1249994E+03  0.7818608E-02  0.1235070E+00
         -4   -1    0    0    0  501 -0.00000000000E+00  0.00000000000E+00  0.14922199825E+02  0.14976145953E+02  0.12700000000E+01 0. -1.
          4   -1    0    0  501    0  0.00000000000E+00 -0.00000000000E+00 -0.26124406849E+03  0.26124715543E+03  0.12700000000E+01 0. -1.
         25    2    1    2    0    0  0.00000000000E+00  0.00000000000E+00 -0.24632186866E+03  0.27622330138E+03  0.12499939698E+03 0.  0.
    9000005    1    3    3    0    0  0.20011184965E+02  0.49734580295E+02 -0.19412385666E+03  0.20139276980E+03  0.10000000000E+01 0.  0.
    9000005    1    3    3    0    0 -0.20011184965E+02 -0.49734580295E+02 -0.52198012000E+02  0.74830531587E+02  0.10000000000E+01 0.  0.
<mgrwt>
<rscale>  0 0.12499940E+03</rscale>
<asrwt>0</asrwt>
<pdfrwt beam="2">  1        4 0.40195779E-01 0.12499940E+03</pdfrwt>
<pdfrwt beam="1">  1       -4 0.23001104E-02 0.12499940E+03</pdfrwt>
<totfact> 0.78682604E+03</totfact>
</mgrwt>
</event>
<event>
 5    1  0.3206665E-002  0.1250013E+03  0.7818608E-02  0.1235067E+00
         -4   -1    0    0    0  501 -0.00000000000E+00  0.00000000000E+00  0.28525699246E+03  0.28525981954E+03  0.12700000000E+01 0. -1.
          4   -1    0    0  501    0  0.00000000000E+00 -0.00000000000E+00 -0.13661741149E+02  0.13720643980E+02  0.12700000000E+01 0. -1.
         25    2    1    2    0    0  0.00000000000E+00  0.00000000000E+00  0.27159525131E+03  0.29898046352E+03  0.12500134813E+03 0.  0.
    9000005    1    3    3    0    0 -0.18087237042E+02  0.37769152434E+02  0.24674491011E+03  0.25027526383E+03  0.10000000000E+01 0.  0.
    9000005    1    3    3    0    0  0.18087237042E+02 -0.37769152434E+02  0.24850341195E+02  0.48705199691E+02  0.10000000000E+01 0.  0.
<mgrwt>
<rscale>  0 0.12500135E+03</rscale>
<asrwt>0</asrwt>
<pdfrwt beam="2">  1        4 0.21065548E-02 0.12500135E+03</pdfrwt>
<pdfrwt beam="1">  1       -4 0.43890439E-01 0.12500135E+03</pdfrwt>
<totfact> 0.75724638E+03</totfact>
</mgrwt>
</event>
<event>
 5    1  0.3206665E-002  0.1250006E+03  0.7818608E-02  0.1235068E+00
         -4   -1    0    0    0  501 -0.00000000000E+00  0.00000000000E+00  0.50579031458E+02  0.50594973300E+02  0.12700000000E+01 0. -1.
          4   -1    0    0  501    0  0.00000000000E+00 -0.00000000000E+00 -0.77197968336E+02  0.77208414147E+02  0.12700000000E+01 0. -1.
         25    2    1    2    0    0  0.00000000000E+00  0.00000000000E+00 -0.26618936878E+02  0.12780338745E+03  0.12500055217E+03 0.  0.
    9000005    1    3    3    0    0 -0.40419292412E+02  0.94866277612E+01  0.34445100679E+02  0.53955354379E+02  0.10000000000E+01 0.  0.
    9000005    1    3    3    0    0  0.40419292412E+02 -0.94866277612E+01 -0.61064037557E+02  0.73848033068E+02  0.10000000000E+01 0.  0.
<mgrwt>
<rscale>  0 0.12500055E+03</rscale>
<asrwt>0</asrwt>
<pdfrwt beam="2">  1        4 0.11878640E-01 0.12500055E+03</pdfrwt>
<pdfrwt beam="1">  1       -4 0.77834192E-02 0.12500055E+03</pdfrwt>
<totfact> 0.10391606E+04</totfact>
</mgrwt>
</event>
<event>
 5    1  0.3206665E-002  0.1250002E+03  0.7818608E-02  0.1235069E+00
          4   -1    0    0  501    0  0.00000000000E+00  0.00000000000E+00  0.11696962175E+02  0.11765705424E+02  0.12700000000E+01 0.  1.
         -4   -1    0    0    0  501 -0.00000000000E+00 -0.00000000000E+00 -0.33290703142E+03  0.33290945386E+03  0.12700000000E+01 0.  1.
         25    2    1    2    0    0  0.00000000000E+00  0.00000000000E+00 -0.32121006924E+03  0.34467515928E+03  0.12500022737E+03 0.  0.
    9000005    1    3    3    0    0 -0.55621654160E+01  0.83828297995E+01 -0.33067301647E+03  0.33082752809E+03  0.10000000000E+01 0.  0.
    9000005    1    3    3    0    0  0.55621654160E+01 -0.83828297995E+01  0.94629472247E+01  0.13847631196E+02  0.10000000000E+01 0.  0.
<mgrwt>
<rscale>  0 0.12500023E+03</rscale>
<asrwt>0</asrwt>
<pdfrwt beam="1">  1        4 0.18050072E-02 0.12500023E+03</pdfrwt>
<pdfrwt beam="2">  1       -4 0.51221933E-01 0.12500023E+03</pdfrwt>
<totfact> 0.70314002E+03</totfact>
</mgrwt>
</event>
<event>
 5    1  0.3206665E-002  0.1250393E+03  0.7818608E-02  0.1235008E+00
          4   -1    0    0  501    0  0.00000000000E+00  0.00000000000E+00  0.61442953681E+02  0.61456077462E+02  0.12700000000E+01 0. -1.
         -4   -1    0    0    0  501 -0.00000000000E+00 -0.00000000000E+00 -0.63588943629E+02  0.63601624601E+02  0.12700000000E+01 0. -1.
         25    2    1    2    0    0  0.00000000000E+00  0.00000000000E+00 -0.21459899486E+01  0.12505770206E+03  0.12503928812E+03 0.  0.
    9000005    1    3    3    0    0  0.13295316207E+02 -0.52942965611E+02 -0.31540292062E+02  0.63051669796E+02  0.10000000000E+01 0.  0.
    9000005    1    3    3    0    0 -0.13295316207E+02  0.52942965611E+02  0.29394302114E+02  0.62006032267E+02  0.10000000000E+01 0.  0.
<mgrwt>
<rscale>  0 0.12503929E+03</rscale>
<asrwt>0</asrwt>
<pdfrwt beam="1">  1        4 0.94547471E-02 0.12503929E+03</pdfrwt>
<pdfrwt beam="2">  1       -4 0.97848994E-02 0.12503929E+03</pdfrwt>
<totfact> 0.10442334E+04</totfact>
</mgrwt>
</event>
<event>
 5    1  0.3206665E-002  0.1249997E+03  0.7818608E-02  0.1235070E+00
         -4   -1    0    0    0  501 -0.00000000000E+00  0.00000000000E+00  0.40873732356E+01  0.42801308352E+01  0.12700000000E+01 0.  1.
          4   -1    0    0  501    0  0.00000000000E+00 -0.00000000000E+00 -0.93347329228E+03  0.93347415620E+03  0.12700000000E+01 0.  1.
         25    2    1    2    0    0  0.00000000000E+00  0.00000000000E+00 -0.92938591904E+03  0.93775428704E+03  0.12499966537E+03 0.  0.
    9000005    1    3    3    0    0 -0.56668052297E+00  0.27137923156E+02 -0.88697540309E+03  0.88739120668E+03  0.10000000000E+01 0.  0.
    9000005    1    3    3    0    0  0.56668052297E+00 -0.27137923156E+02 -0.42410515954E+02  0.50363080361E+02  0.10000000000E+01 0.  0.
<mgrwt>
<rscale>  0 0.12499967E+03</rscale>
<asrwt>0</asrwt>
<pdfrwt beam="2">  1        4 0.14362600E+00 0.12499967E+03</pdfrwt>
<pdfrwt beam="1">  1       -4 0.64372136E-03 0.12499967E+03</pdfrwt>
<totfact> 0.32755050E+03</totfact>
</mgrwt>
</event>
<event>
 5    1  0.3206665E-002  0.1249867E+03  0.7818608E-02  0.1235090E+00
         -4   -1    0    0    0  501 -0.00000000000E+00  0.00000000000E+00  0.26101952039E+03  0.26102260999E+03  0.12700000000E+01 0. -1.
          4   -1    0    0  501    0  0.00000000000E+00 -0.00000000000E+00 -0.14932036203E+02  0.14985946923E+02  0.12700000000E+01 0. -1.
         25    2    1    2    0    0  0.00000000000E+00  0.00000000000E+00  0.24608748419E+03  0.27600855691E+03  0.12498669375E+03 0.  0.
    9000005    1    3    3    0    0 -0.54581863607E+02 -0.20432243430E+02  0.17280471504E+03  0.18237084731E+03  0.10000000000E+01 0.  0.
    9000005    1    3    3    0    0  0.54581863607E+02  0.20432243430E+02  0.73282769143E+02  0.93637709602E+02  0.10000000000E+01 0.  0.
<mgrwt>
<rscale>  0 0.12498669E+03</rscale>
<asrwt>0</asrwt>
<pdfrwt beam="2">  1        4 0.23016213E-02 0.12498669E+03</pdfrwt>
<pdfrwt beam="1">  1       -4 0.40161228E-01 0.12498669E+03</pdfrwt>
<totfact> 0.78733630E+03</totfact>
</mgrwt>
</event>
<event>
 5    1  0.3206665E-002  0.1250063E+03  0.7818608E-02  0.1235059E+00
         -4   -1    0    0    0  501 -0.00000000000E+00  0.00000000000E+00  0.34059928072E+03  0.34060164845E+03  0.12700000000E+01 0.  1.
          4   -1    0    0  501    0  0.00000000000E+00 -0.00000000000E+00 -0.11432334265E+02  0.11502659117E+02  0.12700000000E+01 0.  1.
         25    2    1    2    0    0  0.00000000000E+00  0.00000000000E+00  0.32916694645E+03  0.35210430756E+03  0.12500625892E+03 0.  0.
    9000005    1    3    3    0    0  0.52335922644E+02 -0.31946773439E+02  0.19861725014E+03  0.20786884612E+03  0.10000000000E+01 0.  0.
    9000005    1    3    3    0    0 -0.52335922644E+02  0.31946773439E+02  0.13054969631E+03  0.14423546144E+03  0.10000000000E+01 0.  0.
<mgrwt>
<rscale>  0 0.12500626E+03</rscale>
<asrwt>0</asrwt>
<pdfrwt beam="2">  1        4 0.17644121E-02 0.12500626E+03</pdfrwt>
<pdfrwt beam="1">  1       -4 0.52405489E-01 0.12500626E+03</pdfrwt>
<totfact> 0.69484044E+03</totfact>
</mgrwt>
</event>
<event>
 5    1  0.3206665E-002  0.1250015E+03  0.7818608E-02  0.1235067E+00
          4   -1    0    0  501    0  0.00000000000E+00  0.00000000000E+00  0.42991524993E+02  0.43010279251E+02  0.12700000000E+01 0. -1.
         -4   -1    0    0    0  501 -0.00000000000E+00 -0.00000000000E+00 -0.90820100631E+02  0.90828979839E+02  0.12700000000E+01 0. -1.
         25    2    1    2    0    0  0.00000000000E+00  0.00000000000E+00 -0.47828575638E+02  0.13383925909E+03  0.12500149850E+03 0.  0.
    9000005    1    3    3    0    0  0.55644945074E+02  0.21883711493E+02 -0.44614726983E+01  0.59968003799E+02  0.10000000000E+01 0.  0.
    9000005    1    3    3    0    0 -0.55644945074E+02 -0.21883711493E+02 -0.43367102939E+02  0.73871255291E+02  0.10000000000E+01 0.  0.
<mgrwt>
<rscale>  0 0.12500150E+03</rscale>
<asrwt>0</asrwt>
<pdfrwt beam="1">  1        4 0.66162065E-02 0.12500150E+03</pdfrwt>
<pdfrwt beam="2">  1       -4 0.13974449E-01 0.12500150E+03</pdfrwt>
<totfact> 0.10262248E+04</totfact>
</mgrwt>
</event>
<event>
 5    1  0.3206665E-002  0.1250001E+03  0.7818608E-02  0.1235069E+00
         -4   -1    0    0    0  501 -0.00000000000E+00  0.00000000000E+00  0.11203173579E+02  0.11274927860E+02  0.12700000000E+01 0.  1.
          4   -1    0    0  501    0  0.00000000000E+00 -0.00000000000E+00 -0.34748819619E+03  0.34749051698E+03  0.12700000000E+01 0.  1.
         25    2    1    2    0    0  0.00000000000E+00  0.00000000000E+00 -0.33628502261E+03  0.35876544484E+03  0.12500011192E+03 0.  0.
    9000005    1    3    3    0    0  0.29190902014E+02 -0.39575160338E+02 -0.57467619633E+02  0.75642774820E+02  0.10000000000E+01 0.  0.
    9000005    1    3    3    0    0 -0.29190902014E+02  0.39575160338E+02 -0.27881740297E+03  0.28312267002E+03  0.10000000000E+01 0.  0.
<mgrwt>
<rscale>  0 0.12500011E+03</rscale>
<asrwt>0</asrwt>
<pdfrwt beam="2">  1        4 0.53465412E-01 0.12500011E+03</pdfrwt>
<pdfrwt beam="1">  1       -4 0.17292635E-02 0.12500011E+03</pdfrwt>
<totfact> 0.68770727E+03</totfact>
</mgrwt>
</event>
<event>
 5    1  0.3206665E-002  0.1250016E+03  0.7818608E-02  0.1235067E+00
         -4   -1    0    0    0  501 -0.00000000000E+00  0.00000000000E+00  0.37198643405E+03  0.37198860200E+03  0.12700000000E+01 0.  1.
          4   -1    0    0  501    0  0.00000000000E+00 -0.00000000000E+00 -0.10460718015E+02  0.10537529188E+02  0.12700000000E+01 0.  1.
         25    2    1    2    0    0  0.00000000000E+00  0.00000000000E+00  0.36152571604E+03  0.38252613119E+03  0.12500159073E+03 0.  0.
    9000005    1    3    3    0    0  0.26397038702E+02  0.47721827807E+02  0.87381381388E+02  0.10300816625E+03  0.10000000000E+01 0.  0.
    9000005    1    3    3    0    0 -0.26397038702E+02 -0.47721827807E+02  0.27414433465E+03  0.27951796494E+03  0.10000000000E+01 0.  0.
<mgrwt>
<rscale>  0 0.12500159E+03</rscale>
<asrwt>0</asrwt>
<pdfrwt beam="2">  1        4 0.16154168E-02 0.12500159E+03</pdfrwt>
<pdfrwt beam="1">  1       -4 0.57234748E-01 0.12500159E+03</pdfrwt>
<totfact> 0.66286189E+03</totfact>
</mgrwt>
</event>
<event>
 5    1  0.3206665E-002  0.1250296E+03  0.7818608E-02  0.1235023E+00
          4   -1    0    0  501    0  0.00000000000E+00  0.00000000000E+00  0.14631255367E+03  0.14631806540E+03  0.12700000000E+01 0. -1.
         -4   -1    0    0    0  501 -0.00000000000E+00 -0.00000000000E+00 -0.26689519812E+02  0.26719718708E+02  0.12700000000E+01 0. -1.
         25    2    1    2    0    0  0.00000000000E+00  0.00000000000E+00  0.11962303386E+03  0.17303778411E+03  0.12502961449E+03 0.  0.
    9000005    1    3    3    0    0 -0.50903488059E+02 -0.86683610439E+01  0.11061118934E+02  0.52817174592E+02  0.10000000000E+01 0.  0.
    9000005    1    3    3    0    0  0.50903488059E+02  0.86683610439E+01  0.10856191493E+03  0.12022060952E+03  0.10000000000E+01 0.  0.
<mgrwt>
<rscale>  0 0.12502961E+03</rscale>
<asrwt>0</asrwt>
<pdfrwt beam="1">  1        4 0.22512371E-01 0.12502961E+03</pdfrwt>
<pdfrwt beam="2">  1       -4 0.41088269E-02 0.12502961E+03</pdfrwt>
<totfact> 0.94822426E+03</totfact>
</mgrwt>
</event>
<event>
 5    1  0.3206665E-002  0.1249980E+03  0.7818608E-02  0.1235072E+00
          4   -1    0    0  501    0  0.00000000000E+00  0.00000000000E+00  0.18697152671E+02  0.18740235271E+02  0.12700000000E+01 0. -1.
         -4   -1    0    0    0  501 -0.00000000000E+00 -0.00000000000E+00 -0.20863009937E+03  0.20863396479E+03  0.12700000000E+01 0. -1.
         25    2    1    2    0    0  0.00000000000E+00  0.00000000000E+00 -0.18993294670E+03  0.22737420006E+03  0.12499801043E+03 0.  0.
    9000005    1    3    3    0    0  0.38902659666E+02 -0.38940953995E+02 -0.41149504460E+02  0.68732063438E+02  0.10000000000E+01 0.  0.
    9000005    1    3    3    0    0 -0.38902659666E+02  0.38940953995E+02 -0.14878344224E+03  0.15864213662E+03  0.10000000000E+01 0.  0.
<mgrwt>
<rscale>  0 0.12499801E+03</rscale>
<asrwt>0</asrwt>
<pdfrwt beam="1">  1        4 0.28800966E-02 0.12499801E+03</pdfrwt>
<pdfrwt beam="2">  1       -4 0.32100548E-01 0.12499801E+03</pdfrwt>
<totfact> 0.85718235E+03</totfact>
</mgrwt>
</event>
<event>
 5    1  0.3206665E-002  0.1250011E+03  0.7818608E-02  0.1235067E+00
         -4   -1    0    0    0  501 -0.00000000000E+00  0.00000000000E+00  0.20722457861E+02  0.20761338102E+02  0.12700000000E+01 0. -1.
          4   -1    0    0  501    0  0.00000000000E+00 -0.00000000000E+00 -0.18828898500E+03  0.18829326799E+03  0.12700000000E+01 0. -1.
         25    2    1    2    0    0  0.00000000000E+00  0.00000000000E+00 -0.16756652714E+03  0.20905460610E+03  0.12500114925E+03 0.  0.
    9000005    1    3    3    0    0  0.50595542166E+02 -0.30126619131E+02 -0.48790076784E+02  0.76478713770E+02  0.10000000000E+01 0.  0.
    9000005    1    3    3    0    0 -0.50595542166E+02  0.30126619131E+02 -0.11877645035E+03  0.13257589233E+03  0.10000000000E+01 0.  0.
<mgrwt>
<rscale>  0 0.12500115E+03</rscale>
<asrwt>0</asrwt>
<pdfrwt beam="2">  1        4 0.28970855E-01 0.12500115E+03</pdfrwt>
<pdfrwt beam="1">  1       -4 0.31913908E-02 0.12500115E+03</pdfrwt>
<totfact> 0.88628232E+03</totfact>
</mgrwt>
</event>
<event>
 5    1  0.3206665E-002  0.1250004E+03  0.7818608E-02  0.1235069E+00
         -4   -1    0    0    0  501 -0.00000000000E+00  0.00000000000E+00  0.95951016687E+01  0.96787848428E+01  0.12700000000E+01 0.  1.
          4   -1    0    0  501    0  0.00000000000E+00 -0.00000000000E+00 -0.40525913323E+03  0.40526112318E+03  0.12700000000E+01 0.  1.
         25    2    1    2    0    0  0.00000000000E+00  0.00000000000E+00 -0.39566403156E+03  0.41493990803E+03  0.12500040561E+03 0.  0.
    9000005    1    3    3    0    0  0.25024837224E+02  0.40866323528E+02 -0.33098430306E+03  0.33443670216E+03  0.10000000000E+01 0.  0.
    9000005    1    3    3    0    0 -0.25024837224E+02 -0.40866323528E+02 -0.64679728497E+02  0.80503205870E+02  0.10000000000E+01 0.  0.
<mgrwt>
<rscale>  0 0.12500041E+03</rscale>
<asrwt>0</asrwt>
<pdfrwt beam="2">  1        4 0.62354136E-01 0.12500041E+03</pdfrwt>
<pdfrwt beam="1">  1       -4 0.14827600E-02 0.12500041E+03</pdfrwt>
<totfact> 0.63124674E+03</totfact>
</mgrwt>
</event>
<event>
 5    1  0.3206665E-002  0.1249957E+03  0.7818608E-02  0.1235076E+00
         -4   -1    0    0    0  501 -0.00000000000E+00  0.00000000000E+00  0.53734165546E+03  0.53734315628E+03  0.12700000000E+01 0. -1.
          4   -1    0    0  501    0  0.00000000000E+00 -0.00000000000E+00 -0.72120949106E+01  0.73230603575E+01  0.12700000000E+01 0. -1.
         25    2    1    2    0    0  0.00000000000E+00  0.00000000000E+00  0.53012956055E+03  0.54466621663E+03  0.12499574621E+03 0.  0.
    9000005    1    3    3    0    0 -0.52487301727E+02  0.15499395507E+02  0.13362804213E+03  0.14440429961E+03  0.10000000000E+01 0.  0.
    9000005    1    3    3    0    0  0.52487301727E+02 -0.15499395507E+02  0.39650151842E+03  0.40026191702E+03  0.10000000000E+01 0.  0.
<mgrwt>
<rscale>  0 0.12499575E+03</rscale>
<asrwt>0</asrwt>
<pdfrwt beam="2">  1        4 0.11182042E-02 0.12499575E+03</pdfrwt>
<pdfrwt beam="1">  1       -4 0.82676608E-01 0.12499575E+03</pdfrwt>
<totfact> 0.52562959E+03</totfact>
</mgrwt>
</event>
<event>
 5    1  0.3206665E-002  0.1249985E+03  0.7818608E-02  0.1235072E+00
          4   -1    0    0  501    0  0.00000000000E+00  0.00000000000E+00  0.23975508709E+03  0.23975845071E+03  0.12700000000E+01 0. -1.
         -4   -1    0    0    0  501 -0.00000000000E+00 -0.00000000000E+00 -0.16264045661E+02  0.16313555138E+02  0.12700000000E+01 0. -1.
         25    2    1    2    0    0  0.00000000000E+00  0.00000000000E+00  0.22349104143E+03  0.25607200585E+03  0.12499850631E+03 0.  0.
    9000005    1    3    3    0    0  0.55781318195E+01 -0.41281611324E+02  0.20717314311E+03  0.21132202491E+03  0.10000000000E+01 0.  0.
    9000005    1    3    3    0    0 -0.55781318195E+01  0.41281611324E+02  0.16317898326E+02  0.44749980937E+02  0.10000000000E+01 0.  0.
<mgrwt>
<rscale>  0 0.12499851E+03</rscale>
<asrwt>0</asrwt>
<pdfrwt beam="1">  1        4 0.36889463E-01 0.12499851E+03</pdfrwt>
<pdfrwt beam="2">  1       -4 0.25062282E-02 0.12499851E+03</pdfrwt>
<totfact> 0.81463188E+03</totfact>
</mgrwt>
</event>
<event>
 5    1  0.3206665E-002  0.1250006E+03  0.7818608E-02  0.1235068E+00
          4   -1    0    0  501    0  0.00000000000E+00  0.00000000000E+00  0.32149305130E+02  0.32174379875E+02  0.12700000000E+01 0. -1.
         -4   -1    0    0    0  501 -0.00000000000E+00 -0.00000000000E+00 -0.12142874964E+03  0.12143539080E+03  0.12700000000E+01 0. -1.
         25    2    1    2    0    0  0.00000000000E+00  0.00000000000E+00 -0.89279444505E+02  0.15360977067E+03  0.12500056974E+03 0.  0.
    9000005    1    3    3    0    0  0.28595997623E-01 -0.47040026133E+02  0.59164106591E+01  0.47421185048E+02  0.10000000000E+01 0.  0.
    9000005    1    3    3    0    0 -0.28595997623E-01  0.47040026133E+02 -0.95195855164E+02  0.10618858562E+03  0.10000000000E+01 0.  0.
<mgrwt>
<rscale>  0 0.12500057E+03</rscale>
<asrwt>0</asrwt>
<pdfrwt beam="1">  1        4 0.49484867E-02 0.12500057E+03</pdfrwt>
<pdfrwt beam="2">  1       -4 0.18683786E-01 0.12500057E+03</pdfrwt>
<totfact> 0.98587686E+03</totfact>
</mgrwt>
</event>
<event>
 5    1  0.3206665E-002  0.1250012E+03  0.7818608E-02  0.1235067E+00
          4   -1    0    0  501    0  0.00000000000E+00  0.00000000000E+00  0.88500403156E+02  0.88509515075E+02  0.12700000000E+01 0.  1.
         -4   -1    0    0    0  501 -0.00000000000E+00 -0.00000000000E+00 -0.44118554564E+02  0.44136829937E+02  0.12700000000E+01 0.  1.
         25    2    1    2    0    0  0.00000000000E+00  0.00000000000E+00  0.44381848592E+02  0.13264634501E+03  0.12500121744E+03 0.  0.
    9000005    1    3    3    0    0 -0.48434582691E+02 -0.20641336371E+02 -0.13533361309E+02  0.54370262423E+02  0.10000000000E+01 0.  0.
    9000005    1    3    3    0    0  0.48434582691E+02  0.20641336371E+02  0.57915209901E+02  0.78276082589E+02  0.10000000000E+01 0.  0.
<mgrwt>
<rscale>  0 0.12500122E+03</rscale>
<asrwt>0</asrwt>
<pdfrwt beam="1">  1        4 0.13617553E-01 0.12500122E+03</pdfrwt>
<pdfrwt beam="2">  1       -4 0.67895767E-02 0.12500122E+03</pdfrwt>
<totfact> 0.10287639E+04</totfact>
</mgrwt>
</event>
<event>
 5    1  0.3206665E-002  0.1249994E+03  0.7818608E-02  0.1235070E+00
         -4   -1    0    0    0  501 -0.00000000000E+00  0.00000000000E+00  0.74626895020E+02  0.74637700664E+02  0.12700000000E+01 0.  1.
          4   -1    0    0  501    0  0.00000000000E+00 -0.00000000000E+00 -0.52320922062E+02  0.52336333320E+02  0.12700000000E+01 0.  1.
         25    2    1    2    0    0  0.00000000000E+00  0.00000000000E+00  0.22305972958E+02  0.12697403398E+03  0.12499939550E+03 0.  0.
    9000005    1    3    3    0    0 -0.47286995589E+02  0.28539514899E+02  0.40849176641E+02  0.68703850654E+02  0.10000000000E+01 0.  0.
    9000005    1    3    3    0    0  0.47286995589E+02 -0.28539514899E+02 -0.18543203683E+02  0.58270183330E+02  0.10000000000E+01 0.  0.
<mgrwt>
<rscale>  0 0.12499940E+03</rscale>
<asrwt>0</asrwt>
<pdfrwt beam="2">  1        4 0.80513894E-02 0.12499940E+03</pdfrwt>
<pdfrwt beam="1">  1       -4 0.11483077E-01 0.12499940E+03</pdfrwt>
<totfact> 0.10409852E+04</totfact>
</mgrwt>
</event>
<event>
 5    1  0.3206665E-002  0.1250025E+03  0.7818608E-02  0.1235065E+00
          4   -1    0    0  501    0  0.00000000000E+00  0.00000000000E+00  0.16762672486E+03  0.16763153578E+03  0.12700000000E+01 0.  1.
         -4   -1    0    0    0  501 -0.00000000000E+00 -0.00000000000E+00 -0.23281741008E+02  0.23316354011E+02  0.12700000000E+01 0.  1.
         25    2    1    2    0    0  0.00000000000E+00  0.00000000000E+00  0.14434498386E+03  0.19094788979E+03  0.12500248898E+03 0.  0.
    9000005    1    3    3    0    0 -0.51005789277E+02 -0.23591830371E+01  0.17132894627E+02  0.53867358972E+02  0.10000000000E+01 0.  0.
    9000005    1    3    3    0    0  0.51005789277E+02  0.23591830371E+01  0.12721208923E+03  0.13708053082E+03  0.10000000000E+01 0.  0.
<mgrwt>
<rscale>  0 0.12500249E+03</rscale>
<asrwt>0</asrwt>
<pdfrwt beam="1">  1        4 0.25791759E-01 0.12500249E+03</pdfrwt>
<pdfrwt beam="2">  1       -4 0.35848389E-02 0.12500249E+03</pdfrwt>
<totfact> 0.91677535E+03</totfact>
</mgrwt>
</event>
<event>
 5    1  0.3206665E-002  0.1249991E+03  0.7818608E-02  0.1235071E+00
         -4   -1    0    0    0  501 -0.00000000000E+00  0.00000000000E+00  0.12976780052E+02  0.13038777570E+02  0.12700000000E+01 0.  1.
          4   -1    0    0  501    0  0.00000000000E+00 -0.00000000000E+00 -0.30023335005E+03  0.30023603611E+03  0.12700000000E+01 0.  1.
         25    2    1    2    0    0  0.00000000000E+00  0.00000000000E+00 -0.28725657000E+03  0.31327481368E+03  0.12499908753E+03 0.  0.
    9000005    1    3    3    0    0  0.34135496070E+02  0.22744114750E+02 -0.26178427754E+03  0.26498025363E+03  0.10000000000E+01 0.  0.
    9000005    1    3    3    0    0 -0.34135496070E+02 -0.22744114750E+02 -0.25472292460E+02  0.48294560055E+02  0.10000000000E+01 0.  0.
<mgrwt>
<rscale>  0 0.12499909E+03</rscale>
<asrwt>0</asrwt>
<pdfrwt beam="2">  1        4 0.46194716E-01 0.12499909E+03</pdfrwt>
<pdfrwt beam="1">  1       -4 0.20014036E-02 0.12499909E+03</pdfrwt>
<totfact> 0.73964701E+03</totfact>
</mgrwt>
</event>
<event>
 5    1  0.3206665E-002  0.1250047E+03  0.7818608E-02  0.1235062E+00
         -4   -1    0    0    0  501 -0.00000000000E+00  0.00000000000E+00  0.73834203096E+02  0.73845124733E+02  0.12700000000E+01 0.  1.
          4   -1    0    0  501    0  0.00000000000E+00 -0.00000000000E+00 -0.52887240787E+02  0.52902487068E+02  0.12700000000E+01 0.  1.
         25    2    1    2    0    0  0.00000000000E+00  0.00000000000E+00  0.20946962309E+02  0.12674761180E+03  0.12500472738E+03 0.  0.
    9000005    1    3    3    0    0  0.32908012935E+02 -0.51504836338E+02  0.23688229251E+02  0.65557743147E+02  0.10000000000E+01 0.  0.
    9000005    1    3    3    0    0 -0.32908012935E+02  0.51504836338E+02 -0.27412669413E+01  0.61189868654E+02  0.10000000000E+01 0.  0.
<mgrwt>
<rscale>  0 0.12500473E+03</rscale>
<asrwt>0</asrwt>
<pdfrwt beam="2">  1        4 0.81385116E-02 0.12500473E+03</pdfrwt>
<pdfrwt beam="1">  1       -4 0.11361121E-01 0.12500473E+03</pdfrwt>
<totfact> 0.10413522E+04</totfact>
</mgrwt>
</event>
