<event>
 5    1  0.3422688E-002  0.1249982E+03  0.7818608E-02  0.1235072E+00
         -4   -1    0    0    0  501 -0.00000000000E+00  0.00000000000E+00  0.11642741529E+03  0.11643434172E+03  0.12700000000E+01 0. -1.
          4   -1    0    0  501    0  0.00000000000E+00 -0.00000000000E+00 -0.33530011139E+02  0.33554054106E+02  0.12700000000E+01 0. -1.
         25    2    1    2    0    0  0.00000000000E+00  0.00000000000E+00  0.82897404152E+02  0.14998839582E+03  0.12499815705E+03 0.  0.
    9000005    1    3    3    0    0 -0.51464069947E+02  0.34409397505E+02  0.31226237724E+02  0.69344322439E+02  0.10000000000E+01 0.  0.
    9000005    1    3    3    0    0  0.51464069947E+02 -0.34409397505E+02  0.51671166429E+02  0.80644073386E+02  0.10000000000E+01 0.  0.
<mgrwt>
<rscale>  0 0.12499816E+03</rscale>
<asrwt>0</asrwt>
<pdfrwt beam="2">  1        4 0.51608456E-02 0.12499816E+03</pdfrwt>
<pdfrwt beam="1">  1       -4 0.17914292E-01 0.12499816E+03</pdfrwt>
<totfact> 0.99310130E+03</totfact>
</mgrwt>
</event>
<event>
 5    1  0.3422688E-002  0.1249980E+03  0.7818608E-02  0.1235072E+00
         -4   -1    0    0    0  501 -0.00000000000E+00  0.00000000000E+00  0.11449179310E+02  0.11519401324E+02  0.12700000000E+01 0.  1.
          4   -1    0    0  501    0  0.00000000000E+00 -0.00000000000E+00 -0.34005626116E+03  0.34005863267E+03  0.12700000000E+01 0.  1.
         25    2    1    2    0    0  0.00000000000E+00  0.00000000000E+00 -0.32860708185E+03  0.35157803399E+03  0.12499799897E+03 0.  0.
    9000005    1    3    3    0    0 -0.58852294333E+02 -0.87612521818E+01 -0.11058429287E+03  0.12557960789E+03  0.10000000000E+01 0.  0.
    9000005    1    3    3    0    0  0.58852294333E+02  0.87612521818E+01 -0.21802278897E+03  0.22599842610E+03  0.10000000000E+01 0.  0.
<mgrwt>
<rscale>  0 0.12499800E+03</rscale>
<asrwt>0</asrwt>
<pdfrwt beam="2">  1        4 0.52321924E-01 0.12499800E+03</pdfrwt>
<pdfrwt beam="1">  1       -4 0.17669966E-02 0.12499800E+03</pdfrwt>
<totfact> 0.69554384E+03</totfact>
</mgrwt>
</event>
<event>
 5    1  0.3422688E-002  0.1249949E+03  0.7818608E-02  0.1235077E+00
         -4   -1    0    0    0  501 -0.00000000000E+00  0.00000000000E+00  0.42580350153E+03  0.42580539548E+03  0.12700000000E+01 0. -1.
          4   -1    0    0  501    0  0.00000000000E+00 -0.00000000000E+00 -0.91271977651E+01  0.92151309835E+01  0.12700000000E+01 0. -1.
         25    2    1    2    0    0  0.00000000000E+00  0.00000000000E+00  0.41667630377E+03  0.43502052646E+03  0.12499486518E+03 0.  0.
    9000005    1    3    3    0    0  0.60812773486E+02  0.13320310688E+02  0.22717847401E+03  0.23555611465E+03  0.10000000000E+01 0.  0.
    9000005    1    3    3    0    0 -0.60812773486E+02 -0.13320310688E+02  0.18949782975E+03  0.19946441180E+03  0.10000000000E+01 0.  0.
<mgrwt>
<rscale>  0 0.12499487E+03</rscale>
<asrwt>0</asrwt>
<pdfrwt beam="2">  1        4 0.14110943E-02 0.12499487E+03</pdfrwt>
<pdfrwt beam="1">  1       -4 0.65515128E-01 0.12499487E+03</pdfrwt>
<totfact> 0.61290476E+03</totfact>
</mgrwt>
</event>
<event>
 5    1  0.3422688E-002  0.1249978E+03  0.7818608E-02  0.1235073E+00
          4   -1    0    0  501    0  0.00000000000E+00  0.00000000000E+00  0.32363885257E+03  0.32364134438E+03  0.12700000000E+01 0.  1.
         -4   -1    0    0    0  501 -0.00000000000E+00 -0.00000000000E+00 -0.12033400222E+02  0.12100232267E+02  0.12700000000E+01 0.  1.
         25    2    1    2    0    0  0.00000000000E+00  0.00000000000E+00  0.31160545234E+03  0.33574157665E+03  0.12499779341E+03 0.  0.
    9000005    1    3    3    0    0 -0.46772809137E+02 -0.40431068157E+02  0.18023557079E+03  0.19054718031E+03  0.10000000000E+01 0.  0.
    9000005    1    3    3    0    0  0.46772809137E+02  0.40431068157E+02  0.13136988155E+03  0.14519439633E+03  0.10000000000E+01 0.  0.
<mgrwt>
<rscale>  0 0.12499779E+03</rscale>
<asrwt>0</asrwt>
<pdfrwt beam="1">  1        4 0.49795921E-01 0.12499779E+03</pdfrwt>
<pdfrwt beam="2">  1       -4 0.18566251E-02 0.12499779E+03</pdfrwt>
<totfact> 0.71325663E+03</totfact>
</mgrwt>
</event>
<event>
 5    1  0.3422688E-002  0.1249966E+03  0.7818608E-02  0.1235075E+00
         -4   -1    0    0    0  501 -0.00000000000E+00  0.00000000000E+00  0.10653238116E+02  0.10728671044E+02  0.12700000000E+01 0.  1.
          4   -1    0    0  501    0  0.00000000000E+00 -0.00000000000E+00 -0.36528282475E+03  0.36528503249E+03  0.12700000000E+01 0.  1.
         25    2    1    2    0    0  0.00000000000E+00  0.00000000000E+00 -0.35462958663E+03  0.37601370353E+03  0.12499664606E+03 0.  0.
    9000005    1    3    3    0    0 -0.31144207123E+02  0.18219806881E+02 -0.23834652606E+02  0.43255215465E+02  0.10000000000E+01 0.  0.
    9000005    1    3    3    0    0  0.31144207123E+02 -0.18219806881E+02 -0.33079493403E+03  0.33275848806E+03  0.10000000000E+01 0.  0.
<mgrwt>
<rscale>  0 0.12499665E+03</rscale>
<asrwt>0</asrwt>
<pdfrwt beam="2">  1        4 0.56203320E-01 0.12499665E+03</pdfrwt>
<pdfrwt beam="1">  1       -4 0.16449324E-02 0.12499665E+03</pdfrwt>
<totfact> 0.66959417E+03</totfact>
</mgrwt>
</event>
<event>
 5    1  0.3422688E-002  0.1249954E+03  0.7818608E-02  0.1235076E+00
          4   -1    0    0  501    0  0.00000000000E+00  0.00000000000E+00  0.10952042517E+02  0.11025431297E+02  0.12700000000E+01 0. -1.
         -4   -1    0    0    0  501 -0.00000000000E+00 -0.00000000000E+00 -0.35537695691E+03  0.35537922618E+03  0.12700000000E+01 0. -1.
         25    2    1    2    0    0  0.00000000000E+00  0.00000000000E+00 -0.34442491439E+03  0.36640465748E+03  0.12499540539E+03 0.  0.
    9000005    1    3    3    0    0  0.21681463710E+02  0.48348091728E+02 -0.75108407298E+02  0.91923319616E+02  0.10000000000E+01 0.  0.
    9000005    1    3    3    0    0 -0.21681463710E+02 -0.48348091728E+02 -0.26931650709E+03  0.27448133786E+03  0.10000000000E+01 0.  0.
<mgrwt>
<rscale>  0 0.12499541E+03</rscale>
<asrwt>0</asrwt>
<pdfrwt beam="1">  1        4 0.16907497E-02 0.12499541E+03</pdfrwt>
<pdfrwt beam="2">  1       -4 0.54679189E-01 0.12499541E+03</pdfrwt>
<totfact> 0.67963670E+03</totfact>
</mgrwt>
</event>
<event>
 5    1  0.3422688E-002  0.1250044E+03  0.7818608E-02  0.1235062E+00
         -4   -1    0    0    0  501 -0.00000000000E+00  0.00000000000E+00  0.25524664460E+02  0.25556239860E+02  0.12700000000E+01 0. -1.
          4   -1    0    0  501    0  0.00000000000E+00 -0.00000000000E+00 -0.15292032205E+03  0.15292559562E+03  0.12700000000E+01 0. -1.
         25    2    1    2    0    0  0.00000000000E+00  0.00000000000E+00 -0.12739565759E+03  0.17848183548E+03  0.12500444802E+03 0.  0.
    9000005    1    3    3    0    0  0.55473831768E+02 -0.61010966944E+01 -0.10385336568E+03  0.11790288782E+03  0.10000000000E+01 0.  0.
    9000005    1    3    3    0    0 -0.55473831768E+02  0.61010966944E+01 -0.23542291909E+02  0.60578947665E+02  0.10000000000E+01 0.  0.
<mgrwt>
<rscale>  0 0.12500445E+03</rscale>
<asrwt>0</asrwt>
<pdfrwt beam="2">  1        4 0.23529037E-01 0.12500445E+03</pdfrwt>
<pdfrwt beam="1">  1       -4 0.39297061E-02 0.12500445E+03</pdfrwt>
<totfact> 0.93881629E+03</totfact>
</mgrwt>
</event>
<event>
 5    1  0.3422688E-002  0.1249938E+03  0.7818608E-02  0.1235079E+00
         -4   -1    0    0    0  501 -0.00000000000E+00  0.00000000000E+00  0.12568862454E+03  0.12569504063E+03  0.12700000000E+01 0. -1.
          4   -1    0    0  501    0  0.00000000000E+00 -0.00000000000E+00 -0.31055521940E+02  0.31081479099E+02  0.12700000000E+01 0. -1.
         25    2    1    2    0    0  0.00000000000E+00  0.00000000000E+00  0.94633102596E+02  0.15677651972E+03  0.12499381197E+03 0.  0.
    9000005    1    3    3    0    0  0.14150036213E+02  0.21007527256E+02  0.11896760352E+03  0.12163811251E+03  0.10000000000E+01 0.  0.
    9000005    1    3    3    0    0 -0.14150036213E+02 -0.21007527256E+02 -0.24334500929E+02  0.35138407216E+02  0.10000000000E+01 0.  0.
<mgrwt>
<rscale>  0 0.12499381E+03</rscale>
<asrwt>0</asrwt>
<pdfrwt beam="2">  1        4 0.47802628E-02 0.12499381E+03</pdfrwt>
<pdfrwt beam="1">  1       -4 0.19339202E-01 0.12499381E+03</pdfrwt>
<totfact> 0.97981503E+03</totfact>
</mgrwt>
</event>
<event>
 5    1  0.3422688E-002  0.1249991E+03  0.7818608E-02  0.1235071E+00
          4   -1    0    0  501    0  0.00000000000E+00  0.00000000000E+00  0.29105288227E+03  0.29105565306E+03  0.12700000000E+01 0. -1.
         -4   -1    0    0    0  501 -0.00000000000E+00 -0.00000000000E+00 -0.13388016933E+02  0.13448118731E+02  0.12700000000E+01 0. -1.
         25    2    1    2    0    0  0.00000000000E+00  0.00000000000E+00  0.27766486534E+03  0.30450377179E+03  0.12499907836E+03 0.  0.
    9000005    1    3    3    0    0  0.37396372208E+02 -0.98512109128E-01  0.26079780044E+03  0.26346724858E+03  0.10000000000E+01 0.  0.
    9000005    1    3    3    0    0 -0.37396372208E+02  0.98512109128E-01  0.16867064894E+02  0.41036523209E+02  0.10000000000E+01 0.  0.
<mgrwt>
<rscale>  0 0.12499908E+03</rscale>
<asrwt>0</asrwt>
<pdfrwt beam="1">  1        4 0.44782201E-01 0.12499908E+03</pdfrwt>
<pdfrwt beam="2">  1       -4 0.20645314E-02 0.12499908E+03</pdfrwt>
<totfact> 0.75038879E+03</totfact>
</mgrwt>
</event>
<event>
 5    1  0.3422688E-002  0.1249995E+03  0.7818608E-02  0.1235070E+00
          4   -1    0    0  501    0  0.00000000000E+00  0.00000000000E+00  0.16574471113E+02  0.16623056057E+02  0.12700000000E+01 0.  1.
         -4   -1    0    0    0  501 -0.00000000000E+00 -0.00000000000E+00 -0.23528145614E+03  0.23528488371E+03  0.12700000000E+01 0.  1.
         25    2    1    2    0    0  0.00000000000E+00  0.00000000000E+00 -0.21870698503E+03  0.25190793977E+03  0.12499945928E+03 0.  0.
    9000005    1    3    3    0    0  0.45921480941E+02 -0.30633255702E+02 -0.16838540323E+03  0.17720559468E+03  0.10000000000E+01 0.  0.
    9000005    1    3    3    0    0 -0.45921480941E+02  0.30633255702E+02 -0.50321581802E+02  0.74702345089E+02  0.10000000000E+01 0.  0.
<mgrwt>
<rscale>  0 0.12499946E+03</rscale>
<asrwt>0</asrwt>
<pdfrwt beam="1">  1        4 0.25539198E-02 0.12499946E+03</pdfrwt>
<pdfrwt beam="2">  1       -4 0.36201146E-01 0.12499946E+03</pdfrwt>
<totfact> 0.82056240E+03</totfact>
</mgrwt>
</event>
<event>
 5    1  0.3422688E-002  0.1250051E+03  0.7818608E-02  0.1235061E+00
         -4   -1    0    0    0  501 -0.00000000000E+00  0.00000000000E+00  0.32809958703E+02  0.32834528930E+02  0.12700000000E+01 0. -1.
          4   -1    0    0  501    0  0.00000000000E+00 -0.00000000000E+00 -0.11899403695E+03  0.11900081399E+03  0.12700000000E+01 0. -1.
         25    2    1    2    0    0  0.00000000000E+00  0.00000000000E+00 -0.86184078245E+02  0.15183534292E+03  0.12500510396E+03 0.  0.
    9000005    1    3    3    0    0  0.28545907774E+02  0.49041067688E+02 -0.74897662874E+02  0.93971033168E+02  0.10000000000E+01 0.  0.
    9000005    1    3    3    0    0 -0.28545907774E+02 -0.49041067688E+02 -0.11286415371E+02  0.57864309747E+02  0.10000000000E+01 0.  0.
<mgrwt>
<rscale>  0 0.12500510E+03</rscale>
<asrwt>0</asrwt>
<pdfrwt beam="2">  1        4 0.18309186E-01 0.12500510E+03</pdfrwt>
<pdfrwt beam="1">  1       -4 0.50500973E-02 0.12500510E+03</pdfrwt>
<totfact> 0.98927739E+03</totfact>
</mgrwt>
</event>
<event>
 5    1  0.3422688E-002  0.1250002E+03  0.7818608E-02  0.1235069E+00
          4   -1    0    0  501    0  0.00000000000E+00  0.00000000000E+00  0.77339228024E+02  0.77349654759E+02  0.12700000000E+01 0. -1.
         -4   -1    0    0    0  501 -0.00000000000E+00 -0.00000000000E+00 -0.50486354216E+02  0.50502325313E+02  0.12700000000E+01 0. -1.
         25    2    1    2    0    0  0.00000000000E+00  0.00000000000E+00  0.26852873808E+02  0.12785198007E+03  0.12500020791E+03 0.  0.
    9000005    1    3    3    0    0  0.49306213710E+02  0.20650059133E+02  0.46533642044E+02  0.70879528035E+02  0.10000000000E+01 0.  0.
    9000005    1    3    3    0    0 -0.49306213710E+02 -0.20650059133E+02 -0.19680768236E+02  0.56972452036E+02  0.10000000000E+01 0.  0.
<mgrwt>
<rscale>  0 0.12500021E+03</rscale>
<asrwt>0</asrwt>
<pdfrwt beam="1">  1        4 0.11900373E-01 0.12500021E+03</pdfrwt>
<pdfrwt beam="2">  1       -4 0.77691621E-02 0.12500021E+03</pdfrwt>
<totfact> 0.10390637E+04</totfact>
</mgrwt>
</event>
<event>
 5    1  0.3422688E-002  0.1249998E+03  0.7818608E-02  0.1235070E+00
          4   -1    0    0  501    0  0.00000000000E+00  0.00000000000E+00  0.88354352644E+01  0.89262431242E+01  0.12700000000E+01 0. -1.
         -4   -1    0    0    0  501 -0.00000000000E+00 -0.00000000000E+00 -0.43975836006E+03  0.43976019391E+03  0.12700000000E+01 0. -1.
         25    2    1    2    0    0  0.00000000000E+00  0.00000000000E+00 -0.43092292480E+03  0.44868643703E+03  0.12499980664E+03 0.  0.
    9000005    1    3    3    0    0  0.62236601120E+02  0.31744264636E-01 -0.19520626799E+03  0.20488992798E+03  0.10000000000E+01 0.  0.
    9000005    1    3    3    0    0 -0.62236601120E+02 -0.31744264636E-01 -0.23571665681E+03  0.24379650905E+03  0.10000000000E+01 0.  0.
<mgrwt>
<rscale>  0 0.12499981E+03</rscale>
<asrwt>0</asrwt>
<pdfrwt beam="1">  1        4 0.13664244E-02 0.12499981E+03</pdfrwt>
<pdfrwt beam="2">  1       -4 0.67662242E-01 0.12499981E+03</pdfrwt>
<totfact> 0.60078021E+03</totfact>
</mgrwt>
</event>
<event>
 5    1  0.3422688E-002  0.1249992E+03  0.7818608E-02  0.1235071E+00
         -4   -1    0    0    0  501 -0.00000000000E+00  0.00000000000E+00  0.42375746160E+01  0.44237923353E+01  0.12700000000E+01 0.  1.
          4   -1    0    0  501    0  0.00000000000E+00 -0.00000000000E+00 -0.90179527272E+03  0.90179616699E+03  0.12700000000E+01 0.  1.
         25    2    1    2    0    0  0.00000000000E+00  0.00000000000E+00 -0.89755769810E+03  0.90621995932E+03  0.12499917302E+03 0.  0.
    9000005    1    3    3    0    0  0.39206592918E+02 -0.34297982181E+02 -0.69904844660E+03  0.70098733170E+03  0.10000000000E+01 0.  0.
    9000005    1    3    3    0    0 -0.39206592918E+02  0.34297982181E+02 -0.19850925151E+03  0.20523262763E+03  0.10000000000E+01 0.  0.
<mgrwt>
<rscale>  0 0.12499917E+03</rscale>
<asrwt>0</asrwt>
<pdfrwt beam="2">  1        4 0.13875198E+00 0.12499917E+03</pdfrwt>
<pdfrwt beam="1">  1       -4 0.66632850E-03 0.12499917E+03</pdfrwt>
<totfact> 0.33923514E+03</totfact>
</mgrwt>
</event>
<event>
 5    1  0.3422688E-002  0.1249957E+03  0.7818608E-02  0.1235076E+00
         -4   -1    0    0    0  501 -0.00000000000E+00  0.00000000000E+00  0.11803227634E+03  0.11803910860E+03  0.12700000000E+01 0. -1.
          4   -1    0    0  501    0  0.00000000000E+00 -0.00000000000E+00 -0.33072518943E+02  0.33096894253E+02  0.12700000000E+01 0. -1.
         25    2    1    2    0    0  0.00000000000E+00  0.00000000000E+00  0.84959757400E+02  0.15113600285E+03  0.12499572385E+03 0.  0.
    9000005    1    3    3    0    0 -0.28033690971E+02 -0.45617262756E+02  0.35211321781E+01  0.53667689186E+02  0.10000000000E+01 0.  0.
    9000005    1    3    3    0    0  0.28033690971E+02  0.45617262756E+02  0.81438625222E+02  0.97468313666E+02  0.10000000000E+01 0.  0.
<mgrwt>
<rscale>  0 0.12499572E+03</rscale>
<asrwt>0</asrwt>
<pdfrwt beam="2">  1        4 0.50904804E-02 0.12499572E+03</pdfrwt>
<pdfrwt beam="1">  1       -4 0.18161212E-01 0.12499572E+03</pdfrwt>
<totfact> 0.99087268E+03</totfact>
</mgrwt>
</event>
<event>
 5    1  0.3422688E-002  0.1249982E+03  0.7818608E-02  0.1235072E+00
          4   -1    0    0  501    0  0.00000000000E+00  0.00000000000E+00  0.44007882549E+02  0.44026203861E+02  0.12700000000E+01 0.  1.
         -4   -1    0    0    0  501 -0.00000000000E+00 -0.00000000000E+00 -0.88718559640E+02  0.88727649155E+02  0.12700000000E+01 0.  1.
         25    2    1    2    0    0  0.00000000000E+00  0.00000000000E+00 -0.44710677091E+02  0.13275385302E+03  0.12499816337E+03 0.  0.
    9000005    1    3    3    0    0 -0.55743985025E+02  0.14228169662E+02  0.35573436154E+01  0.57649695333E+02  0.10000000000E+01 0.  0.
    9000005    1    3    3    0    0  0.55743985025E+02 -0.14228169662E+02 -0.48268020707E+02  0.75104157683E+02  0.10000000000E+01 0.  0.
<mgrwt>
<rscale>  0 0.12499816E+03</rscale>
<asrwt>0</asrwt>
<pdfrwt beam="1">  1        4 0.67725520E-02 0.12499816E+03</pdfrwt>
<pdfrwt beam="2">  1       -4 0.13651118E-01 0.12499816E+03</pdfrwt>
<totfact> 0.10286060E+04</totfact>
</mgrwt>
</event>
<event>
 5    1  0.3422688E-002  0.1249990E+03  0.7818608E-02  0.1235071E+00
          4   -1    0    0  501    0  0.00000000000E+00  0.00000000000E+00  0.20508003220E+03  0.20508396453E+03  0.12700000000E+01 0. -1.
         -4   -1    0    0    0  501 -0.00000000000E+00 -0.00000000000E+00 -0.19021858416E+02  0.19064207237E+02  0.12700000000E+01 0. -1.
         25    2    1    2    0    0  0.00000000000E+00  0.00000000000E+00  0.18605817379E+03  0.22414817177E+03  0.12499903550E+03 0.  0.
    9000005    1    3    3    0    0 -0.26718586635E+02 -0.22794718074E+02  0.34119427523E+00  0.35136853265E+02  0.10000000000E+01 0.  0.
    9000005    1    3    3    0    0  0.26718586635E+02  0.22794718074E+02  0.18571697951E+03  0.18901131851E+03  0.10000000000E+01 0.  0.
<mgrwt>
<rscale>  0 0.12499904E+03</rscale>
<asrwt>0</asrwt>
<pdfrwt beam="1">  1        4 0.31554335E-01 0.12499904E+03</pdfrwt>
<pdfrwt beam="2">  1       -4 0.29299998E-02 0.12499904E+03</pdfrwt>
<totfact> 0.86218037E+03</totfact>
</mgrwt>
</event>
<event>
 5    1  0.3422688E-002  0.1250078E+03  0.7818608E-02  0.1235057E+00
          4   -1    0    0  501    0  0.00000000000E+00  0.00000000000E+00  0.39176474926E+02  0.39197054578E+02  0.12700000000E+01 0.  1.
         -4   -1    0    0    0  501 -0.00000000000E+00 -0.00000000000E+00 -0.99670688817E+02  0.99678779633E+02  0.12700000000E+01 0.  1.
         25    2    1    2    0    0  0.00000000000E+00  0.00000000000E+00 -0.60494213891E+02  0.13887583421E+03  0.12500778941E+03 0.  0.
    9000005    1    3    3    0    0  0.18041160043E+02  0.23497839306E+02 -0.91380016580E+02  0.96067368746E+02  0.10000000000E+01 0.  0.
    9000005    1    3    3    0    0 -0.18041160043E+02 -0.23497839306E+02  0.30885802689E+02  0.42808465465E+02  0.10000000000E+01 0.  0.
<mgrwt>
<rscale>  0 0.12500779E+03</rscale>
<asrwt>0</asrwt>
<pdfrwt beam="1">  1        4 0.60293555E-02 0.12500779E+03</pdfrwt>
<pdfrwt beam="2">  1       -4 0.15336157E-01 0.12500779E+03</pdfrwt>
<totfact> 0.10155155E+04</totfact>
</mgrwt>
</event>
<event>
 5    1  0.3422688E-002  0.1250028E+03  0.7818608E-02  0.1235065E+00
         -4   -1    0    0    0  501 -0.00000000000E+00  0.00000000000E+00  0.13605670069E+03  0.13606262787E+03  0.12700000000E+01 0.  1.
          4   -1    0    0  501    0  0.00000000000E+00 -0.00000000000E+00 -0.28691123058E+02  0.28719217300E+02  0.12700000000E+01 0.  1.
         25    2    1    2    0    0  0.00000000000E+00  0.00000000000E+00  0.10736557763E+03  0.16478184517E+03  0.12500275692E+03 0.  0.
    9000005    1    3    3    0    0 -0.75520767308E+01 -0.46618490898E+02  0.10763518722E+03  0.11754425160E+03  0.10000000000E+01 0.  0.
    9000005    1    3    3    0    0  0.75520767308E+01  0.46618490898E+02 -0.26960959030E+00  0.47237593566E+02  0.10000000000E+01 0.  0.
<mgrwt>
<rscale>  0 0.12500276E+03</rscale>
<asrwt>0</asrwt>
<pdfrwt beam="2">  1        4 0.44166360E-02 0.12500276E+03</pdfrwt>
<pdfrwt beam="1">  1       -4 0.20934417E-01 0.12500276E+03</pdfrwt>
<totfact> 0.96422751E+03</totfact>
</mgrwt>
</event>
<event>
 5    1  0.3422688E-002  0.1250052E+03  0.7818608E-02  0.1235061E+00
         -4   -1    0    0    0  501 -0.00000000000E+00  0.00000000000E+00  0.36270665315E+02  0.36292892726E+02  0.12700000000E+01 0. -1.
          4   -1    0    0  501    0  0.00000000000E+00 -0.00000000000E+00 -0.10764715939E+03  0.10765465074E+03  0.12700000000E+01 0. -1.
         25    2    1    2    0    0  0.00000000000E+00  0.00000000000E+00 -0.71376494077E+02  0.14394754346E+03  0.12500516534E+03 0.  0.
    9000005    1    3    3    0    0 -0.34478798976E+02  0.15381086570E+02  0.21660020379E+02  0.43537591640E+02  0.10000000000E+01 0.  0.
    9000005    1    3    3    0    0  0.34478798976E+02 -0.15381086570E+02 -0.93036514456E+02  0.10040995182E+03  0.10000000000E+01 0.  0.
<mgrwt>
<rscale>  0 0.12500517E+03</rscale>
<asrwt>0</asrwt>
<pdfrwt beam="2">  1        4 0.16563387E-01 0.12500517E+03</pdfrwt>
<pdfrwt beam="1">  1       -4 0.55823885E-02 0.12500517E+03</pdfrwt>
<totfact> 0.10051247E+04</totfact>
</mgrwt>
</event>
<event>
 5    1  0.3422688E-002  0.1249985E+03  0.7818608E-02  0.1235072E+00
         -4   -1    0    0    0  501 -0.00000000000E+00  0.00000000000E+00  0.16865740749E+02  0.16913489026E+02  0.12700000000E+01 0.  1.
          4   -1    0    0  501    0  0.00000000000E+00 -0.00000000000E+00 -0.23122628361E+03  0.23122977129E+03  0.12700000000E+01 0.  1.
         25    2    1    2    0    0  0.00000000000E+00  0.00000000000E+00 -0.21436054286E+03  0.24814326031E+03  0.12499854121E+03 0.  0.
    9000005    1    3    3    0    0 -0.37118378389E+02  0.50111638218E+02 -0.11517252619E+03  0.13097580344E+03  0.10000000000E+01 0.  0.
    9000005    1    3    3    0    0  0.37118378389E+02 -0.50111638218E+02 -0.99188016667E+02  0.11716745687E+03  0.10000000000E+01 0.  0.
<mgrwt>
<rscale>  0 0.12499854E+03</rscale>
<asrwt>0</asrwt>
<pdfrwt beam="2">  1        4 0.35577213E-01 0.12499854E+03</pdfrwt>
<pdfrwt beam="1">  1       -4 0.25986707E-02 0.12499854E+03</pdfrwt>
<totfact> 0.82602013E+03</totfact>
</mgrwt>
</event>
<event>
 5    1  0.3422688E-002  0.1250045E+03  0.7818608E-02  0.1235062E+00
          4   -1    0    0  501    0  0.00000000000E+00  0.00000000000E+00  0.39237253574E+03  0.39237459105E+03  0.12700000000E+01 0.  1.
         -4   -1    0    0    0  501 -0.00000000000E+00 -0.00000000000E+00 -0.99135962925E+01  0.99946131216E+01  0.12700000000E+01 0.  1.
         25    2    1    2    0    0  0.00000000000E+00  0.00000000000E+00  0.38245893945E+03  0.40236920417E+03  0.12500454433E+03 0.  0.
    9000005    1    3    3    0    0 -0.91181746173E+01  0.36241658552E+02  0.35245865025E+03  0.35443574744E+03  0.10000000000E+01 0.  0.
    9000005    1    3    3    0    0  0.91181746173E+01 -0.36241658552E+02  0.30000289195E+02  0.47933456736E+02  0.10000000000E+01 0.  0.
<mgrwt>
<rscale>  0 0.12500454E+03</rscale>
<asrwt>0</asrwt>
<pdfrwt beam="1">  1        4 0.60371398E-01 0.12500454E+03</pdfrwt>
<pdfrwt beam="2">  1       -4 0.15315588E-02 0.12500454E+03</pdfrwt>
<totfact> 0.64316558E+03</totfact>
</mgrwt>
</event>
<event>
 5    1  0.3422688E-002  0.1250005E+03  0.7818608E-02  0.1235068E+00
         -4   -1    0    0    0  501 -0.00000000000E+00  0.00000000000E+00  0.80152348689E+02  0.80162409522E+02  0.12700000000E+01 0.  1.
          4   -1    0    0  501    0  0.00000000000E+00 -0.00000000000E+00 -0.48714341007E+02  0.48730892869E+02  0.12700000000E+01 0.  1.
         25    2    1    2    0    0  0.00000000000E+00  0.00000000000E+00  0.31438007682E+02  0.12889330239E+03  0.12500054030E+03 0.  0.
    9000005    1    3    3    0    0  0.34280111034E+02  0.29961601779E+02 -0.28421342165E+02  0.53680501899E+02  0.10000000000E+01 0.  0.
    9000005    1    3    3    0    0 -0.34280111034E+02 -0.29961601779E+02  0.59859349848E+02  0.75212800492E+02  0.10000000000E+01 0.  0.
<mgrwt>
<rscale>  0 0.12500054E+03</rscale>
<asrwt>0</asrwt>
<pdfrwt beam="2">  1        4 0.74965612E-02 0.12500054E+03</pdfrwt>
<pdfrwt beam="1">  1       -4 0.12333178E-01 0.12500054E+03</pdfrwt>
<totfact> 0.10368114E+04</totfact>
</mgrwt>
</event>
<event>
 5    1  0.3422688E-002  0.1249786E+03  0.7818608E-02  0.1235103E+00
          4   -1    0    0  501    0  0.00000000000E+00  0.00000000000E+00  0.38627820132E+02  0.38648691933E+02  0.12700000000E+01 0. -1.
         -4   -1    0    0    0  501 -0.00000000000E+00 -0.00000000000E+00 -0.10103855563E+03  0.10104653692E+03  0.12700000000E+01 0. -1.
         25    2    1    2    0    0  0.00000000000E+00  0.00000000000E+00 -0.62410735501E+02  0.13969522886E+03  0.12497862641E+03 0.  0.
    9000005    1    3    3    0    0  0.60519826940E+02  0.12405909603E+02 -0.20758220597E+02  0.65180209944E+02  0.10000000000E+01 0.  0.
    9000005    1    3    3    0    0 -0.60519826940E+02 -0.12405909603E+02 -0.41652514904E+02  0.74515018914E+02  0.10000000000E+01 0.  0.
<mgrwt>
<rscale>  0 0.12497863E+03</rscale>
<asrwt>0</asrwt>
<pdfrwt beam="1">  1        4 0.59449611E-02 0.12497863E+03</pdfrwt>
<pdfrwt beam="2">  1       -4 0.15546613E-01 0.12497863E+03</pdfrwt>
<totfact> 0.10144791E+04</totfact>
</mgrwt>
</event>
<event>
 5    1  0.3422688E-002  0.1250011E+03  0.7818608E-02  0.1235068E+00
          4   -1    0    0  501    0  0.00000000000E+00  0.00000000000E+00  0.22035312580E+03  0.22035678558E+03  0.12700000000E+01 0.  1.
         -4   -1    0    0    0  501 -0.00000000000E+00 -0.00000000000E+00 -0.17700988897E+02  0.17746490017E+02  0.12700000000E+01 0.  1.
         25    2    1    2    0    0  0.00000000000E+00  0.00000000000E+00  0.20265213690E+03  0.23810327559E+03  0.12500112502E+03 0.  0.
    9000005    1    3    3    0    0  0.18785420498E+02 -0.49559385142E+02  0.16439497345E+03  0.17273022890E+03  0.10000000000E+01 0.  0.
    9000005    1    3    3    0    0 -0.18785420498E+02  0.49559385142E+02  0.38257163449E+02  0.65373046694E+02  0.10000000000E+01 0.  0.
<mgrwt>
<rscale>  0 0.12500113E+03</rscale>
<asrwt>0</asrwt>
<pdfrwt beam="1">  1        4 0.33904264E-01 0.12500113E+03</pdfrwt>
<pdfrwt beam="2">  1       -4 0.27270105E-02 0.12500113E+03</pdfrwt>
<totfact> 0.84078553E+03</totfact>
</mgrwt>
</event>
<event>
 5    1  0.3422688E-002  0.1249967E+03  0.7818608E-02  0.1235074E+00
         -4   -1    0    0    0  501 -0.00000000000E+00  0.00000000000E+00  0.24782823535E+02  0.24815342882E+02  0.12700000000E+01 0.  1.
          4   -1    0    0  501    0  0.00000000000E+00 -0.00000000000E+00 -0.15747244071E+03  0.15747756184E+03  0.12700000000E+01 0.  1.
         25    2    1    2    0    0  0.00000000000E+00  0.00000000000E+00 -0.13268961718E+03  0.18229290472E+03  0.12499667438E+03 0.  0.
    9000005    1    3    3    0    0 -0.21950936176E+02  0.99790625603E+01 -0.15042172663E+03  0.15234540075E+03  0.10000000000E+01 0.  0.
    9000005    1    3    3    0    0  0.21950936176E+02 -0.99790625603E+01  0.17732109451E+02  0.29947503972E+02  0.10000000000E+01 0.  0.
<mgrwt>
<rscale>  0 0.12499667E+03</rscale>
<asrwt>0</asrwt>
<pdfrwt beam="2">  1        4 0.24229424E-01 0.12499667E+03</pdfrwt>
<pdfrwt beam="1">  1       -4 0.38156376E-02 0.12499667E+03</pdfrwt>
<totfact> 0.93212843E+03</totfact>
</mgrwt>
</event>
<event>
 5    1  0.3422688E-002  0.1250018E+03  0.7818608E-02  0.1235066E+00
         -4   -1    0    0    0  501 -0.00000000000E+00  0.00000000000E+00  0.15321405023E+02  0.15373950432E+02  0.12700000000E+01 0.  1.
          4   -1    0    0  501    0  0.00000000000E+00 -0.00000000000E+00 -0.25447064181E+03  0.25447381092E+03  0.12700000000E+01 0.  1.
         25    2    1    2    0    0  0.00000000000E+00  0.00000000000E+00 -0.23914923679E+03  0.26984776135E+03  0.12500182739E+03 0.  0.
    9000005    1    3    3    0    0  0.60002006512E+02 -0.37498746809E+01 -0.82745178601E+02  0.10228424574E+03  0.10000000000E+01 0.  0.
    9000005    1    3    3    0    0 -0.60002006512E+02  0.37498746809E+01 -0.15640405819E+03  0.16756351561E+03  0.10000000000E+01 0.  0.
<mgrwt>
<rscale>  0 0.12500183E+03</rscale>
<asrwt>0</asrwt>
<pdfrwt beam="2">  1        4 0.39153612E-01 0.12500183E+03</pdfrwt>
<pdfrwt beam="1">  1       -4 0.23614252E-02 0.12500183E+03</pdfrwt>
<totfact> 0.79540395E+03</totfact>
</mgrwt>
</event>
<event>
 5    1  0.3422688E-002  0.1250020E+03  0.7818608E-02  0.1235066E+00
          4   -1    0    0  501    0  0.00000000000E+00  0.00000000000E+00  0.13563233226E+03  0.13563827799E+03  0.12700000000E+01 0.  1.
         -4   -1    0    0    0  501 -0.00000000000E+00 -0.00000000000E+00 -0.28780614642E+02  0.28808621612E+02  0.12700000000E+01 0.  1.
         25    2    1    2    0    0  0.00000000000E+00  0.00000000000E+00  0.10685171762E+03  0.16444689960E+03  0.12500197290E+03 0.  0.
    9000005    1    3    3    0    0 -0.27764805616E+02 -0.33968745617E+01 -0.20091745467E+02  0.34454338240E+02  0.10000000000E+01 0.  0.
    9000005    1    3    3    0    0  0.27764805616E+02  0.33968745617E+01  0.12694346309E+03  0.12999256136E+03  0.10000000000E+01 0.  0.
<mgrwt>
<rscale>  0 0.12500197E+03</rscale>
<asrwt>0</asrwt>
<pdfrwt beam="1">  1        4 0.20869125E-01 0.12500197E+03</pdfrwt>
<pdfrwt beam="2">  1       -4 0.44303986E-02 0.12500197E+03</pdfrwt>
<totfact> 0.96487966E+03</totfact>
</mgrwt>
</event>
<event>
 5    1  0.3422688E-002  0.1250066E+03  0.7818608E-02  0.1235059E+00
         -4   -1    0    0    0  501 -0.00000000000E+00  0.00000000000E+00  0.26190387627E+02  0.26221161379E+02  0.12700000000E+01 0. -1.
          4   -1    0    0  501    0  0.00000000000E+00 -0.00000000000E+00 -0.14904294457E+03  0.14904835533E+03  0.12700000000E+01 0. -1.
         25    2    1    2    0    0  0.00000000000E+00  0.00000000000E+00 -0.12285255694E+03  0.17526951671E+03  0.12500661078E+03 0.  0.
    9000005    1    3    3    0    0 -0.50555367360E+02 -0.18265415178E+02 -0.10612153433E+03  0.11896323217E+03  0.10000000000E+01 0.  0.
    9000005    1    3    3    0    0  0.50555367360E+02  0.18265415178E+02 -0.16731022615E+02  0.56306284536E+02  0.10000000000E+01 0.  0.
<mgrwt>
<rscale>  0 0.12500661E+03</rscale>
<asrwt>0</asrwt>
<pdfrwt beam="2">  1        4 0.22932467E-01 0.12500661E+03</pdfrwt>
<pdfrwt beam="1">  1       -4 0.40320739E-02 0.12500661E+03</pdfrwt>
<totfact> 0.94461493E+03</totfact>
</mgrwt>
</event>
<event>
 5    1  0.3422688E-002  0.1250007E+03  0.7818608E-02  0.1235068E+00
         -4   -1    0    0    0  501 -0.00000000000E+00  0.00000000000E+00  0.27185886882E+03  0.27186183524E+03  0.12700000000E+01 0.  1.
          4   -1    0    0  501    0  0.00000000000E+00 -0.00000000000E+00 -0.14337726077E+02  0.14393862896E+02  0.12700000000E+01 0.  1.
         25    2    1    2    0    0  0.00000000000E+00  0.00000000000E+00  0.25752114275E+03  0.28625569813E+03  0.12500074300E+03 0.  0.
    9000005    1    3    3    0    0 -0.27303745854E+02  0.54613393626E+02  0.15924287866E+03  0.17055032016E+03  0.10000000000E+01 0.  0.
    9000005    1    3    3    0    0  0.27303745854E+02 -0.54613393626E+02  0.98278264087E+02  0.11570537798E+03  0.10000000000E+01 0.  0.
<mgrwt>
<rscale>  0 0.12500074E+03</rscale>
<asrwt>0</asrwt>
<pdfrwt beam="2">  1        4 0.22103508E-02 0.12500074E+03</pdfrwt>
<pdfrwt beam="1">  1       -4 0.41828981E-01 0.12500074E+03</pdfrwt>
<totfact> 0.77354617E+03</totfact>
</mgrwt>
</event>
<event>
 5    1  0.3422688E-002  0.1250032E+03  0.7818608E-02  0.1235064E+00
         -4   -1    0    0    0  501 -0.00000000000E+00  0.00000000000E+00  0.47644059743E+03  0.47644229008E+03  0.12700000000E+01 0. -1.
          4   -1    0    0  501    0  0.00000000000E+00 -0.00000000000E+00 -0.81483396967E+01  0.82467169112E+01  0.12700000000E+01 0. -1.
         25    2    1    2    0    0  0.00000000000E+00  0.00000000000E+00  0.46829225773E+03  0.48468900699E+03  0.12500317935E+03 0.  0.
    9000005    1    3    3    0    0 -0.41099287584E+02 -0.24511460442E+02  0.78300848886E+02  0.91771379358E+02  0.10000000000E+01 0.  0.
    9000005    1    3    3    0    0  0.41099287584E+02  0.24511460442E+02  0.38999140885E+03  0.39291762764E+03  0.10000000000E+01 0.  0.
<mgrwt>
<rscale>  0 0.12500318E+03</rscale>
<asrwt>0</asrwt>
<pdfrwt beam="2">  1        4 0.12612882E-02 0.12500318E+03</pdfrwt>
<pdfrwt beam="1">  1       -4 0.73306261E-01 0.12500318E+03</pdfrwt>
<totfact> 0.57068194E+03</totfact>
</mgrwt>
</event>
<event>
 5    1  0.3422688E-002  0.1249817E+03  0.7818608E-02  0.1235098E+00
         -4   -1    0    0    0  501 -0.00000000000E+00  0.00000000000E+00  0.25275600759E+01  0.28286851958E+01  0.12700000000E+01 0.  1.
          4   -1    0    0  501    0  0.00000000000E+00 -0.00000000000E+00 -0.14578496831E+04  0.14578502363E+04  0.12700000000E+01 0.  1.
         25    2    1    2    0    0  0.00000000000E+00  0.00000000000E+00 -0.14553221230E+04  0.14606789215E+04  0.12498171816E+03 0.  0.
    9000005    1    3    3    0    0 -0.91927450681E+00 -0.37221148587E+02 -0.14122175849E+03  0.14605082690E+03  0.10000000000E+01 0.  0.
    9000005    1    3    3    0    0  0.91927450681E+00  0.37221148587E+02 -0.13141003645E+04  0.13146280946E+04  0.10000000000E+01 0.  0.
<mgrwt>
<rscale>  0 0.12498172E+03</rscale>
<asrwt>0</asrwt>
<pdfrwt beam="2">  1        4 0.22430714E+00 0.12498172E+03</pdfrwt>
<pdfrwt beam="1">  1       -4 0.41206258E-03 0.12498172E+03</pdfrwt>
<totfact> 0.18722628E+03</totfact>
</mgrwt>
</event>
<event>
 5    1  0.3422688E-002  0.1249956E+03  0.7818608E-02  0.1235076E+00
          4   -1    0    0  501    0  0.00000000000E+00  0.00000000000E+00  0.32714947790E+02  0.32739589321E+02  0.12700000000E+01 0. -1.
         -4   -1    0    0    0  501 -0.00000000000E+00 -0.00000000000E+00 -0.11932117299E+03  0.11932793144E+03  0.12700000000E+01 0. -1.
         25    2    1    2    0    0  0.00000000000E+00  0.00000000000E+00 -0.86606225195E+02  0.15206752076E+03  0.12499557044E+03 0.  0.
    9000005    1    3    3    0    0  0.32716400921E+02 -0.52248562255E+02 -0.30854783627E+02  0.68944128246E+02  0.10000000000E+01 0.  0.
    9000005    1    3    3    0    0 -0.32716400921E+02  0.52248562255E+02 -0.55751441567E+02  0.83123392518E+02  0.10000000000E+01 0.  0.
<mgrwt>
<rscale>  0 0.12499557E+03</rscale>
<asrwt>0</asrwt>
<pdfrwt beam="1">  1        4 0.50354843E-02 0.12499557E+03</pdfrwt>
<pdfrwt beam="2">  1       -4 0.18359519E-01 0.12499557E+03</pdfrwt>
<totfact> 0.98903012E+03</totfact>
</mgrwt>
</event>
<event>
 5    1  0.3422688E-002  0.1250023E+03  0.7818608E-02  0.1235066E+00
         -4   -1    0    0    0  501 -0.00000000000E+00  0.00000000000E+00  0.17110068040E+02  0.17157136367E+02  0.12700000000E+01 0. -1.
          4   -1    0    0  501    0  0.00000000000E+00 -0.00000000000E+00 -0.22794731213E+03  0.22795084999E+03  0.12700000000E+01 0. -1.
         25    2    1    2    0    0  0.00000000000E+00  0.00000000000E+00 -0.21083724409E+03  0.24510798635E+03  0.12500232589E+03 0.  0.
    9000005    1    3    3    0    0 -0.53236784722E+02  0.92455626629E+01 -0.16698234800E+03  0.17550994336E+03  0.10000000000E+01 0.  0.
    9000005    1    3    3    0    0  0.53236784722E+02 -0.92455626629E+01 -0.43854896097E+02  0.69598042991E+02  0.10000000000E+01 0.  0.
<mgrwt>
<rscale>  0 0.12500233E+03</rscale>
<asrwt>0</asrwt>
<pdfrwt beam="2">  1        4 0.35072708E-01 0.12500233E+03</pdfrwt>
<pdfrwt beam="1">  1       -4 0.26362111E-02 0.12500233E+03</pdfrwt>
<totfact> 0.83038154E+03</totfact>
</mgrwt>
</event>
<event>
 5    1  0.3422688E-002  0.1249984E+03  0.7818608E-02  0.1235072E+00
          4   -1    0    0  501    0  0.00000000000E+00  0.00000000000E+00  0.12845292114E+03  0.12845919916E+03  0.12700000000E+01 0.  1.
         -4   -1    0    0    0  501 -0.00000000000E+00 -0.00000000000E+00 -0.30388896806E+02  0.30415422882E+02  0.12700000000E+01 0.  1.
         25    2    1    2    0    0  0.00000000000E+00  0.00000000000E+00  0.98064024332E+02  0.15887462204E+03  0.12499837063E+03 0.  0.
    9000005    1    3    3    0    0 -0.97877435999E+01 -0.48246806794E+02  0.10882236770E+00  0.49239883559E+02  0.10000000000E+01 0.  0.
    9000005    1    3    3    0    0  0.97877435999E+01  0.48246806794E+02  0.97955201965E+02  0.10963473848E+03  0.10000000000E+01 0.  0.
<mgrwt>
<rscale>  0 0.12499837E+03</rscale>
<asrwt>0</asrwt>
<pdfrwt beam="1">  1        4 0.19764511E-01 0.12499837E+03</pdfrwt>
<pdfrwt beam="2">  1       -4 0.46777383E-02 0.12499837E+03</pdfrwt>
<totfact> 0.97563762E+03</totfact>
</mgrwt>
</event>
<event>
 5    1  0.3422688E-002  0.1249865E+03  0.7818608E-02  0.1235090E+00
         -4   -1    0    0    0  501 -0.00000000000E+00  0.00000000000E+00  0.59480067398E+02  0.59493624176E+02  0.12700000000E+01 0. -1.
          4   -1    0    0  501    0  0.00000000000E+00 -0.00000000000E+00 -0.65631849567E+02  0.65644135897E+02  0.12700000000E+01 0. -1.
         25    2    1    2    0    0  0.00000000000E+00  0.00000000000E+00 -0.61517821697E+01  0.12513776007E+03  0.12498645756E+03 0.  0.
    9000005    1    3    3    0    0  0.15040533205E+02  0.26600855063E+02  0.51493119784E+02  0.59886263152E+02  0.10000000000E+01 0.  0.
    9000005    1    3    3    0    0 -0.15040533205E+02 -0.26600855063E+02 -0.57644901954E+02  0.65251496921E+02  0.10000000000E+01 0.  0.
<mgrwt>
<rscale>  0 0.12498646E+03</rscale>
<asrwt>0</asrwt>
<pdfrwt beam="2">  1        4 0.10099195E-01 0.12498646E+03</pdfrwt>
<pdfrwt beam="1">  1       -4 0.91527676E-02 0.12498646E+03</pdfrwt>
<totfact> 0.10453070E+04</totfact>
</mgrwt>
</event>
<event>
 5    1  0.3422688E-002  0.1249983E+03  0.7818608E-02  0.1235072E+00
         -4   -1    0    0    0  501 -0.00000000000E+00  0.00000000000E+00  0.49761504967E+03  0.49761667030E+03  0.12700000000E+01 0. -1.
          4   -1    0    0  501    0  0.00000000000E+00 -0.00000000000E+00 -0.77967188755E+01  0.78994762626E+01  0.12700000000E+01 0. -1.
         25    2    1    2    0    0  0.00000000000E+00  0.00000000000E+00  0.48981833079E+03  0.50551614656E+03  0.12499830899E+03 0.  0.
    9000005    1    3    3    0    0  0.36369859114E+02 -0.50773637062E+02  0.25340718827E+03  0.26099220667E+03  0.10000000000E+01 0.  0.
    9000005    1    3    3    0    0 -0.36369859114E+02  0.50773637062E+02  0.23641114252E+03  0.24452393989E+03  0.10000000000E+01 0.  0.
<mgrwt>
<rscale>  0 0.12499831E+03</rscale>
<asrwt>0</asrwt>
<pdfrwt beam="2">  1        4 0.12075240E-02 0.12499831E+03</pdfrwt>
<pdfrwt beam="1">  1       -4 0.76564208E-01 0.12499831E+03</pdfrwt>
<totfact> 0.55440958E+03</totfact>
</mgrwt>
</event>
<event>
 5    1  0.3422688E-002  0.1249828E+03  0.7818608E-02  0.1235096E+00
          4   -1    0    0  501    0  0.00000000000E+00  0.00000000000E+00  0.12498276177E+03  0.12498921409E+03  0.12700000000E+01 0.  1.
         -4   -1    0    0    0  501 -0.00000000000E+00 -0.00000000000E+00 -0.31225545226E+02  0.31251361165E+02  0.12700000000E+01 0.  1.
         25    2    1    2    0    0  0.00000000000E+00  0.00000000000E+00  0.93757216545E+02  0.15624057526E+03  0.12498280563E+03 0.  0.
    9000005    1    3    3    0    0 -0.39652798163E+02  0.47151551738E+02  0.59903762142E+02  0.85936452988E+02  0.10000000000E+01 0.  0.
    9000005    1    3    3    0    0  0.39652798163E+02 -0.47151551738E+02  0.33853454403E+02  0.70304122272E+02  0.10000000000E+01 0.  0.
<mgrwt>
<rscale>  0 0.12498281E+03</rscale>
<asrwt>0</asrwt>
<pdfrwt beam="1">  1        4 0.19230599E-01 0.12498281E+03</pdfrwt>
<pdfrwt beam="2">  1       -4 0.48064122E-02 0.12498281E+03</pdfrwt>
<totfact> 0.98110436E+03</totfact>
</mgrwt>
</event>
<event>
 5    1  0.3422688E-002  0.1250015E+03  0.7818608E-02  0.1235067E+00
         -4   -1    0    0    0  501 -0.00000000000E+00  0.00000000000E+00  0.66000670964E+01  0.67211446702E+01  0.12700000000E+01 0. -1.
          4   -1    0    0  501    0  0.00000000000E+00 -0.00000000000E+00 -0.58636291686E+03  0.58636429220E+03  0.12700000000E+01 0. -1.
         25    2    1    2    0    0  0.00000000000E+00  0.00000000000E+00 -0.57976284976E+03  0.59308543687E+03  0.12500149384E+03 0.  0.
    9000005    1    3    3    0    0  0.17355871800E+02 -0.45079151538E+02 -0.10176506930E+03  0.11265205511E+03  0.10000000000E+01 0.  0.
    9000005    1    3    3    0    0 -0.17355871800E+02  0.45079151538E+02 -0.47799778046E+03  0.48043338176E+03  0.10000000000E+01 0.  0.
<mgrwt>
<rscale>  0 0.12500149E+03</rscale>
<asrwt>0</asrwt>
<pdfrwt beam="2">  1        4 0.90219058E-01 0.12500149E+03</pdfrwt>
<pdfrwt beam="1">  1       -4 0.10248149E-02 0.12500149E+03</pdfrwt>
<totfact> 0.49305408E+03</totfact>
</mgrwt>
</event>
<event>
 5    1  0.3422688E-002  0.1250022E+03  0.7818608E-02  0.1235066E+00
          4   -1    0    0  501    0  0.00000000000E+00  0.00000000000E+00  0.19040072325E+02  0.19082380725E+02  0.12700000000E+01 0.  1.
         -4   -1    0    0    0  501 -0.00000000000E+00 -0.00000000000E+00 -0.20489452724E+03  0.20489846313E+03  0.12700000000E+01 0.  1.
         25    2    1    2    0    0  0.00000000000E+00  0.00000000000E+00 -0.18585445492E+03  0.22398084386E+03  0.12500215999E+03 0.  0.
    9000005    1    3    3    0    0  0.51385597800E+02 -0.16675236091E+02 -0.36639056562E+02  0.65283716390E+02  0.10000000000E+01 0.  0.
    9000005    1    3    3    0    0 -0.51385597800E+02  0.16675236091E+02 -0.14921539836E+03  0.15869712747E+03  0.10000000000E+01 0.  0.
<mgrwt>
<rscale>  0 0.12500216E+03</rscale>
<asrwt>0</asrwt>
<pdfrwt beam="1">  1        4 0.29327993E-02 0.12500216E+03</pdfrwt>
<pdfrwt beam="2">  1       -4 0.31525791E-01 0.12500216E+03</pdfrwt>
<totfact> 0.86238168E+03</totfact>
</mgrwt>
</event>
<event>
 5    1  0.3422688E-002  0.1249997E+03  0.7818608E-02  0.1235070E+00
         -4   -1    0    0    0  501 -0.00000000000E+00  0.00000000000E+00  0.25246833214E+03  0.25247152639E+03  0.12700000000E+01 0.  1.
          4   -1    0    0  501    0  0.00000000000E+00 -0.00000000000E+00 -0.15442816267E+02  0.15494949960E+02  0.12700000000E+01 0.  1.
         25    2    1    2    0    0  0.00000000000E+00  0.00000000000E+00  0.23702551588E+03  0.26796647635E+03  0.12499974907E+03 0.  0.
    9000005    1    3    3    0    0 -0.53488712053E+02 -0.32305086013E+02  0.11688942787E+03  0.13254734719E+03  0.10000000000E+01 0.  0.
    9000005    1    3    3    0    0  0.53488712053E+02  0.32305086013E+02  0.12013608801E+03  0.13541912916E+03  0.10000000000E+01 0.  0.
<mgrwt>
<rscale>  0 0.12499975E+03</rscale>
<asrwt>0</asrwt>
<pdfrwt beam="2">  1        4 0.23800738E-02 0.12499975E+03</pdfrwt>
<pdfrwt beam="1">  1       -4 0.38845539E-01 0.12499975E+03</pdfrwt>
<totfact> 0.79801360E+03</totfact>
</mgrwt>
</event>
<event>
 5    1  0.3422688E-002  0.1250002E+03  0.7818608E-02  0.1235069E+00
          4   -1    0    0  501    0  0.00000000000E+00  0.00000000000E+00  0.60606543714E+02  0.60619848572E+02  0.12700000000E+01 0. -1.
         -4   -1    0    0    0  501 -0.00000000000E+00 -0.00000000000E+00 -0.64426169893E+02  0.64438686106E+02  0.12700000000E+01 0. -1.
         25    2    1    2    0    0  0.00000000000E+00  0.00000000000E+00 -0.38196261795E+01  0.12505853468E+03  0.12500019021E+03 0.  0.
    9000005    1    3    3    0    0 -0.33972308583E+02 -0.50091978887E+02  0.13651796491E+02  0.62053973658E+02  0.10000000000E+01 0.  0.
    9000005    1    3    3    0    0  0.33972308583E+02  0.50091978887E+02 -0.17471422670E+02  0.63004561021E+02  0.10000000000E+01 0.  0.
<mgrwt>
<rscale>  0 0.12500019E+03</rscale>
<asrwt>0</asrwt>
<pdfrwt beam="1">  1        4 0.93260699E-02 0.12500019E+03</pdfrwt>
<pdfrwt beam="2">  1       -4 0.99137047E-02 0.12500019E+03</pdfrwt>
<totfact> 0.10451546E+04</totfact>
</mgrwt>
</event>
<event>
 5    1  0.3422688E-002  0.1249983E+03  0.7818608E-02  0.1235072E+00
          4   -1    0    0  501    0  0.00000000000E+00  0.00000000000E+00  0.56803211305E+01  0.58205625282E+01  0.12700000000E+01 0. -1.
         -4   -1    0    0    0  501 -0.00000000000E+00 -0.00000000000E+00 -0.67913658534E+03  0.67913777280E+03  0.12700000000E+01 0. -1.
         25    2    1    2    0    0  0.00000000000E+00  0.00000000000E+00 -0.67345626421E+03  0.68495833533E+03  0.12499832533E+03 0.  0.
    9000005    1    3    3    0    0 -0.16302770097E+02 -0.43162231619E+02 -0.56768385438E+03  0.56955659690E+03  0.10000000000E+01 0.  0.
    9000005    1    3    3    0    0  0.16302770097E+02  0.43162231619E+02 -0.10577240983E+03  0.11540173843E+03  0.10000000000E+01 0.  0.
<mgrwt>
<rscale>  0 0.12499833E+03</rscale>
<asrwt>0</asrwt>
<pdfrwt beam="1">  1        4 0.88477524E-03 0.12499833E+03</pdfrwt>
<pdfrwt beam="2">  1       -4 0.10449337E+00 0.12499833E+03</pdfrwt>
<totfact> 0.43894338E+03</totfact>
</mgrwt>
</event>
<event>
 5    1  0.3422688E-002  0.1249947E+03  0.7818608E-02  0.1235078E+00
          4   -1    0    0  501    0  0.00000000000E+00  0.00000000000E+00  0.68211989808E+01  0.69384188066E+01  0.12700000000E+01 0. -1.
         -4   -1    0    0    0  501 -0.00000000000E+00 -0.00000000000E+00 -0.56761815402E+03  0.56761957478E+03  0.12700000000E+01 0. -1.
         25    2    1    2    0    0  0.00000000000E+00  0.00000000000E+00 -0.56079695504E+03  0.57455799359E+03  0.12499465274E+03 0.  0.
    9000005    1    3    3    0    0  0.27573944005E+02 -0.19570313263E+02 -0.52195709167E+03  0.52305212464E+03  0.10000000000E+01 0.  0.
    9000005    1    3    3    0    0 -0.27573944005E+02  0.19570313263E+02 -0.38839863375E+02  0.51505868949E+02  0.10000000000E+01 0.  0.
<mgrwt>
<rscale>  0 0.12499465E+03</rscale>
<asrwt>0</asrwt>
<pdfrwt beam="1">  1        4 0.10585419E-02 0.12499465E+03</pdfrwt>
<pdfrwt beam="2">  1       -4 0.87334959E-01 0.12499465E+03</pdfrwt>
<totfact> 0.50519942E+03</totfact>
</mgrwt>
</event>
<event>
 5    1  0.3422688E-002  0.1250038E+03  0.7818608E-02  0.1235063E+00
          4   -1    0    0  501    0  0.00000000000E+00  0.00000000000E+00  0.18890381114E+03  0.18890808019E+03  0.12700000000E+01 0. -1.
         -4   -1    0    0    0  501 -0.00000000000E+00 -0.00000000000E+00 -0.20655776196E+02  0.20694781715E+02  0.12700000000E+01 0. -1.
         25    2    1    2    0    0  0.00000000000E+00  0.00000000000E+00  0.16824803494E+03  0.20960286191E+03  0.12500383377E+03 0.  0.
    9000005    1    3    3    0    0 -0.12533345085E+02  0.60594299382E+02  0.98812359238E+02  0.11659175011E+03  0.10000000000E+01 0.  0.
    9000005    1    3    3    0    0  0.12533345085E+02 -0.60594299382E+02  0.69435675703E+02  0.93011111793E+02  0.10000000000E+01 0.  0.
<mgrwt>
<rscale>  0 0.12500383E+03</rscale>
<asrwt>0</asrwt>
<pdfrwt beam="1">  1        4 0.29065453E-01 0.12500383E+03</pdfrwt>
<pdfrwt beam="2">  1       -4 0.31811407E-02 0.12500383E+03</pdfrwt>
<totfact> 0.88533191E+03</totfact>
</mgrwt>
</event>
<event>
 5    1  0.3422688E-002  0.1249992E+03  0.7818608E-02  0.1235071E+00
          4   -1    0    0  501    0  0.00000000000E+00  0.00000000000E+00  0.14691852745E+03  0.14692401644E+03  0.12700000000E+01 0.  1.
         -4   -1    0    0    0  501 -0.00000000000E+00 -0.00000000000E+00 -0.26566370089E+02  0.26596708814E+02  0.12700000000E+01 0.  1.
         25    2    1    2    0    0  0.00000000000E+00  0.00000000000E+00  0.12035215736E+03  0.17352072526E+03  0.12499920125E+03 0.  0.
    9000005    1    3    3    0    0  0.32275549322E+02 -0.46641415808E+02  0.96589340496E+02  0.11201621958E+03  0.10000000000E+01 0.  0.
    9000005    1    3    3    0    0 -0.32275549322E+02  0.46641415808E+02  0.23762816864E+02  0.61504505672E+02  0.10000000000E+01 0.  0.
<mgrwt>
<rscale>  0 0.12499920E+03</rscale>
<asrwt>0</asrwt>
<pdfrwt beam="1">  1        4 0.22605606E-01 0.12499920E+03</pdfrwt>
<pdfrwt beam="2">  1       -4 0.40898899E-02 0.12499920E+03</pdfrwt>
<totfact> 0.94798165E+03</totfact>
</mgrwt>
</event>
<event>
 5    1  0.3422688E-002  0.1250016E+03  0.7818608E-02  0.1235067E+00
          4   -1    0    0  501    0  0.00000000000E+00  0.00000000000E+00  0.30201580697E+03  0.30201847718E+03  0.12700000000E+01 0. -1.
         -4   -1    0    0    0  501 -0.00000000000E+00 -0.00000000000E+00 -0.12900348711E+02  0.12962711787E+02  0.12700000000E+01 0. -1.
         25    2    1    2    0    0  0.00000000000E+00  0.00000000000E+00  0.28911545826E+03  0.31498118897E+03  0.12500160479E+03 0.  0.
    9000005    1    3    3    0    0  0.58752387693E+02  0.70430887838E+01  0.19519929279E+03  0.20397355727E+03  0.10000000000E+01 0.  0.
    9000005    1    3    3    0    0 -0.58752387693E+02 -0.70430887838E+01  0.93916165469E+02  0.11100763170E+03  0.10000000000E+01 0.  0.
<mgrwt>
<rscale>  0 0.12500160E+03</rscale>
<asrwt>0</asrwt>
<pdfrwt beam="1">  1        4 0.46468972E-01 0.12500160E+03</pdfrwt>
<pdfrwt beam="2">  1       -4 0.19896716E-02 0.12500160E+03</pdfrwt>
<totfact> 0.73754424E+03</totfact>
</mgrwt>
</event>
<event>
 5    1  0.3422688E-002  0.1249999E+03  0.7818608E-02  0.1235069E+00
         -4   -1    0    0    0  501 -0.00000000000E+00  0.00000000000E+00  0.57089086632E+01  0.58484645954E+01  0.12700000000E+01 0.  1.
          4   -1    0    0  501    0  0.00000000000E+00 -0.00000000000E+00 -0.67583435344E+03  0.67583554671E+03  0.12700000000E+01 0.  1.
         25    2    1    2    0    0  0.00000000000E+00  0.00000000000E+00 -0.67012544478E+03  0.68168401130E+03  0.12499991810E+03 0.  0.
    9000005    1    3    3    0    0 -0.30592897614E+02  0.54434128143E+02 -0.34869116442E+03  0.35423936517E+03  0.10000000000E+01 0.  0.
    9000005    1    3    3    0    0  0.30592897614E+02 -0.54434128143E+02 -0.32143428036E+03  0.32744464614E+03  0.10000000000E+01 0.  0.
<mgrwt>
<rscale>  0 0.12499992E+03</rscale>
<asrwt>0</asrwt>
<pdfrwt beam="2">  1        4 0.10398528E+00 0.12499992E+03</pdfrwt>
<pdfrwt beam="1">  1       -4 0.88912104E-03 0.12499992E+03</pdfrwt>
<totfact> 0.44071471E+03</totfact>
</mgrwt>
</event>
<event>
 5    1  0.3422688E-002  0.1249991E+03  0.7818608E-02  0.1235071E+00
         -4   -1    0    0    0  501 -0.00000000000E+00  0.00000000000E+00  0.83781453938E+02  0.83791079024E+02  0.12700000000E+01 0. -1.
          4   -1    0    0  501    0  0.00000000000E+00 -0.00000000000E+00 -0.46602679774E+02  0.46619981361E+02  0.12700000000E+01 0. -1.
         25    2    1    2    0    0  0.00000000000E+00  0.00000000000E+00  0.37178774164E+02  0.13041106039E+03  0.12499913369E+03 0.  0.
    9000005    1    3    3    0    0 -0.15171175817E+02 -0.41516876693E+02 -0.27497605962E+02  0.52066630001E+02  0.10000000000E+01 0.  0.
    9000005    1    3    3    0    0  0.15171175817E+02  0.41516876693E+02  0.64676380125E+02  0.78344430384E+02  0.10000000000E+01 0.  0.
<mgrwt>
<rscale>  0 0.12499913E+03</rscale>
<asrwt>0</asrwt>
<pdfrwt beam="2">  1        4 0.71717144E-02 0.12499913E+03</pdfrwt>
<pdfrwt beam="1">  1       -4 0.12891526E-01 0.12499913E+03</pdfrwt>
<totfact> 0.10335924E+04</totfact>
</mgrwt>
</event>
<event>
 5    1  0.3422688E-002  0.1250004E+03  0.7818608E-02  0.1235069E+00
         -4   -1    0    0    0  501 -0.00000000000E+00  0.00000000000E+00  0.86185264746E+03  0.86185358318E+03  0.12700000000E+01 0.  1.
          4   -1    0    0  501    0  0.00000000000E+00 -0.00000000000E+00 -0.44424926796E+01  0.46204589825E+01  0.12700000000E+01 0.  1.
         25    2    1    2    0    0  0.00000000000E+00  0.00000000000E+00  0.85741015478E+03  0.86647404216E+03  0.12500036886E+03 0.  0.
    9000005    1    3    3    0    0 -0.21585825077E+02 -0.38637335006E+02  0.12288259570E+03  0.13061364334E+03  0.10000000000E+01 0.  0.
    9000005    1    3    3    0    0  0.21585825077E+02  0.38637335006E+02  0.73452755908E+03  0.73586039882E+03  0.10000000000E+01 0.  0.
<mgrwt>
<rscale>  0 0.12500037E+03</rscale>
<asrwt>0</asrwt>
<pdfrwt beam="2">  1        4 0.69722166E-03 0.12500037E+03</pdfrwt>
<pdfrwt beam="1">  1       -4 0.13260656E+00 0.12500037E+03</pdfrwt>
<totfact> 0.35462206E+03</totfact>
</mgrwt>
</event>
<event>
 5    1  0.3422688E-002  0.1250097E+03  0.7818608E-02  0.1235054E+00
          4   -1    0    0  501    0  0.00000000000E+00  0.00000000000E+00  0.19315060025E+03  0.19315477544E+03  0.12700000000E+01 0.  1.
         -4   -1    0    0    0  501 -0.00000000000E+00 -0.00000000000E+00 -0.20202656619E+02  0.20242535277E+02  0.12700000000E+01 0.  1.
         25    2    1    2    0    0  0.00000000000E+00  0.00000000000E+00  0.17294794363E+03  0.21339731072E+03  0.12500968369E+03 0.  0.
    9000005    1    3    3    0    0  0.49575987170E+02 -0.37970441040E+02  0.90766219844E+02  0.11017730965E+03  0.10000000000E+01 0.  0.
    9000005    1    3    3    0    0 -0.49575987170E+02  0.37970441040E+02  0.82181723787E+02  0.10322000107E+03  0.10000000000E+01 0.  0.
<mgrwt>
<rscale>  0 0.12500968E+03</rscale>
<asrwt>0</asrwt>
<pdfrwt beam="1">  1        4 0.29718865E-01 0.12500968E+03</pdfrwt>
<pdfrwt beam="2">  1       -4 0.31114898E-02 0.12500968E+03</pdfrwt>
<totfact> 0.87905017E+03</totfact>
</mgrwt>
</event>
<event>
 5    1  0.3422688E-002  0.1249899E+03  0.7818608E-02  0.1235085E+00
         -4   -1    0    0    0  501 -0.00000000000E+00  0.00000000000E+00  0.30453871235E+02  0.30480340766E+02  0.12700000000E+01 0.  1.
          4   -1    0    0  501    0  0.00000000000E+00 -0.00000000000E+00 -0.12816168884E+03  0.12816798113E+03  0.12700000000E+01 0.  1.
         25    2    1    2    0    0  0.00000000000E+00  0.00000000000E+00 -0.97707817605E+02  0.15864832189E+03  0.12498988926E+03 0.  0.
    9000005    1    3    3    0    0 -0.39546741091E+02 -0.88893227348E+01  0.11509480420E+02  0.42147751176E+02  0.10000000000E+01 0.  0.
    9000005    1    3    3    0    0  0.39546741091E+02  0.88893227348E+01 -0.10921729802E+03  0.11650057072E+03  0.10000000000E+01 0.  0.
<mgrwt>
<rscale>  0 0.12498989E+03</rscale>
<asrwt>0</asrwt>
<pdfrwt beam="2">  1        4 0.19719703E-01 0.12498989E+03</pdfrwt>
<pdfrwt beam="1">  1       -4 0.46877312E-02 0.12498989E+03</pdfrwt>
<totfact> 0.97626201E+03</totfact>
</mgrwt>
</event>
<event>
 5    1  0.3422688E-002  0.1250016E+03  0.7818608E-02  0.1235067E+00
         -4   -1    0    0    0  501 -0.00000000000E+00  0.00000000000E+00  0.97268161770E+02  0.97276452413E+02  0.12700000000E+01 0. -1.
          4   -1    0    0  501    0  0.00000000000E+00 -0.00000000000E+00 -0.40140597593E+02  0.40160683200E+02  0.12700000000E+01 0. -1.
         25    2    1    2    0    0  0.00000000000E+00  0.00000000000E+00  0.57127564177E+02  0.13743713561E+03  0.12500163062E+03 0.  0.
    9000005    1    3    3    0    0  0.50340241729E+02 -0.24507705892E+01  0.69188229205E+02  0.85604656850E+02  0.10000000000E+01 0.  0.
    9000005    1    3    3    0    0 -0.50340241729E+02  0.24507705892E+01 -0.12060665028E+02  0.51832478763E+02  0.10000000000E+01 0.  0.
<mgrwt>
<rscale>  0 0.12500163E+03</rscale>
<asrwt>0</asrwt>
<pdfrwt beam="2">  1        4 0.61776594E-02 0.12500163E+03</pdfrwt>
<pdfrwt beam="1">  1       -4 0.14966515E-01 0.12500163E+03</pdfrwt>
<totfact> 0.10186579E+04</totfact>
</mgrwt>
</event>
<event>
 5    1  0.3422688E-002  0.1249998E+03  0.7818608E-02  0.1235070E+00
         -4   -1    0    0    0  501 -0.00000000000E+00  0.00000000000E+00  0.55680645779E+03  0.55680790614E+03  0.12700000000E+01 0. -1.
          4   -1    0    0  501    0  0.00000000000E+00 -0.00000000000E+00 -0.69564807114E+01  0.70714583989E+01  0.12700000000E+01 0. -1.
         25    2    1    2    0    0  0.00000000000E+00  0.00000000000E+00  0.54984997708E+03  0.56387936454E+03  0.12499976182E+03 0.  0.
    9000005    1    3    3    0    0  0.21770763909E+02 -0.47147028169E+02  0.43173983246E+03  0.43485295372E+03  0.10000000000E+01 0.  0.
    9000005    1    3    3    0    0 -0.21770763909E+02  0.47147028169E+02  0.11811014462E+03  0.12902641082E+03  0.10000000000E+01 0.  0.
<mgrwt>
<rscale>  0 0.12499976E+03</rscale>
<asrwt>0</asrwt>
<pdfrwt beam="2">  1        4 0.10791835E-02 0.12499976E+03</pdfrwt>
<pdfrwt beam="1">  1       -4 0.85671496E-01 0.12499976E+03</pdfrwt>
<totfact> 0.51230288E+03</totfact>
</mgrwt>
</event>
<event>
 5    1  0.3422688E-002  0.1249968E+03  0.7818608E-02  0.1235074E+00
          4   -1    0    0  501    0  0.00000000000E+00  0.00000000000E+00  0.15967805414E+03  0.15968310453E+03  0.12700000000E+01 0.  1.
         -4   -1    0    0    0  501 -0.00000000000E+00 -0.00000000000E+00 -0.24440122700E+02  0.24473097425E+02  0.12700000000E+01 0.  1.
         25    2    1    2    0    0  0.00000000000E+00  0.00000000000E+00  0.13523793144E+03  0.18415620196E+03  0.12499683444E+03 0.  0.
    9000005    1    3    3    0    0  0.19892528051E+02 -0.14764114004E+02 -0.16904064029E+02  0.30007317696E+02  0.10000000000E+01 0.  0.
    9000005    1    3    3    0    0 -0.19892528051E+02  0.14764114004E+02  0.15214199547E+03  0.15414888426E+03  0.10000000000E+01 0.  0.
<mgrwt>
<rscale>  0 0.12499683E+03</rscale>
<asrwt>0</asrwt>
<pdfrwt beam="1">  1        4 0.24568780E-01 0.12499683E+03</pdfrwt>
<pdfrwt beam="2">  1       -4 0.37629438E-02 0.12499683E+03</pdfrwt>
<totfact> 0.92880767E+03</totfact>
</mgrwt>
</event>
<event>
 5    1  0.3422688E-002  0.1250013E+03  0.7818608E-02  0.1235067E+00
          4   -1    0    0  501    0  0.00000000000E+00  0.00000000000E+00  0.14080743546E+03  0.14081316267E+03  0.12700000000E+01 0.  1.
         -4   -1    0    0    0  501 -0.00000000000E+00 -0.00000000000E+00 -0.27721521913E+02  0.27750597780E+02  0.12700000000E+01 0.  1.
         25    2    1    2    0    0  0.00000000000E+00  0.00000000000E+00  0.11308591355E+03  0.16856376045E+03  0.12500126997E+03 0.  0.
    9000005    1    3    3    0    0  0.51049078465E+02 -0.33637790710E+02  0.39073812118E+02  0.72562195181E+02  0.10000000000E+01 0.  0.
    9000005    1    3    3    0    0 -0.51049078465E+02  0.33637790710E+02  0.74012101431E+02  0.96001565270E+02  0.10000000000E+01 0.  0.
<mgrwt>
<rscale>  0 0.12500127E+03</rscale>
<asrwt>0</asrwt>
<pdfrwt beam="1">  1        4 0.21665359E-01 0.12500127E+03</pdfrwt>
<pdfrwt beam="2">  1       -4 0.42675268E-02 0.12500127E+03</pdfrwt>
<totfact> 0.95713968E+03</totfact>
</mgrwt>
</event>
<event>
 5    1  0.3422688E-002  0.1250001E+03  0.7818608E-02  0.1235069E+00
          4   -1    0    0  501    0  0.00000000000E+00  0.00000000000E+00  0.69880599216E+02  0.69892138662E+02  0.12700000000E+01 0. -1.
         -4   -1    0    0    0  501 -0.00000000000E+00 -0.00000000000E+00 -0.55875600064E+02  0.55890031155E+02  0.12700000000E+01 0. -1.
         25    2    1    2    0    0  0.00000000000E+00  0.00000000000E+00  0.14004999152E+02  0.12578216982E+03  0.12500005697E+03 0.  0.
    9000005    1    3    3    0    0  0.42165452986E+02 -0.20981212533E+02 -0.34329027700E+02  0.58289097160E+02  0.10000000000E+01 0.  0.
    9000005    1    3    3    0    0 -0.42165452986E+02  0.20981212533E+02  0.48334026852E+02  0.67493072657E+02  0.10000000000E+01 0.  0.
<mgrwt>
<rscale>  0 0.12500006E+03</rscale>
<asrwt>0</asrwt>
<pdfrwt beam="1">  1        4 0.10752859E-01 0.12500006E+03</pdfrwt>
<pdfrwt beam="2">  1       -4 0.85982439E-02 0.12500006E+03</pdfrwt>
<totfact> 0.10435724E+04</totfact>
</mgrwt>
</event>
<event>
 5    1  0.3422688E-002  0.1249984E+03  0.7818608E-02  0.1235072E+00
          4   -1    0    0  501    0  0.00000000000E+00  0.00000000000E+00  0.82242339370E+03  0.82242437428E+03  0.12700000000E+01 0.  1.
         -4   -1    0    0    0  501 -0.00000000000E+00 -0.00000000000E+00 -0.46636645517E+01  0.48334942900E+01  0.12700000000E+01 0.  1.
         25    2    1    2    0    0  0.00000000000E+00  0.00000000000E+00  0.81775972915E+03  0.82725786857E+03  0.12499842595E+03 0.  0.
    9000005    1    3    3    0    0  0.34738611617E+02 -0.47410630920E+02  0.54936746977E+03  0.55250353474E+03  0.10000000000E+01 0.  0.
    9000005    1    3    3    0    0 -0.34738611617E+02  0.47410630920E+02  0.26839225938E+03  0.27475433383E+03  0.10000000000E+01 0.  0.
<mgrwt>
<rscale>  0 0.12499843E+03</rscale>
<asrwt>0</asrwt>
<pdfrwt beam="1">  1        4 0.12653985E+00 0.12499843E+03</pdfrwt>
<pdfrwt beam="2">  1       -4 0.73062592E-03 0.12499843E+03</pdfrwt>
<totfact> 0.37077702E+03</totfact>
</mgrwt>
</event>
<event>
 5    1  0.3422688E-002  0.1249974E+03  0.7818608E-02  0.1235073E+00
         -4   -1    0    0    0  501 -0.00000000000E+00  0.00000000000E+00  0.88694349106E+02  0.88703441102E+02  0.12700000000E+01 0.  1.
          4   -1    0    0  501    0  0.00000000000E+00 -0.00000000000E+00 -0.44019342470E+02  0.44037659015E+02  0.12700000000E+01 0.  1.
         25    2    1    2    0    0  0.00000000000E+00  0.00000000000E+00  0.44675006636E+02  0.13274110012E+03  0.12499737374E+03 0.  0.
    9000005    1    3    3    0    0 -0.27275725140E+02  0.50896213627E+02  0.47706715635E+02  0.74908747554E+02  0.10000000000E+01 0.  0.
    9000005    1    3    3    0    0  0.27275725140E+02 -0.50896213627E+02 -0.30317089988E+01  0.57832352563E+02  0.10000000000E+01 0.  0.
<mgrwt>
<rscale>  0 0.12499737E+03</rscale>
<asrwt>0</asrwt>
<pdfrwt beam="2">  1        4 0.67743149E-02 0.12499737E+03</pdfrwt>
<pdfrwt beam="1">  1       -4 0.13647393E-01 0.12499737E+03</pdfrwt>
<totfact> 0.10286515E+04</totfact>
</mgrwt>
</event>
<event>
 5    1  0.3422688E-002  0.1250016E+03  0.7818608E-02  0.1235067E+00
          4   -1    0    0  501    0  0.00000000000E+00  0.00000000000E+00  0.44577648857E+03  0.44577829766E+03  0.12700000000E+01 0. -1.
         -4   -1    0    0    0  501 -0.00000000000E+00 -0.00000000000E+00 -0.87151697070E+01  0.88072176663E+01  0.12700000000E+01 0. -1.
         25    2    1    2    0    0  0.00000000000E+00  0.00000000000E+00  0.43706131886E+03  0.45458551532E+03  0.12500157717E+03 0.  0.
    9000005    1    3    3    0    0 -0.50420885902E+02 -0.15092284521E+02  0.34106463565E+03  0.34510306936E+03  0.10000000000E+01 0.  0.
    9000005    1    3    3    0    0  0.50420885902E+02  0.15092284521E+02  0.95996683212E+02  0.10948244597E+03  0.10000000000E+01 0.  0.
<mgrwt>
<rscale>  0 0.12500158E+03</rscale>
<asrwt>0</asrwt>
<pdfrwt beam="1">  1        4 0.68588222E-01 0.12500158E+03</pdfrwt>
<pdfrwt beam="2">  1       -4 0.13480150E-02 0.12500158E+03</pdfrwt>
<totfact> 0.59566527E+03</totfact>
</mgrwt>
</event>
<event>
 5    1  0.3422688E-002  0.1249948E+03  0.7818608E-02  0.1235077E+00
          4   -1    0    0  501    0  0.00000000000E+00  0.00000000000E+00  0.20604221665E+02  0.20643324597E+02  0.12700000000E+01 0. -1.
         -4   -1    0    0    0  501 -0.00000000000E+00 -0.00000000000E+00 -0.18934834671E+03  0.18935260574E+03  0.12700000000E+01 0. -1.
         25    2    1    2    0    0  0.00000000000E+00  0.00000000000E+00 -0.16874412504E+03  0.20999593034E+03  0.12499484398E+03 0.  0.
    9000005    1    3    3    0    0  0.39293810241E+02 -0.31555788431E+02 -0.14644609970E+03  0.15487811796E+03  0.10000000000E+01 0.  0.
    9000005    1    3    3    0    0 -0.39293810241E+02  0.31555788431E+02 -0.22298025344E+02  0.55117812375E+02  0.10000000000E+01 0.  0.
<mgrwt>
<rscale>  0 0.12499484E+03</rscale>
<asrwt>0</asrwt>
<pdfrwt beam="1">  1        4 0.31732159E-02 0.12499484E+03</pdfrwt>
<pdfrwt beam="2">  1       -4 0.29133849E-01 0.12499484E+03</pdfrwt>
<totfact> 0.88486746E+03</totfact>
</mgrwt>
</event>
<event>
 5    1  0.3422688E-002  0.1250093E+03  0.7818608E-02  0.1235055E+00
         -4   -1    0    0    0  501 -0.00000000000E+00  0.00000000000E+00  0.29245478590E+03  0.29245754341E+03  0.12700000000E+01 0.  1.
          4   -1    0    0  501    0  0.00000000000E+00 -0.00000000000E+00 -0.13325732763E+02  0.13386114211E+02  0.12700000000E+01 0.  1.
         25    2    1    2    0    0  0.00000000000E+00  0.00000000000E+00  0.27912905314E+03  0.30584365762E+03  0.12500925806E+03 0.  0.
    9000005    1    3    3    0    0 -0.51909977981E+02 -0.32602353821E+02  0.16935538446E+03  0.18011053699E+03  0.10000000000E+01 0.  0.
    9000005    1    3    3    0    0  0.51909977981E+02  0.32602353821E+02  0.10977366868E+03  0.12573312063E+03  0.10000000000E+01 0.  0.
<mgrwt>
<rscale>  0 0.12500926E+03</rscale>
<asrwt>0</asrwt>
<pdfrwt beam="2">  1        4 0.20549697E-02 0.12500926E+03</pdfrwt>
<pdfrwt beam="1">  1       -4 0.44997897E-01 0.12500926E+03</pdfrwt>
<totfact> 0.74856241E+03</totfact>
</mgrwt>
</event>
<event>
 5    1  0.3422688E-002  0.1250095E+03  0.7818608E-02  0.1235054E+00
          4   -1    0    0  501    0  0.00000000000E+00  0.00000000000E+00  0.29787972954E+03  0.29788243683E+03  0.12700000000E+01 0. -1.
         -4   -1    0    0    0  501 -0.00000000000E+00 -0.00000000000E+00 -0.13081991402E+02  0.13143492650E+02  0.12700000000E+01 0. -1.
         25    2    1    2    0    0  0.00000000000E+00  0.00000000000E+00  0.28479773814E+03  0.31102592948E+03  0.12500950828E+03 0.  0.
    9000005    1    3    3    0    0 -0.38465368550E+02 -0.35924885824E+02  0.22624405892E+03  0.23228765829E+03  0.10000000000E+01 0.  0.
    9000005    1    3    3    0    0  0.38465368550E+02  0.35924885824E+02  0.58553679220E+02  0.78738271186E+02  0.10000000000E+01 0.  0.
<mgrwt>
<rscale>  0 0.12500951E+03</rscale>
<asrwt>0</asrwt>
<pdfrwt beam="1">  1        4 0.45832591E-01 0.12500951E+03</pdfrwt>
<pdfrwt beam="2">  1       -4 0.20175531E-02 0.12500951E+03</pdfrwt>
<totfact> 0.74220600E+03</totfact>
</mgrwt>
</event>
<event>
 5    1  0.3422688E-002  0.1249787E+03  0.7818608E-02  0.1235103E+00
          4   -1    0    0  501    0  0.00000000000E+00  0.00000000000E+00  0.19394707281E+03  0.19395123086E+03  0.12700000000E+01 0.  1.
         -4   -1    0    0    0  501 -0.00000000000E+00 -0.00000000000E+00 -0.20109546591E+02  0.20149609527E+02  0.12700000000E+01 0.  1.
         25    2    1    2    0    0  0.00000000000E+00  0.00000000000E+00  0.17383752622E+03  0.21410084039E+03  0.12497873552E+03 0.  0.
    9000005    1    3    3    0    0 -0.32953308822E+02 -0.51346581567E+02  0.10999980193E+03  0.12579089166E+03  0.10000000000E+01 0.  0.
    9000005    1    3    3    0    0  0.32953308822E+02  0.51346581567E+02  0.63837724293E+02  0.88309948725E+02  0.10000000000E+01 0.  0.
<mgrwt>
<rscale>  0 0.12497874E+03</rscale>
<asrwt>0</asrwt>
<pdfrwt beam="1">  1        4 0.29841413E-01 0.12497874E+03</pdfrwt>
<pdfrwt beam="2">  1       -4 0.30971780E-02 0.12497874E+03</pdfrwt>
<totfact> 0.87852251E+03</totfact>
</mgrwt>
</event>
<event>
 5    1  0.3422688E-002  0.1250004E+03  0.7818608E-02  0.1235069E+00
         -4   -1    0    0    0  501 -0.00000000000E+00  0.00000000000E+00  0.64321114725E+01  0.65562914819E+01  0.12700000000E+01 0. -1.
          4   -1    0    0  501    0  0.00000000000E+00 -0.00000000000E+00 -0.60137702865E+03  0.60137836966E+03  0.12700000000E+01 0. -1.
         25    2    1    2    0    0  0.00000000000E+00  0.00000000000E+00 -0.59494491718E+03  0.60793466114E+03  0.12500039094E+03 0.  0.
    9000005    1    3    3    0    0  0.54785720273E+02 -0.28123880977E+02 -0.24580824937E+03  0.25340703085E+03  0.10000000000E+01 0.  0.
    9000005    1    3    3    0    0 -0.54785720273E+02  0.28123880977E+02 -0.34913666781E+03  0.35452763029E+03  0.10000000000E+01 0.  0.
<mgrwt>
<rscale>  0 0.12500039E+03</rscale>
<asrwt>0</asrwt>
<pdfrwt beam="2">  1        4 0.92529154E-01 0.12500039E+03</pdfrwt>
<pdfrwt beam="1">  1       -4 0.99921155E-03 0.12500039E+03</pdfrwt>
<totfact> 0.48370154E+03</totfact>
</mgrwt>
</event>
<event>
 5    1  0.3422688E-002  0.1249983E+03  0.7818608E-02  0.1235072E+00
          4   -1    0    0  501    0  0.00000000000E+00  0.00000000000E+00  0.61109734081E+01  0.62415459619E+01  0.12700000000E+01 0.  1.
         -4   -1    0    0    0  501 -0.00000000000E+00 -0.00000000000E+00 -0.63231396556E+03  0.63231524095E+03  0.12700000000E+01 0.  1.
         25    2    1    2    0    0  0.00000000000E+00  0.00000000000E+00 -0.62620299215E+03  0.63855678691E+03  0.12499833093E+03 0.  0.
    9000005    1    3    3    0    0  0.80405186262E+01  0.13799037880E+02 -0.44654551240E+01  0.16613358350E+02  0.10000000000E+01 0.  0.
    9000005    1    3    3    0    0 -0.80405186262E+01 -0.13799037880E+02 -0.62173753703E+03  0.62194342856E+03  0.10000000000E+01 0.  0.
<mgrwt>
<rscale>  0 0.12499833E+03</rscale>
<asrwt>0</asrwt>
<pdfrwt beam="1">  1        4 0.95029241E-03 0.12499833E+03</pdfrwt>
<pdfrwt beam="2">  1       -4 0.97289162E-01 0.12499833E+03</pdfrwt>
<totfact> 0.46522547E+03</totfact>
</mgrwt>
</event>
<event>
 5    1  0.3422688E-002  0.1249997E+03  0.7818608E-02  0.1235070E+00
          4   -1    0    0  501    0  0.00000000000E+00  0.00000000000E+00  0.18282946911E+02  0.18327003239E+02  0.12700000000E+01 0.  1.
         -4   -1    0    0    0  501 -0.00000000000E+00 -0.00000000000E+00 -0.21335140363E+03  0.21335518351E+03  0.12700000000E+01 0.  1.
         25    2    1    2    0    0  0.00000000000E+00  0.00000000000E+00 -0.19506845672E+03  0.23168218675E+03  0.12499973140E+03 0.  0.
    9000005    1    3    3    0    0  0.45126498161E+02 -0.33285912285E+02 -0.14866022274E+03  0.15888742750E+03  0.10000000000E+01 0.  0.
    9000005    1    3    3    0    0 -0.45126498161E+02  0.33285912285E+02 -0.46408233979E+02  0.72794759248E+02  0.10000000000E+01 0.  0.
<mgrwt>
<rscale>  0 0.12499973E+03</rscale>
<asrwt>0</asrwt>
<pdfrwt beam="1">  1        4 0.28164409E-02 0.12499973E+03</pdfrwt>
<pdfrwt beam="2">  1       -4 0.32826971E-01 0.12499973E+03</pdfrwt>
<totfact> 0.85052474E+03</totfact>
</mgrwt>
</event>
<event>
 5    1  0.3422688E-002  0.1250033E+03  0.7818608E-02  0.1235064E+00
          4   -1    0    0  501    0  0.00000000000E+00  0.00000000000E+00  0.94861558151E+01  0.95707916156E+01  0.12700000000E+01 0. -1.
         -4   -1    0    0    0  501 -0.00000000000E+00 -0.00000000000E+00 -0.40989131966E+03  0.40989328712E+03  0.12700000000E+01 0. -1.
         25    2    1    2    0    0  0.00000000000E+00  0.00000000000E+00 -0.40040516384E+03  0.41946407874E+03  0.12500327245E+03 0.  0.
    9000005    1    3    3    0    0 -0.50936060068E+02 -0.32809513082E+02 -0.25158947717E+03  0.25878410188E+03  0.10000000000E+01 0.  0.
    9000005    1    3    3    0    0  0.50936060068E+02  0.32809513082E+02 -0.14881568668E+03  0.16067997686E+03  0.10000000000E+01 0.  0.
<mgrwt>
<rscale>  0 0.12500327E+03</rscale>
<asrwt>0</asrwt>
<pdfrwt beam="1">  1        4 0.14660707E-02 0.12500327E+03</pdfrwt>
<pdfrwt beam="2">  1       -4 0.63066851E-01 0.12500327E+03</pdfrwt>
<totfact> 0.62698239E+03</totfact>
</mgrwt>
</event>
<event>
 5    1  0.3422688E-002  0.1250071E+03  0.7818608E-02  0.1235058E+00
         -4   -1    0    0    0  501 -0.00000000000E+00  0.00000000000E+00  0.36961818135E+03  0.36962036319E+03  0.12700000000E+01 0.  1.
          4   -1    0    0  501    0  0.00000000000E+00 -0.00000000000E+00 -0.10529167060E+02  0.10605482496E+02  0.12700000000E+01 0.  1.
         25    2    1    2    0    0  0.00000000000E+00  0.00000000000E+00  0.35908901429E+03  0.38022584568E+03  0.12500709397E+03 0.  0.
    9000005    1    3    3    0    0 -0.43997935237E+02  0.62117422392E+00  0.44560045245E+02  0.62632274386E+02  0.10000000000E+01 0.  0.
    9000005    1    3    3    0    0  0.43997935237E+02 -0.62117422392E+00  0.31452896904E+03  0.31759357130E+03  0.10000000000E+01 0.  0.
<mgrwt>
<rscale>  0 0.12500709E+03</rscale>
<asrwt>0</asrwt>
<pdfrwt beam="2">  1        4 0.16259103E-02 0.12500709E+03</pdfrwt>
<pdfrwt beam="1">  1       -4 0.56870367E-01 0.12500709E+03</pdfrwt>
<totfact> 0.66512096E+03</totfact>
</mgrwt>
</event>
<event>
 5    1  0.3422688E-002  0.1249980E+03  0.7818608E-02  0.1235072E+00
          4   -1    0    0  501    0  0.00000000000E+00  0.00000000000E+00  0.39283649989E+03  0.39283855277E+03  0.12700000000E+01 0. -1.
         -4   -1    0    0    0  501 -0.00000000000E+00 -0.00000000000E+00 -0.99007439119E+01  0.99818650566E+01  0.12700000000E+01 0. -1.
         25    2    1    2    0    0  0.00000000000E+00  0.00000000000E+00  0.38293575597E+03  0.40282041783E+03  0.12499798324E+03 0.  0.
    9000005    1    3    3    0    0  0.78709853924E+01 -0.59079147666E+02  0.13093536971E+03  0.14386580254E+03  0.10000000000E+01 0.  0.
    9000005    1    3    3    0    0 -0.78709853924E+01  0.59079147666E+02  0.25200038627E+03  0.25895461529E+03  0.10000000000E+01 0.  0.
<mgrwt>
<rscale>  0 0.12499798E+03</rscale>
<asrwt>0</asrwt>
<pdfrwt beam="1">  1        4 0.60442788E-01 0.12499798E+03</pdfrwt>
<pdfrwt beam="2">  1       -4 0.15295892E-02 0.12499798E+03</pdfrwt>
<totfact> 0.64282257E+03</totfact>
</mgrwt>
</event>
<event>
 5    1  0.3422688E-002  0.1249989E+03  0.7818608E-02  0.1235071E+00
          4   -1    0    0  501    0  0.00000000000E+00  0.00000000000E+00  0.10925897815E+01  0.16753066676E+01  0.12700000000E+01 0. -1.
         -4   -1    0    0    0  501 -0.00000000000E+00 -0.00000000000E+00 -0.28219063755E+04  0.28219066613E+04  0.12700000000E+01 0. -1.
         25    2    1    2    0    0  0.00000000000E+00  0.00000000000E+00 -0.28208137857E+04  0.28235819679E+04  0.12499886412E+03 0.  0.
    9000005    1    3    3    0    0 -0.24540292452E+01 -0.48273617777E+02 -0.51570132319E+03  0.51796256542E+03  0.10000000000E+01 0.  0.
    9000005    1    3    3    0    0  0.24540292452E+01  0.48273617777E+02 -0.23051124625E+04  0.23056194025E+04  0.10000000000E+01 0.  0.
<mgrwt>
<rscale>  0 0.12499886E+03</rscale>
<asrwt>0</asrwt>
<pdfrwt beam="1">  1        4 0.21293935E-03 0.12499886E+03</pdfrwt>
<pdfrwt beam="2">  1       -4 0.43417968E+00 0.12499886E+03</pdfrwt>
<totfact> 0.25965716E+02</totfact>
</mgrwt>
</event>
<event>
 5    1  0.3422688E-002  0.1250001E+03  0.7818608E-02  0.1235069E+00
         -4   -1    0    0    0  501 -0.00000000000E+00  0.00000000000E+00  0.22859986364E+03  0.22860339139E+03  0.12700000000E+01 0. -1.
          4   -1    0    0  501    0  0.00000000000E+00 -0.00000000000E+00 -0.17060473593E+02  0.17107678370E+02  0.12700000000E+01 0. -1.
         25    2    1    2    0    0  0.00000000000E+00  0.00000000000E+00  0.21153939005E+03  0.24571106976E+03  0.12500006505E+03 0.  0.
    9000005    1    3    3    0    0 -0.56884936593E+01 -0.34033068838E+00  0.22809768981E+03  0.22817105619E+03  0.10000000000E+01 0.  0.
    9000005    1    3    3    0    0  0.56884936593E+01  0.34033068838E+00 -0.16558299764E+02  0.17540013574E+02  0.10000000000E+01 0.  0.
<mgrwt>
<rscale>  0 0.12500007E+03</rscale>
<asrwt>0</asrwt>
<pdfrwt beam="2">  1        4 0.26285909E-02 0.12500007E+03</pdfrwt>
<pdfrwt beam="1">  1       -4 0.35173110E-01 0.12500007E+03</pdfrwt>
<totfact> 0.82953971E+03</totfact>
</mgrwt>
</event>
<event>
 5    1  0.3422688E-002  0.1249876E+03  0.7818608E-02  0.1235089E+00
         -4   -1    0    0    0  501 -0.00000000000E+00  0.00000000000E+00  0.12120913616E+03  0.12121578935E+03  0.12700000000E+01 0. -1.
          4   -1    0    0  501    0  0.00000000000E+00 -0.00000000000E+00 -0.32200928230E+02  0.32225962807E+02  0.12700000000E+01 0. -1.
         25    2    1    2    0    0  0.00000000000E+00  0.00000000000E+00  0.89008207929E+02  0.15344175216E+03  0.12498764030E+03 0.  0.
    9000005    1    3    3    0    0  0.49009481604E+02 -0.33312166311E+02  0.68836712428E+02  0.90835690614E+02  0.10000000000E+01 0.  0.
    9000005    1    3    3    0    0 -0.49009481604E+02  0.33312166311E+02  0.20171495500E+02  0.62606061545E+02  0.10000000000E+01 0.  0.
<mgrwt>
<rscale>  0 0.12498764E+03</rscale>
<asrwt>0</asrwt>
<pdfrwt beam="2">  1        4 0.49564266E-02 0.12498764E+03</pdfrwt>
<pdfrwt beam="1">  1       -4 0.18649997E-01 0.12498764E+03</pdfrwt>
<totfact> 0.98649435E+03</totfact>
</mgrwt>
</event>
<event>
 5    1  0.3422688E-002  0.1250055E+03  0.7818608E-02  0.1235061E+00
         -4   -1    0    0    0  501 -0.00000000000E+00  0.00000000000E+00  0.14718483864E+02  0.14773173906E+02  0.12700000000E+01 0.  1.
          4   -1    0    0  501    0  0.00000000000E+00 -0.00000000000E+00 -0.26487269019E+03  0.26487573485E+03  0.12700000000E+01 0.  1.
         25    2    1    2    0    0  0.00000000000E+00  0.00000000000E+00 -0.25015420633E+03  0.27964890875E+03  0.12500554076E+03 0.  0.
    9000005    1    3    3    0    0  0.63679859922E+01 -0.20414085089E+02  0.62901226117E+01  0.22312591918E+02  0.10000000000E+01 0.  0.
    9000005    1    3    3    0    0 -0.63679859922E+01  0.20414085089E+02 -0.25644432894E+03  0.25733631683E+03  0.10000000000E+01 0.  0.
<mgrwt>
<rscale>  0 0.12500554E+03</rscale>
<asrwt>0</asrwt>
<pdfrwt beam="2">  1        4 0.40754082E-01 0.12500554E+03</pdfrwt>
<pdfrwt beam="1">  1       -4 0.22688234E-02 0.12500554E+03</pdfrwt>
<totfact> 0.78215048E+03</totfact>
</mgrwt>
</event>
<event>
 4    1  0.3422688E-002  0.1250680E+03  0.7818608E-02  0.1234963E+00
          4   -1    0    0  501    0  0.00000000000E+00  0.00000000000E+00  0.31778431283E+02  0.31803798433E+02  0.12700000000E+01 0. -1.
         -4   -1    0    0    0  501 -0.00000000000E+00 -0.00000000000E+00 -0.12297748827E+03  0.12298404580E+03  0.12700000000E+01 0. -1.
    9000005    1    1    2    0    0  0.14771123238E+02  0.57392947899E+02 -0.70270470983E+02  0.91929732091E+02  0.10000000000E+01 0.  0.
    9000005    1    1    2    0    0 -0.14771123238E+02 -0.57392947899E+02 -0.20928586010E+02  0.62858112146E+02  0.10000000000E+01 0.  0.
<mgrwt>
<rscale>  0 0.12506802E+03</rscale>
<asrwt>0</asrwt>
<pdfrwt beam="1">  1        4 0.48914452E-02 0.12506802E+03</pdfrwt>
<pdfrwt beam="2">  1       -4 0.18922069E-01 0.12506802E+03</pdfrwt>
<totfact> 0.98206857E+03</totfact>
</mgrwt>
</event>
<event>
 5    1  0.3422688E-002  0.1250004E+03  0.7818608E-02  0.1235069E+00
          4   -1    0    0  501    0  0.00000000000E+00  0.00000000000E+00  0.19759393122E+03  0.19759801252E+03  0.12700000000E+01 0. -1.
         -4   -1    0    0    0  501 -0.00000000000E+00 -0.00000000000E+00 -0.19744516307E+02  0.19785318401E+02  0.12700000000E+01 0. -1.
         25    2    1    2    0    0  0.00000000000E+00  0.00000000000E+00  0.17784941491E+03  0.21738333092E+03  0.12500039272E+03 0.  0.
    9000005    1    3    3    0    0  0.53788069695E+02  0.27512373010E+02  0.61143922995E+02  0.85963169028E+02  0.10000000000E+01 0.  0.
    9000005    1    3    3    0    0 -0.53788069695E+02 -0.27512373010E+02  0.11670549191E+03  0.13142016190E+03  0.10000000000E+01 0.  0.
<mgrwt>
<rscale>  0 0.12500039E+03</rscale>
<asrwt>0</asrwt>
<pdfrwt beam="1">  1        4 0.30402521E-01 0.12500039E+03</pdfrwt>
<pdfrwt beam="2">  1       -4 0.30410703E-02 0.12500039E+03</pdfrwt>
<totfact> 0.87283336E+03</totfact>
</mgrwt>
</event>
<event>
 5    1  0.3422688E-002  0.1250018E+03  0.7818608E-02  0.1235067E+00
         -4   -1    0    0    0  501 -0.00000000000E+00  0.00000000000E+00  0.38492542050E+01  0.40533514447E+01  0.12700000000E+01 0.  1.
          4   -1    0    0  501    0  0.00000000000E+00 -0.00000000000E+00 -0.98842115740E+03  0.98842197330E+03  0.12700000000E+01 0.  1.
         25    2    1    2    0    0  0.00000000000E+00  0.00000000000E+00 -0.98457190320E+03  0.99247532474E+03  0.12500175063E+03 0.  0.
    9000005    1    3    3    0    0  0.55291491829E+01  0.36646864399E+02 -0.89178699087E+03  0.89255733779E+03  0.10000000000E+01 0.  0.
    9000005    1    3    3    0    0 -0.55291491829E+01 -0.36646864399E+02 -0.92784912327E+02  0.99917986952E+02  0.10000000000E+01 0.  0.
<mgrwt>
<rscale>  0 0.12500175E+03</rscale>
<asrwt>0</asrwt>
<pdfrwt beam="2">  1        4 0.15208036E+00 0.12500175E+03</pdfrwt>
<pdfrwt beam="1">  1       -4 0.60795629E-03 0.12500175E+03</pdfrwt>
<totfact> 0.30853103E+03</totfact>
</mgrwt>
</event>
<event>
 5    1  0.3422688E-002  0.1249983E+03  0.7818608E-02  0.1235072E+00
          4   -1    0    0  501    0  0.00000000000E+00  0.00000000000E+00  0.41120823157E+02  0.41140430201E+02  0.12700000000E+01 0.  1.
         -4   -1    0    0    0  501 -0.00000000000E+00 -0.00000000000E+00 -0.94945393118E+02  0.94953886568E+02  0.12700000000E+01 0.  1.
         25    2    1    2    0    0  0.00000000000E+00  0.00000000000E+00 -0.53824569961E+02  0.13609431677E+03  0.12499831489E+03 0.  0.
    9000005    1    3    3    0    0  0.89489205153E+00  0.37450416993E+02 -0.81370449992E+02  0.89585069608E+02  0.10000000000E+01 0.  0.
    9000005    1    3    3    0    0 -0.89489205153E+00 -0.37450416993E+02  0.27545880031E+02  0.46509247160E+02  0.10000000000E+01 0.  0.
<mgrwt>
<rscale>  0 0.12499831E+03</rscale>
<asrwt>0</asrwt>
<pdfrwt beam="1">  1        4 0.63284421E-02 0.12499831E+03</pdfrwt>
<pdfrwt beam="2">  1       -4 0.14609145E-01 0.12499831E+03</pdfrwt>
<totfact> 0.10215445E+04</totfact>
</mgrwt>
</event>
<event>
 5    1  0.3422688E-002  0.1250010E+03  0.7818608E-02  0.1235068E+00
         -4   -1    0    0    0  501 -0.00000000000E+00  0.00000000000E+00  0.10918828278E+03  0.10919566840E+03  0.12700000000E+01 0.  1.
          4   -1    0    0  501    0  0.00000000000E+00 -0.00000000000E+00 -0.35756071633E+02  0.35778618735E+02  0.12700000000E+01 0.  1.
         25    2    1    2    0    0  0.00000000000E+00  0.00000000000E+00  0.73432211148E+02  0.14497428713E+03  0.12500101718E+03 0.  0.
    9000005    1    3    3    0    0  0.11517898180E+02  0.36242549960E+02 -0.20797170339E+02  0.43355584417E+02  0.10000000000E+01 0.  0.
    9000005    1    3    3    0    0 -0.11517898180E+02 -0.36242549960E+02  0.94229381487E+02  0.10161870271E+03  0.10000000000E+01 0.  0.
<mgrwt>
<rscale>  0 0.12500102E+03</rscale>
<asrwt>0</asrwt>
<pdfrwt beam="2">  1        4 0.55032366E-02 0.12500102E+03</pdfrwt>
<pdfrwt beam="1">  1       -4 0.16800500E-01 0.12500102E+03</pdfrwt>
<totfact> 0.10031281E+04</totfact>
</mgrwt>
</event>
<event>
 5    1  0.3422688E-002  0.1249973E+03  0.7818608E-02  0.1235073E+00
         -4   -1    0    0    0  501 -0.00000000000E+00  0.00000000000E+00  0.79106449341E+02  0.79116643175E+02  0.12700000000E+01 0.  1.
          4   -1    0    0  501    0  0.00000000000E+00 -0.00000000000E+00 -0.49356026784E+02  0.49372363523E+02  0.12700000000E+01 0.  1.
         25    2    1    2    0    0  0.00000000000E+00  0.00000000000E+00  0.29750422557E+02  0.12848900670E+03  0.12499734877E+03 0.  0.
    9000005    1    3    3    0    0  0.24066595302E+02 -0.17489005306E+02 -0.41614575402E+02  0.51164823872E+02  0.10000000000E+01 0.  0.
    9000005    1    3    3    0    0 -0.24066595302E+02  0.17489005306E+02  0.71364997959E+02  0.77324182826E+02  0.10000000000E+01 0.  0.
<mgrwt>
<rscale>  0 0.12499735E+03</rscale>
<asrwt>0</asrwt>
<pdfrwt beam="2">  1        4 0.75952758E-02 0.12499735E+03</pdfrwt>
<pdfrwt beam="1">  1       -4 0.12172264E-01 0.12499735E+03</pdfrwt>
<totfact> 0.10377562E+04</totfact>
</mgrwt>
</event>
<event>
 5    1  0.3422688E-002  0.1250037E+03  0.7818608E-02  0.1235063E+00
          4   -1    0    0  501    0  0.00000000000E+00  0.00000000000E+00  0.14105929954E+02  0.14162985556E+02  0.12700000000E+01 0. -1.
         -4   -1    0    0    0  501 -0.00000000000E+00 -0.00000000000E+00 -0.27632161876E+03  0.27632453726E+03  0.12700000000E+01 0. -1.
         25    2    1    2    0    0  0.00000000000E+00  0.00000000000E+00 -0.26221568881E+03  0.29048752282E+03  0.12500373378E+03 0.  0.
    9000005    1    3    3    0    0  0.18000891733E+02  0.58659803767E+02 -0.10356494145E+03  0.12038148437E+03  0.10000000000E+01 0.  0.
    9000005    1    3    3    0    0 -0.18000891733E+02 -0.58659803767E+02 -0.15865074735E+03  0.17010603845E+03  0.10000000000E+01 0.  0.
<mgrwt>
<rscale>  0 0.12500373E+03</rscale>
<asrwt>0</asrwt>
<pdfrwt beam="1">  1        4 0.21747567E-02 0.12500373E+03</pdfrwt>
<pdfrwt beam="2">  1       -4 0.42515628E-01 0.12500373E+03</pdfrwt>
<totfact> 0.76801404E+03</totfact>
</mgrwt>
</event>
<event>
 5    1  0.3422688E-002  0.1249707E+03  0.7818608E-02  0.1235115E+00
         -4   -1    0    0    0  501 -0.00000000000E+00  0.00000000000E+00  0.67294837291E+03  0.67294957129E+03  0.12700000000E+01 0.  1.
          4   -1    0    0  501    0  0.00000000000E+00 -0.00000000000E+00 -0.57312462843E+01  0.58702712008E+01  0.12700000000E+01 0.  1.
         25    2    1    2    0    0  0.00000000000E+00  0.00000000000E+00  0.66721712663E+03  0.67881984249E+03  0.12497073457E+03 0.  0.
    9000005    1    3    3    0    0 -0.29518956077E+02  0.41010716702E+02  0.53319958052E+03  0.53558943260E+03  0.10000000000E+01 0.  0.
    9000005    1    3    3    0    0  0.29518956077E+02 -0.41010716702E+02  0.13401754611E+03  0.14323040989E+03  0.10000000000E+01 0.  0.
<mgrwt>
<rscale>  0 0.12497073E+03</rscale>
<asrwt>0</asrwt>
<pdfrwt beam="2">  1        4 0.89251614E-03 0.12497073E+03</pdfrwt>
<pdfrwt beam="1">  1       -4 0.10354136E+00 0.12497073E+03</pdfrwt>
<totfact> 0.44256923E+03</totfact>
</mgrwt>
</event>
<event>
 5    1  0.3422688E-002  0.1250050E+03  0.7818608E-02  0.1235061E+00
         -4   -1    0    0    0  501 -0.00000000000E+00  0.00000000000E+00  0.11603998892E+04  0.11604005842E+04  0.12700000000E+01 0. -1.
          4   -1    0    0  501    0  0.00000000000E+00 -0.00000000000E+00 -0.32460713735E+01  0.34856677067E+01  0.12700000000E+01 0. -1.
         25    2    1    2    0    0  0.00000000000E+00  0.00000000000E+00  0.11571538179E+04  0.11638862519E+04  0.12500499674E+03 0.  0.
    9000005    1    3    3    0    0 -0.25104252405E+02  0.99232072029E+01  0.53790229384E+02  0.60192045215E+02  0.10000000000E+01 0.  0.
    9000005    1    3    3    0    0  0.25104252405E+02 -0.99232072029E+01  0.11033635885E+04  0.11036942067E+04  0.10000000000E+01 0.  0.
<mgrwt>
<rscale>  0 0.12500500E+03</rscale>
<asrwt>0</asrwt>
<pdfrwt beam="2">  1        4 0.51787943E-03 0.12500500E+03</pdfrwt>
<pdfrwt beam="1">  1       -4 0.17854158E+00 0.12500500E+03</pdfrwt>
<totfact> 0.25675262E+03</totfact>
</mgrwt>
</event>
<event>
 5    1  0.3422688E-002  0.1250002E+03  0.7818608E-02  0.1235069E+00
         -4   -1    0    0    0  501 -0.00000000000E+00  0.00000000000E+00  0.34543124198E+02  0.34566462494E+02  0.12700000000E+01 0. -1.
          4   -1    0    0  501    0  0.00000000000E+00 -0.00000000000E+00 -0.11301852932E+03  0.11302566465E+03  0.12700000000E+01 0. -1.
         25    2    1    2    0    0  0.00000000000E+00  0.00000000000E+00 -0.78475405118E+02  0.14759212714E+03  0.12500018714E+03 0.  0.
    9000005    1    3    3    0    0  0.27477070423E+02  0.34544102230E+02  0.12995351851E+02  0.46023511031E+02  0.10000000000E+01 0.  0.
    9000005    1    3    3    0    0 -0.27477070423E+02 -0.34544102230E+02 -0.91470756969E+02  0.10156861611E+03  0.10000000000E+01 0.  0.
<mgrwt>
<rscale>  0 0.12500019E+03</rscale>
<asrwt>0</asrwt>
<pdfrwt beam="2">  1        4 0.17389810E-01 0.12500019E+03</pdfrwt>
<pdfrwt beam="1">  1       -4 0.53166710E-02 0.12500019E+03</pdfrwt>
<totfact> 0.99785434E+03</totfact>
</mgrwt>
</event>
<event>
 5    1  0.3422688E-002  0.1250013E+03  0.7818608E-02  0.1235067E+00
         -4   -1    0    0    0  501 -0.00000000000E+00  0.00000000000E+00  0.16501449219E+02  0.16550248528E+02  0.12700000000E+01 0.  1.
          4   -1    0    0  501    0  0.00000000000E+00 -0.00000000000E+00 -0.23632659269E+03  0.23633000510E+03  0.12700000000E+01 0.  1.
         25    2    1    2    0    0  0.00000000000E+00  0.00000000000E+00 -0.21982514347E+03  0.25288025363E+03  0.12500131589E+03 0.  0.
    9000005    1    3    3    0    0 -0.60452529559E+02 -0.14759496770E+02 -0.12153062476E+03  0.13653953212E+03  0.10000000000E+01 0.  0.
    9000005    1    3    3    0    0  0.60452529559E+02  0.14759496770E+02 -0.98294518707E+02  0.11634072152E+03  0.10000000000E+01 0.  0.
<mgrwt>
<rscale>  0 0.12500132E+03</rscale>
<asrwt>0</asrwt>
<pdfrwt beam="2">  1        4 0.36361951E-01 0.12500132E+03</pdfrwt>
<pdfrwt beam="1">  1       -4 0.25427010E-02 0.12500132E+03</pdfrwt>
<totfact> 0.81913316E+03</totfact>
</mgrwt>
</event>
<event>
 5    1  0.3422688E-002  0.1249674E+03  0.7818608E-02  0.1235120E+00
         -4   -1    0    0    0  501 -0.00000000000E+00  0.00000000000E+00  0.89252340396E+02  0.89261375556E+02  0.12700000000E+01 0. -1.
          4   -1    0    0  501    0  0.00000000000E+00 -0.00000000000E+00 -0.43723064667E+02  0.43741505277E+02  0.12700000000E+01 0. -1.
         25    2    1    2    0    0  0.00000000000E+00  0.00000000000E+00  0.45529275728E+02  0.13300288083E+03  0.12496740119E+03 0.  0.
    9000005    1    3    3    0    0 -0.87977433986E+01  0.42052518518E+02  0.71039772227E+02  0.83026886252E+02  0.10000000000E+01 0.  0.
    9000005    1    3    3    0    0  0.87977433986E+01 -0.42052518518E+02 -0.25510496499E+02  0.49975994580E+02  0.10000000000E+01 0.  0.
<mgrwt>
<rscale>  0 0.12496740E+03</rscale>
<asrwt>0</asrwt>
<pdfrwt beam="2">  1        4 0.67287389E-02 0.12496740E+03</pdfrwt>
<pdfrwt beam="1">  1       -4 0.13733243E-01 0.12496740E+03</pdfrwt>
<totfact> 0.10287902E+04</totfact>
</mgrwt>
</event>
<event>
 5    1  0.3422688E-002  0.1249977E+03  0.7818608E-02  0.1235073E+00
          4   -1    0    0  501    0  0.00000000000E+00  0.00000000000E+00  0.12928859407E+02  0.12991085619E+02  0.12700000000E+01 0. -1.
         -4   -1    0    0    0  501 -0.00000000000E+00 -0.00000000000E+00 -0.30133430028E+03  0.30133697654E+03  0.12700000000E+01 0. -1.
         25    2    1    2    0    0  0.00000000000E+00  0.00000000000E+00 -0.28840544088E+03  0.31432806216E+03  0.12499772930E+03 0.  0.
    9000005    1    3    3    0    0 -0.58065531842E+02  0.32341472902E+00 -0.86125407024E+02  0.10387635111E+03  0.10000000000E+01 0.  0.
    9000005    1    3    3    0    0  0.58065531842E+02 -0.32341472902E+00 -0.20228003385E+03  0.21045171104E+03  0.10000000000E+01 0.  0.
<mgrwt>
<rscale>  0 0.12499773E+03</rscale>
<asrwt>0</asrwt>
<pdfrwt beam="1">  1        4 0.19940480E-02 0.12499773E+03</pdfrwt>
<pdfrwt beam="2">  1       -4 0.46364110E-01 0.12499773E+03</pdfrwt>
<totfact> 0.73839564E+03</totfact>
</mgrwt>
</event>
<event>
 5    1  0.3422688E-002  0.1250249E+03  0.7818608E-02  0.1235030E+00
         -4   -1    0    0    0  501 -0.00000000000E+00  0.00000000000E+00  0.76221906081E+02  0.76232485639E+02  0.12700000000E+01 0. -1.
          4   -1    0    0  501    0  0.00000000000E+00 -0.00000000000E+00 -0.51246781890E+02  0.51262516073E+02  0.12700000000E+01 0. -1.
         25    2    1    2    0    0  0.00000000000E+00  0.00000000000E+00  0.24975124191E+02  0.12749500171E+03  0.12502487206E+03 0.  0.
    9000005    1    3    3    0    0  0.86298250774E+01  0.40089237802E+02 -0.35616271010E+02  0.54324392579E+02  0.10000000000E+01 0.  0.
    9000005    1    3    3    0    0 -0.86298250774E+01 -0.40089237802E+02  0.60591395201E+02  0.73170609132E+02  0.10000000000E+01 0.  0.
<mgrwt>
<rscale>  0 0.12502487E+03</rscale>
<asrwt>0</asrwt>
<pdfrwt beam="2">  1        4 0.78861444E-02 0.12502487E+03</pdfrwt>
<pdfrwt beam="1">  1       -4 0.11728471E-01 0.12502487E+03</pdfrwt>
<totfact> 0.10392572E+04</totfact>
</mgrwt>
</event>
<event>
 5    1  0.3422688E-002  0.1249958E+03  0.7818608E-02  0.1235076E+00
          4   -1    0    0  501    0  0.00000000000E+00  0.00000000000E+00  0.16655632400E+02  0.16703981281E+02  0.12700000000E+01 0.  1.
         -4   -1    0    0    0  501 -0.00000000000E+00 -0.00000000000E+00 -0.23412473282E+03  0.23412817733E+03  0.12700000000E+01 0.  1.
         25    2    1    2    0    0  0.00000000000E+00  0.00000000000E+00 -0.21746910042E+03  0.25083215861E+03  0.12499584855E+03 0.  0.
    9000005    1    3    3    0    0 -0.54991865999E+02  0.48384584960E+01 -0.16749677651E+03  0.17636237169E+03  0.10000000000E+01 0.  0.
    9000005    1    3    3    0    0  0.54991865999E+02 -0.48384584960E+01 -0.49972323915E+02  0.74469786922E+02  0.10000000000E+01 0.  0.
<mgrwt>
<rscale>  0 0.12499585E+03</rscale>
<asrwt>0</asrwt>
<pdfrwt beam="1">  1        4 0.25663893E-02 0.12499585E+03</pdfrwt>
<pdfrwt beam="2">  1       -4 0.36023171E-01 0.12499585E+03</pdfrwt>
<totfact> 0.82217708E+03</totfact>
</mgrwt>
</event>
<event>
 5    1  0.3422688E-002  0.1250133E+03  0.7818608E-02  0.1235048E+00
         -4   -1    0    0    0  501 -0.00000000000E+00  0.00000000000E+00  0.75330259044E+02  0.75340963809E+02  0.12700000000E+01 0.  1.
          4   -1    0    0  501    0  0.00000000000E+00 -0.00000000000E+00 -0.51843896456E+02  0.51859449474E+02  0.12700000000E+01 0.  1.
         25    2    1    2    0    0  0.00000000000E+00  0.00000000000E+00  0.23486362588E+02  0.12720041328E+03  0.12501334293E+03 0.  0.
    9000005    1    3    3    0    0 -0.56193599880E+02 -0.27349255921E+02  0.12371652938E+02  0.63716248032E+02  0.10000000000E+01 0.  0.
    9000005    1    3    3    0    0  0.56193599880E+02  0.27349255921E+02  0.11114709649E+02  0.63484165250E+02  0.10000000000E+01 0.  0.
<mgrwt>
<rscale>  0 0.12501334E+03</rscale>
<asrwt>0</asrwt>
<pdfrwt beam="2">  1        4 0.79780039E-02 0.12501334E+03</pdfrwt>
<pdfrwt beam="1">  1       -4 0.11591290E-01 0.12501334E+03</pdfrwt>
<totfact> 0.10401661E+04</totfact>
</mgrwt>
</event>
<event>
 5    1  0.3422688E-002  0.1249827E+03  0.7818608E-02  0.1235096E+00
         -4   -1    0    0    0  501 -0.00000000000E+00  0.00000000000E+00  0.22612810016E+02  0.22648445351E+02  0.12700000000E+01 0. -1.
          4   -1    0    0  501    0  0.00000000000E+00 -0.00000000000E+00 -0.17252327157E+03  0.17252794595E+03  0.12700000000E+01 0. -1.
         25    2    1    2    0    0  0.00000000000E+00  0.00000000000E+00 -0.14991046156E+03  0.19517639130E+03  0.12498270776E+03 0.  0.
    9000005    1    3    3    0    0 -0.40167109394E+02  0.97076708263E+01 -0.17661494843E+01  0.41373358988E+02  0.10000000000E+01 0.  0.
    9000005    1    3    3    0    0  0.40167109394E+02 -0.97076708263E+01 -0.14814431207E+03  0.15380303232E+03  0.10000000000E+01 0.  0.
<mgrwt>
<rscale>  0 0.12498271E+03</rscale>
<asrwt>0</asrwt>
<pdfrwt beam="2">  1        4 0.26545142E-01 0.12498271E+03</pdfrwt>
<pdfrwt beam="1">  1       -4 0.34819947E-02 0.12498271E+03</pdfrwt>
<totfact> 0.90989581E+03</totfact>
</mgrwt>
</event>
<event>
 5    1  0.3422688E-002  0.1250015E+03  0.7818608E-02  0.1235067E+00
         -4   -1    0    0    0  501 -0.00000000000E+00  0.00000000000E+00  0.11574478905E+02  0.11643945291E+02  0.12700000000E+01 0. -1.
          4   -1    0    0  501    0  0.00000000000E+00 -0.00000000000E+00 -0.33641603568E+03  0.33641843285E+03  0.12700000000E+01 0. -1.
         25    2    1    2    0    0  0.00000000000E+00  0.00000000000E+00 -0.32484155678E+03  0.34806237814E+03  0.12500152827E+03 0.  0.
    9000005    1    3    3    0    0  0.52858324809E+02 -0.29207012473E+02 -0.11767022118E+03  0.13226614469E+03  0.10000000000E+01 0.  0.
    9000005    1    3    3    0    0 -0.52858324809E+02  0.29207012473E+02 -0.20717133560E+03  0.21579623346E+03  0.10000000000E+01 0.  0.
<mgrwt>
<rscale>  0 0.12500153E+03</rscale>
<asrwt>0</asrwt>
<pdfrwt beam="2">  1        4 0.51761834E-01 0.12500153E+03</pdfrwt>
<pdfrwt beam="1">  1       -4 0.17862173E-02 0.12500153E+03</pdfrwt>
<totfact> 0.69935883E+03</totfact>
</mgrwt>
</event>
<event>
 5    1  0.3422688E-002  0.1249992E+03  0.7818608E-02  0.1235070E+00
          4   -1    0    0  501    0  0.00000000000E+00  0.00000000000E+00  0.24245194558E+02  0.24278434034E+02  0.12700000000E+01 0. -1.
         -4   -1    0    0    0  501 -0.00000000000E+00 -0.00000000000E+00 -0.16096629851E+03  0.16097130849E+03  0.12700000000E+01 0. -1.
         25    2    1    2    0    0  0.00000000000E+00  0.00000000000E+00 -0.13672110395E+03  0.18524974252E+03  0.12499922735E+03 0.  0.
    9000005    1    3    3    0    0 -0.42882026465E+02 -0.18355459313E+01 -0.10479870796E+01  0.42945729701E+02  0.10000000000E+01 0.  0.
    9000005    1    3    3    0    0  0.42882026465E+02  0.18355459313E+01 -0.13567311687E+03  0.14230401282E+03  0.10000000000E+01 0.  0.
<mgrwt>
<rscale>  0 0.12499923E+03</rscale>
<asrwt>0</asrwt>
<pdfrwt beam="1">  1        4 0.37329723E-02 0.12499923E+03</pdfrwt>
<pdfrwt beam="2">  1       -4 0.24766988E-01 0.12499923E+03</pdfrwt>
<totfact> 0.92682082E+03</totfact>
</mgrwt>
</event>
<event>
 5    1  0.3422688E-002  0.1249944E+03  0.7818608E-02  0.1235078E+00
         -4   -1    0    0    0  501 -0.00000000000E+00  0.00000000000E+00  0.11629244900E+03  0.11629938347E+03  0.12700000000E+01 0. -1.
          4   -1    0    0  501    0  0.00000000000E+00 -0.00000000000E+00 -0.33566919318E+02  0.33590935868E+02  0.12700000000E+01 0. -1.
         25    2    1    2    0    0  0.00000000000E+00  0.00000000000E+00  0.82725529686E+02  0.14989031934E+03  0.12499437815E+03 0.  0.
    9000005    1    3    3    0    0  0.31604473461E+01 -0.53510656854E+02  0.79877054533E+02  0.96201469143E+02  0.10000000000E+01 0.  0.
    9000005    1    3    3    0    0 -0.31604473461E+01  0.53510656854E+02  0.28484751524E+01  0.53688850194E+02  0.10000000000E+01 0.  0.
<mgrwt>
<rscale>  0 0.12499438E+03</rscale>
<asrwt>0</asrwt>
<pdfrwt beam="2">  1        4 0.51665224E-02 0.12499438E+03</pdfrwt>
<pdfrwt beam="1">  1       -4 0.17893527E-01 0.12499438E+03</pdfrwt>
<totfact> 0.99338134E+03</totfact>
</mgrwt>
</event>
<event>
 5    1  0.3422688E-002  0.1250016E+03  0.7818608E-02  0.1235067E+00
          4   -1    0    0  501    0  0.00000000000E+00  0.00000000000E+00  0.15581428699E+02  0.15633100150E+02  0.12700000000E+01 0. -1.
         -4   -1    0    0    0  501 -0.00000000000E+00 -0.00000000000E+00 -0.25023726145E+03  0.25024048417E+03  0.12700000000E+01 0. -1.
         25    2    1    2    0    0  0.00000000000E+00  0.00000000000E+00 -0.23465583275E+03  0.26587358432E+03  0.12500161197E+03 0.  0.
    9000005    1    3    3    0    0  0.10110103110E+02 -0.42504959958E+02 -0.22291419121E+02  0.49059078388E+02  0.10000000000E+01 0.  0.
    9000005    1    3    3    0    0 -0.10110103110E+02  0.42504959958E+02 -0.21236441363E+03  0.21681450593E+03  0.10000000000E+01 0.  0.
<mgrwt>
<rscale>  0 0.12500161E+03</rscale>
<asrwt>0</asrwt>
<pdfrwt beam="1">  1        4 0.24013657E-02 0.12500161E+03</pdfrwt>
<pdfrwt beam="2">  1       -4 0.38502260E-01 0.12500161E+03</pdfrwt>
<totfact> 0.80085917E+03</totfact>
</mgrwt>
</event>
<event>
 5    1  0.3422688E-002  0.1249997E+03  0.7818608E-02  0.1235070E+00
         -4   -1    0    0    0  501 -0.00000000000E+00  0.00000000000E+00  0.19378353359E+02  0.19419924791E+02  0.12700000000E+01 0.  1.
          4   -1    0    0  501    0  0.00000000000E+00 -0.00000000000E+00 -0.20131750147E+03  0.20132150730E+03  0.12700000000E+01 0.  1.
         25    2    1    2    0    0  0.00000000000E+00  0.00000000000E+00 -0.18193914811E+03  0.22074143209E+03  0.12499970489E+03 0.  0.
    9000005    1    3    3    0    0  0.21734727666E+02  0.31693218684E+01  0.12345788592E+02  0.25216294013E+02  0.10000000000E+01 0.  0.
    9000005    1    3    3    0    0 -0.21734727666E+02 -0.31693218684E+01 -0.19428493671E+03  0.19552513807E+03  0.10000000000E+01 0.  0.
<mgrwt>
<rscale>  0 0.12499970E+03</rscale>
<asrwt>0</asrwt>
<pdfrwt beam="2">  1        4 0.30975428E-01 0.12499970E+03</pdfrwt>
<pdfrwt beam="1">  1       -4 0.29847912E-02 0.12499970E+03</pdfrwt>
<totfact> 0.86751736E+03</totfact>
</mgrwt>
</event>
<event>
 5    1  0.3422688E-002  0.1250107E+03  0.7818608E-02  0.1235053E+00
          4   -1    0    0  501    0  0.00000000000E+00  0.00000000000E+00  0.24024564995E+01  0.27174799414E+01  0.12700000000E+01 0.  1.
         -4   -1    0    0    0  501 -0.00000000000E+00 -0.00000000000E+00 -0.15258440700E+04  0.15258445985E+04  0.12700000000E+01 0.  1.
         25    2    1    2    0    0  0.00000000000E+00  0.00000000000E+00 -0.15234416135E+04  0.15285620785E+04  0.12501071149E+03 0.  0.
    9000005    1    3    3    0    0  0.28491218588E+02 -0.18128864269E+02 -0.14047398039E+04  0.14051460144E+04  0.10000000000E+01 0.  0.
    9000005    1    3    3    0    0 -0.28491218588E+02  0.18128864269E+02 -0.11870180963E+03  0.12341606405E+03  0.10000000000E+01 0.  0.
<mgrwt>
<rscale>  0 0.12501071E+03</rscale>
<asrwt>0</asrwt>
<pdfrwt beam="1">  1        4 0.39388314E-03 0.12501071E+03</pdfrwt>
<pdfrwt beam="2">  1       -4 0.23476879E+00 0.12501071E+03</pdfrwt>
<totfact> 0.17371748E+03</totfact>
</mgrwt>
</event>
<event>
 5    1  0.3422688E-002  0.1249993E+03  0.7818608E-02  0.1235070E+00
          4   -1    0    0  501    0  0.00000000000E+00  0.00000000000E+00  0.26041644696E+01  0.28973388798E+01  0.12700000000E+01 0. -1.
         -4   -1    0    0    0  501 -0.00000000000E+00 -0.00000000000E+00 -0.14197578160E+04  0.14197583840E+04  0.12700000000E+01 0. -1.
         25    2    1    2    0    0  0.00000000000E+00  0.00000000000E+00 -0.14171536516E+04  0.14226557229E+04  0.12499933541E+03 0.  0.
    9000005    1    3    3    0    0  0.51426452705E+02  0.16987645458E+02 -0.35375224400E+03  0.35787555137E+03  0.10000000000E+01 0.  0.
    9000005    1    3    3    0    0 -0.51426452705E+02 -0.16987645458E+02 -0.10634014076E+04  0.10647801716E+04  0.10000000000E+01 0.  0.
<mgrwt>
<rscale>  0 0.12499934E+03</rscale>
<asrwt>0</asrwt>
<pdfrwt beam="1">  1        4 0.42323739E-03 0.12499934E+03</pdfrwt>
<pdfrwt beam="2">  1       -4 0.21844629E+00 0.12499934E+03</pdfrwt>
<totfact> 0.19500268E+03</totfact>
</mgrwt>
</event>
<event>
 5    1  0.3422688E-002  0.1250003E+03  0.7818608E-02  0.1235069E+00
          4   -1    0    0  501    0  0.00000000000E+00  0.00000000000E+00  0.26196384625E+02  0.26227151340E+02  0.12700000000E+01 0.  1.
         -4   -1    0    0    0  501 -0.00000000000E+00 -0.00000000000E+00 -0.14899385321E+03  0.14899926575E+03  0.12700000000E+01 0.  1.
         25    2    1    2    0    0  0.00000000000E+00  0.00000000000E+00 -0.12279746859E+03  0.17522641709E+03  0.12500031582E+03 0.  0.
    9000005    1    3    3    0    0  0.29225330089E+02  0.54650871888E+02 -0.50146484847E+02  0.79727709483E+02  0.10000000000E+01 0.  0.
    9000005    1    3    3    0    0 -0.29225330089E+02 -0.54650871888E+02 -0.72650983740E+02  0.95498707610E+02  0.10000000000E+01 0.  0.
<mgrwt>
<rscale>  0 0.12500032E+03</rscale>
<asrwt>0</asrwt>
<pdfrwt beam="1">  1        4 0.40329961E-02 0.12500032E+03</pdfrwt>
<pdfrwt beam="2">  1       -4 0.22924914E-01 0.12500032E+03</pdfrwt>
<totfact> 0.94482720E+03</totfact>
</mgrwt>
</event>
<event>
 5    1  0.3422688E-002  0.1249841E+03  0.7818608E-02  0.1235094E+00
          4   -1    0    0  501    0  0.00000000000E+00  0.00000000000E+00  0.38363209095E+03  0.38363419308E+03  0.12700000000E+01 0. -1.
         -4   -1    0    0    0  501 -0.00000000000E+00 -0.00000000000E+00 -0.10137939299E+02  0.10217177361E+02  0.12700000000E+01 0. -1.
         25    2    1    2    0    0  0.00000000000E+00  0.00000000000E+00  0.37349415165E+03  0.39385137045E+03  0.12498408174E+03 0.  0.
    9000005    1    3    3    0    0 -0.21185059874E+02 -0.58593881755E+02  0.17189773211E+03  0.18284386795E+03  0.10000000000E+01 0.  0.
    9000005    1    3    3    0    0  0.21185059874E+02  0.58593881755E+02  0.20159641954E+03  0.21100750250E+03  0.10000000000E+01 0.  0.
<mgrwt>
<rscale>  0 0.12498408E+03</rscale>
<asrwt>0</asrwt>
<pdfrwt beam="1">  1        4 0.59026587E-01 0.12498408E+03</pdfrwt>
<pdfrwt beam="2">  1       -4 0.15659397E-02 0.12498408E+03</pdfrwt>
<totfact> 0.65178125E+03</totfact>
</mgrwt>
</event>
<event>
 5    1  0.3422688E-002  0.1249995E+03  0.7818608E-02  0.1235070E+00
         -4   -1    0    0    0  501 -0.00000000000E+00  0.00000000000E+00  0.89624151482E+02  0.89633149163E+02  0.12700000000E+01 0. -1.
          4   -1    0    0  501    0  0.00000000000E+00 -0.00000000000E+00 -0.43564036175E+02  0.43582544073E+02  0.12700000000E+01 0. -1.
         25    2    1    2    0    0  0.00000000000E+00  0.00000000000E+00  0.46060115307E+02  0.13321569324E+03  0.12499954681E+03 0.  0.
    9000005    1    3    3    0    0  0.61275618205E+02  0.84870064427E+01  0.32471903628E+02  0.69872420811E+02  0.10000000000E+01 0.  0.
    9000005    1    3    3    0    0 -0.61275618205E+02 -0.84870064427E+01  0.13588211679E+02  0.63343272424E+02  0.10000000000E+01 0.  0.
<mgrwt>
<rscale>  0 0.12499955E+03</rscale>
<asrwt>0</asrwt>
<pdfrwt beam="2">  1        4 0.67042753E-02 0.12499955E+03</pdfrwt>
<pdfrwt beam="1">  1       -4 0.13790447E-01 0.12499955E+03</pdfrwt>
<totfact> 0.10275923E+04</totfact>
</mgrwt>
</event>
<event>
 5    1  0.3422688E-002  0.1250003E+03  0.7818608E-02  0.1235069E+00
          4   -1    0    0  501    0  0.00000000000E+00  0.00000000000E+00  0.92019501091E+02  0.92028264577E+02  0.12700000000E+01 0.  1.
         -4   -1    0    0    0  501 -0.00000000000E+00 -0.00000000000E+00 -0.42430137522E+02  0.42449139804E+02  0.12700000000E+01 0.  1.
         25    2    1    2    0    0  0.00000000000E+00  0.00000000000E+00  0.49589363569E+02  0.13447740438E+03  0.12500026924E+03 0.  0.
    9000005    1    3    3    0    0 -0.32044453096E+02 -0.32147552096E+02  0.71004177460E+02  0.84278735733E+02  0.10000000000E+01 0.  0.
    9000005    1    3    3    0    0  0.32044453096E+02  0.32147552096E+02 -0.21414813891E+02  0.50198668648E+02  0.10000000000E+01 0.  0.
<mgrwt>
<rscale>  0 0.12500027E+03</rscale>
<asrwt>0</asrwt>
<pdfrwt beam="1">  1        4 0.14158982E-01 0.12500027E+03</pdfrwt>
<pdfrwt beam="2">  1       -4 0.65298493E-02 0.12500027E+03</pdfrwt>
<totfact> 0.10249035E+04</totfact>
</mgrwt>
</event>
<event>
 5    1  0.3422688E-002  0.1249987E+03  0.7818608E-02  0.1235071E+00
         -4   -1    0    0    0  501 -0.00000000000E+00  0.00000000000E+00  0.52278648423E+02  0.52294072140E+02  0.12700000000E+01 0. -1.
          4   -1    0    0  501    0  0.00000000000E+00 -0.00000000000E+00 -0.74686438626E+02  0.74697235655E+02  0.12700000000E+01 0. -1.
         25    2    1    2    0    0  0.00000000000E+00  0.00000000000E+00 -0.22407790202E+02  0.12699130780E+03  0.12499873277E+03 0.  0.
    9000005    1    3    3    0    0  0.44359875025E+02  0.36099847955E+02  0.14380334849E+02  0.58981281480E+02  0.10000000000E+01 0.  0.
    9000005    1    3    3    0    0 -0.44359875025E+02 -0.36099847955E+02 -0.36788125051E+02  0.68010026315E+02  0.10000000000E+01 0.  0.
<mgrwt>
<rscale>  0 0.12499873E+03</rscale>
<asrwt>0</asrwt>
<pdfrwt beam="2">  1        4 0.11492238E-01 0.12499873E+03</pdfrwt>
<pdfrwt beam="1">  1       -4 0.80448860E-02 0.12499873E+03</pdfrwt>
<totfact> 0.10409632E+04</totfact>
</mgrwt>
</event>
<event>
 5    1  0.3422688E-002  0.1249979E+03  0.7818608E-02  0.1235073E+00
         -4   -1    0    0    0  501 -0.00000000000E+00  0.00000000000E+00  0.26806831259E+02  0.26836898147E+02  0.12700000000E+01 0.  1.
          4   -1    0    0  501    0  0.00000000000E+00 -0.00000000000E+00 -0.14559904115E+03  0.14560457988E+03  0.12700000000E+01 0.  1.
         25    2    1    2    0    0  0.00000000000E+00  0.00000000000E+00 -0.11879220989E+03  0.17244147803E+03  0.12499789684E+03 0.  0.
    9000005    1    3    3    0    0  0.50451901802E+01  0.16851176422E+01 -0.14529293341E+03  0.14539370710E+03  0.10000000000E+01 0.  0.
    9000005    1    3    3    0    0 -0.50451901802E+01 -0.16851176422E+01  0.26500723519E+02  0.27047770933E+02  0.10000000000E+01 0.  0.
<mgrwt>
<rscale>  0 0.12499790E+03</rscale>
<asrwt>0</asrwt>
<pdfrwt beam="2">  1        4 0.22402591E-01 0.12499790E+03</pdfrwt>
<pdfrwt beam="1">  1       -4 0.41268669E-02 0.12499790E+03</pdfrwt>
<totfact> 0.95000011E+03</totfact>
</mgrwt>
</event>
<event>
 5    1  0.3422688E-002  0.1249971E+03  0.7818608E-02  0.1235074E+00
          4   -1    0    0  501    0  0.00000000000E+00  0.00000000000E+00  0.15932532000E+02  0.15983068414E+02  0.12700000000E+01 0.  1.
         -4   -1    0    0    0  501 -0.00000000000E+00 -0.00000000000E+00 -0.24472270242E+03  0.24472599776E+03  0.12700000000E+01 0.  1.
         25    2    1    2    0    0  0.00000000000E+00  0.00000000000E+00 -0.22879017042E+03  0.26070906617E+03  0.12499710039E+03 0.  0.
    9000005    1    3    3    0    0 -0.37827382435E+02  0.11856975072E+02 -0.21515008748E+03  0.21877399037E+03  0.10000000000E+01 0.  0.
    9000005    1    3    3    0    0  0.37827382435E+02 -0.11856975072E+02 -0.13640082932E+02  0.41935075797E+02  0.10000000000E+01 0.  0.
<mgrwt>
<rscale>  0 0.12499710E+03</rscale>
<asrwt>0</asrwt>
<pdfrwt beam="1">  1        4 0.24552999E-02 0.12499710E+03</pdfrwt>
<pdfrwt beam="2">  1       -4 0.37653785E-01 0.12499710E+03</pdfrwt>
<totfact> 0.80811873E+03</totfact>
</mgrwt>
</event>
<event>
 5    1  0.3422688E-002  0.1250124E+03  0.7818608E-02  0.1235050E+00
          4   -1    0    0  501    0  0.00000000000E+00  0.00000000000E+00  0.11287855799E+02  0.11359075162E+02  0.12700000000E+01 0.  1.
         -4   -1    0    0    0  501 -0.00000000000E+00 -0.00000000000E+00 -0.34496578424E+03  0.34496812200E+03  0.12700000000E+01 0.  1.
         25    2    1    2    0    0  0.00000000000E+00  0.00000000000E+00 -0.33367792844E+03  0.35632719716E+03  0.12501244542E+03 0.  0.
    9000005    1    3    3    0    0 -0.22008019557E+02 -0.41471705051E+02 -0.49255435690E+02  0.68054046093E+02  0.10000000000E+01 0.  0.
    9000005    1    3    3    0    0  0.22008019557E+02  0.41471705051E+02 -0.28442249275E+03  0.28827315107E+03  0.10000000000E+01 0.  0.
<mgrwt>
<rscale>  0 0.12501245E+03</rscale>
<asrwt>0</asrwt>
<pdfrwt beam="1">  1        4 0.17422517E-02 0.12501245E+03</pdfrwt>
<pdfrwt beam="2">  1       -4 0.53077309E-01 0.12501245E+03</pdfrwt>
<totfact> 0.69015050E+03</totfact>
</mgrwt>
</event>
<event>
 5    1  0.3422688E-002  0.1250019E+03  0.7818608E-02  0.1235066E+00
         -4   -1    0    0    0  501 -0.00000000000E+00  0.00000000000E+00  0.19214691855E+03  0.19215111556E+03  0.12700000000E+01 0. -1.
          4   -1    0    0  501    0  0.00000000000E+00 -0.00000000000E+00 -0.20305855611E+02  0.20345531994E+02  0.12700000000E+01 0. -1.
         25    2    1    2    0    0  0.00000000000E+00  0.00000000000E+00  0.17184106294E+03  0.21249664755E+03  0.12500189721E+03 0.  0.
    9000005    1    3    3    0    0 -0.27281200319E+02  0.56174371938E+02  0.89923401595E+02  0.10948535111E+03  0.10000000000E+01 0.  0.
    9000005    1    3    3    0    0  0.27281200319E+02 -0.56174371938E+02  0.81917661348E+02  0.10301129644E+03  0.10000000000E+01 0.  0.
<mgrwt>
<rscale>  0 0.12500190E+03</rscale>
<asrwt>0</asrwt>
<pdfrwt beam="2">  1        4 0.31273527E-02 0.12500190E+03</pdfrwt>
<pdfrwt beam="1">  1       -4 0.29564439E-01 0.12500190E+03</pdfrwt>
<totfact> 0.88066028E+03</totfact>
</mgrwt>
</event>
<event>
 5    1  0.3422688E-002  0.1250034E+03  0.7818608E-02  0.1235064E+00
          4   -1    0    0  501    0  0.00000000000E+00  0.00000000000E+00  0.33102371443E+02  0.33126724788E+02  0.12700000000E+01 0.  1.
         -4   -1    0    0    0  501 -0.00000000000E+00 -0.00000000000E+00 -0.11794040974E+03  0.11794724732E+03  0.12700000000E+01 0.  1.
         25    2    1    2    0    0  0.00000000000E+00  0.00000000000E+00 -0.84838038300E+02  0.15107397211E+03  0.12500340918E+03 0.  0.
    9000005    1    3    3    0    0 -0.55284590629E+02  0.26762027730E+02 -0.28488000571E+02  0.67713796716E+02  0.10000000000E+01 0.  0.
    9000005    1    3    3    0    0  0.55284590629E+02 -0.26762027730E+02 -0.56350037729E+02  0.83360175391E+02  0.10000000000E+01 0.  0.
<mgrwt>
<rscale>  0 0.12500341E+03</rscale>
<asrwt>0</asrwt>
<pdfrwt beam="1">  1        4 0.50950719E-02 0.12500341E+03</pdfrwt>
<pdfrwt beam="2">  1       -4 0.18147078E-01 0.12500341E+03</pdfrwt>
<totfact> 0.99082446E+03</totfact>
</mgrwt>
</event>
<event>
 5    1  0.3422688E-002  0.1249994E+03  0.7818608E-02  0.1235070E+00
          4   -1    0    0  501    0  0.00000000000E+00  0.00000000000E+00  0.76463370978E+02  0.76473917130E+02  0.12700000000E+01 0.  1.
         -4   -1    0    0    0  501 -0.00000000000E+00 -0.00000000000E+00 -0.51064114095E+02  0.51079904544E+02  0.12700000000E+01 0.  1.
         25    2    1    2    0    0  0.00000000000E+00  0.00000000000E+00  0.25399256883E+02  0.12755382167E+03  0.12499942069E+03 0.  0.
    9000005    1    3    3    0    0 -0.28918081653E+02  0.53082162852E+02 -0.34749095495E+01  0.60556143008E+02  0.10000000000E+01 0.  0.
    9000005    1    3    3    0    0  0.28918081653E+02 -0.53082162852E+02  0.28874166433E+02  0.66997678667E+02  0.10000000000E+01 0.  0.
<mgrwt>
<rscale>  0 0.12499942E+03</rscale>
<asrwt>0</asrwt>
<pdfrwt beam="1">  1        4 0.11765621E-01 0.12499942E+03</pdfrwt>
<pdfrwt beam="2">  1       -4 0.78580435E-02 0.12499942E+03</pdfrwt>
<totfact> 0.10397271E+04</totfact>
</mgrwt>
</event>
<event>
 5    1  0.3422688E-002  0.1249977E+03  0.7818608E-02  0.1235073E+00
          4   -1    0    0  501    0  0.00000000000E+00  0.00000000000E+00  0.10290091315E+03  0.10290875001E+03  0.12700000000E+01 0. -1.
         -4   -1    0    0    0  501 -0.00000000000E+00 -0.00000000000E+00 -0.37939973676E+02  0.37961223670E+02  0.12700000000E+01 0. -1.
         25    2    1    2    0    0  0.00000000000E+00  0.00000000000E+00  0.64960939478E+02  0.14086997368E+03  0.12499770328E+03 0.  0.
    9000005    1    3    3    0    0  0.48801394405E+02 -0.32827319166E+01  0.76313405567E+02  0.90648156594E+02  0.10000000000E+01 0.  0.
    9000005    1    3    3    0    0 -0.48801394405E+02  0.32827319166E+01 -0.11352466089E+02  0.50221817082E+02  0.10000000000E+01 0.  0.
<mgrwt>
<rscale>  0 0.12499770E+03</rscale>
<asrwt>0</asrwt>
<pdfrwt beam="1">  1        4 0.15833147E-01 0.12499770E+03</pdfrwt>
<pdfrwt beam="2">  1       -4 0.58391565E-02 0.12499770E+03</pdfrwt>
<totfact> 0.10116110E+04</totfact>
</mgrwt>
</event>
<event>
 5    1  0.3422688E-002  0.1249976E+03  0.7818608E-02  0.1235073E+00
         -4   -1    0    0    0  501 -0.00000000000E+00  0.00000000000E+00  0.51399782913E+02  0.51415470274E+02  0.12700000000E+01 0.  1.
          4   -1    0    0  501    0  0.00000000000E+00 -0.00000000000E+00 -0.75961865861E+02  0.75972481631E+02  0.12700000000E+01 0.  1.
         25    2    1    2    0    0  0.00000000000E+00  0.00000000000E+00 -0.24562082948E+02  0.12738795190E+03  0.12499757746E+03 0.  0.
    9000005    1    3    3    0    0  0.42483441776E+02  0.35355468372E+02  0.17435565278E+02  0.57964220908E+02  0.10000000000E+01 0.  0.
    9000005    1    3    3    0    0 -0.42483441776E+02 -0.35355468372E+02 -0.41997648227E+02  0.69423730997E+02  0.10000000000E+01 0.  0.
<mgrwt>
<rscale>  0 0.12499758E+03</rscale>
<asrwt>0</asrwt>
<pdfrwt beam="2">  1        4 0.11688464E-01 0.12499758E+03</pdfrwt>
<pdfrwt beam="1">  1       -4 0.79096822E-02 0.12499758E+03</pdfrwt>
<totfact> 0.10401297E+04</totfact>
</mgrwt>
</event>
<event>
 5    1  0.3422688E-002  0.1249998E+03  0.7818608E-02  0.1235070E+00
          4   -1    0    0  501    0  0.00000000000E+00  0.00000000000E+00  0.27113591880E+02  0.27143318968E+02  0.12700000000E+01 0.  1.
         -4   -1    0    0    0  501 -0.00000000000E+00 -0.00000000000E+00 -0.14395778502E+03  0.14396338690E+03  0.12700000000E+01 0.  1.
         25    2    1    2    0    0  0.00000000000E+00  0.00000000000E+00 -0.11684419314E+03  0.17110670587E+03  0.12499975729E+03 0.  0.
    9000005    1    3    3    0    0  0.47213647181E+02  0.31767063075E+02 -0.23070602559E+02  0.61412763160E+02  0.10000000000E+01 0.  0.
    9000005    1    3    3    0    0 -0.47213647181E+02 -0.31767063075E+02 -0.93773590583E+02  0.10969394271E+03  0.10000000000E+01 0.  0.
<mgrwt>
<rscale>  0 0.12499976E+03</rscale>
<asrwt>0</asrwt>
<pdfrwt beam="1">  1        4 0.41740395E-02 0.12499976E+03</pdfrwt>
<pdfrwt beam="2">  1       -4 0.22150069E-01 0.12499976E+03</pdfrwt>
<totfact> 0.95243282E+03</totfact>
</mgrwt>
</event>
<event>
 5    1  0.3422688E-002  0.1250012E+03  0.7818608E-02  0.1235067E+00
          4   -1    0    0  501    0  0.00000000000E+00  0.00000000000E+00  0.31050454441E+01  0.33547290814E+01  0.12700000000E+01 0.  1.
         -4   -1    0    0    0  501 -0.00000000000E+00 -0.00000000000E+00 -0.12091807509E+04  0.12091814179E+04  0.12700000000E+01 0.  1.
         25    2    1    2    0    0  0.00000000000E+00  0.00000000000E+00 -0.12060757055E+04  0.12125361469E+04  0.12500120119E+03 0.  0.
    9000005    1    3    3    0    0 -0.31111752106E+02 -0.50780896040E+02 -0.78674956485E+03  0.78900096218E+03  0.10000000000E+01 0.  0.
    9000005    1    3    3    0    0  0.31111752106E+02  0.50780896040E+02 -0.41932614061E+03  0.42353518475E+03  0.10000000000E+01 0.  0.
<mgrwt>
<rscale>  0 0.12500120E+03</rscale>
<asrwt>0</asrwt>
<pdfrwt beam="1">  1        4 0.49695800E-03 0.12500120E+03</pdfrwt>
<pdfrwt beam="2">  1       -4 0.18604670E+00 0.12500120E+03</pdfrwt>
<totfact> 0.24386378E+03</totfact>
</mgrwt>
</event>
<event>
 5    1  0.3422688E-002  0.1249978E+03  0.7818608E-02  0.1235073E+00
          4   -1    0    0  501    0  0.00000000000E+00  0.00000000000E+00  0.30963912784E+03  0.30964173231E+03  0.12700000000E+01 0.  1.
         -4   -1    0    0    0  501 -0.00000000000E+00 -0.00000000000E+00 -0.12580420262E+02  0.12644361351E+02  0.12700000000E+01 0.  1.
         25    2    1    2    0    0  0.00000000000E+00  0.00000000000E+00  0.29705870758E+03  0.32228609366E+03  0.12499780167E+03 0.  0.
    9000005    1    3    3    0    0  0.33456177267E+02  0.51685253941E+02  0.12094824825E+03  0.13572089017E+03  0.10000000000E+01 0.  0.
    9000005    1    3    3    0    0 -0.33456177267E+02 -0.51685253941E+02  0.17611045933E+03  0.18656520350E+03  0.10000000000E+01 0.  0.
<mgrwt>
<rscale>  0 0.12499780E+03</rscale>
<asrwt>0</asrwt>
<pdfrwt beam="1">  1        4 0.47641905E-01 0.12499780E+03</pdfrwt>
<pdfrwt beam="2">  1       -4 0.19405683E-02 0.12499780E+03</pdfrwt>
<totfact> 0.72888599E+03</totfact>
</mgrwt>
</event>
<event>
 5    1  0.3422688E-002  0.1250033E+03  0.7818608E-02  0.1235064E+00
          4   -1    0    0  501    0  0.00000000000E+00  0.00000000000E+00  0.24651154785E+03  0.24651481927E+03  0.12700000000E+01 0. -1.
         -4   -1    0    0    0  501 -0.00000000000E+00 -0.00000000000E+00 -0.15818119842E+02  0.15869020617E+02  0.12700000000E+01 0. -1.
         25    2    1    2    0    0  0.00000000000E+00  0.00000000000E+00  0.23069342800E+03  0.26238383989E+03  0.12500328680E+03 0.  0.
    9000005    1    3    3    0    0 -0.32127475322E+02 -0.12994383747E+02  0.61892939584E+01  0.35218404836E+02  0.10000000000E+01 0.  0.
    9000005    1    3    3    0    0  0.32127475322E+02  0.12994383747E+02  0.22450413405E+03  0.22716543505E+03  0.10000000000E+01 0.  0.
<mgrwt>
<rscale>  0 0.12500329E+03</rscale>
<asrwt>0</asrwt>
<pdfrwt beam="1">  1        4 0.37929017E-01 0.12500329E+03</pdfrwt>
<pdfrwt beam="2">  1       -4 0.24377242E-02 0.12500329E+03</pdfrwt>
<totfact> 0.80566791E+03</totfact>
</mgrwt>
</event>
<event>
 5    1  0.3422688E-002  0.1250016E+03  0.7818608E-02  0.1235067E+00
          4   -1    0    0  501    0  0.00000000000E+00  0.00000000000E+00  0.66421565909E+03  0.66421687323E+03  0.12700000000E+01 0. -1.
         -4   -1    0    0    0  501 -0.00000000000E+00 -0.00000000000E+00 -0.58113554688E+01  0.59485084168E+01  0.12700000000E+01 0. -1.
         25    2    1    2    0    0  0.00000000000E+00  0.00000000000E+00  0.65840430362E+03  0.67016538165E+03  0.12500164690E+03 0.  0.
    9000005    1    3    3    0    0 -0.26560937049E+02  0.42734492586E+02  0.52790384382E+03  0.53029726433E+03  0.10000000000E+01 0.  0.
    9000005    1    3    3    0    0  0.26560937049E+02 -0.42734492586E+02  0.13050045980E+03  0.13986811732E+03  0.10000000000E+01 0.  0.
<mgrwt>
<rscale>  0 0.12500165E+03</rscale>
<asrwt>0</asrwt>
<pdfrwt beam="1">  1        4 0.10219765E+00 0.12500165E+03</pdfrwt>
<pdfrwt beam="2">  1       -4 0.90469845E-03 0.12500165E+03</pdfrwt>
<totfact> 0.44707483E+03</totfact>
</mgrwt>
</event>
<event>
 5    1  0.3422688E-002  0.1250033E+03  0.7818608E-02  0.1235064E+00
         -4   -1    0    0    0  501 -0.00000000000E+00  0.00000000000E+00  0.71226087588E+02  0.71237409084E+02  0.12700000000E+01 0. -1.
          4   -1    0    0  501    0  0.00000000000E+00 -0.00000000000E+00 -0.54822869748E+02  0.54837577877E+02  0.12700000000E+01 0. -1.
         25    2    1    2    0    0  0.00000000000E+00  0.00000000000E+00  0.16403217840E+02  0.12607498696E+03  0.12500334708E+03 0.  0.
    9000005    1    3    3    0    0 -0.58558017305E+02 -0.97007283890E+01  0.27922076386E+02  0.65603261136E+02  0.10000000000E+01 0.  0.
    9000005    1    3    3    0    0  0.58558017305E+02  0.97007283890E+01 -0.11518858546E+02  0.60471725825E+02  0.10000000000E+01 0.  0.
<mgrwt>
<rscale>  0 0.12500335E+03</rscale>
<asrwt>0</asrwt>
<pdfrwt beam="2">  1        4 0.84362899E-02 0.12500335E+03</pdfrwt>
<pdfrwt beam="1">  1       -4 0.10959862E-01 0.12500335E+03</pdfrwt>
<totfact> 0.10428527E+04</totfact>
</mgrwt>
</event>
<event>
 5    1  0.3422688E-002  0.1249994E+03  0.7818608E-02  0.1235070E+00
         -4   -1    0    0    0  501 -0.00000000000E+00  0.00000000000E+00  0.76053478644E+02  0.76064081627E+02  0.12700000000E+01 0. -1.
          4   -1    0    0  501    0  0.00000000000E+00 -0.00000000000E+00 -0.51339359490E+02  0.51355065309E+02  0.12700000000E+01 0. -1.
         25    2    1    2    0    0  0.00000000000E+00  0.00000000000E+00  0.24714119154E+02  0.12741914694E+03  0.12499940528E+03 0.  0.
    9000005    1    3    3    0    0  0.18859168300E+02 -0.10751984906E+02  0.72091260881E+02  0.75295572936E+02  0.10000000000E+01 0.  0.
    9000005    1    3    3    0    0 -0.18859168300E+02  0.10751984906E+02 -0.47377141727E+02  0.52123574001E+02  0.10000000000E+01 0.  0.
<mgrwt>
<rscale>  0 0.12499941E+03</rscale>
<asrwt>0</asrwt>
<pdfrwt beam="2">  1        4 0.79003867E-02 0.12499941E+03</pdfrwt>
<pdfrwt beam="1">  1       -4 0.11702559E-01 0.12499941E+03</pdfrwt>
<totfact> 0.10400192E+04</totfact>
</mgrwt>
</event>
<event>
 5    1  0.3422688E-002  0.1249985E+03  0.7818608E-02  0.1235072E+00
         -4   -1    0    0    0  501 -0.00000000000E+00  0.00000000000E+00  0.38361657921E+03  0.38361868143E+03  0.12700000000E+01 0. -1.
          4   -1    0    0  501    0  0.00000000000E+00 -0.00000000000E+00 -0.10140704644E+02  0.10219921266E+02  0.12700000000E+01 0. -1.
         25    2    1    2    0    0  0.00000000000E+00  0.00000000000E+00  0.37347587456E+03  0.39383860269E+03  0.12499846436E+03 0.  0.
    9000005    1    3    3    0    0  0.52530766097E+02  0.33026305177E+02  0.16338500918E+03  0.17477379508E+03  0.10000000000E+01 0.  0.
    9000005    1    3    3    0    0 -0.52530766097E+02 -0.33026305177E+02  0.21009086538E+03  0.21906480762E+03  0.10000000000E+01 0.  0.
<mgrwt>
<rscale>  0 0.12499846E+03</rscale>
<asrwt>0</asrwt>
<pdfrwt beam="2">  1        4 0.15663638E-02 0.12499846E+03</pdfrwt>
<pdfrwt beam="1">  1       -4 0.59024187E-01 0.12499846E+03</pdfrwt>
<totfact> 0.65158693E+03</totfact>
</mgrwt>
</event>
<event>
 5    1  0.3422688E-002  0.1249907E+03  0.7818608E-02  0.1235084E+00
         -4   -1    0    0    0  501 -0.00000000000E+00  0.00000000000E+00  0.29850515285E+02  0.29877519355E+02  0.12700000000E+01 0. -1.
          4   -1    0    0  501    0  0.00000000000E+00 -0.00000000000E+00 -0.13075174906E+03  0.13075791671E+03  0.12700000000E+01 0. -1.
         25    2    1    2    0    0  0.00000000000E+00  0.00000000000E+00 -0.10090123377E+03  0.16063543606E+03  0.12499073703E+03 0.  0.
    9000005    1    3    3    0    0  0.60937450051E+02  0.73706429265E+00 -0.68200745176E+02  0.91467249467E+02  0.10000000000E+01 0.  0.
    9000005    1    3    3    0    0 -0.60937450051E+02 -0.73706429265E+00 -0.32700488598E+02  0.69168186596E+02  0.10000000000E+01 0.  0.
<mgrwt>
<rscale>  0 0.12499074E+03</rscale>
<asrwt>0</asrwt>
<pdfrwt beam="2">  1        4 0.20118205E-01 0.12499074E+03</pdfrwt>
<pdfrwt beam="1">  1       -4 0.45949387E-02 0.12499074E+03</pdfrwt>
<totfact> 0.97240661E+03</totfact>
</mgrwt>
</event>
<event>
 5    1  0.3422688E-002  0.1249952E+03  0.7818608E-02  0.1235077E+00
          4   -1    0    0  501    0  0.00000000000E+00  0.00000000000E+00  0.42246726575E+03  0.42246917465E+03  0.12700000000E+01 0.  1.
         -4   -1    0    0    0  501 -0.00000000000E+00 -0.00000000000E+00 -0.92000188516E+01  0.92872626144E+01  0.12700000000E+01 0.  1.
         25    2    1    2    0    0  0.00000000000E+00  0.00000000000E+00  0.41326724690E+03  0.43175643727E+03  0.12499521495E+03 0.  0.
    9000005    1    3    3    0    0 -0.37134571781E+02 -0.33205766716E+02  0.33695075946E+03  0.34061475844E+03  0.10000000000E+01 0.  0.
    9000005    1    3    3    0    0  0.37134571781E+02  0.33205766716E+02  0.76316487436E+02  0.91141678825E+02  0.10000000000E+01 0.  0.
<mgrwt>
<rscale>  0 0.12499521E+03</rscale>
<asrwt>0</asrwt>
<pdfrwt beam="1">  1        4 0.65001812E-01 0.12499521E+03</pdfrwt>
<pdfrwt beam="2">  1       -4 0.14222456E-02 0.12499521E+03</pdfrwt>
<totfact> 0.61583604E+03</totfact>
</mgrwt>
</event>
<event>
 5    1  0.3422688E-002  0.1249996E+03  0.7818608E-02  0.1235070E+00
         -4   -1    0    0    0  501 -0.00000000000E+00  0.00000000000E+00  0.14339249878E+02  0.14395380754E+02  0.12700000000E+01 0. -1.
          4   -1    0    0  501    0  0.00000000000E+00 -0.00000000000E+00 -0.27182515814E+03  0.27182812493E+03  0.12700000000E+01 0. -1.
         25    2    1    2    0    0  0.00000000000E+00  0.00000000000E+00 -0.25748590827E+03  0.28622350568E+03  0.12499960899E+03 0.  0.
    9000005    1    3    3    0    0  0.50456579486E+02  0.35519661264E+02 -0.15137753193E+03  0.16347375913E+03  0.10000000000E+01 0.  0.
    9000005    1    3    3    0    0 -0.50456579486E+02 -0.35519661264E+02 -0.10610837633E+03  0.12274974655E+03  0.10000000000E+01 0.  0.
<mgrwt>
<rscale>  0 0.12499961E+03</rscale>
<asrwt>0</asrwt>
<pdfrwt beam="2">  1        4 0.41823797E-01 0.12499961E+03</pdfrwt>
<pdfrwt beam="1">  1       -4 0.22105846E-02 0.12499961E+03</pdfrwt>
<totfact> 0.77360759E+03</totfact>
</mgrwt>
</event>
<event>
 5    1  0.3422688E-002  0.1249950E+03  0.7818608E-02  0.1235077E+00
          4   -1    0    0  501    0  0.00000000000E+00  0.00000000000E+00  0.16830314061E+02  0.16878162559E+02  0.12700000000E+01 0.  1.
         -4   -1    0    0    0  501 -0.00000000000E+00 -0.00000000000E+00 -0.23169848346E+03  0.23170196404E+03  0.12700000000E+01 0.  1.
         25    2    1    2    0    0  0.00000000000E+00  0.00000000000E+00 -0.21486816940E+03  0.24858012660E+03  0.12499499637E+03 0.  0.
    9000005    1    3    3    0    0 -0.20594949902E+02  0.56837044877E+02 -0.75968549366E+02  0.97091823160E+02  0.10000000000E+01 0.  0.
    9000005    1    3    3    0    0  0.20594949902E+02 -0.56837044877E+02 -0.13889962004E+03  0.15148830344E+03  0.10000000000E+01 0.  0.
<mgrwt>
<rscale>  0 0.12499500E+03</rscale>
<asrwt>0</asrwt>
<pdfrwt beam="1">  1        4 0.25932276E-02 0.12499500E+03</pdfrwt>
<pdfrwt beam="2">  1       -4 0.35649867E-01 0.12499500E+03</pdfrwt>
<totfact> 0.82545080E+03</totfact>
</mgrwt>
</event>
<event>
 5    1  0.3422688E-002  0.1249977E+03  0.7818608E-02  0.1235073E+00
         -4   -1    0    0    0  501 -0.00000000000E+00  0.00000000000E+00  0.22075200565E+02  0.22111702331E+02  0.12700000000E+01 0. -1.
          4   -1    0    0  501    0  0.00000000000E+00 -0.00000000000E+00 -0.17676061753E+03  0.17676517986E+03  0.12700000000E+01 0. -1.
         25    2    1    2    0    0  0.00000000000E+00  0.00000000000E+00 -0.15468541697E+03  0.19887688219E+03  0.12499774417E+03 0.  0.
    9000005    1    3    3    0    0 -0.20414909674E+02  0.26258146300E+02 -0.16151554393E+03  0.16490763995E+03  0.10000000000E+01 0.  0.
    9000005    1    3    3    0    0  0.20414909674E+02 -0.26258146300E+02  0.68301269579E+01  0.33969242240E+02  0.10000000000E+01 0.  0.
<mgrwt>
<rscale>  0 0.12499774E+03</rscale>
<asrwt>0</asrwt>
<pdfrwt beam="2">  1        4 0.27197099E-01 0.12499774E+03</pdfrwt>
<pdfrwt beam="1">  1       -4 0.33993436E-02 0.12499774E+03</pdfrwt>
<totfact> 0.90329836E+03</totfact>
</mgrwt>
</event>
<event>
 5    1  0.3422688E-002  0.1250047E+03  0.7818608E-02  0.1235062E+00
          4   -1    0    0  501    0  0.00000000000E+00  0.00000000000E+00  0.10849522544E+04  0.10849529977E+04  0.12700000000E+01 0.  1.
         -4   -1    0    0    0  501 -0.00000000000E+00 -0.00000000000E+00 -0.34879049023E+01  0.37119241112E+01  0.12700000000E+01 0.  1.
         25    2    1    2    0    0  0.00000000000E+00  0.00000000000E+00  0.10814643495E+04  0.10886649218E+04  0.12500469094E+03 0.  0.
    9000005    1    3    3    0    0  0.59709306958E+02  0.21426662181E+01  0.38115290676E+03  0.38580867109E+03  0.10000000000E+01 0.  0.
    9000005    1    3    3    0    0 -0.59709306958E+02 -0.21426662181E+01  0.70031144275E+03  0.70285625074E+03  0.10000000000E+01 0.  0.
<mgrwt>
<rscale>  0 0.12500469E+03</rscale>
<asrwt>0</asrwt>
<pdfrwt beam="1">  1        4 0.16693293E+00 0.12500469E+03</pdfrwt>
<pdfrwt beam="2">  1       -4 0.55389047E-03 0.12500469E+03</pdfrwt>
<totfact> 0.27814692E+03</totfact>
</mgrwt>
</event>
<event>
 5    1  0.3422688E-002  0.1249982E+03  0.7818608E-02  0.1235072E+00
          4   -1    0    0  501    0  0.00000000000E+00  0.00000000000E+00  0.29004414434E+03  0.29004692477E+03  0.12700000000E+01 0.  1.
         -4   -1    0    0    0  501 -0.00000000000E+00 -0.00000000000E+00 -0.13434596938E+02  0.13494491279E+02  0.12700000000E+01 0.  1.
         25    2    1    2    0    0  0.00000000000E+00  0.00000000000E+00  0.27660954741E+03  0.30354141605E+03  0.12499819815E+03 0.  0.
    9000005    1    3    3    0    0 -0.58901255228E+02 -0.51493774761E+01  0.89178290840E+02  0.10700299768E+03  0.10000000000E+01 0.  0.
    9000005    1    3    3    0    0  0.58901255228E+02  0.51493774761E+01  0.18743125657E+03  0.19653841837E+03  0.10000000000E+01 0.  0.
<mgrwt>
<rscale>  0 0.12499820E+03</rscale>
<asrwt>0</asrwt>
<pdfrwt beam="1">  1        4 0.44626996E-01 0.12499820E+03</pdfrwt>
<pdfrwt beam="2">  1       -4 0.20716822E-02 0.12499820E+03</pdfrwt>
<totfact> 0.75159751E+03</totfact>
</mgrwt>
</event>
<event>
 5    1  0.3422688E-002  0.1250024E+03  0.7818608E-02  0.1235066E+00
          4   -1    0    0  501    0  0.00000000000E+00  0.00000000000E+00  0.57868065592E+02  0.57881999925E+02  0.12700000000E+01 0. -1.
         -4   -1    0    0    0  501 -0.00000000000E+00 -0.00000000000E+00 -0.67477223854E+02  0.67489174236E+02  0.12700000000E+01 0. -1.
         25    2    1    2    0    0  0.00000000000E+00  0.00000000000E+00 -0.96091582621E+01  0.12537117416E+03  0.12500238153E+03 0.  0.
    9000005    1    3    3    0    0  0.45577848919E+02 -0.53061127463E+01 -0.47355017747E+02  0.65946894168E+02  0.10000000000E+01 0.  0.
    9000005    1    3    3    0    0 -0.45577848919E+02  0.53061127463E+01  0.37745859485E+02  0.59424279994E+02  0.10000000000E+01 0.  0.
<mgrwt>
<rscale>  0 0.12500238E+03</rscale>
<asrwt>0</asrwt>
<pdfrwt beam="1">  1        4 0.89047705E-02 0.12500238E+03</pdfrwt>
<pdfrwt beam="2">  1       -4 0.10383102E-01 0.12500238E+03</pdfrwt>
<totfact> 0.10444244E+04</totfact>
</mgrwt>
</event>
<event>
 5    1  0.3422688E-002  0.1250034E+03  0.7818608E-02  0.1235064E+00
          4   -1    0    0  501    0  0.00000000000E+00  0.00000000000E+00  0.89791446232E+02  0.89800427150E+02  0.12700000000E+01 0.  1.
         -4   -1    0    0    0  501 -0.00000000000E+00 -0.00000000000E+00 -0.43485550863E+02  0.43504092151E+02  0.12700000000E+01 0.  1.
         25    2    1    2    0    0  0.00000000000E+00  0.00000000000E+00  0.46305895368E+02  0.13330451930E+03  0.12500343563E+03 0.  0.
    9000005    1    3    3    0    0  0.61676787771E+02  0.99500215236E+01  0.24817243582E+02  0.67230384924E+02  0.10000000000E+01 0.  0.
    9000005    1    3    3    0    0 -0.61676787771E+02 -0.99500215236E+01  0.21488651786E+02  0.66074134377E+02  0.10000000000E+01 0.  0.
<mgrwt>
<rscale>  0 0.12500344E+03</rscale>
<asrwt>0</asrwt>
<pdfrwt beam="1">  1        4 0.13816186E-01 0.12500344E+03</pdfrwt>
<pdfrwt beam="2">  1       -4 0.66922018E-02 0.12500344E+03</pdfrwt>
<totfact> 0.10273136E+04</totfact>
</mgrwt>
</event>
<event>
 5    1  0.3422688E-002  0.1249988E+03  0.7818608E-02  0.1235071E+00
         -4   -1    0    0    0  501 -0.00000000000E+00  0.00000000000E+00  0.92454208814E+03  0.92454296041E+03  0.12700000000E+01 0.  1.
          4   -1    0    0  501    0  0.00000000000E+00 -0.00000000000E+00 -0.41286496235E+01  0.43195656858E+01  0.12700000000E+01 0.  1.
         25    2    1    2    0    0  0.00000000000E+00  0.00000000000E+00  0.92041343851E+03  0.92886252609E+03  0.12499877832E+03 0.  0.
    9000005    1    3    3    0    0 -0.33685090466E+01  0.56766349963E+02  0.26765871221E+03  0.27363470460E+03  0.10000000000E+01 0.  0.
    9000005    1    3    3    0    0  0.33685090466E+01 -0.56766349963E+02  0.65275472631E+03  0.65522782149E+03  0.10000000000E+01 0.  0.
<mgrwt>
<rscale>  0 0.12499878E+03</rscale>
<asrwt>0</asrwt>
<pdfrwt beam="2">  1        4 0.64992988E-03 0.12499878E+03</pdfrwt>
<pdfrwt beam="1">  1       -4 0.14225198E+00 0.12499878E+03</pdfrwt>
<totfact> 0.33079405E+03</totfact>
</mgrwt>
</event>
<event>
 5    1  0.3422688E-002  0.1250075E+03  0.7818608E-02  0.1235057E+00
         -4   -1    0    0    0  501 -0.00000000000E+00  0.00000000000E+00  0.11531568332E+02  0.11601291661E+02  0.12700000000E+01 0. -1.
          4   -1    0    0  501    0  0.00000000000E+00 -0.00000000000E+00 -0.33769287331E+03  0.33769526141E+03  0.12700000000E+01 0. -1.
         25    2    1    2    0    0  0.00000000000E+00  0.00000000000E+00 -0.32616130497E+03  0.34929655307E+03  0.12500754028E+03 0.  0.
    9000005    1    3    3    0    0  0.54142815996E+02 -0.27076236456E+02 -0.20647223454E+03  0.21516586797E+03  0.10000000000E+01 0.  0.
    9000005    1    3    3    0    0 -0.54142815996E+02  0.27076236456E+02 -0.11968907044E+03  0.13413068511E+03  0.10000000000E+01 0.  0.
<mgrwt>
<rscale>  0 0.12500754E+03</rscale>
<asrwt>0</asrwt>
<pdfrwt beam="2">  1        4 0.51958289E-01 0.12500754E+03</pdfrwt>
<pdfrwt beam="1">  1       -4 0.17796347E-02 0.12500754E+03</pdfrwt>
<totfact> 0.69790369E+03</totfact>
</mgrwt>
</event>
<event>
 5    1  0.3422688E-002  0.1250001E+03  0.7818608E-02  0.1235069E+00
          4   -1    0    0  501    0  0.00000000000E+00  0.00000000000E+00  0.11661599915E+04  0.11661606831E+04  0.12700000000E+01 0.  1.
         -4   -1    0    0    0  501 -0.00000000000E+00 -0.00000000000E+00 -0.32285767776E+01  0.34693815024E+01  0.12700000000E+01 0.  1.
         25    2    1    2    0    0  0.00000000000E+00  0.00000000000E+00  0.11629314148E+04  0.11696300646E+04  0.12500005016E+03 0.  0.
    9000005    1    3    3    0    0 -0.27976197066E+02 -0.13648336804E+02  0.10885021468E+04  0.10889475967E+04  0.10000000000E+01 0.  0.
    9000005    1    3    3    0    0  0.27976197066E+02  0.13648336804E+02  0.74429267952E+02  0.80682467907E+02  0.10000000000E+01 0.  0.
<mgrwt>
<rscale>  0 0.12500005E+03</rscale>
<asrwt>0</asrwt>
<pdfrwt beam="1">  1        4 0.17942788E+00 0.12500005E+03</pdfrwt>
<pdfrwt beam="2">  1       -4 0.51528055E-03 0.12500005E+03</pdfrwt>
<totfact> 0.25521764E+03</totfact>
</mgrwt>
</event>
<event>
 5    1  0.3422688E-002  0.1250005E+03  0.7818608E-02  0.1235068E+00
         -4   -1    0    0    0  501 -0.00000000000E+00  0.00000000000E+00  0.29938691084E+02  0.29965615692E+02  0.12700000000E+01 0.  1.
          4   -1    0    0  501    0  0.00000000000E+00 -0.00000000000E+00 -0.13038742620E+03  0.13039361108E+03  0.12700000000E+01 0.  1.
         25    2    1    2    0    0  0.00000000000E+00  0.00000000000E+00 -0.10044873512E+03  0.16035922677E+03  0.12500053290E+03 0.  0.
    9000005    1    3    3    0    0 -0.67799679272E+01  0.41205060071E+02  0.94180894615E+01  0.42819684138E+02  0.10000000000E+01 0.  0.
    9000005    1    3    3    0    0  0.67799679272E+01 -0.41205060071E+02 -0.10986682458E+03  0.11753954264E+03  0.10000000000E+01 0.  0.
<mgrwt>
<rscale>  0 0.12500053E+03</rscale>
<asrwt>0</asrwt>
<pdfrwt beam="2">  1        4 0.20062151E-01 0.12500053E+03</pdfrwt>
<pdfrwt beam="1">  1       -4 0.46084994E-02 0.12500053E+03</pdfrwt>
<totfact> 0.97272409E+03</totfact>
</mgrwt>
</event>
<event>
 5    1  0.3422688E-002  0.1250025E+03  0.7818608E-02  0.1235065E+00
         -4   -1    0    0    0  501 -0.00000000000E+00  0.00000000000E+00  0.10713385780E+02  0.10788398161E+02  0.12700000000E+01 0.  1.
          4   -1    0    0  501    0  0.00000000000E+00 -0.00000000000E+00 -0.36328045540E+03  0.36328267531E+03  0.12700000000E+01 0.  1.
         25    2    1    2    0    0  0.00000000000E+00  0.00000000000E+00 -0.35256706962E+03  0.37407107347E+03  0.12500251766E+03 0.  0.
    9000005    1    3    3    0    0  0.90130158006E+01 -0.30217345140E+02 -0.33774273827E+03  0.33921302990E+03  0.10000000000E+01 0.  0.
    9000005    1    3    3    0    0 -0.90130158006E+01  0.30217345140E+02 -0.14824331353E+02  0.34858043565E+02  0.10000000000E+01 0.  0.
<mgrwt>
<rscale>  0 0.12500252E+03</rscale>
<asrwt>0</asrwt>
<pdfrwt beam="2">  1        4 0.55895232E-01 0.12500252E+03</pdfrwt>
<pdfrwt beam="1">  1       -4 0.16541544E-02 0.12500252E+03</pdfrwt>
<totfact> 0.67151434E+03</totfact>
</mgrwt>
</event>
<event>
 5    1  0.3422688E-002  0.1250020E+03  0.7818608E-02  0.1235066E+00
          4   -1    0    0  501    0  0.00000000000E+00  0.00000000000E+00  0.36845058248E+03  0.36845277124E+03  0.12700000000E+01 0. -1.
         -4   -1    0    0    0  501 -0.00000000000E+00 -0.00000000000E+00 -0.10561907348E+02  0.10637987913E+02  0.12700000000E+01 0. -1.
         25    2    1    2    0    0  0.00000000000E+00  0.00000000000E+00  0.35788867514E+03  0.37909075915E+03  0.12500199952E+03 0.  0.
    9000005    1    3    3    0    0  0.11077760339E+02  0.49193950764E+02  0.29089136512E+03  0.29523134635E+03  0.10000000000E+01 0.  0.
    9000005    1    3    3    0    0 -0.11077760339E+02 -0.49193950764E+02  0.66997310013E+02  0.83859412798E+02  0.10000000000E+01 0.  0.
<mgrwt>
<rscale>  0 0.12500200E+03</rscale>
<asrwt>0</asrwt>
<pdfrwt beam="1">  1        4 0.56690734E-01 0.12500200E+03</pdfrwt>
<pdfrwt beam="2">  1       -4 0.16309293E-02 0.12500200E+03</pdfrwt>
<totfact> 0.66635525E+03</totfact>
</mgrwt>
</event>
<event>
 5    1  0.3422688E-002  0.1250026E+03  0.7818608E-02  0.1235065E+00
          4   -1    0    0  501    0  0.00000000000E+00  0.00000000000E+00  0.24541843034E+02  0.24574681270E+02  0.12700000000E+01 0. -1.
         -4   -1    0    0    0  501 -0.00000000000E+00 -0.00000000000E+00 -0.15903177923E+03  0.15903685015E+03  0.12700000000E+01 0. -1.
         25    2    1    2    0    0  0.00000000000E+00  0.00000000000E+00 -0.13448993620E+03  0.18361153142E+03  0.12500260610E+03 0.  0.
    9000005    1    3    3    0    0  0.58404654238E+01  0.54509249842E+02 -0.11131188252E+03  0.12408345798E+03  0.10000000000E+01 0.  0.
    9000005    1    3    3    0    0 -0.58404654238E+01 -0.54509249842E+02 -0.23178053674E+02  0.59528073434E+02  0.10000000000E+01 0.  0.
<mgrwt>
<rscale>  0 0.12500261E+03</rscale>
<asrwt>0</asrwt>
<pdfrwt beam="1">  1        4 0.37785843E-02 0.12500261E+03</pdfrwt>
<pdfrwt beam="2">  1       -4 0.24469343E-01 0.12500261E+03</pdfrwt>
<totfact> 0.92965496E+03</totfact>
</mgrwt>
</event>
<event>
 5    1  0.3422688E-002  0.1249988E+03  0.7818608E-02  0.1235071E+00
         -4   -1    0    0    0  501 -0.00000000000E+00  0.00000000000E+00  0.14183121961E+03  0.14183690548E+03  0.12700000000E+01 0.  1.
          4   -1    0    0  501    0  0.00000000000E+00 -0.00000000000E+00 -0.27520124487E+02  0.27549412911E+02  0.12700000000E+01 0.  1.
         25    2    1    2    0    0  0.00000000000E+00  0.00000000000E+00  0.11431109513E+03  0.16938631839E+03  0.12499879355E+03 0.  0.
    9000005    1    3    3    0    0 -0.56536269734E+02  0.12069126668E+02  0.24997565640E+02  0.62991204956E+02  0.10000000000E+01 0.  0.
    9000005    1    3    3    0    0  0.56536269734E+02 -0.12069126668E+02  0.89313529485E+02  0.10639511344E+03  0.10000000000E+01 0.  0.
<mgrwt>
<rscale>  0 0.12499879E+03</rscale>
<asrwt>0</asrwt>
<pdfrwt beam="2">  1        4 0.42365556E-02 0.12499879E+03</pdfrwt>
<pdfrwt beam="1">  1       -4 0.21822878E-01 0.12499879E+03</pdfrwt>
<totfact> 0.95565670E+03</totfact>
</mgrwt>
</event>
<event>
 5    1  0.3422688E-002  0.1249886E+03  0.7818608E-02  0.1235087E+00
          4   -1    0    0  501    0  0.00000000000E+00  0.00000000000E+00  0.42053953906E+02  0.42073126092E+02  0.12700000000E+01 0.  1.
         -4   -1    0    0    0  501 -0.00000000000E+00 -0.00000000000E+00 -0.92825047351E+02  0.92833734793E+02  0.12700000000E+01 0.  1.
         25    2    1    2    0    0  0.00000000000E+00  0.00000000000E+00 -0.50771093445E+02  0.13490686089E+03  0.12498862822E+03 0.  0.
    9000005    1    3    3    0    0  0.60232421392E+00  0.57217788533E+02 -0.52483568930E+02  0.77651549416E+02  0.10000000000E+01 0.  0.
    9000005    1    3    3    0    0 -0.60232421392E+00 -0.57217788533E+02  0.17124754851E+01  0.57255311469E+02  0.10000000000E+01 0.  0.
<mgrwt>
<rscale>  0 0.12498863E+03</rscale>
<asrwt>0</asrwt>
<pdfrwt beam="1">  1        4 0.64719821E-02 0.12498863E+03</pdfrwt>
<pdfrwt beam="2">  1       -4 0.14282920E-01 0.12498863E+03</pdfrwt>
<totfact> 0.10242661E+04</totfact>
</mgrwt>
</event>
<event>
 5    1  0.3422688E-002  0.1249994E+03  0.7818608E-02  0.1235070E+00
          4   -1    0    0  501    0  0.00000000000E+00  0.00000000000E+00  0.41224076441E+03  0.41224272067E+03  0.12700000000E+01 0.  1.
         -4   -1    0    0    0  501 -0.00000000000E+00 -0.00000000000E+00 -0.94310185186E+01  0.95161447182E+01  0.12700000000E+01 0.  1.
         25    2    1    2    0    0  0.00000000000E+00  0.00000000000E+00  0.40280974589E+03  0.42175886538E+03  0.12499939658E+03 0.  0.
    9000005    1    3    3    0    0  0.63460678820E+01 -0.75349944296E+01 -0.68111278208E+01  0.12018326872E+02  0.10000000000E+01 0.  0.
    9000005    1    3    3    0    0 -0.63460678820E+01  0.75349944296E+01  0.40962087371E+03  0.40974053851E+03  0.10000000000E+01 0.  0.
<mgrwt>
<rscale>  0 0.12499940E+03</rscale>
<asrwt>0</asrwt>
<pdfrwt beam="1">  1        4 0.63428357E-01 0.12499940E+03</pdfrwt>
<pdfrwt beam="2">  1       -4 0.14576245E-02 0.12499940E+03</pdfrwt>
<totfact> 0.62490998E+03</totfact>
</mgrwt>
</event>
<event>
 5    1  0.3422688E-002  0.1250005E+03  0.7818608E-02  0.1235069E+00
         -4   -1    0    0    0  501 -0.00000000000E+00  0.00000000000E+00  0.22088008572E+02  0.22124489207E+02  0.12700000000E+01 0.  1.
          4   -1    0    0  501    0  0.00000000000E+00 -0.00000000000E+00 -0.17666606562E+03  0.17667063039E+03  0.12700000000E+01 0.  1.
         25    2    1    2    0    0  0.00000000000E+00  0.00000000000E+00 -0.15457805705E+03  0.19879511960E+03  0.12500049542E+03 0.  0.
    9000005    1    3    3    0    0  0.18195839202E+02 -0.19314993821E+02  0.12690806581E+02  0.29431515799E+02  0.10000000000E+01 0.  0.
    9000005    1    3    3    0    0 -0.18195839202E+02  0.19314993821E+02 -0.16726886363E+03  0.16936360380E+03  0.10000000000E+01 0.  0.
<mgrwt>
<rscale>  0 0.12500050E+03</rscale>
<asrwt>0</asrwt>
<pdfrwt beam="2">  1        4 0.27182551E-01 0.12500050E+03</pdfrwt>
<pdfrwt beam="1">  1       -4 0.34013126E-02 0.12500050E+03</pdfrwt>
<totfact> 0.90338111E+03</totfact>
</mgrwt>
</event>
<event>
 5    1  0.3422688E-002  0.1250016E+03  0.7818608E-02  0.1235067E+00
          4   -1    0    0  501    0  0.00000000000E+00  0.00000000000E+00  0.79125901207E+02  0.79136092536E+02  0.12700000000E+01 0.  1.
         -4   -1    0    0    0  501 -0.00000000000E+00 -0.00000000000E+00 -0.49347278388E+02  0.49363618022E+02  0.12700000000E+01 0.  1.
         25    2    1    2    0    0  0.00000000000E+00  0.00000000000E+00  0.29778622820E+02  0.12849971056E+03  0.12500163694E+03 0.  0.
    9000005    1    3    3    0    0  0.17463716404E+02  0.56398517278E+02  0.35946136517E+02  0.69129580299E+02  0.10000000000E+01 0.  0.
    9000005    1    3    3    0    0 -0.17463716404E+02 -0.56398517278E+02 -0.61675136973E+01  0.59370130259E+02  0.10000000000E+01 0.  0.
<mgrwt>
<rscale>  0 0.12500164E+03</rscale>
<asrwt>0</asrwt>
<pdfrwt beam="1">  1        4 0.12175256E-01 0.12500164E+03</pdfrwt>
<pdfrwt beam="2">  1       -4 0.75939299E-02 0.12500164E+03</pdfrwt>
<totfact> 0.10376326E+04</totfact>
</mgrwt>
</event>
<event>
 5    1  0.3422688E-002  0.1250052E+03  0.7818608E-02  0.1235061E+00
          4   -1    0    0  501    0  0.00000000000E+00  0.00000000000E+00  0.11950749018E+03  0.11951423810E+03  0.12700000000E+01 0. -1.
         -4   -1    0    0    0  501 -0.00000000000E+00 -0.00000000000E+00 -0.32668954651E+02  0.32693630847E+02  0.12700000000E+01 0. -1.
         25    2    1    2    0    0  0.00000000000E+00  0.00000000000E+00  0.86838535529E+02  0.15220786895E+03  0.12500521636E+03 0.  0.
    9000005    1    3    3    0    0 -0.27488082801E+02 -0.74215718157E+01 -0.24318735782E+02  0.37457647208E+02  0.10000000000E+01 0.  0.
    9000005    1    3    3    0    0  0.27488082801E+02  0.74215718157E+01  0.11115727131E+03  0.11475022174E+03  0.10000000000E+01 0.  0.
<mgrwt>
<rscale>  0 0.12500522E+03</rscale>
<asrwt>0</asrwt>
<pdfrwt beam="1">  1        4 0.18388185E-01 0.12500522E+03</pdfrwt>
<pdfrwt beam="2">  1       -4 0.50284103E-02 0.12500522E+03</pdfrwt>
<totfact> 0.98853797E+03</totfact>
</mgrwt>
</event>
<event>
 5    1  0.3422688E-002  0.1249988E+03  0.7818608E-02  0.1235071E+00
         -4   -1    0    0    0  501 -0.00000000000E+00  0.00000000000E+00  0.45048152836E+02  0.45066051235E+02  0.12700000000E+01 0. -1.
          4   -1    0    0  501    0  0.00000000000E+00 -0.00000000000E+00 -0.86671269626E+02  0.86680573825E+02  0.12700000000E+01 0. -1.
         25    2    1    2    0    0  0.00000000000E+00  0.00000000000E+00 -0.41623116790E+02  0.13174662506E+03  0.12499875745E+03 0.  0.
    9000005    1    3    3    0    0 -0.17247760981E+02 -0.59697838526E+02 -0.27791377054E+02  0.68078468124E+02  0.10000000000E+01 0.  0.
    9000005    1    3    3    0    0  0.17247760981E+02  0.59697838526E+02 -0.13831739736E+02  0.63668156936E+02  0.10000000000E+01 0.  0.
<mgrwt>
<rscale>  0 0.12499876E+03</rscale>
<asrwt>0</asrwt>
<pdfrwt beam="2">  1        4 0.13336134E-01 0.12499876E+03</pdfrwt>
<pdfrwt beam="1">  1       -4 0.69325776E-02 0.12499876E+03</pdfrwt>
<totfact> 0.10307398E+04</totfact>
</mgrwt>
</event>
<event>
 5    1  0.3422688E-002  0.1249996E+03  0.7818608E-02  0.1235070E+00
         -4   -1    0    0    0  501 -0.00000000000E+00  0.00000000000E+00  0.15211040152E+03  0.15211570317E+03  0.12700000000E+01 0.  1.
          4   -1    0    0  501    0  0.00000000000E+00 -0.00000000000E+00 -0.25658721571E+02  0.25690132204E+02  0.12700000000E+01 0.  1.
         25    2    1    2    0    0  0.00000000000E+00  0.00000000000E+00  0.12645167995E+03  0.17780583537E+03  0.12499955092E+03 0.  0.
    9000005    1    3    3    0    0  0.47088980487E+02 -0.38880263545E+02  0.44345507274E+02  0.75475631776E+02  0.10000000000E+01 0.  0.
    9000005    1    3    3    0    0 -0.47088980487E+02  0.38880263545E+02  0.82106172677E+02  0.10233020360E+03  0.10000000000E+01 0.  0.
<mgrwt>
<rscale>  0 0.12499955E+03</rscale>
<asrwt>0</asrwt>
<pdfrwt beam="2">  1        4 0.39503197E-02 0.12499955E+03</pdfrwt>
<pdfrwt beam="1">  1       -4 0.23404424E-01 0.12499955E+03</pdfrwt>
<totfact> 0.94014404E+03</totfact>
</mgrwt>
</event>
<event>
 5    1  0.3422688E-002  0.1250016E+03  0.7818608E-02  0.1235067E+00
         -4   -1    0    0    0  501 -0.00000000000E+00  0.00000000000E+00  0.16453206181E+02  0.16502148152E+02  0.12700000000E+01 0.  1.
          4   -1    0    0  501    0  0.00000000000E+00 -0.00000000000E+00 -0.23701875141E+03  0.23702215386E+03  0.12700000000E+01 0.  1.
         25    2    1    2    0    0  0.00000000000E+00  0.00000000000E+00 -0.22056554523E+03  0.25352430202E+03  0.12500164786E+03 0.  0.
    9000005    1    3    3    0    0 -0.20709877114E+02  0.58858495979E+02 -0.11734692261E+03  0.13290794485E+03  0.10000000000E+01 0.  0.
    9000005    1    3    3    0    0  0.20709877114E+02 -0.58858495979E+02 -0.10321862262E+03  0.12061635716E+03  0.10000000000E+01 0.  0.
<mgrwt>
<rscale>  0 0.12500165E+03</rscale>
<asrwt>0</asrwt>
<pdfrwt beam="2">  1        4 0.36468447E-01 0.12500165E+03</pdfrwt>
<pdfrwt beam="1">  1       -4 0.25352892E-02 0.12500165E+03</pdfrwt>
<totfact> 0.81820508E+03</totfact>
</mgrwt>
</event>
<event>
 5    1  0.3422688E-002  0.1249976E+03  0.7818608E-02  0.1235073E+00
          4   -1    0    0  501    0  0.00000000000E+00  0.00000000000E+00  0.13837606972E+03  0.13838189756E+03  0.12700000000E+01 0.  1.
         -4   -1    0    0    0  501 -0.00000000000E+00 -0.00000000000E+00 -0.28207431893E+02  0.28236007402E+02  0.12700000000E+01 0.  1.
         25    2    1    2    0    0  0.00000000000E+00  0.00000000000E+00  0.11016863783E+03  0.16661790496E+03  0.12499758994E+03 0.  0.
    9000005    1    3    3    0    0 -0.47808902522E+02  0.21917428461E+02  0.10007146853E+03  0.11305469316E+03  0.10000000000E+01 0.  0.
    9000005    1    3    3    0    0  0.47808902522E+02 -0.21917428461E+02  0.10097169296E+02  0.53563211802E+02  0.10000000000E+01 0.  0.
<mgrwt>
<rscale>  0 0.12499759E+03</rscale>
<asrwt>0</asrwt>
<pdfrwt beam="1">  1        4 0.21291273E-01 0.12499759E+03</pdfrwt>
<pdfrwt beam="2">  1       -4 0.43422513E-02 0.12499759E+03</pdfrwt>
<totfact> 0.96087062E+03</totfact>
</mgrwt>
</event>
<event>
 5    1  0.3422688E-002  0.1249986E+03  0.7818608E-02  0.1235071E+00
         -4   -1    0    0    0  501 -0.00000000000E+00  0.00000000000E+00  0.78692827088E+03  0.78692929568E+03  0.12700000000E+01 0. -1.
          4   -1    0    0  501    0  0.00000000000E+00 -0.00000000000E+00 -0.48815343971E+01  0.50440339085E+01  0.12700000000E+01 0. -1.
         25    2    1    2    0    0  0.00000000000E+00  0.00000000000E+00  0.78204673648E+03  0.79197332959E+03  0.12499862698E+03 0.  0.
    9000005    1    3    3    0    0  0.58590497568E+01 -0.61914777670E+02  0.35227815493E+03  0.35772708396E+03  0.10000000000E+01 0.  0.
    9000005    1    3    3    0    0 -0.58590497568E+01  0.61914777670E+02  0.42976858155E+03  0.43424624563E+03  0.10000000000E+01 0.  0.
<mgrwt>
<rscale>  0 0.12499863E+03</rscale>
<asrwt>0</asrwt>
<pdfrwt beam="2">  1        4 0.76358464E-03 0.12499863E+03</pdfrwt>
<pdfrwt beam="1">  1       -4 0.12107838E+00 0.12499863E+03</pdfrwt>
<totfact> 0.38626763E+03</totfact>
</mgrwt>
</event>
<event>
 5    1  0.3422688E-002  0.1249971E+03  0.7818608E-02  0.1235074E+00
          4   -1    0    0  501    0  0.00000000000E+00  0.00000000000E+00  0.86632534232E+01  0.87558471820E+01  0.12700000000E+01 0.  1.
         -4   -1    0    0    0  501 -0.00000000000E+00 -0.00000000000E+00 -0.44838761096E+03  0.44838940952E+03  0.12700000000E+01 0.  1.
         25    2    1    2    0    0  0.00000000000E+00  0.00000000000E+00 -0.43972435754E+03  0.45714525670E+03  0.12499710039E+03 0.  0.
    9000005    1    3    3    0    0  0.11951788118E+02  0.61094351318E+02 -0.19992975560E+03  0.20939979030E+03  0.10000000000E+01 0.  0.
    9000005    1    3    3    0    0 -0.11951788118E+02 -0.61094351318E+02 -0.23979460194E+03  0.24774546640E+03  0.10000000000E+01 0.  0.
<mgrwt>
<rscale>  0 0.12499710E+03</rscale>
<asrwt>0</asrwt>
<pdfrwt beam="1">  1        4 0.13400695E-02 0.12499710E+03</pdfrwt>
<pdfrwt beam="2">  1       -4 0.68989952E-01 0.12499710E+03</pdfrwt>
<totfact> 0.59353560E+03</totfact>
</mgrwt>
</event>
<event>
 5    1  0.3422688E-002  0.1249994E+03  0.7818608E-02  0.1235070E+00
          4   -1    0    0  501    0  0.00000000000E+00  0.00000000000E+00  0.84527855083E+03  0.84527950490E+03  0.12700000000E+01 0.  1.
         -4   -1    0    0    0  501 -0.00000000000E+00 -0.00000000000E+00 -0.45329849450E+01  0.47075314669E+01  0.12700000000E+01 0.  1.
         25    2    1    2    0    0  0.00000000000E+00  0.00000000000E+00  0.84074556589E+03  0.84998703636E+03  0.12499942170E+03 0.  0.
    9000005    1    3    3    0    0  0.62243978626E+01  0.23996624693E+02  0.81044408941E+03  0.81082378059E+03  0.10000000000E+01 0.  0.
    9000005    1    3    3    0    0 -0.62243978626E+01 -0.23996624693E+02  0.30301476483E+02  0.39163255769E+02  0.10000000000E+01 0.  0.
<mgrwt>
<rscale>  0 0.12499942E+03</rscale>
<asrwt>0</asrwt>
<pdfrwt beam="1">  1        4 0.13005630E+00 0.12499942E+03</pdfrwt>
<pdfrwt beam="2">  1       -4 0.71088263E-03 0.12499942E+03</pdfrwt>
<totfact> 0.36128322E+03</totfact>
</mgrwt>
</event>
<event>
 5    1  0.3422688E-002  0.1249964E+03  0.7818608E-02  0.1235075E+00
          4   -1    0    0  501    0  0.00000000000E+00  0.00000000000E+00  0.19457545207E+02  0.19498947805E+02  0.12700000000E+01 0.  1.
         -4   -1    0    0    0  501 -0.00000000000E+00 -0.00000000000E+00 -0.20048924133E+03  0.20049326370E+03  0.12700000000E+01 0.  1.
         25    2    1    2    0    0  0.00000000000E+00  0.00000000000E+00 -0.18103169613E+03  0.21999221151E+03  0.12499639244E+03 0.  0.
    9000005    1    3    3    0    0 -0.56829024762E+02  0.13022177180E+01 -0.13620071183E+03  0.14759020201E+03  0.10000000000E+01 0.  0.
    9000005    1    3    3    0    0  0.56829024762E+02 -0.13022177180E+01 -0.44830984295E+02  0.72402009498E+02  0.10000000000E+01 0.  0.
<mgrwt>
<rscale>  0 0.12499639E+03</rscale>
<asrwt>0</asrwt>
<pdfrwt beam="1">  1        4 0.29969629E-02 0.12499639E+03</pdfrwt>
<pdfrwt beam="2">  1       -4 0.30847991E-01 0.12499639E+03</pdfrwt>
<totfact> 0.86876583E+03</totfact>
</mgrwt>
</event>
<event>
 5    1  0.3422688E-002  0.1249955E+03  0.7818608E-02  0.1235076E+00
          4   -1    0    0  501    0  0.00000000000E+00  0.00000000000E+00  0.40350938463E+02  0.40370919421E+02  0.12700000000E+01 0.  1.
         -4   -1    0    0    0  501 -0.00000000000E+00 -0.00000000000E+00 -0.96751841090E+02  0.96760175972E+02  0.12700000000E+01 0.  1.
         25    2    1    2    0    0  0.00000000000E+00  0.00000000000E+00 -0.56400902626E+02  0.13713109539E+03  0.12499550195E+03 0.  0.
    9000005    1    3    3    0    0 -0.96095097678E+01 -0.59244497607E+02 -0.47288390142E+02  0.76416261469E+02  0.10000000000E+01 0.  0.
    9000005    1    3    3    0    0  0.96095097678E+01  0.59244497607E+02 -0.91125124843E+01  0.60714833924E+02  0.10000000000E+01 0.  0.
<mgrwt>
<rscale>  0 0.12499550E+03</rscale>
<asrwt>0</asrwt>
<pdfrwt beam="1">  1        4 0.62100149E-02 0.12499550E+03</pdfrwt>
<pdfrwt beam="2">  1       -4 0.14887077E-01 0.12499550E+03</pdfrwt>
<totfact> 0.10194379E+04</totfact>
</mgrwt>
</event>
<event>
 5    1  0.3422688E-002  0.1250162E+03  0.7818608E-02  0.1235044E+00
          4   -1    0    0  501    0  0.00000000000E+00  0.00000000000E+00  0.36874756341E+02  0.36896619835E+02  0.12700000000E+01 0. -1.
         -4   -1    0    0    0  501 -0.00000000000E+00 -0.00000000000E+00 -0.10590327243E+03  0.10591088712E+03  0.12700000000E+01 0. -1.
         25    2    1    2    0    0  0.00000000000E+00  0.00000000000E+00 -0.69028516085E+02  0.14280750696E+03  0.12501619099E+03 0.  0.
    9000005    1    3    3    0    0 -0.35606685999E+02 -0.31785036733E+02 -0.80606761314E+02  0.93683374285E+02  0.10000000000E+01 0.  0.
    9000005    1    3    3    0    0  0.35606685999E+02  0.31785036733E+02  0.11578245229E+02  0.49124132670E+02  0.10000000000E+01 0.  0.
<mgrwt>
<rscale>  0 0.12501619E+03</rscale>
<asrwt>0</asrwt>
<pdfrwt beam="1">  1        4 0.56753070E-02 0.12501619E+03</pdfrwt>
<pdfrwt beam="2">  1       -4 0.16295079E-01 0.12501619E+03</pdfrwt>
<totfact> 0.10072053E+04</totfact>
</mgrwt>
</event>
<event>
 5    1  0.3422688E-002  0.1249971E+03  0.7818608E-02  0.1235074E+00
         -4   -1    0    0    0  501 -0.00000000000E+00  0.00000000000E+00  0.40267838948E+01  0.42223084368E+01  0.12700000000E+01 0. -1.
          4   -1    0    0  501    0  0.00000000000E+00 -0.00000000000E+00 -0.94683351519E+03  0.94683436692E+03  0.12700000000E+01 0. -1.
         25    2    1    2    0    0  0.00000000000E+00  0.00000000000E+00 -0.94280673129E+03  0.95105667536E+03  0.12499706865E+03 0.  0.
    9000005    1    3    3    0    0  0.31598792131E+02  0.18647725824E+02 -0.85628624939E+03  0.85707255366E+03  0.10000000000E+01 0.  0.
    9000005    1    3    3    0    0 -0.31598792131E+02 -0.18647725824E+02 -0.86520481900E+02  0.93984121695E+02  0.10000000000E+01 0.  0.
<mgrwt>
<rscale>  0 0.12499707E+03</rscale>
<asrwt>0</asrwt>
<pdfrwt beam="2">  1        4 0.14568163E+00 0.12499707E+03</pdfrwt>
<pdfrwt beam="1">  1       -4 0.63461184E-03 0.12499707E+03</pdfrwt>
<totfact> 0.32280586E+03</totfact>
</mgrwt>
</event>
<event>
 5    1  0.3422688E-002  0.1250011E+03  0.7818608E-02  0.1235068E+00
         -4   -1    0    0    0  501 -0.00000000000E+00  0.00000000000E+00  0.53789865032E+02  0.53804855545E+02  0.12700000000E+01 0. -1.
          4   -1    0    0  501    0  0.00000000000E+00 -0.00000000000E+00 -0.72591185187E+02  0.72602293813E+02  0.12700000000E+01 0. -1.
         25    2    1    2    0    0  0.00000000000E+00  0.00000000000E+00 -0.18801320155E+02  0.12640714936E+03  0.12500111107E+03 0.  0.
    9000005    1    3    3    0    0  0.53482497122E+02 -0.11800376135E+02  0.21032586580E+02  0.58677048951E+02  0.10000000000E+01 0.  0.
    9000005    1    3    3    0    0 -0.53482497122E+02  0.11800376135E+02 -0.39833906736E+02  0.67730100407E+02  0.10000000000E+01 0.  0.
<mgrwt>
<rscale>  0 0.12500111E+03</rscale>
<asrwt>0</asrwt>
<pdfrwt beam="2">  1        4 0.11169882E-01 0.12500111E+03</pdfrwt>
<pdfrwt beam="1">  1       -4 0.82773715E-02 0.12500111E+03</pdfrwt>
<totfact> 0.10421792E+04</totfact>
</mgrwt>
</event>
<event>
 5    1  0.3422688E-002  0.1249927E+03  0.7818608E-02  0.1235081E+00
         -4   -1    0    0    0  501 -0.00000000000E+00  0.00000000000E+00  0.18852522819E+02  0.18895251166E+02  0.12700000000E+01 0.  1.
          4   -1    0    0  501    0  0.00000000000E+00 -0.00000000000E+00 -0.20689707106E+03  0.20690096886E+03  0.12700000000E+01 0.  1.
         25    2    1    2    0    0  0.00000000000E+00  0.00000000000E+00 -0.18804454824E+03  0.22579622002E+03  0.12499272320E+03 0.  0.
    9000005    1    3    3    0    0 -0.58483808680E+02  0.21262904253E+02 -0.83751032262E+02  0.10434415355E+03  0.10000000000E+01 0.  0.
    9000005    1    3    3    0    0  0.58483808680E+02 -0.21262904253E+02 -0.10429351598E+03  0.12145206648E+03  0.10000000000E+01 0.  0.
<mgrwt>
<rscale>  0 0.12499272E+03</rscale>
<asrwt>0</asrwt>
<pdfrwt beam="2">  1        4 0.31833904E-01 0.12499272E+03</pdfrwt>
<pdfrwt beam="1">  1       -4 0.29039749E-02 0.12499272E+03</pdfrwt>
<totfact> 0.85973262E+03</totfact>
</mgrwt>
</event>
<event>
 5    1  0.3422688E-002  0.1250009E+03  0.7818608E-02  0.1235068E+00
         -4   -1    0    0    0  501 -0.00000000000E+00  0.00000000000E+00  0.37168583651E+03  0.37168800622E+03  0.12700000000E+01 0. -1.
          4   -1    0    0  501    0  0.00000000000E+00 -0.00000000000E+00 -0.10469119363E+02  0.10545869345E+02  0.12700000000E+01 0. -1.
         25    2    1    2    0    0  0.00000000000E+00  0.00000000000E+00  0.36121671715E+03  0.38223387556E+03  0.12500087551E+03 0.  0.
    9000005    1    3    3    0    0 -0.60019635940E+02  0.10341182359E+02  0.22341912301E+03  0.23157374911E+03  0.10000000000E+01 0.  0.
    9000005    1    3    3    0    0  0.60019635940E+02 -0.10341182359E+02  0.13779759414E+03  0.15066012645E+03  0.10000000000E+01 0.  0.
<mgrwt>
<rscale>  0 0.12500088E+03</rscale>
<asrwt>0</asrwt>
<pdfrwt beam="2">  1        4 0.16167044E-02 0.12500088E+03</pdfrwt>
<pdfrwt beam="1">  1       -4 0.57188511E-01 0.12500088E+03</pdfrwt>
<totfact> 0.66316885E+03</totfact>
</mgrwt>
</event>
<event>
 5    1  0.3422688E-002  0.1250000E+03  0.7818608E-02  0.1235069E+00
         -4   -1    0    0    0  501 -0.00000000000E+00  0.00000000000E+00  0.73142487149E+01  0.74236873765E+01  0.12700000000E+01 0.  1.
          4   -1    0    0  501    0  0.00000000000E+00 -0.00000000000E+00 -0.52998414777E+03  0.52998566941E+03  0.12700000000E+01 0.  1.
         25    2    1    2    0    0  0.00000000000E+00  0.00000000000E+00 -0.52266989905E+03  0.53740935679E+03  0.12499997356E+03 0.  0.
    9000005    1    3    3    0    0 -0.59807629952E+02 -0.25267006375E+01 -0.18419780299E+03  0.19368316251E+03  0.10000000000E+01 0.  0.
    9000005    1    3    3    0    0  0.59807629952E+02  0.25267006375E+01 -0.33847209607E+03  0.34372619428E+03  0.10000000000E+01 0.  0.
<mgrwt>
<rscale>  0 0.12499997E+03</rscale>
<asrwt>0</asrwt>
<pdfrwt beam="2">  1        4 0.81544528E-01 0.12499997E+03</pdfrwt>
<pdfrwt beam="1">  1       -4 0.11338049E-02 0.12499997E+03</pdfrwt>
<totfact> 0.53074402E+03</totfact>
</mgrwt>
</event>
<event>
 5    1  0.3422688E-002  0.1249996E+03  0.7818608E-02  0.1235070E+00
         -4   -1    0    0    0  501 -0.00000000000E+00  0.00000000000E+00  0.20352243164E+03  0.20352639406E+03  0.12700000000E+01 0. -1.
          4   -1    0    0  501    0  0.00000000000E+00 -0.00000000000E+00 -0.19167915341E+02  0.19209942179E+02  0.12700000000E+01 0. -1.
         25    2    1    2    0    0  0.00000000000E+00  0.00000000000E+00  0.18435451629E+03  0.22273633624E+03  0.12499955121E+03 0.  0.
    9000005    1    3    3    0    0 -0.18329204429E+02  0.22455265215E+02 -0.64732909039E+01  0.29717034946E+02  0.10000000000E+01 0.  0.
    9000005    1    3    3    0    0  0.18329204429E+02 -0.22455265215E+02  0.19082780720E+03  0.19301930129E+03  0.10000000000E+01 0.  0.
<mgrwt>
<rscale>  0 0.12499955E+03</rscale>
<asrwt>0</asrwt>
<pdfrwt beam="2">  1        4 0.29524476E-02 0.12499955E+03</pdfrwt>
<pdfrwt beam="1">  1       -4 0.31314682E-01 0.12499955E+03</pdfrwt>
<totfact> 0.86438069E+03</totfact>
</mgrwt>
</event>
<event>
 5    1  0.3422688E-002  0.1249981E+03  0.7818608E-02  0.1235072E+00
         -4   -1    0    0    0  501 -0.00000000000E+00  0.00000000000E+00  0.33954512447E+03  0.33954749955E+03  0.12700000000E+01 0. -1.
          4   -1    0    0  501    0  0.00000000000E+00 -0.00000000000E+00 -0.11466541232E+02  0.11536657568E+02  0.12700000000E+01 0. -1.
         25    2    1    2    0    0  0.00000000000E+00  0.00000000000E+00  0.32807858324E+03  0.35108415712E+03  0.12499811439E+03 0.  0.
    9000005    1    3    3    0    0 -0.57055336739E+02  0.18969628585E+02  0.11621074119E+03  0.13084760077E+03  0.10000000000E+01 0.  0.
    9000005    1    3    3    0    0  0.57055336739E+02 -0.18969628585E+02  0.21186784205E+03  0.22023655635E+03  0.10000000000E+01 0.  0.
<mgrwt>
<rscale>  0 0.12499811E+03</rscale>
<asrwt>0</asrwt>
<pdfrwt beam="2">  1        4 0.17696595E-02 0.12499811E+03</pdfrwt>
<pdfrwt beam="1">  1       -4 0.52243288E-01 0.12499811E+03</pdfrwt>
<totfact> 0.69608352E+03</totfact>
</mgrwt>
</event>
<event>
 5    1  0.3422688E-002  0.1249990E+03  0.7818608E-02  0.1235071E+00
          4   -1    0    0  501    0  0.00000000000E+00  0.00000000000E+00  0.60119322215E+02  0.60132734875E+02  0.12700000000E+01 0. -1.
         -4   -1    0    0    0  501 -0.00000000000E+00 -0.00000000000E+00 -0.64947015004E+02  0.64959430862E+02  0.12700000000E+01 0. -1.
         25    2    1    2    0    0  0.00000000000E+00  0.00000000000E+00 -0.48276927891E+01  0.12509216574E+03  0.12499897324E+03 0.  0.
    9000005    1    3    3    0    0  0.39560224280E+02  0.11648024295E+02  0.44573240639E+02  0.60732706148E+02  0.10000000000E+01 0.  0.
    9000005    1    3    3    0    0 -0.39560224280E+02 -0.11648024295E+02 -0.49400933428E+02  0.64359459589E+02  0.10000000000E+01 0.  0.
<mgrwt>
<rscale>  0 0.12499897E+03</rscale>
<asrwt>0</asrwt>
<pdfrwt beam="1">  1        4 0.92511132E-02 0.12499897E+03</pdfrwt>
<pdfrwt beam="2">  1       -4 0.99938353E-02 0.12499897E+03</pdfrwt>
<totfact> 0.10451104E+04</totfact>
</mgrwt>
</event>
<event>
 5    1  0.3422688E-002  0.1249967E+03  0.7818608E-02  0.1235074E+00
          4   -1    0    0  501    0  0.00000000000E+00  0.00000000000E+00  0.53844406352E+02  0.53859381684E+02  0.12700000000E+01 0. -1.
         -4   -1    0    0    0  501 -0.00000000000E+00 -0.00000000000E+00 -0.72512525158E+02  0.72523645832E+02  0.12700000000E+01 0. -1.
         25    2    1    2    0    0  0.00000000000E+00  0.00000000000E+00 -0.18668118806E+02  0.12638302752E+03  0.12499668389E+03 0.  0.
    9000005    1    3    3    0    0  0.95494081501E+01 -0.58083136737E+02  0.11879603604E+02  0.60058029863E+02  0.10000000000E+01 0.  0.
    9000005    1    3    3    0    0 -0.95494081501E+01  0.58083136737E+02 -0.30547722410E+02  0.66324997653E+02  0.10000000000E+01 0.  0.
<mgrwt>
<rscale>  0 0.12499668E+03</rscale>
<asrwt>0</asrwt>
<pdfrwt beam="1">  1        4 0.82857622E-02 0.12499668E+03</pdfrwt>
<pdfrwt beam="2">  1       -4 0.11157781E-01 0.12499668E+03</pdfrwt>
<totfact> 0.10423360E+04</totfact>
</mgrwt>
</event>
<event>
 5    1  0.3422688E-002  0.1250010E+03  0.7818608E-02  0.1235068E+00
         -4   -1    0    0    0  501 -0.00000000000E+00  0.00000000000E+00  0.37443150722E+03  0.37443366101E+03  0.12700000000E+01 0. -1.
          4   -1    0    0  501    0  0.00000000000E+00 -0.00000000000E+00 -0.10391808536E+02  0.10469125305E+02  0.12700000000E+01 0. -1.
         25    2    1    2    0    0  0.00000000000E+00  0.00000000000E+00  0.36403969868E+03  0.38490278632E+03  0.12500101078E+03 0.  0.
    9000005    1    3    3    0    0 -0.21314201436E+02 -0.48982346418E+02  0.28188025409E+03  0.28689901200E+03  0.10000000000E+01 0.  0.
    9000005    1    3    3    0    0  0.21314201436E+02  0.48982346418E+02  0.82159444597E+02  0.98003774315E+02  0.10000000000E+01 0.  0.
<mgrwt>
<rscale>  0 0.12500101E+03</rscale>
<asrwt>0</asrwt>
<pdfrwt beam="2">  1        4 0.16048529E-02 0.12500101E+03</pdfrwt>
<pdfrwt beam="1">  1       -4 0.57610961E-01 0.12500101E+03</pdfrwt>
<totfact> 0.66046620E+03</totfact>
</mgrwt>
</event>
<event>
 5    1  0.3422688E-002  0.1250008E+03  0.7818608E-02  0.1235068E+00
         -4   -1    0    0    0  501 -0.00000000000E+00  0.00000000000E+00  0.26172495013E+02  0.26203289778E+02  0.12700000000E+01 0.  1.
          4   -1    0    0  501    0  0.00000000000E+00 -0.00000000000E+00 -0.14913085498E+03  0.14913626255E+03  0.12700000000E+01 0.  1.
         25    2    1    2    0    0  0.00000000000E+00  0.00000000000E+00 -0.12295835997E+03  0.17533955233E+03  0.12500080129E+03 0.  0.
    9000005    1    3    3    0    0  0.47326202256E+02 -0.12088754222E+02 -0.68025030605E+01  0.49327289065E+02  0.10000000000E+01 0.  0.
    9000005    1    3    3    0    0 -0.47326202256E+02  0.12088754222E+02 -0.11615585691E+03  0.12601226326E+03  0.10000000000E+01 0.  0.
<mgrwt>
<rscale>  0 0.12500080E+03</rscale>
<asrwt>0</asrwt>
<pdfrwt beam="2">  1        4 0.22945993E-01 0.12500080E+03</pdfrwt>
<pdfrwt beam="1">  1       -4 0.40293226E-02 0.12500080E+03</pdfrwt>
<totfact> 0.94460991E+03</totfact>
</mgrwt>
</event>
<event>
 5    1  0.3422688E-002  0.1249971E+03  0.7818608E-02  0.1235074E+00
         -4   -1    0    0    0  501 -0.00000000000E+00  0.00000000000E+00  0.55809026393E+02  0.55823474694E+02  0.12700000000E+01 0.  1.
          4   -1    0    0  501    0  0.00000000000E+00 -0.00000000000E+00 -0.69960687504E+02  0.69972213743E+02  0.12700000000E+01 0.  1.
         25    2    1    2    0    0  0.00000000000E+00  0.00000000000E+00 -0.14151661111E+02  0.12579568844E+03  0.12499714284E+03 0.  0.
    9000005    1    3    3    0    0 -0.31509351235E+02 -0.50837405031E+02  0.11144817835E+02  0.60848072526E+02  0.10000000000E+01 0.  0.
    9000005    1    3    3    0    0  0.31509351235E+02  0.50837405031E+02 -0.25296478946E+02  0.64947615912E+02  0.10000000000E+01 0.  0.
<mgrwt>
<rscale>  0 0.12499714E+03</rscale>
<asrwt>0</asrwt>
<pdfrwt beam="2">  1        4 0.10765181E-01 0.12499714E+03</pdfrwt>
<pdfrwt beam="1">  1       -4 0.85880021E-02 0.12499714E+03</pdfrwt>
<totfact> 0.10436113E+04</totfact>
</mgrwt>
</event>
<event>
 5    1  0.3422688E-002  0.1250059E+03  0.7818608E-02  0.1235060E+00
          4   -1    0    0  501    0  0.00000000000E+00  0.00000000000E+00  0.23499662848E+03  0.23500006020E+03  0.12700000000E+01 0. -1.
         -4   -1    0    0    0  501 -0.00000000000E+00 -0.00000000000E+00 -0.16596346585E+02  0.16644867677E+02  0.12700000000E+01 0. -1.
         25    2    1    2    0    0  0.00000000000E+00  0.00000000000E+00  0.21840028189E+03  0.25164492788E+03  0.12500594625E+03 0.  0.
    9000005    1    3    3    0    0  0.45009577962E+02 -0.19007052879E+02  0.30755425968E+02  0.57741028688E+02  0.10000000000E+01 0.  0.
    9000005    1    3    3    0    0 -0.45009577962E+02  0.19007052879E+02  0.18764485592E+03  0.19390389919E+03  0.10000000000E+01 0.  0.
<mgrwt>
<rscale>  0 0.12500595E+03</rscale>
<asrwt>0</asrwt>
<pdfrwt beam="1">  1        4 0.36157323E-01 0.12500595E+03</pdfrwt>
<pdfrwt beam="2">  1       -4 0.25572805E-02 0.12500595E+03</pdfrwt>
<totfact> 0.82082192E+03</totfact>
</mgrwt>
</event>
<event>
 5    1  0.3422688E-002  0.1249888E+03  0.7818608E-02  0.1235087E+00
          4   -1    0    0  501    0  0.00000000000E+00  0.00000000000E+00  0.48427635348E+02  0.48444285167E+02  0.12700000000E+01 0. -1.
         -4   -1    0    0    0  501 -0.00000000000E+00 -0.00000000000E+00 -0.80611612250E+02  0.80621615771E+02  0.12700000000E+01 0. -1.
         25    2    1    2    0    0  0.00000000000E+00  0.00000000000E+00 -0.32183976902E+02  0.12906590094E+03  0.12498879316E+03 0.  0.
    9000005    1    3    3    0    0 -0.21839614138E+02  0.16941383136E+02  0.41776842488E+02  0.50102732226E+02  0.10000000000E+01 0.  0.
    9000005    1    3    3    0    0  0.21839614138E+02 -0.16941383136E+02 -0.73960819390E+02  0.78963168712E+02  0.10000000000E+01 0.  0.
<mgrwt>
<rscale>  0 0.12498879E+03</rscale>
<asrwt>0</asrwt>
<pdfrwt beam="1">  1        4 0.74524557E-02 0.12498879E+03</pdfrwt>
<pdfrwt beam="2">  1       -4 0.12403837E-01 0.12498879E+03</pdfrwt>
<totfact> 0.10367153E+04</totfact>
</mgrwt>
</event>
<event>
 5    1  0.3422688E-002  0.1249981E+03  0.7818608E-02  0.1235072E+00
          4   -1    0    0  501    0  0.00000000000E+00  0.00000000000E+00  0.33919041518E+02  0.33942808922E+02  0.12700000000E+01 0. -1.
         -4   -1    0    0    0  501 -0.00000000000E+00 -0.00000000000E+00 -0.11509282516E+03  0.11509983190E+03  0.12700000000E+01 0. -1.
         25    2    1    2    0    0  0.00000000000E+00  0.00000000000E+00 -0.81173783646E+02  0.14904264083E+03  0.12499810252E+03 0.  0.
    9000005    1    3    3    0    0  0.35576610234E+02 -0.25943225819E+02  0.12287017290E+02  0.45724358448E+02  0.10000000000E+01 0.  0.
    9000005    1    3    3    0    0 -0.35576610234E+02  0.25943225819E+02 -0.93460800937E+02  0.10331828238E+03  0.10000000000E+01 0.  0.
<mgrwt>
<rscale>  0 0.12499810E+03</rscale>
<asrwt>0</asrwt>
<pdfrwt beam="1">  1        4 0.52206814E-02 0.12499810E+03</pdfrwt>
<pdfrwt beam="2">  1       -4 0.17708956E-01 0.12499810E+03</pdfrwt>
<totfact> 0.99499126E+03</totfact>
</mgrwt>
</event>
<event>
 5    1  0.3422688E-002  0.1249986E+03  0.7818608E-02  0.1235071E+00
         -4   -1    0    0    0  501 -0.00000000000E+00  0.00000000000E+00  0.21195359460E+02  0.21233373793E+02  0.12700000000E+01 0. -1.
          4   -1    0    0  501    0  0.00000000000E+00 -0.00000000000E+00 -0.18408811032E+03  0.18409249105E+03  0.12700000000E+01 0. -1.
         25    2    1    2    0    0  0.00000000000E+00  0.00000000000E+00 -0.16289275086E+03  0.20532586484E+03  0.12499864996E+03 0.  0.
    9000005    1    3    3    0    0 -0.23045254630E+02  0.40887546677E+01  0.13731838233E+02  0.27154466611E+02  0.10000000000E+01 0.  0.
    9000005    1    3    3    0    0  0.23045254630E+02 -0.40887546677E+01 -0.17662458909E+03  0.17817139823E+03  0.10000000000E+01 0.  0.
<mgrwt>
<rscale>  0 0.12499865E+03</rscale>
<asrwt>0</asrwt>
<pdfrwt beam="2">  1        4 0.28324508E-01 0.12499865E+03</pdfrwt>
<pdfrwt beam="1">  1       -4 0.32640858E-02 0.12499865E+03</pdfrwt>
<totfact> 0.89247659E+03</totfact>
</mgrwt>
</event>
<event>
 5    1  0.3422688E-002  0.1249968E+03  0.7818608E-02  0.1235074E+00
         -4   -1    0    0    0  501 -0.00000000000E+00  0.00000000000E+00  0.15994058609E+03  0.15994562820E+03  0.12700000000E+01 0. -1.
          4   -1    0    0  501    0  0.00000000000E+00 -0.00000000000E+00 -0.24399930922E+02  0.24432959890E+02  0.12700000000E+01 0. -1.
         25    2    1    2    0    0  0.00000000000E+00  0.00000000000E+00  0.13554065517E+03  0.18437858809E+03  0.12499677812E+03 0.  0.
    9000005    1    3    3    0    0 -0.18844161237E+02  0.83525441618E+01  0.15478902863E+03  0.15615860780E+03  0.10000000000E+01 0.  0.
    9000005    1    3    3    0    0  0.18844161237E+02 -0.83525441618E+01 -0.19248373457E+02  0.28219980287E+02  0.10000000000E+01 0.  0.
<mgrwt>
<rscale>  0 0.12499678E+03</rscale>
<asrwt>0</asrwt>
<pdfrwt beam="2">  1        4 0.37567640E-02 0.12499678E+03</pdfrwt>
<pdfrwt beam="1">  1       -4 0.24609173E-01 0.12499678E+03</pdfrwt>
<totfact> 0.92841431E+03</totfact>
</mgrwt>
</event>
<event>
 5    1  0.3422688E-002  0.1249767E+03  0.7818608E-02  0.1235106E+00
          4   -1    0    0  501    0  0.00000000000E+00  0.00000000000E+00  0.41265283827E+03  0.41265479257E+03  0.12700000000E+01 0. -1.
         -4   -1    0    0    0  501 -0.00000000000E+00 -0.00000000000E+00 -0.94180578743E+01  0.95033001701E+01  0.12700000000E+01 0. -1.
         25    2    1    2    0    0  0.00000000000E+00  0.00000000000E+00  0.40323478040E+03  0.42215809274E+03  0.12497666641E+03 0.  0.
    9000005    1    3    3    0    0  0.44765848791E+02 -0.84444455364E+01  0.34605952277E+03  0.34904653440E+03  0.10000000000E+01 0.  0.
    9000005    1    3    3    0    0 -0.44765848791E+02  0.84444455364E+01  0.57175257631E+02  0.73111558345E+02  0.10000000000E+01 0.  0.
<mgrwt>
<rscale>  0 0.12497667E+03</rscale>
<asrwt>0</asrwt>
<pdfrwt beam="1">  1        4 0.63491767E-01 0.12497667E+03</pdfrwt>
<pdfrwt beam="2">  1       -4 0.14556392E-02 0.12497667E+03</pdfrwt>
<totfact> 0.62485447E+03</totfact>
</mgrwt>
</event>
<event>
 5    1  0.3422688E-002  0.1250004E+03  0.7818608E-02  0.1235069E+00
         -4   -1    0    0    0  501 -0.00000000000E+00  0.00000000000E+00  0.37613915190E+02  0.37635349287E+02  0.12700000000E+01 0.  1.
          4   -1    0    0  501    0  0.00000000000E+00 -0.00000000000E+00 -0.10379689748E+03  0.10380466669E+03  0.12700000000E+01 0.  1.
         25    2    1    2    0    0  0.00000000000E+00  0.00000000000E+00 -0.66182982292E+02  0.14144001598E+03  0.12500036390E+03 0.  0.
    9000005    1    3    3    0    0 -0.60398910607E+02 -0.15209212088E+02 -0.27330280226E+02  0.68024207104E+02  0.10000000000E+01 0.  0.
    9000005    1    3    3    0    0  0.60398910607E+02  0.15209212088E+02 -0.38852702066E+02  0.73415808875E+02  0.10000000000E+01 0.  0.
<mgrwt>
<rscale>  0 0.12500036E+03</rscale>
<asrwt>0</asrwt>
<pdfrwt beam="2">  1        4 0.15971000E-01 0.12500036E+03</pdfrwt>
<pdfrwt beam="1">  1       -4 0.57890027E-02 0.12500036E+03</pdfrwt>
<totfact> 0.10103745E+04</totfact>
</mgrwt>
</event>
<event>
 5    1  0.3422688E-002  0.1249988E+03  0.7818608E-02  0.1235071E+00
         -4   -1    0    0    0  501 -0.00000000000E+00  0.00000000000E+00  0.95066215571E+01  0.95910767607E+01  0.12700000000E+01 0.  1.
          4   -1    0    0  501    0  0.00000000000E+00 -0.00000000000E+00 -0.40898730381E+03  0.40898927563E+03  0.12700000000E+01 0.  1.
         25    2    1    2    0    0  0.00000000000E+00  0.00000000000E+00 -0.39948068225E+03  0.41858035239E+03  0.12499878364E+03 0.  0.
    9000005    1    3    3    0    0  0.15372700058E+02  0.49553517009E+01 -0.40189326494E+03  0.40221893519E+03  0.10000000000E+01 0.  0.
    9000005    1    3    3    0    0 -0.15372700058E+02 -0.49553517009E+01  0.24125826896E+01  0.16361417200E+02  0.10000000000E+01 0.  0.
<mgrwt>
<rscale>  0 0.12499878E+03</rscale>
<asrwt>0</asrwt>
<pdfrwt beam="2">  1        4 0.62927758E-01 0.12499878E+03</pdfrwt>
<pdfrwt beam="1">  1       -4 0.14692057E-02 0.12499878E+03</pdfrwt>
<totfact> 0.62786622E+03</totfact>
</mgrwt>
</event>
<event>
 5    1  0.3422688E-002  0.1249992E+03  0.7818608E-02  0.1235071E+00
          4   -1    0    0  501    0  0.00000000000E+00  0.00000000000E+00  0.56645967536E+02  0.56660202418E+02  0.12700000000E+01 0.  1.
         -4   -1    0    0    0  501 -0.00000000000E+00 -0.00000000000E+00 -0.68929379940E+02  0.68941078603E+02  0.12700000000E+01 0.  1.
         25    2    1    2    0    0  0.00000000000E+00  0.00000000000E+00 -0.12283412404E+02  0.12560128102E+03  0.12499919829E+03 0.  0.
    9000005    1    3    3    0    0  0.26350297980E+02 -0.40378082956E+02 -0.46088346504E+02  0.66707296979E+02  0.10000000000E+01 0.  0.
    9000005    1    3    3    0    0 -0.26350297980E+02  0.40378082956E+02  0.33804934100E+02  0.58893984042E+02  0.10000000000E+01 0.  0.
<mgrwt>
<rscale>  0 0.12499920E+03</rscale>
<asrwt>0</asrwt>
<pdfrwt beam="1">  1        4 0.87167591E-02 0.12499920E+03</pdfrwt>
<pdfrwt beam="2">  1       -4 0.10606515E-01 0.12499920E+03</pdfrwt>
<totfact> 0.10439908E+04</totfact>
</mgrwt>
</event>
<event>
 5    1  0.3422688E-002  0.1249971E+03  0.7818608E-02  0.1235074E+00
         -4   -1    0    0    0  501 -0.00000000000E+00  0.00000000000E+00  0.34937006461E+01  0.37173706036E+01  0.12700000000E+01 0. -1.
          4   -1    0    0  501    0  0.00000000000E+00 -0.00000000000E+00 -0.10831300421E+04  0.10831307866E+04  0.12700000000E+01 0. -1.
         25    2    1    2    0    0  0.00000000000E+00  0.00000000000E+00 -0.10796363414E+04  0.10868481572E+04  0.12499714856E+03 0.  0.
    9000005    1    3    3    0    0 -0.13933169589E+02 -0.48458187479E+02 -0.86079648337E+03  0.86227252938E+03  0.10000000000E+01 0.  0.
    9000005    1    3    3    0    0  0.13933169589E+02  0.48458187479E+02 -0.21883985805E+03  0.22457562784E+03  0.10000000000E+01 0.  0.
<mgrwt>
<rscale>  0 0.12499715E+03</rscale>
<asrwt>0</asrwt>
<pdfrwt beam="2">  1        4 0.16665239E+00 0.12499715E+03</pdfrwt>
<pdfrwt beam="1">  1       -4 0.55475592E-03 0.12499715E+03</pdfrwt>
<totfact> 0.27873308E+03</totfact>
</mgrwt>
</event>
<event>
 5    1  0.3422688E-002  0.1249931E+03  0.7818608E-02  0.1235080E+00
         -4   -1    0    0    0  501 -0.00000000000E+00  0.00000000000E+00  0.77362899282E+03  0.77363003525E+03  0.12700000000E+01 0. -1.
          4   -1    0    0  501    0  0.00000000000E+00 -0.00000000000E+00 -0.49677664081E+01  0.51275338210E+01  0.12700000000E+01 0. -1.
         25    2    1    2    0    0  0.00000000000E+00  0.00000000000E+00  0.76866122641E+03  0.77875756907E+03  0.12499308136E+03 0.  0.
    9000005    1    3    3    0    0  0.44191363187E+01 -0.47480259885E+02  0.63594287613E+03  0.63772897499E+03  0.10000000000E+01 0.  0.
    9000005    1    3    3    0    0 -0.44191363187E+01  0.47480259885E+02  0.13271835029E+03  0.14102859408E+03  0.10000000000E+01 0.  0.
<mgrwt>
<rscale>  0 0.12499308E+03</rscale>
<asrwt>0</asrwt>
<pdfrwt beam="2">  1        4 0.77664161E-03 0.12499308E+03</pdfrwt>
<pdfrwt beam="1">  1       -4 0.11903224E+00 0.12499308E+03</pdfrwt>
<totfact> 0.39236733E+03</totfact>
</mgrwt>
</event>
<event>
 5    1  0.3422688E-002  0.1250008E+03  0.7818608E-02  0.1235068E+00
          4   -1    0    0  501    0  0.00000000000E+00  0.00000000000E+00  0.20033175116E+02  0.20073390476E+02  0.12700000000E+01 0.  1.
         -4   -1    0    0    0  501 -0.00000000000E+00 -0.00000000000E+00 -0.19475386887E+03  0.19475800970E+03  0.12700000000E+01 0.  1.
         25    2    1    2    0    0  0.00000000000E+00  0.00000000000E+00 -0.17472069376E+03  0.21483140017E+03  0.12500083869E+03 0.  0.
    9000005    1    3    3    0    0  0.59735746379E+02  0.18340471926E+02 -0.86062674466E+02  0.10636031329E+03  0.10000000000E+01 0.  0.
    9000005    1    3    3    0    0 -0.59735746379E+02 -0.18340471926E+02 -0.88658019291E+02  0.10847108689E+03  0.10000000000E+01 0.  0.
<mgrwt>
<rscale>  0 0.12500084E+03</rscale>
<asrwt>0</asrwt>
<pdfrwt beam="1">  1        4 0.30854391E-02 0.12500084E+03</pdfrwt>
<pdfrwt beam="2">  1       -4 0.29965544E-01 0.12500084E+03</pdfrwt>
<totfact> 0.87691236E+03</totfact>
</mgrwt>
</event>
<event>
 5    1  0.3422688E-002  0.1249997E+03  0.7818608E-02  0.1235070E+00
         -4   -1    0    0    0  501 -0.00000000000E+00  0.00000000000E+00  0.54394470665E+02  0.54409294600E+02  0.12700000000E+01 0.  1.
          4   -1    0    0  501    0  0.00000000000E+00 -0.00000000000E+00 -0.71782758355E+02  0.71793992068E+02  0.12700000000E+01 0.  1.
         25    2    1    2    0    0  0.00000000000E+00  0.00000000000E+00 -0.17388287690E+02  0.12620328667E+03  0.12499966807E+03 0.  0.
    9000005    1    3    3    0    0 -0.58290105399E+02 -0.19243716943E+02  0.31306859188E+01  0.61472418397E+02  0.10000000000E+01 0.  0.
    9000005    1    3    3    0    0  0.58290105399E+02  0.19243716943E+02 -0.20518973609E+02  0.64730868271E+02  0.10000000000E+01 0.  0.
<mgrwt>
<rscale>  0 0.12499967E+03</rscale>
<asrwt>0</asrwt>
<pdfrwt beam="2">  1        4 0.11045506E-01 0.12499967E+03</pdfrwt>
<pdfrwt beam="1">  1       -4 0.83703845E-02 0.12499967E+03</pdfrwt>
<totfact> 0.10426585E+04</totfact>
</mgrwt>
</event>
<event>
 5    1  0.3422688E-002  0.1250091E+03  0.7818608E-02  0.1235055E+00
         -4   -1    0    0    0  501 -0.00000000000E+00  0.00000000000E+00  0.36797083228E+02  0.36818992844E+02  0.12700000000E+01 0. -1.
          4   -1    0    0  501    0  0.00000000000E+00 -0.00000000000E+00 -0.10611465053E+03  0.10612225006E+03  0.12700000000E+01 0. -1.
         25    2    1    2    0    0  0.00000000000E+00  0.00000000000E+00 -0.69317567303E+02  0.14294124290E+03  0.12500909481E+03 0.  0.
    9000005    1    3    3    0    0  0.34047199204E+01  0.30609835659E+02 -0.96840257707E+02  0.10162474930E+03  0.10000000000E+01 0.  0.
    9000005    1    3    3    0    0 -0.34047199204E+01 -0.30609835659E+02  0.27522690403E+02  0.41316493606E+02  0.10000000000E+01 0.  0.
<mgrwt>
<rscale>  0 0.12500909E+03</rscale>
<asrwt>0</asrwt>
<pdfrwt beam="2">  1        4 0.16327601E-01 0.12500909E+03</pdfrwt>
<pdfrwt beam="1">  1       -4 0.56633597E-02 0.12500909E+03</pdfrwt>
<totfact> 0.10070924E+04</totfact>
</mgrwt>
</event>
<event>
 5    1  0.3422688E-002  0.1249981E+03  0.7818608E-02  0.1235072E+00
         -4   -1    0    0    0  501 -0.00000000000E+00  0.00000000000E+00  0.10717422894E+02  0.10792407215E+02  0.12700000000E+01 0. -1.
          4   -1    0    0  501    0  0.00000000000E+00 -0.00000000000E+00 -0.36311881650E+03  0.36312103739E+03  0.12700000000E+01 0. -1.
         25    2    1    2    0    0  0.00000000000E+00  0.00000000000E+00 -0.35240139361E+03  0.37391344461E+03  0.12499808735E+03 0.  0.
    9000005    1    3    3    0    0  0.50473991379E+02  0.34912462419E+02 -0.21142083330E+03  0.22015056800E+03  0.10000000000E+01 0.  0.
    9000005    1    3    3    0    0 -0.50473991379E+02 -0.34912462419E+02 -0.14098056031E+03  0.15376287661E+03  0.10000000000E+01 0.  0.
<mgrwt>
<rscale>  0 0.12499809E+03</rscale>
<asrwt>0</asrwt>
<pdfrwt beam="2">  1        4 0.55870363E-01 0.12499809E+03</pdfrwt>
<pdfrwt beam="1">  1       -4 0.16547734E-02 0.12499809E+03</pdfrwt>
<totfact> 0.67174339E+03</totfact>
</mgrwt>
</event>
<event>
 5    1  0.3422688E-002  0.1249974E+03  0.7818608E-02  0.1235073E+00
         -4   -1    0    0    0  501 -0.00000000000E+00  0.00000000000E+00  0.15920167329E+02  0.15970742869E+02  0.12700000000E+01 0. -1.
          4   -1    0    0  501    0  0.00000000000E+00 -0.00000000000E+00 -0.24491345065E+03  0.24491674342E+03  0.12700000000E+01 0. -1.
         25    2    1    2    0    0  0.00000000000E+00  0.00000000000E+00 -0.22899328332E+03  0.26088748629E+03  0.12499742677E+03 0.  0.
    9000005    1    3    3    0    0 -0.15131855800E+02  0.43152515188E+02 -0.20338973303E+03  0.20846941294E+03  0.10000000000E+01 0.  0.
    9000005    1    3    3    0    0  0.15131855800E+02 -0.43152515188E+02 -0.25603550288E+02  0.52418073356E+02  0.10000000000E+01 0.  0.
<mgrwt>
<rscale>  0 0.12499743E+03</rscale>
<asrwt>0</asrwt>
<pdfrwt beam="2">  1        4 0.37683133E-01 0.12499743E+03</pdfrwt>
<pdfrwt beam="1">  1       -4 0.24534004E-02 0.12499743E+03</pdfrwt>
<totfact> 0.80786304E+03</totfact>
</mgrwt>
</event>
<event>
 5    1  0.3422688E-002  0.1250088E+03  0.7818608E-02  0.1235056E+00
         -4   -1    0    0    0  501 -0.00000000000E+00  0.00000000000E+00  0.73130529421E+02  0.73141556132E+02  0.12700000000E+01 0. -1.
          4   -1    0    0  501    0  0.00000000000E+00 -0.00000000000E+00 -0.53399689559E+02  0.53414789572E+02  0.12700000000E+01 0. -1.
         25    2    1    2    0    0  0.00000000000E+00  0.00000000000E+00  0.19730839862E+02  0.12655634570E+03  0.12500881007E+03 0.  0.
    9000005    1    3    3    0    0  0.33462794585E+01 -0.37349130251E+02  0.60480801872E+02  0.71169393083E+02  0.10000000000E+01 0.  0.
    9000005    1    3    3    0    0 -0.33462794585E+01  0.37349130251E+02 -0.40749962010E+02  0.55386952620E+02  0.10000000000E+01 0.  0.
<mgrwt>
<rscale>  0 0.12500881E+03</rscale>
<asrwt>0</asrwt>
<pdfrwt beam="2">  1        4 0.82173466E-02 0.12500881E+03</pdfrwt>
<pdfrwt beam="1">  1       -4 0.11252860E-01 0.12500881E+03</pdfrwt>
<totfact> 0.10416728E+04</totfact>
</mgrwt>
</event>
<event>
 5    1  0.3422688E-002  0.1250020E+03  0.7818608E-02  0.1235066E+00
          4   -1    0    0  501    0  0.00000000000E+00  0.00000000000E+00  0.10155228545E+02  0.10234332748E+02  0.12700000000E+01 0. -1.
         -4   -1    0    0    0  501 -0.00000000000E+00 -0.00000000000E+00 -0.38309373536E+03  0.38309584045E+03  0.12700000000E+01 0. -1.
         25    2    1    2    0    0  0.00000000000E+00  0.00000000000E+00 -0.37293850682E+03  0.39333017320E+03  0.12500198112E+03 0.  0.
    9000005    1    3    3    0    0  0.35796908315E+01 -0.56529513020E+02 -0.26954009136E+03  0.27542923026E+03  0.10000000000E+01 0.  0.
    9000005    1    3    3    0    0 -0.35796908315E+01  0.56529513020E+02 -0.10339841546E+03  0.11790094295E+03  0.10000000000E+01 0.  0.
<mgrwt>
<rscale>  0 0.12500198E+03</rscale>
<asrwt>0</asrwt>
<pdfrwt beam="1">  1        4 0.15685900E-02 0.12500198E+03</pdfrwt>
<pdfrwt beam="2">  1       -4 0.58943733E-01 0.12500198E+03</pdfrwt>
<totfact> 0.65203851E+03</totfact>
</mgrwt>
</event>
<event>
 5    1  0.3422688E-002  0.1250028E+03  0.7818608E-02  0.1235065E+00
          4   -1    0    0  501    0  0.00000000000E+00  0.00000000000E+00  0.50301158618E+02  0.50317188498E+02  0.12700000000E+01 0.  1.
         -4   -1    0    0    0  501 -0.00000000000E+00 -0.00000000000E+00 -0.77627180197E+02  0.77637568260E+02  0.12700000000E+01 0.  1.
         25    2    1    2    0    0  0.00000000000E+00  0.00000000000E+00 -0.27326021578E+02  0.12795475676E+03  0.12500283325E+03 0.  0.
    9000005    1    3    3    0    0  0.84883405949E+01  0.58032446782E+02 -0.35750576609E+02  0.68694399578E+02  0.10000000000E+01 0.  0.
    9000005    1    3    3    0    0 -0.84883405949E+01 -0.58032446782E+02  0.84245550305E+01  0.59260357179E+02  0.10000000000E+01 0.  0.
<mgrwt>
<rscale>  0 0.12500283E+03</rscale>
<asrwt>0</asrwt>
<pdfrwt beam="1">  1        4 0.77406720E-02 0.12500283E+03</pdfrwt>
<pdfrwt beam="2">  1       -4 0.11944675E-01 0.12500283E+03</pdfrwt>
<totfact> 0.10387800E+04</totfact>
</mgrwt>
</event>
<event>
 5    1  0.3422688E-002  0.1249903E+03  0.7818608E-02  0.1235084E+00
         -4   -1    0    0    0  501 -0.00000000000E+00  0.00000000000E+00  0.12545842797E+03  0.12546485583E+03  0.12700000000E+01 0.  1.
          4   -1    0    0  501    0  0.00000000000E+00 -0.00000000000E+00 -0.31110814053E+02  0.31136725117E+02  0.12700000000E+01 0.  1.
         25    2    1    2    0    0  0.00000000000E+00  0.00000000000E+00  0.94347613918E+02  0.15660158095E+03  0.12499033124E+03 0.  0.
    9000005    1    3    3    0    0  0.26438057333E+02  0.23639285267E+02 -0.17285425510E+02  0.39466094544E+02  0.10000000000E+01 0.  0.
    9000005    1    3    3    0    0 -0.26438057333E+02 -0.23639285267E+02  0.11163303943E+03  0.11713548641E+03  0.10000000000E+01 0.  0.
<mgrwt>
<rscale>  0 0.12499033E+03</rscale>
<asrwt>0</asrwt>
<pdfrwt beam="2">  1        4 0.47887667E-02 0.12499033E+03</pdfrwt>
<pdfrwt beam="1">  1       -4 0.19303784E-01 0.12499033E+03</pdfrwt>
<totfact> 0.98023312E+03</totfact>
</mgrwt>
</event>
<event>
 5    1  0.3422688E-002  0.1249995E+03  0.7818608E-02  0.1235070E+00
          4   -1    0    0  501    0  0.00000000000E+00  0.00000000000E+00  0.70995961228E+03  0.70996074819E+03  0.12700000000E+01 0.  1.
         -4   -1    0    0    0  501 -0.00000000000E+00 -0.00000000000E+00 -0.54275839272E+01  0.55741875899E+01  0.12700000000E+01 0.  1.
         25    2    1    2    0    0  0.00000000000E+00  0.00000000000E+00  0.70453202836E+03  0.71553493578E+03  0.12499946138E+03 0.  0.
    9000005    1    3    3    0    0 -0.54131150699E+02 -0.10030988733E+02  0.18299551164E+03  0.19109986785E+03  0.10000000000E+01 0.  0.
    9000005    1    3    3    0    0  0.54131150699E+02  0.10030988733E+02  0.52153651671E+03  0.52443506793E+03  0.10000000000E+01 0.  0.
<mgrwt>
<rscale>  0 0.12499946E+03</rscale>
<asrwt>0</asrwt>
<pdfrwt beam="1">  1        4 0.10923590E+00 0.12499946E+03</pdfrwt>
<pdfrwt beam="2">  1       -4 0.84637765E-03 0.12499946E+03</pdfrwt>
<totfact> 0.42279719E+03</totfact>
</mgrwt>
</event>
<event>
 5    1  0.3422688E-002  0.1250129E+03  0.7818608E-02  0.1235049E+00
          4   -1    0    0  501    0  0.00000000000E+00  0.00000000000E+00  0.10221812199E+03  0.10222601118E+03  0.12700000000E+01 0. -1.
         -4   -1    0    0    0  501 -0.00000000000E+00 -0.00000000000E+00 -0.38202811208E+02  0.38223915082E+02  0.12700000000E+01 0. -1.
         25    2    1    2    0    0  0.00000000000E+00  0.00000000000E+00  0.64015310778E+02  0.14044992626E+03  0.12501288643E+03 0.  0.
    9000005    1    3    3    0    0  0.12174042352E+02 -0.61271262332E+02  0.34163031185E+02  0.71207356324E+02  0.10000000000E+01 0.  0.
    9000005    1    3    3    0    0 -0.12174042352E+02  0.61271262332E+02  0.29852279592E+02  0.69242569939E+02  0.10000000000E+01 0.  0.
<mgrwt>
<rscale>  0 0.12501289E+03</rscale>
<asrwt>0</asrwt>
<pdfrwt beam="1">  1        4 0.15728095E-01 0.12501289E+03</pdfrwt>
<pdfrwt beam="2">  1       -4 0.58795858E-02 0.12501289E+03</pdfrwt>
<totfact> 0.10121331E+04</totfact>
</mgrwt>
</event>
<event>
 5    1  0.3422688E-002  0.1249993E+03  0.7818608E-02  0.1235070E+00
          4   -1    0    0  501    0  0.00000000000E+00  0.00000000000E+00  0.21044123962E+01  0.24579364380E+01  0.12700000000E+01 0. -1.
         -4   -1    0    0    0  501 -0.00000000000E+00 -0.00000000000E+00 -0.17120119575E+04  0.17120124286E+04  0.12700000000E+01 0. -1.
         25    2    1    2    0    0  0.00000000000E+00  0.00000000000E+00 -0.17099075452E+04  0.17144703650E+04  0.12499927853E+03 0.  0.
    9000005    1    3    3    0    0  0.43573108637E+02  0.31347301804E+02 -0.12938469564E+04  0.12949603144E+04  0.10000000000E+01 0.  0.
    9000005    1    3    3    0    0 -0.43573108637E+02 -0.31347301804E+02 -0.41606058872E+03  0.41951005067E+03  0.10000000000E+01 0.  0.
<mgrwt>
<rscale>  0 0.12499928E+03</rscale>
<asrwt>0</asrwt>
<pdfrwt beam="1">  1        4 0.35098751E-03 0.12499928E+03</pdfrwt>
<pdfrwt beam="2">  1       -4 0.26341266E+00 0.12499928E+03</pdfrwt>
<totfact> 0.14068240E+03</totfact>
</mgrwt>
</event>
<event>
 5    1  0.3422688E-002  0.1250009E+03  0.7818608E-02  0.1235068E+00
          4   -1    0    0  501    0  0.00000000000E+00  0.00000000000E+00  0.75040790271E+02  0.75051536324E+02  0.12700000000E+01 0. -1.
         -4   -1    0    0    0  501 -0.00000000000E+00 -0.00000000000E+00 -0.52033537537E+02  0.52049033888E+02  0.12700000000E+01 0. -1.
         25    2    1    2    0    0  0.00000000000E+00  0.00000000000E+00  0.23007252734E+02  0.12710057021E+03  0.12500088508E+03 0.  0.
    9000005    1    3    3    0    0  0.29431592408E-01 -0.77295664630E+01  0.74557839171E+02  0.74964114387E+02  0.10000000000E+01 0.  0.
    9000005    1    3    3    0    0 -0.29431592408E-01  0.77295664630E+01 -0.51550586437E+02  0.52136455825E+02  0.10000000000E+01 0.  0.
<mgrwt>
<rscale>  0 0.12500089E+03</rscale>
<asrwt>0</asrwt>
<pdfrwt beam="1">  1        4 0.11546756E-01 0.12500089E+03</pdfrwt>
<pdfrwt beam="2">  1       -4 0.80071783E-02 0.12500089E+03</pdfrwt>
<totfact> 0.10406754E+04</totfact>
</mgrwt>
</event>
<event>
 5    1  0.3422688E-002  0.1250116E+03  0.7818608E-02  0.1235051E+00
          4   -1    0    0  501    0  0.00000000000E+00  0.00000000000E+00  0.78142589965E+02  0.78152909520E+02  0.12700000000E+01 0. -1.
         -4   -1    0    0    0  501 -0.00000000000E+00 -0.00000000000E+00 -0.49976372689E+02  0.49992506710E+02  0.12700000000E+01 0. -1.
         25    2    1    2    0    0  0.00000000000E+00  0.00000000000E+00  0.28166217276E+02  0.12814541623E+03  0.12501164708E+03 0.  0.
    9000005    1    3    3    0    0 -0.37488342188E+02 -0.49846831080E+02  0.99962354271E+01  0.63174418014E+02  0.10000000000E+01 0.  0.
    9000005    1    3    3    0    0  0.37488342188E+02  0.49846831080E+02  0.18169981848E+02  0.64970998215E+02  0.10000000000E+01 0.  0.
<mgrwt>
<rscale>  0 0.12501165E+03</rscale>
<asrwt>0</asrwt>
<pdfrwt beam="1">  1        4 0.12023972E-01 0.12501165E+03</pdfrwt>
<pdfrwt beam="2">  1       -4 0.76907077E-02 0.12501165E+03</pdfrwt>
<totfact> 0.10381618E+04</totfact>
</mgrwt>
</event>
<event>
 5    1  0.3422688E-002  0.1250120E+03  0.7818608E-02  0.1235051E+00
          4   -1    0    0  501    0  0.00000000000E+00  0.00000000000E+00  0.24666693712E+02  0.24699365957E+02  0.12700000000E+01 0.  1.
         -4   -1    0    0    0  501 -0.00000000000E+00 -0.00000000000E+00 -0.15825162241E+03  0.15825671833E+03  0.12700000000E+01 0.  1.
         25    2    1    2    0    0  0.00000000000E+00  0.00000000000E+00 -0.13358492870E+03  0.18295608428E+03  0.12501198183E+03 0.  0.
    9000005    1    3    3    0    0 -0.52082835615E+02  0.32955349799E+02 -0.81953878273E+02  0.10254811071E+03  0.10000000000E+01 0.  0.
    9000005    1    3    3    0    0  0.52082835615E+02 -0.32955349799E+02 -0.51631050424E+02  0.80407973572E+02  0.10000000000E+01 0.  0.
<mgrwt>
<rscale>  0 0.12501198E+03</rscale>
<asrwt>0</asrwt>
<pdfrwt beam="1">  1        4 0.37977813E-02 0.12501198E+03</pdfrwt>
<pdfrwt beam="2">  1       -4 0.24349308E-01 0.12501198E+03</pdfrwt>
<totfact> 0.93062592E+03</totfact>
</mgrwt>
</event>
<event>
 5    1  0.3422688E-002  0.1249976E+03  0.7818608E-02  0.1235073E+00
         -4   -1    0    0    0  501 -0.00000000000E+00  0.00000000000E+00  0.11764329195E+02  0.11832681074E+02  0.12700000000E+01 0. -1.
          4   -1    0    0  501    0  0.00000000000E+00 -0.00000000000E+00 -0.33099787265E+03  0.33100030906E+03  0.12700000000E+01 0. -1.
         25    2    1    2    0    0  0.00000000000E+00  0.00000000000E+00 -0.31923354345E+03  0.34283299013E+03  0.12499761541E+03 0.  0.
    9000005    1    3    3    0    0 -0.23841750988E+02  0.57748090646E+02 -0.16332694925E+03  0.17487127670E+03  0.10000000000E+01 0.  0.
    9000005    1    3    3    0    0  0.23841750988E+02 -0.57748090646E+02 -0.15590659420E+03  0.16796171343E+03  0.10000000000E+01 0.  0.
<mgrwt>
<rscale>  0 0.12499762E+03</rscale>
<asrwt>0</asrwt>
<pdfrwt beam="2">  1        4 0.50928188E-01 0.12499762E+03</pdfrwt>
<pdfrwt beam="1">  1       -4 0.18153423E-02 0.12499762E+03</pdfrwt>
<totfact> 0.70524004E+03</totfact>
</mgrwt>
</event>
<event>
 5    1  0.3422688E-002  0.1250015E+03  0.7818608E-02  0.1235067E+00
         -4   -1    0    0    0  501 -0.00000000000E+00  0.00000000000E+00  0.65838516828E+03  0.65838639317E+03  0.12700000000E+01 0. -1.
          4   -1    0    0  501    0  0.00000000000E+00 -0.00000000000E+00 -0.58640191603E+01  0.59999683926E+01  0.12700000000E+01 0. -1.
         25    2    1    2    0    0  0.00000000000E+00  0.00000000000E+00  0.65252114912E+03  0.66438636156E+03  0.12500154952E+03 0.  0.
    9000005    1    3    3    0    0 -0.39837867920E+02 -0.22088968723E+02  0.55365226430E+03  0.55552390410E+03  0.10000000000E+01 0.  0.
    9000005    1    3    3    0    0  0.39837867920E+02  0.22088968723E+02  0.98868884816E+02  0.10886245746E+03  0.10000000000E+01 0.  0.
<mgrwt>
<rscale>  0 0.12500155E+03</rscale>
<asrwt>0</asrwt>
<pdfrwt beam="2">  1        4 0.91270894E-03 0.12500155E+03</pdfrwt>
<pdfrwt beam="1">  1       -4 0.10130055E+00 0.12500155E+03</pdfrwt>
<totfact> 0.45032947E+03</totfact>
</mgrwt>
</event>
<event>
 5    1  0.3422688E-002  0.1249999E+03  0.7818608E-02  0.1235069E+00
         -4   -1    0    0    0  501 -0.00000000000E+00  0.00000000000E+00  0.18666198745E+03  0.18666630778E+03  0.12700000000E+01 0. -1.
          4   -1    0    0  501    0  0.00000000000E+00 -0.00000000000E+00 -0.20902987515E+02  0.20941532586E+02  0.12700000000E+01 0. -1.
         25    2    1    2    0    0  0.00000000000E+00  0.00000000000E+00  0.16575899993E+03  0.20760784036E+03  0.12499987728E+03 0.  0.
    9000005    1    3    3    0    0  0.53518525836E+01  0.31084566156E+02 -0.67202413448E+01  0.32265371886E+02  0.10000000000E+01 0.  0.
    9000005    1    3    3    0    0 -0.53518525836E+01 -0.31084566156E+02  0.17247924128E+03  0.17534246848E+03  0.10000000000E+01 0.  0.
<mgrwt>
<rscale>  0 0.12499988E+03</rscale>
<asrwt>0</asrwt>
<pdfrwt beam="2">  1        4 0.32191414E-02 0.12499988E+03</pdfrwt>
<pdfrwt beam="1">  1       -4 0.28720528E-01 0.12499988E+03</pdfrwt>
<totfact> 0.88868290E+03</totfact>
</mgrwt>
</event>
<event>
 5    1  0.3422688E-002  0.1250006E+03  0.7818608E-02  0.1235068E+00
          4   -1    0    0  501    0  0.00000000000E+00  0.00000000000E+00  0.43116412790E+02  0.43135112749E+02  0.12700000000E+01 0.  1.
         -4   -1    0    0    0  501 -0.00000000000E+00 -0.00000000000E+00 -0.90555820902E+02  0.90564726021E+02  0.12700000000E+01 0.  1.
         25    2    1    2    0    0  0.00000000000E+00  0.00000000000E+00 -0.47439408112E+02  0.13369983877E+03  0.12500059778E+03 0.  0.
    9000005    1    3    3    0    0 -0.55179798625E+02 -0.13904572828E+02 -0.51346294967E+02  0.76652392844E+02  0.10000000000E+01 0.  0.
    9000005    1    3    3    0    0  0.55179798625E+02  0.13904572828E+02  0.39068868552E+01  0.57047445927E+02  0.10000000000E+01 0.  0.
<mgrwt>
<rscale>  0 0.12500060E+03</rscale>
<asrwt>0</asrwt>
<pdfrwt beam="1">  1        4 0.66354178E-02 0.12500060E+03</pdfrwt>
<pdfrwt beam="2">  1       -4 0.13933788E-01 0.12500060E+03</pdfrwt>
<totfact> 0.10265410E+04</totfact>
</mgrwt>
</event>
<event>
 5    1  0.3422688E-002  0.1249995E+03  0.7818608E-02  0.1235070E+00
         -4   -1    0    0    0  501 -0.00000000000E+00  0.00000000000E+00  0.22215366527E+03  0.22215729539E+03  0.12700000000E+01 0. -1.
          4   -1    0    0  501    0  0.00000000000E+00 -0.00000000000E+00 -0.17556695891E+02  0.17602570000E+02  0.12700000000E+01 0. -1.
         25    2    1    2    0    0  0.00000000000E+00  0.00000000000E+00  0.20459696938E+03  0.23975986539E+03  0.12499949268E+03 0.  0.
    9000005    1    3    3    0    0  0.30154503713E+02  0.53362420531E+02  0.12566266050E+03  0.13981754633E+03  0.10000000000E+01 0.  0.
    9000005    1    3    3    0    0 -0.30154503713E+02 -0.53362420531E+02  0.78934308884E+02  0.99942319055E+02  0.10000000000E+01 0.  0.
<mgrwt>
<rscale>  0 0.12499949E+03</rscale>
<asrwt>0</asrwt>
<pdfrwt beam="2">  1        4 0.27048382E-02 0.12499949E+03</pdfrwt>
<pdfrwt beam="1">  1       -4 0.34181294E-01 0.12499949E+03</pdfrwt>
<totfact> 0.83834092E+03</totfact>
</mgrwt>
</event>
<event>
 4    1  0.3422688E-002  0.1248914E+03  0.7818608E-02  0.1235239E+00
         -4   -1    0    0    0  501 -0.00000000000E+00  0.00000000000E+00  0.30716673667E+02  0.30742916927E+02  0.12700000000E+01 0. -1.
          4   -1    0    0  501    0  0.00000000000E+00 -0.00000000000E+00 -0.12686591565E+03  0.12687227221E+03  0.12700000000E+01 0. -1.
    9000005    1    1    2    0    0  0.21810499245E+02 -0.52339409303E+02 -0.15084116838E+02  0.58682554684E+02  0.10000000000E+01 0.  0.
    9000005    1    1    2    0    0 -0.21810499245E+02  0.52339409303E+02 -0.81065125148E+02  0.98932634448E+02  0.10000000000E+01 0.  0.
<mgrwt>
<rscale>  0 0.12489144E+03</rscale>
<asrwt>0</asrwt>
<pdfrwt beam="2">  1        4 0.19520341E-01 0.12489144E+03</pdfrwt>
<pdfrwt beam="1">  1       -4 0.47281498E-02 0.12489144E+03</pdfrwt>
<totfact> 0.98043647E+03</totfact>
</mgrwt>
</event>
<event>
 5    1  0.3422688E-002  0.1250166E+03  0.7818608E-02  0.1235043E+00
          4   -1    0    0  501    0  0.00000000000E+00  0.00000000000E+00  0.73970400147E+01  0.75052715460E+01  0.12700000000E+01 0.  1.
         -4   -1    0    0    0  501 -0.00000000000E+00 -0.00000000000E+00 -0.52427758064E+03  0.52427911885E+03  0.12700000000E+01 0.  1.
         25    2    1    2    0    0  0.00000000000E+00  0.00000000000E+00 -0.51688054062E+03  0.53178439039E+03  0.12501657727E+03 0.  0.
    9000005    1    3    3    0    0 -0.36345724129E+02 -0.50000937470E+02 -0.29769922018E+03  0.30405086927E+03  0.10000000000E+01 0.  0.
    9000005    1    3    3    0    0  0.36345724129E+02  0.50000937470E+02 -0.21918132044E+03  0.22773352112E+03  0.10000000000E+01 0.  0.
<mgrwt>
<rscale>  0 0.12501658E+03</rscale>
<asrwt>0</asrwt>
<pdfrwt beam="1">  1        4 0.11464504E-02 0.12501658E+03</pdfrwt>
<pdfrwt beam="2">  1       -4 0.80666504E-01 0.12501658E+03</pdfrwt>
<totfact> 0.53460495E+03</totfact>
</mgrwt>
</event>
<event>
 5    1  0.3422688E-002  0.1250017E+03  0.7818608E-02  0.1235067E+00
          4   -1    0    0  501    0  0.00000000000E+00  0.00000000000E+00  0.39028510314E+02  0.39049167946E+02  0.12700000000E+01 0. -1.
         -4   -1    0    0    0  501 -0.00000000000E+00 -0.00000000000E+00 -0.10003868898E+03  0.10004675003E+03  0.12700000000E+01 0. -1.
         25    2    1    2    0    0  0.00000000000E+00  0.00000000000E+00 -0.61010178664E+02  0.13909591798E+03  0.12500172998E+03 0.  0.
    9000005    1    3    3    0    0 -0.32863316207E+02  0.26540046652E+02  0.20741776898E+02  0.47070085376E+02  0.10000000000E+01 0.  0.
    9000005    1    3    3    0    0  0.32863316207E+02 -0.26540046652E+02 -0.81751955561E+02  0.92025832604E+02  0.10000000000E+01 0.  0.
<mgrwt>
<rscale>  0 0.12500173E+03</rscale>
<asrwt>0</asrwt>
<pdfrwt beam="1">  1        4 0.60065954E-02 0.12500173E+03</pdfrwt>
<pdfrwt beam="2">  1       -4 0.15392777E-01 0.12500173E+03</pdfrwt>
<totfact> 0.10151962E+04</totfact>
</mgrwt>
</event>
<event>
 5    1  0.3422688E-002  0.1249985E+03  0.7818608E-02  0.1235072E+00
         -4   -1    0    0    0  501 -0.00000000000E+00  0.00000000000E+00  0.14352149396E+02  0.14408230019E+02  0.12700000000E+01 0.  1.
          4   -1    0    0  501    0  0.00000000000E+00 -0.00000000000E+00 -0.27157714984E+03  0.27158011933E+03  0.12700000000E+01 0.  1.
         25    2    1    2    0    0  0.00000000000E+00  0.00000000000E+00 -0.25722500044E+03  0.28598834934E+03  0.12499854043E+03 0.  0.
    9000005    1    3    3    0    0  0.25396722456E+02  0.24354676197E+02 -0.10456405196E+02  0.36721658103E+02  0.10000000000E+01 0.  0.
    9000005    1    3    3    0    0 -0.25396722456E+02 -0.24354676197E+02 -0.24676859524E+03  0.24926669124E+03  0.10000000000E+01 0.  0.
<mgrwt>
<rscale>  0 0.12499854E+03</rscale>
<asrwt>0</asrwt>
<pdfrwt beam="2">  1        4 0.41785638E-01 0.12499854E+03</pdfrwt>
<pdfrwt beam="1">  1       -4 0.22125655E-02 0.12499854E+03</pdfrwt>
<totfact> 0.77393247E+03</totfact>
</mgrwt>
</event>
<event>
 5    1  0.3422688E-002  0.1250220E+03  0.7818608E-02  0.1235035E+00
          4   -1    0    0  501    0  0.00000000000E+00  0.00000000000E+00  0.10628986280E+02  0.10704590107E+02  0.12700000000E+01 0.  1.
         -4   -1    0    0    0  501 -0.00000000000E+00 -0.00000000000E+00 -0.36625914518E+03  0.36626134703E+03  0.12700000000E+01 0.  1.
         25    2    1    2    0    0  0.00000000000E+00  0.00000000000E+00 -0.35563015890E+03  0.37696593714E+03  0.12502202943E+03 0.  0.
    9000005    1    3    3    0    0  0.20914137315E+01 -0.62448241654E+02 -0.17307626586E+03  0.18401236562E+03  0.10000000000E+01 0.  0.
    9000005    1    3    3    0    0 -0.20914137315E+01  0.62448241654E+02 -0.18255389305E+03  0.19295357152E+03  0.10000000000E+01 0.  0.
<mgrwt>
<rscale>  0 0.12502203E+03</rscale>
<asrwt>0</asrwt>
<pdfrwt beam="1">  1        4 0.16412140E-02 0.12502203E+03</pdfrwt>
<pdfrwt beam="2">  1       -4 0.56353536E-01 0.12502203E+03</pdfrwt>
<totfact> 0.66823877E+03</totfact>
</mgrwt>
</event>
<event>
 5    1  0.3422688E-002  0.1250001E+03  0.7818608E-02  0.1235069E+00
          4   -1    0    0  501    0  0.00000000000E+00  0.00000000000E+00  0.39833805018E+03  0.39834007471E+03  0.12700000000E+01 0.  1.
         -4   -1    0    0    0  501 -0.00000000000E+00 -0.00000000000E+00 -0.97632141782E+01  0.98454685561E+01  0.12700000000E+01 0.  1.
         25    2    1    2    0    0  0.00000000000E+00  0.00000000000E+00  0.38857483600E+03  0.40818554327E+03  0.12500013824E+03 0.  0.
    9000005    1    3    3    0    0  0.24600897118E+02  0.43604321320E+02  0.72160286804E+02  0.87833068764E+02  0.10000000000E+01 0.  0.
    9000005    1    3    3    0    0 -0.24600897118E+02 -0.43604321320E+02  0.31641454920E+03  0.32035247451E+03  0.10000000000E+01 0.  0.
<mgrwt>
<rscale>  0 0.12500014E+03</rscale>
<asrwt>0</asrwt>
<pdfrwt beam="1">  1        4 0.61289263E-01 0.12500014E+03</pdfrwt>
<pdfrwt beam="2">  1       -4 0.15085159E-02 0.12500014E+03</pdfrwt>
<totfact> 0.63764185E+03</totfact>
</mgrwt>
</event>
<event>
 5    1  0.3422688E-002  0.1250017E+03  0.7818608E-02  0.1235067E+00
          4   -1    0    0  501    0  0.00000000000E+00  0.00000000000E+00  0.95437486378E+03  0.95437570879E+03  0.12700000000E+01 0. -1.
         -4   -1    0    0    0  501 -0.00000000000E+00 -0.00000000000E+00 -0.39937215223E+01  0.41907888992E+01  0.12700000000E+01 0. -1.
         25    2    1    2    0    0  0.00000000000E+00  0.00000000000E+00  0.95038114226E+03  0.95856649769E+03  0.12500165967E+03 0.  0.
    9000005    1    3    3    0    0 -0.13707813797E+02  0.39923944568E+02  0.12181584461E+03  0.12892604666E+03  0.10000000000E+01 0.  0.
    9000005    1    3    3    0    0  0.13707813797E+02 -0.39923944568E+02  0.82856529765E+03  0.82964045102E+03  0.10000000000E+01 0.  0.
<mgrwt>
<rscale>  0 0.12500166E+03</rscale>
<asrwt>0</asrwt>
<pdfrwt beam="1">  1        4 0.14684194E+00 0.12500166E+03</pdfrwt>
<pdfrwt beam="2">  1       -4 0.62964352E-03 0.12500166E+03</pdfrwt>
<totfact> 0.32012646E+03</totfact>
</mgrwt>
</event>
<event>
 5    1  0.3422688E-002  0.1250004E+03  0.7818608E-02  0.1235069E+00
         -4   -1    0    0    0  501 -0.00000000000E+00  0.00000000000E+00  0.10974395038E+03  0.10975129860E+03  0.12700000000E+01 0. -1.
          4   -1    0    0  501    0  0.00000000000E+00 -0.00000000000E+00 -0.35574573870E+02  0.35597235933E+02  0.12700000000E+01 0. -1.
         25    2    1    2    0    0  0.00000000000E+00  0.00000000000E+00  0.74169376505E+02  0.14534853453E+03  0.12500040032E+03 0.  0.
    9000005    1    3    3    0    0 -0.39309548380E+02  0.70613091701E+01  0.92973058224E+02  0.10119334087E+03  0.10000000000E+01 0.  0.
    9000005    1    3    3    0    0  0.39309548380E+02 -0.70613091701E+01 -0.18803681719E+02  0.44155193661E+02  0.10000000000E+01 0.  0.
<mgrwt>
<rscale>  0 0.12500040E+03</rscale>
<asrwt>0</asrwt>
<pdfrwt beam="2">  1        4 0.54753199E-02 0.12500040E+03</pdfrwt>
<pdfrwt beam="1">  1       -4 0.16885993E-01 0.12500040E+03</pdfrwt>
<totfact> 0.10023821E+04</totfact>
</mgrwt>
</event>
<event>
 5    1  0.3422688E-002  0.1250012E+03  0.7818608E-02  0.1235067E+00
         -4   -1    0    0    0  501 -0.00000000000E+00  0.00000000000E+00  0.55585498118E+01  0.57017870892E+01  0.12700000000E+01 0. -1.
          4   -1    0    0  501    0  0.00000000000E+00 -0.00000000000E+00 -0.69367674387E+03  0.69367790644E+03  0.12700000000E+01 0. -1.
         25    2    1    2    0    0  0.00000000000E+00  0.00000000000E+00 -0.68811819406E+03  0.69937969353E+03  0.12500122691E+03 0.  0.
    9000005    1    3    3    0    0  0.58925736860E+01  0.12620153393E+02 -0.68490955279E+03  0.68505188578E+03  0.10000000000E+01 0.  0.
    9000005    1    3    3    0    0 -0.58925736860E+01 -0.12620153393E+02 -0.32086412631E+01  0.14327807755E+02  0.10000000000E+01 0.  0.
<mgrwt>
<rscale>  0 0.12500123E+03</rscale>
<asrwt>0</asrwt>
<pdfrwt beam="2">  1        4 0.10673054E+00 0.12500123E+03</pdfrwt>
<pdfrwt beam="1">  1       -4 0.86626974E-03 0.12500123E+03</pdfrwt>
<totfact> 0.43118319E+03</totfact>
</mgrwt>
</event>
<event>
 5    1  0.3422688E-002  0.1250111E+03  0.7818608E-02  0.1235052E+00
         -4   -1    0    0    0  501 -0.00000000000E+00  0.00000000000E+00  0.15364762183E+02  0.15417159821E+02  0.12700000000E+01 0.  1.
          4   -1    0    0  501    0  0.00000000000E+00 -0.00000000000E+00 -0.25379256999E+03  0.25379574757E+03  0.12700000000E+01 0.  1.
         25    2    1    2    0    0  0.00000000000E+00  0.00000000000E+00 -0.23842780781E+03  0.26921290739E+03  0.12501107938E+03 0.  0.
    9000005    1    3    3    0    0  0.70721990771E+01  0.59806741217E+02 -0.83237985974E+02  0.10274446264E+03  0.10000000000E+01 0.  0.
    9000005    1    3    3    0    0 -0.70721990771E+01 -0.59806741217E+02 -0.15518982183E+03  0.16646844474E+03  0.10000000000E+01 0.  0.
<mgrwt>
<rscale>  0 0.12501108E+03</rscale>
<asrwt>0</asrwt>
<pdfrwt beam="2">  1        4 0.39049283E-01 0.12501108E+03</pdfrwt>
<pdfrwt beam="1">  1       -4 0.23680848E-02 0.12501108E+03</pdfrwt>
<totfact> 0.79610675E+03</totfact>
</mgrwt>
</event>
<event>
 5    1  0.3422688E-002  0.1249981E+03  0.7818608E-02  0.1235072E+00
          4   -1    0    0  501    0  0.00000000000E+00  0.00000000000E+00  0.36091259873E+02  0.36113597705E+02  0.12700000000E+01 0. -1.
         -4   -1    0    0    0  501 -0.00000000000E+00 -0.00000000000E+00 -0.10816975160E+03  0.10817720676E+03  0.12700000000E+01 0. -1.
         25    2    1    2    0    0  0.00000000000E+00  0.00000000000E+00 -0.72078491730E+02  0.14429080446E+03  0.12499810912E+03 0.  0.
    9000005    1    3    3    0    0  0.38863105366E+01 -0.47837209213E+01  0.35745209105E+02  0.36286462619E+02  0.10000000000E+01 0.  0.
    9000005    1    3    3    0    0 -0.38863105366E+01  0.47837209213E+01 -0.10782370083E+03  0.10800434184E+03  0.10000000000E+01 0.  0.
<mgrwt>
<rscale>  0 0.12499811E+03</rscale>
<asrwt>0</asrwt>
<pdfrwt beam="1">  1        4 0.55547933E-02 0.12499811E+03</pdfrwt>
<pdfrwt beam="2">  1       -4 0.16643792E-01 0.12499811E+03</pdfrwt>
<totfact> 0.10045845E+04</totfact>
</mgrwt>
</event>
<event>
 5    1  0.3422688E-002  0.1249778E+03  0.7818608E-02  0.1235104E+00
         -4   -1    0    0    0  501 -0.00000000000E+00  0.00000000000E+00  0.13695804799E+03  0.13696393617E+03  0.12700000000E+01 0. -1.
          4   -1    0    0  501    0  0.00000000000E+00 -0.00000000000E+00 -0.28490715912E+02  0.28519007577E+02  0.12700000000E+01 0. -1.
         25    2    1    2    0    0  0.00000000000E+00  0.00000000000E+00  0.10846733208E+03  0.16548294374E+03  0.12497776819E+03 0.  0.
    9000005    1    3    3    0    0 -0.32780452791E+02 -0.34762864884E+02  0.92579730947E+00  0.47800334317E+02  0.10000000000E+01 0.  0.
    9000005    1    3    3    0    0  0.32780452791E+02  0.34762864884E+02  0.10754153477E+03  0.11768260943E+03  0.10000000000E+01 0.  0.
<mgrwt>
<rscale>  0 0.12497777E+03</rscale>
<asrwt>0</asrwt>
<pdfrwt beam="2">  1        4 0.43858162E-02 0.12497777E+03</pdfrwt>
<pdfrwt beam="1">  1       -4 0.21073099E-01 0.12497777E+03</pdfrwt>
<totfact> 0.96344114E+03</totfact>
</mgrwt>
</event>
<event>
 5    1  0.3422688E-002  0.1249998E+03  0.7818608E-02  0.1235070E+00
          4   -1    0    0  501    0  0.00000000000E+00  0.00000000000E+00  0.79252968285E+01  0.80264082764E+01  0.12700000000E+01 0.  1.
         -4   -1    0    0    0  501 -0.00000000000E+00 -0.00000000000E+00 -0.48965610115E+03  0.48965774812E+03  0.12700000000E+01 0.  1.
         25    2    1    2    0    0  0.00000000000E+00  0.00000000000E+00 -0.48173080433E+03  0.49768415640E+03  0.12499980678E+03 0.  0.
    9000005    1    3    3    0    0  0.21220979015E+02  0.13892337694E+02 -0.13470605673E+02  0.28736461407E+02  0.10000000000E+01 0.  0.
    9000005    1    3    3    0    0 -0.21220979015E+02 -0.13892337694E+02 -0.46826019865E+03  0.46894769499E+03  0.10000000000E+01 0.  0.
<mgrwt>
<rscale>  0 0.12499981E+03</rscale>
<asrwt>0</asrwt>
<pdfrwt beam="1">  1        4 0.12271813E-02 0.12499981E+03</pdfrwt>
<pdfrwt beam="2">  1       -4 0.75339589E-01 0.12499981E+03</pdfrwt>
<totfact> 0.56044744E+03</totfact>
</mgrwt>
</event>
<event>
 5    1  0.3422688E-002  0.1250020E+03  0.7818608E-02  0.1235066E+00
          4   -1    0    0  501    0  0.00000000000E+00  0.00000000000E+00  0.30088918087E+01  0.32659347691E+01  0.12700000000E+01 0. -1.
         -4   -1    0    0    0  501 -0.00000000000E+00 -0.00000000000E+00 -0.12448372905E+04  0.12448379383E+04  0.12700000000E+01 0. -1.
         25    2    1    2    0    0  0.00000000000E+00  0.00000000000E+00 -0.12418283987E+04  0.12481038731E+04  0.12500202503E+03 0.  0.
    9000005    1    3    3    0    0  0.33717818147E+02 -0.59120341593E+01 -0.11429446725E+04  0.11434576370E+04  0.10000000000E+01 0.  0.
    9000005    1    3    3    0    0 -0.33717818147E+02  0.59120341593E+01 -0.98883726242E+02  0.10464623607E+03  0.10000000000E+01 0.  0.
<mgrwt>
<rscale>  0 0.12500203E+03</rscale>
<asrwt>0</asrwt>
<pdfrwt beam="1">  1        4 0.48272979E-03 0.12500203E+03</pdfrwt>
<pdfrwt beam="2">  1       -4 0.19153286E+00 0.12500203E+03</pdfrwt>
<totfact> 0.23486203E+03</totfact>
</mgrwt>
</event>
<event>
 5    1  0.3422688E-002  0.1250045E+03  0.7818608E-02  0.1235062E+00
          4   -1    0    0  501    0  0.00000000000E+00  0.00000000000E+00  0.24091960185E+02  0.24125410785E+02  0.12700000000E+01 0. -1.
         -4   -1    0    0    0  501 -0.00000000000E+00 -0.00000000000E+00 -0.16200234412E+03  0.16200732206E+03  0.12700000000E+01 0. -1.
         25    2    1    2    0    0  0.00000000000E+00  0.00000000000E+00 -0.13791038394E+03  0.18613273285E+03  0.12500448087E+03 0.  0.
    9000005    1    3    3    0    0 -0.57168494420E+02  0.12019921237E+02 -0.10201033521E+03  0.11755774645E+03  0.10000000000E+01 0.  0.
    9000005    1    3    3    0    0  0.57168494420E+02 -0.12019921237E+02 -0.35900048732E+02  0.68574986400E+02  0.10000000000E+01 0.  0.
<mgrwt>
<rscale>  0 0.12500448E+03</rscale>
<asrwt>0</asrwt>
<pdfrwt beam="1">  1        4 0.37094115E-02 0.12500448E+03</pdfrwt>
<pdfrwt beam="2">  1       -4 0.24926393E-01 0.12500448E+03</pdfrwt>
<totfact> 0.92515305E+03</totfact>
</mgrwt>
</event>
<event>
 5    1  0.3422688E-002  0.1249995E+03  0.7818608E-02  0.1235070E+00
          4   -1    0    0  501    0  0.00000000000E+00  0.00000000000E+00  0.52406052642E+02  0.52421438873E+02  0.12700000000E+01 0. -1.
         -4   -1    0    0    0  501 -0.00000000000E+00 -0.00000000000E+00 -0.74505837812E+02  0.74516661010E+02  0.12700000000E+01 0. -1.
         25    2    1    2    0    0  0.00000000000E+00  0.00000000000E+00 -0.22099785170E+02  0.12693809988E+03  0.12499952279E+03 0.  0.
    9000005    1    3    3    0    0 -0.54308348614E+02 -0.19169526434E+02 -0.35682053560E+02  0.67757482385E+02  0.10000000000E+01 0.  0.
    9000005    1    3    3    0    0  0.54308348614E+02  0.19169526434E+02  0.13582268390E+02  0.59180617499E+02  0.10000000000E+01 0.  0.
<mgrwt>
<rscale>  0 0.12499952E+03</rscale>
<asrwt>0</asrwt>
<pdfrwt beam="1">  1        4 0.80644858E-02 0.12499952E+03</pdfrwt>
<pdfrwt beam="2">  1       -4 0.11464453E-01 0.12499952E+03</pdfrwt>
<totfact> 0.10410603E+04</totfact>
</mgrwt>
</event>
<event>
 5    1  0.3422688E-002  0.1249978E+03  0.7818608E-02  0.1235073E+00
         -4   -1    0    0    0  501 -0.00000000000E+00  0.00000000000E+00  0.11098305840E+03  0.11099032459E+03  0.12700000000E+01 0. -1.
          4   -1    0    0  501    0  0.00000000000E+00 -0.00000000000E+00 -0.35175715596E+02  0.35198634458E+02  0.12700000000E+01 0. -1.
         25    2    1    2    0    0  0.00000000000E+00  0.00000000000E+00  0.75807342803E+02  0.14618895904E+03  0.12499783407E+03 0.  0.
    9000005    1    3    3    0    0 -0.49716311110E+02  0.36398834010E+02  0.25719869423E+02  0.66776480821E+02  0.10000000000E+01 0.  0.
    9000005    1    3    3    0    0  0.49716311110E+02 -0.36398834010E+02  0.50087473381E+02  0.79412478222E+02  0.10000000000E+01 0.  0.
<mgrwt>
<rscale>  0 0.12499783E+03</rscale>
<asrwt>0</asrwt>
<pdfrwt beam="2">  1        4 0.54139705E-02 0.12499783E+03</pdfrwt>
<pdfrwt beam="1">  1       -4 0.17076639E-01 0.12499783E+03</pdfrwt>
<totfact> 0.10007375E+04</totfact>
</mgrwt>
</event>
<event>
 5    1  0.3422688E-002  0.1249882E+03  0.7818608E-02  0.1235088E+00
         -4   -1    0    0    0  501 -0.00000000000E+00  0.00000000000E+00  0.95666793435E+02  0.95675222843E+02  0.12700000000E+01 0. -1.
          4   -1    0    0  501    0  0.00000000000E+00 -0.00000000000E+00 -0.40803984599E+02  0.40823743816E+02  0.12700000000E+01 0. -1.
         25    2    1    2    0    0  0.00000000000E+00  0.00000000000E+00  0.54862808836E+02  0.13649896666E+03  0.12498815986E+03 0.  0.
    9000005    1    3    3    0    0  0.47381917947E+02 -0.10482724161E+02  0.70421358603E+02  0.85528366064E+02  0.10000000000E+01 0.  0.
    9000005    1    3    3    0    0 -0.47381917947E+02  0.10482724161E+02 -0.15558549767E+02  0.50970600595E+02  0.10000000000E+01 0.  0.
<mgrwt>
<rscale>  0 0.12498816E+03</rscale>
<asrwt>0</asrwt>
<pdfrwt beam="2">  1        4 0.62797045E-02 0.12498816E+03</pdfrwt>
<pdfrwt beam="1">  1       -4 0.14720136E-01 0.12498816E+03</pdfrwt>
<totfact> 0.10209298E+04</totfact>
</mgrwt>
</event>
<event>
 5    1  0.3422688E-002  0.1250001E+03  0.7818608E-02  0.1235069E+00
         -4   -1    0    0    0  501 -0.00000000000E+00  0.00000000000E+00  0.36571075176E+03  0.36571295691E+03  0.12700000000E+01 0.  1.
          4   -1    0    0  501    0  0.00000000000E+00 -0.00000000000E+00 -0.10641279642E+02  0.10716796743E+02  0.12700000000E+01 0.  1.
         25    2    1    2    0    0  0.00000000000E+00  0.00000000000E+00  0.35506947212E+03  0.37642975365E+03  0.12500011762E+03 0.  0.
    9000005    1    3    3    0    0 -0.57487666034E+02  0.24461982164E+02  0.17323667410E+03  0.18416070583E+03  0.10000000000E+01 0.  0.
    9000005    1    3    3    0    0  0.57487666034E+02 -0.24461982164E+02  0.18183279802E+03  0.19226904783E+03  0.10000000000E+01 0.  0.
<mgrwt>
<rscale>  0 0.12500012E+03</rscale>
<asrwt>0</asrwt>
<pdfrwt beam="2">  1        4 0.16430985E-02 0.12500012E+03</pdfrwt>
<pdfrwt beam="1">  1       -4 0.56269172E-01 0.12500012E+03</pdfrwt>
<totfact> 0.66911410E+03</totfact>
</mgrwt>
</event>
<event>
 5    1  0.3422688E-002  0.1249978E+03  0.7818608E-02  0.1235073E+00
         -4   -1    0    0    0  501 -0.00000000000E+00  0.00000000000E+00  0.27824636324E+03  0.27824926155E+03  0.12700000000E+01 0.  1.
          4   -1    0    0  501    0  0.00000000000E+00 -0.00000000000E+00 -0.14006617899E+02  0.14064076400E+02  0.12700000000E+01 0.  1.
         25    2    1    2    0    0  0.00000000000E+00  0.00000000000E+00  0.26423974534E+03  0.29231333795E+03  0.12499777809E+03 0.  0.
    9000005    1    3    3    0    0 -0.11453369589E+02  0.32119215546E+02  0.25458228976E+03  0.25685787109E+03  0.10000000000E+01 0.  0.
    9000005    1    3    3    0    0  0.11453369589E+02 -0.32119215546E+02  0.96574555810E+01  0.35455466864E+02  0.10000000000E+01 0.  0.
<mgrwt>
<rscale>  0 0.12499778E+03</rscale>
<asrwt>0</asrwt>
<pdfrwt beam="2">  1        4 0.21595072E-02 0.12499778E+03</pdfrwt>
<pdfrwt beam="1">  1       -4 0.42811774E-01 0.12499778E+03</pdfrwt>
<totfact> 0.76577047E+03</totfact>
</mgrwt>
</event>
<event>
 5    1  0.3422688E-002  0.1249957E+03  0.7818608E-02  0.1235076E+00
          4   -1    0    0  501    0  0.00000000000E+00  0.00000000000E+00  0.31357630294E+03  0.31357887471E+03  0.12700000000E+01 0.  1.
         -4   -1    0    0    0  501 -0.00000000000E+00 -0.00000000000E+00 -0.12421227521E+02  0.12485983867E+02  0.12700000000E+01 0.  1.
         25    2    1    2    0    0  0.00000000000E+00  0.00000000000E+00  0.30115507542E+03  0.32606485858E+03  0.12499565012E+03 0.  0.
    9000005    1    3    3    0    0 -0.32999031612E+02 -0.44131531623E+02  0.22745189488E+03  0.23403395620E+03  0.10000000000E+01 0.  0.
    9000005    1    3    3    0    0  0.32999031612E+02  0.44131531623E+02  0.73703180539E+02  0.92030902377E+02  0.10000000000E+01 0.  0.
<mgrwt>
<rscale>  0 0.12499565E+03</rscale>
<asrwt>0</asrwt>
<pdfrwt beam="1">  1        4 0.48247684E-01 0.12499565E+03</pdfrwt>
<pdfrwt beam="2">  1       -4 0.19161373E-02 0.12499565E+03</pdfrwt>
<totfact> 0.72447534E+03</totfact>
</mgrwt>
</event>
<event>
 5    1  0.3422688E-002  0.1250013E+03  0.7818608E-02  0.1235067E+00
         -4   -1    0    0    0  501 -0.00000000000E+00  0.00000000000E+00  0.42530380968E+03  0.42530570585E+03  0.12700000000E+01 0.  1.
          4   -1    0    0  501    0  0.00000000000E+00 -0.00000000000E+00 -0.91389726702E+01  0.92267936721E+01  0.12700000000E+01 0.  1.
         25    2    1    2    0    0  0.00000000000E+00  0.00000000000E+00  0.41616483701E+03  0.43453249952E+03  0.12500128630E+03 0.  0.
    9000005    1    3    3    0    0  0.58323453830E+02  0.18445866794E+02  0.16363904122E+03  0.17470149135E+03  0.10000000000E+01 0.  0.
    9000005    1    3    3    0    0 -0.58323453830E+02 -0.18445866794E+02  0.25252579579E+03  0.25983100817E+03  0.10000000000E+01 0.  0.
<mgrwt>
<rscale>  0 0.12500129E+03</rscale>
<asrwt>0</asrwt>
<pdfrwt beam="2">  1        4 0.14128972E-02 0.12500129E+03</pdfrwt>
<pdfrwt beam="1">  1       -4 0.65438252E-01 0.12500129E+03</pdfrwt>
<totfact> 0.61325548E+03</totfact>
</mgrwt>
</event>
<event>
 5    1  0.3422688E-002  0.1250130E+03  0.7818608E-02  0.1235049E+00
         -4   -1    0    0    0  501 -0.00000000000E+00  0.00000000000E+00  0.27968514398E+03  0.27968802739E+03  0.12700000000E+01 0. -1.
          4   -1    0    0  501    0  0.00000000000E+00 -0.00000000000E+00 -0.13937669401E+02  0.13995410974E+02  0.12700000000E+01 0. -1.
         25    2    1    2    0    0  0.00000000000E+00  0.00000000000E+00  0.26574747458E+03  0.29368343836E+03  0.12501296622E+03 0.  0.
    9000005    1    3    3    0    0  0.58267330107E+01 -0.36826938661E+02  0.15039934727E+02  0.40216586943E+02  0.10000000000E+01 0.  0.
    9000005    1    3    3    0    0 -0.58267330107E+01  0.36826938661E+02  0.25070753986E+03  0.25346685142E+03  0.10000000000E+01 0.  0.
<mgrwt>
<rscale>  0 0.12501297E+03</rscale>
<asrwt>0</asrwt>
<pdfrwt beam="2">  1        4 0.21489205E-02 0.12501297E+03</pdfrwt>
<pdfrwt beam="1">  1       -4 0.43033143E-01 0.12501297E+03</pdfrwt>
<totfact> 0.76376077E+03</totfact>
</mgrwt>
</event>
<event>
 5    1  0.3422688E-002  0.1249960E+03  0.7818608E-02  0.1235076E+00
         -4   -1    0    0    0  501 -0.00000000000E+00  0.00000000000E+00  0.10025308648E+02  0.10105429902E+02  0.12700000000E+01 0.  1.
          4   -1    0    0  501    0  0.00000000000E+00 -0.00000000000E+00 -0.38798194309E+03  0.38798402166E+03  0.12700000000E+01 0.  1.
         25    2    1    2    0    0  0.00000000000E+00  0.00000000000E+00 -0.37795663444E+03  0.39808945156E+03  0.12499597564E+03 0.  0.
    9000005    1    3    3    0    0  0.15016304634E+02 -0.17859676083E+02 -0.37360277865E+03  0.37433206335E+03  0.10000000000E+01 0.  0.
    9000005    1    3    3    0    0 -0.15016304634E+02  0.17859676083E+02 -0.43538557937E+01  0.23757388217E+02  0.10000000000E+01 0.  0.
<mgrwt>
<rscale>  0 0.12499598E+03</rscale>
<asrwt>0</asrwt>
<pdfrwt beam="2">  1        4 0.59695841E-01 0.12499598E+03</pdfrwt>
<pdfrwt beam="1">  1       -4 0.15486785E-02 0.12499598E+03</pdfrwt>
<totfact> 0.64744790E+03</totfact>
</mgrwt>
</event>
<event>
 5    1  0.3422688E-002  0.1250330E+03  0.7818608E-02  0.1235018E+00
          4   -1    0    0  501    0  0.00000000000E+00  0.00000000000E+00  0.78123691273E+03  0.78123794500E+03  0.12700000000E+01 0.  1.
         -4   -1    0    0    0  501 -0.00000000000E+00 -0.00000000000E+00 -0.49210710532E+01  0.50823065936E+01  0.12700000000E+01 0.  1.
         25    2    1    2    0    0  0.00000000000E+00  0.00000000000E+00  0.77631584167E+03  0.78632025159E+03  0.12503300377E+03 0.  0.
    9000005    1    3    3    0    0 -0.83306134926E+01  0.61118318155E+02  0.45181734745E+03  0.45600960888E+03  0.10000000000E+01 0.  0.
    9000005    1    3    3    0    0  0.83306134926E+01 -0.61118318155E+02  0.32449849423E+03  0.33031064271E+03  0.10000000000E+01 0.  0.
<mgrwt>
<rscale>  0 0.12503300E+03</rscale>
<asrwt>0</asrwt>
<pdfrwt beam="1">  1        4 0.12020272E+00 0.12503300E+03</pdfrwt>
<pdfrwt beam="2">  1       -4 0.76957036E-03 0.12503300E+03</pdfrwt>
<totfact> 0.38854761E+03</totfact>
</mgrwt>
</event>
<event>
 5    1  0.3422688E-002  0.1249849E+03  0.7818608E-02  0.1235093E+00
         -4   -1    0    0    0  501 -0.00000000000E+00  0.00000000000E+00  0.28653646840E+02  0.28681777791E+02  0.12700000000E+01 0. -1.
          4   -1    0    0  501    0  0.00000000000E+00 -0.00000000000E+00 -0.13619554648E+03  0.13620146762E+03  0.12700000000E+01 0. -1.
         25    2    1    2    0    0  0.00000000000E+00  0.00000000000E+00 -0.10754189964E+03  0.16488324541E+03  0.12498489684E+03 0.  0.
    9000005    1    3    3    0    0 -0.71861299044E+01 -0.89460286751E+01  0.27258210923E+02  0.29591923810E+02  0.10000000000E+01 0.  0.
    9000005    1    3    3    0    0  0.71861299044E+01  0.89460286751E+01 -0.13480011056E+03  0.13529132160E+03  0.10000000000E+01 0.  0.
<mgrwt>
<rscale>  0 0.12498490E+03</rscale>
<asrwt>0</asrwt>
<pdfrwt beam="2">  1        4 0.20955780E-01 0.12498490E+03</pdfrwt>
<pdfrwt beam="1">  1       -4 0.44108728E-02 0.12498490E+03</pdfrwt>
<totfact> 0.96442227E+03</totfact>
</mgrwt>
</event>
<event>
 5    1  0.3422688E-002  0.1249976E+03  0.7818608E-02  0.1235073E+00
         -4   -1    0    0    0  501 -0.00000000000E+00  0.00000000000E+00  0.14134789789E+03  0.14135360320E+03  0.12700000000E+01 0. -1.
          4   -1    0    0  501    0  0.00000000000E+00 -0.00000000000E+00 -0.27613798383E+02  0.27642987558E+02  0.12700000000E+01 0. -1.
         25    2    1    2    0    0  0.00000000000E+00  0.00000000000E+00  0.11373409951E+03  0.16899659076E+03  0.12499760917E+03 0.  0.
    9000005    1    3    3    0    0 -0.33045455476E+02  0.41295971640E+02  0.11868824413E+02  0.54214651103E+02  0.10000000000E+01 0.  0.
    9000005    1    3    3    0    0  0.33045455476E+02 -0.41295971640E+02  0.10186527510E+03  0.11478193966E+03  0.10000000000E+01 0.  0.
<mgrwt>
<rscale>  0 0.12499761E+03</rscale>
<asrwt>0</asrwt>
<pdfrwt beam="2">  1        4 0.42509609E-02 0.12499761E+03</pdfrwt>
<pdfrwt beam="1">  1       -4 0.21748515E-01 0.12499761E+03</pdfrwt>
<totfact> 0.95640944E+03</totfact>
</mgrwt>
</event>
<event>
 5    1  0.3422688E-002  0.1250115E+03  0.7818608E-02  0.1235051E+00
         -4   -1    0    0    0  501 -0.00000000000E+00  0.00000000000E+00  0.99791957835E+00  0.16151605137E+01  0.12700000000E+01 0.  1.
          4   -1    0    0  501    0  0.00000000000E+00 -0.00000000000E+00 -0.29897018406E+04  0.29897021104E+04  0.12700000000E+01 0.  1.
         25    2    1    2    0    0  0.00000000000E+00  0.00000000000E+00 -0.29887039210E+04  0.29913172709E+04  0.12501154904E+03 0.  0.
    9000005    1    3    3    0    0  0.19448353005E+02 -0.48670855331E+01 -0.29107886662E+04  0.29108578780E+04  0.10000000000E+01 0.  0.
    9000005    1    3    3    0    0 -0.19448353005E+02  0.48670855331E+01 -0.77915254850E+02  0.80459392830E+02  0.10000000000E+01 0.  0.
<mgrwt>
<rscale>  0 0.12501155E+03</rscale>
<asrwt>0</asrwt>
<pdfrwt beam="2">  1        4 0.45999615E+00 0.12501155E+03</pdfrwt>
<pdfrwt beam="1">  1       -4 0.20102930E-03 0.12501155E+03</pdfrwt>
<totfact> 0.18506679E+02</totfact>
</mgrwt>
</event>
<event>
 5    1  0.3422688E-002  0.1249992E+03  0.7818608E-02  0.1235070E+00
         -4   -1    0    0    0  501 -0.00000000000E+00  0.00000000000E+00  0.48996321692E+02  0.49012778327E+02  0.12700000000E+01 0.  1.
          4   -1    0    0  501    0  0.00000000000E+00 -0.00000000000E+00 -0.79689477242E+02  0.79699596506E+02  0.12700000000E+01 0.  1.
         25    2    1    2    0    0  0.00000000000E+00  0.00000000000E+00 -0.30693155550E+02  0.12871237483E+03  0.12499922255E+03 0.  0.
    9000005    1    3    3    0    0 -0.34074798130E+02  0.38150993244E+02 -0.52310151390E+02  0.73170636813E+02  0.10000000000E+01 0.  0.
    9000005    1    3    3    0    0  0.34074798130E+02 -0.38150993244E+02  0.21616995840E+02  0.55541738020E+02  0.10000000000E+01 0.  0.
<mgrwt>
<rscale>  0 0.12499922E+03</rscale>
<asrwt>0</asrwt>
<pdfrwt beam="2">  1        4 0.12261964E-01 0.12499922E+03</pdfrwt>
<pdfrwt beam="1">  1       -4 0.75399399E-02 0.12499922E+03</pdfrwt>
<totfact> 0.10372314E+04</totfact>
</mgrwt>
</event>
<event>
 5    1  0.3422688E-002  0.1250018E+03  0.7818608E-02  0.1235066E+00
          4   -1    0    0  501    0  0.00000000000E+00  0.00000000000E+00  0.16666978459E+03  0.16667462313E+03  0.12700000000E+01 0.  1.
         -4   -1    0    0    0  501 -0.00000000000E+00 -0.00000000000E+00 -0.23415359871E+02  0.23449775646E+02  0.12700000000E+01 0.  1.
         25    2    1    2    0    0  0.00000000000E+00  0.00000000000E+00  0.14325442472E+03  0.19012439878E+03  0.12500182722E+03 0.  0.
    9000005    1    3    3    0    0  0.25661670835E+02 -0.55676340498E+02  0.90067274264E+02  0.10895636803E+03  0.10000000000E+01 0.  0.
    9000005    1    3    3    0    0 -0.25661670835E+02  0.55676340498E+02  0.53187150455E+02  0.81168030744E+02  0.10000000000E+01 0.  0.
<mgrwt>
<rscale>  0 0.12500183E+03</rscale>
<asrwt>0</asrwt>
<pdfrwt beam="1">  1        4 0.25644525E-01 0.12500183E+03</pdfrwt>
<pdfrwt beam="2">  1       -4 0.36053825E-02 0.12500183E+03</pdfrwt>
<totfact> 0.91821915E+03</totfact>
</mgrwt>
</event>
<event>
 5    1  0.3422688E-002  0.1250029E+03  0.7818608E-02  0.1235065E+00
         -4   -1    0    0    0  501 -0.00000000000E+00  0.00000000000E+00  0.61047547719E+02  0.61060756485E+02  0.12700000000E+01 0.  1.
          4   -1    0    0  501    0  0.00000000000E+00 -0.00000000000E+00 -0.63963502224E+02  0.63976108953E+02  0.12700000000E+01 0.  1.
         25    2    1    2    0    0  0.00000000000E+00  0.00000000000E+00 -0.29159545048E+01  0.12503686544E+03  0.12500285968E+03 0.  0.
    9000005    1    3    3    0    0 -0.30414603690E+02  0.52577025844E+02  0.13244217317E+02  0.62175566395E+02  0.10000000000E+01 0.  0.
    9000005    1    3    3    0    0  0.30414603690E+02 -0.52577025844E+02 -0.16160171822E+02  0.62861299044E+02  0.10000000000E+01 0.  0.
<mgrwt>
<rscale>  0 0.12500286E+03</rscale>
<asrwt>0</asrwt>
<pdfrwt beam="2">  1        4 0.98425246E-02 0.12500286E+03</pdfrwt>
<pdfrwt beam="1">  1       -4 0.93939162E-02 0.12500286E+03</pdfrwt>
<totfact> 0.10451386E+04</totfact>
</mgrwt>
</event>
<event>
 5    1  0.3422688E-002  0.1250023E+03  0.7818608E-02  0.1235066E+00
         -4   -1    0    0    0  501 -0.00000000000E+00  0.00000000000E+00  0.14174636986E+02  0.14231417136E+02  0.12700000000E+01 0.  1.
          4   -1    0    0  501    0  0.00000000000E+00 -0.00000000000E+00 -0.27498121108E+03  0.27498414381E+03  0.12700000000E+01 0.  1.
         25    2    1    2    0    0  0.00000000000E+00  0.00000000000E+00 -0.26080657410E+03  0.28921556095E+03  0.12500228639E+03 0.  0.
    9000005    1    3    3    0    0  0.34514081317E+02 -0.36457704806E+02 -0.44298031438E+02  0.66960448312E+02  0.10000000000E+01 0.  0.
    9000005    1    3    3    0    0 -0.34514081317E+02  0.36457704806E+02 -0.21650854266E+03  0.22225511264E+03  0.10000000000E+01 0.  0.
<mgrwt>
<rscale>  0 0.12500229E+03</rscale>
<asrwt>0</asrwt>
<pdfrwt beam="2">  1        4 0.42309391E-01 0.12500229E+03</pdfrwt>
<pdfrwt beam="1">  1       -4 0.21853069E-02 0.12500229E+03</pdfrwt>
<totfact> 0.76967936E+03</totfact>
</mgrwt>
</event>
<event>
 5    1  0.3422688E-002  0.1250050E+03  0.7818608E-02  0.1235061E+00
         -4   -1    0    0    0  501 -0.00000000000E+00  0.00000000000E+00  0.19357180424E+03  0.19357597035E+03  0.12700000000E+01 0.  1.
          4   -1    0    0  501    0  0.00000000000E+00 -0.00000000000E+00 -0.20157104924E+02  0.20197073524E+02  0.12700000000E+01 0.  1.
         25    2    1    2    0    0  0.00000000000E+00  0.00000000000E+00  0.17341469932E+03  0.21377304387E+03  0.12500502529E+03 0.  0.
    9000005    1    3    3    0    0 -0.28798135743E+02  0.38808123990E+02  0.15447111950E+03  0.16185712795E+03  0.10000000000E+01 0.  0.
    9000005    1    3    3    0    0  0.28798135743E+02 -0.38808123990E+02  0.18943579822E+02  0.51915915925E+02  0.10000000000E+01 0.  0.
<mgrwt>
<rscale>  0 0.12500503E+03</rscale>
<asrwt>0</asrwt>
<pdfrwt beam="2">  1        4 0.31044881E-02 0.12500503E+03</pdfrwt>
<pdfrwt beam="1">  1       -4 0.29783672E-01 0.12500503E+03</pdfrwt>
<totfact> 0.87853510E+03</totfact>
</mgrwt>
</event>
<event>
 5    1  0.3422688E-002  0.1249990E+03  0.7818608E-02  0.1235071E+00
         -4   -1    0    0    0  501 -0.00000000000E+00  0.00000000000E+00  0.21477684550E+03  0.21478060030E+03  0.12700000000E+01 0.  1.
          4   -1    0    0  501    0  0.00000000000E+00 -0.00000000000E+00 -0.18161106025E+02  0.18205457205E+02  0.12700000000E+01 0.  1.
         25    2    1    2    0    0  0.00000000000E+00  0.00000000000E+00  0.19661573948E+03  0.23298605750E+03  0.12499901592E+03 0.  0.
    9000005    1    3    3    0    0 -0.15716803395E+02 -0.60414197210E+02  0.92939517535E+02  0.11196270385E+03  0.10000000000E+01 0.  0.
    9000005    1    3    3    0    0  0.15716803395E+02  0.60414197210E+02  0.10367622194E+03  0.12102335365E+03  0.10000000000E+01 0.  0.
<mgrwt>
<rscale>  0 0.12499902E+03</rscale>
<asrwt>0</asrwt>
<pdfrwt beam="2">  1        4 0.27977167E-02 0.12499902E+03</pdfrwt>
<pdfrwt beam="1">  1       -4 0.33046293E-01 0.12499902E+03</pdfrwt>
<totfact> 0.84855045E+03</totfact>
</mgrwt>
</event>
<event>
 5    1  0.3422688E-002  0.1250033E+03  0.7818608E-02  0.1235064E+00
          4   -1    0    0  501    0  0.00000000000E+00  0.00000000000E+00  0.32598784955E+03  0.32599032341E+03  0.12700000000E+01 0. -1.
         -4   -1    0    0    0  501 -0.00000000000E+00 -0.00000000000E+00 -0.11947271100E+02  0.12014582254E+02  0.12700000000E+01 0. -1.
         25    2    1    2    0    0  0.00000000000E+00  0.00000000000E+00  0.31404057845E+03  0.33800490566E+03  0.12500332530E+03 0.  0.
    9000005    1    3    3    0    0 -0.13160504406E+01 -0.54591396259E+02  0.74848804639E+02  0.92656872871E+02  0.10000000000E+01 0.  0.
    9000005    1    3    3    0    0  0.13160504406E+01  0.54591396259E+02  0.23919177381E+03  0.24534803279E+03  0.10000000000E+01 0.  0.
<mgrwt>
<rscale>  0 0.12500333E+03</rscale>
<asrwt>0</asrwt>
<pdfrwt beam="1">  1        4 0.50157344E-01 0.12500333E+03</pdfrwt>
<pdfrwt beam="2">  1       -4 0.18434098E-02 0.12500333E+03</pdfrwt>
<totfact> 0.71059405E+03</totfact>
</mgrwt>
</event>
<event>
 5    1  0.3422688E-002  0.1250006E+03  0.7818608E-02  0.1235068E+00
          4   -1    0    0  501    0  0.00000000000E+00  0.00000000000E+00  0.20551156741E+03  0.20551549149E+03  0.12700000000E+01 0. -1.
         -4   -1    0    0    0  501 -0.00000000000E+00 -0.00000000000E+00 -0.18982302639E+02  0.19024739511E+02  0.12700000000E+01 0. -1.
         25    2    1    2    0    0  0.00000000000E+00  0.00000000000E+00  0.18652926478E+03  0.22454023100E+03  0.12500059488E+03 0.  0.
    9000005    1    3    3    0    0 -0.46222258144E+02 -0.62666863989E+01  0.16796877970E+03  0.17432807995E+03  0.10000000000E+01 0.  0.
    9000005    1    3    3    0    0  0.46222258144E+02  0.62666863989E+01  0.18560485075E+02  0.50212151045E+02  0.10000000000E+01 0.  0.
<mgrwt>
<rscale>  0 0.12500059E+03</rscale>
<asrwt>0</asrwt>
<pdfrwt beam="1">  1        4 0.31620731E-01 0.12500059E+03</pdfrwt>
<pdfrwt beam="2">  1       -4 0.29239204E-02 0.12500059E+03</pdfrwt>
<totfact> 0.86153831E+03</totfact>
</mgrwt>
</event>
<event>
 5    1  0.3422688E-002  0.1250007E+03  0.7818608E-02  0.1235068E+00
         -4   -1    0    0    0  501 -0.00000000000E+00  0.00000000000E+00  0.41736026469E+03  0.41736219695E+03  0.12700000000E+01 0.  1.
          4   -1    0    0  501    0  0.00000000000E+00 -0.00000000000E+00 -0.93144872734E+01  0.94006687616E+01  0.12700000000E+01 0.  1.
         25    2    1    2    0    0  0.00000000000E+00  0.00000000000E+00  0.40804577742E+03  0.42676286571E+03  0.12500074833E+03 0.  0.
    9000005    1    3    3    0    0  0.28952680087E+02  0.42995643684E+02  0.32319411230E+03  0.32732601071E+03  0.10000000000E+01 0.  0.
    9000005    1    3    3    0    0 -0.28952680087E+02 -0.42995643684E+02  0.84851665117E+02  0.99436855004E+02  0.10000000000E+01 0.  0.
<mgrwt>
<rscale>  0 0.12500075E+03</rscale>
<asrwt>0</asrwt>
<pdfrwt beam="2">  1        4 0.14397761E-02 0.12500075E+03</pdfrwt>
<pdfrwt beam="1">  1       -4 0.64216044E-01 0.12500075E+03</pdfrwt>
<totfact> 0.62029495E+03</totfact>
</mgrwt>
</event>
<event>
 5    1  0.3422688E-002  0.1249991E+03  0.7818608E-02  0.1235071E+00
         -4   -1    0    0    0  501 -0.00000000000E+00  0.00000000000E+00  0.45661038915E+02  0.45678697167E+02  0.12700000000E+01 0. -1.
          4   -1    0    0  501    0  0.00000000000E+00 -0.00000000000E+00 -0.85508772069E+02  0.85518202745E+02  0.12700000000E+01 0. -1.
         25    2    1    2    0    0  0.00000000000E+00  0.00000000000E+00 -0.39847733154E+02  0.13119689991E+03  0.12499913883E+03 0.  0.
    9000005    1    3    3    0    0  0.10159686848E+02  0.61659020667E+02 -0.19528199412E+02  0.65478276083E+02  0.10000000000E+01 0.  0.
    9000005    1    3    3    0    0 -0.10159686848E+02 -0.61659020667E+02 -0.20319533742E+02  0.65718623829E+02  0.10000000000E+01 0.  0.
<mgrwt>
<rscale>  0 0.12499914E+03</rscale>
<asrwt>0</asrwt>
<pdfrwt beam="2">  1        4 0.13157279E-01 0.12499914E+03</pdfrwt>
<pdfrwt beam="1">  1       -4 0.70268590E-02 0.12499914E+03</pdfrwt>
<totfact> 0.10319070E+04</totfact>
</mgrwt>
</event>
<event>
 5    1  0.3422688E-002  0.1249940E+03  0.7818608E-02  0.1235079E+00
          4   -1    0    0  501    0  0.00000000000E+00  0.00000000000E+00  0.88312383323E+01  0.89220889080E+01  0.12700000000E+01 0.  1.
         -4   -1    0    0    0  501 -0.00000000000E+00 -0.00000000000E+00 -0.43992466550E+03  0.43992649865E+03  0.12700000000E+01 0.  1.
         25    2    1    2    0    0  0.00000000000E+00  0.00000000000E+00 -0.43109342717E+03  0.44884858756E+03  0.12499404628E+03 0.  0.
    9000005    1    3    3    0    0  0.25143553286E+02  0.56350673835E+02 -0.18012863731E+03  0.19040725483E+03  0.10000000000E+01 0.  0.
    9000005    1    3    3    0    0 -0.25143553286E+02 -0.56350673835E+02 -0.25096478986E+03  0.25844133273E+03  0.10000000000E+01 0.  0.
<mgrwt>
<rscale>  0 0.12499405E+03</rscale>
<asrwt>0</asrwt>
<pdfrwt beam="1">  1        4 0.13657819E-02 0.12499405E+03</pdfrwt>
<pdfrwt beam="2">  1       -4 0.67687830E-01 0.12499405E+03</pdfrwt>
<totfact> 0.60071557E+03</totfact>
</mgrwt>
</event>
<event>
 5    1  0.3422688E-002  0.1249920E+03  0.7818608E-02  0.1235082E+00
         -4   -1    0    0    0  501 -0.00000000000E+00  0.00000000000E+00  0.45401690676E+03  0.45401868301E+03  0.12700000000E+01 0.  1.
          4   -1    0    0  501    0  0.00000000000E+00 -0.00000000000E+00 -0.85539762174E+01  0.86477401168E+01  0.12700000000E+01 0.  1.
         25    2    1    2    0    0  0.00000000000E+00  0.00000000000E+00  0.44546293054E+03  0.46266642313E+03  0.12499198616E+03 0.  0.
    9000005    1    3    3    0    0 -0.11809764337E+02  0.37542320448E+02  0.43067951781E+02  0.58350191336E+02  0.10000000000E+01 0.  0.
    9000005    1    3    3    0    0  0.11809764337E+02 -0.37542320448E+02  0.40239497876E+03  0.40431623179E+03  0.10000000000E+01 0.  0.
<mgrwt>
<rscale>  0 0.12499199E+03</rscale>
<asrwt>0</asrwt>
<pdfrwt beam="2">  1        4 0.13233457E-02 0.12499199E+03</pdfrwt>
<pdfrwt beam="1">  1       -4 0.69856100E-01 0.12499199E+03</pdfrwt>
<totfact> 0.58892388E+03</totfact>
</mgrwt>
</event>
<event>
 5    1  0.3422688E-002  0.1250135E+03  0.7818608E-02  0.1235048E+00
         -4   -1    0    0    0  501 -0.00000000000E+00  0.00000000000E+00  0.10284802387E+02  0.10362917549E+02  0.12700000000E+01 0. -1.
          4   -1    0    0  501    0  0.00000000000E+00 -0.00000000000E+00 -0.37837351773E+03  0.37837564908E+03  0.12700000000E+01 0. -1.
         25    2    1    2    0    0  0.00000000000E+00  0.00000000000E+00 -0.36808871534E+03  0.38873856663E+03  0.12501348257E+03 0.  0.
    9000005    1    3    3    0    0 -0.17560369242E+02 -0.53229887001E+02 -0.98076876586E+02  0.11296840779E+03  0.10000000000E+01 0.  0.
    9000005    1    3    3    0    0  0.17560369242E+02  0.53229887001E+02 -0.27001183875E+03  0.27577015884E+03  0.10000000000E+01 0.  0.
<mgrwt>
<rscale>  0 0.12501348E+03</rscale>
<asrwt>0</asrwt>
<pdfrwt beam="2">  1        4 0.58217473E-01 0.12501348E+03</pdfrwt>
<pdfrwt beam="1">  1       -4 0.15884504E-02 0.12501348E+03</pdfrwt>
<totfact> 0.65643454E+03</totfact>
</mgrwt>
</event>
<event>
 5    1  0.3422688E-002  0.1249994E+03  0.7818608E-02  0.1235070E+00
          4   -1    0    0  501    0  0.00000000000E+00  0.00000000000E+00  0.98962724609E+03  0.98962806099E+03  0.12700000000E+01 0.  1.
         -4   -1    0    0    0  501 -0.00000000000E+00 -0.00000000000E+00 -0.38441600532E+01  0.40485141120E+01  0.12700000000E+01 0.  1.
         25    2    1    2    0    0  0.00000000000E+00  0.00000000000E+00  0.98578308604E+03  0.99367657511E+03  0.12499937278E+03 0.  0.
    9000005    1    3    3    0    0 -0.48155124097E+02 -0.39490569071E+02  0.45174609806E+03  0.45601969051E+03  0.10000000000E+01 0.  0.
    9000005    1    3    3    0    0  0.48155124097E+02  0.39490569071E+02  0.53403698798E+03  0.53765688459E+03  0.10000000000E+01 0.  0.
<mgrwt>
<rscale>  0 0.12499937E+03</rscale>
<asrwt>0</asrwt>
<pdfrwt beam="1">  1        4 0.15226612E+00 0.12499937E+03</pdfrwt>
<pdfrwt beam="2">  1       -4 0.60719149E-03 0.12499937E+03</pdfrwt>
<totfact> 0.30814614E+03</totfact>
</mgrwt>
</event>
<event>
 5    1  0.3422688E-002  0.1250017E+03  0.7818608E-02  0.1235067E+00
         -4   -1    0    0    0  501 -0.00000000000E+00  0.00000000000E+00  0.11554506538E+02  0.11624092280E+02  0.12700000000E+01 0.  1.
          4   -1    0    0  501    0  0.00000000000E+00 -0.00000000000E+00 -0.33699525261E+03  0.33699764567E+03  0.12700000000E+01 0.  1.
         25    2    1    2    0    0  0.00000000000E+00  0.00000000000E+00 -0.32544074607E+03  0.34862173795E+03  0.12500174784E+03 0.  0.
    9000005    1    3    3    0    0  0.14607656055E+02  0.33955076270E+02 -0.22189365768E+02  0.43124224898E+02  0.10000000000E+01 0.  0.
    9000005    1    3    3    0    0 -0.14607656055E+02 -0.33955076270E+02 -0.30325138031E+03  0.30549751305E+03  0.10000000000E+01 0.  0.
<mgrwt>
<rscale>  0 0.12500175E+03</rscale>
<asrwt>0</asrwt>
<pdfrwt beam="2">  1        4 0.51850953E-01 0.12500175E+03</pdfrwt>
<pdfrwt beam="1">  1       -4 0.17831535E-02 0.12500175E+03</pdfrwt>
<totfact> 0.69873748E+03</totfact>
</mgrwt>
</event>
<event>
 5    1  0.3422688E-002  0.1249769E+03  0.7818608E-02  0.1235105E+00
         -4   -1    0    0    0  501 -0.00000000000E+00  0.00000000000E+00  0.25539267809E+03  0.25539583576E+03  0.12700000000E+01 0. -1.
          4   -1    0    0  501    0  0.00000000000E+00 -0.00000000000E+00 -0.15259797029E+02  0.15312553849E+02  0.12700000000E+01 0. -1.
         25    2    1    2    0    0  0.00000000000E+00  0.00000000000E+00  0.24013288106E+03  0.27070838961E+03  0.12497692442E+03 0.  0.
    9000005    1    3    3    0    0 -0.83582171167E+01  0.22764892995E+02 -0.46604241876E+01  0.24714766842E+02  0.10000000000E+01 0.  0.
    9000005    1    3    3    0    0  0.83582171167E+01 -0.22764892995E+02  0.24479330525E+03  0.24599362277E+03  0.10000000000E+01 0.  0.
<mgrwt>
<rscale>  0 0.12497692E+03</rscale>
<asrwt>0</asrwt>
<pdfrwt beam="2">  1        4 0.23519620E-02 0.12497692E+03</pdfrwt>
<pdfrwt beam="1">  1       -4 0.39295485E-01 0.12497692E+03</pdfrwt>
<totfact> 0.79467164E+03</totfact>
</mgrwt>
</event>
<event>
 5    1  0.3422688E-002  0.1250069E+03  0.7818608E-02  0.1235058E+00
         -4   -1    0    0    0  501 -0.00000000000E+00  0.00000000000E+00  0.28895273960E+03  0.28895553053E+03  0.12700000000E+01 0. -1.
          4   -1    0    0  501    0  0.00000000000E+00 -0.00000000000E+00 -0.13487453738E+02  0.13547114391E+02  0.12700000000E+01 0. -1.
         25    2    1    2    0    0  0.00000000000E+00  0.00000000000E+00  0.27546528587E+03  0.30250264492E+03  0.12500690568E+03 0.  0.
    9000005    1    3    3    0    0  0.44697915292E+02 -0.42811466493E+02  0.15868337997E+03  0.17032950529E+03  0.10000000000E+01 0.  0.
    9000005    1    3    3    0    0 -0.44697915292E+02  0.42811466493E+02  0.11678190589E+03  0.13217313963E+03  0.10000000000E+01 0.  0.
<mgrwt>
<rscale>  0 0.12500691E+03</rscale>
<asrwt>0</asrwt>
<pdfrwt beam="2">  1        4 0.20797967E-02 0.12500691E+03</pdfrwt>
<pdfrwt beam="1">  1       -4 0.44459075E-01 0.12500691E+03</pdfrwt>
<totfact> 0.75274438E+03</totfact>
</mgrwt>
</event>
<event>
 5    1  0.3422688E-002  0.1249955E+03  0.7818608E-02  0.1235076E+00
          4   -1    0    0  501    0  0.00000000000E+00  0.00000000000E+00  0.18574325803E+04  0.18574330145E+04  0.12700000000E+01 0. -1.
         -4   -1    0    0    0  501 -0.00000000000E+00 -0.00000000000E+00 -0.19106626271E+01  0.22942388007E+01  0.12700000000E+01 0. -1.
         25    2    1    2    0    0  0.00000000000E+00  0.00000000000E+00  0.18555219177E+04  0.18597272533E+04  0.12499547836E+03 0.  0.
    9000005    1    3    3    0    0 -0.21436863697E+02  0.68858648118E+01  0.60464686665E+02  0.64528540917E+02  0.10000000000E+01 0.  0.
    9000005    1    3    3    0    0  0.21436863697E+02 -0.68858648118E+01  0.17950572310E+04  0.17951987124E+04  0.10000000000E+01 0.  0.
<mgrwt>
<rscale>  0 0.12499548E+03</rscale>
<asrwt>0</asrwt>
<pdfrwt beam="1">  1        4 0.28578792E+00 0.12499548E+03</pdfrwt>
<pdfrwt beam="2">  1       -4 0.32348790E-03 0.12499548E+03</pdfrwt>
<totfact> 0.11806465E+03</totfact>
</mgrwt>
</event>
<event>
 5    1  0.3422688E-002  0.1250043E+03  0.7818608E-02  0.1235063E+00
         -4   -1    0    0    0  501 -0.00000000000E+00  0.00000000000E+00  0.20073628397E+04  0.20073632415E+04  0.12700000000E+01 0. -1.
          4   -1    0    0  501    0  0.00000000000E+00 -0.00000000000E+00 -0.17384525381E+01  0.21529322394E+01  0.12700000000E+01 0. -1.
         25    2    1    2    0    0  0.00000000000E+00  0.00000000000E+00  0.20056243872E+04  0.20095161737E+04  0.12500427962E+03 0.  0.
    9000005    1    3    3    0    0 -0.34428379719E+02  0.52149671139E+02  0.10154287183E+04  0.10173501774E+04  0.10000000000E+01 0.  0.
    9000005    1    3    3    0    0  0.34428379719E+02 -0.52149671139E+02  0.99019566887E+03  0.99216599628E+03  0.10000000000E+01 0.  0.
<mgrwt>
<rscale>  0 0.12500428E+03</rscale>
<asrwt>0</asrwt>
<pdfrwt beam="2">  1        4 0.29936814E-03 0.12500428E+03</pdfrwt>
<pdfrwt beam="1">  1       -4 0.30885702E+00 0.12500428E+03</pdfrwt>
<totfact> 0.97365708E+02</totfact>
</mgrwt>
</event>
<event>
 5    1  0.3422688E-002  0.1250011E+03  0.7818608E-02  0.1235067E+00
         -4   -1    0    0    0  501 -0.00000000000E+00  0.00000000000E+00  0.32530842613E+02  0.32555623494E+02  0.12700000000E+01 0.  1.
          4   -1    0    0  501    0  0.00000000000E+00 -0.00000000000E+00 -0.12000670090E+03  0.12001342075E+03  0.12700000000E+01 0.  1.
         25    2    1    2    0    0  0.00000000000E+00  0.00000000000E+00 -0.87475858283E+02  0.15256904424E+03  0.12500114991E+03 0.  0.
    9000005    1    3    3    0    0 -0.43029247316E+02 -0.25265205008E+02 -0.89658105130E+02  0.10261297444E+03  0.10000000000E+01 0.  0.
    9000005    1    3    3    0    0  0.43029247316E+02  0.25265205008E+02  0.21822468466E+01  0.49956069801E+02  0.10000000000E+01 0.  0.
<mgrwt>
<rscale>  0 0.12500115E+03</rscale>
<asrwt>0</asrwt>
<pdfrwt beam="2">  1        4 0.18464992E-01 0.12500115E+03</pdfrwt>
<pdfrwt beam="1">  1       -4 0.50071682E-02 0.12500115E+03</pdfrwt>
<totfact> 0.98791485E+03</totfact>
</mgrwt>
</event>
<event>
 5    1  0.3422688E-002  0.1249991E+03  0.7818608E-02  0.1235071E+00
          4   -1    0    0  501    0  0.00000000000E+00  0.00000000000E+00  0.12022095761E+02  0.12088990301E+02  0.12700000000E+01 0.  1.
         -4   -1    0    0    0  501 -0.00000000000E+00 -0.00000000000E+00 -0.32394849631E+03  0.32395098574E+03  0.12700000000E+01 0.  1.
         25    2    1    2    0    0  0.00000000000E+00  0.00000000000E+00 -0.31192640055E+03  0.33603997604E+03  0.12499914455E+03 0.  0.
    9000005    1    3    3    0    0  0.60407173089E+02 -0.83468671443E+01 -0.19267647037E+03  0.20209878521E+03  0.10000000000E+01 0.  0.
    9000005    1    3    3    0    0 -0.60407173089E+02  0.83468671443E+01 -0.11924993018E+03  0.13394119082E+03  0.10000000000E+01 0.  0.
<mgrwt>
<rscale>  0 0.12499914E+03</rscale>
<asrwt>0</asrwt>
<pdfrwt beam="1">  1        4 0.18548907E-02 0.12499914E+03</pdfrwt>
<pdfrwt beam="2">  1       -4 0.49843561E-01 0.12499914E+03</pdfrwt>
<totfact> 0.71289489E+03</totfact>
</mgrwt>
</event>
<event>
 5    1  0.3422688E-002  0.1250028E+03  0.7818608E-02  0.1235065E+00
         -4   -1    0    0    0  501 -0.00000000000E+00  0.00000000000E+00  0.24688446058E+02  0.24721089555E+02  0.12700000000E+01 0.  1.
          4   -1    0    0  501    0  0.00000000000E+00 -0.00000000000E+00 -0.15808915086E+03  0.15809425202E+03  0.12700000000E+01 0.  1.
         25    2    1    2    0    0  0.00000000000E+00  0.00000000000E+00 -0.13340070481E+03  0.18281534157E+03  0.12500280425E+03 0.  0.
    9000005    1    3    3    0    0 -0.13336085398E+02 -0.32043188574E+02 -0.14270493021E+03  0.14686835675E+03  0.10000000000E+01 0.  0.
    9000005    1    3    3    0    0  0.13336085398E+02  0.32043188574E+02  0.93042254015E+01  0.35946984826E+02  0.10000000000E+01 0.  0.
<mgrwt>
<rscale>  0 0.12500280E+03</rscale>
<asrwt>0</asrwt>
<pdfrwt beam="2">  1        4 0.24324311E-01 0.12500280E+03</pdfrwt>
<pdfrwt beam="1">  1       -4 0.38011260E-02 0.12500280E+03</pdfrwt>
<totfact> 0.93106821E+03</totfact>
</mgrwt>
</event>
<event>
 5    1  0.3422688E-002  0.1250003E+03  0.7818608E-02  0.1235069E+00
         -4   -1    0    0    0  501 -0.00000000000E+00  0.00000000000E+00  0.32240354537E+03  0.32240604673E+03  0.12700000000E+01 0.  1.
          4   -1    0    0  501    0  0.00000000000E+00 -0.00000000000E+00 -0.12080242567E+02  0.12146816887E+02  0.12700000000E+01 0.  1.
         25    2    1    2    0    0  0.00000000000E+00  0.00000000000E+00  0.31032330280E+03  0.33455286362E+03  0.12500026516E+03 0.  0.
    9000005    1    3    3    0    0  0.65641790876E+00 -0.51724319485E+02  0.24900549826E+03  0.25432375877E+03  0.10000000000E+01 0.  0.
    9000005    1    3    3    0    0 -0.65641790876E+00  0.51724319485E+02  0.61317804544E+02  0.80229104848E+02  0.10000000000E+01 0.  0.
<mgrwt>
<rscale>  0 0.12500027E+03</rscale>
<asrwt>0</asrwt>
<pdfrwt beam="2">  1        4 0.18638123E-02 0.12500027E+03</pdfrwt>
<pdfrwt beam="1">  1       -4 0.49605862E-01 0.12500027E+03</pdfrwt>
<totfact> 0.71457619E+03</totfact>
</mgrwt>
</event>
<event>
 5    1  0.3422688E-002  0.1249964E+03  0.7818608E-02  0.1235075E+00
         -4   -1    0    0    0  501 -0.00000000000E+00  0.00000000000E+00  0.14946640072E+03  0.14947179615E+03  0.12700000000E+01 0. -1.
          4   -1    0    0  501    0  0.00000000000E+00 -0.00000000000E+00 -0.26111831602E+02  0.26142697826E+02  0.12700000000E+01 0. -1.
         25    2    1    2    0    0  0.00000000000E+00  0.00000000000E+00  0.12335456911E+03  0.17561449397E+03  0.12499640304E+03 0.  0.
    9000005    1    3    3    0    0 -0.52987978569E+02 -0.31557467382E+02  0.75826637339E+02  0.97745989946E+02  0.10000000000E+01 0.  0.
    9000005    1    3    3    0    0  0.52987978569E+02  0.31557467382E+02  0.47527931774E+02  0.77868504025E+02  0.10000000000E+01 0.  0.
<mgrwt>
<rscale>  0 0.12499640E+03</rscale>
<asrwt>0</asrwt>
<pdfrwt beam="2">  1        4 0.40199943E-02 0.12499640E+03</pdfrwt>
<pdfrwt beam="1">  1       -4 0.22997620E-01 0.12499640E+03</pdfrwt>
<totfact> 0.94420036E+03</totfact>
</mgrwt>
</event>
<event>
 5    1  0.3422688E-002  0.1249985E+03  0.7818608E-02  0.1235072E+00
         -4   -1    0    0    0  501 -0.00000000000E+00  0.00000000000E+00  0.14267365056E+03  0.14267930286E+03  0.12700000000E+01 0. -1.
          4   -1    0    0  501    0  0.00000000000E+00 -0.00000000000E+00 -0.27357343914E+02  0.27386806423E+02  0.12700000000E+01 0. -1.
         25    2    1    2    0    0  0.00000000000E+00  0.00000000000E+00  0.11531630665E+03  0.17006610928E+03  0.12499852378E+03 0.  0.
    9000005    1    3    3    0    0 -0.21353788775E+02  0.15887166505E+02  0.13458336172E+03  0.13719354069E+03  0.10000000000E+01 0.  0.
    9000005    1    3    3    0    0  0.21353788775E+02 -0.15887166505E+02 -0.19267055075E+02  0.32872568593E+02  0.10000000000E+01 0.  0.
<mgrwt>
<rscale>  0 0.12499852E+03</rscale>
<asrwt>0</asrwt>
<pdfrwt beam="2">  1        4 0.42115232E-02 0.12499852E+03</pdfrwt>
<pdfrwt beam="1">  1       -4 0.21952494E-01 0.12499852E+03</pdfrwt>
<totfact> 0.95439478E+03</totfact>
</mgrwt>
</event>
<event>
 5    1  0.3422688E-002  0.1250008E+03  0.7818608E-02  0.1235068E+00
         -4   -1    0    0    0  501 -0.00000000000E+00  0.00000000000E+00  0.66059989022E+02  0.66072195738E+02  0.12700000000E+01 0.  1.
          4   -1    0    0  501    0  0.00000000000E+00 -0.00000000000E+00 -0.59108145844E+02  0.59121787905E+02  0.12700000000E+01 0.  1.
         25    2    1    2    0    0  0.00000000000E+00  0.00000000000E+00  0.69518431782E+01  0.12519398364E+03  0.12500082166E+03 0.  0.
    9000005    1    3    3    0    0 -0.58406695095E+02 -0.17197652076E+02  0.17576031876E+02  0.63379950816E+02  0.10000000000E+01 0.  0.
    9000005    1    3    3    0    0  0.58406695095E+02  0.17197652076E+02 -0.10624188698E+02  0.61814032827E+02  0.10000000000E+01 0.  0.
<mgrwt>
<rscale>  0 0.12500082E+03</rscale>
<asrwt>0</asrwt>
<pdfrwt beam="2">  1        4 0.90955493E-02 0.12500082E+03</pdfrwt>
<pdfrwt beam="1">  1       -4 0.10165064E-01 0.12500082E+03</pdfrwt>
<totfact> 0.10448457E+04</totfact>
</mgrwt>
</event>
<event>
 5    1  0.3422688E-002  0.1249995E+03  0.7818608E-02  0.1235070E+00
         -4   -1    0    0    0  501 -0.00000000000E+00  0.00000000000E+00  0.16780773136E+04  0.16780777942E+04  0.12700000000E+01 0.  1.
          4   -1    0    0  501    0  0.00000000000E+00 -0.00000000000E+00 -0.21540572841E+01  0.25005724911E+01  0.12700000000E+01 0.  1.
         25    2    1    2    0    0  0.00000000000E+00  0.00000000000E+00  0.16759232563E+04  0.16805783667E+04  0.12499954185E+03 0.  0.
    9000005    1    3    3    0    0  0.52728974975E+02 -0.18250217473E+02  0.45964121423E+03  0.46301669631E+03  0.10000000000E+01 0.  0.
    9000005    1    3    3    0    0 -0.52728974975E+02  0.18250217473E+02  0.12162820421E+04  0.12175616704E+04  0.10000000000E+01 0.  0.
<mgrwt>
<rscale>  0 0.12499954E+03</rscale>
<asrwt>0</asrwt>
<pdfrwt beam="2">  1        4 0.35808482E-03 0.12499954E+03</pdfrwt>
<pdfrwt beam="1">  1       -4 0.25819286E+00 0.12499954E+03</pdfrwt>
<totfact> 0.14634630E+03</totfact>
</mgrwt>
</event>
<event>
 5    1  0.3422688E-002  0.1250011E+03  0.7818608E-02  0.1235068E+00
         -4   -1    0    0    0  501 -0.00000000000E+00  0.00000000000E+00  0.50250039498E+01  0.51830073023E+01  0.12700000000E+01 0.  1.
          4   -1    0    0  501    0  0.00000000000E+00 -0.00000000000E+00 -0.76518518319E+03  0.76518623712E+03  0.12700000000E+01 0.  1.
         25    2    1    2    0    0  0.00000000000E+00  0.00000000000E+00 -0.76016017924E+03  0.77036924442E+03  0.12500109857E+03 0.  0.
    9000005    1    3    3    0    0 -0.58656501587E+01  0.57267709378E+02 -0.23021612254E+03  0.23730667810E+03  0.10000000000E+01 0.  0.
    9000005    1    3    3    0    0  0.58656501587E+01 -0.57267709378E+02 -0.52994405670E+03  0.53306256632E+03  0.10000000000E+01 0.  0.
<mgrwt>
<rscale>  0 0.12500110E+03</rscale>
<asrwt>0</asrwt>
<pdfrwt beam="2">  1        4 0.11773294E+00 0.12500110E+03</pdfrwt>
<pdfrwt beam="1">  1       -4 0.78531331E-03 0.12500110E+03</pdfrwt>
<totfact> 0.39617373E+03</totfact>
</mgrwt>
</event>
<event>
 5    1  0.3422688E-002  0.1250287E+03  0.7818608E-02  0.1235024E+00
          4   -1    0    0  501    0  0.00000000000E+00  0.00000000000E+00  0.57035412701E+03  0.57035554096E+03  0.12700000000E+01 0. -1.
         -4   -1    0    0    0  501 -0.00000000000E+00 -0.00000000000E+00 -0.67916794645E+01  0.69094001150E+01  0.12700000000E+01 0. -1.
         25    2    1    2    0    0  0.00000000000E+00  0.00000000000E+00  0.56356244755E+03  0.57726494107E+03  0.12502871632E+03 0.  0.
    9000005    1    3    3    0    0 -0.39771733569E+02  0.48135847247E+02  0.26856449878E+03  0.27572946992E+03  0.10000000000E+01 0.  0.
    9000005    1    3    3    0    0  0.39771733569E+02 -0.48135847247E+02  0.29499794877E+03  0.30153547115E+03  0.10000000000E+01 0.  0.
<mgrwt>
<rscale>  0 0.12502872E+03</rscale>
<asrwt>0</asrwt>
<pdfrwt beam="1">  1        4 0.87755958E-01 0.12502872E+03</pdfrwt>
<pdfrwt beam="2">  1       -4 0.10540379E-02 0.12502872E+03</pdfrwt>
<totfact> 0.50303195E+03</totfact>
</mgrwt>
</event>
<event>
 5    1  0.3422688E-002  0.1250032E+03  0.7818608E-02  0.1235064E+00
         -4   -1    0    0    0  501 -0.00000000000E+00  0.00000000000E+00  0.11042902652E+03  0.11043632916E+03  0.12700000000E+01 0.  1.
          4   -1    0    0  501    0  0.00000000000E+00 -0.00000000000E+00 -0.35355311143E+02  0.35378113659E+02  0.12700000000E+01 0.  1.
         25    2    1    2    0    0  0.00000000000E+00  0.00000000000E+00  0.75073715378E+02  0.14581444282E+03  0.12500315594E+03 0.  0.
    9000005    1    3    3    0    0  0.62129332999E+02 -0.29082234276E+00  0.29685041297E+02  0.68864651843E+02  0.10000000000E+01 0.  0.
    9000005    1    3    3    0    0 -0.62129332999E+02  0.29082234276E+00  0.45388674081E+02  0.76949790977E+02  0.10000000000E+01 0.  0.
<mgrwt>
<rscale>  0 0.12500316E+03</rscale>
<asrwt>0</asrwt>
<pdfrwt beam="2">  1        4 0.54415945E-02 0.12500316E+03</pdfrwt>
<pdfrwt beam="1">  1       -4 0.16991397E-01 0.12500316E+03</pdfrwt>
<totfact> 0.10013755E+04</totfact>
</mgrwt>
</event>
<event>
 5    1  0.3422688E-002  0.1250057E+03  0.7818608E-02  0.1235060E+00
          4   -1    0    0  501    0  0.00000000000E+00  0.00000000000E+00  0.10767841165E+03  0.10768590082E+03  0.12700000000E+01 0. -1.
         -4   -1    0    0    0  501 -0.00000000000E+00 -0.00000000000E+00 -0.36260424885E+02  0.36282658569E+02  0.12700000000E+01 0. -1.
         25    2    1    2    0    0  0.00000000000E+00  0.00000000000E+00  0.71417986770E+02  0.14396855939E+03  0.12500566891E+03 0.  0.
    9000005    1    3    3    0    0  0.34513463290E+02  0.49884093485E+02  0.53022875675E+02  0.80573117576E+02  0.10000000000E+01 0.  0.
    9000005    1    3    3    0    0 -0.34513463290E+02 -0.49884093485E+02  0.18395111094E+02  0.63395441817E+02  0.10000000000E+01 0.  0.
<mgrwt>
<rscale>  0 0.12500567E+03</rscale>
<asrwt>0</asrwt>
<pdfrwt beam="1">  1        4 0.16568196E-01 0.12500567E+03</pdfrwt>
<pdfrwt beam="2">  1       -4 0.55808132E-02 0.12500567E+03</pdfrwt>
<totfact> 0.10050704E+04</totfact>
</mgrwt>
</event>
<event>
 5    1  0.3422688E-002  0.1249982E+03  0.7818608E-02  0.1235072E+00
         -4   -1    0    0    0  501 -0.00000000000E+00  0.00000000000E+00  0.87052071208E+03  0.87052163848E+03  0.12700000000E+01 0.  1.
          4   -1    0    0  501    0  0.00000000000E+00 -0.00000000000E+00 -0.43963168947E+01  0.45760793523E+01  0.12700000000E+01 0.  1.
         25    2    1    2    0    0  0.00000000000E+00  0.00000000000E+00  0.86612439518E+03  0.87509771783E+03  0.12499819126E+03 0.  0.
    9000005    1    3    3    0    0  0.62127070384E+02  0.54445598208E+01  0.40530402869E+03  0.41007532452E+03  0.10000000000E+01 0.  0.
    9000005    1    3    3    0    0 -0.62127070384E+02 -0.54445598208E+01  0.46082036649E+03  0.46502239331E+03  0.10000000000E+01 0.  0.
<mgrwt>
<rscale>  0 0.12499819E+03</rscale>
<asrwt>0</asrwt>
<pdfrwt beam="2">  1        4 0.69025621E-03 0.12499819E+03</pdfrwt>
<pdfrwt beam="1">  1       -4 0.13394004E+00 0.12499819E+03</pdfrwt>
<totfact> 0.35123150E+03</totfact>
</mgrwt>
</event>
<event>
 5    1  0.3422688E-002  0.1250039E+03  0.7818608E-02  0.1235063E+00
         -4   -1    0    0    0  501 -0.00000000000E+00  0.00000000000E+00  0.42508017197E+03  0.42508206914E+03  0.12700000000E+01 0. -1.
          4   -1    0    0  501    0  0.00000000000E+00 -0.00000000000E+00 -0.91442071914E+01  0.92319783989E+01  0.12700000000E+01 0. -1.
         25    2    1    2    0    0  0.00000000000E+00  0.00000000000E+00  0.41593596478E+03  0.43431404754E+03  0.12500386030E+03 0.  0.
    9000005    1    3    3    0    0  0.78002564147E+01  0.42446107809E+02  0.36500860176E+03  0.36755243902E+03  0.10000000000E+01 0.  0.
    9000005    1    3    3    0    0 -0.78002564147E+01 -0.42446107809E+02  0.50927363023E+02  0.66761608524E+02  0.10000000000E+01 0.  0.
<mgrwt>
<rscale>  0 0.12500386E+03</rscale>
<asrwt>0</asrwt>
<pdfrwt beam="2">  1        4 0.14136987E-02 0.12500386E+03</pdfrwt>
<pdfrwt beam="1">  1       -4 0.65403848E-01 0.12500386E+03</pdfrwt>
<totfact> 0.61341664E+03</totfact>
</mgrwt>
</event>
<event>
 5    1  0.3422688E-002  0.1250029E+03  0.7818608E-02  0.1235065E+00
         -4   -1    0    0    0  501 -0.00000000000E+00  0.00000000000E+00  0.79258019814E+02  0.79268194157E+02  0.12700000000E+01 0. -1.
          4   -1    0    0  501    0  0.00000000000E+00 -0.00000000000E+00 -0.49265977343E+02  0.49282343933E+02  0.12700000000E+01 0. -1.
         25    2    1    2    0    0  0.00000000000E+00  0.00000000000E+00  0.29992042471E+02  0.12855053809E+03  0.12500287289E+03 0.  0.
    9000005    1    3    3    0    0  0.66386331279E+01 -0.32785468845E+02 -0.39289145894E+02  0.51610031993E+02  0.10000000000E+01 0.  0.
    9000005    1    3    3    0    0 -0.66386331279E+01  0.32785468845E+02  0.69281188365E+02  0.76940506097E+02  0.10000000000E+01 0.  0.
<mgrwt>
<rscale>  0 0.12500287E+03</rscale>
<asrwt>0</asrwt>
<pdfrwt beam="2">  1        4 0.75814228E-02 0.12500287E+03</pdfrwt>
<pdfrwt beam="1">  1       -4 0.12195583E-01 0.12500287E+03</pdfrwt>
<totfact> 0.10374942E+04</totfact>
</mgrwt>
</event>
<event>
 5    1  0.3422688E-002  0.1249935E+03  0.7818608E-02  0.1235079E+00
         -4   -1    0    0    0  501 -0.00000000000E+00  0.00000000000E+00  0.30842964759E+02  0.30869100653E+02  0.12700000000E+01 0.  1.
          4   -1    0    0  501    0  0.00000000000E+00 -0.00000000000E+00 -0.12655351688E+03  0.12655988912E+03  0.12700000000E+01 0.  1.
         25    2    1    2    0    0  0.00000000000E+00  0.00000000000E+00 -0.95710552120E+02  0.15742898978E+03  0.12499350797E+03 0.  0.
    9000005    1    3    3    0    0  0.36776637801E+02 -0.16041404648E+02  0.12482356545E+02  0.42031618764E+02  0.10000000000E+01 0.  0.
    9000005    1    3    3    0    0 -0.36776637801E+02  0.16041404648E+02 -0.10819290866E+03  0.11539737101E+03  0.10000000000E+01 0.  0.
<mgrwt>
<rscale>  0 0.12499351E+03</rscale>
<asrwt>0</asrwt>
<pdfrwt beam="2">  1        4 0.19472272E-01 0.12499351E+03</pdfrwt>
<pdfrwt beam="1">  1       -4 0.47475722E-02 0.12499351E+03</pdfrwt>
<totfact> 0.97855040E+03</totfact>
</mgrwt>
</event>
<event>
 5    1  0.3422688E-002  0.1250001E+03  0.7818608E-02  0.1235069E+00
         -4   -1    0    0    0  501 -0.00000000000E+00  0.00000000000E+00  0.41577916638E+02  0.41597308230E+02  0.12700000000E+01 0.  1.
          4   -1    0    0  501    0  0.00000000000E+00 -0.00000000000E+00 -0.93904737022E+02  0.93913324588E+02  0.12700000000E+01 0.  1.
         25    2    1    2    0    0  0.00000000000E+00  0.00000000000E+00 -0.52326820383E+02  0.13551063282E+03  0.12500014190E+03 0.  0.
    9000005    1    3    3    0    0 -0.78363242064E+01 -0.36078023477E+02 -0.80823462192E+02  0.88862049244E+02  0.10000000000E+01 0.  0.
    9000005    1    3    3    0    0  0.78363242064E+01  0.36078023477E+02  0.28496641809E+02  0.46648583574E+02  0.10000000000E+01 0.  0.
<mgrwt>
<rscale>  0 0.12500014E+03</rscale>
<asrwt>0</asrwt>
<pdfrwt beam="2">  1        4 0.14449035E-01 0.12500014E+03</pdfrwt>
<pdfrwt beam="1">  1       -4 0.63987548E-02 0.12500014E+03</pdfrwt>
<totfact> 0.10227287E+04</totfact>
</mgrwt>
</event>
<event>
 5    1  0.3422688E-002  0.1249992E+03  0.7818608E-02  0.1235071E+00
         -4   -1    0    0    0  501 -0.00000000000E+00  0.00000000000E+00  0.45923198258E+02  0.45940755743E+02  0.12700000000E+01 0.  1.
          4   -1    0    0  501    0  0.00000000000E+00 -0.00000000000E+00 -0.85020834810E+02  0.85030319603E+02  0.12700000000E+01 0.  1.
         25    2    1    2    0    0  0.00000000000E+00  0.00000000000E+00 -0.39097636552E+02  0.13097107535E+03  0.12499918957E+03 0.  0.
    9000005    1    3    3    0    0  0.10954012995E+02  0.33583257636E+02 -0.73561347801E+02  0.81609420317E+02  0.10000000000E+01 0.  0.
    9000005    1    3    3    0    0 -0.10954012995E+02 -0.33583257636E+02  0.34463711249E+02  0.49361655029E+02  0.10000000000E+01 0.  0.
<mgrwt>
<rscale>  0 0.12499919E+03</rscale>
<asrwt>0</asrwt>
<pdfrwt beam="2">  1        4 0.13082209E-01 0.12499919E+03</pdfrwt>
<pdfrwt beam="1">  1       -4 0.70671876E-02 0.12499919E+03</pdfrwt>
<totfact> 0.10323898E+04</totfact>
</mgrwt>
</event>
<event>
 5    1  0.3422688E-002  0.1250003E+03  0.7818608E-02  0.1235069E+00
         -4   -1    0    0    0  501 -0.00000000000E+00  0.00000000000E+00  0.42015333582E+01  0.43892804149E+01  0.12700000000E+01 0. -1.
          4   -1    0    0  501    0  0.00000000000E+00 -0.00000000000E+00 -0.90921739882E+03  0.90921828580E+03  0.12700000000E+01 0. -1.
         25    2    1    2    0    0  0.00000000000E+00  0.00000000000E+00 -0.90501586547E+03  0.91360756621E+03  0.12500027317E+03 0.  0.
    9000005    1    3    3    0    0  0.33277987394E+02 -0.30739058599E+02 -0.76712401311E+03  0.76846116730E+03  0.10000000000E+01 0.  0.
    9000005    1    3    3    0    0 -0.33277987394E+02  0.30739058599E+02 -0.13789185236E+03  0.14514639891E+03  0.10000000000E+01 0.  0.
<mgrwt>
<rscale>  0 0.12500027E+03</rscale>
<asrwt>0</asrwt>
<pdfrwt beam="2">  1        4 0.13989396E+00 0.12500027E+03</pdfrwt>
<pdfrwt beam="1">  1       -4 0.66090078E-03 0.12500027E+03</pdfrwt>
<totfact> 0.33644040E+03</totfact>
</mgrwt>
</event>
<event>
 5    1  0.3422688E-002  0.1250159E+03  0.7818608E-02  0.1235044E+00
         -4   -1    0    0    0  501 -0.00000000000E+00  0.00000000000E+00  0.49764324677E+03  0.49764486731E+03  0.12700000000E+01 0. -1.
          4   -1    0    0  501    0  0.00000000000E+00 -0.00000000000E+00 -0.77984940577E+01  0.79012283581E+01  0.12700000000E+01 0. -1.
         25    2    1    2    0    0  0.00000000000E+00  0.00000000000E+00  0.48984475271E+03  0.50554609566E+03  0.12501589131E+03 0.  0.
    9000005    1    3    3    0    0  0.11620031703E+02 -0.33001285062E+02  0.45435084619E+03  0.45569705001E+03  0.10000000000E+01 0.  0.
    9000005    1    3    3    0    0 -0.11620031703E+02  0.33001285062E+02  0.35493906520E+02  0.49849045654E+02  0.10000000000E+01 0.  0.
<mgrwt>
<rscale>  0 0.12501589E+03</rscale>
<asrwt>0</asrwt>
<pdfrwt beam="2">  1        4 0.12077958E-02 0.12501589E+03</pdfrwt>
<pdfrwt beam="1">  1       -4 0.76568514E-01 0.12501589E+03</pdfrwt>
<totfact> 0.55417253E+03</totfact>
</mgrwt>
</event>
<event>
 5    1  0.3422688E-002  0.1250060E+03  0.7818608E-02  0.1235060E+00
         -4   -1    0    0    0  501 -0.00000000000E+00  0.00000000000E+00  0.70502323108E+01  0.71637054404E+01  0.12700000000E+01 0. -1.
          4   -1    0    0  501    0  0.00000000000E+00 -0.00000000000E+00 -0.54957469333E+03  0.54957616073E+03  0.12700000000E+01 0. -1.
         25    2    1    2    0    0  0.00000000000E+00  0.00000000000E+00 -0.54252446101E+03  0.55673986617E+03  0.12500595100E+03 0.  0.
    9000005    1    3    3    0    0  0.23896213027E+02  0.38108650170E+02 -0.46448966652E+03  0.46666363531E+03  0.10000000000E+01 0.  0.
    9000005    1    3    3    0    0 -0.23896213027E+02 -0.38108650170E+02 -0.78034794497E+02  0.90076230866E+02  0.10000000000E+01 0.  0.
<mgrwt>
<rscale>  0 0.12500595E+03</rscale>
<asrwt>0</asrwt>
<pdfrwt beam="2">  1        4 0.84558761E-01 0.12500595E+03</pdfrwt>
<pdfrwt beam="1">  1       -4 0.10934931E-02 0.12500595E+03</pdfrwt>
<totfact> 0.51710623E+03</totfact>
</mgrwt>
</event>
<event>
 5    1  0.3422688E-002  0.1250011E+03  0.7818608E-02  0.1235068E+00
          4   -1    0    0  501    0  0.00000000000E+00  0.00000000000E+00  0.24583864838E+02  0.24616647017E+02  0.12700000000E+01 0.  1.
         -4   -1    0    0    0  501 -0.00000000000E+00 -0.00000000000E+00 -0.15875638606E+03  0.15876146578E+03  0.12700000000E+01 0.  1.
         25    2    1    2    0    0  0.00000000000E+00  0.00000000000E+00 -0.13417252123E+03  0.18337811280E+03  0.12500106720E+03 0.  0.
    9000005    1    3    3    0    0 -0.17776564679E+02 -0.35486593833E+02  0.37267187145E+01  0.39877224402E+02  0.10000000000E+01 0.  0.
    9000005    1    3    3    0    0  0.17776564679E+02  0.35486593833E+02 -0.13789923994E+03  0.14350088839E+03  0.10000000000E+01 0.  0.
<mgrwt>
<rscale>  0 0.12500107E+03</rscale>
<asrwt>0</asrwt>
<pdfrwt beam="1">  1        4 0.37850456E-02 0.12500107E+03</pdfrwt>
<pdfrwt beam="2">  1       -4 0.24426971E-01 0.12500107E+03</pdfrwt>
<totfact> 0.93010217E+03</totfact>
</mgrwt>
</event>
<event>
 5    1  0.3422688E-002  0.1250019E+03  0.7818608E-02  0.1235066E+00
         -4   -1    0    0    0  501 -0.00000000000E+00  0.00000000000E+00  0.63785895701E+01  0.65037915790E+01  0.12700000000E+01 0.  1.
          4   -1    0    0  501    0  0.00000000000E+00 -0.00000000000E+00 -0.60634081457E+03  0.60634214460E+03  0.12700000000E+01 0.  1.
         25    2    1    2    0    0  0.00000000000E+00  0.00000000000E+00 -0.59996222500E+03  0.61284593618E+03  0.12500188022E+03 0.  0.
    9000005    1    3    3    0    0  0.56663478727E+02  0.64310031788E+01 -0.42528881355E+03  0.42909635580E+03  0.10000000000E+01 0.  0.
    9000005    1    3    3    0    0 -0.56663478727E+02 -0.64310031788E+01 -0.17467341145E+03  0.18374958038E+03  0.10000000000E+01 0.  0.
<mgrwt>
<rscale>  0 0.12500188E+03</rscale>
<asrwt>0</asrwt>
<pdfrwt beam="2">  1        4 0.93292890E-01 0.12500188E+03</pdfrwt>
<pdfrwt beam="1">  1       -4 0.99105518E-03 0.12500188E+03</pdfrwt>
<totfact> 0.48064686E+03</totfact>
</mgrwt>
</event>
<event>
 5    1  0.3422688E-002  0.1249906E+03  0.7818608E-02  0.1235084E+00
          4   -1    0    0  501    0  0.00000000000E+00  0.00000000000E+00  0.26882860686E+02  0.26912842635E+02  0.12700000000E+01 0. -1.
         -4   -1    0    0    0  501 -0.00000000000E+00 -0.00000000000E+00 -0.14517078413E+03  0.14517633921E+03  0.12700000000E+01 0. -1.
         25    2    1    2    0    0  0.00000000000E+00  0.00000000000E+00 -0.11828792344E+03  0.17208918184E+03  0.12499061434E+03 0.  0.
    9000005    1    3    3    0    0  0.44876938782E+02 -0.40594474661E+02 -0.37689797146E+02  0.71297768663E+02  0.10000000000E+01 0.  0.
    9000005    1    3    3    0    0 -0.44876938782E+02  0.40594474661E+02 -0.80598126298E+02  0.10079141318E+03  0.10000000000E+01 0.  0.
<mgrwt>
<rscale>  0 0.12499061E+03</rscale>
<asrwt>0</asrwt>
<pdfrwt beam="1">  1        4 0.41385585E-02 0.12499061E+03</pdfrwt>
<pdfrwt beam="2">  1       -4 0.22336700E-01 0.12499061E+03</pdfrwt>
<totfact> 0.95080694E+03</totfact>
</mgrwt>
</event>
<event>
 5    1  0.3422688E-002  0.1249981E+03  0.7818608E-02  0.1235072E+00
         -4   -1    0    0    0  501 -0.00000000000E+00  0.00000000000E+00  0.56268943347E+03  0.56269086667E+03  0.12700000000E+01 0. -1.
          4   -1    0    0  501    0  0.00000000000E+00 -0.00000000000E+00 -0.68823528533E+01  0.69985484778E+01  0.12700000000E+01 0. -1.
         25    2    1    2    0    0  0.00000000000E+00  0.00000000000E+00  0.55580708061E+03  0.56968941515E+03  0.12499807548E+03 0.  0.
    9000005    1    3    3    0    0 -0.38139299015E+02  0.33065819604E+01  0.52794334689E+02  0.65221019533E+02  0.10000000000E+01 0.  0.
    9000005    1    3    3    0    0  0.38139299015E+02 -0.33065819604E+01  0.50301274592E+03  0.50446839562E+03  0.10000000000E+01 0.  0.
<mgrwt>
<rscale>  0 0.12499808E+03</rscale>
<asrwt>0</asrwt>
<pdfrwt beam="2">  1        4 0.10678721E-02 0.12499808E+03</pdfrwt>
<pdfrwt beam="1">  1       -4 0.86576635E-01 0.12499808E+03</pdfrwt>
<totfact> 0.50840712E+03</totfact>
</mgrwt>
</event>
<event>
 5    1  0.3422688E-002  0.1250008E+03  0.7818608E-02  0.1235068E+00
          4   -1    0    0  501    0  0.00000000000E+00  0.00000000000E+00  0.11469358665E+03  0.11470061778E+03  0.12700000000E+01 0.  1.
         -4   -1    0    0    0  501 -0.00000000000E+00 -0.00000000000E+00 -0.34038670535E+02  0.34062354467E+02  0.12700000000E+01 0.  1.
         25    2    1    2    0    0  0.00000000000E+00  0.00000000000E+00  0.80654916117E+02  0.14876297225E+03  0.12500082567E+03 0.  0.
    9000005    1    3    3    0    0 -0.24090709263E+02 -0.14464202933E+02  0.10675705324E+03  0.11039766237E+03  0.10000000000E+01 0.  0.
    9000005    1    3    3    0    0  0.24090709263E+02  0.14464202933E+02 -0.26102137128E+02  0.38365309876E+02  0.10000000000E+01 0.  0.
<mgrwt>
<rscale>  0 0.12500083E+03</rscale>
<asrwt>0</asrwt>
<pdfrwt beam="1">  1        4 0.17647530E-01 0.12500083E+03</pdfrwt>
<pdfrwt beam="2">  1       -4 0.52390812E-02 0.12500083E+03</pdfrwt>
<totfact> 0.99549004E+03</totfact>
</mgrwt>
</event>
<event>
 5    1  0.3422688E-002  0.1249994E+03  0.7818608E-02  0.1235070E+00
         -4   -1    0    0    0  501 -0.00000000000E+00  0.00000000000E+00  0.63570422354E+02  0.63583107020E+02  0.12700000000E+01 0. -1.
          4   -1    0    0  501    0  0.00000000000E+00 -0.00000000000E+00 -0.61421601185E+02  0.61434729528E+02  0.12700000000E+01 0. -1.
         25    2    1    2    0    0  0.00000000000E+00  0.00000000000E+00  0.21488211694E+01  0.12501783655E+03  0.12499936809E+03 0.  0.
    9000005    1    3    3    0    0 -0.27713619340E+02 -0.39404920321E+02 -0.38736219758E+02  0.61824648512E+02  0.10000000000E+01 0.  0.
    9000005    1    3    3    0    0  0.27713619340E+02  0.39404920321E+02  0.40885040928E+02  0.63193188036E+02  0.10000000000E+01 0.  0.
<mgrwt>
<rscale>  0 0.12499937E+03</rscale>
<asrwt>0</asrwt>
<pdfrwt beam="2">  1        4 0.94514627E-02 0.12499937E+03</pdfrwt>
<pdfrwt beam="1">  1       -4 0.97820506E-02 0.12499937E+03</pdfrwt>
<totfact> 0.10452624E+04</totfact>
</mgrwt>
</event>
<event>
 5    1  0.3422688E-002  0.1250013E+03  0.7818608E-02  0.1235067E+00
          4   -1    0    0  501    0  0.00000000000E+00  0.00000000000E+00  0.12914240988E+02  0.12976537300E+02  0.12700000000E+01 0.  1.
         -4   -1    0    0    0  501 -0.00000000000E+00 -0.00000000000E+00 -0.30169093824E+03  0.30169361132E+03  0.12700000000E+01 0.  1.
         25    2    1    2    0    0  0.00000000000E+00  0.00000000000E+00 -0.28877669725E+03  0.31467014862E+03  0.12500128624E+03 0.  0.
    9000005    1    3    3    0    0 -0.52302906857E+02  0.23586294913E+02 -0.82040553843E+02  0.10011772994E+03  0.10000000000E+01 0.  0.
    9000005    1    3    3    0    0  0.52302906857E+02 -0.23586294913E+02 -0.20673614340E+03  0.21455241868E+03  0.10000000000E+01 0.  0.
<mgrwt>
<rscale>  0 0.12500129E+03</rscale>
<asrwt>0</asrwt>
<pdfrwt beam="1">  1        4 0.19918042E-02 0.12500129E+03</pdfrwt>
<pdfrwt beam="2">  1       -4 0.46418983E-01 0.12500129E+03</pdfrwt>
<totfact> 0.73792454E+03</totfact>
</mgrwt>
</event>
<event>
 5    1  0.3422688E-002  0.1249969E+03  0.7818608E-02  0.1235074E+00
         -4   -1    0    0    0  501 -0.00000000000E+00  0.00000000000E+00  0.10228228255E+02  0.10306772203E+02  0.12700000000E+01 0. -1.
          4   -1    0    0  501    0  0.00000000000E+00 -0.00000000000E+00 -0.38034945624E+03  0.38035157652E+03  0.12700000000E+01 0. -1.
         25    2    1    2    0    0  0.00000000000E+00  0.00000000000E+00 -0.37012122799E+03  0.39065834872E+03  0.12499688805E+03 0.  0.
    9000005    1    3    3    0    0  0.88201229571E+01  0.64653129715E+01 -0.37735087017E+03  0.37751062775E+03  0.10000000000E+01 0.  0.
    9000005    1    3    3    0    0 -0.88201229571E+01 -0.64653129715E+01  0.72296421870E+01  0.13147720979E+02  0.10000000000E+01 0.  0.
<mgrwt>
<rscale>  0 0.12499689E+03</rscale>
<asrwt>0</asrwt>
<pdfrwt beam="2">  1        4 0.58521495E-01 0.12499689E+03</pdfrwt>
<pdfrwt beam="1">  1       -4 0.15797788E-02 0.12499689E+03</pdfrwt>
<totfact> 0.65476107E+03</totfact>
</mgrwt>
</event>
<event>
 5    1  0.3422688E-002  0.1249949E+03  0.7818608E-02  0.1235077E+00
          4   -1    0    0  501    0  0.00000000000E+00  0.00000000000E+00  0.91664073224E+00  0.15662471810E+01  0.12700000000E+01 0. -1.
         -4   -1    0    0    0  501 -0.00000000000E+00 -0.00000000000E+00 -0.31456321055E+04  0.31456323619E+04  0.12700000000E+01 0. -1.
         25    2    1    2    0    0  0.00000000000E+00  0.00000000000E+00 -0.31447154648E+04  0.31471986091E+04  0.12499492178E+03 0.  0.
    9000005    1    3    3    0    0  0.64232722856E+01  0.44613365786E+02 -0.48257989063E+03  0.48468129908E+03  0.10000000000E+01 0.  0.
    9000005    1    3    3    0    0 -0.64232722856E+01 -0.44613365786E+02 -0.26621355742E+04  0.26625173100E+04  0.10000000000E+01 0.  0.
<mgrwt>
<rscale>  0 0.12499492E+03</rscale>
<asrwt>0</asrwt>
<pdfrwt beam="1">  1        4 0.19101362E-03 0.12499492E+03</pdfrwt>
<pdfrwt beam="2">  1       -4 0.48398701E+00 0.12499492E+03</pdfrwt>
<totfact> 0.13240511E+02</totfact>
</mgrwt>
</event>
<event>
 5    1  0.3422688E-002  0.1249791E+03  0.7818608E-02  0.1235102E+00
         -4   -1    0    0    0  501 -0.00000000000E+00  0.00000000000E+00  0.34851989688E+02  0.34875121293E+02  0.12700000000E+01 0. -1.
          4   -1    0    0  501    0  0.00000000000E+00 -0.00000000000E+00 -0.11197972603E+03  0.11198692754E+03  0.12700000000E+01 0. -1.
         25    2    1    2    0    0  0.00000000000E+00  0.00000000000E+00 -0.77127736338E+02  0.14686204884E+03  0.12497909296E+03 0.  0.
    9000005    1    3    3    0    0 -0.12650357101E+02 -0.61063834263E+02 -0.33994580178E+02  0.71031365404E+02  0.10000000000E+01 0.  0.
    9000005    1    3    3    0    0  0.12650357101E+02  0.61063834263E+02 -0.43133156160E+02  0.75830683433E+02  0.10000000000E+01 0.  0.
<mgrwt>
<rscale>  0 0.12497909E+03</rscale>
<asrwt>0</asrwt>
<pdfrwt beam="2">  1        4 0.17229983E-01 0.12497909E+03</pdfrwt>
<pdfrwt beam="1">  1       -4 0.53641779E-02 0.12497909E+03</pdfrwt>
<totfact> 0.99979972E+03</totfact>
</mgrwt>
</event>
<event>
 5    1  0.3422688E-002  0.1249991E+03  0.7818608E-02  0.1235071E+00
          4   -1    0    0  501    0  0.00000000000E+00  0.00000000000E+00  0.20551733567E+03  0.20552125963E+03  0.12700000000E+01 0.  1.
         -4   -1    0    0    0  501 -0.00000000000E+00 -0.00000000000E+00 -0.18981317262E+02  0.19023756333E+02  0.12700000000E+01 0.  1.
         25    2    1    2    0    0  0.00000000000E+00  0.00000000000E+00  0.18653601841E+03  0.22454501597E+03  0.12499911212E+03 0.  0.
    9000005    1    3    3    0    0  0.41353272478E+01  0.58583687171E+02  0.13162993701E+03  0.14414086739E+03  0.10000000000E+01 0.  0.
    9000005    1    3    3    0    0 -0.41353272478E+01 -0.58583687171E+02  0.54906081400E+02  0.80404148579E+02  0.10000000000E+01 0.  0.
<mgrwt>
<rscale>  0 0.12499911E+03</rscale>
<asrwt>0</asrwt>
<pdfrwt beam="1">  1        4 0.31621621E-01 0.12499911E+03</pdfrwt>
<pdfrwt beam="2">  1       -4 0.29237688E-02 0.12499911E+03</pdfrwt>
<totfact> 0.86155935E+03</totfact>
</mgrwt>
</event>
<event>
 5    1  0.3422688E-002  0.1249976E+03  0.7818608E-02  0.1235073E+00
          4   -1    0    0  501    0  0.00000000000E+00  0.00000000000E+00  0.26032839156E+03  0.26033148936E+03  0.12700000000E+01 0. -1.
         -4   -1    0    0    0  501 -0.00000000000E+00 -0.00000000000E+00 -0.14974441474E+02  0.15028200073E+02  0.12700000000E+01 0. -1.
         25    2    1    2    0    0  0.00000000000E+00  0.00000000000E+00  0.24535395009E+03  0.27535968943E+03  0.12499759094E+03 0.  0.
    9000005    1    3    3    0    0  0.24091180394E+02  0.37651021843E+02  0.21887965335E+03  0.22339938914E+03  0.10000000000E+01 0.  0.
    9000005    1    3    3    0    0 -0.24091180394E+02 -0.37651021843E+02  0.26474296735E+02  0.51960300290E+02  0.10000000000E+01 0.  0.
<mgrwt>
<rscale>  0 0.12499759E+03</rscale>
<asrwt>0</asrwt>
<pdfrwt beam="1">  1        4 0.40054896E-01 0.12499759E+03</pdfrwt>
<pdfrwt beam="2">  1       -4 0.23081338E-02 0.12499759E+03</pdfrwt>
<totfact> 0.78801646E+03</totfact>
</mgrwt>
</event>
<event>
 5    1  0.3422688E-002  0.1250072E+03  0.7818608E-02  0.1235058E+00
         -4   -1    0    0    0  501 -0.00000000000E+00  0.00000000000E+00  0.11479338055E+03  0.11480040556E+03  0.12700000000E+01 0.  1.
          4   -1    0    0  501    0  0.00000000000E+00 -0.00000000000E+00 -0.34012515225E+02  0.34036217356E+02  0.12700000000E+01 0.  1.
         25    2    1    2    0    0  0.00000000000E+00  0.00000000000E+00  0.80780865321E+02  0.14883662292E+03  0.12500716827E+03 0.  0.
    9000005    1    3    3    0    0 -0.54301504704E+02 -0.22142045056E+02  0.66113836234E+02  0.88379652149E+02  0.10000000000E+01 0.  0.
    9000005    1    3    3    0    0  0.54301504704E+02  0.22142045056E+02  0.14667029087E+02  0.60456970769E+02  0.10000000000E+01 0.  0.
<mgrwt>
<rscale>  0 0.12500717E+03</rscale>
<asrwt>0</asrwt>
<pdfrwt beam="2">  1        4 0.52350583E-02 0.12500717E+03</pdfrwt>
<pdfrwt beam="1">  1       -4 0.17662884E-01 0.12500717E+03</pdfrwt>
<totfact> 0.99520048E+03</totfact>
</mgrwt>
</event>
<event>
 5    1  0.3422688E-002  0.1249984E+03  0.7818608E-02  0.1235072E+00
         -4   -1    0    0    0  501 -0.00000000000E+00  0.00000000000E+00  0.10503434480E+02  0.10579935532E+02  0.12700000000E+01 0.  1.
          4   -1    0    0  501    0  0.00000000000E+00 -0.00000000000E+00 -0.37046575331E+03  0.37046793016E+03  0.12700000000E+01 0.  1.
         25    2    1    2    0    0  0.00000000000E+00  0.00000000000E+00 -0.35996231883E+03  0.38104786569E+03  0.12499841987E+03 0.  0.
    9000005    1    3    3    0    0  0.15852097050E+02 -0.17257078891E+02 -0.33816158213E+01  0.23696646984E+02  0.10000000000E+01 0.  0.
    9000005    1    3    3    0    0 -0.15852097050E+02  0.17257078891E+02 -0.35658070301E+03  0.35735121871E+03  0.10000000000E+01 0.  0.
<mgrwt>
<rscale>  0 0.12499842E+03</rscale>
<asrwt>0</asrwt>
<pdfrwt beam="2">  1        4 0.57000773E-01 0.12499842E+03</pdfrwt>
<pdfrwt beam="1">  1       -4 0.16219654E-02 0.12499842E+03</pdfrwt>
<totfact> 0.66441070E+03</totfact>
</mgrwt>
</event>
<event>
 5    1  0.3422688E-002  0.1249768E+03  0.7818608E-02  0.1235105E+00
         -4   -1    0    0    0  501 -0.00000000000E+00  0.00000000000E+00  0.51475970326E+02  0.51491634476E+02  0.12700000000E+01 0.  1.
          4   -1    0    0  501    0  0.00000000000E+00 -0.00000000000E+00 -0.75824290945E+02  0.75834925973E+02  0.12700000000E+01 0.  1.
         25    2    1    2    0    0  0.00000000000E+00  0.00000000000E+00 -0.24348320620E+02  0.12732656045E+03  0.12497684697E+03 0.  0.
    9000005    1    3    3    0    0 -0.51739198125E+02 -0.32302590411E+02  0.16230222719E+01  0.61024881575E+02  0.10000000000E+01 0.  0.
    9000005    1    3    3    0    0  0.51739198125E+02  0.32302590411E+02 -0.25971342892E+02  0.66301678874E+02  0.10000000000E+01 0.  0.
<mgrwt>
<rscale>  0 0.12497685E+03</rscale>
<asrwt>0</asrwt>
<pdfrwt beam="2">  1        4 0.11667299E-01 0.12497685E+03</pdfrwt>
<pdfrwt beam="1">  1       -4 0.79214031E-02 0.12497685E+03</pdfrwt>
<totfact> 0.10407497E+04</totfact>
</mgrwt>
</event>
<event>
 5    1  0.3422688E-002  0.1250571E+03  0.7818608E-02  0.1234980E+00
         -4   -1    0    0    0  501 -0.00000000000E+00  0.00000000000E+00  0.18094718984E+02  0.18139232485E+02  0.12700000000E+01 0. -1.
          4   -1    0    0  501    0  0.00000000000E+00 -0.00000000000E+00 -0.21576326444E+03  0.21576700207E+03  0.12700000000E+01 0. -1.
         25    2    1    2    0    0  0.00000000000E+00  0.00000000000E+00 -0.19766854545E+03  0.23390623455E+03  0.12505707777E+03 0.  0.
    9000005    1    3    3    0    0 -0.10092755330E+02 -0.53354897810E+02 -0.15679268576E+03  0.16593238123E+03  0.10000000000E+01 0.  0.
    9000005    1    3    3    0    0  0.10092755330E+02  0.53354897810E+02 -0.40875859690E+02  0.67973853325E+02  0.10000000000E+01 0.  0.
<mgrwt>
<rscale>  0 0.12505708E+03</rscale>
<asrwt>0</asrwt>
<pdfrwt beam="2">  1        4 0.33198058E-01 0.12505708E+03</pdfrwt>
<pdfrwt beam="1">  1       -4 0.27875147E-02 0.12505708E+03</pdfrwt>
<totfact> 0.84605621E+03</totfact>
</mgrwt>
</event>
<event>
 5    1  0.3422688E-002  0.1250003E+03  0.7818608E-02  0.1235069E+00
         -4   -1    0    0    0  501 -0.00000000000E+00  0.00000000000E+00  0.18735324134E+03  0.18735754573E+03  0.12700000000E+01 0.  1.
          4   -1    0    0  501    0  0.00000000000E+00 -0.00000000000E+00 -0.20825880476E+02  0.20864567994E+02  0.12700000000E+01 0.  1.
         25    2    1    2    0    0  0.00000000000E+00  0.00000000000E+00  0.16652736087E+03  0.20822211372E+03  0.12500034690E+03 0.  0.
    9000005    1    3    3    0    0 -0.13377626854E+02  0.61042287330E+02  0.82618661326E+02  0.10359519749E+03  0.10000000000E+01 0.  0.
    9000005    1    3    3    0    0  0.13377626854E+02 -0.61042287330E+02  0.83908699540E+02  0.10462691624E+03  0.10000000000E+01 0.  0.
<mgrwt>
<rscale>  0 0.12500035E+03</rscale>
<asrwt>0</asrwt>
<pdfrwt beam="2">  1        4 0.32072886E-02 0.12500035E+03</pdfrwt>
<pdfrwt beam="1">  1       -4 0.28826883E-01 0.12500035E+03</pdfrwt>
<totfact> 0.88766369E+03</totfact>
</mgrwt>
</event>
<event>
 5    1  0.3422688E-002  0.1250010E+03  0.7818608E-02  0.1235068E+00
         -4   -1    0    0    0  501 -0.00000000000E+00  0.00000000000E+00  0.12571616047E+02  0.12635601688E+02  0.12700000000E+01 0. -1.
          4   -1    0    0  501    0  0.00000000000E+00 -0.00000000000E+00 -0.30987086190E+03  0.30987346443E+03  0.12700000000E+01 0. -1.
         25    2    1    2    0    0  0.00000000000E+00  0.00000000000E+00 -0.29729924585E+03  0.32250906611E+03  0.12500102456E+03 0.  0.
    9000005    1    3    3    0    0 -0.40881914418E+02 -0.45771800449E+02 -0.17905981554E+03  0.18928762818E+03  0.10000000000E+01 0.  0.
    9000005    1    3    3    0    0  0.40881914418E+02  0.45771800449E+02 -0.11823943032E+03  0.13322143793E+03  0.10000000000E+01 0.  0.
<mgrwt>
<rscale>  0 0.12500102E+03</rscale>
<asrwt>0</asrwt>
<pdfrwt beam="2">  1        4 0.47677557E-01 0.12500102E+03</pdfrwt>
<pdfrwt beam="1">  1       -4 0.19392172E-02 0.12500102E+03</pdfrwt>
<totfact> 0.72857043E+03</totfact>
</mgrwt>
</event>
<event>
 5    1  0.3422688E-002  0.1250372E+03  0.7818608E-02  0.1235011E+00
         -4   -1    0    0    0  501 -0.00000000000E+00  0.00000000000E+00  0.25562308079E+02  0.25593837038E+02  0.12700000000E+01 0.  1.
          4   -1    0    0  501    0  0.00000000000E+00 -0.00000000000E+00 -0.15277554546E+03  0.15278082403E+03  0.12700000000E+01 0.  1.
         25    2    1    2    0    0  0.00000000000E+00  0.00000000000E+00 -0.12721323739E+03  0.17837466107E+03  0.12503724223E+03 0.  0.
    9000005    1    3    3    0    0  0.52537553359E+02  0.10017557756E+02 -0.10976746410E+03  0.12210832138E+03  0.10000000000E+01 0.  0.
    9000005    1    3    3    0    0 -0.52537553359E+02 -0.10017557756E+02 -0.17445773290E+02  0.56266339689E+02  0.10000000000E+01 0.  0.
<mgrwt>
<rscale>  0 0.12503724E+03</rscale>
<asrwt>0</asrwt>
<pdfrwt beam="2">  1        4 0.23506761E-01 0.12503724E+03</pdfrwt>
<pdfrwt beam="1">  1       -4 0.39354942E-02 0.12503724E+03</pdfrwt>
<totfact> 0.93832001E+03</totfact>
</mgrwt>
</event>
<event>
 5    1  0.3422688E-002  0.1249921E+03  0.7818608E-02  0.1235082E+00
         -4   -1    0    0    0  501 -0.00000000000E+00  0.00000000000E+00  0.29750026977E+02  0.29777122177E+02  0.12700000000E+01 0. -1.
          4   -1    0    0  501    0  0.00000000000E+00 -0.00000000000E+00 -0.13119585498E+03  0.13120200176E+03  0.12700000000E+01 0. -1.
         25    2    1    2    0    0  0.00000000000E+00  0.00000000000E+00 -0.10144582801E+03  0.16097912393E+03  0.12499208904E+03 0.  0.
    9000005    1    3    3    0    0 -0.32556060956E+02  0.34160362329E+02 -0.10347913869E+03  0.11373548085E+03  0.10000000000E+01 0.  0.
    9000005    1    3    3    0    0  0.32556060956E+02 -0.34160362329E+02  0.20333106868E+01  0.47243643083E+02  0.10000000000E+01 0.  0.
<mgrwt>
<rscale>  0 0.12499209E+03</rscale>
<asrwt>0</asrwt>
<pdfrwt beam="2">  1        4 0.20186534E-01 0.12499209E+03</pdfrwt>
<pdfrwt beam="1">  1       -4 0.45794844E-02 0.12499209E+03</pdfrwt>
<totfact> 0.97171625E+03</totfact>
</mgrwt>
</event>
<event>
 5    1  0.3422688E-002  0.1250006E+03  0.7818608E-02  0.1235068E+00
         -4   -1    0    0    0  501 -0.00000000000E+00  0.00000000000E+00  0.29178847971E+03  0.29179124351E+03  0.12700000000E+01 0. -1.
          4   -1    0    0  501    0  0.00000000000E+00 -0.00000000000E+00 -0.13354443051E+02  0.13414695271E+02  0.12700000000E+01 0. -1.
         25    2    1    2    0    0  0.00000000000E+00  0.00000000000E+00  0.27843403666E+03  0.30520593878E+03  0.12500060920E+03 0.  0.
    9000005    1    3    3    0    0  0.18732838658E+02  0.14003104094E+02  0.28071147480E+03  0.28168588579E+03  0.10000000000E+01 0.  0.
    9000005    1    3    3    0    0 -0.18732838658E+02 -0.14003104094E+02 -0.22774381407E+01  0.23520052996E+02  0.10000000000E+01 0.  0.
<mgrwt>
<rscale>  0 0.12500061E+03</rscale>
<asrwt>0</asrwt>
<pdfrwt beam="2">  1        4 0.20593773E-02 0.12500061E+03</pdfrwt>
<pdfrwt beam="1">  1       -4 0.44895379E-01 0.12500061E+03</pdfrwt>
<totfact> 0.74949409E+03</totfact>
</mgrwt>
</event>
<event>
 5    1  0.3422688E-002  0.1249958E+03  0.7818608E-02  0.1235076E+00
         -4   -1    0    0    0  501 -0.00000000000E+00  0.00000000000E+00  0.31390023508E+01  0.33861830663E+01  0.12700000000E+01 0. -1.
          4   -1    0    0  501    0  0.00000000000E+00 -0.00000000000E+00 -0.11969556146E+04  0.11969562884E+04  0.12700000000E+01 0. -1.
         25    2    1    2    0    0  0.00000000000E+00  0.00000000000E+00 -0.11938166123E+04  0.12003424714E+04  0.12499577995E+03 0.  0.
    9000005    1    3    3    0    0 -0.38722426149E+02  0.24269566510E+02 -0.18761628940E+03  0.19310440231E+03  0.10000000000E+01 0.  0.
    9000005    1    3    3    0    0  0.38722426149E+02 -0.24269566510E+02 -0.10062003229E+04  0.10072380691E+04  0.10000000000E+01 0.  0.
<mgrwt>
<rscale>  0 0.12499578E+03</rscale>
<asrwt>0</asrwt>
<pdfrwt beam="2">  1        4 0.18416573E+00 0.12499578E+03</pdfrwt>
<pdfrwt beam="1">  1       -4 0.50199012E-03 0.12499578E+03</pdfrwt>
<totfact> 0.24706118E+03</totfact>
</mgrwt>
</event>
<event>
 5    1  0.3422688E-002  0.1249992E+03  0.7818608E-02  0.1235071E+00
         -4   -1    0    0    0  501 -0.00000000000E+00  0.00000000000E+00  0.10600211263E+03  0.10600972022E+03  0.12700000000E+01 0. -1.
          4   -1    0    0  501    0  0.00000000000E+00 -0.00000000000E+00 -0.36830313264E+02  0.36852203124E+02  0.12700000000E+01 0. -1.
         25    2    1    2    0    0  0.00000000000E+00  0.00000000000E+00  0.69171799365E+02  0.14286192335E+03  0.12499916526E+03 0.  0.
    9000005    1    3    3    0    0  0.18938144506E+00 -0.95360643442E+01  0.10517092246E+03  0.10560726925E+03  0.10000000000E+01 0.  0.
    9000005    1    3    3    0    0 -0.18938144506E+00  0.95360643442E+01 -0.35999123091E+02  0.37254654096E+02  0.10000000000E+01 0.  0.
<mgrwt>
<rscale>  0 0.12499917E+03</rscale>
<asrwt>0</asrwt>
<pdfrwt beam="2">  1        4 0.56684712E-02 0.12499917E+03</pdfrwt>
<pdfrwt beam="1">  1       -4 0.16310286E-01 0.12499917E+03</pdfrwt>
<totfact> 0.10074801E+04</totfact>
</mgrwt>
</event>
<event>
 5    1  0.3422688E-002  0.1249974E+03  0.7818608E-02  0.1235073E+00
         -4   -1    0    0    0  501 -0.00000000000E+00  0.00000000000E+00  0.16271800665E+03  0.16272296270E+03  0.12700000000E+01 0.  1.
          4   -1    0    0  501    0  0.00000000000E+00 -0.00000000000E+00 -0.23983123674E+02  0.24016725862E+02  0.12700000000E+01 0.  1.
         25    2    1    2    0    0  0.00000000000E+00  0.00000000000E+00  0.13873488298E+03  0.18673968856E+03  0.12499737408E+03 0.  0.
    9000005    1    3    3    0    0  0.59871633416E+02  0.34260235766E+01  0.43117447643E+02  0.73867884881E+02  0.10000000000E+01 0.  0.
    9000005    1    3    3    0    0 -0.59871633416E+02 -0.34260235766E+01  0.95617435335E+02  0.11287180368E+03  0.10000000000E+01 0.  0.
<mgrwt>
<rscale>  0 0.12499737E+03</rscale>
<asrwt>0</asrwt>
<pdfrwt beam="2">  1        4 0.36926773E-02 0.12499737E+03</pdfrwt>
<pdfrwt beam="1">  1       -4 0.25036506E-01 0.12499737E+03</pdfrwt>
<totfact> 0.92423150E+03</totfact>
</mgrwt>
</event>
<event>
 5    1  0.3422688E-002  0.1250035E+03  0.7818608E-02  0.1235064E+00
         -4   -1    0    0    0  501 -0.00000000000E+00  0.00000000000E+00  0.15315938903E+03  0.15316465437E+03  0.12700000000E+01 0.  1.
          4   -1    0    0  501    0  0.00000000000E+00 -0.00000000000E+00 -0.25484402157E+02  0.25516027381E+02  0.12700000000E+01 0.  1.
         25    2    1    2    0    0  0.00000000000E+00  0.00000000000E+00  0.12767498688E+03  0.17868068175E+03  0.12500353498E+03 0.  0.
    9000005    1    3    3    0    0  0.37132661471E+02  0.47930618047E+02  0.85482114641E+02  0.10480634817E+03  0.10000000000E+01 0.  0.
    9000005    1    3    3    0    0 -0.37132661471E+02 -0.47930618047E+02  0.42192872237E+02  0.73874333580E+02  0.10000000000E+01 0.  0.
<mgrwt>
<rscale>  0 0.12500353E+03</rscale>
<asrwt>0</asrwt>
<pdfrwt beam="2">  1        4 0.39235150E-02 0.12500353E+03</pdfrwt>
<pdfrwt beam="1">  1       -4 0.23565821E-01 0.12500353E+03</pdfrwt>
<totfact> 0.93847585E+03</totfact>
</mgrwt>
</event>
<event>
 4    1  0.3422688E-002  0.1248516E+03  0.7818608E-02  0.1235301E+00
         -4   -1    0    0    0  501 -0.00000000000E+00  0.00000000000E+00  0.60238408130E+03  0.60238542006E+03  0.12700000000E+01 0.  1.
          4   -1    0    0  501    0  0.00000000000E+00 -0.00000000000E+00 -0.64055760239E+01  0.65302606532E+01  0.12700000000E+01 0.  1.
    9000005    1    1    2    0    0  0.30212093223E+02 -0.54589869060E+02  0.28932295248E+03  0.29597566659E+03  0.10000000000E+01 0.  0.
    9000005    1    1    2    0    0 -0.30212093223E+02  0.54589869060E+02  0.30665555279E+03  0.31294001412E+03  0.10000000000E+01 0.  0.
<mgrwt>
<rscale>  0 0.12485162E+03</rscale>
<asrwt>0</asrwt>
<pdfrwt beam="2">  1        4 0.99516687E-03 0.12485162E+03</pdfrwt>
<pdfrwt beam="1">  1       -4 0.92684212E-01 0.12485162E+03</pdfrwt>
<totfact> 0.48467084E+03</totfact>
</mgrwt>
</event>
<event>
 5    1  0.3422688E-002  0.1249976E+03  0.7818608E-02  0.1235073E+00
         -4   -1    0    0    0  501 -0.00000000000E+00  0.00000000000E+00  0.75721576141E+02  0.75732225593E+02  0.12700000000E+01 0.  1.
          4   -1    0    0  501    0  0.00000000000E+00 -0.00000000000E+00 -0.51562912720E+02  0.51578550466E+02  0.12700000000E+01 0.  1.
         25    2    1    2    0    0  0.00000000000E+00  0.00000000000E+00  0.24158663421E+02  0.12731077606E+03  0.12499757071E+03 0.  0.
    9000005    1    3    3    0    0  0.49379204968E+02  0.12811558892E+01 -0.26906317876E+02  0.56257418936E+02  0.10000000000E+01 0.  0.
    9000005    1    3    3    0    0 -0.49379204968E+02 -0.12811558892E+01  0.51064981297E+02  0.71053357124E+02  0.10000000000E+01 0.  0.
<mgrwt>
<rscale>  0 0.12499757E+03</rscale>
<asrwt>0</asrwt>
<pdfrwt beam="2">  1        4 0.79347779E-02 0.12499757E+03</pdfrwt>
<pdfrwt beam="1">  1       -4 0.11651495E-01 0.12499757E+03</pdfrwt>
<totfact> 0.10402971E+04</totfact>
</mgrwt>
</event>
<event>
 5    1  0.3422688E-002  0.1250053E+03  0.7818608E-02  0.1235061E+00
          4   -1    0    0  501    0  0.00000000000E+00  0.00000000000E+00  0.40176165725E+01  0.42135665324E+01  0.12700000000E+01 0. -1.
         -4   -1    0    0    0  501 -0.00000000000E+00 -0.00000000000E+00 -0.94901855016E+03  0.94901939994E+03  0.12700000000E+01 0. -1.
         25    2    1    2    0    0  0.00000000000E+00  0.00000000000E+00 -0.94500093359E+03  0.95323296647E+03  0.12500529538E+03 0.  0.
    9000005    1    3    3    0    0 -0.29537402406E+02 -0.49383454217E+02 -0.65841316267E+03  0.66092365404E+03  0.10000000000E+01 0.  0.
    9000005    1    3    3    0    0  0.29537402406E+02  0.49383454217E+02 -0.28658777092E+03  0.29230931243E+03  0.10000000000E+01 0.  0.
<mgrwt>
<rscale>  0 0.12500530E+03</rscale>
<asrwt>0</asrwt>
<pdfrwt beam="1">  1        4 0.63323405E-03 0.12500530E+03</pdfrwt>
<pdfrwt beam="2">  1       -4 0.14601782E+00 0.12500530E+03</pdfrwt>
<totfact> 0.32197782E+03</totfact>
</mgrwt>
</event>
<event>
 5    1  0.3422688E-002  0.1250002E+03  0.7818608E-02  0.1235069E+00
         -4   -1    0    0    0  501 -0.00000000000E+00  0.00000000000E+00  0.88215707507E+02  0.88224848829E+02  0.12700000000E+01 0. -1.
          4   -1    0    0  501    0  0.00000000000E+00 -0.00000000000E+00 -0.44260288853E+02  0.44278505726E+02  0.12700000000E+01 0. -1.
         25    2    1    2    0    0  0.00000000000E+00  0.00000000000E+00  0.43955418654E+02  0.13250335456E+03  0.12500024056E+03 0.  0.
    9000005    1    3    3    0    0 -0.15343158122E+02  0.58832112629E+02  0.66664938896E+01  0.61172478438E+02  0.10000000000E+01 0.  0.
    9000005    1    3    3    0    0  0.15343158122E+02 -0.58832112629E+02  0.37288924764E+02  0.71330876117E+02  0.10000000000E+01 0.  0.
<mgrwt>
<rscale>  0 0.12500024E+03</rscale>
<asrwt>0</asrwt>
<pdfrwt beam="2">  1        4 0.68113797E-02 0.12500024E+03</pdfrwt>
<pdfrwt beam="1">  1       -4 0.13573752E-01 0.12500024E+03</pdfrwt>
<totfact> 0.10290910E+04</totfact>
</mgrwt>
</event>
<event>
 5    1  0.3422688E-002  0.1249945E+03  0.7818608E-02  0.1235078E+00
         -4   -1    0    0    0  501 -0.00000000000E+00  0.00000000000E+00  0.23999093803E+02  0.24032673663E+02  0.12700000000E+01 0. -1.
          4   -1    0    0  501    0  0.00000000000E+00 -0.00000000000E+00 -0.16260246937E+03  0.16260742894E+03  0.12700000000E+01 0. -1.
         25    2    1    2    0    0  0.00000000000E+00  0.00000000000E+00 -0.13860337557E+03  0.18664010260E+03  0.12499452860E+03 0.  0.
    9000005    1    3    3    0    0 -0.18412862753E+02  0.28669263361E+02  0.89154445767E+01  0.35234150031E+02  0.10000000000E+01 0.  0.
    9000005    1    3    3    0    0  0.18412862753E+02 -0.28669263361E+02 -0.14751882014E+03  0.15140595257E+03  0.10000000000E+01 0.  0.
<mgrwt>
<rscale>  0 0.12499453E+03</rscale>
<asrwt>0</asrwt>
<pdfrwt beam="2">  1        4 0.25018728E-01 0.12499453E+03</pdfrwt>
<pdfrwt beam="1">  1       -4 0.36951330E-02 0.12499453E+03</pdfrwt>
<totfact> 0.92446568E+03</totfact>
</mgrwt>
</event>
<event>
 5    1  0.3422688E-002  0.1250058E+03  0.7818608E-02  0.1235060E+00
          4   -1    0    0  501    0  0.00000000000E+00  0.00000000000E+00  0.22230256896E+03  0.22230619664E+03  0.12700000000E+01 0. -1.
         -4   -1    0    0    0  501 -0.00000000000E+00 -0.00000000000E+00 -0.17546693557E+02  0.17592593748E+02  0.12700000000E+01 0. -1.
         25    2    1    2    0    0  0.00000000000E+00  0.00000000000E+00  0.20475587540E+03  0.23989879039E+03  0.12500584434E+03 0.  0.
    9000005    1    3    3    0    0  0.51191358812E+02 -0.23574903243E+02  0.15420374585E+03  0.16418321021E+03  0.10000000000E+01 0.  0.
    9000005    1    3    3    0    0 -0.51191358812E+02  0.23574903243E+02  0.50552129546E+02  0.75715580177E+02  0.10000000000E+01 0.  0.
<mgrwt>
<rscale>  0 0.12500584E+03</rscale>
<asrwt>0</asrwt>
<pdfrwt beam="1">  1        4 0.34204204E-01 0.12500584E+03</pdfrwt>
<pdfrwt beam="2">  1       -4 0.27033012E-02 0.12500584E+03</pdfrwt>
<totfact> 0.83801524E+03</totfact>
</mgrwt>
</event>
<event>
 5    1  0.3422688E-002  0.1249998E+03  0.7818608E-02  0.1235070E+00
          4   -1    0    0  501    0  0.00000000000E+00  0.00000000000E+00  0.32012594053E+02  0.32037775796E+02  0.12700000000E+01 0. -1.
         -4   -1    0    0    0  501 -0.00000000000E+00 -0.00000000000E+00 -0.12194533973E+03  0.12195195276E+03  0.12700000000E+01 0. -1.
         25    2    1    2    0    0  0.00000000000E+00  0.00000000000E+00 -0.89932745675E+02  0.15398972855E+03  0.12499975102E+03 0.  0.
    9000005    1    3    3    0    0 -0.56572845237E+02  0.22142701726E+02 -0.63006682639E+02  0.87530726691E+02  0.10000000000E+01 0.  0.
    9000005    1    3    3    0    0  0.56572845237E+02 -0.22142701726E+02 -0.26926063036E+02  0.66459001862E+02  0.10000000000E+01 0.  0.
<mgrwt>
<rscale>  0 0.12499975E+03</rscale>
<asrwt>0</asrwt>
<pdfrwt beam="1">  1        4 0.49274603E-02 0.12499975E+03</pdfrwt>
<pdfrwt beam="2">  1       -4 0.18763267E-01 0.12499975E+03</pdfrwt>
<totfact> 0.98514745E+03</totfact>
</mgrwt>
</event>
<event>
 5    1  0.3422688E-002  0.1250005E+03  0.7818608E-02  0.1235068E+00
          4   -1    0    0  501    0  0.00000000000E+00  0.00000000000E+00  0.31001610347E+01  0.33502087161E+01  0.12700000000E+01 0. -1.
         -4   -1    0    0    0  501 -0.00000000000E+00 -0.00000000000E+00 -0.12109307688E+04  0.12109314348E+04  0.12700000000E+01 0. -1.
         25    2    1    2    0    0  0.00000000000E+00  0.00000000000E+00 -0.12078306078E+04  0.12142816435E+04  0.12500053066E+03 0.  0.
    9000005    1    3    3    0    0 -0.52487027315E+01 -0.61262049899E+02 -0.71239114156E+03  0.71504036684E+03  0.10000000000E+01 0.  0.
    9000005    1    3    3    0    0  0.52487027315E+01  0.61262049899E+02 -0.49543946623E+03  0.49924127667E+03  0.10000000000E+01 0.  0.
<mgrwt>
<rscale>  0 0.12500053E+03</rscale>
<asrwt>0</asrwt>
<pdfrwt beam="1">  1        4 0.49623448E-03 0.12500053E+03</pdfrwt>
<pdfrwt beam="2">  1       -4 0.18631596E+00 0.12500053E+03</pdfrwt>
<totfact> 0.24341741E+03</totfact>
</mgrwt>
</event>
<event>
 5    1  0.3422688E-002  0.1250033E+03  0.7818608E-02  0.1235064E+00
         -4   -1    0    0    0  501 -0.00000000000E+00  0.00000000000E+00  0.31084716360E+02  0.31110649161E+02  0.12700000000E+01 0. -1.
          4   -1    0    0  501    0  0.00000000000E+00 -0.00000000000E+00 -0.12558966477E+03  0.12559608591E+03  0.12700000000E+01 0. -1.
         25    2    1    2    0    0  0.00000000000E+00  0.00000000000E+00 -0.94504948405E+02  0.15670673507E+03  0.12500326213E+03 0.  0.
    9000005    1    3    3    0    0 -0.32924384157E+02 -0.51807009829E+02 -0.32553930632E+02  0.69489133964E+02  0.10000000000E+01 0.  0.
    9000005    1    3    3    0    0  0.32924384157E+02  0.51807009829E+02 -0.61951017774E+02  0.87217601106E+02  0.10000000000E+01 0.  0.
<mgrwt>
<rscale>  0 0.12500326E+03</rscale>
<asrwt>0</asrwt>
<pdfrwt beam="2">  1        4 0.19323975E-01 0.12500326E+03</pdfrwt>
<pdfrwt beam="1">  1       -4 0.47847529E-02 0.12500326E+03</pdfrwt>
<totfact> 0.97974297E+03</totfact>
</mgrwt>
</event>
<event>
 5    1  0.3422688E-002  0.1249966E+03  0.7818608E-02  0.1235075E+00
          4   -1    0    0  501    0  0.00000000000E+00  0.00000000000E+00  0.21719007043E+03  0.21719378350E+03  0.12700000000E+01 0. -1.
         -4   -1    0    0    0  501 -0.00000000000E+00 -0.00000000000E+00 -0.17958139193E+02  0.18002990398E+02  0.12700000000E+01 0. -1.
         25    2    1    2    0    0  0.00000000000E+00  0.00000000000E+00  0.19923193123E+03  0.23519677390E+03  0.12499664007E+03 0.  0.
    9000005    1    3    3    0    0 -0.46190493755E+02 -0.33440127212E+02  0.14770744516E+03  0.15833601352E+03  0.10000000000E+01 0.  0.
    9000005    1    3    3    0    0  0.46190493755E+02  0.33440127212E+02  0.51524486075E+02  0.76860760383E+02  0.10000000000E+01 0.  0.
<mgrwt>
<rscale>  0 0.12499664E+03</rscale>
<asrwt>0</asrwt>
<pdfrwt beam="1">  1        4 0.33417594E-01 0.12499664E+03</pdfrwt>
<pdfrwt beam="2">  1       -4 0.27665262E-02 0.12499664E+03</pdfrwt>
<totfact> 0.84524295E+03</totfact>
</mgrwt>
</event>
<event>
 5    1  0.3422688E-002  0.1250017E+03  0.7818608E-02  0.1235067E+00
         -4   -1    0    0    0  501 -0.00000000000E+00  0.00000000000E+00  0.27132479769E+03  0.27132776994E+03  0.12700000000E+01 0. -1.
          4   -1    0    0  501    0  0.00000000000E+00 -0.00000000000E+00 -0.14366285253E+02  0.14422310909E+02  0.12700000000E+01 0. -1.
         25    2    1    2    0    0  0.00000000000E+00  0.00000000000E+00  0.25695851244E+03  0.28575008085E+03  0.12500172636E+03 0.  0.
    9000005    1    3    3    0    0  0.20524461317E+02 -0.16470784957E+02 -0.10934078238E+01  0.26357841530E+02  0.10000000000E+01 0.  0.
    9000005    1    3    3    0    0 -0.20524461317E+02  0.16470784957E+02  0.25805192026E+03  0.25939223932E+03  0.10000000000E+01 0.  0.
<mgrwt>
<rscale>  0 0.12500173E+03</rscale>
<asrwt>0</asrwt>
<pdfrwt beam="2">  1        4 0.22147360E-02 0.12500173E+03</pdfrwt>
<pdfrwt beam="1">  1       -4 0.41746815E-01 0.12500173E+03</pdfrwt>
<totfact> 0.77418841E+03</totfact>
</mgrwt>
</event>
<event>
 5    1  0.3422688E-002  0.1250038E+03  0.7818608E-02  0.1235063E+00
         -4   -1    0    0    0  501 -0.00000000000E+00  0.00000000000E+00  0.45473859162E+01  0.47214000753E+01  0.12700000000E+01 0. -1.
          4   -1    0    0  501    0  0.00000000000E+00 -0.00000000000E+00 -0.84275912036E+03  0.84276007728E+03  0.12700000000E+01 0. -1.
         25    2    1    2    0    0  0.00000000000E+00  0.00000000000E+00 -0.83821173444E+03  0.84748147735E+03  0.12500377072E+03 0.  0.
    9000005    1    3    3    0    0 -0.42210237378E+02 -0.10328850526E+02 -0.72359403889E+03  0.72489842213E+03  0.10000000000E+01 0.  0.
    9000005    1    3    3    0    0  0.42210237378E+02  0.10328850526E+02 -0.11461769555E+03  0.12258305522E+03  0.10000000000E+01 0.  0.
<mgrwt>
<rscale>  0 0.12500377E+03</rscale>
<asrwt>0</asrwt>
<pdfrwt beam="2">  1        4 0.12966859E+00 0.12500377E+03</pdfrwt>
<pdfrwt beam="1">  1       -4 0.71305782E-03 0.12500377E+03</pdfrwt>
<totfact> 0.36227654E+03</totfact>
</mgrwt>
</event>
<event>
 5    1  0.3422688E-002  0.1250001E+03  0.7818608E-02  0.1235069E+00
          4   -1    0    0  501    0  0.00000000000E+00  0.00000000000E+00  0.11994244960E+02  0.12061293967E+02  0.12700000000E+01 0. -1.
         -4   -1    0    0    0  501 -0.00000000000E+00 -0.00000000000E+00 -0.32470137707E+03  0.32470386073E+03  0.12700000000E+01 0. -1.
         25    2    1    2    0    0  0.00000000000E+00  0.00000000000E+00 -0.31270713211E+03  0.33676515470E+03  0.12500007578E+03 0.  0.
    9000005    1    3    3    0    0 -0.49098131028E+02 -0.23195236775E+02 -0.23968026201E+03  0.24575653293E+03  0.10000000000E+01 0.  0.
    9000005    1    3    3    0    0  0.49098131028E+02  0.23195236775E+02 -0.73026870106E+02  0.91008621773E+02  0.10000000000E+01 0.  0.
<mgrwt>
<rscale>  0 0.12500008E+03</rscale>
<asrwt>0</asrwt>
<pdfrwt beam="1">  1        4 0.18506174E-02 0.12500008E+03</pdfrwt>
<pdfrwt beam="2">  1       -4 0.49959400E-01 0.12500008E+03</pdfrwt>
<totfact> 0.71205402E+03</totfact>
</mgrwt>
</event>
<event>
 5    1  0.3422688E-002  0.1250033E+03  0.7818608E-02  0.1235064E+00
         -4   -1    0    0    0  501 -0.00000000000E+00  0.00000000000E+00  0.33761876666E+02  0.33785754631E+02  0.12700000000E+01 0. -1.
          4   -1    0    0  501    0  0.00000000000E+00 -0.00000000000E+00 -0.11563782309E+03  0.11564479681E+03  0.12700000000E+01 0. -1.
         25    2    1    2    0    0  0.00000000000E+00  0.00000000000E+00 -0.81875946428E+02  0.14943055144E+03  0.12500327636E+03 0.  0.
    9000005    1    3    3    0    0 -0.28824071942E+02  0.53024796245E+02 -0.60324265237E+02  0.85337407487E+02  0.10000000000E+01 0.  0.
    9000005    1    3    3    0    0  0.28824071942E+02 -0.53024796245E+02 -0.21551681191E+02  0.64093143958E+02  0.10000000000E+01 0.  0.
<mgrwt>
<rscale>  0 0.12500328E+03</rscale>
<asrwt>0</asrwt>
<pdfrwt beam="2">  1        4 0.17792807E-01 0.12500328E+03</pdfrwt>
<pdfrwt beam="1">  1       -4 0.51965081E-02 0.12500328E+03</pdfrwt>
<totfact> 0.99409999E+03</totfact>
</mgrwt>
</event>
<event>
 5    1  0.3422688E-002  0.1249992E+03  0.7818608E-02  0.1235071E+00
         -4   -1    0    0    0  501 -0.00000000000E+00  0.00000000000E+00  0.50763124690E+03  0.50763283556E+03  0.12700000000E+01 0. -1.
          4   -1    0    0  501    0  0.00000000000E+00 -0.00000000000E+00 -0.76409428496E+01  0.77457670783E+01  0.12700000000E+01 0. -1.
         25    2    1    2    0    0  0.00000000000E+00  0.00000000000E+00  0.49999030405E+03  0.51537860263E+03  0.12499919961E+03 0.  0.
    9000005    1    3    3    0    0 -0.51236482943E+02 -0.42777779473E+01  0.10354115413E+03  0.11560816220E+03  0.10000000000E+01 0.  0.
    9000005    1    3    3    0    0  0.51236482943E+02  0.42777779473E+01  0.39644914992E+03  0.39977044043E+03  0.10000000000E+01 0.  0.
<mgrwt>
<rscale>  0 0.12499920E+03</rscale>
<asrwt>0</asrwt>
<pdfrwt beam="2">  1        4 0.11837153E-02 0.12499920E+03</pdfrwt>
<pdfrwt beam="1">  1       -4 0.78105299E-01 0.12499920E+03</pdfrwt>
<totfact> 0.54691572E+03</totfact>
</mgrwt>
</event>
<event>
 5    1  0.3422688E-002  0.1249804E+03  0.7818608E-02  0.1235100E+00
         -4   -1    0    0    0  501 -0.00000000000E+00  0.00000000000E+00  0.11244538638E+02  0.11316030628E+02  0.12700000000E+01 0. -1.
          4   -1    0    0  501    0  0.00000000000E+00 -0.00000000000E+00 -0.34610901831E+03  0.34611134835E+03  0.12700000000E+01 0. -1.
         25    2    1    2    0    0  0.00000000000E+00  0.00000000000E+00 -0.33486447967E+03  0.35742737898E+03  0.12498044445E+03 0.  0.
    9000005    1    3    3    0    0  0.24743759555E+02  0.41459656648E+02 -0.28085293875E+03  0.28497461285E+03  0.10000000000E+01 0.  0.
    9000005    1    3    3    0    0 -0.24743759555E+02 -0.41459656648E+02 -0.54011540926E+02  0.72452766127E+02  0.10000000000E+01 0.  0.
<mgrwt>
<rscale>  0 0.12498044E+03</rscale>
<asrwt>0</asrwt>
<pdfrwt beam="2">  1        4 0.53253212E-01 0.12498044E+03</pdfrwt>
<pdfrwt beam="1">  1       -4 0.17356079E-02 0.12498044E+03</pdfrwt>
<totfact> 0.68944934E+03</totfact>
</mgrwt>
</event>
<event>
 5    1  0.3422688E-002  0.1249984E+03  0.7818608E-02  0.1235072E+00
          4   -1    0    0  501    0  0.00000000000E+00  0.00000000000E+00  0.57568533284E+02  0.57582540101E+02  0.12700000000E+01 0. -1.
         -4   -1    0    0    0  501 -0.00000000000E+00 -0.00000000000E+00 -0.67824013143E+02  0.67835902433E+02  0.12700000000E+01 0. -1.
         25    2    1    2    0    0  0.00000000000E+00  0.00000000000E+00 -0.10255479859E+02  0.12541844253E+03  0.12499844343E+03 0.  0.
    9000005    1    3    3    0    0  0.36892260000E+02 -0.48469561324E+02  0.88767902407E+01  0.61564069292E+02  0.10000000000E+01 0.  0.
    9000005    1    3    3    0    0 -0.36892260000E+02  0.48469561324E+02 -0.19132270100E+02  0.63854373241E+02  0.10000000000E+01 0.  0.
<mgrwt>
<rscale>  0 0.12499844E+03</rscale>
<asrwt>0</asrwt>
<pdfrwt beam="1">  1        4 0.88586894E-02 0.12499844E+03</pdfrwt>
<pdfrwt beam="2">  1       -4 0.10436456E-01 0.12499844E+03</pdfrwt>
<totfact> 0.10444125E+04</totfact>
</mgrwt>
</event>
<event>
 5    1  0.3422688E-002  0.1249939E+03  0.7818608E-02  0.1235079E+00
         -4   -1    0    0    0  501 -0.00000000000E+00  0.00000000000E+00  0.89008749224E+02  0.89017809108E+02  0.12700000000E+01 0. -1.
          4   -1    0    0  501    0  0.00000000000E+00 -0.00000000000E+00 -0.43861341794E+02  0.43879724292E+02  0.12700000000E+01 0. -1.
         25    2    1    2    0    0  0.00000000000E+00  0.00000000000E+00  0.45147407430E+02  0.13289753340E+03  0.12499386379E+03 0.  0.
    9000005    1    3    3    0    0 -0.24536913384E+02  0.21159373630E+02 -0.34238014245E+02  0.47148921835E+02  0.10000000000E+01 0.  0.
    9000005    1    3    3    0    0  0.24536913384E+02 -0.21159373630E+02  0.79385421675E+02  0.85748611565E+02  0.10000000000E+01 0.  0.
<mgrwt>
<rscale>  0 0.12499386E+03</rscale>
<asrwt>0</asrwt>
<pdfrwt beam="2">  1        4 0.67500097E-02 0.12499386E+03</pdfrwt>
<pdfrwt beam="1">  1       -4 0.13695765E-01 0.12499386E+03</pdfrwt>
<totfact> 0.10284002E+04</totfact>
</mgrwt>
</event>
<event>
 5    1  0.3422688E-002  0.1249995E+03  0.7818608E-02  0.1235070E+00
         -4   -1    0    0    0  501 -0.00000000000E+00  0.00000000000E+00  0.48649320459E+01  0.50279681593E+01  0.12700000000E+01 0.  1.
          4   -1    0    0  501    0  0.00000000000E+00 -0.00000000000E+00 -0.78953804839E+03  0.78953906981E+03  0.12700000000E+01 0.  1.
         25    2    1    2    0    0  0.00000000000E+00  0.00000000000E+00 -0.78467311635E+03  0.79456703797E+03  0.12499951325E+03 0.  0.
    9000005    1    3    3    0    0  0.49216564939E+02 -0.11138265475E+02 -0.62665912253E+03  0.62868830678E+03  0.10000000000E+01 0.  0.
    9000005    1    3    3    0    0 -0.49216564939E+02  0.11138265475E+02 -0.15801399381E+03  0.16587873120E+03  0.10000000000E+01 0.  0.
<mgrwt>
<rscale>  0 0.12499951E+03</rscale>
<asrwt>0</asrwt>
<pdfrwt beam="2">  1        4 0.12147991E+00 0.12499951E+03</pdfrwt>
<pdfrwt beam="1">  1       -4 0.76107152E-03 0.12499951E+03</pdfrwt>
<totfact> 0.38508859E+03</totfact>
</mgrwt>
</event>
<event>
 5    1  0.3422688E-002  0.1250010E+03  0.7818608E-02  0.1235068E+00
          4   -1    0    0  501    0  0.00000000000E+00  0.00000000000E+00  0.37693894984E+01  0.39775868552E+01  0.12700000000E+01 0. -1.
         -4   -1    0    0    0  501 -0.00000000000E+00 -0.00000000000E+00 -0.10082655010E+04  0.10082663008E+04  0.12700000000E+01 0. -1.
         25    2    1    2    0    0  0.00000000000E+00  0.00000000000E+00 -0.10044961115E+04  0.10122438877E+04  0.12500100060E+03 0.  0.
    9000005    1    3    3    0    0 -0.55169319214E+02  0.28760946504E+02 -0.54978941549E+03  0.55329941913E+03  0.10000000000E+01 0.  0.
    9000005    1    3    3    0    0  0.55169319214E+02 -0.28760946504E+02 -0.45470669602E+03  0.45894446857E+03  0.10000000000E+01 0.  0.
<mgrwt>
<rscale>  0 0.12500100E+03</rscale>
<asrwt>0</asrwt>
<pdfrwt beam="1">  1        4 0.59598359E-03 0.12500100E+03</pdfrwt>
<pdfrwt beam="2">  1       -4 0.15513364E+00 0.12500100E+03</pdfrwt>
<totfact> 0.30202899E+03</totfact>
</mgrwt>
</event>
<event>
 5    1  0.3422688E-002  0.1250233E+03  0.7818608E-02  0.1235033E+00
         -4   -1    0    0    0  501 -0.00000000000E+00  0.00000000000E+00  0.10422710509E+04  0.10422718247E+04  0.12700000000E+01 0. -1.
          4   -1    0    0  501    0  0.00000000000E+00 -0.00000000000E+00 -0.36408782506E+01  0.38560205440E+01  0.12700000000E+01 0. -1.
         25    2    1    2    0    0  0.00000000000E+00  0.00000000000E+00  0.10386301727E+04  0.10461278452E+04  0.12502332957E+03 0.  0.
    9000005    1    3    3    0    0 -0.45945989469E+02 -0.40790271304E+02  0.61538726081E+03  0.61844754099E+03  0.10000000000E+01 0.  0.
    9000005    1    3    3    0    0  0.45945989469E+02  0.40790271304E+02  0.42324291187E+03  0.42768030423E+03  0.10000000000E+01 0.  0.
<mgrwt>
<rscale>  0 0.12502333E+03</rscale>
<asrwt>0</asrwt>
<pdfrwt beam="2">  1        4 0.57674399E-03 0.12502333E+03</pdfrwt>
<pdfrwt beam="1">  1       -4 0.16036602E+00 0.12502333E+03</pdfrwt>
<totfact> 0.29101165E+03</totfact>
</mgrwt>
</event>
<event>
 5    1  0.3422688E-002  0.1250002E+03  0.7818608E-02  0.1235069E+00
          4   -1    0    0  501    0  0.00000000000E+00  0.00000000000E+00  0.22678424046E+02  0.22713956441E+02  0.12700000000E+01 0.  1.
         -4   -1    0    0    0  501 -0.00000000000E+00 -0.00000000000E+00 -0.17207312472E+03  0.17207781132E+03  0.12700000000E+01 0.  1.
         25    2    1    2    0    0  0.00000000000E+00  0.00000000000E+00 -0.14939470067E+03  0.19479176776E+03  0.12500022480E+03 0.  0.
    9000005    1    3    3    0    0  0.19612820115E+02  0.46401024849E+02 -0.13232498751E+03  0.14159315004E+03  0.10000000000E+01 0.  0.
    9000005    1    3    3    0    0 -0.19612820115E+02 -0.46401024849E+02 -0.17069713159E+02  0.53198617719E+02  0.10000000000E+01 0.  0.
<mgrwt>
<rscale>  0 0.12500022E+03</rscale>
<asrwt>0</asrwt>
<pdfrwt beam="1">  1        4 0.34920822E-02 0.12500022E+03</pdfrwt>
<pdfrwt beam="2">  1       -4 0.26475881E-01 0.12500022E+03</pdfrwt>
<totfact> 0.91019725E+03</totfact>
</mgrwt>
</event>
<event>
 5    1  0.3422688E-002  0.1250196E+03  0.7818608E-02  0.1235039E+00
          4   -1    0    0  501    0  0.00000000000E+00  0.00000000000E+00  0.12948293558E+03  0.12948916367E+03  0.12700000000E+01 0. -1.
         -4   -1    0    0    0  501 -0.00000000000E+00 -0.00000000000E+00 -0.30157230933E+02  0.30183960601E+02  0.12700000000E+01 0. -1.
         25    2    1    2    0    0  0.00000000000E+00  0.00000000000E+00  0.99325704652E+02  0.15967312427E+03  0.12501964249E+03 0.  0.
    9000005    1    3    3    0    0  0.48854152261E+02 -0.30970181246E+02  0.79902666825E+02  0.98647435270E+02  0.10000000000E+01 0.  0.
    9000005    1    3    3    0    0 -0.48854152261E+02  0.30970181246E+02  0.19423037827E+02  0.61025689000E+02  0.10000000000E+01 0.  0.
<mgrwt>
<rscale>  0 0.12501964E+03</rscale>
<asrwt>0</asrwt>
<pdfrwt beam="1">  1        4 0.19922986E-01 0.12501964E+03</pdfrwt>
<pdfrwt beam="2">  1       -4 0.46421093E-02 0.12501964E+03</pdfrwt>
<totfact> 0.97362846E+03</totfact>
</mgrwt>
</event>
<event>
 5    1  0.3422688E-002  0.1250004E+03  0.7818608E-02  0.1235069E+00
          4   -1    0    0  501    0  0.00000000000E+00  0.00000000000E+00  0.19813207480E+02  0.19853868405E+02  0.12700000000E+01 0.  1.
         -4   -1    0    0    0  501 -0.00000000000E+00 -0.00000000000E+00 -0.19691018984E+03  0.19691428532E+03  0.12700000000E+01 0.  1.
         25    2    1    2    0    0  0.00000000000E+00  0.00000000000E+00 -0.17709698236E+03  0.21676815373E+03  0.12500036523E+03 0.  0.
    9000005    1    3    3    0    0  0.90499855713E+01  0.41778300904E+02 -0.16759835629E+03  0.17296686879E+03  0.10000000000E+01 0.  0.
    9000005    1    3    3    0    0 -0.90499855713E+01 -0.41778300904E+02 -0.94986260677E+01  0.43801284941E+02  0.10000000000E+01 0.  0.
<mgrwt>
<rscale>  0 0.12500037E+03</rscale>
<asrwt>0</asrwt>
<pdfrwt beam="1">  1        4 0.30516287E-02 0.12500037E+03</pdfrwt>
<pdfrwt beam="2">  1       -4 0.30297317E-01 0.12500037E+03</pdfrwt>
<totfact> 0.87381632E+03</totfact>
</mgrwt>
</event>
<event>
 5    1  0.3422688E-002  0.1250438E+03  0.7818608E-02  0.1235001E+00
         -4   -1    0    0    0  501 -0.00000000000E+00  0.00000000000E+00  0.15259769544E+02  0.15312526458E+02  0.12700000000E+01 0. -1.
          4   -1    0    0  501    0  0.00000000000E+00 -0.00000000000E+00 -0.25566670602E+03  0.25566986030E+03  0.12700000000E+01 0. -1.
         25    2    1    2    0    0  0.00000000000E+00  0.00000000000E+00 -0.24040693647E+03  0.27098238676E+03  0.12504382763E+03 0.  0.
    9000005    1    3    3    0    0  0.13931502512E+02  0.34645981244E+02 -0.22885186951E+03  0.23188059203E+03  0.10000000000E+01 0.  0.
    9000005    1    3    3    0    0 -0.13931502512E+02 -0.34645981244E+02 -0.11555066958E+02  0.39101794729E+02  0.10000000000E+01 0.  0.
<mgrwt>
<rscale>  0 0.12504383E+03</rscale>
<asrwt>0</asrwt>
<pdfrwt beam="2">  1        4 0.39337637E-01 0.12504383E+03</pdfrwt>
<pdfrwt beam="1">  1       -4 0.23519579E-02 0.12504383E+03</pdfrwt>
<totfact> 0.79311782E+03</totfact>
</mgrwt>
</event>
<event>
 4    1  0.3422688E-002  0.1248720E+03  0.7818608E-02  0.1235269E+00
          4   -1    0    0  501    0  0.00000000000E+00  0.00000000000E+00  0.16704306574E+03  0.16704789346E+03  0.12700000000E+01 0.  1.
         -4   -1    0    0    0  501 -0.00000000000E+00 -0.00000000000E+00 -0.23314370572E+02  0.23348935205E+02  0.12700000000E+01 0.  1.
    9000005    1    1    2    0    0  0.17380353148E+02  0.43874393507E+01 -0.19313431829E+02  0.26369204550E+02  0.10000000000E+01 0.  0.
    9000005    1    1    2    0    0 -0.17380353148E+02 -0.43874393507E+01  0.16304212699E+03  0.16402762412E+03  0.10000000000E+01 0.  0.
<mgrwt>
<rscale>  0 0.12487199E+03</rscale>
<asrwt>0</asrwt>
<pdfrwt beam="1">  1        4 0.25701962E-01 0.12487199E+03</pdfrwt>
<pdfrwt beam="2">  1       -4 0.35898566E-02 0.12487199E+03</pdfrwt>
<totfact> 0.92041961E+03</totfact>
</mgrwt>
</event>
<event>
 5    1  0.3422688E-002  0.1249786E+03  0.7818608E-02  0.1235103E+00
         -4   -1    0    0    0  501 -0.00000000000E+00  0.00000000000E+00  0.59379608566E+03  0.59379744378E+03  0.12700000000E+01 0. -1.
          4   -1    0    0  501    0  0.00000000000E+00 -0.00000000000E+00 -0.65134926258E+01  0.66361499520E+01  0.12700000000E+01 0. -1.
         25    2    1    2    0    0  0.00000000000E+00  0.00000000000E+00  0.58728259303E+03  0.60043359373E+03  0.12497862380E+03 0.  0.
    9000005    1    3    3    0    0 -0.40069975086E+02  0.28774045933E+02  0.10941912662E+03  0.12002955425E+03  0.10000000000E+01 0.  0.
    9000005    1    3    3    0    0  0.40069975086E+02 -0.28774045933E+02  0.47786346642E+03  0.48040403949E+03  0.10000000000E+01 0.  0.
<mgrwt>
<rscale>  0 0.12497862E+03</rscale>
<asrwt>0</asrwt>
<pdfrwt beam="2">  1        4 0.10116155E-02 0.12497862E+03</pdfrwt>
<pdfrwt beam="1">  1       -4 0.91362782E-01 0.12497862E+03</pdfrwt>
<totfact> 0.48863152E+03</totfact>
</mgrwt>
</event>
<event>
 5    1  0.3422688E-002  0.1249935E+03  0.7818608E-02  0.1235079E+00
         -4   -1    0    0    0  501 -0.00000000000E+00  0.00000000000E+00  0.29044411609E+02  0.29072164448E+02  0.12700000000E+01 0.  1.
          4   -1    0    0  501    0  0.00000000000E+00 -0.00000000000E+00 -0.13438330340E+03  0.13438930439E+03  0.12700000000E+01 0.  1.
         25    2    1    2    0    0  0.00000000000E+00  0.00000000000E+00 -0.10533889179E+03  0.16346146883E+03  0.12499347851E+03 0.  0.
    9000005    1    3    3    0    0  0.23279685060E+02  0.49639339043E+02 -0.13462053627E+02  0.56464454349E+02  0.10000000000E+01 0.  0.
    9000005    1    3    3    0    0 -0.23279685060E+02 -0.49639339043E+02 -0.91876838167E+02  0.10699701448E+03  0.10000000000E+01 0.  0.
<mgrwt>
<rscale>  0 0.12499348E+03</rscale>
<asrwt>0</asrwt>
<pdfrwt beam="2">  1        4 0.20676950E-01 0.12499348E+03</pdfrwt>
<pdfrwt beam="1">  1       -4 0.44709676E-02 0.12499348E+03</pdfrwt>
<totfact> 0.96693729E+03</totfact>
</mgrwt>
</event>
<event>
 5    1  0.3422688E-002  0.1250013E+03  0.7818608E-02  0.1235067E+00
         -4   -1    0    0    0  501 -0.00000000000E+00  0.00000000000E+00  0.96449976522E+03  0.96450060135E+03  0.12700000000E+01 0. -1.
          4   -1    0    0  501    0  0.00000000000E+00 -0.00000000000E+00 -0.39496954844E+01  0.41488545913E+01  0.12700000000E+01 0. -1.
         25    2    1    2    0    0  0.00000000000E+00  0.00000000000E+00  0.96055006974E+03  0.96864945595E+03  0.12500132812E+03 0.  0.
    9000005    1    3    3    0    0  0.19462386311E+01 -0.25733518082E+02  0.39233298567E+02  0.46970772978E+02  0.10000000000E+01 0.  0.
    9000005    1    3    3    0    0 -0.19462386311E+01  0.25733518082E+02  0.92131677117E+03  0.92167868297E+03  0.10000000000E+01 0.  0.
<mgrwt>
<rscale>  0 0.12500133E+03</rscale>
<asrwt>0</asrwt>
<pdfrwt beam="2">  1        4 0.62302953E-03 0.12500133E+03</pdfrwt>
<pdfrwt beam="1">  1       -4 0.14840000E+00 0.12500133E+03</pdfrwt>
<totfact> 0.31662032E+03</totfact>
</mgrwt>
</event>
<event>
 5    1  0.3422688E-002  0.1250000E+03  0.7818608E-02  0.1235069E+00
          4   -1    0    0  501    0  0.00000000000E+00  0.00000000000E+00  0.22370746820E+02  0.22406767131E+02  0.12700000000E+01 0. -1.
         -4   -1    0    0    0  501 -0.00000000000E+00 -0.00000000000E+00 -0.17443546311E+03  0.17444008625E+03  0.12700000000E+01 0. -1.
         25    2    1    2    0    0  0.00000000000E+00  0.00000000000E+00 -0.15206471629E+03  0.19684685338E+03  0.12500002298E+03 0.  0.
    9000005    1    3    3    0    0 -0.29278760518E+02 -0.34653948011E+02 -0.14371303694E+03  0.15070693056E+03  0.10000000000E+01 0.  0.
    9000005    1    3    3    0    0  0.29278760518E+02  0.34653948011E+02 -0.83516793463E+01  0.46139922823E+02  0.10000000000E+01 0.  0.
<mgrwt>
<rscale>  0 0.12500002E+03</rscale>
<asrwt>0</asrwt>
<pdfrwt beam="1">  1        4 0.34447799E-02 0.12500002E+03</pdfrwt>
<pdfrwt beam="2">  1       -4 0.26839351E-01 0.12500002E+03</pdfrwt>
<totfact> 0.90669397E+03</totfact>
</mgrwt>
</event>
<event>
 5    1  0.3422688E-002  0.1250016E+03  0.7818608E-02  0.1235067E+00
         -4   -1    0    0    0  501 -0.00000000000E+00  0.00000000000E+00  0.27173524534E+01  0.29994840149E+01  0.12700000000E+01 0. -1.
          4   -1    0    0  501    0  0.00000000000E+00 -0.00000000000E+00 -0.13663304262E+04  0.13663310164E+04  0.12700000000E+01 0. -1.
         25    2    1    2    0    0  0.00000000000E+00  0.00000000000E+00 -0.13636130738E+04  0.13693305005E+04  0.12500161822E+03 0.  0.
    9000005    1    3    3    0    0  0.27598507793E+02  0.15345531172E+01 -0.12957786463E+04  0.12960738145E+04  0.10000000000E+01 0.  0.
    9000005    1    3    3    0    0 -0.27598507793E+02 -0.15345531172E+01 -0.67834427484E+02  0.73256685959E+02  0.10000000000E+01 0.  0.
<mgrwt>
<rscale>  0 0.12500162E+03</rscale>
<asrwt>0</asrwt>
<pdfrwt beam="2">  1        4 0.21022591E+00 0.12500162E+03</pdfrwt>
<pdfrwt beam="1">  1       -4 0.43980314E-03 0.12500162E+03</pdfrwt>
<totfact> 0.20648108E+03</totfact>
</mgrwt>
</event>
<event>
 5    1  0.3422688E-002  0.1250035E+03  0.7818608E-02  0.1235064E+00
          4   -1    0    0  501    0  0.00000000000E+00  0.00000000000E+00  0.28427406602E+03  0.28427690288E+03  0.12700000000E+01 0.  1.
         -4   -1    0    0    0  501 -0.00000000000E+00 -0.00000000000E+00 -0.13709666406E+02  0.13768364208E+02  0.12700000000E+01 0.  1.
         25    2    1    2    0    0  0.00000000000E+00  0.00000000000E+00  0.27056439961E+03  0.29804526709E+03  0.12500354753E+03 0.  0.
    9000005    1    3    3    0    0  0.11450320814E+02 -0.43502299205E+02  0.31849102725E+02  0.55126447621E+02  0.10000000000E+01 0.  0.
    9000005    1    3    3    0    0 -0.11450320814E+02  0.43502299205E+02  0.23871529689E+03  0.24291881947E+03  0.10000000000E+01 0.  0.
<mgrwt>
<rscale>  0 0.12500355E+03</rscale>
<asrwt>0</asrwt>
<pdfrwt beam="1">  1        4 0.43739201E-01 0.12500355E+03</pdfrwt>
<pdfrwt beam="2">  1       -4 0.21139131E-02 0.12500355E+03</pdfrwt>
<totfact> 0.75838721E+03</totfact>
</mgrwt>
</event>
<event>
 5    1  0.3422688E-002  0.1250004E+03  0.7818608E-02  0.1235069E+00
          4   -1    0    0  501    0  0.00000000000E+00  0.00000000000E+00  0.77730101363E+03  0.77730205113E+03  0.12700000000E+01 0.  1.
         -4   -1    0    0    0  501 -0.00000000000E+00 -0.00000000000E+00 -0.49441394788E+01  0.51046464311E+01  0.12700000000E+01 0.  1.
         25    2    1    2    0    0  0.00000000000E+00  0.00000000000E+00  0.77235687415E+03  0.78240669756E+03  0.12500039736E+03 0.  0.
    9000005    1    3    3    0    0 -0.78754006543E+01  0.31689295182E+02  0.52669839566E+02  0.61978587952E+02  0.10000000000E+01 0.  0.
    9000005    1    3    3    0    0  0.78754006543E+01 -0.31689295182E+02  0.71968703458E+03  0.72042810961E+03  0.10000000000E+01 0.  0.
<mgrwt>
<rscale>  0 0.12500040E+03</rscale>
<asrwt>0</asrwt>
<pdfrwt beam="1">  1        4 0.11959724E+00 0.12500040E+03</pdfrwt>
<pdfrwt beam="2">  1       -4 0.77306304E-03 0.12500040E+03</pdfrwt>
<totfact> 0.39061952E+03</totfact>
</mgrwt>
</event>
<event>
 5    1  0.3422688E-002  0.1250021E+03  0.7818608E-02  0.1235066E+00
          4   -1    0    0  501    0  0.00000000000E+00  0.00000000000E+00  0.72200957511E+01  0.73309400936E+01  0.12700000000E+01 0. -1.
         -4   -1    0    0    0  501 -0.00000000000E+00 -0.00000000000E+00 -0.53680984713E+03  0.53681134943E+03  0.12700000000E+01 0. -1.
         25    2    1    2    0    0  0.00000000000E+00  0.00000000000E+00 -0.52958975138E+03  0.54414228952E+03  0.12500210591E+03 0.  0.
    9000005    1    3    3    0    0  0.64924422584E+01 -0.52790638398E+02 -0.40761112363E+03  0.41106791582E+03  0.10000000000E+01 0.  0.
    9000005    1    3    3    0    0 -0.64924422584E+01  0.52790638398E+02 -0.12197862775E+03  0.13307437370E+03  0.10000000000E+01 0.  0.
<mgrwt>
<rscale>  0 0.12500211E+03</rscale>
<asrwt>0</asrwt>
<pdfrwt beam="1">  1        4 0.11194264E-02 0.12500211E+03</pdfrwt>
<pdfrwt beam="2">  1       -4 0.82594741E-01 0.12500211E+03</pdfrwt>
<totfact> 0.52592652E+03</totfact>
</mgrwt>
</event>
<event>
 5    1  0.3422688E-002  0.1249968E+03  0.7818608E-02  0.1235074E+00
          4   -1    0    0  501    0  0.00000000000E+00  0.00000000000E+00  0.44793450783E+03  0.44793630820E+03  0.12700000000E+01 0.  1.
         -4   -1    0    0    0  501 -0.00000000000E+00 -0.00000000000E+00 -0.86720729971E+01  0.87645735816E+01  0.12700000000E+01 0.  1.
         25    2    1    2    0    0  0.00000000000E+00  0.00000000000E+00  0.43926243484E+03  0.45670088179E+03  0.12499683502E+03 0.  0.
    9000005    1    3    3    0    0 -0.31122933018E+02 -0.10680771818E+02  0.41373643872E+03  0.41504404172E+03  0.10000000000E+01 0.  0.
    9000005    1    3    3    0    0  0.31122933018E+02  0.10680771818E+02  0.25525996119E+02  0.41656840065E+02  0.10000000000E+01 0.  0.
<mgrwt>
<rscale>  0 0.12499684E+03</rscale>
<asrwt>0</asrwt>
<pdfrwt beam="1">  1        4 0.68920257E-01 0.12499684E+03</pdfrwt>
<pdfrwt beam="2">  1       -4 0.13414190E-02 0.12499684E+03</pdfrwt>
<totfact> 0.59391799E+03</totfact>
</mgrwt>
</event>
<event>
 5    1  0.3422688E-002  0.1250046E+03  0.7818608E-02  0.1235062E+00
          4   -1    0    0  501    0  0.00000000000E+00  0.00000000000E+00  0.28391640087E+02  0.28420030380E+02  0.12700000000E+01 0. -1.
         -4   -1    0    0    0  501 -0.00000000000E+00 -0.00000000000E+00 -0.13749464438E+03  0.13750050957E+03  0.12700000000E+01 0. -1.
         25    2    1    2    0    0  0.00000000000E+00  0.00000000000E+00 -0.10910300429E+03  0.16592053995E+03  0.12500464004E+03 0.  0.
    9000005    1    3    3    0    0 -0.11599986545E+02 -0.60777331208E+02 -0.42897076504E+02  0.75296765198E+02  0.10000000000E+01 0.  0.
    9000005    1    3    3    0    0  0.11599986545E+02  0.60777331208E+02 -0.66205927786E+02  0.90623774754E+02  0.10000000000E+01 0.  0.
<mgrwt>
<rscale>  0 0.12500464E+03</rscale>
<asrwt>0</asrwt>
<pdfrwt beam="1">  1        4 0.43705797E-02 0.12500464E+03</pdfrwt>
<pdfrwt beam="2">  1       -4 0.21155657E-01 0.12500464E+03</pdfrwt>
<totfact> 0.96203313E+03</totfact>
</mgrwt>
</event>
<event>
 5    1  0.3422688E-002  0.1249993E+03  0.7818608E-02  0.1235070E+00
          4   -1    0    0  501    0  0.00000000000E+00  0.00000000000E+00  0.70321449789E+02  0.70332916906E+02  0.12700000000E+01 0.  1.
         -4   -1    0    0    0  501 -0.00000000000E+00 -0.00000000000E+00 -0.55524572365E+02  0.55539094666E+02  0.12700000000E+01 0.  1.
         25    2    1    2    0    0  0.00000000000E+00  0.00000000000E+00  0.14796877425E+02  0.12587201157E+03  0.12499926286E+03 0.  0.
    9000005    1    3    3    0    0 -0.47999886081E+02  0.38006720106E+02  0.20003991323E+02  0.64417850833E+02  0.10000000000E+01 0.  0.
    9000005    1    3    3    0    0  0.47999886081E+02 -0.38006720106E+02 -0.52071138986E+01  0.61454160739E+02  0.10000000000E+01 0.  0.
<mgrwt>
<rscale>  0 0.12499926E+03</rscale>
<asrwt>0</asrwt>
<pdfrwt beam="1">  1        4 0.10820684E-01 0.12499926E+03</pdfrwt>
<pdfrwt beam="2">  1       -4 0.85442411E-02 0.12499926E+03</pdfrwt>
<totfact> 0.10433937E+04</totfact>
</mgrwt>
</event>
<event>
 5    1  0.3422688E-002  0.1249944E+03  0.7818608E-02  0.1235078E+00
          4   -1    0    0  501    0  0.00000000000E+00  0.00000000000E+00  0.10637557783E+04  0.10637565364E+04  0.12700000000E+01 0.  1.
         -4   -1    0    0    0  501 -0.00000000000E+00 -0.00000000000E+00 -0.35612016454E+01  0.37808804741E+01  0.12700000000E+01 0.  1.
         25    2    1    2    0    0  0.00000000000E+00  0.00000000000E+00  0.10601945766E+04  0.10675374168E+04  0.12499438424E+03 0.  0.
    9000005    1    3    3    0    0  0.50730416311E+02  0.76686010212E+01  0.22543106733E+03  0.23119807244E+03  0.10000000000E+01 0.  0.
    9000005    1    3    3    0    0 -0.50730416311E+02 -0.76686010212E+01  0.83476350927E+03  0.83633934440E+03  0.10000000000E+01 0.  0.
<mgrwt>
<rscale>  0 0.12499438E+03</rscale>
<asrwt>0</asrwt>
<pdfrwt beam="1">  1        4 0.16367172E+00 0.12499438E+03</pdfrwt>
<pdfrwt beam="2">  1       -4 0.56483376E-03 0.12499438E+03</pdfrwt>
<totfact> 0.28456921E+03</totfact>
</mgrwt>
</event>
<event>
 5    1  0.3422688E-002  0.1249988E+03  0.7818608E-02  0.1235071E+00
          4   -1    0    0  501    0  0.00000000000E+00  0.00000000000E+00  0.14153537660E+04  0.14153543358E+04  0.12700000000E+01 0.  1.
         -4   -1    0    0    0  501 -0.00000000000E+00 -0.00000000000E+00 -0.26131550780E+01  0.29054224240E+01  0.12700000000E+01 0.  1.
         25    2    1    2    0    0  0.00000000000E+00  0.00000000000E+00  0.14127406109E+04  0.14182597582E+04  0.12499883204E+03 0.  0.
    9000005    1    3    3    0    0 -0.55982509885E+02 -0.24542956337E+02  0.85377417377E+03  0.85596012636E+03  0.10000000000E+01 0.  0.
    9000005    1    3    3    0    0  0.55982509885E+02  0.24542956337E+02  0.55896643712E+03  0.56229963182E+03  0.10000000000E+01 0.  0.
<mgrwt>
<rscale>  0 0.12499883E+03</rscale>
<asrwt>0</asrwt>
<pdfrwt beam="1">  1        4 0.21776931E+00 0.12499883E+03</pdfrwt>
<pdfrwt beam="2">  1       -4 0.42454970E-03 0.12499883E+03</pdfrwt>
<totfact> 0.19592933E+03</totfact>
</mgrwt>
</event>
<event>
 5    1  0.3422688E-002  0.1249989E+03  0.7818608E-02  0.1235071E+00
          4   -1    0    0  501    0  0.00000000000E+00  0.00000000000E+00  0.19800855253E+03  0.19801262529E+03  0.12700000000E+01 0. -1.
         -4   -1    0    0    0  501 -0.00000000000E+00 -0.00000000000E+00 -0.19702621347E+02  0.19743510021E+02  0.12700000000E+01 0. -1.
         25    2    1    2    0    0  0.00000000000E+00  0.00000000000E+00  0.17830593118E+03  0.21775613531E+03  0.12499891748E+03 0.  0.
    9000005    1    3    3    0    0  0.19195528739E+02  0.59459587896E+02  0.87188656724E+02  0.10726962654E+03  0.10000000000E+01 0.  0.
    9000005    1    3    3    0    0 -0.19195528739E+02 -0.59459587896E+02  0.91117274456E+02  0.11048650877E+03  0.10000000000E+01 0.  0.
<mgrwt>
<rscale>  0 0.12499892E+03</rscale>
<asrwt>0</asrwt>
<pdfrwt beam="1">  1        4 0.30466312E-01 0.12499892E+03</pdfrwt>
<pdfrwt beam="2">  1       -4 0.30346312E-02 0.12499892E+03</pdfrwt>
<totfact> 0.87226771E+03</totfact>
</mgrwt>
</event>
<event>
 5    1  0.3422688E-002  0.1250017E+03  0.7818608E-02  0.1235067E+00
          4   -1    0    0  501    0  0.00000000000E+00  0.00000000000E+00  0.15164725515E+03  0.15165257299E+03  0.12700000000E+01 0. -1.
         -4   -1    0    0    0  501 -0.00000000000E+00 -0.00000000000E+00 -0.25738070343E+02  0.25769384257E+02  0.12700000000E+01 0. -1.
         25    2    1    2    0    0  0.00000000000E+00  0.00000000000E+00  0.12590918480E+03  0.17742195724E+03  0.12500171237E+03 0.  0.
    9000005    1    3    3    0    0  0.55737682453E+02  0.26927907833E+02  0.75127635257E+02  0.97349694632E+02  0.10000000000E+01 0.  0.
    9000005    1    3    3    0    0 -0.55737682453E+02 -0.26927907833E+02  0.50781549546E+02  0.80072262612E+02  0.10000000000E+01 0.  0.
<mgrwt>
<rscale>  0 0.12500171E+03</rscale>
<asrwt>0</asrwt>
<pdfrwt beam="1">  1        4 0.23333165E-01 0.12500171E+03</pdfrwt>
<pdfrwt beam="2">  1       -4 0.39625209E-02 0.12500171E+03</pdfrwt>
<totfact> 0.94079514E+03</totfact>
</mgrwt>
</event>
<event>
 5    1  0.3422688E-002  0.1250073E+03  0.7818608E-02  0.1235058E+00
         -4   -1    0    0    0  501 -0.00000000000E+00  0.00000000000E+00  0.14015145701E+03  0.14015721102E+03  0.12700000000E+01 0.  1.
          4   -1    0    0  501    0  0.00000000000E+00 -0.00000000000E+00 -0.27854112968E+02  0.27883050572E+02  0.12700000000E+01 0.  1.
         25    2    1    2    0    0  0.00000000000E+00  0.00000000000E+00  0.11229734404E+03  0.16804026160E+03  0.12500734394E+03 0.  0.
    9000005    1    3    3    0    0  0.29895496224E+01 -0.73578785744E+01  0.13947692717E+03  0.13970643864E+03  0.10000000000E+01 0.  0.
    9000005    1    3    3    0    0 -0.29895496224E+01  0.73578785744E+01 -0.27179583131E+02  0.28333822955E+02  0.10000000000E+01 0.  0.
<mgrwt>
<rscale>  0 0.12500734E+03</rscale>
<asrwt>0</asrwt>
<pdfrwt beam="2">  1        4 0.42879167E-02 0.12500734E+03</pdfrwt>
<pdfrwt beam="1">  1       -4 0.21564431E-01 0.12500734E+03</pdfrwt>
<totfact> 0.95798892E+03</totfact>
</mgrwt>
</event>
<event>
 5    1  0.3422688E-002  0.1249892E+03  0.7818608E-02  0.1235086E+00
         -4   -1    0    0    0  501 -0.00000000000E+00  0.00000000000E+00  0.36729353660E+03  0.36729573225E+03  0.12700000000E+01 0.  1.
          4   -1    0    0  501    0  0.00000000000E+00 -0.00000000000E+00 -0.10593231588E+02  0.10669088783E+02  0.12700000000E+01 0.  1.
         25    2    1    2    0    0  0.00000000000E+00  0.00000000000E+00  0.35670030501E+03  0.37796482103E+03  0.12498919290E+03 0.  0.
    9000005    1    3    3    0    0  0.39014315499E+02 -0.36662847125E+01  0.31165365102E+02  0.50078323049E+02  0.10000000000E+01 0.  0.
    9000005    1    3    3    0    0 -0.39014315499E+02  0.36662847125E+01  0.32553493991E+03  0.32788649798E+03  0.10000000000E+01 0.  0.
<mgrwt>
<rscale>  0 0.12498919E+03</rscale>
<asrwt>0</asrwt>
<pdfrwt beam="2">  1        4 0.16357320E-02 0.12498919E+03</pdfrwt>
<pdfrwt beam="1">  1       -4 0.56512703E-01 0.12498919E+03</pdfrwt>
<totfact> 0.66769761E+03</totfact>
</mgrwt>
</event>
<event>
 5    1  0.3422688E-002  0.1250052E+03  0.7818608E-02  0.1235061E+00
         -4   -1    0    0    0  501 -0.00000000000E+00  0.00000000000E+00  0.60468432628E+01  0.61787711922E+01  0.12700000000E+01 0.  1.
          4   -1    0    0  501    0  0.00000000000E+00 -0.00000000000E+00 -0.63894738311E+03  0.63894864526E+03  0.12700000000E+01 0.  1.
         25    2    1    2    0    0  0.00000000000E+00  0.00000000000E+00 -0.63290053984E+03  0.64512741645E+03  0.12500516039E+03 0.  0.
    9000005    1    3    3    0    0 -0.61034309722E+02 -0.90931193054E+01 -0.26543895678E+03  0.27251919484E+03  0.10000000000E+01 0.  0.
    9000005    1    3    3    0    0  0.61034309722E+02  0.90931193054E+01 -0.36746158307E+03  0.37260822161E+03  0.10000000000E+01 0.  0.
<mgrwt>
<rscale>  0 0.12500516E+03</rscale>
<asrwt>0</asrwt>
<pdfrwt beam="2">  1        4 0.98309790E-01 0.12500516E+03</pdfrwt>
<pdfrwt beam="1">  1       -4 0.94052947E-03 0.12500516E+03</pdfrwt>
<totfact> 0.46132239E+03</totfact>
</mgrwt>
</event>
<event>
 5    1  0.3422688E-002  0.1250017E+03  0.7818608E-02  0.1235067E+00
          4   -1    0    0  501    0  0.00000000000E+00  0.00000000000E+00  0.15096481196E+02  0.15149806748E+02  0.12700000000E+01 0.  1.
         -4   -1    0    0    0  501 -0.00000000000E+00 -0.00000000000E+00 -0.25824823438E+03  0.25825135713E+03  0.12700000000E+01 0.  1.
         25    2    1    2    0    0  0.00000000000E+00  0.00000000000E+00 -0.24315175319E+03  0.27340116388E+03  0.12500168533E+03 0.  0.
    9000005    1    3    3    0    0 -0.54983928209E+02  0.15154012743E+01 -0.56700033063E+02  0.79002674332E+02  0.10000000000E+01 0.  0.
    9000005    1    3    3    0    0  0.54983928209E+02 -0.15154012743E+01 -0.18645172012E+03  0.19439848955E+03  0.10000000000E+01 0.  0.
<mgrwt>
<rscale>  0 0.12500169E+03</rscale>
<asrwt>0</asrwt>
<pdfrwt beam="1">  1        4 0.23268779E-02 0.12500169E+03</pdfrwt>
<pdfrwt beam="2">  1       -4 0.39734837E-01 0.12500169E+03</pdfrwt>
<totfact> 0.79058316E+03</totfact>
</mgrwt>
</event>
<event>
 5    1  0.3422688E-002  0.1249993E+03  0.7818608E-02  0.1235070E+00
         -4   -1    0    0    0  501 -0.00000000000E+00  0.00000000000E+00  0.12663801993E+02  0.12727324185E+02  0.12700000000E+01 0.  1.
          4   -1    0    0  501    0  0.00000000000E+00 -0.00000000000E+00 -0.30761771921E+03  0.30762034080E+03  0.12700000000E+01 0.  1.
         25    2    1    2    0    0  0.00000000000E+00  0.00000000000E+00 -0.29495391722E+03  0.32034766498E+03  0.12499925271E+03 0.  0.
    9000005    1    3    3    0    0 -0.45926656804E+02  0.13642469989E+02 -0.25030319785E+03  0.25484910368E+03  0.10000000000E+01 0.  0.
    9000005    1    3    3    0    0  0.45926656804E+02 -0.13642469989E+02 -0.44650719365E+02  0.65498561300E+02  0.10000000000E+01 0.  0.
<mgrwt>
<rscale>  0 0.12499925E+03</rscale>
<asrwt>0</asrwt>
<pdfrwt beam="2">  1        4 0.47330885E-01 0.12499925E+03</pdfrwt>
<pdfrwt beam="1">  1       -4 0.19533654E-02 0.12499925E+03</pdfrwt>
<totfact> 0.73116008E+03</totfact>
</mgrwt>
</event>
<event>
 5    1  0.3422688E-002  0.1250026E+03  0.7818608E-02  0.1235065E+00
         -4   -1    0    0    0  501 -0.00000000000E+00  0.00000000000E+00  0.39287595420E+02  0.39308116896E+02  0.12700000000E+01 0. -1.
          4   -1    0    0  501    0  0.00000000000E+00 -0.00000000000E+00 -0.99380640125E+02  0.99388754553E+02  0.12700000000E+01 0. -1.
         25    2    1    2    0    0  0.00000000000E+00  0.00000000000E+00 -0.60093044705E+02  0.13869687145E+03  0.12500259248E+03 0.  0.
    9000005    1    3    3    0    0  0.45115718608E+02  0.39944270774E+02 -0.48427589269E+02  0.77312380869E+02  0.10000000000E+01 0.  0.
    9000005    1    3    3    0    0 -0.45115718608E+02 -0.39944270774E+02 -0.11665455435E+02  0.61384490579E+02  0.10000000000E+01 0.  0.
<mgrwt>
<rscale>  0 0.12500259E+03</rscale>
<asrwt>0</asrwt>
<pdfrwt beam="2">  1        4 0.15291532E-01 0.12500259E+03</pdfrwt>
<pdfrwt beam="1">  1       -4 0.60464483E-02 0.12500259E+03</pdfrwt>
<totfact> 0.10160072E+04</totfact>
</mgrwt>
</event>
<event>
 5    1  0.3422688E-002  0.1249965E+03  0.7818608E-02  0.1235075E+00
         -4   -1    0    0    0  501 -0.00000000000E+00  0.00000000000E+00  0.20082559806E+03  0.20082961370E+03  0.12700000000E+01 0.  1.
          4   -1    0    0  501    0  0.00000000000E+00 -0.00000000000E+00 -0.19424918374E+02  0.19466390365E+02  0.12700000000E+01 0.  1.
         25    2    1    2    0    0  0.00000000000E+00  0.00000000000E+00  0.18140067969E+03  0.22029600406E+03  0.12499649121E+03 0.  0.
    9000005    1    3    3    0    0  0.45801902861E+02 -0.33469726245E+02  0.44506377755E+02  0.72110016928E+02  0.10000000000E+01 0.  0.
    9000005    1    3    3    0    0 -0.45801902861E+02  0.33469726245E+02  0.13689430194E+03  0.14818598713E+03  0.10000000000E+01 0.  0.
<mgrwt>
<rscale>  0 0.12499649E+03</rscale>
<asrwt>0</asrwt>
<pdfrwt beam="2">  1        4 0.29919481E-02 0.12499649E+03</pdfrwt>
<pdfrwt beam="1">  1       -4 0.30899744E-01 0.12499649E+03</pdfrwt>
<totfact> 0.86828337E+03</totfact>
</mgrwt>
</event>
<event>
 5    1  0.3422688E-002  0.1249967E+03  0.7818608E-02  0.1235074E+00
         -4   -1    0    0    0  501 -0.00000000000E+00  0.00000000000E+00  0.25619732025E+03  0.25620046800E+03  0.12700000000E+01 0. -1.
          4   -1    0    0  501    0  0.00000000000E+00 -0.00000000000E+00 -0.15216536021E+02  0.15269442311E+02  0.12700000000E+01 0. -1.
         25    2    1    2    0    0  0.00000000000E+00  0.00000000000E+00  0.24098078423E+03  0.27146991032E+03  0.12499669530E+03 0.  0.
    9000005    1    3    3    0    0  0.46323996789E+02 -0.30322146434E+01  0.21134235349E+03  0.21638321881E+03  0.10000000000E+01 0.  0.
    9000005    1    3    3    0    0 -0.46323996789E+02  0.30322146434E+01  0.29638430746E+02  0.55086691508E+02  0.10000000000E+01 0.  0.
<mgrwt>
<rscale>  0 0.12499670E+03</rscale>
<asrwt>0</asrwt>
<pdfrwt beam="2">  1        4 0.23453173E-02 0.12499670E+03</pdfrwt>
<pdfrwt beam="1">  1       -4 0.39419286E-01 0.12499670E+03</pdfrwt>
<totfact> 0.79328717E+03</totfact>
</mgrwt>
</event>
<event>
 5    1  0.3422688E-002  0.1249946E+03  0.7818608E-02  0.1235078E+00
          4   -1    0    0  501    0  0.00000000000E+00  0.00000000000E+00  0.91559040989E+02  0.91567848543E+02  0.12700000000E+01 0. -1.
         -4   -1    0    0    0  501 -0.00000000000E+00 -0.00000000000E+00 -0.42639711520E+02  0.42658620448E+02  0.12700000000E+01 0. -1.
         25    2    1    2    0    0  0.00000000000E+00  0.00000000000E+00  0.48919329468E+02  0.13422646899E+03  0.12499457661E+03 0.  0.
    9000005    1    3    3    0    0  0.58492229597E+02  0.20935300336E+02  0.17233362258E+02  0.64479582025E+02  0.10000000000E+01 0.  0.
    9000005    1    3    3    0    0 -0.58492229597E+02 -0.20935300336E+02  0.31685967211E+02  0.69746886966E+02  0.10000000000E+01 0.  0.
<mgrwt>
<rscale>  0 0.12499458E+03</rscale>
<asrwt>0</asrwt>
<pdfrwt beam="1">  1        4 0.14088138E-01 0.12499458E+03</pdfrwt>
<pdfrwt beam="2">  1       -4 0.65620878E-02 0.12499458E+03</pdfrwt>
<totfact> 0.10255655E+04</totfact>
</mgrwt>
</event>
<event>
 5    1  0.3422688E-002  0.1250001E+03  0.7818608E-02  0.1235069E+00
         -4   -1    0    0    0  501 -0.00000000000E+00  0.00000000000E+00  0.38565473760E+02  0.38586379285E+02  0.12700000000E+01 0. -1.
          4   -1    0    0  501    0  0.00000000000E+00 -0.00000000000E+00 -0.10123662055E+03  0.10124458623E+03  0.12700000000E+01 0. -1.
         25    2    1    2    0    0  0.00000000000E+00  0.00000000000E+00 -0.62671146795E+02  0.13983096552E+03  0.12500010511E+03 0.  0.
    9000005    1    3    3    0    0 -0.21579575773E+02  0.25915038188E+02  0.27518317484E+02  0.43537628460E+02  0.10000000000E+01 0.  0.
    9000005    1    3    3    0    0  0.21579575773E+02 -0.25915038188E+02 -0.90189464279E+02  0.96293337057E+02  0.10000000000E+01 0.  0.
<mgrwt>
<rscale>  0 0.12500011E+03</rscale>
<asrwt>0</asrwt>
<pdfrwt beam="2">  1        4 0.15577085E-01 0.12500011E+03</pdfrwt>
<pdfrwt beam="1">  1       -4 0.59353707E-02 0.12500011E+03</pdfrwt>
<totfact> 0.10137066E+04</totfact>
</mgrwt>
</event>
<event>
 5    1  0.3422688E-002  0.1250042E+03  0.7818608E-02  0.1235063E+00
         -4   -1    0    0    0  501 -0.00000000000E+00  0.00000000000E+00  0.11909402590E+04  0.11909409361E+04  0.12700000000E+01 0. -1.
          4   -1    0    0  501    0  0.00000000000E+00 -0.00000000000E+00 -0.31565588395E+01  0.34024643579E+01  0.12700000000E+01 0. -1.
         25    2    1    2    0    0  0.00000000000E+00  0.00000000000E+00  0.11877837002E+04  0.11943434005E+04  0.12500415985E+03 0.  0.
    9000005    1    3    3    0    0 -0.48804746812E+02  0.32351079133E+02  0.80256687605E+03  0.80470061897E+03  0.10000000000E+01 0.  0.
    9000005    1    3    3    0    0  0.48804746812E+02 -0.32351079133E+02  0.38521682410E+03  0.38964278154E+03  0.10000000000E+01 0.  0.
<mgrwt>
<rscale>  0 0.12500416E+03</rscale>
<asrwt>0</asrwt>
<pdfrwt beam="2">  1        4 0.50459207E-03 0.12500416E+03</pdfrwt>
<pdfrwt beam="1">  1       -4 0.18324064E+00 0.12500416E+03</pdfrwt>
<totfact> 0.24859017E+03</totfact>
</mgrwt>
</event>
<event>
 5    1  0.3422688E-002  0.1249996E+03  0.7818608E-02  0.1235070E+00
         -4   -1    0    0    0  501 -0.00000000000E+00  0.00000000000E+00  0.11453729520E+02  0.11523923807E+02  0.12700000000E+01 0. -1.
          4   -1    0    0  501    0  0.00000000000E+00 -0.00000000000E+00 -0.33993057512E+03  0.33993294750E+03  0.12700000000E+01 0. -1.
         25    2    1    2    0    0  0.00000000000E+00  0.00000000000E+00 -0.32847684560E+03  0.35145687131E+03  0.12499957720E+03 0.  0.
    9000005    1    3    3    0    0 -0.12309191610E+02 -0.59935469669E+02 -0.19996392032E+03  0.20911801967E+03  0.10000000000E+01 0.  0.
    9000005    1    3    3    0    0  0.12309191610E+02  0.59935469669E+02 -0.12851292528E+03  0.14233885164E+03  0.10000000000E+01 0.  0.
<mgrwt>
<rscale>  0 0.12499958E+03</rscale>
<asrwt>0</asrwt>
<pdfrwt beam="2">  1        4 0.52302586E-01 0.12499958E+03</pdfrwt>
<pdfrwt beam="1">  1       -4 0.17676945E-02 0.12499958E+03</pdfrwt>
<totfact> 0.69565233E+03</totfact>
</mgrwt>
</event>
<event>
 5    1  0.3422688E-002  0.1249993E+03  0.7818608E-02  0.1235070E+00
          4   -1    0    0  501    0  0.00000000000E+00  0.00000000000E+00  0.18384354483E+04  0.18384358870E+04  0.12700000000E+01 0. -1.
         -4   -1    0    0    0  501 -0.00000000000E+00 -0.00000000000E+00 -0.19344898062E+01  0.23141198781E+01  0.12700000000E+01 0. -1.
         25    2    1    2    0    0  0.00000000000E+00  0.00000000000E+00  0.18365009585E+04  0.18407500068E+04  0.12499926852E+03 0.  0.
    9000005    1    3    3    0    0  0.99357977720E+01 -0.58604470543E+02  0.63422392323E+03  0.63700407286E+03  0.10000000000E+01 0.  0.
    9000005    1    3    3    0    0 -0.99357977720E+01  0.58604470543E+02  0.12022770353E+04  0.12037459340E+04  0.10000000000E+01 0.  0.
<mgrwt>
<rscale>  0 0.12499927E+03</rscale>
<asrwt>0</asrwt>
<pdfrwt beam="1">  1        4 0.28286553E+00 0.12499927E+03</pdfrwt>
<pdfrwt beam="2">  1       -4 0.32684979E-03 0.12499927E+03</pdfrwt>
<totfact> 0.12086262E+03</totfact>
</mgrwt>
</event>
<event>
 5    1  0.3422688E-002  0.1250062E+03  0.7818608E-02  0.1235060E+00
          4   -1    0    0  501    0  0.00000000000E+00  0.00000000000E+00  0.43846948341E+02  0.43865336871E+02  0.12700000000E+01 0.  1.
         -4   -1    0    0    0  501 -0.00000000000E+00 -0.00000000000E+00 -0.89055590259E+02  0.89064645378E+02  0.12700000000E+01 0.  1.
         25    2    1    2    0    0  0.00000000000E+00  0.00000000000E+00 -0.45208641918E+02  0.13292998225E+03  0.12500623535E+03 0.  0.
    9000005    1    3    3    0    0 -0.86991193695E+01 -0.51916020460E+02  0.13216063295E+02  0.54282706152E+02  0.10000000000E+01 0.  0.
    9000005    1    3    3    0    0  0.86991193695E+01  0.51916020460E+02 -0.58424705213E+02  0.78647276097E+02  0.10000000000E+01 0.  0.
<mgrwt>
<rscale>  0 0.12500624E+03</rscale>
<asrwt>0</asrwt>
<pdfrwt beam="1">  1        4 0.67477955E-02 0.12500624E+03</pdfrwt>
<pdfrwt beam="2">  1       -4 0.13702971E-01 0.12500624E+03</pdfrwt>
<totfact> 0.10280442E+04</totfact>
</mgrwt>
</event>
<event>
 5    1  0.3422688E-002  0.1250057E+03  0.7818608E-02  0.1235060E+00
          4   -1    0    0  501    0  0.00000000000E+00  0.00000000000E+00  0.54182360836E+03  0.54182509676E+03  0.12700000000E+01 0.  1.
         -4   -1    0    0    0  501 -0.00000000000E+00 -0.00000000000E+00 -0.71526664799E+01  0.72645397495E+01  0.12700000000E+01 0.  1.
         25    2    1    2    0    0  0.00000000000E+00  0.00000000000E+00  0.53467094188E+03  0.54908963651E+03  0.12500565119E+03 0.  0.
    9000005    1    3    3    0    0  0.21055465574E+02  0.42304698318E+02  0.87693649735E+02  0.99620260661E+02  0.10000000000E+01 0.  0.
    9000005    1    3    3    0    0 -0.21055465574E+02 -0.42304698318E+02  0.44697729215E+03  0.44946937585E+03  0.10000000000E+01 0.  0.
<mgrwt>
<rscale>  0 0.12500565E+03</rscale>
<asrwt>0</asrwt>
<pdfrwt beam="1">  1        4 0.83366186E-01 0.12500565E+03</pdfrwt>
<pdfrwt beam="2">  1       -4 0.11091305E-02 0.12500565E+03</pdfrwt>
<totfact> 0.52240963E+03</totfact>
</mgrwt>
</event>
<event>
 5    1  0.3422688E-002  0.1250051E+03  0.7818608E-02  0.1235061E+00
          4   -1    0    0  501    0  0.00000000000E+00  0.00000000000E+00  0.61627680542E+02  0.61640764994E+02  0.12700000000E+01 0.  1.
         -4   -1    0    0    0  501 -0.00000000000E+00 -0.00000000000E+00 -0.63363661254E+02  0.63376387302E+02  0.12700000000E+01 0.  1.
         25    2    1    2    0    0  0.00000000000E+00  0.00000000000E+00 -0.17359807114E+01  0.12501715230E+03  0.12500509885E+03 0.  0.
    9000005    1    3    3    0    0 -0.53946600868E+02 -0.24957173423E+02 -0.20169396212E+02  0.62776594317E+02  0.10000000000E+01 0.  0.
    9000005    1    3    3    0    0  0.53946600868E+02  0.24957173423E+02  0.18433415501E+02  0.62240557979E+02  0.10000000000E+01 0.  0.
<mgrwt>
<rscale>  0 0.12500510E+03</rscale>
<asrwt>0</asrwt>
<pdfrwt beam="1">  1        4 0.94831671E-02 0.12500510E+03</pdfrwt>
<pdfrwt beam="2">  1       -4 0.97502410E-02 0.12500510E+03</pdfrwt>
<totfact> 0.10451286E+04</totfact>
</mgrwt>
</event>
<event>
 5    1  0.3422688E-002  0.1249968E+03  0.7818608E-02  0.1235074E+00
          4   -1    0    0  501    0  0.00000000000E+00  0.00000000000E+00  0.37048534901E+01  0.39164830375E+01  0.12700000000E+01 0. -1.
         -4   -1    0    0    0  501 -0.00000000000E+00 -0.00000000000E+00 -0.10248180550E+04  0.10248188419E+04  0.12700000000E+01 0. -1.
         25    2    1    2    0    0  0.00000000000E+00  0.00000000000E+00 -0.10211132015E+04  0.10287353250E+04  0.12499679403E+03 0.  0.
    9000005    1    3    3    0    0 -0.55189847714E+01 -0.56443207109E+02 -0.29456488193E+03  0.29997627321E+03  0.10000000000E+01 0.  0.
    9000005    1    3    3    0    0  0.55189847714E+01  0.56443207109E+02 -0.72654831961E+03  0.72875905178E+03  0.10000000000E+01 0.  0.
<mgrwt>
<rscale>  0 0.12499679E+03</rscale>
<asrwt>0</asrwt>
<pdfrwt beam="1">  1        4 0.58631801E-03 0.12499679E+03</pdfrwt>
<pdfrwt beam="2">  1       -4 0.15768044E+00 0.12499679E+03</pdfrwt>
<totfact> 0.29670250E+03</totfact>
</mgrwt>
</event>
<event>
 5    1  0.3422688E-002  0.1249986E+03  0.7818608E-02  0.1235071E+00
         -4   -1    0    0    0  501 -0.00000000000E+00  0.00000000000E+00  0.56276897070E+01  0.57692106426E+01  0.12700000000E+01 0.  1.
          4   -1    0    0  501    0  0.00000000000E+00 -0.00000000000E+00 -0.68533591594E+03  0.68533709266E+03  0.12700000000E+01 0.  1.
         25    2    1    2    0    0  0.00000000000E+00  0.00000000000E+00 -0.67970822624E+03  0.69110630331E+03  0.12499859862E+03 0.  0.
    9000005    1    3    3    0    0  0.25956470440E+02  0.56351112584E+02 -0.29848832632E+03  0.30486959048E+03  0.10000000000E+01 0.  0.
    9000005    1    3    3    0    0 -0.25956470440E+02 -0.56351112584E+02 -0.38121989991E+03  0.38623671283E+03  0.10000000000E+01 0.  0.
<mgrwt>
<rscale>  0 0.12499860E+03</rscale>
<asrwt>0</asrwt>
<pdfrwt beam="2">  1        4 0.10544721E+00 0.12499860E+03</pdfrwt>
<pdfrwt beam="1">  1       -4 0.87677570E-03 0.12499860E+03</pdfrwt>
<totfact> 0.43561710E+03</totfact>
</mgrwt>
</event>
<event>
 5    1  0.3422688E-002  0.1250119E+03  0.7818608E-02  0.1235051E+00
          4   -1    0    0  501    0  0.00000000000E+00  0.00000000000E+00  0.20651955063E+02  0.20690967786E+02  0.12700000000E+01 0.  1.
         -4   -1    0    0    0  501 -0.00000000000E+00 -0.00000000000E+00 -0.18896304830E+03  0.18896731601E+03  0.12700000000E+01 0.  1.
         25    2    1    2    0    0  0.00000000000E+00  0.00000000000E+00 -0.16831109323E+03  0.20965828380E+03  0.12501188688E+03 0.  0.
    9000005    1    3    3    0    0 -0.12712953030E+02 -0.59705122012E+02 -0.10663579752E+03  0.12287601101E+03  0.10000000000E+01 0.  0.
    9000005    1    3    3    0    0  0.12712953030E+02  0.59705122012E+02 -0.61675295715E+02  0.86782272791E+02  0.10000000000E+01 0.  0.
<mgrwt>
<rscale>  0 0.12501189E+03</rscale>
<asrwt>0</asrwt>
<pdfrwt beam="1">  1        4 0.31805532E-02 0.12501189E+03</pdfrwt>
<pdfrwt beam="2">  1       -4 0.29074566E-01 0.12501189E+03</pdfrwt>
<totfact> 0.88508195E+03</totfact>
</mgrwt>
</event>
<event>
 5    1  0.3422688E-002  0.1250030E+03  0.7818608E-02  0.1235065E+00
          4   -1    0    0  501    0  0.00000000000E+00  0.00000000000E+00  0.98767797513E+02  0.98775962286E+02  0.12700000000E+01 0. -1.
         -4   -1    0    0    0  501 -0.00000000000E+00 -0.00000000000E+00 -0.39531739144E+02  0.39552133947E+02  0.12700000000E+01 0. -1.
         25    2    1    2    0    0  0.00000000000E+00  0.00000000000E+00  0.59236058369E+02  0.13832809623E+03  0.12500300635E+03 0.  0.
    9000005    1    3    3    0    0 -0.50629881182E+02  0.11102494300E+02  0.68250631591E+02  0.85707636537E+02  0.10000000000E+01 0.  0.
    9000005    1    3    3    0    0  0.50629881182E+02 -0.11102494300E+02 -0.90145732217E+01  0.52620459696E+02  0.10000000000E+01 0.  0.
<mgrwt>
<rscale>  0 0.12500301E+03</rscale>
<asrwt>0</asrwt>
<pdfrwt beam="1">  1        4 0.15197242E-01 0.12500301E+03</pdfrwt>
<pdfrwt beam="2">  1       -4 0.60840030E-02 0.12500301E+03</pdfrwt>
<totfact> 0.10167666E+04</totfact>
</mgrwt>
</event>
<event>
 5    1  0.3422688E-002  0.1250025E+03  0.7818608E-02  0.1235065E+00
         -4   -1    0    0    0  501 -0.00000000000E+00  0.00000000000E+00  0.72217558434E+01  0.73325750907E+01  0.12700000000E+01 0.  1.
          4   -1    0    0  501    0  0.00000000000E+00 -0.00000000000E+00 -0.53669196672E+03  0.53669346934E+03  0.12700000000E+01 0.  1.
         25    2    1    2    0    0  0.00000000000E+00  0.00000000000E+00 -0.52947021087E+03  0.54402604444E+03  0.12500253127E+03 0.  0.
    9000005    1    3    3    0    0  0.86701543907E+01 -0.27559454619E+02 -0.50590356206E+03  0.50672883204E+03  0.10000000000E+01 0.  0.
    9000005    1    3    3    0    0 -0.86701543907E+01  0.27559454619E+02 -0.23566648808E+02  0.37297212391E+02  0.10000000000E+01 0.  0.
<mgrwt>
<rscale>  0 0.12500253E+03</rscale>
<asrwt>0</asrwt>
<pdfrwt beam="2">  1        4 0.82576604E-01 0.12500253E+03</pdfrwt>
<pdfrwt beam="1">  1       -4 0.11196799E-02 0.12500253E+03</pdfrwt>
<totfact> 0.52600379E+03</totfact>
</mgrwt>
</event>
<event>
 5    1  0.3422688E-002  0.1249982E+03  0.7818608E-02  0.1235072E+00
          4   -1    0    0  501    0  0.00000000000E+00  0.00000000000E+00  0.36632852098E+01  0.38771843557E+01  0.12700000000E+01 0. -1.
         -4   -1    0    0    0  501 -0.00000000000E+00 -0.00000000000E+00 -0.10358316915E+04  0.10358324701E+04  0.12700000000E+01 0. -1.
         25    2    1    2    0    0  0.00000000000E+00  0.00000000000E+00 -0.10321684063E+04  0.10397096544E+04  0.12499818609E+03 0.  0.
    9000005    1    3    3    0    0  0.51616517539E+02  0.30338099015E+02 -0.66498707379E+03  0.66767767182E+03  0.10000000000E+01 0.  0.
    9000005    1    3    3    0    0 -0.51616517539E+02 -0.30338099015E+02 -0.36718133250E+03  0.37203198259E+03  0.10000000000E+01 0.  0.
<mgrwt>
<rscale>  0 0.12499819E+03</rscale>
<asrwt>0</asrwt>
<pdfrwt beam="1">  1        4 0.58009683E-03 0.12499819E+03</pdfrwt>
<pdfrwt beam="2">  1       -4 0.15937501E+00 0.12499819E+03</pdfrwt>
<totfact> 0.29319465E+03</totfact>
</mgrwt>
</event>
<event>
 5    1  0.3422688E-002  0.1250018E+03  0.7818608E-02  0.1235066E+00
         -4   -1    0    0    0  501 -0.00000000000E+00  0.00000000000E+00  0.49298328918E+02  0.49314684772E+02  0.12700000000E+01 0.  1.
          4   -1    0    0  501    0  0.00000000000E+00 -0.00000000000E+00 -0.79204671888E+02  0.79214853083E+02  0.12700000000E+01 0.  1.
         25    2    1    2    0    0  0.00000000000E+00  0.00000000000E+00 -0.29906342970E+02  0.12852953785E+03  0.12500181099E+03 0.  0.
    9000005    1    3    3    0    0 -0.90789201530E+01  0.58505468086E+02 -0.35518797466E+02  0.69049993197E+02  0.10000000000E+01 0.  0.
    9000005    1    3    3    0    0  0.90789201530E+01 -0.58505468086E+02  0.56124544966E+01  0.59479544657E+02  0.10000000000E+01 0.  0.
<mgrwt>
<rscale>  0 0.12500181E+03</rscale>
<asrwt>0</asrwt>
<pdfrwt beam="2">  1        4 0.12187375E-01 0.12500181E+03</pdfrwt>
<pdfrwt beam="1">  1       -4 0.75863996E-02 0.12500181E+03</pdfrwt>
<totfact> 0.10375643E+04</totfact>
</mgrwt>
</event>
<event>
 5    1  0.3422688E-002  0.1250097E+03  0.7818608E-02  0.1235054E+00
         -4   -1    0    0    0  501 -0.00000000000E+00  0.00000000000E+00  0.68405092870E+02  0.68416881181E+02  0.12700000000E+01 0. -1.
          4   -1    0    0  501    0  0.00000000000E+00 -0.00000000000E+00 -0.57089774038E+02  0.57103898288E+02  0.12700000000E+01 0. -1.
         25    2    1    2    0    0  0.00000000000E+00  0.00000000000E+00  0.11315318832E+02  0.12552077947E+03  0.12500971817E+03 0.  0.
    9000005    1    3    3    0    0 -0.26363838862E+02 -0.55845741073E+02  0.15291602303E+02  0.63628860563E+02  0.10000000000E+01 0.  0.
    9000005    1    3    3    0    0  0.26363838862E+02  0.55845741073E+02 -0.39762834704E+01  0.61891918906E+02  0.10000000000E+01 0.  0.
<mgrwt>
<rscale>  0 0.12500972E+03</rscale>
<asrwt>0</asrwt>
<pdfrwt beam="2">  1        4 0.87850354E-02 0.12500972E+03</pdfrwt>
<pdfrwt beam="1">  1       -4 0.10525854E-01 0.12500972E+03</pdfrwt>
<totfact> 0.10439207E+04</totfact>
</mgrwt>
</event>
<event>
 5    1  0.3422688E-002  0.1249961E+03  0.7818608E-02  0.1235075E+00
          4   -1    0    0  501    0  0.00000000000E+00  0.00000000000E+00  0.79921628521E+03  0.79921729426E+03  0.12700000000E+01 0. -1.
         -4   -1    0    0    0  501 -0.00000000000E+00 -0.00000000000E+00 -0.48037603965E+01  0.49688040761E+01  0.12700000000E+01 0. -1.
         25    2    1    2    0    0  0.00000000000E+00  0.00000000000E+00  0.79441252482E+03  0.80418609834E+03  0.12499608465E+03 0.  0.
    9000005    1    3    3    0    0  0.54375829756E+02  0.29210361203E+02  0.45992376541E+03  0.46404832297E+03  0.10000000000E+01 0.  0.
    9000005    1    3    3    0    0 -0.54375829756E+02 -0.29210361203E+02  0.33448875941E+03  0.34013777537E+03  0.10000000000E+01 0.  0.
<mgrwt>
<rscale>  0 0.12499608E+03</rscale>
<asrwt>0</asrwt>
<pdfrwt beam="1">  1        4 0.12296913E+00 0.12499608E+03</pdfrwt>
<pdfrwt beam="2">  1       -4 0.75181331E-03 0.12499608E+03</pdfrwt>
<totfact> 0.38081783E+03</totfact>
</mgrwt>
</event>
<event>
 5    1  0.3422688E-002  0.1249995E+03  0.7818608E-02  0.1235070E+00
          4   -1    0    0  501    0  0.00000000000E+00  0.00000000000E+00  0.78764611417E+01  0.79781915317E+01  0.12700000000E+01 0. -1.
         -4   -1    0    0    0  501 -0.00000000000E+00 -0.00000000000E+00 -0.49265112045E+03  0.49265275740E+03  0.12700000000E+01 0. -1.
         25    2    1    2    0    0  0.00000000000E+00  0.00000000000E+00 -0.48477465930E+03  0.50063094893E+03  0.12499950691E+03 0.  0.
    9000005    1    3    3    0    0 -0.76032331716E+01 -0.59767346591E+02 -0.17593775053E+03  0.18597052706E+03  0.10000000000E+01 0.  0.
    9000005    1    3    3    0    0  0.76032331716E+01  0.59767346591E+02 -0.30883690878E+03  0.31466042188E+03  0.10000000000E+01 0.  0.
<mgrwt>
<rscale>  0 0.12499951E+03</rscale>
<asrwt>0</asrwt>
<pdfrwt beam="1">  1        4 0.12197150E-02 0.12499951E+03</pdfrwt>
<pdfrwt beam="2">  1       -4 0.75800407E-01 0.12499951E+03</pdfrwt>
<totfact> 0.55816061E+03</totfact>
</mgrwt>
</event>
<event>
 4    1  0.3422688E-002  0.1261026E+03  0.7818608E-02  0.1233356E+00
         -4   -1    0    0    0  501 -0.00000000000E+00  0.00000000000E+00  0.30352217892E+01  0.32902083991E+01  0.12700000000E+01 0. -1.
          4   -1    0    0  501    0  0.00000000000E+00 -0.00000000000E+00 -0.12567229332E+04  0.12567235749E+04  0.12700000000E+01 0. -1.
    9000005    1    1    2    0    0 -0.49891677459E+01  0.99061525636E+01 -0.12469456325E+04  0.12469953625E+04  0.10000000000E+01 0.  0.
    9000005    1    1    2    0    0  0.49891677459E+01 -0.99061525636E+01 -0.67420789737E+01  0.13018420883E+02  0.10000000000E+01 0.  0.
<mgrwt>
<rscale>  0 0.12610256E+03</rscale>
<asrwt>0</asrwt>
<pdfrwt beam="2">  1        4 0.19336126E+00 0.12610256E+03</pdfrwt>
<pdfrwt beam="1">  1       -4 0.48662192E-03 0.12610256E+03</pdfrwt>
<totfact> 0.22643262E+03</totfact>
</mgrwt>
</event>
<event>
 5    1  0.3422688E-002  0.1250018E+03  0.7818608E-02  0.1235066E+00
          4   -1    0    0  501    0  0.00000000000E+00  0.00000000000E+00  0.40682182379E+03  0.40682380610E+03  0.12700000000E+01 0.  1.
         -4   -1    0    0    0  501 -0.00000000000E+00 -0.00000000000E+00 -0.95581367337E+01  0.96421407280E+01  0.12700000000E+01 0.  1.
         25    2    1    2    0    0  0.00000000000E+00  0.00000000000E+00  0.39726368705E+03  0.41646594683E+03  0.12500179125E+03 0.  0.
    9000005    1    3    3    0    0 -0.53933894348E+02  0.30076840174E+02  0.23056746405E+03  0.23869611801E+03  0.10000000000E+01 0.  0.
    9000005    1    3    3    0    0  0.53933894348E+02 -0.30076840174E+02  0.16669622300E+03  0.17776982881E+03  0.10000000000E+01 0.  0.
<mgrwt>
<rscale>  0 0.12500179E+03</rscale>
<asrwt>0</asrwt>
<pdfrwt beam="1">  1        4 0.62594584E-01 0.12500179E+03</pdfrwt>
<pdfrwt beam="2">  1       -4 0.14770970E-02 0.12500179E+03</pdfrwt>
<totfact> 0.62979740E+03</totfact>
</mgrwt>
</event>
<event>
 5    1  0.3422688E-002  0.1250142E+03  0.7818608E-02  0.1235047E+00
         -4   -1    0    0    0  501 -0.00000000000E+00  0.00000000000E+00  0.13969753432E+03  0.13970330703E+03  0.12700000000E+01 0.  1.
          4   -1    0    0  501    0  0.00000000000E+00 -0.00000000000E+00 -0.27947790658E+02  0.27976631367E+02  0.12700000000E+01 0.  1.
         25    2    1    2    0    0  0.00000000000E+00  0.00000000000E+00  0.11174974366E+03  0.16767993840E+03  0.12501422532E+03 0.  0.
    9000005    1    3    3    0    0  0.20407847114E+02  0.34748667383E+02 -0.82014358245E+01  0.41136524626E+02  0.10000000000E+01 0.  0.
    9000005    1    3    3    0    0 -0.20407847114E+02 -0.34748667383E+02  0.11995117949E+03  0.12654341377E+03  0.10000000000E+01 0.  0.
<mgrwt>
<rscale>  0 0.12501423E+03</rscale>
<asrwt>0</asrwt>
<pdfrwt beam="2">  1        4 0.43023227E-02 0.12501423E+03</pdfrwt>
<pdfrwt beam="1">  1       -4 0.21494591E-01 0.12501423E+03</pdfrwt>
<totfact> 0.95851623E+03</totfact>
</mgrwt>
</event>
<event>
 5    1  0.3422688E-002  0.1249994E+03  0.7818608E-02  0.1235070E+00
         -4   -1    0    0    0  501 -0.00000000000E+00  0.00000000000E+00  0.69002334749E+01  0.70161329811E+01  0.12700000000E+01 0.  1.
          4   -1    0    0  501    0  0.00000000000E+00 -0.00000000000E+00 -0.56126769525E+03  0.56126913208E+03  0.12700000000E+01 0.  1.
         25    2    1    2    0    0  0.00000000000E+00  0.00000000000E+00 -0.55436746177E+03  0.56828526506E+03  0.12499943926E+03 0.  0.
    9000005    1    3    3    0    0 -0.77935228292E+01  0.58824989951E+02 -0.18808356492E+03  0.19722460757E+03  0.10000000000E+01 0.  0.
    9000005    1    3    3    0    0  0.77935228292E+01 -0.58824989951E+02 -0.36628389685E+03  0.37106065749E+03  0.10000000000E+01 0.  0.
<mgrwt>
<rscale>  0 0.12499944E+03</rscale>
<asrwt>0</asrwt>
<pdfrwt beam="2">  1        4 0.86357866E-01 0.12499944E+03</pdfrwt>
<pdfrwt beam="1">  1       -4 0.10706007E-02 0.12499944E+03</pdfrwt>
<totfact> 0.50933391E+03</totfact>
</mgrwt>
</event>
<event>
 5    1  0.3422688E-002  0.1249884E+03  0.7818608E-02  0.1235087E+00
          4   -1    0    0  501    0  0.00000000000E+00  0.00000000000E+00  0.19644137052E+02  0.19685147206E+02  0.12700000000E+01 0. -1.
         -4   -1    0    0    0  501 -0.00000000000E+00 -0.00000000000E+00 -0.19856347942E+03  0.19856754080E+03  0.12700000000E+01 0. -1.
         25    2    1    2    0    0  0.00000000000E+00  0.00000000000E+00 -0.17891934237E+03  0.21825268801E+03  0.12498841846E+03 0.  0.
    9000005    1    3    3    0    0 -0.34829086784E+02  0.18530021215E+02 -0.17407480588E+03  0.17849219875E+03  0.10000000000E+01 0.  0.
    9000005    1    3    3    0    0  0.34829086784E+02 -0.18530021215E+02 -0.48445364933E+01  0.39760489261E+02  0.10000000000E+01 0.  0.
<mgrwt>
<rscale>  0 0.12498842E+03</rscale>
<asrwt>0</asrwt>
<pdfrwt beam="1">  1        4 0.30256421E-02 0.12498842E+03</pdfrwt>
<pdfrwt beam="2">  1       -4 0.30551693E-01 0.12498842E+03</pdfrwt>
<totfact> 0.87168148E+03</totfact>
</mgrwt>
</event>
<event>
 5    1  0.3422688E-002  0.1250077E+03  0.7818608E-02  0.1235057E+00
         -4   -1    0    0    0  501 -0.00000000000E+00  0.00000000000E+00  0.11954033868E+02  0.12021307155E+02  0.12700000000E+01 0. -1.
          4   -1    0    0  501    0  0.00000000000E+00 -0.00000000000E+00 -0.32582715061E+03  0.32582962569E+03  0.12700000000E+01 0. -1.
         25    2    1    2    0    0  0.00000000000E+00  0.00000000000E+00 -0.31387311675E+03  0.33785093285E+03  0.12500767740E+03 0.  0.
    9000005    1    3    3    0    0  0.74813768575E+01 -0.15049403267E+02 -0.31961838638E+03  0.32006150729E+03  0.10000000000E+01 0.  0.
    9000005    1    3    3    0    0 -0.74813768575E+01  0.15049403267E+02  0.57452696330E+01  0.17789425553E+02  0.10000000000E+01 0.  0.
<mgrwt>
<rscale>  0 0.12500768E+03</rscale>
<asrwt>0</asrwt>
<pdfrwt beam="2">  1        4 0.50132612E-01 0.12500768E+03</pdfrwt>
<pdfrwt beam="1">  1       -4 0.18444476E-02 0.12500768E+03</pdfrwt>
<totfact> 0.71070031E+03</totfact>
</mgrwt>
</event>
<event>
 5    1  0.3422688E-002  0.1249999E+03  0.7818608E-02  0.1235070E+00
          4   -1    0    0  501    0  0.00000000000E+00  0.00000000000E+00  0.25704707451E+03  0.25705021185E+03  0.12700000000E+01 0. -1.
         -4   -1    0    0    0  501 -0.00000000000E+00 -0.00000000000E+00 -0.15166828278E+02  0.15219907359E+02  0.12700000000E+01 0. -1.
         25    2    1    2    0    0  0.00000000000E+00  0.00000000000E+00  0.24188024623E+03  0.27227011921E+03  0.12499985720E+03 0.  0.
    9000005    1    3    3    0    0 -0.46658993201E+02  0.11560543837E+02  0.20791769012E+03  0.21340448375E+03  0.10000000000E+01 0.  0.
    9000005    1    3    3    0    0  0.46658993201E+02 -0.11560543837E+02  0.33962556105E+02  0.58865635455E+02  0.10000000000E+01 0.  0.
<mgrwt>
<rscale>  0 0.12499986E+03</rscale>
<asrwt>0</asrwt>
<pdfrwt beam="1">  1        4 0.39550024E-01 0.12499986E+03</pdfrwt>
<pdfrwt beam="2">  1       -4 0.23376828E-02 0.12499986E+03</pdfrwt>
<totfact> 0.79214577E+03</totfact>
</mgrwt>
</event>
<event>
 5    1  0.3422688E-002  0.1250015E+03  0.7818608E-02  0.1235067E+00
         -4   -1    0    0    0  501 -0.00000000000E+00  0.00000000000E+00  0.12306358156E+03  0.12307013450E+03  0.12700000000E+01 0.  1.
          4   -1    0    0  501    0  0.00000000000E+00 -0.00000000000E+00 -0.31722377590E+02  0.31747789529E+02  0.12700000000E+01 0.  1.
         25    2    1    2    0    0  0.00000000000E+00  0.00000000000E+00  0.91341203969E+02  0.15481792403E+03  0.12500149622E+03 0.  0.
    9000005    1    3    3    0    0 -0.26305509370E+02 -0.48914336830E+02  0.10188296591E+02  0.56474716096E+02  0.10000000000E+01 0.  0.
    9000005    1    3    3    0    0  0.26305509370E+02  0.48914336830E+02  0.81152907378E+02  0.98343207933E+02  0.10000000000E+01 0.  0.
<mgrwt>
<rscale>  0 0.12500150E+03</rscale>
<asrwt>0</asrwt>
<pdfrwt beam="2">  1        4 0.48828246E-02 0.12500150E+03</pdfrwt>
<pdfrwt beam="1">  1       -4 0.18935317E-01 0.12500150E+03</pdfrwt>
<totfact> 0.98347945E+03</totfact>
</mgrwt>
</event>
<event>
 5    1  0.3422688E-002  0.1249948E+03  0.7818608E-02  0.1235077E+00
          4   -1    0    0  501    0  0.00000000000E+00  0.00000000000E+00  0.11266233633E+02  0.11337588821E+02  0.12700000000E+01 0.  1.
         -4   -1    0    0    0  501 -0.00000000000E+00 -0.00000000000E+00 -0.34552597171E+03  0.34552830568E+03  0.12700000000E+01 0.  1.
         25    2    1    2    0    0  0.00000000000E+00  0.00000000000E+00 -0.33425973808E+03  0.35686589450E+03  0.12499477653E+03 0.  0.
    9000005    1    3    3    0    0  0.12806901467E+02 -0.60509729963E+02 -0.19258295562E+03  0.20227367337E+03  0.10000000000E+01 0.  0.
    9000005    1    3    3    0    0 -0.12806901467E+02  0.60509729963E+02 -0.14167678246E+03  0.15459222113E+03  0.10000000000E+01 0.  0.
<mgrwt>
<rscale>  0 0.12499478E+03</rscale>
<asrwt>0</asrwt>
<pdfrwt beam="1">  1        4 0.17389354E-02 0.12499478E+03</pdfrwt>
<pdfrwt beam="2">  1       -4 0.53163502E-01 0.12499478E+03</pdfrwt>
<totfact> 0.68983745E+03</totfact>
</mgrwt>
</event>
<event>
 5    1  0.3422688E-002  0.1249878E+03  0.7818608E-02  0.1235088E+00
          4   -1    0    0  501    0  0.00000000000E+00  0.00000000000E+00  0.13417844336E+03  0.13418445351E+03  0.12700000000E+01 0. -1.
         -4   -1    0    0    0  501 -0.00000000000E+00 -0.00000000000E+00 -0.29086170945E+02  0.29113883977E+02  0.12700000000E+01 0. -1.
         25    2    1    2    0    0  0.00000000000E+00  0.00000000000E+00  0.10509227241E+03  0.16329833748E+03  0.12498784462E+03 0.  0.
    9000005    1    3    3    0    0 -0.41597274272E+02 -0.32360906087E+02  0.96405490562E+02  0.10987529331E+03  0.10000000000E+01 0.  0.
    9000005    1    3    3    0    0  0.41597274272E+02  0.32360906087E+02  0.86867818525E+01  0.53423044172E+02  0.10000000000E+01 0.  0.
<mgrwt>
<rscale>  0 0.12498784E+03</rscale>
<asrwt>0</asrwt>
<pdfrwt beam="1">  1        4 0.20645431E-01 0.12498784E+03</pdfrwt>
<pdfrwt beam="2">  1       -4 0.44773897E-02 0.12498784E+03</pdfrwt>
<totfact> 0.96737052E+03</totfact>
</mgrwt>
</event>
<event>
 5    1  0.3422688E-002  0.1249999E+03  0.7818608E-02  0.1235070E+00
          4   -1    0    0  501    0  0.00000000000E+00  0.00000000000E+00  0.67072486463E+02  0.67084508944E+02  0.12700000000E+01 0.  1.
         -4   -1    0    0    0  501 -0.00000000000E+00 -0.00000000000E+00 -0.58214927278E+02  0.58228778606E+02  0.12700000000E+01 0.  1.
         25    2    1    2    0    0  0.00000000000E+00  0.00000000000E+00  0.88575591848E+01  0.12531328755E+03  0.12499985473E+03 0.  0.
    9000005    1    3    3    0    0  0.98436906120E+01  0.26779378015E+02 -0.51309261431E+02  0.58716893994E+02  0.10000000000E+01 0.  0.
    9000005    1    3    3    0    0 -0.98436906120E+01 -0.26779378015E+02  0.60166820616E+02  0.66596393557E+02  0.10000000000E+01 0.  0.
<mgrwt>
<rscale>  0 0.12499985E+03</rscale>
<asrwt>0</asrwt>
<pdfrwt beam="1">  1        4 0.10320834E-01 0.12499985E+03</pdfrwt>
<pdfrwt beam="2">  1       -4 0.89581330E-02 0.12499985E+03</pdfrwt>
<totfact> 0.10446096E+04</totfact>
</mgrwt>
</event>
<event>
 5    1  0.3422688E-002  0.1250018E+03  0.7818608E-02  0.1235067E+00
         -4   -1    0    0    0  501 -0.00000000000E+00  0.00000000000E+00  0.38881499313E+01  0.40903068208E+01  0.12700000000E+01 0.  1.
          4   -1    0    0  501    0  0.00000000000E+00 -0.00000000000E+00 -0.97902468506E+03  0.97902550879E+03  0.12700000000E+01 0.  1.
         25    2    1    2    0    0  0.00000000000E+00  0.00000000000E+00 -0.97513653513E+03  0.98311581561E+03  0.12500177901E+03 0.  0.
    9000005    1    3    3    0    0 -0.57734942738E+02  0.34203704642E+01 -0.30139651996E+03  0.30689718928E+03  0.10000000000E+01 0.  0.
    9000005    1    3    3    0    0  0.57734942738E+02 -0.34203704642E+01 -0.67374001517E+03  0.67621862633E+03  0.10000000000E+01 0.  0.
<mgrwt>
<rscale>  0 0.12500178E+03</rscale>
<asrwt>0</asrwt>
<pdfrwt beam="2">  1        4 0.15063460E+00 0.12500178E+03</pdfrwt>
<pdfrwt beam="1">  1       -4 0.61379159E-03 0.12500178E+03</pdfrwt>
<totfact> 0.31167454E+03</totfact>
</mgrwt>
</event>
<event>
 5    1  0.3422688E-002  0.1250026E+03  0.7818608E-02  0.1235065E+00
         -4   -1    0    0    0  501 -0.00000000000E+00  0.00000000000E+00  0.74414942795E+02  0.74425779211E+02  0.12700000000E+01 0.  1.
          4   -1    0    0  501    0  0.00000000000E+00 -0.00000000000E+00 -0.52472621936E+02  0.52487988653E+02  0.12700000000E+01 0.  1.
         25    2    1    2    0    0  0.00000000000E+00  0.00000000000E+00  0.21942320860E+02  0.12691376786E+03  0.12500255609E+03 0.  0.
    9000005    1    3    3    0    0 -0.43113087981E+02 -0.40111108866E+02  0.32214021787E+02  0.67129595630E+02  0.10000000000E+01 0.  0.
    9000005    1    3    3    0    0  0.43113087981E+02  0.40111108866E+02 -0.10271700928E+02  0.59784172234E+02  0.10000000000E+01 0.  0.
<mgrwt>
<rscale>  0 0.12500256E+03</rscale>
<asrwt>0</asrwt>
<pdfrwt beam="2">  1        4 0.80747267E-02 0.12500256E+03</pdfrwt>
<pdfrwt beam="1">  1       -4 0.11450468E-01 0.12500256E+03</pdfrwt>
<totfact> 0.10410419E+04</totfact>
</mgrwt>
</event>
<event>
 5    1  0.3422688E-002  0.1250022E+03  0.7818608E-02  0.1235066E+00
         -4   -1    0    0    0  501 -0.00000000000E+00  0.00000000000E+00  0.16823936692E+02  0.16871803277E+02  0.12700000000E+01 0.  1.
          4   -1    0    0  501    0  0.00000000000E+00 -0.00000000000E+00 -0.23181265335E+03  0.23181613221E+03  0.12700000000E+01 0.  1.
         25    2    1    2    0    0  0.00000000000E+00  0.00000000000E+00 -0.21498871666E+03  0.24868793549E+03  0.12500216385E+03 0.  0.
    9000005    1    3    3    0    0 -0.39721916472E+02 -0.40303224677E+02 -0.16025111159E+03  0.16995175590E+03  0.10000000000E+01 0.  0.
    9000005    1    3    3    0    0  0.39721916472E+02  0.40303224677E+02 -0.54737605067E+02  0.78736179587E+02  0.10000000000E+01 0.  0.
<mgrwt>
<rscale>  0 0.12500216E+03</rscale>
<asrwt>0</asrwt>
<pdfrwt beam="2">  1        4 0.35667433E-01 0.12500216E+03</pdfrwt>
<pdfrwt beam="1">  1       -4 0.25922478E-02 0.12500216E+03</pdfrwt>
<totfact> 0.82516255E+03</totfact>
</mgrwt>
</event>
<event>
 4    1  0.3422688E-002  0.1252430E+03  0.7818608E-02  0.1234690E+00
         -4   -1    0    0    0  501 -0.00000000000E+00  0.00000000000E+00  0.15406828592E+03  0.15407352019E+03  0.12700000000E+01 0.  1.
          4   -1    0    0  501    0  0.00000000000E+00 -0.00000000000E+00 -0.25431164408E+02  0.25462855754E+02  0.12700000000E+01 0.  1.
    9000005    1    1    2    0    0  0.56535669455E+02  0.15576641515E+02  0.32861816879E+02  0.67229552208E+02  0.10000000000E+01 0.  0.
    9000005    1    1    2    0    0 -0.56535669455E+02 -0.15576641515E+02  0.95775304630E+02  0.11230682374E+03  0.10000000000E+01 0.  0.
<mgrwt>
<rscale>  0 0.12524297E+03</rscale>
<asrwt>0</asrwt>
<pdfrwt beam="2">  1        4 0.39153273E-02 0.12524297E+03</pdfrwt>
<pdfrwt beam="1">  1       -4 0.23705653E-01 0.12524297E+03</pdfrwt>
<totfact> 0.93191858E+03</totfact>
</mgrwt>
</event>
<event>
 5    1  0.3422688E-002  0.1249997E+03  0.7818608E-02  0.1235070E+00
          4   -1    0    0  501    0  0.00000000000E+00  0.00000000000E+00  0.81204412421E+03  0.81204511732E+03  0.12700000000E+01 0. -1.
         -4   -1    0    0    0  501 -0.00000000000E+00 -0.00000000000E+00 -0.47255329703E+01  0.48932159010E+01  0.12700000000E+01 0. -1.
         25    2    1    2    0    0  0.00000000000E+00  0.00000000000E+00  0.80731859124E+03  0.81693833322E+03  0.12499973010E+03 0.  0.
    9000005    1    3    3    0    0 -0.90155377267E+01 -0.43735517098E+02  0.11794730424E+03  0.12612153644E+03  0.10000000000E+01 0.  0.
    9000005    1    3    3    0    0  0.90155377267E+01  0.43735517098E+02  0.68937128700E+03  0.69081679678E+03  0.10000000000E+01 0.  0.
<mgrwt>
<rscale>  0 0.12499973E+03</rscale>
<asrwt>0</asrwt>
<pdfrwt beam="1">  1        4 0.12494282E+00 0.12499973E+03</pdfrwt>
<pdfrwt beam="2">  1       -4 0.73998027E-03 0.12499973E+03</pdfrwt>
<totfact> 0.37519878E+03</totfact>
</mgrwt>
</event>
<event>
 5    1  0.3422688E-002  0.1250005E+03  0.7818608E-02  0.1235068E+00
         -4   -1    0    0    0  501 -0.00000000000E+00  0.00000000000E+00  0.56883595447E+01  0.58284075278E+01  0.12700000000E+01 0.  1.
          4   -1    0    0  501    0  0.00000000000E+00 -0.00000000000E+00 -0.67822360428E+03  0.67822479334E+03  0.12700000000E+01 0.  1.
         25    2    1    2    0    0  0.00000000000E+00  0.00000000000E+00 -0.67253524473E+03  0.68405320086E+03  0.12500050483E+03 0.  0.
    9000005    1    3    3    0    0 -0.52784369435E+02 -0.57115807741E+01 -0.15588822568E+03  0.16468439731E+03  0.10000000000E+01 0.  0.
    9000005    1    3    3    0    0  0.52784369435E+02  0.57115807741E+01 -0.51664701906E+03  0.51936880356E+03  0.10000000000E+01 0.  0.
<mgrwt>
<rscale>  0 0.12500050E+03</rscale>
<asrwt>0</asrwt>
<pdfrwt beam="2">  1        4 0.10435289E+00 0.12500050E+03</pdfrwt>
<pdfrwt beam="1">  1       -4 0.88599717E-03 0.12500050E+03</pdfrwt>
<totfact> 0.43941517E+03</totfact>
</mgrwt>
</event>
<event>
 5    1  0.3422688E-002  0.1249988E+03  0.7818608E-02  0.1235071E+00
         -4   -1    0    0    0  501 -0.00000000000E+00  0.00000000000E+00  0.10489076452E+02  0.10565681465E+02  0.12700000000E+01 0. -1.
          4   -1    0    0  501    0  0.00000000000E+00 -0.00000000000E+00 -0.37097162642E+03  0.37097380030E+03  0.12700000000E+01 0. -1.
         25    2    1    2    0    0  0.00000000000E+00  0.00000000000E+00 -0.36048254996E+03  0.38153948176E+03  0.12499882925E+03 0.  0.
    9000005    1    3    3    0    0  0.13827791343E+02 -0.17876528036E+02 -0.35807534584E+03  0.35878925759E+03  0.10000000000E+01 0.  0.
    9000005    1    3    3    0    0 -0.13827791343E+02  0.17876528036E+02 -0.24072041293E+01  0.22750224170E+02  0.10000000000E+01 0.  0.
<mgrwt>
<rscale>  0 0.12499883E+03</rscale>
<asrwt>0</asrwt>
<pdfrwt beam="2">  1        4 0.57078608E-01 0.12499883E+03</pdfrwt>
<pdfrwt beam="1">  1       -4 0.16197643E-02 0.12499883E+03</pdfrwt>
<totfact> 0.66390446E+03</totfact>
</mgrwt>
</event>
<event>
 5    1  0.3422688E-002  0.1250060E+03  0.7818608E-02  0.1235060E+00
         -4   -1    0    0    0  501 -0.00000000000E+00  0.00000000000E+00  0.10435589780E+04  0.10435597508E+04  0.12700000000E+01 0. -1.
          4   -1    0    0  501    0  0.00000000000E+00 -0.00000000000E+00 -0.36350514049E+01  0.38505192788E+01  0.12700000000E+01 0. -1.
         25    2    1    2    0    0  0.00000000000E+00  0.00000000000E+00  0.10399239266E+04  0.10474102701E+04  0.12500600280E+03 0.  0.
    9000005    1    3    3    0    0 -0.47939920739E+02  0.58417826581E+01  0.18761892124E+03  0.19373750806E+03  0.10000000000E+01 0.  0.
    9000005    1    3    3    0    0  0.47939920739E+02 -0.58417826581E+01  0.85230500535E+03  0.85367276199E+03  0.10000000000E+01 0.  0.
<mgrwt>
<rscale>  0 0.12500600E+03</rscale>
<asrwt>0</asrwt>
<pdfrwt beam="2">  1        4 0.57587181E-03 0.12500600E+03</pdfrwt>
<pdfrwt beam="1">  1       -4 0.16056438E+00 0.12500600E+03</pdfrwt>
<totfact> 0.29071916E+03</totfact>
</mgrwt>
</event>
<event>
 5    1  0.3422688E-002  0.1250426E+03  0.7818608E-02  0.1235003E+00
          4   -1    0    0  501    0  0.00000000000E+00  0.00000000000E+00  0.29288226435E+02  0.29315748459E+02  0.12700000000E+01 0.  1.
         -4   -1    0    0    0  501 -0.00000000000E+00 -0.00000000000E+00 -0.13337045524E+03  0.13337650179E+03  0.12700000000E+01 0.  1.
         25    2    1    2    0    0  0.00000000000E+00  0.00000000000E+00 -0.10408222880E+03  0.16269225025E+03  0.12504262449E+03 0.  0.
    9000005    1    3    3    0    0  0.55639426333E+02 -0.25538265366E+02 -0.35585191120E+02  0.70818462195E+02  0.10000000000E+01 0.  0.
    9000005    1    3    3    0    0 -0.55639426333E+02  0.25538265366E+02 -0.68497037682E+02  0.91873788056E+02  0.10000000000E+01 0.  0.
<mgrwt>
<rscale>  0 0.12504262E+03</rscale>
<asrwt>0</asrwt>
<pdfrwt beam="1">  1        4 0.45084633E-02 0.12504262E+03</pdfrwt>
<pdfrwt beam="2">  1       -4 0.20521113E-01 0.12504262E+03</pdfrwt>
<totfact> 0.96733556E+03</totfact>
</mgrwt>
</event>
<event>
 5    1  0.3422688E-002  0.1250024E+03  0.7818608E-02  0.1235066E+00
         -4   -1    0    0    0  501 -0.00000000000E+00  0.00000000000E+00  0.21721318820E+02  0.21758414264E+02  0.12700000000E+01 0. -1.
          4   -1    0    0  501    0  0.00000000000E+00 -0.00000000000E+00 -0.17964889719E+03  0.17965338617E+03  0.12700000000E+01 0. -1.
         25    2    1    2    0    0  0.00000000000E+00  0.00000000000E+00 -0.15792757838E+03  0.20141180044E+03  0.12500237335E+03 0.  0.
    9000005    1    3    3    0    0 -0.12188756862E+02 -0.42180421274E+02 -0.15061784491E+03  0.15689005366E+03  0.10000000000E+01 0.  0.
    9000005    1    3    3    0    0  0.12188756862E+02  0.42180421274E+02 -0.73097334681E+01  0.44521746777E+02  0.10000000000E+01 0.  0.
<mgrwt>
<rscale>  0 0.12500237E+03</rscale>
<asrwt>0</asrwt>
<pdfrwt beam="2">  1        4 0.27641490E-01 0.12500237E+03</pdfrwt>
<pdfrwt beam="1">  1       -4 0.33449403E-02 0.12500237E+03</pdfrwt>
<totfact> 0.89893167E+03</totfact>
</mgrwt>
</event>
<event>
 5    1  0.3422688E-002  0.1249997E+03  0.7818608E-02  0.1235070E+00
          4   -1    0    0  501    0  0.00000000000E+00  0.00000000000E+00  0.29953131945E+03  0.29953401181E+03  0.12700000000E+01 0. -1.
         -4   -1    0    0    0  501 -0.00000000000E+00 -0.00000000000E+00 -0.13007474340E+02  0.13069326253E+02  0.12700000000E+01 0. -1.
         25    2    1    2    0    0  0.00000000000E+00  0.00000000000E+00  0.28652384511E+03  0.31260333807E+03  0.12499973261E+03 0.  0.
    9000005    1    3    3    0    0 -0.15583770149E+02 -0.81336175086E+01 -0.67092801539E+01  0.18842082316E+02  0.10000000000E+01 0.  0.
    9000005    1    3    3    0    0  0.15583770149E+02  0.81336175086E+01  0.29323312527E+03  0.29376125575E+03  0.10000000000E+01 0.  0.
<mgrwt>
<rscale>  0 0.12499973E+03</rscale>
<asrwt>0</asrwt>
<pdfrwt beam="1">  1        4 0.46086703E-01 0.12499973E+03</pdfrwt>
<pdfrwt beam="2">  1       -4 0.20061150E-02 0.12499973E+03</pdfrwt>
<totfact> 0.74045023E+03</totfact>
</mgrwt>
</event>
<event>
 5    1  0.3422688E-002  0.1250008E+03  0.7818608E-02  0.1235068E+00
         -4   -1    0    0    0  501 -0.00000000000E+00  0.00000000000E+00  0.83959623466E+02  0.83969228129E+02  0.12700000000E+01 0. -1.
          4   -1    0    0  501    0  0.00000000000E+00 -0.00000000000E+00 -0.46505015238E+02  0.46522353146E+02  0.12700000000E+01 0. -1.
         25    2    1    2    0    0  0.00000000000E+00  0.00000000000E+00  0.37454608228E+02  0.13049158128E+03  0.12500082042E+03 0.  0.
    9000005    1    3    3    0    0 -0.39342207217E+02 -0.46904229540E+02  0.56267524205E+01  0.61485578473E+02  0.10000000000E+01 0.  0.
    9000005    1    3    3    0    0  0.39342207217E+02  0.46904229540E+02  0.31827855808E+02  0.69006002802E+02  0.10000000000E+01 0.  0.
<mgrwt>
<rscale>  0 0.12500082E+03</rscale>
<asrwt>0</asrwt>
<pdfrwt beam="2">  1        4 0.71566902E-02 0.12500082E+03</pdfrwt>
<pdfrwt beam="1">  1       -4 0.12918938E-01 0.12500082E+03</pdfrwt>
<totfact> 0.10333810E+04</totfact>
</mgrwt>
</event>
<event>
 5    1  0.3422688E-002  0.1250026E+03  0.7818608E-02  0.1235065E+00
         -4   -1    0    0    0  501 -0.00000000000E+00  0.00000000000E+00  0.43704378177E+03  0.43704562701E+03  0.12700000000E+01 0. -1.
          4   -1    0    0  501    0  0.00000000000E+00 -0.00000000000E+00 -0.88912733393E+01  0.89815166645E+01  0.12700000000E+01 0. -1.
         25    2    1    2    0    0  0.00000000000E+00  0.00000000000E+00  0.42815250843E+03  0.44602714367E+03  0.12500256963E+03 0.  0.
    9000005    1    3    3    0    0 -0.27538002675E+02 -0.52523010737E+02  0.14375553954E+03  0.15551097516E+03  0.10000000000E+01 0.  0.
    9000005    1    3    3    0    0  0.27538002675E+02  0.52523010737E+02  0.28439696889E+03  0.29051616851E+03  0.10000000000E+01 0.  0.
<mgrwt>
<rscale>  0 0.12500257E+03</rscale>
<asrwt>0</asrwt>
<pdfrwt beam="2">  1        4 0.13749720E-02 0.12500257E+03</pdfrwt>
<pdfrwt beam="1">  1       -4 0.67244584E-01 0.12500257E+03</pdfrwt>
<totfact> 0.60306102E+03</totfact>
</mgrwt>
</event>
<event>
 5    1  0.3422688E-002  0.1249966E+03  0.7818608E-02  0.1235075E+00
          4   -1    0    0  501    0  0.00000000000E+00  0.00000000000E+00  0.17220749569E+02  0.17267516200E+02  0.12700000000E+01 0.  1.
         -4   -1    0    0    0  501 -0.00000000000E+00 -0.00000000000E+00 -0.22646557901E+03  0.22646914001E+03  0.12700000000E+01 0.  1.
         25    2    1    2    0    0  0.00000000000E+00  0.00000000000E+00 -0.20924482944E+03  0.24373665621E+03  0.12499663568E+03 0.  0.
    9000005    1    3    3    0    0 -0.31148802375E+02 -0.57221203777E+01  0.42247003544E+00  0.31688626223E+02  0.10000000000E+01 0.  0.
    9000005    1    3    3    0    0  0.31148802375E+02  0.57221203777E+01 -0.20966729947E+03  0.21204802998E+03  0.10000000000E+01 0.  0.
<mgrwt>
<rscale>  0 0.12499664E+03</rscale>
<asrwt>0</asrwt>
<pdfrwt beam="1">  1        4 0.26532176E-02 0.12499664E+03</pdfrwt>
<pdfrwt beam="2">  1       -4 0.34844727E-01 0.12499664E+03</pdfrwt>
<totfact> 0.83250230E+03</totfact>
</mgrwt>
</event>
<event>
 5    1  0.3422688E-002  0.1249988E+03  0.7818608E-02  0.1235071E+00
          4   -1    0    0  501    0  0.00000000000E+00  0.00000000000E+00  0.80848862318E+02  0.80858836488E+02  0.12700000000E+01 0. -1.
         -4   -1    0    0    0  501 -0.00000000000E+00 -0.00000000000E+00 -0.48293204345E+02  0.48309900496E+02  0.12700000000E+01 0. -1.
         25    2    1    2    0    0  0.00000000000E+00  0.00000000000E+00  0.32555657973E+02  0.12916873698E+03  0.12499876699E+03 0.  0.
    9000005    1    3    3    0    0 -0.44075585508E+02  0.17151784818E+02 -0.25929990934E+02  0.53946319524E+02  0.10000000000E+01 0.  0.
    9000005    1    3    3    0    0  0.44075585508E+02 -0.17151784818E+02  0.58485648907E+02  0.75222417460E+02  0.10000000000E+01 0.  0.
<mgrwt>
<rscale>  0 0.12499877E+03</rscale>
<asrwt>0</asrwt>
<pdfrwt beam="1">  1        4 0.12440338E-01 0.12499877E+03</pdfrwt>
<pdfrwt beam="2">  1       -4 0.74317754E-02 0.12499877E+03</pdfrwt>
<totfact> 0.10362611E+04</totfact>
</mgrwt>
</event>
<event>
 5    1  0.3422688E-002  0.1250025E+03  0.7818608E-02  0.1235065E+00
         -4   -1    0    0    0  501 -0.00000000000E+00  0.00000000000E+00  0.43452321667E+02  0.43470877128E+02  0.12700000000E+01 0.  1.
          4   -1    0    0  501    0  0.00000000000E+00 -0.00000000000E+00 -0.89858685228E+02  0.89867659427E+02  0.12700000000E+01 0.  1.
         25    2    1    2    0    0  0.00000000000E+00  0.00000000000E+00 -0.46406363560E+02  0.13333853655E+03  0.12500245898E+03 0.  0.
    9000005    1    3    3    0    0  0.99357186984E-01 -0.25646516740E+02  0.37585361635E+02  0.45512779546E+02  0.10000000000E+01 0.  0.
    9000005    1    3    3    0    0 -0.99357186984E-01  0.25646516740E+02 -0.83991725196E+02  0.87825757008E+02  0.10000000000E+01 0.  0.
<mgrwt>
<rscale>  0 0.12500246E+03</rscale>
<asrwt>0</asrwt>
<pdfrwt beam="2">  1        4 0.13826531E-01 0.12500246E+03</pdfrwt>
<pdfrwt beam="1">  1       -4 0.66870902E-02 0.12500246E+03</pdfrwt>
<totfact> 0.10272640E+04</totfact>
</mgrwt>
</event>
<event>
 5    1  0.3422688E-002  0.1249993E+03  0.7818608E-02  0.1235070E+00
          4   -1    0    0  501    0  0.00000000000E+00  0.00000000000E+00  0.30315368512E+02  0.30341958869E+02  0.12700000000E+01 0. -1.
         -4   -1    0    0    0  501 -0.00000000000E+00 -0.00000000000E+00 -0.12876618647E+03  0.12877244922E+03  0.12700000000E+01 0. -1.
         25    2    1    2    0    0  0.00000000000E+00  0.00000000000E+00 -0.98450817954E+02  0.15911440809E+03  0.12499932522E+03 0.  0.
    9000005    1    3    3    0    0 -0.52831109646E+02  0.22001819262E+02 -0.81175542329E+02  0.99326103667E+02  0.10000000000E+01 0.  0.
    9000005    1    3    3    0    0  0.52831109646E+02 -0.22001819262E+02 -0.17275275625E+02  0.59788304418E+02  0.10000000000E+01 0.  0.
<mgrwt>
<rscale>  0 0.12499933E+03</rscale>
<asrwt>0</asrwt>
<pdfrwt beam="1">  1        4 0.46664301E-02 0.12499933E+03</pdfrwt>
<pdfrwt beam="2">  1       -4 0.19812709E-01 0.12499933E+03</pdfrwt>
<totfact> 0.97515271E+03</totfact>
</mgrwt>
</event>
<event>
 5    1  0.3422688E-002  0.1249916E+03  0.7818608E-02  0.1235082E+00
         -4   -1    0    0    0  501 -0.00000000000E+00  0.00000000000E+00  0.61240677656E+02  0.61253844775E+02  0.12700000000E+01 0.  1.
          4   -1    0    0  501    0  0.00000000000E+00 -0.00000000000E+00 -0.63750254621E+02  0.63762903511E+02  0.12700000000E+01 0.  1.
         25    2    1    2    0    0  0.00000000000E+00  0.00000000000E+00 -0.25095769647E+01  0.12501674829E+03  0.12499155722E+03 0.  0.
    9000005    1    3    3    0    0 -0.55827125726E+02  0.27314269468E+02 -0.77356823799E+01  0.62638471128E+02  0.10000000000E+01 0.  0.
    9000005    1    3    3    0    0  0.55827125726E+02 -0.27314269468E+02  0.52261054152E+01  0.62378277158E+02  0.10000000000E+01 0.  0.
<mgrwt>
<rscale>  0 0.12499156E+03</rscale>
<asrwt>0</asrwt>
<pdfrwt beam="2">  1        4 0.98097173E-02 0.12499156E+03</pdfrwt>
<pdfrwt beam="1">  1       -4 0.94236285E-02 0.12499156E+03</pdfrwt>
<totfact> 0.10454493E+04</totfact>
</mgrwt>
</event>
<event>
 5    1  0.3422688E-002  0.1250016E+03  0.7818608E-02  0.1235067E+00
          4   -1    0    0  501    0  0.00000000000E+00  0.00000000000E+00  0.62302990466E+02  0.62315933123E+02  0.12700000000E+01 0.  1.
         -4   -1    0    0    0  501 -0.00000000000E+00 -0.00000000000E+00 -0.62673318637E+02  0.62686184833E+02  0.12700000000E+01 0.  1.
         25    2    1    2    0    0  0.00000000000E+00  0.00000000000E+00 -0.37032817019E+00  0.12500211796E+03  0.12500156939E+03 0.  0.
    9000005    1    3    3    0    0  0.53841221117E+02  0.44971407917E+01 -0.31589867192E+02  0.62594097772E+02  0.10000000000E+01 0.  0.
    9000005    1    3    3    0    0 -0.53841221117E+02 -0.44971407917E+01  0.31219539022E+02  0.62408020185E+02  0.10000000000E+01 0.  0.
<mgrwt>
<rscale>  0 0.12500157E+03</rscale>
<asrwt>0</asrwt>
<pdfrwt beam="1">  1        4 0.95870607E-02 0.12500157E+03</pdfrwt>
<pdfrwt beam="2">  1       -4 0.96440343E-02 0.12500157E+03</pdfrwt>
<totfact> 0.10452446E+04</totfact>
</mgrwt>
</event>
<event>
 5    1  0.3422688E-002  0.1249963E+03  0.7818608E-02  0.1235075E+00
         -4   -1    0    0    0  501 -0.00000000000E+00  0.00000000000E+00  0.41365533035E+03  0.41365727992E+03  0.12700000000E+01 0. -1.
          4   -1    0    0  501    0  0.00000000000E+00 -0.00000000000E+00 -0.93980066495E+01  0.94834291786E+01  0.12700000000E+01 0. -1.
         25    2    1    2    0    0  0.00000000000E+00  0.00000000000E+00  0.40425732370E+03  0.42314070910E+03  0.12499630365E+03 0.  0.
    9000005    1    3    3    0    0  0.45419718600E+02 -0.19693495767E+01  0.56990099873E+02  0.72908851719E+02  0.10000000000E+01 0.  0.
    9000005    1    3    3    0    0 -0.45419718600E+02  0.19693495767E+01  0.34726722383E+03  0.35023185738E+03  0.10000000000E+01 0.  0.
<mgrwt>
<rscale>  0 0.12499630E+03</rscale>
<asrwt>0</asrwt>
<pdfrwt beam="2">  1        4 0.14525678E-02 0.12499630E+03</pdfrwt>
<pdfrwt beam="1">  1       -4 0.63646018E-01 0.12499630E+03</pdfrwt>
<totfact> 0.62367777E+03</totfact>
</mgrwt>
</event>
<event>
 5    1  0.3422688E-002  0.1249982E+03  0.7818608E-02  0.1235072E+00
         -4   -1    0    0    0  501 -0.00000000000E+00  0.00000000000E+00  0.15309009082E+03  0.15309535854E+03  0.12700000000E+01 0. -1.
          4   -1    0    0  501    0  0.00000000000E+00 -0.00000000000E+00 -0.25493776803E+02  0.25525390412E+02  0.12700000000E+01 0. -1.
         25    2    1    2    0    0  0.00000000000E+00  0.00000000000E+00  0.12759631401E+03  0.17862074895E+03  0.12499821041E+03 0.  0.
    9000005    1    3    3    0    0  0.49621229310E+01 -0.46953950431E+02  0.12229664613E+03  0.13109830578E+03  0.10000000000E+01 0.  0.
    9000005    1    3    3    0    0 -0.49621229310E+01  0.46953950431E+02  0.52996678870E+01  0.47522443170E+02  0.10000000000E+01 0.  0.
<mgrwt>
<rscale>  0 0.12499821E+03</rscale>
<asrwt>0</asrwt>
<pdfrwt beam="2">  1        4 0.39249566E-02 0.12499821E+03</pdfrwt>
<pdfrwt beam="1">  1       -4 0.23555158E-01 0.12499821E+03</pdfrwt>
<totfact> 0.93869631E+03</totfact>
</mgrwt>
</event>
<event>
 4    1  0.3422688E-002  0.1247520E+03  0.7818608E-02  0.1235457E+00
         -4   -1    0    0    0  501 -0.00000000000E+00  0.00000000000E+00  0.85344690110E+02  0.85354138915E+02  0.12700000000E+01 0. -1.
          4   -1    0    0  501    0  0.00000000000E+00 -0.00000000000E+00 -0.45568001932E+02  0.45585696222E+02  0.12700000000E+01 0. -1.
    9000005    1    1    2    0    0  0.16876001957E+02  0.17642635913E+02 -0.40349094603E+02  0.47171087324E+02  0.10000000000E+01 0.  0.
    9000005    1    1    2    0    0 -0.16876001957E+02 -0.17642635913E+02  0.80125782781E+02  0.83768747814E+02  0.10000000000E+01 0.  0.
<mgrwt>
<rscale>  0 0.12475198E+03</rscale>
<asrwt>0</asrwt>
<pdfrwt beam="2">  1        4 0.70125498E-02 0.12475198E+03</pdfrwt>
<pdfrwt beam="1">  1       -4 0.13132040E-01 0.12475198E+03</pdfrwt>
<totfact> 0.10382364E+04</totfact>
</mgrwt>
</event>
<event>
 5    1  0.3422688E-002  0.1249984E+03  0.7818608E-02  0.1235072E+00
          4   -1    0    0  501    0  0.00000000000E+00  0.00000000000E+00  0.88481345650E+03  0.88481436794E+03  0.12700000000E+01 0.  1.
         -4   -1    0    0    0  501 -0.00000000000E+00 -0.00000000000E+00 -0.43223855333E+01  0.45050989665E+01  0.12700000000E+01 0.  1.
         25    2    1    2    0    0  0.00000000000E+00  0.00000000000E+00  0.88049107097E+03  0.88931946690E+03  0.12499835262E+03 0.  0.
    9000005    1    3    3    0    0  0.28839707928E+02 -0.55242388489E+02  0.47338544755E+03  0.47747066108E+03  0.10000000000E+01 0.  0.
    9000005    1    3    3    0    0 -0.28839707928E+02  0.55242388489E+02  0.40710562342E+03  0.41184880582E+03  0.10000000000E+01 0.  0.
<mgrwt>
<rscale>  0 0.12499835E+03</rscale>
<asrwt>0</asrwt>
<pdfrwt beam="1">  1        4 0.13613916E+00 0.12499835E+03</pdfrwt>
<pdfrwt beam="2">  1       -4 0.67910794E-03 0.12499835E+03</pdfrwt>
<totfact> 0.34571314E+03</totfact>
</mgrwt>
</event>
<event>
 5    1  0.3422688E-002  0.1249962E+03  0.7818608E-02  0.1235075E+00
         -4   -1    0    0    0  501 -0.00000000000E+00  0.00000000000E+00  0.21931373088E+02  0.21968113836E+02  0.12700000000E+01 0.  1.
          4   -1    0    0  501    0  0.00000000000E+00 -0.00000000000E+00 -0.17791353351E+03  0.17791806627E+03  0.12700000000E+01 0.  1.
         25    2    1    2    0    0  0.00000000000E+00  0.00000000000E+00 -0.15598216042E+03  0.19988618011E+03  0.12499620246E+03 0.  0.
    9000005    1    3    3    0    0 -0.20103735326E+02 -0.55342692925E+02 -0.44522117600E+02  0.73825421028E+02  0.10000000000E+01 0.  0.
    9000005    1    3    3    0    0  0.20103735326E+02  0.55342692925E+02 -0.11146004282E+03  0.12606075908E+03  0.10000000000E+01 0.  0.
<mgrwt>
<rscale>  0 0.12499620E+03</rscale>
<asrwt>0</asrwt>
<pdfrwt beam="2">  1        4 0.27374487E-01 0.12499620E+03</pdfrwt>
<pdfrwt beam="1">  1       -4 0.33772324E-02 0.12499620E+03</pdfrwt>
<totfact> 0.90162369E+03</totfact>
</mgrwt>
</event>
<event>
 4    1  0.3422688E-002  0.1247217E+03  0.7818608E-02  0.1235505E+00
          4   -1    0    0  501    0  0.00000000000E+00  0.00000000000E+00  0.11478320012E+03  0.11479022576E+03  0.12700000000E+01 0. -1.
         -4   -1    0    0    0  501 -0.00000000000E+00 -0.00000000000E+00 -0.33860219743E+02  0.33884028406E+02  0.12700000000E+01 0. -1.
    9000005    1    1    2    0    0  0.17545385153E+02 -0.25790860791E+02 -0.23896592724E+02  0.39307202703E+02  0.10000000000E+01 0.  0.
    9000005    1    1    2    0    0 -0.17545385153E+02  0.25790860791E+02  0.10481957310E+03  0.10936705146E+03  0.10000000000E+01 0.  0.
<mgrwt>
<rscale>  0 0.12472171E+03</rscale>
<asrwt>0</asrwt>
<pdfrwt beam="1">  1        4 0.17661326E-01 0.12472171E+03</pdfrwt>
<pdfrwt beam="2">  1       -4 0.52116363E-02 0.12472171E+03</pdfrwt>
<totfact> 0.10019490E+04</totfact>
</mgrwt>
</event>
<event>
 5    1  0.3422688E-002  0.1249987E+03  0.7818608E-02  0.1235071E+00
          4   -1    0    0  501    0  0.00000000000E+00  0.00000000000E+00  0.24247475577E+03  0.24247808166E+03  0.12700000000E+01 0.  1.
         -4   -1    0    0    0  501 -0.00000000000E+00 -0.00000000000E+00 -0.16081107452E+02  0.16131178410E+02  0.12700000000E+01 0.  1.
         25    2    1    2    0    0  0.00000000000E+00  0.00000000000E+00  0.22639364832E+03  0.25860926007E+03  0.12499866158E+03 0.  0.
    9000005    1    3    3    0    0 -0.34384739947E+02 -0.42065592045E+02  0.17707655332E+03  0.18522669924E+03  0.10000000000E+01 0.  0.
    9000005    1    3    3    0    0  0.34384739947E+02  0.42065592045E+02  0.49317095001E+02  0.73382560835E+02  0.10000000000E+01 0.  0.
<mgrwt>
<rscale>  0 0.12499866E+03</rscale>
<asrwt>0</asrwt>
<pdfrwt beam="1">  1        4 0.37307919E-01 0.12499866E+03</pdfrwt>
<pdfrwt beam="2">  1       -4 0.24781238E-02 0.12499866E+03</pdfrwt>
<totfact> 0.81104041E+03</totfact>
</mgrwt>
</event>
<event>
 5    1  0.3422688E-002  0.1250017E+03  0.7818608E-02  0.1235067E+00
         -4   -1    0    0    0  501 -0.00000000000E+00  0.00000000000E+00  0.21802758752E+02  0.21839715868E+02  0.12700000000E+01 0.  1.
          4   -1    0    0  501    0  0.00000000000E+00 -0.00000000000E+00 -0.17897712441E+03  0.17898163023E+03  0.12700000000E+01 0.  1.
         25    2    1    2    0    0  0.00000000000E+00  0.00000000000E+00 -0.15717436565E+03  0.20082134610E+03  0.12500172731E+03 0.  0.
    9000005    1    3    3    0    0 -0.44489411159E+02  0.35307346797E+02 -0.12046363679E+03  0.13318560069E+03  0.10000000000E+01 0.  0.
    9000005    1    3    3    0    0  0.44489411159E+02 -0.35307346797E+02 -0.36710728866E+02  0.67635745409E+02  0.10000000000E+01 0.  0.
<mgrwt>
<rscale>  0 0.12500173E+03</rscale>
<asrwt>0</asrwt>
<pdfrwt beam="2">  1        4 0.27538131E-01 0.12500173E+03</pdfrwt>
<pdfrwt beam="1">  1       -4 0.33574602E-02 0.12500173E+03</pdfrwt>
<totfact> 0.89993687E+03</totfact>
</mgrwt>
</event>
<event>
 5    1  0.3422688E-002  0.1250017E+03  0.7818608E-02  0.1235067E+00
          4   -1    0    0  501    0  0.00000000000E+00  0.00000000000E+00  0.25416813005E+02  0.25448522223E+02  0.12700000000E+01 0. -1.
         -4   -1    0    0    0  501 -0.00000000000E+00 -0.00000000000E+00 -0.15356164992E+03  0.15356690147E+03  0.12700000000E+01 0. -1.
         25    2    1    2    0    0  0.00000000000E+00  0.00000000000E+00 -0.12814483692E+03  0.17901542369E+03  0.12500169075E+03 0.  0.
    9000005    1    3    3    0    0 -0.49970991819E+02 -0.37336002360E+02 -0.58660926347E+02  0.85633996611E+02  0.10000000000E+01 0.  0.
    9000005    1    3    3    0    0  0.49970991819E+02  0.37336002360E+02 -0.69483910570E+02  0.93381427081E+02  0.10000000000E+01 0.  0.
<mgrwt>
<rscale>  0 0.12500169E+03</rscale>
<asrwt>0</asrwt>
<pdfrwt beam="1">  1        4 0.39131221E-02 0.12500169E+03</pdfrwt>
<pdfrwt beam="2">  1       -4 0.23627712E-01 0.12500169E+03</pdfrwt>
<totfact> 0.93790975E+03</totfact>
</mgrwt>
</event>
<event>
 5    1  0.3422688E-002  0.1249836E+03  0.7818608E-02  0.1235095E+00
          4   -1    0    0  501    0  0.00000000000E+00  0.00000000000E+00  0.10803187249E+03  0.10803933716E+03  0.12700000000E+01 0. -1.
         -4   -1    0    0    0  501 -0.00000000000E+00 -0.00000000000E+00 -0.36128928396E+02  0.36151242953E+02  0.12700000000E+01 0. -1.
         25    2    1    2    0    0  0.00000000000E+00  0.00000000000E+00  0.71902944094E+02  0.14419058011E+03  0.12498355901E+03 0.  0.
    9000005    1    3    3    0    0  0.41583610206E+02  0.10243504033E+01 -0.17839752585E+02  0.45271433640E+02  0.10000000000E+01 0.  0.
    9000005    1    3    3    0    0 -0.41583610206E+02 -0.10243504033E+01  0.89742696680E+02  0.98919146473E+02  0.10000000000E+01 0.  0.
<mgrwt>
<rscale>  0 0.12498356E+03</rscale>
<asrwt>0</asrwt>
<pdfrwt beam="1">  1        4 0.16622579E-01 0.12498356E+03</pdfrwt>
<pdfrwt beam="2">  1       -4 0.55605875E-02 0.12498356E+03</pdfrwt>
<totfact> 0.10051181E+04</totfact>
</mgrwt>
</event>
<event>
 5    1  0.3422688E-002  0.1249999E+03  0.7818608E-02  0.1235069E+00
          4   -1    0    0  501    0  0.00000000000E+00  0.00000000000E+00  0.50386050604E+03  0.50386210658E+03  0.12700000000E+01 0. -1.
         -4   -1    0    0    0  501 -0.00000000000E+00 -0.00000000000E+00 -0.76989986507E+01  0.78030430105E+01  0.12700000000E+01 0. -1.
         25    2    1    2    0    0  0.00000000000E+00  0.00000000000E+00  0.49616150739E+03  0.51166514959E+03  0.12499993556E+03 0.  0.
    9000005    1    3    3    0    0  0.33547654992E+02 -0.12888830355E+02  0.38813072713E+02  0.52905781506E+02  0.10000000000E+01 0.  0.
    9000005    1    3    3    0    0 -0.33547654992E+02  0.12888830355E+02  0.45734843468E+03  0.45875936809E+03  0.10000000000E+01 0.  0.
<mgrwt>
<rscale>  0 0.12499994E+03</rscale>
<asrwt>0</asrwt>
<pdfrwt beam="1">  1        4 0.77525113E-01 0.12499994E+03</pdfrwt>
<pdfrwt beam="2">  1       -4 0.11925881E-02 0.12499994E+03</pdfrwt>
<totfact> 0.54970603E+03</totfact>
</mgrwt>
</event>
<event>
 5    1  0.3422688E-002  0.1250043E+03  0.7818608E-02  0.1235063E+00
          4   -1    0    0  501    0  0.00000000000E+00  0.00000000000E+00  0.42111588098E+03  0.42111779601E+03  0.12700000000E+01 0.  1.
         -4   -1    0    0    0  501 -0.00000000000E+00 -0.00000000000E+00 -0.92311754044E+01  0.93181274593E+01  0.12700000000E+01 0.  1.
         25    2    1    2    0    0  0.00000000000E+00  0.00000000000E+00  0.41188470558E+03  0.43043592347E+03  0.12500429402E+03 0.  0.
    9000005    1    3    3    0    0  0.17034155814E+02  0.60105096735E+02  0.21163513131E+03  0.22066538905E+03  0.10000000000E+01 0.  0.
    9000005    1    3    3    0    0 -0.17034155814E+02 -0.60105096735E+02  0.20024957426E+03  0.20977053442E+03  0.10000000000E+01 0.  0.
<mgrwt>
<rscale>  0 0.12500429E+03</rscale>
<asrwt>0</asrwt>
<pdfrwt beam="1">  1        4 0.64793883E-01 0.12500429E+03</pdfrwt>
<pdfrwt beam="2">  1       -4 0.14270170E-02 0.12500429E+03</pdfrwt>
<totfact> 0.61690661E+03</totfact>
</mgrwt>
</event>
<event>
 5    1  0.3422688E-002  0.1250025E+03  0.7818608E-02  0.1235065E+00
         -4   -1    0    0    0  501 -0.00000000000E+00  0.00000000000E+00  0.59799636435E+03  0.59799771293E+03  0.12700000000E+01 0. -1.
          4   -1    0    0  501    0  0.00000000000E+00 -0.00000000000E+00 -0.64693919096E+01  0.65928697606E+01  0.12700000000E+01 0. -1.
         25    2    1    2    0    0  0.00000000000E+00  0.00000000000E+00  0.59152697244E+03  0.60459058269E+03  0.12500245422E+03 0.  0.
    9000005    1    3    3    0    0 -0.22614479163E+02  0.58168290875E+02  0.31139011126E+03  0.31758426617E+03  0.10000000000E+01 0.  0.
    9000005    1    3    3    0    0  0.22614479163E+02 -0.58168290875E+02  0.28013686118E+03  0.28700631652E+03  0.10000000000E+01 0.  0.
<mgrwt>
<rscale>  0 0.12500245E+03</rscale>
<asrwt>0</asrwt>
<pdfrwt beam="2">  1        4 0.10048932E-02 0.12500245E+03</pdfrwt>
<pdfrwt beam="1">  1       -4 0.92009036E-01 0.12500245E+03</pdfrwt>
<totfact> 0.48576504E+03</totfact>
</mgrwt>
</event>
<event>
 5    1  0.3422688E-002  0.1250066E+03  0.7818608E-02  0.1235059E+00
          4   -1    0    0  501    0  0.00000000000E+00  0.00000000000E+00  0.90705106608E+01  0.91589881345E+01  0.12700000000E+01 0. -1.
         -4   -1    0    0    0  501 -0.00000000000E+00 -0.00000000000E+00 -0.42851920165E+03  0.42852108360E+03  0.12700000000E+01 0. -1.
         25    2    1    2    0    0  0.00000000000E+00  0.00000000000E+00 -0.41944869099E+03  0.43768007173E+03  0.12500656308E+03 0.  0.
    9000005    1    3    3    0    0  0.60148779658E+02 -0.91706787856E+01 -0.15975524635E+03  0.17095237870E+03  0.10000000000E+01 0.  0.
    9000005    1    3    3    0    0 -0.60148779658E+02  0.91706787856E+01 -0.25969344464E+03  0.26672769303E+03  0.10000000000E+01 0.  0.
<mgrwt>
<rscale>  0 0.12500656E+03</rscale>
<asrwt>0</asrwt>
<pdfrwt beam="1">  1        4 0.14024142E-02 0.12500656E+03</pdfrwt>
<pdfrwt beam="2">  1       -4 0.65932966E-01 0.12500656E+03</pdfrwt>
<totfact> 0.61037133E+03</totfact>
</mgrwt>
</event>
<event>
 5    1  0.3422688E-002  0.1249896E+03  0.7818608E-02  0.1235086E+00
         -4   -1    0    0    0  501 -0.00000000000E+00  0.00000000000E+00  0.15391812192E+03  0.15392336131E+03  0.12700000000E+01 0.  1.
          4   -1    0    0  501    0  0.00000000000E+00 -0.00000000000E+00 -0.25352964171E+02  0.25384753145E+02  0.12700000000E+01 0.  1.
         25    2    1    2    0    0  0.00000000000E+00  0.00000000000E+00  0.12856515775E+03  0.17930811445E+03  0.12498960005E+03 0.  0.
    9000005    1    3    3    0    0  0.57951464969E+02 -0.11525946459E+02  0.93450196065E+02  0.11056744041E+03  0.10000000000E+01 0.  0.
    9000005    1    3    3    0    0 -0.57951464969E+02  0.11525946459E+02  0.35114961689E+02  0.68740674046E+02  0.10000000000E+01 0.  0.
<mgrwt>
<rscale>  0 0.12498960E+03</rscale>
<asrwt>0</asrwt>
<pdfrwt beam="2">  1        4 0.39033044E-02 0.12498960E+03</pdfrwt>
<pdfrwt beam="1">  1       -4 0.23682559E-01 0.12498960E+03</pdfrwt>
<totfact> 0.93763557E+03</totfact>
</mgrwt>
</event>
<event>
 4    1  0.3422688E-002  0.1251709E+03  0.7818608E-02  0.1234802E+00
         -4   -1    0    0    0  501 -0.00000000000E+00  0.00000000000E+00  0.24217407614E+03  0.24217740616E+03  0.12700000000E+01 0. -1.
          4   -1    0    0  501    0  0.00000000000E+00 -0.00000000000E+00 -0.16145691125E+02  0.16195562414E+02  0.12700000000E+01 0. -1.
    9000005    1    1    2    0    0 -0.46099473074E+02  0.12052799405E+02  0.19674662353E+03  0.20243681795E+03  0.10000000000E+01 0.  0.
    9000005    1    1    2    0    0  0.46099473074E+02 -0.12052799405E+02  0.29281761492E+02  0.55936150630E+02  0.10000000000E+01 0.  0.
<mgrwt>
<rscale>  0 0.12517092E+03</rscale>
<asrwt>0</asrwt>
<pdfrwt beam="2">  1        4 0.24880450E-02 0.12517092E+03</pdfrwt>
<pdfrwt beam="1">  1       -4 0.37261641E-01 0.12517092E+03</pdfrwt>
<totfact> 0.80826974E+03</totfact>
</mgrwt>
</event>
<event>
 5    1  0.3422688E-002  0.1250354E+03  0.7818608E-02  0.1235014E+00
         -4   -1    0    0    0  501 -0.00000000000E+00  0.00000000000E+00  0.19094428228E+03  0.19094850572E+03  0.12700000000E+01 0.  1.
          4   -1    0    0  501    0  0.00000000000E+00 -0.00000000000E+00 -0.20444961991E+02  0.20484368939E+02  0.12700000000E+01 0.  1.
         25    2    1    2    0    0  0.00000000000E+00  0.00000000000E+00  0.17049932029E+03  0.21143287466E+03  0.12503536406E+03 0.  0.
    9000005    1    3    3    0    0  0.80866839727E+01 -0.28000436703E+01  0.18995733068E+03  0.19015262865E+03  0.10000000000E+01 0.  0.
    9000005    1    3    3    0    0 -0.80866839727E+01  0.28000436703E+01 -0.19458010386E+02  0.21280246014E+02  0.10000000000E+01 0.  0.
<mgrwt>
<rscale>  0 0.12503536E+03</rscale>
<asrwt>0</asrwt>
<pdfrwt beam="2">  1        4 0.31487351E-02 0.12503536E+03</pdfrwt>
<pdfrwt beam="1">  1       -4 0.29379398E-01 0.12503536E+03</pdfrwt>
<totfact> 0.88172687E+03</totfact>
</mgrwt>
</event>
<event>
 5    1  0.3422688E-002  0.1249719E+03  0.7818608E-02  0.1235113E+00
          4   -1    0    0  501    0  0.00000000000E+00  0.00000000000E+00  0.52237414659E+02  0.52252850547E+02  0.12700000000E+01 0.  1.
         -4   -1    0    0    0  501 -0.00000000000E+00 -0.00000000000E+00 -0.74713290219E+02  0.74724083369E+02  0.12700000000E+01 0.  1.
         25    2    1    2    0    0  0.00000000000E+00  0.00000000000E+00 -0.22475875560E+02  0.12697693392E+03  0.12497190390E+03 0.  0.
    9000005    1    3    3    0    0  0.58581463073E+01 -0.30281039889E+02 -0.66444144526E+02  0.73260382176E+02  0.10000000000E+01 0.  0.
    9000005    1    3    3    0    0 -0.58581463073E+01  0.30281039889E+02  0.43968268966E+02  0.53716551739E+02  0.10000000000E+01 0.  0.
<mgrwt>
<rscale>  0 0.12497190E+03</rscale>
<asrwt>0</asrwt>
<pdfrwt beam="1">  1        4 0.80385429E-02 0.12497190E+03</pdfrwt>
<pdfrwt beam="2">  1       -4 0.11496370E-01 0.12497190E+03</pdfrwt>
<totfact> 0.10416252E+04</totfact>
</mgrwt>
</event>
<event>
 5    1  0.3422688E-002  0.1250019E+03  0.7818608E-02  0.1235066E+00
          4   -1    0    0  501    0  0.00000000000E+00  0.00000000000E+00  0.58785688164E+02  0.58799405039E+02  0.12700000000E+01 0. -1.
         -4   -1    0    0    0  501 -0.00000000000E+00 -0.00000000000E+00 -0.66423482893E+02  0.66435622821E+02  0.12700000000E+01 0. -1.
         25    2    1    2    0    0  0.00000000000E+00  0.00000000000E+00 -0.76377947283E+01  0.12523502786E+03  0.12500190516E+03 0.  0.
    9000005    1    3    3    0    0  0.27426434587E+02 -0.54631920214E+02  0.91865698416E+01  0.61824340562E+02  0.10000000000E+01 0.  0.
    9000005    1    3    3    0    0 -0.27426434587E+02  0.54631920214E+02 -0.16824364570E+02  0.63410687298E+02  0.10000000000E+01 0.  0.
<mgrwt>
<rscale>  0 0.12500191E+03</rscale>
<asrwt>0</asrwt>
<pdfrwt beam="1">  1        4 0.90459411E-02 0.12500191E+03</pdfrwt>
<pdfrwt beam="2">  1       -4 0.10220986E-01 0.12500191E+03</pdfrwt>
<totfact> 0.10447310E+04</totfact>
</mgrwt>
</event>
<event>
 5    1  0.3422688E-002  0.1249919E+03  0.7818608E-02  0.1235082E+00
          4   -1    0    0  501    0  0.00000000000E+00  0.00000000000E+00  0.65942068325E+02  0.65954296865E+02  0.12700000000E+01 0.  1.
         -4   -1    0    0    0  501 -0.00000000000E+00 -0.00000000000E+00 -0.59205440216E+02  0.59219059864E+02  0.12700000000E+01 0.  1.
         25    2    1    2    0    0  0.00000000000E+00  0.00000000000E+00  0.67366281086E+01  0.12517335673E+03  0.12499194805E+03 0.  0.
    9000005    1    3    3    0    0 -0.36008102600E+02  0.43092337208E+02  0.30816373007E+02  0.64063888613E+02  0.10000000000E+01 0.  0.
    9000005    1    3    3    0    0  0.36008102600E+02 -0.43092337208E+02 -0.24079744899E+02  0.61109468115E+02  0.10000000000E+01 0.  0.
<mgrwt>
<rscale>  0 0.12499195E+03</rscale>
<asrwt>0</asrwt>
<pdfrwt beam="1">  1        4 0.10146922E-01 0.12499195E+03</pdfrwt>
<pdfrwt beam="2">  1       -4 0.91105176E-02 0.12499195E+03</pdfrwt>
<totfact> 0.10451000E+04</totfact>
</mgrwt>
</event>
<event>
 5    1  0.3422688E-002  0.1249998E+03  0.7818608E-02  0.1235070E+00
          4   -1    0    0  501    0  0.00000000000E+00  0.00000000000E+00  0.99384629041E+02  0.99392743143E+02  0.12700000000E+01 0.  1.
         -4   -1    0    0    0  501 -0.00000000000E+00 -0.00000000000E+00 -0.39284253118E+02  0.39304776339E+02  0.12700000000E+01 0.  1.
         25    2    1    2    0    0  0.00000000000E+00  0.00000000000E+00  0.60100375923E+02  0.13869751948E+03  0.12499978690E+03 0.  0.
    9000005    1    3    3    0    0 -0.36305404969E+02 -0.37421834230E+02 -0.81742383822E+01  0.52785360473E+02  0.10000000000E+01 0.  0.
    9000005    1    3    3    0    0  0.36305404969E+02  0.37421834230E+02  0.68274614305E+02  0.85912159009E+02  0.10000000000E+01 0.  0.
<mgrwt>
<rscale>  0 0.12499979E+03</rscale>
<asrwt>0</asrwt>
<pdfrwt beam="1">  1        4 0.15292146E-01 0.12499979E+03</pdfrwt>
<pdfrwt beam="2">  1       -4 0.60459342E-02 0.12499979E+03</pdfrwt>
<totfact> 0.10160701E+04</totfact>
</mgrwt>
</event>
<event>
 5    1  0.3422688E-002  0.1249926E+03  0.7818608E-02  0.1235081E+00
          4   -1    0    0  501    0  0.00000000000E+00  0.00000000000E+00  0.56500237410E+02  0.56514508999E+02  0.12700000000E+01 0. -1.
         -4   -1    0    0    0  501 -0.00000000000E+00 -0.00000000000E+00 -0.69099868610E+02  0.69111538414E+02  0.12700000000E+01 0. -1.
         25    2    1    2    0    0  0.00000000000E+00  0.00000000000E+00 -0.12599631200E+02  0.12562604741E+03  0.12499261211E+03 0.  0.
    9000005    1    3    3    0    0  0.41955738614E+02 -0.46176393560E+02 -0.98168270542E+01  0.63165761440E+02  0.10000000000E+01 0.  0.
    9000005    1    3    3    0    0 -0.41955738614E+02  0.46176393560E+02 -0.27828041457E+01  0.62460285973E+02  0.10000000000E+01 0.  0.
<mgrwt>
<rscale>  0 0.12499261E+03</rscale>
<asrwt>0</asrwt>
<pdfrwt beam="1">  1        4 0.86943397E-02 0.12499261E+03</pdfrwt>
<pdfrwt beam="2">  1       -4 0.10632745E-01 0.12499261E+03</pdfrwt>
<totfact> 0.10440913E+04</totfact>
</mgrwt>
</event>
<event>
 5    1  0.3422688E-002  0.1249986E+03  0.7818608E-02  0.1235072E+00
         -4   -1    0    0    0  501 -0.00000000000E+00  0.00000000000E+00  0.12329736524E+03  0.12330390576E+03  0.12700000000E+01 0. -1.
          4   -1    0    0  501    0  0.00000000000E+00 -0.00000000000E+00 -0.31660700530E+02  0.31686161933E+02  0.12700000000E+01 0. -1.
         25    2    1    2    0    0  0.00000000000E+00  0.00000000000E+00  0.91636664709E+02  0.15499006769E+03  0.12499857105E+03 0.  0.
    9000005    1    3    3    0    0  0.13529264318E+02 -0.56885346590E+02  0.18478487686E+02  0.61330564621E+02  0.10000000000E+01 0.  0.
    9000005    1    3    3    0    0 -0.13529264318E+02  0.56885346590E+02  0.73158177023E+02  0.93659503068E+02  0.10000000000E+01 0.  0.
<mgrwt>
<rscale>  0 0.12499857E+03</rscale>
<asrwt>0</asrwt>
<pdfrwt beam="2">  1        4 0.48733388E-02 0.12499857E+03</pdfrwt>
<pdfrwt beam="1">  1       -4 0.18971287E-01 0.12499857E+03</pdfrwt>
<totfact> 0.98320609E+03</totfact>
</mgrwt>
</event>
<event>
 5    1  0.3422688E-002  0.1250028E+03  0.7818608E-02  0.1235065E+00
         -4   -1    0    0    0  501 -0.00000000000E+00  0.00000000000E+00  0.12584725617E+03  0.12585366417E+03  0.12700000000E+01 0.  1.
          4   -1    0    0  501    0  0.00000000000E+00 -0.00000000000E+00 -0.31020832352E+02  0.31046818513E+02  0.12700000000E+01 0.  1.
         25    2    1    2    0    0  0.00000000000E+00  0.00000000000E+00  0.94826423817E+02  0.15690048268E+03  0.12500284322E+03 0.  0.
    9000005    1    3    3    0    0  0.44034840006E+01 -0.62256694819E+02  0.51410306202E+02  0.80865977425E+02  0.10000000000E+01 0.  0.
    9000005    1    3    3    0    0 -0.44034840006E+01  0.62256694819E+02  0.43416117615E+02  0.76034505259E+02  0.10000000000E+01 0.  0.
<mgrwt>
<rscale>  0 0.12500284E+03</rscale>
<asrwt>0</asrwt>
<pdfrwt beam="2">  1        4 0.47749276E-02 0.12500284E+03</pdfrwt>
<pdfrwt beam="1">  1       -4 0.19363608E-01 0.12500284E+03</pdfrwt>
<totfact> 0.97937436E+03</totfact>
</mgrwt>
</event>
<event>
 5    1  0.3422688E-002  0.1250034E+03  0.7818608E-02  0.1235064E+00
          4   -1    0    0  501    0  0.00000000000E+00  0.00000000000E+00  0.36615188217E+02  0.36637206610E+02  0.12700000000E+01 0.  1.
         -4   -1    0    0    0  501 -0.00000000000E+00 -0.00000000000E+00 -0.10663175412E+03  0.10663931679E+03  0.12700000000E+01 0.  1.
         25    2    1    2    0    0  0.00000000000E+00  0.00000000000E+00 -0.70016565901E+02  0.14327652340E+03  0.12500337059E+03 0.  0.
    9000005    1    3    3    0    0 -0.26531464237E+02 -0.42875128258E+02  0.73115091007E+01  0.50957368290E+02  0.10000000000E+01 0.  0.
    9000005    1    3    3    0    0  0.26531464237E+02  0.42875128258E+02 -0.77328075002E+02  0.92319155115E+02  0.10000000000E+01 0.  0.
<mgrwt>
<rscale>  0 0.12500337E+03</rscale>
<asrwt>0</asrwt>
<pdfrwt beam="1">  1        4 0.56353814E-02 0.12500337E+03</pdfrwt>
<pdfrwt beam="2">  1       -4 0.16407161E-01 0.12500337E+03</pdfrwt>
<totfact> 0.10065360E+04</totfact>
</mgrwt>
</event>
<event>
 5    1  0.3422688E-002  0.1250002E+03  0.7818608E-02  0.1235069E+00
         -4   -1    0    0    0  501 -0.00000000000E+00  0.00000000000E+00  0.66481138894E+02  0.66493268296E+02  0.12700000000E+01 0. -1.
          4   -1    0    0  501    0  0.00000000000E+00 -0.00000000000E+00 -0.58733063001E+02  0.58746792163E+02  0.12700000000E+01 0. -1.
         25    2    1    2    0    0  0.00000000000E+00  0.00000000000E+00  0.77480758931E+01  0.12524006046E+03  0.12500016026E+03 0.  0.
    9000005    1    3    3    0    0  0.22404098891E+02 -0.70530258542E+01  0.61895205545E+02  0.66209555884E+02  0.10000000000E+01 0.  0.
    9000005    1    3    3    0    0 -0.22404098891E+02  0.70530258542E+01 -0.54147129652E+02  0.59030504575E+02  0.10000000000E+01 0.  0.
<mgrwt>
<rscale>  0 0.12500016E+03</rscale>
<asrwt>0</asrwt>
<pdfrwt beam="2">  1        4 0.90378450E-02 0.12500016E+03</pdfrwt>
<pdfrwt beam="1">  1       -4 0.10229857E-01 0.12500016E+03</pdfrwt>
<totfact> 0.10447613E+04</totfact>
</mgrwt>
</event>
<event>
 5    1  0.3422688E-002  0.1250031E+03  0.7818608E-02  0.1235064E+00
          4   -1    0    0  501    0  0.00000000000E+00  0.00000000000E+00  0.10912172058E+02  0.10985827188E+02  0.12700000000E+01 0.  1.
         -4   -1    0    0    0  501 -0.00000000000E+00 -0.00000000000E+00 -0.35671082687E+03  0.35671308766E+03  0.12700000000E+01 0.  1.
         25    2    1    2    0    0  0.00000000000E+00  0.00000000000E+00 -0.34579865482E+03  0.36769891485E+03  0.12500312920E+03 0.  0.
    9000005    1    3    3    0    0  0.85636990123E+01  0.18946535940E+02  0.45410553725E+00  0.20821008062E+02  0.10000000000E+01 0.  0.
    9000005    1    3    3    0    0 -0.85636990123E+01 -0.18946535940E+02 -0.34625276035E+03  0.34687790679E+03  0.10000000000E+01 0.  0.
<mgrwt>
<rscale>  0 0.12500313E+03</rscale>
<asrwt>0</asrwt>
<pdfrwt beam="1">  1        4 0.16846357E-02 0.12500313E+03</pdfrwt>
<pdfrwt beam="2">  1       -4 0.54884420E-01 0.12500313E+03</pdfrwt>
<totfact> 0.67815674E+03</totfact>
</mgrwt>
</event>
<event>
 5    1  0.3422688E-002  0.1249994E+03  0.7818608E-02  0.1235070E+00
         -4   -1    0    0    0  501 -0.00000000000E+00  0.00000000000E+00  0.32191895724E+02  0.32216937320E+02  0.12700000000E+01 0.  1.
          4   -1    0    0  501    0  0.00000000000E+00 -0.00000000000E+00 -0.12126590439E+03  0.12127255447E+03  0.12700000000E+01 0.  1.
         25    2    1    2    0    0  0.00000000000E+00  0.00000000000E+00 -0.89074008664E+02  0.15348949179E+03  0.12499938028E+03 0.  0.
    9000005    1    3    3    0    0  0.26123947042E+02  0.51981667498E+02 -0.72555615445E+02  0.93004686427E+02  0.10000000000E+01 0.  0.
    9000005    1    3    3    0    0 -0.26123947042E+02 -0.51981667498E+02 -0.16518393219E+02  0.60484805360E+02  0.10000000000E+01 0.  0.
<mgrwt>
<rscale>  0 0.12499938E+03</rscale>
<asrwt>0</asrwt>
<pdfrwt beam="2">  1        4 0.18658731E-01 0.12499938E+03</pdfrwt>
<pdfrwt beam="1">  1       -4 0.49550372E-02 0.12499938E+03</pdfrwt>
<totfact> 0.98613988E+03</totfact>
</mgrwt>
</event>
<event>
 5    1  0.3422688E-002  0.1249995E+03  0.7818608E-02  0.1235070E+00
         -4   -1    0    0    0  501 -0.00000000000E+00  0.00000000000E+00  0.43187341064E+03  0.43187527797E+03  0.12700000000E+01 0.  1.
          4   -1    0    0  501    0  0.00000000000E+00 -0.00000000000E+00 -0.89983529216E+01  0.90875329601E+01  0.12700000000E+01 0.  1.
         25    2    1    2    0    0  0.00000000000E+00  0.00000000000E+00  0.42287505772E+03  0.44096281093E+03  0.12499954472E+03 0.  0.
    9000005    1    3    3    0    0 -0.32904529750E+02  0.53114331668E+02  0.20729154290E+03  0.21650548276E+03  0.10000000000E+01 0.  0.
    9000005    1    3    3    0    0  0.32904529750E+02 -0.53114331668E+02  0.21558351482E+03  0.22445732817E+03  0.10000000000E+01 0.  0.
<mgrwt>
<rscale>  0 0.12499954E+03</rscale>
<asrwt>0</asrwt>
<pdfrwt beam="2">  1        4 0.13913660E-02 0.12499954E+03</pdfrwt>
<pdfrwt beam="1">  1       -4 0.66449048E-01 0.12499954E+03</pdfrwt>
<totfact> 0.60755314E+03</totfact>
</mgrwt>
</event>
<event>
 5    1  0.3422688E-002  0.1250144E+03  0.7818608E-02  0.1235047E+00
          4   -1    0    0  501    0  0.00000000000E+00  0.00000000000E+00  0.62179095756E+03  0.62179225454E+03  0.12700000000E+01 0.  1.
         -4   -1    0    0    0  501 -0.00000000000E+00 -0.00000000000E+00 -0.62182138648E+01  0.63465804705E+01  0.12700000000E+01 0.  1.
         25    2    1    2    0    0  0.00000000000E+00  0.00000000000E+00  0.61557274369E+03  0.62813883501E+03  0.12501437223E+03 0.  0.
    9000005    1    3    3    0    0 -0.21127703796E+02  0.58652205053E+02  0.28549233669E+03  0.29222138069E+03  0.10000000000E+01 0.  0.
    9000005    1    3    3    0    0  0.21127703796E+02 -0.58652205053E+02  0.33008040700E+03  0.33591745431E+03  0.10000000000E+01 0.  0.
<mgrwt>
<rscale>  0 0.12501437E+03</rscale>
<asrwt>0</asrwt>
<pdfrwt beam="1">  1        4 0.95670155E-01 0.12501437E+03</pdfrwt>
<pdfrwt beam="2">  1       -4 0.96662207E-03 0.12501437E+03</pdfrwt>
<totfact> 0.47123396E+03</totfact>
</mgrwt>
</event>
<event>
 5    1  0.3422688E-002  0.1249988E+03  0.7818608E-02  0.1235071E+00
          4   -1    0    0  501    0  0.00000000000E+00  0.00000000000E+00  0.16102996738E+02  0.16152999843E+02  0.12700000000E+01 0. -1.
         -4   -1    0    0    0  501 -0.00000000000E+00 -0.00000000000E+00 -0.24214671593E+03  0.24215004632E+03  0.12700000000E+01 0. -1.
         25    2    1    2    0    0  0.00000000000E+00  0.00000000000E+00 -0.22604371919E+03  0.25830304617E+03  0.12499880269E+03 0.  0.
    9000005    1    3    3    0    0  0.19935879813E+02 -0.46740857558E+02 -0.37858149506E+02  0.63374967875E+02  0.10000000000E+01 0.  0.
    9000005    1    3    3    0    0 -0.19935879813E+02  0.46740857558E+02 -0.18818556968E+03  0.19492807829E+03  0.10000000000E+01 0.  0.
<mgrwt>
<rscale>  0 0.12499880E+03</rscale>
<asrwt>0</asrwt>
<pdfrwt beam="1">  1        4 0.24814869E-02 0.12499880E+03</pdfrwt>
<pdfrwt beam="2">  1       -4 0.37257441E-01 0.12499880E+03</pdfrwt>
<totfact> 0.81146959E+03</totfact>
</mgrwt>
</event>
<event>
 5    1  0.3422688E-002  0.1249982E+03  0.7818608E-02  0.1235072E+00
         -4   -1    0    0    0  501 -0.00000000000E+00  0.00000000000E+00  0.25806758081E+03  0.25807070575E+03  0.12700000000E+01 0.  1.
          4   -1    0    0  501    0  0.00000000000E+00 -0.00000000000E+00 -0.15106241029E+02  0.15159532250E+02  0.12700000000E+01 0.  1.
         25    2    1    2    0    0  0.00000000000E+00  0.00000000000E+00  0.24296133978E+03  0.27323023800E+03  0.12499820130E+03 0.  0.
    9000005    1    3    3    0    0 -0.65830945852E+01  0.38228112538E+02  0.14385994535E+02  0.41384569121E+02  0.10000000000E+01 0.  0.
    9000005    1    3    3    0    0  0.65830945852E+01 -0.38228112538E+02  0.22857534524E+03  0.23184566887E+03  0.10000000000E+01 0.  0.
<mgrwt>
<rscale>  0 0.12499820E+03</rscale>
<asrwt>0</asrwt>
<pdfrwt beam="2">  1        4 0.23283769E-02 0.12499820E+03</pdfrwt>
<pdfrwt beam="1">  1       -4 0.39707042E-01 0.12499820E+03</pdfrwt>
<totfact> 0.79087539E+03</totfact>
</mgrwt>
</event>
<event>
 5    1  0.3422688E-002  0.1250015E+03  0.7818608E-02  0.1235067E+00
         -4   -1    0    0    0  501 -0.00000000000E+00  0.00000000000E+00  0.48925746981E+01  0.50547192975E+01  0.12700000000E+01 0. -1.
          4   -1    0    0  501    0  0.00000000000E+00 -0.00000000000E+00 -0.78524605276E+03  0.78524707976E+03  0.12700000000E+01 0. -1.
         25    2    1    2    0    0  0.00000000000E+00  0.00000000000E+00 -0.78035347806E+03  0.79030179906E+03  0.12500153149E+03 0.  0.
    9000005    1    3    3    0    0 -0.35944490808E+02 -0.49144021125E+02 -0.30116764568E+03  0.30726225287E+03  0.10000000000E+01 0.  0.
    9000005    1    3    3    0    0  0.35944490808E+02  0.49144021125E+02 -0.47918583238E+03  0.48303954619E+03  0.10000000000E+01 0.  0.
<mgrwt>
<rscale>  0 0.12500153E+03</rscale>
<asrwt>0</asrwt>
<pdfrwt beam="2">  1        4 0.12081954E+00 0.12500153E+03</pdfrwt>
<pdfrwt beam="1">  1       -4 0.76525608E-03 0.12500153E+03</pdfrwt>
<totfact> 0.38700098E+03</totfact>
</mgrwt>
</event>
<event>
 5    1  0.3422688E-002  0.1249787E+03  0.7818608E-02  0.1235103E+00
         -4   -1    0    0    0  501 -0.00000000000E+00  0.00000000000E+00  0.27633292068E+02  0.27662460673E+02  0.12700000000E+01 0.  1.
          4   -1    0    0  501    0  0.00000000000E+00 -0.00000000000E+00 -0.14120563288E+03  0.14121134394E+03  0.12700000000E+01 0.  1.
         25    2    1    2    0    0  0.00000000000E+00  0.00000000000E+00 -0.11357234081E+03  0.16887380461E+03  0.12497873934E+03 0.  0.
    9000005    1    3    3    0    0 -0.17426982727E+02  0.57647970037E+02 -0.79272243459E+02  0.99559413214E+02  0.10000000000E+01 0.  0.
    9000005    1    3    3    0    0  0.17426982727E+02 -0.57647970037E+02 -0.34300097350E+02  0.69314391396E+02  0.10000000000E+01 0.  0.
<mgrwt>
<rscale>  0 0.12497874E+03</rscale>
<asrwt>0</asrwt>
<pdfrwt beam="2">  1        4 0.21726626E-01 0.12497874E+03</pdfrwt>
<pdfrwt beam="1">  1       -4 0.42539589E-02 0.12497874E+03</pdfrwt>
<totfact> 0.95704426E+03</totfact>
</mgrwt>
</event>
<event>
 5    1  0.3422688E-002  0.1250047E+03  0.7818608E-02  0.1235062E+00
          4   -1    0    0  501    0  0.00000000000E+00  0.00000000000E+00  0.30979950120E+02  0.31005970545E+02  0.12700000000E+01 0.  1.
         -4   -1    0    0    0  501 -0.00000000000E+00 -0.00000000000E+00 -0.12601701329E+03  0.12602341266E+03  0.12700000000E+01 0.  1.
         25    2    1    2    0    0  0.00000000000E+00  0.00000000000E+00 -0.95037063171E+02  0.15702938321E+03  0.12500473517E+03 0.  0.
    9000005    1    3    3    0    0  0.46260856165E+02 -0.32882885977E+02 -0.80376778797E+02  0.98401105548E+02  0.10000000000E+01 0.  0.
    9000005    1    3    3    0    0 -0.46260856165E+02  0.32882885977E+02 -0.14660284374E+02  0.58628277658E+02  0.10000000000E+01 0.  0.
<mgrwt>
<rscale>  0 0.12500474E+03</rscale>
<asrwt>0</asrwt>
<pdfrwt beam="1">  1        4 0.47686401E-02 0.12500474E+03</pdfrwt>
<pdfrwt beam="2">  1       -4 0.19389726E-01 0.12500474E+03</pdfrwt>
<totfact> 0.97908148E+03</totfact>
</mgrwt>
</event>
<event>
 5    1  0.3422688E-002  0.1250039E+03  0.7818608E-02  0.1235063E+00
          4   -1    0    0  501    0  0.00000000000E+00  0.00000000000E+00  0.46158982969E+03  0.46159157680E+03  0.12700000000E+01 0.  1.
         -4   -1    0    0    0  501 -0.00000000000E+00 -0.00000000000E+00 -0.84137122971E+01  0.85090219543E+01  0.12700000000E+01 0.  1.
         25    2    1    2    0    0  0.00000000000E+00  0.00000000000E+00  0.45317611739E+03  0.47010059875E+03  0.12500391824E+03 0.  0.
    9000005    1    3    3    0    0  0.53041534272E+02 -0.11499588170E+02  0.11007653965E+03  0.12273340811E+03  0.10000000000E+01 0.  0.
    9000005    1    3    3    0    0 -0.53041534272E+02  0.11499588170E+02  0.34309957775E+03  0.34736719064E+03  0.10000000000E+01 0.  0.
<mgrwt>
<rscale>  0 0.12500392E+03</rscale>
<asrwt>0</asrwt>
<pdfrwt beam="1">  1        4 0.71021300E-01 0.12500392E+03</pdfrwt>
<pdfrwt beam="2">  1       -4 0.13018829E-02 0.12500392E+03</pdfrwt>
<totfact> 0.58256154E+03</totfact>
</mgrwt>
</event>
<event>
 5    1  0.3422688E-002  0.1249985E+03  0.7818608E-02  0.1235072E+00
         -4   -1    0    0    0  501 -0.00000000000E+00  0.00000000000E+00  0.56376594978E+02  0.56390897859E+02  0.12700000000E+01 0.  1.
          4   -1    0    0  501    0  0.00000000000E+00 -0.00000000000E+00 -0.69257906601E+02  0.69269549780E+02  0.12700000000E+01 0.  1.
         25    2    1    2    0    0  0.00000000000E+00  0.00000000000E+00 -0.12881311622E+02  0.12566044764E+03  0.12499847964E+03 0.  0.
    9000005    1    3    3    0    0  0.41009309430E+02  0.12499974118E+02  0.39265957683E+02  0.58144890107E+02  0.10000000000E+01 0.  0.
    9000005    1    3    3    0    0 -0.41009309430E+02 -0.12499974118E+02 -0.52147269305E+02  0.67515557532E+02  0.10000000000E+01 0.  0.
<mgrwt>
<rscale>  0 0.12499848E+03</rscale>
<asrwt>0</asrwt>
<pdfrwt beam="2">  1        4 0.10657058E-01 0.12499848E+03</pdfrwt>
<pdfrwt beam="1">  1       -4 0.86753181E-02 0.12499848E+03</pdfrwt>
<totfact> 0.10438773E+04</totfact>
</mgrwt>
</event>
<event>
 5    1  0.3422688E-002  0.1249993E+03  0.7818608E-02  0.1235070E+00
         -4   -1    0    0    0  501 -0.00000000000E+00  0.00000000000E+00  0.13388186914E+03  0.13388789260E+03  0.12700000000E+01 0.  1.
          4   -1    0    0  501    0  0.00000000000E+00 -0.00000000000E+00 -0.29155993627E+02  0.29183640355E+02  0.12700000000E+01 0.  1.
         25    2    1    2    0    0  0.00000000000E+00  0.00000000000E+00  0.10472587551E+03  0.16307153295E+03  0.12499926343E+03 0.  0.
    9000005    1    3    3    0    0  0.48105300848E+02 -0.22468335796E+02  0.95359840263E+02  0.10914872980E+03  0.10000000000E+01 0.  0.
    9000005    1    3    3    0    0 -0.48105300848E+02  0.22468335796E+02  0.93660352517E+01  0.53922803149E+02  0.10000000000E+01 0.  0.
<mgrwt>
<rscale>  0 0.12499926E+03</rscale>
<asrwt>0</asrwt>
<pdfrwt beam="2">  1        4 0.44881275E-02 0.12499926E+03</pdfrwt>
<pdfrwt beam="1">  1       -4 0.20599800E-01 0.12499926E+03</pdfrwt>
<totfact> 0.96755466E+03</totfact>
</mgrwt>
</event>
<event>
 5    1  0.3422688E-002  0.1250002E+03  0.7818608E-02  0.1235069E+00
         -4   -1    0    0    0  501 -0.00000000000E+00  0.00000000000E+00  0.14730880346E+02  0.14785524535E+02  0.12700000000E+01 0.  1.
          4   -1    0    0  501    0  0.00000000000E+00 -0.00000000000E+00 -0.26462801722E+03  0.26463106468E+03  0.12700000000E+01 0.  1.
         25    2    1    2    0    0  0.00000000000E+00  0.00000000000E+00 -0.24989713687E+03  0.27941658922E+03  0.12500020526E+03 0.  0.
    9000005    1    3    3    0    0 -0.43148452254E+02 -0.43509117251E+02 -0.97532222377E+02  0.11518839619E+03  0.10000000000E+01 0.  0.
    9000005    1    3    3    0    0  0.43148452254E+02  0.43509117251E+02 -0.15236491449E+03  0.16422819303E+03  0.10000000000E+01 0.  0.
<mgrwt>
<rscale>  0 0.12500021E+03</rscale>
<asrwt>0</asrwt>
<pdfrwt beam="2">  1        4 0.40716437E-01 0.12500021E+03</pdfrwt>
<pdfrwt beam="1">  1       -4 0.22707273E-02 0.12500021E+03</pdfrwt>
<totfact> 0.78255169E+03</totfact>
</mgrwt>
</event>
<event>
 4    1  0.3422688E-002  0.1248188E+03  0.7818608E-02  0.1235353E+00
         -4   -1    0    0    0  501 -0.00000000000E+00  0.00000000000E+00  0.31774626471E+03  0.31774880273E+03  0.12700000000E+01 0.  1.
          4   -1    0    0  501    0  0.00000000000E+00 -0.00000000000E+00 -0.12222507489E+02  0.12288311085E+02  0.12700000000E+01 0.  1.
    9000005    1    1    2    0    0 -0.66111362751E+01 -0.61936601326E+02  0.16268454193E+03  0.17420421892E+03  0.10000000000E+01 0.  0.
    9000005    1    1    2    0    0  0.66111362751E+01  0.61936601326E+02  0.14283921529E+03  0.15583289490E+03  0.10000000000E+01 0.  0.
<mgrwt>
<rscale>  0 0.12481879E+03</rscale>
<asrwt>0</asrwt>
<pdfrwt beam="2">  1        4 0.18856426E-02 0.12481879E+03</pdfrwt>
<pdfrwt beam="1">  1       -4 0.48889303E-01 0.12481879E+03</pdfrwt>
<totfact> 0.72267759E+03</totfact>
</mgrwt>
</event>
<event>
 5    1  0.3422688E-002  0.1250000E+03  0.7818608E-02  0.1235069E+00
          4   -1    0    0  501    0  0.00000000000E+00  0.00000000000E+00  0.15977732442E+03  0.15978237167E+03  0.12700000000E+01 0.  1.
         -4   -1    0    0    0  501 -0.00000000000E+00 -0.00000000000E+00 -0.24426167505E+02  0.24459161045E+02  0.12700000000E+01 0.  1.
         25    2    1    2    0    0  0.00000000000E+00  0.00000000000E+00  0.13535115691E+03  0.18424153272E+03  0.12500002681E+03 0.  0.
    9000005    1    3    3    0    0 -0.35508701503E+02 -0.23735566865E+02  0.43767447117E+00  0.42725128154E+02  0.10000000000E+01 0.  0.
    9000005    1    3    3    0    0  0.35508701503E+02  0.23735566865E+02  0.13491348244E+03  0.14151640457E+03  0.10000000000E+01 0.  0.
<mgrwt>
<rscale>  0 0.12500003E+03</rscale>
<asrwt>0</asrwt>
<pdfrwt beam="1">  1        4 0.24584052E-01 0.12500003E+03</pdfrwt>
<pdfrwt beam="2">  1       -4 0.37607983E-02 0.12500003E+03</pdfrwt>
<totfact> 0.92858982E+03</totfact>
</mgrwt>
</event>
<event>
 5    1  0.3422688E-002  0.1250062E+03  0.7818608E-02  0.1235060E+00
         -4   -1    0    0    0  501 -0.00000000000E+00  0.00000000000E+00  0.38168471484E+02  0.38189594334E+02  0.12700000000E+01 0.  1.
          4   -1    0    0  501    0  0.00000000000E+00 -0.00000000000E+00 -0.10229903071E+03  0.10230691367E+03  0.12700000000E+01 0.  1.
         25    2    1    2    0    0  0.00000000000E+00  0.00000000000E+00 -0.64130559227E+02  0.14049650800E+03  0.12500616039E+03 0.  0.
    9000005    1    3    3    0    0 -0.52862942717E+02 -0.17693030859E+02 -0.31386812790E+00  0.55755112473E+02  0.10000000000E+01 0.  0.
    9000005    1    3    3    0    0  0.52862942717E+02  0.17693030859E+02 -0.63816691099E+02  0.84741395531E+02  0.10000000000E+01 0.  0.
<mgrwt>
<rscale>  0 0.12500616E+03</rscale>
<asrwt>0</asrwt>
<pdfrwt beam="2">  1        4 0.15740544E-01 0.12500616E+03</pdfrwt>
<pdfrwt beam="1">  1       -4 0.58743038E-02 0.12500616E+03</pdfrwt>
<totfact> 0.10121901E+04</totfact>
</mgrwt>
</event>
<event>
 4    1  0.3422688E-002  0.1240337E+03  0.7818608E-02  0.1236587E+00
          4   -1    0    0  501    0  0.00000000000E+00  0.00000000000E+00  0.93132033997E+01  0.93993966595E+01  0.12700000000E+01 0.  1.
         -4   -1    0    0    0  501 -0.00000000000E+00 -0.00000000000E+00 -0.41098255330E+03  0.41098451554E+03  0.12700000000E+01 0.  1.
    9000005    1    1    2    0    0  0.48665904531E+02  0.34619551058E+02 -0.14430308369E+03  0.15617702629E+03  0.10000000000E+01 0.  0.
    9000005    1    1    2    0    0 -0.48665904531E+02 -0.34619551058E+02 -0.25736626621E+03  0.26420688591E+03  0.10000000000E+01 0.  0.
<mgrwt>
<rscale>  0 0.12403373E+03</rscale>
<asrwt>0</asrwt>
<pdfrwt beam="1">  1        4 0.14395820E-02 0.12403373E+03</pdfrwt>
<pdfrwt beam="2">  1       -4 0.63234852E-01 0.12403373E+03</pdfrwt>
<totfact> 0.63971007E+03</totfact>
</mgrwt>
</event>
<event>
 5    1  0.3422688E-002  0.1249988E+03  0.7818608E-02  0.1235071E+00
         -4   -1    0    0    0  501 -0.00000000000E+00  0.00000000000E+00  0.11406173261E+04  0.11406180331E+04  0.12700000000E+01 0. -1.
          4   -1    0    0  501    0  0.00000000000E+00 -0.00000000000E+00 -0.33061410157E+01  0.35416759332E+01  0.12700000000E+01 0. -1.
         25    2    1    2    0    0  0.00000000000E+00  0.00000000000E+00  0.11373111851E+04  0.11441597090E+04  0.12499883249E+03 0.  0.
    9000005    1    3    3    0    0 -0.27777593030E+02 -0.33441889813E+02  0.15774987861E+03  0.16363367278E+03  0.10000000000E+01 0.  0.
    9000005    1    3    3    0    0  0.27777593030E+02  0.33441889813E+02  0.97956130646E+03  0.98052603626E+03  0.10000000000E+01 0.  0.
<mgrwt>
<rscale>  0 0.12499883E+03</rscale>
<asrwt>0</asrwt>
<pdfrwt beam="2">  1        4 0.52680973E-03 0.12499883E+03</pdfrwt>
<pdfrwt beam="1">  1       -4 0.17549770E+00 0.12499883E+03</pdfrwt>
<totfact> 0.26223514E+03</totfact>
</mgrwt>
</event>
<event>
 5    1  0.3422688E-002  0.1249986E+03  0.7818608E-02  0.1235071E+00
         -4   -1    0    0    0  501 -0.00000000000E+00  0.00000000000E+00  0.29482579546E+02  0.29509920309E+02  0.12700000000E+01 0.  1.
          4   -1    0    0  501    0  0.00000000000E+00 -0.00000000000E+00 -0.13239873060E+03  0.13240482153E+03  0.12700000000E+01 0.  1.
         25    2    1    2    0    0  0.00000000000E+00  0.00000000000E+00 -0.10291615105E+03  0.16191474184E+03  0.12499859790E+03 0.  0.
    9000005    1    3    3    0    0  0.42875229610E+02  0.37361333304E+02 -0.17904018076E+02  0.59629761056E+02  0.10000000000E+01 0.  0.
    9000005    1    3    3    0    0 -0.42875229610E+02 -0.37361333304E+02 -0.85012132977E+02  0.10228498078E+03  0.10000000000E+01 0.  0.
<mgrwt>
<rscale>  0 0.12499860E+03</rscale>
<asrwt>0</asrwt>
<pdfrwt beam="2">  1        4 0.20371607E-01 0.12499860E+03</pdfrwt>
<pdfrwt beam="1">  1       -4 0.45383532E-02 0.12499860E+03</pdfrwt>
<totfact> 0.96977959E+03</totfact>
</mgrwt>
</event>
<event>
 5    1  0.3422688E-002  0.1249984E+03  0.7818608E-02  0.1235072E+00
         -4   -1    0    0    0  501 -0.00000000000E+00  0.00000000000E+00  0.10071846528E+03  0.10072647193E+03  0.12700000000E+01 0. -1.
          4   -1    0    0  501    0  0.00000000000E+00 -0.00000000000E+00 -0.38762937460E+02  0.38783736547E+02  0.12700000000E+01 0. -1.
         25    2    1    2    0    0  0.00000000000E+00  0.00000000000E+00  0.61955527816E+02  0.13951020848E+03  0.12499844336E+03 0.  0.
    9000005    1    3    3    0    0 -0.22667630232E+02  0.27422624641E+02  0.88316524983E+02  0.95218855211E+02  0.10000000000E+01 0.  0.
    9000005    1    3    3    0    0  0.22667630232E+02 -0.27422624641E+02 -0.26360997167E+02  0.44291353267E+02  0.10000000000E+01 0.  0.
<mgrwt>
<rscale>  0 0.12499844E+03</rscale>
<asrwt>0</asrwt>
<pdfrwt beam="2">  1        4 0.59657446E-02 0.12499844E+03</pdfrwt>
<pdfrwt beam="1">  1       -4 0.15497364E-01 0.12499844E+03</pdfrwt>
<totfact> 0.10144103E+04</totfact>
</mgrwt>
</event>
<event>
 5    1  0.3422688E-002  0.1249980E+03  0.7818608E-02  0.1235072E+00
          4   -1    0    0  501    0  0.00000000000E+00  0.00000000000E+00  0.50477366518E+02  0.50493340458E+02  0.12700000000E+01 0.  1.
         -4   -1    0    0    0  501 -0.00000000000E+00 -0.00000000000E+00 -0.77350293010E+02  0.77360718253E+02  0.12700000000E+01 0.  1.
         25    2    1    2    0    0  0.00000000000E+00  0.00000000000E+00 -0.26872926492E+02  0.12785405871E+03  0.12499802459E+03 0.  0.
    9000005    1    3    3    0    0 -0.29372890903E+02 -0.23679768353E+02 -0.64390634669E+02  0.74636800456E+02  0.10000000000E+01 0.  0.
    9000005    1    3    3    0    0  0.29372890903E+02  0.23679768353E+02  0.37517708178E+02  0.53217258254E+02  0.10000000000E+01 0.  0.
<mgrwt>
<rscale>  0 0.12499802E+03</rscale>
<asrwt>0</asrwt>
<pdfrwt beam="1">  1        4 0.77677794E-02 0.12499802E+03</pdfrwt>
<pdfrwt beam="2">  1       -4 0.11902076E-01 0.12499802E+03</pdfrwt>
<totfact> 0.10391104E+04</totfact>
</mgrwt>
</event>
<event>
 5    1  0.3422688E-002  0.1249967E+03  0.7818608E-02  0.1235074E+00
          4   -1    0    0  501    0  0.00000000000E+00  0.00000000000E+00  0.20399294807E+02  0.20438789803E+02  0.12700000000E+01 0.  1.
         -4   -1    0    0    0  501 -0.00000000000E+00 -0.00000000000E+00 -0.19125250298E+03  0.19125671961E+03  0.12700000000E+01 0.  1.
         25    2    1    2    0    0  0.00000000000E+00  0.00000000000E+00 -0.17085320818E+03  0.21169550942E+03  0.12499667981E+03 0.  0.
    9000005    1    3    3    0    0  0.48052426027E+02  0.39900966892E+02 -0.82073564062E+02  0.10314161490E+03  0.10000000000E+01 0.  0.
    9000005    1    3    3    0    0 -0.48052426027E+02 -0.39900966892E+02 -0.88779644116E+02  0.10855389452E+03  0.10000000000E+01 0.  0.
<mgrwt>
<rscale>  0 0.12499668E+03</rscale>
<asrwt>0</asrwt>
<pdfrwt beam="1">  1        4 0.31417156E-02 0.12499668E+03</pdfrwt>
<pdfrwt beam="2">  1       -4 0.29426823E-01 0.12499668E+03</pdfrwt>
<totfact> 0.88206275E+03</totfact>
</mgrwt>
</event>
<event>
 5    1  0.3422688E-002  0.1249997E+03  0.7818608E-02  0.1235070E+00
          4   -1    0    0  501    0  0.00000000000E+00  0.00000000000E+00  0.24784790213E+03  0.24785115592E+03  0.12700000000E+01 0.  1.
         -4   -1    0    0    0  501 -0.00000000000E+00 -0.00000000000E+00 -0.15731651138E+02  0.15782830783E+02  0.12700000000E+01 0.  1.
         25    2    1    2    0    0  0.00000000000E+00  0.00000000000E+00  0.23211625100E+03  0.26363398671E+03  0.12499969988E+03 0.  0.
    9000005    1    3    3    0    0  0.34539621215E+02  0.49850340061E+02  0.84268423003E+02  0.10382778507E+03  0.10000000000E+01 0.  0.
    9000005    1    3    3    0    0 -0.34539621215E+02 -0.49850340061E+02  0.14784782799E+03  0.15980620163E+03  0.10000000000E+01 0.  0.
<mgrwt>
<rscale>  0 0.12499970E+03</rscale>
<asrwt>0</asrwt>
<pdfrwt beam="1">  1        4 0.38134631E-01 0.12499970E+03</pdfrwt>
<pdfrwt beam="2">  1       -4 0.24244414E-02 0.12499970E+03</pdfrwt>
<totfact> 0.80399310E+03</totfact>
</mgrwt>
</event>
<event>
 5    1  0.3422688E-002  0.1250013E+03  0.7818608E-02  0.1235067E+00
         -4   -1    0    0    0  501 -0.00000000000E+00  0.00000000000E+00  0.45166395856E+02  0.45184247417E+02  0.12700000000E+01 0.  1.
          4   -1    0    0  501    0  0.00000000000E+00 -0.00000000000E+00 -0.86447954394E+02  0.86457282625E+02  0.12700000000E+01 0.  1.
         25    2    1    2    0    0  0.00000000000E+00  0.00000000000E+00 -0.41281558538E+02  0.13164153004E+03  0.12500130142E+03 0.  0.
    9000005    1    3    3    0    0  0.90715650125E+01  0.60773994175E+02 -0.32627856930E+02  0.69579801003E+02  0.10000000000E+01 0.  0.
    9000005    1    3    3    0    0 -0.90715650125E+01 -0.60773994175E+02 -0.86537016082E+01  0.62061729039E+02  0.10000000000E+01 0.  0.
<mgrwt>
<rscale>  0 0.12500130E+03</rscale>
<asrwt>0</asrwt>
<pdfrwt beam="2">  1        4 0.13301776E-01 0.12500130E+03</pdfrwt>
<pdfrwt beam="1">  1       -4 0.69507671E-02 0.12500130E+03</pdfrwt>
<totfact> 0.10309053E+04</totfact>
</mgrwt>
</event>
<event>
 5    1  0.3422688E-002  0.1249995E+03  0.7818608E-02  0.1235070E+00
          4   -1    0    0  501    0  0.00000000000E+00  0.00000000000E+00  0.33221743142E+03  0.33221985889E+03  0.12700000000E+01 0.  1.
         -4   -1    0    0    0  501 -0.00000000000E+00 -0.00000000000E+00 -0.11721252614E+02  0.11789854233E+02  0.12700000000E+01 0.  1.
         25    2    1    2    0    0  0.00000000000E+00  0.00000000000E+00  0.32049617881E+03  0.34400971312E+03  0.12499952837E+03 0.  0.
    9000005    1    3    3    0    0 -0.18194051673E+02 -0.74445385499E-01  0.32478041539E+03  0.32529117307E+03  0.10000000000E+01 0.  0.
    9000005    1    3    3    0    0  0.18194051673E+02  0.74445385499E-01 -0.42842365844E+01  0.18718540047E+02  0.10000000000E+01 0.  0.
<mgrwt>
<rscale>  0 0.12499953E+03</rscale>
<asrwt>0</asrwt>
<pdfrwt beam="1">  1        4 0.51115831E-01 0.12499953E+03</pdfrwt>
<pdfrwt beam="2">  1       -4 0.18087336E-02 0.12499953E+03</pdfrwt>
<totfact> 0.70389365E+03</totfact>
</mgrwt>
</event>
<event>
 5    1  0.3422688E-002  0.1250143E+03  0.7818608E-02  0.1235047E+00
         -4   -1    0    0    0  501 -0.00000000000E+00  0.00000000000E+00  0.23856824521E+02  0.23890604351E+02  0.12700000000E+01 0.  1.
          4   -1    0    0  501    0  0.00000000000E+00 -0.00000000000E+00 -0.16362267918E+03  0.16362760782E+03  0.12700000000E+01 0.  1.
         25    2    1    2    0    0  0.00000000000E+00  0.00000000000E+00 -0.13976585466E+03  0.18751821217E+03  0.12501434225E+03 0.  0.
    9000005    1    3    3    0    0 -0.49543213774E+02  0.32156245428E+02 -0.39230854424E+02  0.70912721637E+02  0.10000000000E+01 0.  0.
    9000005    1    3    3    0    0  0.49543213774E+02 -0.32156245428E+02 -0.10053500023E+03  0.11660549053E+03  0.10000000000E+01 0.  0.
<mgrwt>
<rscale>  0 0.12501434E+03</rscale>
<asrwt>0</asrwt>
<pdfrwt beam="2">  1        4 0.25175697E-01 0.12501434E+03</pdfrwt>
<pdfrwt beam="1">  1       -4 0.36732584E-02 0.12501434E+03</pdfrwt>
<totfact> 0.92251292E+03</totfact>
</mgrwt>
</event>
<event>
 5    1  0.3422688E-002  0.1250043E+03  0.7818608E-02  0.1235063E+00
         -4   -1    0    0    0  501 -0.00000000000E+00  0.00000000000E+00  0.12692065278E+03  0.12692700659E+03  0.12700000000E+01 0.  1.
          4   -1    0    0  501    0  0.00000000000E+00 -0.00000000000E+00 -0.30759003356E+02  0.30785210532E+02  0.12700000000E+01 0.  1.
         25    2    1    2    0    0  0.00000000000E+00  0.00000000000E+00  0.96161649420E+02  0.15771221712E+03  0.12500432236E+03 0.  0.
    9000005    1    3    3    0    0 -0.29950162147E+02 -0.42902377476E+02  0.91197176888E+02  0.10514538163E+03  0.10000000000E+01 0.  0.
    9000005    1    3    3    0    0  0.29950162147E+02  0.42902377476E+02  0.49644725320E+01  0.52566835489E+02  0.10000000000E+01 0.  0.
<mgrwt>
<rscale>  0 0.12500432E+03</rscale>
<asrwt>0</asrwt>
<pdfrwt beam="2">  1        4 0.47346591E-02 0.12500432E+03</pdfrwt>
<pdfrwt beam="1">  1       -4 0.19528759E-01 0.12500432E+03</pdfrwt>
<totfact> 0.97776171E+03</totfact>
</mgrwt>
</event>
<event>
 5    1  0.3422688E-002  0.1249997E+03  0.7818608E-02  0.1235070E+00
         -4   -1    0    0    0  501 -0.00000000000E+00  0.00000000000E+00  0.25861577490E+02  0.25892742038E+02  0.12700000000E+01 0.  1.
          4   -1    0    0  501    0  0.00000000000E+00 -0.00000000000E+00 -0.15091905645E+03  0.15092439995E+03  0.12700000000E+01 0.  1.
         25    2    1    2    0    0  0.00000000000E+00  0.00000000000E+00 -0.12505747896E+03  0.17681714199E+03  0.12499971463E+03 0.  0.
    9000005    1    3    3    0    0 -0.51320271775E+02 -0.35507593779E+02 -0.57907573762E+02  0.85140158621E+02  0.10000000000E+01 0.  0.
    9000005    1    3    3    0    0  0.51320271775E+02  0.35507593779E+02 -0.67149905202E+02  0.91676983369E+02  0.10000000000E+01 0.  0.
<mgrwt>
<rscale>  0 0.12499971E+03</rscale>
<asrwt>0</asrwt>
<pdfrwt beam="2">  1        4 0.23221124E-01 0.12499971E+03</pdfrwt>
<pdfrwt beam="1">  1       -4 0.39815126E-02 0.12499971E+03</pdfrwt>
<totfact> 0.94193689E+03</totfact>
</mgrwt>
</event>
<event>
 5    1  0.3422688E-002  0.1249887E+03  0.7818608E-02  0.1235087E+00
         -4   -1    0    0    0  501 -0.00000000000E+00  0.00000000000E+00  0.23214444776E+03  0.23214792165E+03  0.12700000000E+01 0. -1.
          4   -1    0    0  501    0  0.00000000000E+00 -0.00000000000E+00 -0.16796193808E+02  0.16844139231E+02  0.12700000000E+01 0. -1.
         25    2    1    2    0    0  0.00000000000E+00  0.00000000000E+00  0.21534825395E+03  0.24899206088E+03  0.12498870309E+03 0.  0.
    9000005    1    3    3    0    0  0.30150713188E+02  0.54729999112E+02  0.10832169272E+03  0.12505609710E+03  0.10000000000E+01 0.  0.
    9000005    1    3    3    0    0 -0.30150713188E+02 -0.54729999112E+02  0.10702656123E+03  0.12393596378E+03  0.10000000000E+01 0.  0.
<mgrwt>
<rscale>  0 0.12498870E+03</rscale>
<asrwt>0</asrwt>
<pdfrwt beam="2">  1        4 0.25879855E-02 0.12498870E+03</pdfrwt>
<pdfrwt beam="1">  1       -4 0.35718480E-01 0.12498870E+03</pdfrwt>
<totfact> 0.82496889E+03</totfact>
</mgrwt>
</event>
<event>
 5    1  0.3422688E-002  0.1250004E+03  0.7818608E-02  0.1235069E+00
          4   -1    0    0  501    0  0.00000000000E+00  0.00000000000E+00  0.58189534331E+01  0.59559314181E+01  0.12700000000E+01 0.  1.
         -4   -1    0    0    0  501 -0.00000000000E+00 -0.00000000000E+00 -0.66335537164E+03  0.66335658735E+03  0.12700000000E+01 0.  1.
         25    2    1    2    0    0  0.00000000000E+00  0.00000000000E+00 -0.65753641821E+03  0.66931251877E+03  0.12500042606E+03 0.  0.
    9000005    1    3    3    0    0 -0.50060994410E+02  0.33248444480E+01 -0.52826264389E+03  0.53064072468E+03  0.10000000000E+01 0.  0.
    9000005    1    3    3    0    0  0.50060994410E+02 -0.33248444480E+01 -0.12927377431E+03  0.13867179409E+03  0.10000000000E+01 0.  0.
<mgrwt>
<rscale>  0 0.12500043E+03</rscale>
<asrwt>0</asrwt>
<pdfrwt beam="1">  1        4 0.90585441E-03 0.12500043E+03</pdfrwt>
<pdfrwt beam="2">  1       -4 0.10206524E+00 0.12500043E+03</pdfrwt>
<totfact> 0.44756483E+03</totfact>
</mgrwt>
</event>
<event>
 4    1  0.3422688E-002  0.1247771E+03  0.7818608E-02  0.1235418E+00
         -4   -1    0    0    0  501 -0.00000000000E+00  0.00000000000E+00  0.61931044763E+03  0.61931174980E+03  0.12700000000E+01 0.  1.
          4   -1    0    0  501    0  0.00000000000E+00 -0.00000000000E+00 -0.62194661274E+01  0.63478074096E+01  0.12700000000E+01 0.  1.
    9000005    1    1    2    0    0 -0.47613226113E+02  0.40195017242E+02  0.32131299467E+03  0.32730062520E+03  0.10000000000E+01 0.  0.
    9000005    1    1    2    0    0  0.47613226113E+02 -0.40195017242E+02  0.29177798683E+03  0.29835893201E+03  0.10000000000E+01 0.  0.
<mgrwt>
<rscale>  0 0.12477712E+03</rscale>
<asrwt>0</asrwt>
<pdfrwt beam="2">  1        4 0.96681391E-03 0.12477712E+03</pdfrwt>
<pdfrwt beam="1">  1       -4 0.95288464E-01 0.12477712E+03</pdfrwt>
<totfact> 0.47518677E+03</totfact>
</mgrwt>
</event>
<event>
 5    1  0.3422688E-002  0.1250144E+03  0.7818608E-02  0.1235047E+00
         -4   -1    0    0    0  501 -0.00000000000E+00  0.00000000000E+00  0.33293312704E+02  0.33317526481E+02  0.12700000000E+01 0. -1.
          4   -1    0    0  501    0  0.00000000000E+00 -0.00000000000E+00 -0.11728503280E+03  0.11729190858E+03  0.12700000000E+01 0. -1.
         25    2    1    2    0    0  0.00000000000E+00  0.00000000000E+00 -0.83991720095E+02  0.15060943506E+03  0.12501437072E+03 0.  0.
    9000005    1    3    3    0    0 -0.92378940207E+01  0.45564008469E+02 -0.92317691385E+02  0.10336814643E+03  0.10000000000E+01 0.  0.
    9000005    1    3    3    0    0  0.92378940207E+01 -0.45564008469E+02  0.83259712907E+01  0.47241288632E+02  0.10000000000E+01 0.  0.
<mgrwt>
<rscale>  0 0.12501437E+03</rscale>
<asrwt>0</asrwt>
<pdfrwt beam="2">  1        4 0.18046243E-01 0.12501437E+03</pdfrwt>
<pdfrwt beam="1">  1       -4 0.51244396E-02 0.12501437E+03</pdfrwt>
<totfact> 0.99150286E+03</totfact>
</mgrwt>
</event>
<event>
 5    1  0.3422688E-002  0.1249969E+03  0.7818608E-02  0.1235074E+00
          4   -1    0    0  501    0  0.00000000000E+00  0.00000000000E+00  0.40964410034E+02  0.40984091907E+02  0.12700000000E+01 0.  1.
         -4   -1    0    0    0  501 -0.00000000000E+00 -0.00000000000E+00 -0.95305684168E+02  0.95314145512E+02  0.12700000000E+01 0.  1.
         25    2    1    2    0    0  0.00000000000E+00  0.00000000000E+00 -0.54341274134E+02  0.13629823742E+03  0.12499694176E+03 0.  0.
    9000005    1    3    3    0    0  0.19003456283E+02  0.29604895903E+02  0.29146587909E+02  0.45695785351E+02  0.10000000000E+01 0.  0.
    9000005    1    3    3    0    0 -0.19003456283E+02 -0.29604895903E+02 -0.83487862043E+02  0.90602452067E+02  0.10000000000E+01 0.  0.
<mgrwt>
<rscale>  0 0.12499694E+03</rscale>
<asrwt>0</asrwt>
<pdfrwt beam="1">  1        4 0.63043818E-02 0.12499694E+03</pdfrwt>
<pdfrwt beam="2">  1       -4 0.14664578E-01 0.12499694E+03</pdfrwt>
<totfact> 0.10211483E+04</totfact>
</mgrwt>
</event>
<event>
 5    1  0.3422688E-002  0.1249976E+03  0.7818608E-02  0.1235073E+00
          4   -1    0    0  501    0  0.00000000000E+00  0.00000000000E+00  0.32808163153E+01  0.35180471422E+01  0.12700000000E+01 0. -1.
         -4   -1    0    0    0  501 -0.00000000000E+00 -0.00000000000E+00 -0.11488066178E+04  0.11488073198E+04  0.12700000000E+01 0. -1.
         25    2    1    2    0    0  0.00000000000E+00  0.00000000000E+00 -0.11455258015E+04  0.11523253670E+04  0.12499755760E+03 0.  0.
    9000005    1    3    3    0    0  0.29954148227E+02 -0.49359131009E+02 -0.79315208499E+03  0.79525140977E+03  0.10000000000E+01 0.  0.
    9000005    1    3    3    0    0 -0.29954148227E+02  0.49359131009E+02 -0.35237371653E+03  0.35707395720E+03  0.10000000000E+01 0.  0.
<mgrwt>
<rscale>  0 0.12499756E+03</rscale>
<asrwt>0</asrwt>
<pdfrwt beam="1">  1        4 0.52304441E-03 0.12499756E+03</pdfrwt>
<pdfrwt beam="2">  1       -4 0.17675747E+00 0.12499756E+03</pdfrwt>
<totfact> 0.25997239E+03</totfact>
</mgrwt>
</event>
<event>
 5    1  0.3422688E-002  0.1250005E+03  0.7818608E-02  0.1235069E+00
         -4   -1    0    0    0  501 -0.00000000000E+00  0.00000000000E+00  0.34528367706E+03  0.34528601267E+03  0.12700000000E+01 0.  1.
          4   -1    0    0  501    0  0.00000000000E+00 -0.00000000000E+00 -0.11275227312E+02  0.11346525941E+02  0.12700000000E+01 0.  1.
         25    2    1    2    0    0  0.00000000000E+00  0.00000000000E+00  0.33400844975E+03  0.35663253861E+03  0.12500049236E+03 0.  0.
    9000005    1    3    3    0    0 -0.48916253486E+02 -0.94452239439E+01  0.27463901911E+03  0.27912291724E+03  0.10000000000E+01 0.  0.
    9000005    1    3    3    0    0  0.48916253486E+02  0.94452239439E+01  0.59369430638E+02  0.77509621369E+02  0.10000000000E+01 0.  0.
<mgrwt>
<rscale>  0 0.12500049E+03</rscale>
<asrwt>0</asrwt>
<pdfrwt beam="2">  1        4 0.17403146E-02 0.12500049E+03</pdfrwt>
<pdfrwt beam="1">  1       -4 0.53126227E-01 0.12500049E+03</pdfrwt>
<totfact> 0.69000255E+03</totfact>
</mgrwt>
</event>
<event>
 5    1  0.3422688E-002  0.1249990E+03  0.7818608E-02  0.1235071E+00
         -4   -1    0    0    0  501 -0.00000000000E+00  0.00000000000E+00  0.35894856917E+02  0.35917316897E+02  0.12700000000E+01 0.  1.
          4   -1    0    0  501    0  0.00000000000E+00 -0.00000000000E+00 -0.10876278685E+03  0.10877020136E+03  0.12700000000E+01 0.  1.
         25    2    1    2    0    0  0.00000000000E+00  0.00000000000E+00 -0.72867929932E+02  0.14468751825E+03  0.12499897090E+03 0.  0.
    9000005    1    3    3    0    0  0.28796644906E+02 -0.15401101622E+02  0.25238004909E+02  0.41284350314E+02  0.10000000000E+01 0.  0.
    9000005    1    3    3    0    0 -0.28796644906E+02  0.15401101622E+02 -0.98105934841E+02  0.10340316794E+03  0.10000000000E+01 0.  0.
<mgrwt>
<rscale>  0 0.12499897E+03</rscale>
<asrwt>0</asrwt>
<pdfrwt beam="2">  1        4 0.16735034E-01 0.12499897E+03</pdfrwt>
<pdfrwt beam="1">  1       -4 0.55245838E-02 0.12499897E+03</pdfrwt>
<totfact> 0.10037574E+04</totfact>
</mgrwt>
</event>
<event>
 5    1  0.3422688E-002  0.1250012E+03  0.7818608E-02  0.1235067E+00
          4   -1    0    0  501    0  0.00000000000E+00  0.00000000000E+00  0.22436254886E+01  0.25781302010E+01  0.12700000000E+01 0. -1.
         -4   -1    0    0    0  501 -0.00000000000E+00 -0.00000000000E+00 -0.16199574027E+04  0.16199579005E+04  0.12700000000E+01 0. -1.
         25    2    1    2    0    0  0.00000000000E+00  0.00000000000E+00 -0.16177137772E+04  0.16225360307E+04  0.12500122405E+03 0.  0.
    9000005    1    3    3    0    0 -0.27225554714E+02 -0.43149587194E+02 -0.34045310263E+03  0.34425634750E+03  0.10000000000E+01 0.  0.
    9000005    1    3    3    0    0  0.27225554714E+02  0.43149587194E+02 -0.12772606746E+04  0.12782796832E+04  0.10000000000E+01 0.  0.
<mgrwt>
<rscale>  0 0.12500122E+03</rscale>
<asrwt>0</asrwt>
<pdfrwt beam="1">  1        4 0.37094387E-03 0.12500122E+03</pdfrwt>
<pdfrwt beam="2">  1       -4 0.24924912E+00 0.12500122E+03</pdfrwt>
<totfact> 0.15641847E+03</totfact>
</mgrwt>
</event>
<event>
 5    1  0.3422688E-002  0.1250005E+03  0.7818608E-02  0.1235068E+00
         -4   -1    0    0    0  501 -0.00000000000E+00  0.00000000000E+00  0.88453006176E+02  0.88462122977E+02  0.12700000000E+01 0. -1.
          4   -1    0    0  501    0  0.00000000000E+00 -0.00000000000E+00 -0.44141730216E+02  0.44159995997E+02  0.12700000000E+01 0. -1.
         25    2    1    2    0    0  0.00000000000E+00  0.00000000000E+00  0.44311275960E+02  0.13262211897E+03  0.12500054905E+03 0.  0.
    9000005    1    3    3    0    0 -0.24717054990E+02 -0.87698044896E+00  0.83044563386E+02  0.86655071462E+02  0.10000000000E+01 0.  0.
    9000005    1    3    3    0    0  0.24717054990E+02  0.87698044896E+00 -0.38733287426E+02  0.45967047512E+02  0.10000000000E+01 0.  0.
<mgrwt>
<rscale>  0 0.12500055E+03</rscale>
<asrwt>0</asrwt>
<pdfrwt beam="2">  1        4 0.67931418E-02 0.12500055E+03</pdfrwt>
<pdfrwt beam="1">  1       -4 0.13610261E-01 0.12500055E+03</pdfrwt>
<totfact> 0.10288310E+04</totfact>
</mgrwt>
</event>
<event>
 5    1  0.3422688E-002  0.1249986E+03  0.7818608E-02  0.1235071E+00
          4   -1    0    0  501    0  0.00000000000E+00  0.00000000000E+00  0.84877063375E+03  0.84877158388E+03  0.12700000000E+01 0.  1.
         -4   -1    0    0    0  501 -0.00000000000E+00 -0.00000000000E+00 -0.45135550564E+01  0.46888249324E+01  0.12700000000E+01 0.  1.
         25    2    1    2    0    0  0.00000000000E+00  0.00000000000E+00  0.84425707869E+03  0.85346040882E+03  0.12499861799E+03 0.  0.
    9000005    1    3    3    0    0 -0.44522398253E+02 -0.41583136800E+02  0.32708711532E+03  0.33271366401E+03  0.10000000000E+01 0.  0.
    9000005    1    3    3    0    0  0.44522398253E+02  0.41583136800E+02  0.51716996337E+03  0.52074674480E+03  0.10000000000E+01 0.  0.
<mgrwt>
<rscale>  0 0.12499862E+03</rscale>
<asrwt>0</asrwt>
<pdfrwt beam="1">  1        4 0.13059373E+00 0.12499862E+03</pdfrwt>
<pdfrwt beam="2">  1       -4 0.70794806E-03 0.12499862E+03</pdfrwt>
<totfact> 0.35987201E+03</totfact>
</mgrwt>
</event>
<event>
 5    1  0.3422688E-002  0.1249985E+03  0.7818608E-02  0.1235072E+00
         -4   -1    0    0    0  501 -0.00000000000E+00  0.00000000000E+00  0.46673629998E+03  0.46673802783E+03  0.12700000000E+01 0. -1.
          4   -1    0    0  501    0  0.00000000000E+00 -0.00000000000E+00 -0.83191513820E+01  0.84155320519E+01  0.12700000000E+01 0. -1.
         25    2    1    2    0    0  0.00000000000E+00  0.00000000000E+00  0.45841714860E+03  0.47515355988E+03  0.12499849334E+03 0.  0.
    9000005    1    3    3    0    0 -0.32722676230E+02  0.52174256381E+02  0.26947863361E+03  0.27642840039E+03  0.10000000000E+01 0.  0.
    9000005    1    3    3    0    0  0.32722676230E+02 -0.52174256381E+02  0.18893851499E+03  0.19872515949E+03  0.10000000000E+01 0.  0.
<mgrwt>
<rscale>  0 0.12499849E+03</rscale>
<asrwt>0</asrwt>
<pdfrwt beam="2">  1        4 0.12874161E-02 0.12499849E+03</pdfrwt>
<pdfrwt beam="1">  1       -4 0.71813141E-01 0.12499849E+03</pdfrwt>
<totfact> 0.57846941E+03</totfact>
</mgrwt>
</event>
<event>
 5    1  0.3422688E-002  0.1250023E+03  0.7818608E-02  0.1235066E+00
          4   -1    0    0  501    0  0.00000000000E+00  0.00000000000E+00  0.30009463589E+02  0.30036324756E+02  0.12700000000E+01 0. -1.
         -4   -1    0    0    0  501 -0.00000000000E+00 -0.00000000000E+00 -0.13008379654E+03  0.13008999586E+03  0.12700000000E+01 0. -1.
         25    2    1    2    0    0  0.00000000000E+00  0.00000000000E+00 -0.10007433295E+03  0.16012632062E+03  0.12500226573E+03 0.  0.
    9000005    1    3    3    0    0  0.32632564811E+02 -0.25282492268E+02  0.10064254938E+02  0.42501505019E+02  0.10000000000E+01 0.  0.
    9000005    1    3    3    0    0 -0.32632564811E+02  0.25282492268E+02 -0.11013858789E+03  0.11762481560E+03  0.10000000000E+01 0.  0.
<mgrwt>
<rscale>  0 0.12500227E+03</rscale>
<asrwt>0</asrwt>
<pdfrwt beam="1">  1        4 0.46193837E-02 0.12500227E+03</pdfrwt>
<pdfrwt beam="2">  1       -4 0.20015435E-01 0.12500227E+03</pdfrwt>
<totfact> 0.97313481E+03</totfact>
</mgrwt>
</event>
<event>
 5    1  0.3422688E-002  0.1249982E+03  0.7818608E-02  0.1235072E+00
         -4   -1    0    0    0  501 -0.00000000000E+00  0.00000000000E+00  0.13308408664E+02  0.13368868357E+02  0.12700000000E+01 0. -1.
          4   -1    0    0  501    0  0.00000000000E+00 -0.00000000000E+00 -0.29278183794E+03  0.29278459237E+03  0.12700000000E+01 0. -1.
         25    2    1    2    0    0  0.00000000000E+00  0.00000000000E+00 -0.27947342928E+03  0.30615346073E+03  0.12499817535E+03 0.  0.
    9000005    1    3    3    0    0  0.98838845876E+00 -0.62301830990E+02 -0.12808251691E+03  0.14243814867E+03  0.10000000000E+01 0.  0.
    9000005    1    3    3    0    0 -0.98838845876E+00  0.62301830990E+02 -0.15139091236E+03  0.16371531206E+03  0.10000000000E+01 0.  0.
<mgrwt>
<rscale>  0 0.12499818E+03</rscale>
<asrwt>0</asrwt>
<pdfrwt beam="2">  1        4 0.45048217E-01 0.12499818E+03</pdfrwt>
<pdfrwt beam="1">  1       -4 0.20523103E-02 0.12499818E+03</pdfrwt>
<totfact> 0.74836419E+03</totfact>
</mgrwt>
</event>
<event>
 5    1  0.3422688E-002  0.1249975E+03  0.7818608E-02  0.1235073E+00
         -4   -1    0    0    0  501 -0.00000000000E+00  0.00000000000E+00  0.60247950999E+01  0.61571954651E+01  0.12700000000E+01 0. -1.
          4   -1    0    0  501    0  0.00000000000E+00 -0.00000000000E+00 -0.64115685186E+03  0.64115810966E+03  0.12700000000E+01 0. -1.
         25    2    1    2    0    0  0.00000000000E+00  0.00000000000E+00 -0.63513205676E+03  0.64731530513E+03  0.12499749889E+03 0.  0.
    9000005    1    3    3    0    0 -0.33609071205E+02  0.85799151011E+01 -0.58675044666E+03  0.58777569809E+03  0.10000000000E+01 0.  0.
    9000005    1    3    3    0    0  0.33609071205E+02 -0.85799151011E+01 -0.48381610105E+02  0.59539607042E+02  0.10000000000E+01 0.  0.
<mgrwt>
<rscale>  0 0.12499750E+03</rscale>
<asrwt>0</asrwt>
<pdfrwt beam="2">  1        4 0.98649744E-01 0.12499750E+03</pdfrwt>
<pdfrwt beam="1">  1       -4 0.93717346E-03 0.12499750E+03</pdfrwt>
<totfact> 0.46013338E+03</totfact>
</mgrwt>
</event>
<event>
 5    1  0.3422688E-002  0.1249988E+03  0.7818608E-02  0.1235071E+00
         -4   -1    0    0    0  501 -0.00000000000E+00  0.00000000000E+00  0.26468117811E+02  0.26498569027E+02  0.12700000000E+01 0.  1.
          4   -1    0    0  501    0  0.00000000000E+00 -0.00000000000E+00 -0.14746225705E+03  0.14746772581E+03  0.12700000000E+01 0.  1.
         25    2    1    2    0    0  0.00000000000E+00  0.00000000000E+00 -0.12099413924E+03  0.17396629483E+03  0.12499876002E+03 0.  0.
    9000005    1    3    3    0    0  0.16775713057E+02 -0.51579847232E+02 -0.10369200421E+03  0.11702536873E+03  0.10000000000E+01 0.  0.
    9000005    1    3    3    0    0 -0.16775713057E+02  0.51579847232E+02 -0.17302135031E+02  0.56940926105E+02  0.10000000000E+01 0.  0.
<mgrwt>
<rscale>  0 0.12499876E+03</rscale>
<asrwt>0</asrwt>
<pdfrwt beam="2">  1        4 0.22689264E-01 0.12499876E+03</pdfrwt>
<pdfrwt beam="1">  1       -4 0.40747813E-02 0.12499876E+03</pdfrwt>
<totfact> 0.94717138E+03</totfact>
</mgrwt>
</event>
<event>
 5    1  0.3422688E-002  0.1249997E+03  0.7818608E-02  0.1235070E+00
          4   -1    0    0  501    0  0.00000000000E+00  0.00000000000E+00  0.43775224590E+02  0.43793643236E+02  0.12700000000E+01 0. -1.
         -4   -1    0    0    0  501 -0.00000000000E+00 -0.00000000000E+00 -0.89192148908E+02  0.89201190165E+02  0.12700000000E+01 0. -1.
         25    2    1    2    0    0  0.00000000000E+00  0.00000000000E+00 -0.45416924318E+02  0.13299483340E+03  0.12499971479E+03 0.  0.
    9000005    1    3    3    0    0 -0.29426046758E+02  0.43736840311E+02 -0.58417455735E+02  0.78691820177E+02  0.10000000000E+01 0.  0.
    9000005    1    3    3    0    0  0.29426046758E+02 -0.43736840311E+02  0.13000531417E+02  0.54303013225E+02  0.10000000000E+01 0.  0.
<mgrwt>
<rscale>  0 0.12499971E+03</rscale>
<asrwt>0</asrwt>
<pdfrwt beam="1">  1        4 0.67367622E-02 0.12499971E+03</pdfrwt>
<pdfrwt beam="2">  1       -4 0.13723981E-01 0.12499971E+03</pdfrwt>
<totfact> 0.10280576E+04</totfact>
</mgrwt>
</event>
<event>
 5    1  0.3422688E-002  0.1249975E+03  0.7818608E-02  0.1235073E+00
          4   -1    0    0  501    0  0.00000000000E+00  0.00000000000E+00  0.30348154001E+01  0.32898335083E+01  0.12700000000E+01 0.  1.
         -4   -1    0    0    0  501 -0.00000000000E+00 -0.00000000000E+00 -0.12349414275E+04  0.12349420805E+04  0.12700000000E+01 0.  1.
         25    2    1    2    0    0  0.00000000000E+00  0.00000000000E+00 -0.12319066121E+04  0.12382319140E+04  0.12499748797E+03 0.  0.
    9000005    1    3    3    0    0  0.80607819706E+01 -0.13444723859E+02 -0.12151964177E+04  0.12152979348E+04  0.10000000000E+01 0.  0.
    9000005    1    3    3    0    0 -0.80607819706E+01  0.13444723859E+02 -0.16710194419E+02  0.22933979226E+02  0.10000000000E+01 0.  0.
<mgrwt>
<rscale>  0 0.12499749E+03</rscale>
<asrwt>0</asrwt>
<pdfrwt beam="1">  1        4 0.48656267E-03 0.12499749E+03</pdfrwt>
<pdfrwt beam="2">  1       -4 0.19001027E+00 0.12499749E+03</pdfrwt>
<totfact> 0.23734752E+03</totfact>
</mgrwt>
</event>
<event>
 5    1  0.3422688E-002  0.1249990E+03  0.7818608E-02  0.1235071E+00
          4   -1    0    0  501    0  0.00000000000E+00  0.00000000000E+00  0.21601302545E+03  0.21601675876E+03  0.12700000000E+01 0. -1.
         -4   -1    0    0    0  501 -0.00000000000E+00 -0.00000000000E+00 -0.18056921805E+02  0.18101528252E+02  0.12700000000E+01 0. -1.
         25    2    1    2    0    0  0.00000000000E+00  0.00000000000E+00  0.19795610365E+03  0.23411828701E+03  0.12499901337E+03 0.  0.
    9000005    1    3    3    0    0  0.11690848356E+02 -0.61113934496E+02  0.88121433167E+02  0.10787945082E+03  0.10000000000E+01 0.  0.
    9000005    1    3    3    0    0 -0.11690848356E+02  0.61113934496E+02  0.10983467048E+03  0.12623883620E+03  0.10000000000E+01 0.  0.
<mgrwt>
<rscale>  0 0.12499901E+03</rscale>
<asrwt>0</asrwt>
<pdfrwt beam="1">  1        4 0.33236492E-01 0.12499901E+03</pdfrwt>
<pdfrwt beam="2">  1       -4 0.27817064E-02 0.12499901E+03</pdfrwt>
<totfact> 0.84683078E+03</totfact>
</mgrwt>
</event>
<event>
 5    1  0.3422688E-002  0.1250000E+03  0.7818608E-02  0.1235069E+00
          4   -1    0    0  501    0  0.00000000000E+00  0.00000000000E+00  0.77863059844E+01  0.78891990013E+01  0.12700000000E+01 0.  1.
         -4   -1    0    0    0  501 -0.00000000000E+00 -0.00000000000E+00 -0.49828570360E+03  0.49828732205E+03  0.12700000000E+01 0.  1.
         25    2    1    2    0    0  0.00000000000E+00  0.00000000000E+00 -0.49049939762E+03  0.50617652105E+03  0.12500004559E+03 0.  0.
    9000005    1    3    3    0    0 -0.13917470373E+02  0.46949063817E+01  0.71707736515E+00  0.14739481927E+02  0.10000000000E+01 0.  0.
    9000005    1    3    3    0    0  0.13917470373E+02 -0.46949063817E+01 -0.49121647498E+03  0.49143703912E+03  0.10000000000E+01 0.  0.
<mgrwt>
<rscale>  0 0.12500005E+03</rscale>
<asrwt>0</asrwt>
<pdfrwt beam="1">  1        4 0.12059330E-02 0.12500005E+03</pdfrwt>
<pdfrwt beam="2">  1       -4 0.76667353E-01 0.12500005E+03</pdfrwt>
<totfact> 0.55388264E+03</totfact>
</mgrwt>
</event>
<event>
 5    1  0.3422688E-002  0.1249972E+03  0.7818608E-02  0.1235074E+00
          4   -1    0    0  501    0  0.00000000000E+00  0.00000000000E+00  0.48140544659E+02  0.48157293737E+02  0.12700000000E+01 0.  1.
         -4   -1    0    0    0  501 -0.00000000000E+00 -0.00000000000E+00 -0.81103181490E+02  0.81113124387E+02  0.12700000000E+01 0.  1.
         25    2    1    2    0    0  0.00000000000E+00  0.00000000000E+00 -0.32962636831E+02  0.12927041812E+03  0.12499722227E+03 0.  0.
    9000005    1    3    3    0    0 -0.51857579558E+02  0.27314607521E+02  0.59340601193E+01  0.58919516386E+02  0.10000000000E+01 0.  0.
    9000005    1    3    3    0    0  0.51857579558E+02 -0.27314607521E+02 -0.38896696950E+02  0.70350901738E+02  0.10000000000E+01 0.  0.
<mgrwt>
<rscale>  0 0.12499722E+03</rscale>
<asrwt>0</asrwt>
<pdfrwt beam="1">  1        4 0.74082909E-02 0.12499722E+03</pdfrwt>
<pdfrwt beam="2">  1       -4 0.12479466E-01 0.12499722E+03</pdfrwt>
<totfact> 0.10360789E+04</totfact>
</mgrwt>
</event>
<event>
 5    1  0.3422688E-002  0.1250124E+03  0.7818608E-02  0.1235050E+00
         -4   -1    0    0    0  501 -0.00000000000E+00  0.00000000000E+00  0.51813685145E+02  0.51829247229E+02  0.12700000000E+01 0. -1.
          4   -1    0    0  501    0  0.00000000000E+00 -0.00000000000E+00 -0.75373097030E+02  0.75383795712E+02  0.12700000000E+01 0. -1.
         25    2    1    2    0    0  0.00000000000E+00  0.00000000000E+00 -0.23559411885E+02  0.12721304294E+03  0.12501244900E+03 0.  0.
    9000005    1    3    3    0    0 -0.38919170682E+02 -0.44839624568E+02  0.80761856582E+01  0.59929279595E+02  0.10000000000E+01 0.  0.
    9000005    1    3    3    0    0  0.38919170682E+02  0.44839624568E+02 -0.31635597543E+02  0.67283763345E+02  0.10000000000E+01 0.  0.
<mgrwt>
<rscale>  0 0.12501245E+03</rscale>
<asrwt>0</asrwt>
<pdfrwt beam="2">  1        4 0.11597881E-01 0.12501245E+03</pdfrwt>
<pdfrwt beam="1">  1       -4 0.79733563E-02 0.12501245E+03</pdfrwt>
<totfact> 0.10401597E+04</totfact>
</mgrwt>
</event>
<event>
 5    1  0.3422688E-002  0.1249989E+03  0.7818608E-02  0.1235071E+00
         -4   -1    0    0    0  501 -0.00000000000E+00  0.00000000000E+00  0.33652976386E+02  0.33676931565E+02  0.12700000000E+01 0.  1.
          4   -1    0    0  501    0  0.00000000000E+00 -0.00000000000E+00 -0.11600362721E+03  0.11601057894E+03  0.12700000000E+01 0.  1.
         25    2    1    2    0    0  0.00000000000E+00  0.00000000000E+00 -0.82350650829E+02  0.14968751051E+03  0.12499888444E+03 0.  0.
    9000005    1    3    3    0    0  0.45081231400E+02 -0.37510193479E+02 -0.15328830433E+02  0.60624294485E+02  0.10000000000E+01 0.  0.
    9000005    1    3    3    0    0 -0.45081231400E+02  0.37510193479E+02 -0.67021820396E+02  0.89063216024E+02  0.10000000000E+01 0.  0.
<mgrwt>
<rscale>  0 0.12499888E+03</rscale>
<asrwt>0</asrwt>
<pdfrwt beam="2">  1        4 0.17849089E-01 0.12499888E+03</pdfrwt>
<pdfrwt beam="1">  1       -4 0.51797585E-02 0.12499888E+03</pdfrwt>
<totfact> 0.99368519E+03</totfact>
</mgrwt>
</event>
<event>
 5    1  0.3422688E-002  0.1249945E+03  0.7818608E-02  0.1235078E+00
          4   -1    0    0  501    0  0.00000000000E+00  0.00000000000E+00  0.12437493182E+04  0.12437499666E+04  0.12700000000E+01 0. -1.
         -4   -1    0    0    0  501 -0.00000000000E+00 -0.00000000000E+00 -0.30113548140E+01  0.32682040658E+01  0.12700000000E+01 0. -1.
         25    2    1    2    0    0  0.00000000000E+00  0.00000000000E+00  0.12407379634E+04  0.12470181706E+04  0.12499449663E+03 0.  0.
    9000005    1    3    3    0    0 -0.25520031588E+02  0.50909469691E+02  0.87703296767E+03  0.87888046542E+03  0.10000000000E+01 0.  0.
    9000005    1    3    3    0    0  0.25520031588E+02 -0.50909469691E+02  0.36370499570E+03  0.36813770523E+03  0.10000000000E+01 0.  0.
<mgrwt>
<rscale>  0 0.12499450E+03</rscale>
<asrwt>0</asrwt>
<pdfrwt beam="1">  1        4 0.19136573E+00 0.12499450E+03</pdfrwt>
<pdfrwt beam="2">  1       -4 0.48309319E-03 0.12499450E+03</pdfrwt>
<totfact> 0.23516971E+03</totfact>
</mgrwt>
</event>
<event>
 5    1  0.3422688E-002  0.1250097E+03  0.7818608E-02  0.1235054E+00
          4   -1    0    0  501    0  0.00000000000E+00  0.00000000000E+00  0.60498289841E+03  0.60498423142E+03  0.12700000000E+01 0. -1.
         -4   -1    0    0    0  501 -0.00000000000E+00 -0.00000000000E+00 -0.63940069698E+01  0.65189128795E+01  0.12700000000E+01 0. -1.
         25    2    1    2    0    0  0.00000000000E+00  0.00000000000E+00  0.59858889144E+03  0.61150314430E+03  0.12500973776E+03 0.  0.
    9000005    1    3    3    0    0 -0.18428512116E+02 -0.57022791216E+02  0.21252464111E+03  0.22081424740E+03  0.10000000000E+01 0.  0.
    9000005    1    3    3    0    0  0.18428512116E+02  0.57022791216E+02  0.38606425033E+03  0.39068889690E+03  0.10000000000E+01 0.  0.
<mgrwt>
<rscale>  0 0.12500974E+03</rscale>
<asrwt>0</asrwt>
<pdfrwt beam="1">  1        4 0.93084010E-01 0.12500974E+03</pdfrwt>
<pdfrwt beam="2">  1       -4 0.99340399E-03 0.12500974E+03</pdfrwt>
<totfact> 0.48139177E+03</totfact>
</mgrwt>
</event>
<event>
 5    1  0.3422688E-002  0.1250007E+03  0.7818608E-02  0.1235068E+00
         -4   -1    0    0    0  501 -0.00000000000E+00  0.00000000000E+00  0.18911986452E+01  0.22780545024E+01  0.12700000000E+01 0.  1.
          4   -1    0    0  501    0  0.00000000000E+00 -0.00000000000E+00 -0.18734700105E+04  0.18734704410E+04  0.12700000000E+01 0.  1.
         25    2    1    2    0    0  0.00000000000E+00  0.00000000000E+00 -0.18715788119E+04  0.18757484955E+04  0.12500067695E+03 0.  0.
    9000005    1    3    3    0    0 -0.99798903211E+01 -0.51471646016E+02 -0.14460704990E+04  0.14470210146E+04  0.10000000000E+01 0.  0.
    9000005    1    3    3    0    0  0.99798903211E+01  0.51471646016E+02 -0.42550831284E+03  0.42872748087E+03  0.10000000000E+01 0.  0.
<mgrwt>
<rscale>  0 0.12500068E+03</rscale>
<asrwt>0</asrwt>
<pdfrwt beam="2">  1        4 0.28825460E+00 0.12500068E+03</pdfrwt>
<pdfrwt beam="1">  1       -4 0.32074639E-03 0.12500068E+03</pdfrwt>
<totfact> 0.11571424E+03</totfact>
</mgrwt>
</event>
<event>
 5    1  0.3422688E-002  0.1250006E+03  0.7818608E-02  0.1235068E+00
          4   -1    0    0  501    0  0.00000000000E+00  0.00000000000E+00  0.10883194560E+03  0.10883935539E+03  0.12700000000E+01 0.  1.
         -4   -1    0    0    0  501 -0.00000000000E+00 -0.00000000000E+00 -0.35872997505E+02  0.35895471163E+02  0.12700000000E+01 0.  1.
         25    2    1    2    0    0  0.00000000000E+00  0.00000000000E+00  0.72958948090E+02  0.14473482655E+03  0.12500064764E+03 0.  0.
    9000005    1    3    3    0    0  0.10024353001E+02  0.51076200715E+02  0.76522863231E+02  0.92552766192E+02  0.10000000000E+01 0.  0.
    9000005    1    3    3    0    0 -0.10024353001E+02 -0.51076200715E+02 -0.35639151411E+01  0.52182060363E+02  0.10000000000E+01 0.  0.
<mgrwt>
<rscale>  0 0.12500065E+03</rscale>
<asrwt>0</asrwt>
<pdfrwt beam="1">  1        4 0.16745675E-01 0.12500065E+03</pdfrwt>
<pdfrwt beam="2">  1       -4 0.55212215E-02 0.12500065E+03</pdfrwt>
<totfact> 0.10036233E+04</totfact>
</mgrwt>
</event>
<event>
 5    1  0.3422688E-002  0.1250079E+03  0.7818608E-02  0.1235057E+00
          4   -1    0    0  501    0  0.00000000000E+00  0.00000000000E+00  0.10230298535E+02  0.10308826709E+02  0.12700000000E+01 0. -1.
         -4   -1    0    0    0  501 -0.00000000000E+00 -0.00000000000E+00 -0.38034018340E+03  0.38034230373E+03  0.12700000000E+01 0. -1.
         25    2    1    2    0    0  0.00000000000E+00  0.00000000000E+00 -0.37010988486E+03  0.39065113044E+03  0.12500791511E+03 0.  0.
    9000005    1    3    3    0    0  0.26011210645E+02  0.38043781006E+02 -0.53142733149E+02  0.70349573126E+02  0.10000000000E+01 0.  0.
    9000005    1    3    3    0    0 -0.26011210645E+02 -0.38043781006E+02 -0.31696715172E+03  0.32030155732E+03  0.10000000000E+01 0.  0.
<mgrwt>
<rscale>  0 0.12500792E+03</rscale>
<asrwt>0</asrwt>
<pdfrwt beam="1">  1        4 0.15800961E-02 0.12500792E+03</pdfrwt>
<pdfrwt beam="2">  1       -4 0.58520067E-01 0.12500792E+03</pdfrwt>
<totfact> 0.65460880E+03</totfact>
</mgrwt>
</event>
<event>
 5    1  0.3422688E-002  0.1250055E+03  0.7818608E-02  0.1235061E+00
          4   -1    0    0  501    0  0.00000000000E+00  0.00000000000E+00  0.11441368488E+02  0.11511638149E+02  0.12700000000E+01 0.  1.
         -4   -1    0    0    0  501 -0.00000000000E+00 -0.00000000000E+00 -0.34032761279E+03  0.34032998241E+03  0.12700000000E+01 0.  1.
         25    2    1    2    0    0  0.00000000000E+00  0.00000000000E+00 -0.32888624430E+03  0.35184162056E+03  0.12500545695E+03 0.  0.
    9000005    1    3    3    0    0 -0.41247567764E+01  0.22800660790E+02 -0.10815590560E+01  0.23217526159E+02  0.10000000000E+01 0.  0.
    9000005    1    3    3    0    0  0.41247567764E+01 -0.22800660790E+02 -0.32780468525E+03  0.32862409440E+03  0.10000000000E+01 0.  0.
<mgrwt>
<rscale>  0 0.12500546E+03</rscale>
<asrwt>0</asrwt>
<pdfrwt beam="1">  1        4 0.17657984E-02 0.12500546E+03</pdfrwt>
<pdfrwt beam="2">  1       -4 0.52363674E-01 0.12500546E+03</pdfrwt>
<totfact> 0.69514038E+03</totfact>
</mgrwt>
</event>
<event>
 5    1  0.3422688E-002  0.1249998E+03  0.7818608E-02  0.1235070E+00
         -4   -1    0    0    0  501 -0.00000000000E+00  0.00000000000E+00  0.12063251509E+04  0.12063258194E+04  0.12700000000E+01 0. -1.
          4   -1    0    0  501    0  0.00000000000E+00 -0.00000000000E+00 -0.31129088832E+01  0.33620085834E+01  0.12700000000E+01 0. -1.
         25    2    1    2    0    0  0.00000000000E+00  0.00000000000E+00  0.12032122420E+04  0.12096878280E+04  0.12499976750E+03 0.  0.
    9000005    1    3    3    0    0 -0.91025558282E+01  0.53531421755E+02  0.90094762339E+03  0.90258300989E+03  0.10000000000E+01 0.  0.
    9000005    1    3    3    0    0  0.91025558282E+01 -0.53531421755E+02  0.30226461863E+03  0.30710481812E+03  0.10000000000E+01 0.  0.
<mgrwt>
<rscale>  0 0.12499977E+03</rscale>
<asrwt>0</asrwt>
<pdfrwt beam="2">  1        4 0.49812179E-03 0.12499977E+03</pdfrwt>
<pdfrwt beam="1">  1       -4 0.18560778E+00 0.12499977E+03</pdfrwt>
<totfact> 0.24460682E+03</totfact>
</mgrwt>
</event>
<event>
 5    1  0.3422688E-002  0.1249875E+03  0.7818608E-02  0.1235089E+00
          4   -1    0    0  501    0  0.00000000000E+00  0.00000000000E+00  0.55816641702E+02  0.55831088033E+02  0.12700000000E+01 0. -1.
         -4   -1    0    0    0  501 -0.00000000000E+00 -0.00000000000E+00 -0.69940376108E+02  0.69951905694E+02  0.12700000000E+01 0. -1.
         25    2    1    2    0    0  0.00000000000E+00  0.00000000000E+00 -0.14123734406E+02  0.12578299373E+03  0.12498752593E+03 0.  0.
    9000005    1    3    3    0    0 -0.51614215047E+02  0.29256077739E+02  0.12672246187E+02  0.60675621982E+02  0.10000000000E+01 0.  0.
    9000005    1    3    3    0    0  0.51614215047E+02 -0.29256077739E+02 -0.26795980593E+02  0.65107371744E+02  0.10000000000E+01 0.  0.
<mgrwt>
<rscale>  0 0.12498753E+03</rscale>
<asrwt>0</asrwt>
<pdfrwt beam="1">  1        4 0.85891738E-02 0.12498753E+03</pdfrwt>
<pdfrwt beam="2">  1       -4 0.10762056E-01 0.12498753E+03</pdfrwt>
<totfact> 0.10438657E+04</totfact>
</mgrwt>
</event>
<event>
 5    1  0.3422688E-002  0.1250005E+03  0.7818608E-02  0.1235069E+00
          4   -1    0    0  501    0  0.00000000000E+00  0.00000000000E+00  0.10902853643E+04  0.10902861040E+04  0.12700000000E+01 0.  1.
         -4   -1    0    0    0  501 -0.00000000000E+00 -0.00000000000E+00 -0.34694954066E+01  0.36946310203E+01  0.12700000000E+01 0.  1.
         25    2    1    2    0    0  0.00000000000E+00  0.00000000000E+00  0.10868158689E+04  0.10939807350E+04  0.12500046259E+03 0.  0.
    9000005    1    3    3    0    0  0.87736858750E+01 -0.23934719112E+02  0.10427547361E+04  0.10430667707E+04  0.10000000000E+01 0.  0.
    9000005    1    3    3    0    0 -0.87736858750E+01  0.23934719112E+02  0.44061132761E+02  0.50913964322E+02  0.10000000000E+01 0.  0.
<mgrwt>
<rscale>  0 0.12500046E+03</rscale>
<asrwt>0</asrwt>
<pdfrwt beam="1">  1        4 0.16775345E+00 0.12500046E+03</pdfrwt>
<pdfrwt beam="2">  1       -4 0.55114397E-03 0.12500046E+03</pdfrwt>
<totfact> 0.27659969E+03</totfact>
</mgrwt>
</event>
<event>
 5    1  0.3422688E-002  0.1249998E+03  0.7818608E-02  0.1235070E+00
          4   -1    0    0  501    0  0.00000000000E+00  0.00000000000E+00  0.47861971702E+02  0.47878818231E+02  0.12700000000E+01 0. -1.
         -4   -1    0    0    0  501 -0.00000000000E+00 -0.00000000000E+00 -0.81578505481E+02  0.81588390452E+02  0.12700000000E+01 0. -1.
         25    2    1    2    0    0  0.00000000000E+00  0.00000000000E+00 -0.33716533779E+02  0.12946720868E+03  0.12499981390E+03 0.  0.
    9000005    1    3    3    0    0  0.16185444308E+02  0.53814967671E+02  0.11453982560E+02  0.57360378916E+02  0.10000000000E+01 0.  0.
    9000005    1    3    3    0    0 -0.16185444308E+02 -0.53814967671E+02 -0.45170516339E+02  0.72106829768E+02  0.10000000000E+01 0.  0.
<mgrwt>
<rscale>  0 0.12499981E+03</rscale>
<asrwt>0</asrwt>
<pdfrwt beam="1">  1        4 0.73654366E-02 0.12499981E+03</pdfrwt>
<pdfrwt beam="2">  1       -4 0.12552596E-01 0.12499981E+03</pdfrwt>
<totfact> 0.10355962E+04</totfact>
</mgrwt>
</event>
<event>
 5    1  0.3422688E-002  0.1250001E+03  0.7818608E-02  0.1235069E+00
          4   -1    0    0  501    0  0.00000000000E+00  0.00000000000E+00  0.76022475282E+02  0.76033082589E+02  0.12700000000E+01 0. -1.
         -4   -1    0    0    0  501 -0.00000000000E+00 -0.00000000000E+00 -0.51360882204E+02  0.51376581443E+02  0.12700000000E+01 0. -1.
         25    2    1    2    0    0  0.00000000000E+00  0.00000000000E+00  0.24661593078E+02  0.12740966403E+03  0.12500011326E+03 0.  0.
    9000005    1    3    3    0    0  0.40778490152E+02 -0.29821541467E+02  0.49823649018E+02  0.70962001071E+02  0.10000000000E+01 0.  0.
    9000005    1    3    3    0    0 -0.40778490152E+02  0.29821541467E+02 -0.25162055940E+02  0.56447662960E+02  0.10000000000E+01 0.  0.
<mgrwt>
<rscale>  0 0.12500011E+03</rscale>
<asrwt>0</asrwt>
<pdfrwt beam="1">  1        4 0.11697789E-01 0.12500011E+03</pdfrwt>
<pdfrwt beam="2">  1       -4 0.79036978E-02 0.12500011E+03</pdfrwt>
<totfact> 0.10400231E+04</totfact>
</mgrwt>
</event>
<event>
 5    1  0.3422688E-002  0.1249993E+03  0.7818608E-02  0.1235070E+00
         -4   -1    0    0    0  501 -0.00000000000E+00  0.00000000000E+00  0.74366685518E+02  0.74377528965E+02  0.12700000000E+01 0. -1.
          4   -1    0    0  501    0  0.00000000000E+00 -0.00000000000E+00 -0.52503925731E+02  0.52519283289E+02  0.12700000000E+01 0. -1.
         25    2    1    2    0    0  0.00000000000E+00  0.00000000000E+00  0.21862759786E+02  0.12689681225E+03  0.12499928278E+03 0.  0.
    9000005    1    3    3    0    0  0.48023613307E+02 -0.31129768344E+02 -0.14546921287E+02  0.59058808243E+02  0.10000000000E+01 0.  0.
    9000005    1    3    3    0    0 -0.48023613307E+02  0.31129768344E+02  0.36409681074E+02  0.67838004010E+02  0.10000000000E+01 0.  0.
<mgrwt>
<rscale>  0 0.12499928E+03</rscale>
<asrwt>0</asrwt>
<pdfrwt beam="2">  1        4 0.80795425E-02 0.12499928E+03</pdfrwt>
<pdfrwt beam="1">  1       -4 0.11443044E-01 0.12499928E+03</pdfrwt>
<totfact> 0.10411557E+04</totfact>
</mgrwt>
</event>
<event>
 5    1  0.3422688E-002  0.1249870E+03  0.7818608E-02  0.1235090E+00
         -4   -1    0    0    0  501 -0.00000000000E+00  0.00000000000E+00  0.19193679543E+02  0.19235650091E+02  0.12700000000E+01 0.  1.
          4   -1    0    0  501    0  0.00000000000E+00 -0.00000000000E+00 -0.20320910266E+03  0.20321307119E+03  0.12700000000E+01 0.  1.
         25    2    1    2    0    0  0.00000000000E+00  0.00000000000E+00 -0.18401542311E+03  0.22244872128E+03  0.12498702995E+03 0.  0.
    9000005    1    3    3    0    0 -0.27737441470E+02  0.51320814926E+02 -0.13185430202E+03  0.14418650653E+03  0.10000000000E+01 0.  0.
    9000005    1    3    3    0    0  0.27737441470E+02 -0.51320814926E+02 -0.52161121089E+02  0.78262214748E+02  0.10000000000E+01 0.  0.
<mgrwt>
<rscale>  0 0.12498703E+03</rscale>
<asrwt>0</asrwt>
<pdfrwt beam="2">  1        4 0.31266471E-01 0.12498703E+03</pdfrwt>
<pdfrwt beam="1">  1       -4 0.29564077E-02 0.12498703E+03</pdfrwt>
<totfact> 0.86507403E+03</totfact>
</mgrwt>
</event>
<event>
 5    1  0.3422688E-002  0.1249949E+03  0.7818608E-02  0.1235077E+00
          4   -1    0    0  501    0  0.00000000000E+00  0.00000000000E+00  0.27073454108E+02  0.27103225220E+02  0.12700000000E+01 0.  1.
         -4   -1    0    0    0  501 -0.00000000000E+00 -0.00000000000E+00 -0.14415983068E+03  0.14416542471E+03  0.12700000000E+01 0.  1.
         25    2    1    2    0    0  0.00000000000E+00  0.00000000000E+00 -0.11708637657E+03  0.17126864993E+03  0.12499492338E+03 0.  0.
    9000005    1    3    3    0    0  0.20749712511E+02  0.48892152500E+02 -0.13431608572E+02  0.54794171718E+02  0.10000000000E+01 0.  0.
    9000005    1    3    3    0    0 -0.20749712511E+02 -0.48892152500E+02 -0.10365476800E+03  0.11647447821E+03  0.10000000000E+01 0.  0.
<mgrwt>
<rscale>  0 0.12499492E+03</rscale>
<asrwt>0</asrwt>
<pdfrwt beam="1">  1        4 0.41678673E-02 0.12499492E+03</pdfrwt>
<pdfrwt beam="2">  1       -4 0.22181155E-01 0.12499492E+03</pdfrwt>
<totfact> 0.95223553E+03</totfact>
</mgrwt>
</event>
<event>
 5    1  0.3422688E-002  0.1250026E+03  0.7818608E-02  0.1235065E+00
         -4   -1    0    0    0  501 -0.00000000000E+00  0.00000000000E+00  0.48593653209E+02  0.48610246165E+02  0.12700000000E+01 0. -1.
          4   -1    0    0  501    0  0.00000000000E+00 -0.00000000000E+00 -0.80354068245E+02  0.80364103824E+02  0.12700000000E+01 0. -1.
         25    2    1    2    0    0  0.00000000000E+00  0.00000000000E+00 -0.31760415035E+02  0.12897434999E+03  0.12500263594E+03 0.  0.
    9000005    1    3    3    0    0  0.21162853568E+02  0.53095718071E+02  0.10189026380E+02  0.58067528853E+02  0.10000000000E+01 0.  0.
    9000005    1    3    3    0    0 -0.21162853568E+02 -0.53095718071E+02 -0.41949441415E+02  0.70906821136E+02  0.10000000000E+01 0.  0.
<mgrwt>
<rscale>  0 0.12500264E+03</rscale>
<asrwt>0</asrwt>
<pdfrwt beam="2">  1        4 0.12364213E-01 0.12500264E+03</pdfrwt>
<pdfrwt beam="1">  1       -4 0.74779950E-02 0.12500264E+03</pdfrwt>
<totfact> 0.10365881E+04</totfact>
</mgrwt>
</event>
<event>
 5    1  0.3422688E-002  0.1249980E+03  0.7818608E-02  0.1235072E+00
         -4   -1    0    0    0  501 -0.00000000000E+00  0.00000000000E+00  0.25525482293E+02  0.25557056682E+02  0.12700000000E+01 0.  1.
          4   -1    0    0  501    0  0.00000000000E+00 -0.00000000000E+00 -0.15289968297E+03  0.15290495726E+03  0.12700000000E+01 0.  1.
         25    2    1    2    0    0  0.00000000000E+00  0.00000000000E+00 -0.12737420068E+03  0.17846201394E+03  0.12499801366E+03 0.  0.
    9000005    1    3    3    0    0 -0.57847522847E+02  0.23304570856E+02 -0.58032372674E+02  0.85195042112E+02  0.10000000000E+01 0.  0.
    9000005    1    3    3    0    0  0.57847522847E+02 -0.23304570856E+02 -0.69341828008E+02  0.93266971827E+02  0.10000000000E+01 0.  0.
<mgrwt>
<rscale>  0 0.12499801E+03</rscale>
<asrwt>0</asrwt>
<pdfrwt beam="2">  1        4 0.23525862E-01 0.12499801E+03</pdfrwt>
<pdfrwt beam="1">  1       -4 0.39298319E-02 0.12499801E+03</pdfrwt>
<totfact> 0.93898763E+03</totfact>
</mgrwt>
</event>
<event>
 5    1  0.3422688E-002  0.1249965E+03  0.7818608E-02  0.1235075E+00
          4   -1    0    0  501    0  0.00000000000E+00  0.00000000000E+00  0.62491069101E+03  0.62491198152E+03  0.12700000000E+01 0. -1.
         -4   -1    0    0    0  501 -0.00000000000E+00 -0.00000000000E+00 -0.61847234966E+01  0.63137710387E+01  0.12700000000E+01 0. -1.
         25    2    1    2    0    0  0.00000000000E+00  0.00000000000E+00  0.61872596752E+03  0.63122575255E+03  0.12499651119E+03 0.  0.
    9000005    1    3    3    0    0  0.21271176120E+02  0.94791311808E+01  0.60220396523E+03  0.60265490341E+03  0.10000000000E+01 0.  0.
    9000005    1    3    3    0    0 -0.21271176120E+02 -0.94791311808E+01  0.16522002286E+02  0.28570849147E+02  0.10000000000E+01 0.  0.
<mgrwt>
<rscale>  0 0.12499651E+03</rscale>
<asrwt>0</asrwt>
<pdfrwt beam="1">  1        4 0.96150125E-01 0.12499651E+03</pdfrwt>
<pdfrwt beam="2">  1       -4 0.96152200E-03 0.12499651E+03</pdfrwt>
<totfact> 0.46957658E+03</totfact>
</mgrwt>
</event>
<event>
 5    1  0.3422688E-002  0.1249961E+03  0.7818608E-02  0.1235075E+00
         -4   -1    0    0    0  501 -0.00000000000E+00  0.00000000000E+00  0.14027650638E+02  0.14085023337E+02  0.12700000000E+01 0. -1.
          4   -1    0    0  501    0  0.00000000000E+00 -0.00000000000E+00 -0.27782323211E+03  0.27782613484E+03  0.12700000000E+01 0. -1.
         25    2    1    2    0    0  0.00000000000E+00  0.00000000000E+00 -0.26379558147E+03  0.29191115818E+03  0.12499606179E+03 0.  0.
    9000005    1    3    3    0    0  0.60414328343E+02  0.82325447466E+00 -0.94646370603E+02  0.11229204907E+03  0.10000000000E+01 0.  0.
    9000005    1    3    3    0    0 -0.60414328343E+02 -0.82325447466E+00 -0.16914921087E+03  0.17961910910E+03  0.10000000000E+01 0.  0.
<mgrwt>
<rscale>  0 0.12499606E+03</rscale>
<asrwt>0</asrwt>
<pdfrwt beam="2">  1        4 0.42746668E-01 0.12499606E+03</pdfrwt>
<pdfrwt beam="1">  1       -4 0.21627369E-02 0.12499606E+03</pdfrwt>
<totfact> 0.76631526E+03</totfact>
</mgrwt>
</event>
<event>
 5    1  0.3422688E-002  0.1249977E+03  0.7818608E-02  0.1235073E+00
         -4   -1    0    0    0  501 -0.00000000000E+00  0.00000000000E+00  0.20510999502E+02  0.20550279818E+02  0.12700000000E+01 0.  1.
          4   -1    0    0  501    0  0.00000000000E+00 -0.00000000000E+00 -0.19021591334E+03  0.19022015295E+03  0.12700000000E+01 0.  1.
         25    2    1    2    0    0  0.00000000000E+00  0.00000000000E+00 -0.16970491384E+03  0.21077043277E+03  0.12499767017E+03 0.  0.
    9000005    1    3    3    0    0  0.30640773342E+02  0.20945461316E+02 -0.79689296309E-01  0.37129175740E+02  0.10000000000E+01 0.  0.
    9000005    1    3    3    0    0 -0.30640773342E+02 -0.20945461316E+02 -0.16962522454E+03  0.17364125703E+03  0.10000000000E+01 0.  0.
<mgrwt>
<rscale>  0 0.12499767E+03</rscale>
<asrwt>0</asrwt>
<pdfrwt beam="2">  1        4 0.29267333E-01 0.12499767E+03</pdfrwt>
<pdfrwt beam="1">  1       -4 0.31588862E-02 0.12499767E+03</pdfrwt>
<totfact> 0.88354816E+03</totfact>
</mgrwt>
</event>
<event>
 5    1  0.3422688E-002  0.1250310E+03  0.7818608E-02  0.1235021E+00
         -4   -1    0    0    0  501 -0.00000000000E+00  0.00000000000E+00  0.12966605908E+03  0.12967227837E+03  0.12700000000E+01 0.  1.
          4   -1    0    0  501    0  0.00000000000E+00 -0.00000000000E+00 -0.30120076020E+02  0.30146838631E+02  0.12700000000E+01 0.  1.
         25    2    1    2    0    0  0.00000000000E+00  0.00000000000E+00  0.99545983061E+02  0.15981911700E+03  0.12503098582E+03 0.  0.
    9000005    1    3    3    0    0  0.55345140651E+02 -0.28976823991E+02  0.52468200615E+02  0.81588314102E+02  0.10000000000E+01 0.  0.
    9000005    1    3    3    0    0 -0.55345140651E+02  0.28976823991E+02  0.47077782446E+02  0.78230802900E+02  0.10000000000E+01 0.  0.
<mgrwt>
<rscale>  0 0.12503099E+03</rscale>
<asrwt>0</asrwt>
<pdfrwt beam="2">  1        4 0.46363949E-02 0.12503099E+03</pdfrwt>
<pdfrwt beam="1">  1       -4 0.19951162E-01 0.12503099E+03</pdfrwt>
<totfact> 0.97309877E+03</totfact>
</mgrwt>
</event>
<event>
 5    1  0.3422688E-002  0.1249990E+03  0.7818608E-02  0.1235071E+00
         -4   -1    0    0    0  501 -0.00000000000E+00  0.00000000000E+00  0.57114395930E+02  0.57128514093E+02  0.12700000000E+01 0.  1.
          4   -1    0    0  501    0  0.00000000000E+00 -0.00000000000E+00 -0.68363877676E+02  0.68375673093E+02  0.12700000000E+01 0.  1.
         25    2    1    2    0    0  0.00000000000E+00  0.00000000000E+00 -0.11249481746E+02  0.12550418719E+03  0.12499900064E+03 0.  0.
    9000005    1    3    3    0    0  0.36822712450E+02  0.38065269724E+02 -0.38929732489E+02  0.65737363675E+02  0.10000000000E+01 0.  0.
    9000005    1    3    3    0    0 -0.36822712450E+02 -0.38065269724E+02  0.27680250743E+02  0.59766823511E+02  0.10000000000E+01 0.  0.
<mgrwt>
<rscale>  0 0.12499900E+03</rscale>
<asrwt>0</asrwt>
<pdfrwt beam="2">  1        4 0.10519513E-01 0.12499900E+03</pdfrwt>
<pdfrwt beam="1">  1       -4 0.87888235E-02 0.12499900E+03</pdfrwt>
<totfact> 0.10442097E+04</totfact>
</mgrwt>
</event>
<event>
 5    1  0.3422688E-002  0.1250016E+03  0.7818608E-02  0.1235067E+00
          4   -1    0    0  501    0  0.00000000000E+00  0.00000000000E+00  0.82651625401E+02  0.82661382044E+02  0.12700000000E+01 0. -1.
         -4   -1    0    0    0  501 -0.00000000000E+00 -0.00000000000E+00 -0.47241722470E+02  0.47258790103E+02  0.12700000000E+01 0. -1.
         25    2    1    2    0    0  0.00000000000E+00  0.00000000000E+00  0.35409902930E+02  0.12992017215E+03  0.12500155961E+03 0.  0.
    9000005    1    3    3    0    0 -0.43715236155E+02 -0.37435090656E+02  0.43013450001E+02  0.71857948520E+02  0.10000000000E+01 0.  0.
    9000005    1    3    3    0    0  0.43715236155E+02  0.37435090656E+02 -0.76035470704E+01  0.58062223627E+02  0.10000000000E+01 0.  0.
<mgrwt>
<rscale>  0 0.12500156E+03</rscale>
<asrwt>0</asrwt>
<pdfrwt beam="1">  1        4 0.12717698E-01 0.12500156E+03</pdfrwt>
<pdfrwt beam="2">  1       -4 0.72700207E-02 0.12500156E+03</pdfrwt>
<totfact> 0.10345851E+04</totfact>
</mgrwt>
</event>
<event>
 5    1  0.3422688E-002  0.1250028E+03  0.7818608E-02  0.1235065E+00
         -4   -1    0    0    0  501 -0.00000000000E+00  0.00000000000E+00  0.26700161470E+03  0.26700463508E+03  0.12700000000E+01 0.  1.
          4   -1    0    0  501    0  0.00000000000E+00 -0.00000000000E+00 -0.14600052886E+02  0.14655184894E+02  0.12700000000E+01 0.  1.
         25    2    1    2    0    0  0.00000000000E+00  0.00000000000E+00  0.25240156182E+03  0.28165981997E+03  0.12500282309E+03 0.  0.
    9000005    1    3    3    0    0  0.36406960264E+02 -0.37427361434E+02  0.48827675423E+02  0.71494167781E+02  0.10000000000E+01 0.  0.
    9000005    1    3    3    0    0 -0.36406960264E+02  0.37427361434E+02  0.20357388639E+03  0.21016565219E+03  0.10000000000E+01 0.  0.
<mgrwt>
<rscale>  0 0.12500282E+03</rscale>
<asrwt>0</asrwt>
<pdfrwt beam="2">  1        4 0.22506353E-02 0.12500282E+03</pdfrwt>
<pdfrwt beam="1">  1       -4 0.41081644E-01 0.12500282E+03</pdfrwt>
<totfact> 0.77953647E+03</totfact>
</mgrwt>
</event>
<event>
 5    1  0.3422688E-002  0.1249880E+03  0.7818608E-02  0.1235088E+00
         -4   -1    0    0    0  501 -0.00000000000E+00  0.00000000000E+00  0.37524365667E+02  0.37545850885E+02  0.12700000000E+01 0. -1.
          4   -1    0    0  501    0  0.00000000000E+00 -0.00000000000E+00 -0.10402384756E+03  0.10403159983E+03  0.12700000000E+01 0. -1.
         25    2    1    2    0    0  0.00000000000E+00  0.00000000000E+00 -0.66499481898E+02  0.14157745071E+03  0.12498797325E+03 0.  0.
    9000005    1    3    3    0    0 -0.64178609454E+01  0.11810048791E+02  0.35872993804E+02  0.38321506703E+02  0.10000000000E+01 0.  0.
    9000005    1    3    3    0    0  0.64178609454E+01 -0.11810048791E+02 -0.10237247570E+03  0.10325594401E+03  0.10000000000E+01 0.  0.
<mgrwt>
<rscale>  0 0.12498797E+03</rscale>
<asrwt>0</asrwt>
<pdfrwt beam="2">  1        4 0.16005918E-01 0.12498797E+03</pdfrwt>
<pdfrwt beam="1">  1       -4 0.57752284E-02 0.12498797E+03</pdfrwt>
<totfact> 0.10103733E+04</totfact>
</mgrwt>
</event>
<event>
 5    1  0.3422688E-002  0.1250004E+03  0.7818608E-02  0.1235069E+00
         -4   -1    0    0    0  501 -0.00000000000E+00  0.00000000000E+00  0.10919765795E+02  0.10993370048E+02  0.12700000000E+01 0.  1.
          4   -1    0    0  501    0  0.00000000000E+00 -0.00000000000E+00 -0.35644891723E+03  0.35645117968E+03  0.12700000000E+01 0.  1.
         25    2    1    2    0    0  0.00000000000E+00  0.00000000000E+00 -0.34552915144E+03  0.36744454973E+03  0.12500041053E+03 0.  0.
    9000005    1    3    3    0    0 -0.25591134744E+02  0.45486362993E+02 -0.71729644590E+02  0.88713343466E+02  0.10000000000E+01 0.  0.
    9000005    1    3    3    0    0  0.25591134744E+02 -0.45486362993E+02 -0.27379950685E+03  0.27873120627E+03  0.10000000000E+01 0.  0.
<mgrwt>
<rscale>  0 0.12500041E+03</rscale>
<asrwt>0</asrwt>
<pdfrwt beam="2">  1        4 0.54844122E-01 0.12500041E+03</pdfrwt>
<pdfrwt beam="1">  1       -4 0.16858001E-02 0.12500041E+03</pdfrwt>
<totfact> 0.67846523E+03</totfact>
</mgrwt>
</event>
<event>
 5    1  0.3422688E-002  0.1250003E+03  0.7818608E-02  0.1235069E+00
         -4   -1    0    0    0  501 -0.00000000000E+00  0.00000000000E+00  0.27113669023E+03  0.27113966455E+03  0.12700000000E+01 0.  1.
          4   -1    0    0  501    0  0.00000000000E+00 -0.00000000000E+00 -0.14375959656E+02  0.14431947756E+02  0.12700000000E+01 0.  1.
         25    2    1    2    0    0  0.00000000000E+00  0.00000000000E+00  0.25676073058E+03  0.28557161230E+03  0.12500029195E+03 0.  0.
    9000005    1    3    3    0    0 -0.53527252735E+01  0.56105201076E+02  0.66704530236E+02  0.87332351449E+02  0.10000000000E+01 0.  0.
    9000005    1    3    3    0    0  0.53527252735E+01 -0.56105201076E+02  0.19005620034E+03  0.19823926085E+03  0.10000000000E+01 0.  0.
<mgrwt>
<rscale>  0 0.12500029E+03</rscale>
<asrwt>0</asrwt>
<pdfrwt beam="2">  1        4 0.22162218E-02 0.12500029E+03</pdfrwt>
<pdfrwt beam="1">  1       -4 0.41717870E-01 0.12500029E+03</pdfrwt>
<totfact> 0.77444601E+03</totfact>
</mgrwt>
</event>
<event>
 5    1  0.3422688E-002  0.1249983E+03  0.7818608E-02  0.1235072E+00
          4   -1    0    0  501    0  0.00000000000E+00  0.00000000000E+00  0.59314773013E+01  0.60659148507E+01  0.12700000000E+01 0. -1.
         -4   -1    0    0    0  501 -0.00000000000E+00 -0.00000000000E+00 -0.65103049642E+03  0.65103173515E+03  0.12700000000E+01 0. -1.
         25    2    1    2    0    0  0.00000000000E+00  0.00000000000E+00 -0.64509901912E+03  0.65709765000E+03  0.12499830865E+03 0.  0.
    9000005    1    3    3    0    0  0.14277280206E+02  0.56880746932E+02 -0.43601525315E+03  0.43994267931E+03  0.10000000000E+01 0.  0.
    9000005    1    3    3    0    0 -0.14277280206E+02 -0.56880746932E+02 -0.20908376597E+03  0.21715497069E+03  0.10000000000E+01 0.  0.
<mgrwt>
<rscale>  0 0.12499831E+03</rscale>
<asrwt>0</asrwt>
<pdfrwt beam="1">  1        4 0.92297212E-03 0.12499831E+03</pdfrwt>
<pdfrwt beam="2">  1       -4 0.10016892E+00 0.12499831E+03</pdfrwt>
<totfact> 0.45451723E+03</totfact>
</mgrwt>
</event>
<event>
 5    1  0.3422688E-002  0.1250010E+03  0.7818608E-02  0.1235068E+00
          4   -1    0    0  501    0  0.00000000000E+00  0.00000000000E+00  0.24197059891E+02  0.24230365399E+02  0.12700000000E+01 0. -1.
         -4   -1    0    0    0  501 -0.00000000000E+00 -0.00000000000E+00 -0.16129069596E+03  0.16129569586E+03  0.12700000000E+01 0. -1.
         25    2    1    2    0    0  0.00000000000E+00  0.00000000000E+00 -0.13709363607E+03  0.18552606126E+03  0.12500101742E+03 0.  0.
    9000005    1    3    3    0    0  0.24632396192E+02 -0.13464205660E+02 -0.15141329059E+03  0.15399683225E+03  0.10000000000E+01 0.  0.
    9000005    1    3    3    0    0 -0.24632396192E+02  0.13464205660E+02  0.14319654521E+02  0.31529229008E+02  0.10000000000E+01 0.  0.
<mgrwt>
<rscale>  0 0.12500102E+03</rscale>
<asrwt>0</asrwt>
<pdfrwt beam="1">  1        4 0.37255713E-02 0.12500102E+03</pdfrwt>
<pdfrwt beam="2">  1       -4 0.24816899E-01 0.12500102E+03</pdfrwt>
<totfact> 0.92629534E+03</totfact>
</mgrwt>
</event>
<event>
 5    1  0.3422688E-002  0.1249994E+03  0.7818608E-02  0.1235070E+00
         -4   -1    0    0    0  501 -0.00000000000E+00  0.00000000000E+00  0.13727521111E+03  0.13728108568E+03  0.12700000000E+01 0. -1.
          4   -1    0    0  501    0  0.00000000000E+00 -0.00000000000E+00 -0.28434684672E+02  0.28463032031E+02  0.12700000000E+01 0. -1.
         25    2    1    2    0    0  0.00000000000E+00  0.00000000000E+00  0.10884052643E+03  0.16574411771E+03  0.12499940944E+03 0.  0.
    9000005    1    3    3    0    0 -0.17533001987E+01  0.72236492274E+01  0.13669341868E+03  0.13689903535E+03  0.10000000000E+01 0.  0.
    9000005    1    3    3    0    0  0.17533001987E+01 -0.72236492274E+01 -0.27852892245E+02  0.28845082357E+02  0.10000000000E+01 0.  0.
<mgrwt>
<rscale>  0 0.12499941E+03</rscale>
<asrwt>0</asrwt>
<pdfrwt beam="2">  1        4 0.43771992E-02 0.12499941E+03</pdfrwt>
<pdfrwt beam="1">  1       -4 0.21121896E-01 0.12499941E+03</pdfrwt>
<totfact> 0.96247930E+03</totfact>
</mgrwt>
</event>
<event>
 5    1  0.3422688E-002  0.1250014E+03  0.7818608E-02  0.1235067E+00
         -4   -1    0    0    0  501 -0.00000000000E+00  0.00000000000E+00  0.12258477975E+04  0.12258484554E+04  0.12700000000E+01 0. -1.
          4   -1    0    0  501    0  0.00000000000E+00 -0.00000000000E+00 -0.30594229658E+01  0.33125471897E+01  0.12700000000E+01 0. -1.
         25    2    1    2    0    0  0.00000000000E+00  0.00000000000E+00  0.12227883745E+04  0.12291610026E+04  0.12500144527E+03 0.  0.
    9000005    1    3    3    0    0  0.56610587444E+02 -0.16651256710E+02  0.81370858146E+03  0.81584598945E+03  0.10000000000E+01 0.  0.
    9000005    1    3    3    0    0 -0.56610587444E+02  0.16651256710E+02  0.40907979308E+03  0.41331501312E+03  0.10000000000E+01 0.  0.
<mgrwt>
<rscale>  0 0.12500145E+03</rscale>
<asrwt>0</asrwt>
<pdfrwt beam="2">  1        4 0.49020162E-03 0.12500145E+03</pdfrwt>
<pdfrwt beam="1">  1       -4 0.18861170E+00 0.12500145E+03</pdfrwt>
<totfact> 0.23961186E+03</totfact>
</mgrwt>
</event>
<event>
 5    1  0.3422688E-002  0.1250174E+03  0.7818608E-02  0.1235042E+00
          4   -1    0    0  501    0  0.00000000000E+00  0.00000000000E+00  0.17112082680E+03  0.17112553949E+03  0.12700000000E+01 0. -1.
         -4   -1    0    0    0  501 -0.00000000000E+00 -0.00000000000E+00 -0.22811096001E+02  0.22846422056E+02  0.12700000000E+01 0. -1.
         25    2    1    2    0    0  0.00000000000E+00  0.00000000000E+00  0.14830973080E+03  0.19397196154E+03  0.12501738125E+03 0.  0.
    9000005    1    3    3    0    0 -0.43419632883E+02 -0.29812927794E+02  0.21946285933E+02  0.57067632240E+02  0.10000000000E+01 0.  0.
    9000005    1    3    3    0    0  0.43419632883E+02  0.29812927794E+02  0.12636344487E+03  0.13690432930E+03  0.10000000000E+01 0.  0.
<mgrwt>
<rscale>  0 0.12501738E+03</rscale>
<asrwt>0</asrwt>
<pdfrwt beam="1">  1        4 0.26329361E-01 0.12501738E+03</pdfrwt>
<pdfrwt beam="2">  1       -4 0.35124793E-02 0.12501738E+03</pdfrwt>
<totfact> 0.91125293E+03</totfact>
</mgrwt>
</event>
<event>
 5    1  0.3422688E-002  0.1249997E+03  0.7818608E-02  0.1235070E+00
          4   -1    0    0  501    0  0.00000000000E+00  0.00000000000E+00  0.13202932426E+02  0.13263872913E+02  0.12700000000E+01 0.  1.
         -4   -1    0    0    0  501 -0.00000000000E+00 -0.00000000000E+00 -0.29511730323E+03  0.29512003586E+03  0.12700000000E+01 0.  1.
         25    2    1    2    0    0  0.00000000000E+00  0.00000000000E+00 -0.28191437080E+03  0.30838390877E+03  0.12499969090E+03 0.  0.
    9000005    1    3    3    0    0 -0.19484118297E+02 -0.46171459054E+02 -0.23306201541E+03  0.23839114397E+03  0.10000000000E+01 0.  0.
    9000005    1    3    3    0    0  0.19484118297E+02  0.46171459054E+02 -0.48852355392E+02  0.69992764800E+02  0.10000000000E+01 0.  0.
<mgrwt>
<rscale>  0 0.12499969E+03</rscale>
<asrwt>0</asrwt>
<pdfrwt beam="1">  1        4 0.20361185E-02 0.12499969E+03</pdfrwt>
<pdfrwt beam="2">  1       -4 0.45407555E-01 0.12499969E+03</pdfrwt>
<totfact> 0.74559583E+03</totfact>
</mgrwt>
</event>
<event>
 5    1  0.3422688E-002  0.1249982E+03  0.7818608E-02  0.1235072E+00
          4   -1    0    0  501    0  0.00000000000E+00  0.00000000000E+00  0.14964325153E+02  0.15018119965E+02  0.12700000000E+01 0.  1.
         -4   -1    0    0    0  501 -0.00000000000E+00 -0.00000000000E+00 -0.26050623148E+03  0.26050932716E+03  0.12700000000E+01 0.  1.
         25    2    1    2    0    0  0.00000000000E+00  0.00000000000E+00 -0.24554190632E+03  0.27552744713E+03  0.12499818542E+03 0.  0.
    9000005    1    3    3    0    0 -0.36613734362E+02 -0.53236834082E+01 -0.23377924748E+03  0.23669103004E+03  0.10000000000E+01 0.  0.
    9000005    1    3    3    0    0  0.36613734362E+02  0.53236834082E+01 -0.11762658841E+02  0.38836417084E+02  0.10000000000E+01 0.  0.
<mgrwt>
<rscale>  0 0.12499819E+03</rscale>
<asrwt>0</asrwt>
<pdfrwt beam="1">  1        4 0.23065802E-02 0.12499819E+03</pdfrwt>
<pdfrwt beam="2">  1       -4 0.40082255E-01 0.12499819E+03</pdfrwt>
<totfact> 0.78778075E+03</totfact>
</mgrwt>
</event>
<event>
 5    1  0.3422688E-002  0.1250043E+03  0.7818608E-02  0.1235063E+00
          4   -1    0    0  501    0  0.00000000000E+00  0.00000000000E+00  0.45932050859E+03  0.45932226433E+03  0.12700000000E+01 0.  1.
         -4   -1    0    0    0  501 -0.00000000000E+00 -0.00000000000E+00 -0.84558042752E+01  0.85506447675E+01  0.12700000000E+01 0.  1.
         25    2    1    2    0    0  0.00000000000E+00  0.00000000000E+00  0.45086470431E+03  0.46787290910E+03  0.12500430982E+03 0.  0.
    9000005    1    3    3    0    0  0.34034103521E+01 -0.21424122276E+02  0.60696993096E+01  0.22548114489E+02  0.10000000000E+01 0.  0.
    9000005    1    3    3    0    0 -0.34034103521E+01  0.21424122276E+02  0.44479500501E+03  0.44532479461E+03  0.10000000000E+01 0.  0.
<mgrwt>
<rscale>  0 0.12500431E+03</rscale>
<asrwt>0</asrwt>
<pdfrwt beam="1">  1        4 0.70672126E-01 0.12500431E+03</pdfrwt>
<pdfrwt beam="2">  1       -4 0.13083234E-02 0.12500431E+03</pdfrwt>
<totfact> 0.58440595E+03</totfact>
</mgrwt>
</event>
<event>
 5    1  0.3422688E-002  0.1249841E+03  0.7818608E-02  0.1235094E+00
          4   -1    0    0  501    0  0.00000000000E+00  0.00000000000E+00  0.34377912651E+03  0.34378147234E+03  0.12700000000E+01 0.  1.
         -4   -1    0    0    0  501 -0.00000000000E+00 -0.00000000000E+00 -0.11321896391E+02  0.11392902961E+02  0.12700000000E+01 0.  1.
         25    2    1    2    0    0  0.00000000000E+00  0.00000000000E+00  0.33245723012E+03  0.35517437530E+03  0.12498410704E+03 0.  0.
    9000005    1    3    3    0    0  0.86510629393E+01 -0.55910920237E+02  0.90861248271E+02  0.10704035841E+03  0.10000000000E+01 0.  0.
    9000005    1    3    3    0    0 -0.86510629393E+01  0.55910920237E+02  0.24159598185E+03  0.24813401689E+03  0.10000000000E+01 0.  0.
<mgrwt>
<rscale>  0 0.12498411E+03</rscale>
<asrwt>0</asrwt>
<pdfrwt beam="1">  1        4 0.52894741E-01 0.12498411E+03</pdfrwt>
<pdfrwt beam="2">  1       -4 0.17474726E-02 0.12498411E+03</pdfrwt>
<totfact> 0.69183358E+03</totfact>
</mgrwt>
</event>
<event>
 5    1  0.3422688E-002  0.1249991E+03  0.7818608E-02  0.1235071E+00
          4   -1    0    0  501    0  0.00000000000E+00  0.00000000000E+00  0.10625401167E+02  0.10701030322E+02  0.12700000000E+01 0. -1.
         -4   -1    0    0    0  501 -0.00000000000E+00 -0.00000000000E+00 -0.36624750095E+03  0.36624970287E+03  0.12700000000E+01 0. -1.
         25    2    1    2    0    0  0.00000000000E+00  0.00000000000E+00 -0.35562209978E+03  0.37695073319E+03  0.12499910959E+03 0.  0.
    9000005    1    3    3    0    0 -0.31962539865E+02  0.23808889455E+02 -0.32661691741E+02  0.51538852132E+02  0.10000000000E+01 0.  0.
    9000005    1    3    3    0    0  0.31962539865E+02 -0.23808889455E+02 -0.32296040804E+03  0.32541188106E+03  0.10000000000E+01 0.  0.
<mgrwt>
<rscale>  0 0.12499911E+03</rscale>
<asrwt>0</asrwt>
<pdfrwt beam="1">  1        4 0.16406644E-02 0.12499911E+03</pdfrwt>
<pdfrwt beam="2">  1       -4 0.56351747E-01 0.12499911E+03</pdfrwt>
<totfact> 0.66859296E+03</totfact>
</mgrwt>
</event>
<event>
 5    1  0.3422688E-002  0.1249974E+03  0.7818608E-02  0.1235073E+00
         -4   -1    0    0    0  501 -0.00000000000E+00  0.00000000000E+00  0.16633005765E+03  0.16633490607E+03  0.12700000000E+01 0.  1.
          4   -1    0    0  501    0  0.00000000000E+00 -0.00000000000E+00 -0.23461585379E+02  0.23495933446E+02  0.12700000000E+01 0.  1.
         25    2    1    2    0    0  0.00000000000E+00  0.00000000000E+00  0.14286847227E+03  0.18983083951E+03  0.12499738902E+03 0.  0.
    9000005    1    3    3    0    0 -0.20649634854E+02 -0.37366359948E+02  0.14073715178E+03  0.14707344480E+03  0.10000000000E+01 0.  0.
    9000005    1    3    3    0    0  0.20649634854E+02  0.37366359948E+02  0.21313204880E+01  0.42757394710E+02  0.10000000000E+01 0.  0.
<mgrwt>
<rscale>  0 0.12499739E+03</rscale>
<asrwt>0</asrwt>
<pdfrwt beam="2">  1        4 0.36124897E-02 0.12499739E+03</pdfrwt>
<pdfrwt beam="1">  1       -4 0.25592255E-01 0.12499739E+03</pdfrwt>
<totfact> 0.91882129E+03</totfact>
</mgrwt>
</event>
<event>
 5    1  0.3422688E-002  0.1249949E+03  0.7818608E-02  0.1235077E+00
          4   -1    0    0  501    0  0.00000000000E+00  0.00000000000E+00  0.12439597369E+02  0.12504258583E+02  0.12700000000E+01 0. -1.
         -4   -1    0    0    0  501 -0.00000000000E+00 -0.00000000000E+00 -0.31311180670E+03  0.31311438229E+03  0.12700000000E+01 0. -1.
         25    2    1    2    0    0  0.00000000000E+00  0.00000000000E+00 -0.30067220933E+03  0.32561864087E+03  0.12499488717E+03 0.  0.
    9000005    1    3    3    0    0 -0.32568745948E+02 -0.46449592472E+02 -0.82073574308E+02  0.99776547611E+02  0.10000000000E+01 0.  0.
    9000005    1    3    3    0    0  0.32568745948E+02  0.46449592472E+02 -0.21859863502E+03  0.22584209326E+03  0.10000000000E+01 0.  0.
<mgrwt>
<rscale>  0 0.12499489E+03</rscale>
<asrwt>0</asrwt>
<pdfrwt beam="1">  1        4 0.19189565E-02 0.12499489E+03</pdfrwt>
<pdfrwt beam="2">  1       -4 0.48176213E-01 0.12499489E+03</pdfrwt>
<totfact> 0.72501025E+03</totfact>
</mgrwt>
</event>
<event>
 5    1  0.3422688E-002  0.1249991E+03  0.7818608E-02  0.1235071E+00
         -4   -1    0    0    0  501 -0.00000000000E+00  0.00000000000E+00  0.94396053691E+03  0.94396139124E+03  0.12700000000E+01 0. -1.
          4   -1    0    0  501    0  0.00000000000E+00 -0.00000000000E+00 -0.40397698288E+01  0.42346948260E+01  0.12700000000E+01 0. -1.
         25    2    1    2    0    0  0.00000000000E+00  0.00000000000E+00  0.93992076708E+03  0.94819608606E+03  0.12499907692E+03 0.  0.
    9000005    1    3    3    0    0 -0.23368871995E+02 -0.51612499117E+02  0.66997333725E+03  0.67236539684E+03  0.10000000000E+01 0.  0.
    9000005    1    3    3    0    0  0.23368871995E+02  0.51612499117E+02  0.26994742983E+03  0.27583068922E+03  0.10000000000E+01 0.  0.
<mgrwt>
<rscale>  0 0.12499908E+03</rscale>
<asrwt>0</asrwt>
<pdfrwt beam="2">  1        4 0.63656243E-03 0.12499908E+03</pdfrwt>
<pdfrwt beam="1">  1       -4 0.14523989E+00 0.12499908E+03</pdfrwt>
<totfact> 0.32380724E+03</totfact>
</mgrwt>
</event>
<event>
 5    1  0.3422688E-002  0.1249945E+03  0.7818608E-02  0.1235078E+00
          4   -1    0    0  501    0  0.00000000000E+00  0.00000000000E+00  0.10218752165E+03  0.10219541321E+03  0.12700000000E+01 0. -1.
         -4   -1    0    0    0  501 -0.00000000000E+00 -0.00000000000E+00 -0.38203002190E+02  0.38224105958E+02  0.12700000000E+01 0. -1.
         25    2    1    2    0    0  0.00000000000E+00  0.00000000000E+00  0.63984519457E+02  0.14041951916E+03  0.12499449041E+03 0.  0.
    9000005    1    3    3    0    0  0.11904162587E+02 -0.36939143666E+02 -0.23028202946E+02  0.45138758873E+02  0.10000000000E+01 0.  0.
    9000005    1    3    3    0    0 -0.11904162587E+02  0.36939143666E+02  0.87012722403E+02  0.95280760291E+02  0.10000000000E+01 0.  0.
<mgrwt>
<rscale>  0 0.12499449E+03</rscale>
<asrwt>0</asrwt>
<pdfrwt beam="1">  1        4 0.15723387E-01 0.12499449E+03</pdfrwt>
<pdfrwt beam="2">  1       -4 0.58796155E-02 0.12499449E+03</pdfrwt>
<totfact> 0.10126155E+04</totfact>
</mgrwt>
</event>
<event>
 5    1  0.3422688E-002  0.1249997E+03  0.7818608E-02  0.1235070E+00
         -4   -1    0    0    0  501 -0.00000000000E+00  0.00000000000E+00  0.72301055542E+01  0.73407987525E+01  0.12700000000E+01 0.  1.
          4   -1    0    0  501    0  0.00000000000E+00 -0.00000000000E+00 -0.53605736829E+03  0.53605887269E+03  0.12700000000E+01 0.  1.
         25    2    1    2    0    0  0.00000000000E+00  0.00000000000E+00 -0.52882726273E+03  0.54339967145E+03  0.12499971648E+03 0.  0.
    9000005    1    3    3    0    0 -0.27486203958E+02 -0.10135798625E+02 -0.50437814978E+03  0.50522919927E+03  0.10000000000E+01 0.  0.
    9000005    1    3    3    0    0  0.27486203958E+02  0.10135798625E+02 -0.24449112951E+02  0.38170472173E+02  0.10000000000E+01 0.  0.
<mgrwt>
<rscale>  0 0.12499972E+03</rscale>
<asrwt>0</asrwt>
<pdfrwt beam="2">  1        4 0.82478964E-01 0.12499972E+03</pdfrwt>
<pdfrwt beam="1">  1       -4 0.11209549E-02 0.12499972E+03</pdfrwt>
<totfact> 0.52647948E+03</totfact>
</mgrwt>
</event>
<event>
 5    1  0.3422688E-002  0.1249997E+03  0.7818608E-02  0.1235070E+00
          4   -1    0    0  501    0  0.00000000000E+00  0.00000000000E+00  0.10496800823E+02  0.10573349872E+02  0.12700000000E+01 0.  1.
         -4   -1    0    0    0  501 -0.00000000000E+00 -0.00000000000E+00 -0.37070576966E+03  0.37070794510E+03  0.12700000000E+01 0.  1.
         25    2    1    2    0    0  0.00000000000E+00  0.00000000000E+00 -0.36020896884E+03  0.38128129497E+03  0.12499969865E+03 0.  0.
    9000005    1    3    3    0    0  0.15173883606E+02 -0.54810894144E+02 -0.10110632486E+03  0.11600849015E+03  0.10000000000E+01 0.  0.
    9000005    1    3    3    0    0 -0.15173883606E+02  0.54810894144E+02 -0.25910264398E+03  0.26527280482E+03  0.10000000000E+01 0.  0.
<mgrwt>
<rscale>  0 0.12499970E+03</rscale>
<asrwt>0</asrwt>
<pdfrwt beam="1">  1        4 0.16209484E-02 0.12499970E+03</pdfrwt>
<pdfrwt beam="2">  1       -4 0.57037703E-01 0.12499970E+03</pdfrwt>
<totfact> 0.66415434E+03</totfact>
</mgrwt>
</event>
<event>
 5    1  0.3422688E-002  0.1250000E+03  0.7818608E-02  0.1235069E+00
          4   -1    0    0  501    0  0.00000000000E+00  0.00000000000E+00  0.90343850778E+01  0.91232129063E+01  0.12700000000E+01 0. -1.
         -4   -1    0    0    0  501 -0.00000000000E+00 -0.00000000000E+00 -0.43017087228E+03  0.43017274699E+03  0.12700000000E+01 0. -1.
         25    2    1    2    0    0  0.00000000000E+00  0.00000000000E+00 -0.42113648720E+03  0.43929595990E+03  0.12499999813E+03 0.  0.
    9000005    1    3    3    0    0  0.39893651058E+02 -0.47770189939E+02 -0.23037239701E+03  0.23863347575E+03  0.10000000000E+01 0.  0.
    9000005    1    3    3    0    0 -0.39893651058E+02  0.47770189939E+02 -0.19076409019E+03  0.20066248415E+03  0.10000000000E+01 0.  0.
<mgrwt>
<rscale>  0 0.12500000E+03</rscale>
<asrwt>0</asrwt>
<pdfrwt beam="1">  1        4 0.13968828E-02 0.12500000E+03</pdfrwt>
<pdfrwt beam="2">  1       -4 0.66187096E-01 0.12500000E+03</pdfrwt>
<totfact> 0.60902324E+03</totfact>
</mgrwt>
</event>
<event>
 5    1  0.3422688E-002  0.1249896E+03  0.7818608E-02  0.1235086E+00
          4   -1    0    0  501    0  0.00000000000E+00  0.00000000000E+00  0.58698243079E+02  0.58711980384E+02  0.12700000000E+01 0. -1.
         -4   -1    0    0    0  501 -0.00000000000E+00 -0.00000000000E+00 -0.66509347447E+02  0.66521471705E+02  0.12700000000E+01 0. -1.
         25    2    1    2    0    0  0.00000000000E+00  0.00000000000E+00 -0.78111043675E+01  0.12523345209E+03  0.12498961625E+03 0.  0.
    9000005    1    3    3    0    0  0.19481088794E+02  0.59365154155E+02 -0.29727718652E+01  0.62558546346E+02  0.10000000000E+01 0.  0.
    9000005    1    3    3    0    0 -0.19481088794E+02 -0.59365154155E+02 -0.48383325023E+01  0.62674905742E+02  0.10000000000E+01 0.  0.
<mgrwt>
<rscale>  0 0.12498962E+03</rscale>
<asrwt>0</asrwt>
<pdfrwt beam="1">  1        4 0.90324883E-02 0.12498962E+03</pdfrwt>
<pdfrwt beam="2">  1       -4 0.10234197E-01 0.12498962E+03</pdfrwt>
<totfact> 0.10450246E+04</totfact>
</mgrwt>
</event>
<event>
 4    1  0.3422688E-002  0.1250701E+03  0.7818608E-02  0.1234960E+00
          4   -1    0    0  501    0  0.00000000000E+00  0.00000000000E+00  0.11977490660E+03  0.11978163946E+03  0.12700000000E+01 0.  1.
         -4   -1    0    0    0  501 -0.00000000000E+00 -0.00000000000E+00 -0.32629825729E+02  0.32654531494E+02  0.12700000000E+01 0.  1.
    9000005    1    1    2    0    0  0.10924583144E+02 -0.60677454177E+02  0.30875275515E+02  0.68959282192E+02  0.10000000000E+01 0.  0.
    9000005    1    1    2    0    0 -0.10924583144E+02  0.60677454177E+02  0.56269805359E+02  0.83476888762E+02  0.10000000000E+01 0.  0.
<mgrwt>
<rscale>  0 0.12507006E+03</rscale>
<asrwt>0</asrwt>
<pdfrwt beam="1">  1        4 0.18429327E-01 0.12507006E+03</pdfrwt>
<pdfrwt beam="2">  1       -4 0.50223916E-02 0.12507006E+03</pdfrwt>
<totfact> 0.98664661E+03</totfact>
</mgrwt>
</event>
<event>
 5    1  0.3422688E-002  0.1249934E+03  0.7818608E-02  0.1235080E+00
          4   -1    0    0  501    0  0.00000000000E+00  0.00000000000E+00  0.81321090538E+03  0.81321189707E+03  0.12700000000E+01 0. -1.
         -4   -1    0    0    0  501 -0.00000000000E+00 -0.00000000000E+00 -0.47180165149E+01  0.48859574123E+01  0.12700000000E+01 0. -1.
         25    2    1    2    0    0  0.00000000000E+00  0.00000000000E+00  0.80849288887E+03  0.81809785448E+03  0.12499339245E+03 0.  0.
    9000005    1    3    3    0    0 -0.59864258139E+02 -0.82832038738E+01  0.50824937952E+03  0.51183080471E+03  0.10000000000E+01 0.  0.
    9000005    1    3    3    0    0  0.59864258139E+02  0.82832038738E+01  0.30024350935E+03  0.30626704977E+03  0.10000000000E+01 0.  0.
<mgrwt>
<rscale>  0 0.12499339E+03</rscale>
<asrwt>0</asrwt>
<pdfrwt beam="1">  1        4 0.12512229E+00 0.12499339E+03</pdfrwt>
<pdfrwt beam="2">  1       -4 0.73884398E-03 0.12499339E+03</pdfrwt>
<totfact> 0.37474881E+03</totfact>
</mgrwt>
</event>
<event>
 5    1  0.3422688E-002  0.1250001E+03  0.7818608E-02  0.1235069E+00
          4   -1    0    0  501    0  0.00000000000E+00  0.00000000000E+00  0.59824922557E+03  0.59825057359E+03  0.12700000000E+01 0. -1.
         -4   -1    0    0    0  501 -0.00000000000E+00 -0.00000000000E+00 -0.64663562918E+01  0.65898910228E+01  0.12700000000E+01 0. -1.
         25    2    1    2    0    0  0.00000000000E+00  0.00000000000E+00  0.59178286928E+03  0.60484046461E+03  0.12500009302E+03 0.  0.
    9000005    1    3    3    0    0  0.48445085478E+02  0.35774135105E+02  0.21513541895E+03  0.22340761745E+03  0.10000000000E+01 0.  0.
    9000005    1    3    3    0    0 -0.48445085478E+02 -0.35774135105E+02  0.37664745033E+03  0.38143284716E+03  0.10000000000E+01 0.  0.
<mgrwt>
<rscale>  0 0.12500009E+03</rscale>
<asrwt>0</asrwt>
<pdfrwt beam="1">  1        4 0.92047952E-01 0.12500009E+03</pdfrwt>
<pdfrwt beam="2">  1       -4 0.10044304E-02 0.12500009E+03</pdfrwt>
<totfact> 0.48563384E+03</totfact>
</mgrwt>
</event>
<event>
 5    1  0.3422688E-002  0.1249995E+03  0.7818608E-02  0.1235070E+00
          4   -1    0    0  501    0  0.00000000000E+00  0.00000000000E+00  0.46780586385E+02  0.46797822199E+02  0.12700000000E+01 0. -1.
         -4   -1    0    0    0  501 -0.00000000000E+00 -0.00000000000E+00 -0.83463410745E+02  0.83473072503E+02  0.12700000000E+01 0. -1.
         25    2    1    2    0    0  0.00000000000E+00  0.00000000000E+00 -0.36682824359E+02  0.13027089470E+03  0.12499950561E+03 0.  0.
    9000005    1    3    3    0    0  0.15416776333E+02  0.32244453385E+02  0.35082826232E+02  0.50091780394E+02  0.10000000000E+01 0.  0.
    9000005    1    3    3    0    0 -0.15416776333E+02 -0.32244453385E+02 -0.71765650591E+02  0.80179114309E+02  0.10000000000E+01 0.  0.
<mgrwt>
<rscale>  0 0.12499951E+03</rscale>
<asrwt>0</asrwt>
<pdfrwt beam="1">  1        4 0.71990824E-02 0.12499951E+03</pdfrwt>
<pdfrwt beam="2">  1       -4 0.12842594E-01 0.12499951E+03</pdfrwt>
<totfact> 0.10338831E+04</totfact>
</mgrwt>
</event>
<event>
 5    1  0.3422688E-002  0.1250006E+03  0.7818608E-02  0.1235068E+00
         -4   -1    0    0    0  501 -0.00000000000E+00  0.00000000000E+00  0.13986264867E+04  0.13986270633E+04  0.12700000000E+01 0.  1.
          4   -1    0    0  501    0  0.00000000000E+00 -0.00000000000E+00 -0.26479635538E+01  0.29367687996E+01  0.12700000000E+01 0.  1.
         25    2    1    2    0    0  0.00000000000E+00  0.00000000000E+00  0.13959785231E+04  0.14015638321E+04  0.12500055347E+03 0.  0.
    9000005    1    3    3    0    0  0.62966231988E+01 -0.61065128567E+02  0.56690067781E+03  0.57021572750E+03  0.10000000000E+01 0.  0.
    9000005    1    3    3    0    0 -0.62966231988E+01  0.61065128567E+02  0.82907784529E+03  0.83134810455E+03  0.10000000000E+01 0.  0.
<mgrwt>
<rscale>  0 0.12500055E+03</rscale>
<asrwt>0</asrwt>
<pdfrwt beam="2">  1        4 0.42963779E-03 0.12500055E+03</pdfrwt>
<pdfrwt beam="1">  1       -4 0.21519624E+00 0.12500055E+03</pdfrwt>
<totfact> 0.19947055E+03</totfact>
</mgrwt>
</event>
<event>
 5    1  0.3422688E-002  0.1250012E+03  0.7818608E-02  0.1235067E+00
          4   -1    0    0  501    0  0.00000000000E+00  0.00000000000E+00  0.22032959853E+02  0.22069531483E+02  0.12700000000E+01 0. -1.
         -4   -1    0    0    0  501 -0.00000000000E+00 -0.00000000000E+00 -0.17710874005E+03  0.17711329341E+03  0.12700000000E+01 0. -1.
         25    2    1    2    0    0  0.00000000000E+00  0.00000000000E+00 -0.15507578019E+03  0.19918282489E+03  0.12500120050E+03 0.  0.
    9000005    1    3    3    0    0  0.61068397412E+02  0.90971411811E+01 -0.62153249976E+02  0.87613547028E+02  0.10000000000E+01 0.  0.
    9000005    1    3    3    0    0 -0.61068397412E+02 -0.90971411811E+01 -0.92922530218E+02  0.11156927786E+03  0.10000000000E+01 0.  0.
<mgrwt>
<rscale>  0 0.12500120E+03</rscale>
<asrwt>0</asrwt>
<pdfrwt beam="1">  1        4 0.33928497E-02 0.12500120E+03</pdfrwt>
<pdfrwt beam="2">  1       -4 0.27250661E-01 0.12500120E+03</pdfrwt>
<totfact> 0.90271088E+03</totfact>
</mgrwt>
</event>
<event>
 5    1  0.3422688E-002  0.1249899E+03  0.7818608E-02  0.1235085E+00
         -4   -1    0    0    0  501 -0.00000000000E+00  0.00000000000E+00  0.77333060754E+02  0.77343488320E+02  0.12700000000E+01 0.  1.
          4   -1    0    0  501    0  0.00000000000E+00 -0.00000000000E+00 -0.50482020151E+02  0.50497992618E+02  0.12700000000E+01 0.  1.
         25    2    1    2    0    0  0.00000000000E+00  0.00000000000E+00  0.26851040603E+02  0.12784148094E+03  0.12498986306E+03 0.  0.
    9000005    1    3    3    0    0  0.38080477543E+02 -0.46806876153E+02  0.30032015168E+02  0.67408666803E+02  0.10000000000E+01 0.  0.
    9000005    1    3    3    0    0 -0.38080477543E+02  0.46806876153E+02 -0.31809745649E+01  0.60432814135E+02  0.10000000000E+01 0.  0.
<mgrwt>
<rscale>  0 0.12498986E+03</rscale>
<asrwt>0</asrwt>
<pdfrwt beam="2">  1        4 0.77684954E-02 0.12498986E+03</pdfrwt>
<pdfrwt beam="1">  1       -4 0.11899425E-01 0.12498986E+03</pdfrwt>
<totfact> 0.10393291E+04</totfact>
</mgrwt>
</event>
<event>
 5    1  0.3422688E-002  0.1250007E+03  0.7818608E-02  0.1235068E+00
          4   -1    0    0  501    0  0.00000000000E+00  0.00000000000E+00  0.11504252687E+02  0.11574140568E+02  0.12700000000E+01 0.  1.
         -4   -1    0    0    0  501 -0.00000000000E+00 -0.00000000000E+00 -0.33845287306E+03  0.33845525580E+03  0.12700000000E+01 0.  1.
         25    2    1    2    0    0  0.00000000000E+00  0.00000000000E+00 -0.32694862037E+03  0.35002939637E+03  0.12500071185E+03 0.  0.
    9000005    1    3    3    0    0  0.31611561655E+01 -0.53618315954E+02 -0.74025920092E+02  0.91464493436E+02  0.10000000000E+01 0.  0.
    9000005    1    3    3    0    0 -0.31611561655E+01  0.53618315954E+02 -0.25292270028E+03  0.25856490294E+03  0.10000000000E+01 0.  0.
<mgrwt>
<rscale>  0 0.12500071E+03</rscale>
<asrwt>0</asrwt>
<pdfrwt beam="1">  1        4 0.17754446E-02 0.12500071E+03</pdfrwt>
<pdfrwt beam="2">  1       -4 0.52075225E-01 0.12500071E+03</pdfrwt>
<totfact> 0.69720227E+03</totfact>
</mgrwt>
</event>
<event>
 5    1  0.3422688E-002  0.1250009E+03  0.7818608E-02  0.1235068E+00
         -4   -1    0    0    0  501 -0.00000000000E+00  0.00000000000E+00  0.23642653605E+04  0.23642657016E+04  0.12700000000E+01 0.  1.
          4   -1    0    0  501    0  0.00000000000E+00 -0.00000000000E+00 -0.14077871573E+01  0.18959864662E+01  0.12700000000E+01 0.  1.
         25    2    1    2    0    0  0.00000000000E+00  0.00000000000E+00  0.23628575733E+04  0.23661616881E+04  0.12500088867E+03 0.  0.
    9000005    1    3    3    0    0 -0.93325938210E+01  0.42619344764E+02  0.20283472991E+04  0.20288167171E+04  0.10000000000E+01 0.  0.
    9000005    1    3    3    0    0  0.93325938210E+01 -0.42619344764E+02  0.33451027421E+03  0.33734497092E+03  0.10000000000E+01 0.  0.
<mgrwt>
<rscale>  0 0.12500089E+03</rscale>
<asrwt>0</asrwt>
<pdfrwt beam="2">  1        4 0.25416158E-03 0.12500089E+03</pdfrwt>
<pdfrwt beam="1">  1       -4 0.36377227E+00 0.12500089E+03</pdfrwt>
<totfact> 0.58075292E+02</totfact>
</mgrwt>
</event>
<event>
 5    1  0.3422688E-002  0.1250013E+03  0.7818608E-02  0.1235067E+00
         -4   -1    0    0    0  501 -0.00000000000E+00  0.00000000000E+00  0.70323342938E+01  0.71460916325E+01  0.12700000000E+01 0. -1.
          4   -1    0    0  501    0  0.00000000000E+00 -0.00000000000E+00 -0.55091043900E+03  0.55091190284E+03  0.12700000000E+01 0. -1.
         25    2    1    2    0    0  0.00000000000E+00  0.00000000000E+00 -0.54387810470E+03  0.55805799448E+03  0.12500132969E+03 0.  0.
    9000005    1    3    3    0    0 -0.10891065792E+02  0.61483116357E+02 -0.26051834986E+03  0.26789848735E+03  0.10000000000E+01 0.  0.
    9000005    1    3    3    0    0  0.10891065792E+02 -0.61483116357E+02 -0.28335975484E+03  0.29015950713E+03  0.10000000000E+01 0.  0.
<mgrwt>
<rscale>  0 0.12500133E+03</rscale>
<asrwt>0</asrwt>
<pdfrwt beam="2">  1        4 0.84764281E-01 0.12500133E+03</pdfrwt>
<pdfrwt beam="1">  1       -4 0.10907612E-02 0.12500133E+03</pdfrwt>
<totfact> 0.51625367E+03</totfact>
</mgrwt>
</event>
<event>
 4    1  0.3422688E-002  0.1251833E+03  0.7818608E-02  0.1234783E+00
          4   -1    0    0  501    0  0.00000000000E+00  0.00000000000E+00  0.94052239362E+02  0.94060813461E+02  0.12700000000E+01 0. -1.
         -4   -1    0    0    0  501 -0.00000000000E+00 -0.00000000000E+00 -0.41634531934E+02  0.41653897169E+02  0.12700000000E+01 0. -1.
    9000005    1    1    2    0    0  0.29019812999E+02  0.44702896366E+02  0.61774489546E+02  0.81594031943E+02  0.10000000000E+01 0.  0.
    9000005    1    1    2    0    0 -0.29019812999E+02 -0.44702896366E+02 -0.93567821186E+01  0.54120678688E+02  0.10000000000E+01 0.  0.
<mgrwt>
<rscale>  0 0.12518333E+03</rscale>
<asrwt>0</asrwt>
<pdfrwt beam="1">  1        4 0.14471724E-01 0.12518333E+03</pdfrwt>
<pdfrwt beam="2">  1       -4 0.64074618E-02 0.12518333E+03</pdfrwt>
<totfact> 0.10180878E+04</totfact>
</mgrwt>
</event>
<event>
 5    1  0.3422688E-002  0.1250035E+03  0.7818608E-02  0.1235064E+00
          4   -1    0    0  501    0  0.00000000000E+00  0.00000000000E+00  0.11607627243E+04  0.11607634191E+04  0.12700000000E+01 0.  1.
         -4   -1    0    0    0  501 -0.00000000000E+00 -0.00000000000E+00 -0.32448964286E+01  0.34845735510E+01  0.12700000000E+01 0.  1.
         25    2    1    2    0    0  0.00000000000E+00  0.00000000000E+00  0.11575178279E+04  0.11642479926E+04  0.12500346577E+03 0.  0.
    9000005    1    3    3    0    0  0.26690285982E+02 -0.34994895255E+02  0.16553455050E+03  0.17128835766E+03  0.10000000000E+01 0.  0.
    9000005    1    3    3    0    0 -0.26690285982E+02  0.34994895255E+02  0.99198327738E+03  0.99295963496E+03  0.10000000000E+01 0.  0.
<mgrwt>
<rscale>  0 0.12500347E+03</rscale>
<asrwt>0</asrwt>
<pdfrwt beam="1">  1        4 0.17859746E+00 0.12500347E+03</pdfrwt>
<pdfrwt beam="2">  1       -4 0.51770471E-03 0.12500347E+03</pdfrwt>
<totfact> 0.25666239E+03</totfact>
</mgrwt>
</event>
<event>
 5    1  0.3422688E-002  0.1250030E+03  0.7818608E-02  0.1235065E+00
         -4   -1    0    0    0  501 -0.00000000000E+00  0.00000000000E+00  0.68758517026E+03  0.68758634313E+03  0.12700000000E+01 0.  1.
          4   -1    0    0  501    0  0.00000000000E+00 -0.00000000000E+00 -0.56092253499E+01  0.57512006595E+01  0.12700000000E+01 0.  1.
         25    2    1    2    0    0  0.00000000000E+00  0.00000000000E+00  0.68197594491E+03  0.69333754379E+03  0.12500304074E+03 0.  0.
    9000005    1    3    3    0    0  0.12315226316E+02 -0.41922294839E+02  0.58880814601E+03  0.59042796039E+03  0.10000000000E+01 0.  0.
    9000005    1    3    3    0    0 -0.12315226316E+02  0.41922294839E+02  0.93167798902E+02  0.10290958340E+03  0.10000000000E+01 0.  0.
<mgrwt>
<rscale>  0 0.12500304E+03</rscale>
<asrwt>0</asrwt>
<pdfrwt beam="2">  1        4 0.87396922E-03 0.12500304E+03</pdfrwt>
<pdfrwt beam="1">  1       -4 0.10579334E+00 0.12500304E+03</pdfrwt>
<totfact> 0.43437843E+03</totfact>
</mgrwt>
</event>
<event>
 5    1  0.3422688E-002  0.1250002E+03  0.7818608E-02  0.1235069E+00
          4   -1    0    0  501    0  0.00000000000E+00  0.00000000000E+00  0.15956347203E+02  0.16006808429E+02  0.12700000000E+01 0. -1.
         -4   -1    0    0    0  501 -0.00000000000E+00 -0.00000000000E+00 -0.24437087569E+03  0.24437417577E+03  0.12700000000E+01 0. -1.
         25    2    1    2    0    0  0.00000000000E+00  0.00000000000E+00 -0.22841452848E+03  0.26038098420E+03  0.12500024044E+03 0.  0.
    9000005    1    3    3    0    0  0.13120594500E+02  0.37568345217E+02 -0.13837087239E+02  0.42142562162E+02  0.10000000000E+01 0.  0.
    9000005    1    3    3    0    0 -0.13120594500E+02 -0.37568345217E+02 -0.21457744125E+03  0.21823842204E+03  0.10000000000E+01 0.  0.
<mgrwt>
<rscale>  0 0.12500024E+03</rscale>
<asrwt>0</asrwt>
<pdfrwt beam="1">  1        4 0.24589583E-02 0.12500024E+03</pdfrwt>
<pdfrwt beam="2">  1       -4 0.37599652E-01 0.12500024E+03</pdfrwt>
<totfact> 0.80852193E+03</totfact>
</mgrwt>
</event>
<event>
 5    1  0.3422688E-002  0.1250048E+03  0.7818608E-02  0.1235062E+00
         -4   -1    0    0    0  501 -0.00000000000E+00  0.00000000000E+00  0.78790200125E+03  0.78790302479E+03  0.12700000000E+01 0. -1.
          4   -1    0    0  501    0  0.00000000000E+00 -0.00000000000E+00 -0.48758008775E+01  0.50384853078E+01  0.12700000000E+01 0. -1.
         25    2    1    2    0    0  0.00000000000E+00  0.00000000000E+00  0.78302620038E+03  0.79294151010E+03  0.12500483177E+03 0.  0.
    9000005    1    3    3    0    0 -0.27153526924E+02  0.50291436950E+02  0.23116347264E+03  0.23812621389E+03  0.10000000000E+01 0.  0.
    9000005    1    3    3    0    0  0.27153526924E+02 -0.50291436950E+02  0.55186272773E+03  0.55481529622E+03  0.10000000000E+01 0.  0.
<mgrwt>
<rscale>  0 0.12500483E+03</rscale>
<asrwt>0</asrwt>
<pdfrwt beam="2">  1        4 0.76271629E-03 0.12500483E+03</pdfrwt>
<pdfrwt beam="1">  1       -4 0.12122826E+00 0.12500483E+03</pdfrwt>
<totfact> 0.38577719E+03</totfact>
</mgrwt>
</event>
<event>
 5    1  0.3422688E-002  0.1249971E+03  0.7818608E-02  0.1235074E+00
          4   -1    0    0  501    0  0.00000000000E+00  0.00000000000E+00  0.27007382061E+02  0.27037225926E+02  0.12700000000E+01 0. -1.
         -4   -1    0    0    0  501 -0.00000000000E+00 -0.00000000000E+00 -0.14451714607E+03  0.14452272627E+03  0.12700000000E+01 0. -1.
         25    2    1    2    0    0  0.00000000000E+00  0.00000000000E+00 -0.11750976401E+03  0.17155995219E+03  0.12499709020E+03 0.  0.
    9000005    1    3    3    0    0  0.17002086849E+02 -0.59057663931E+02 -0.74294568876E+02  0.96423864217E+02  0.10000000000E+01 0.  0.
    9000005    1    3    3    0    0 -0.17002086849E+02  0.59057663931E+02 -0.43215195131E+02  0.75136087976E+02  0.10000000000E+01 0.  0.
<mgrwt>
<rscale>  0 0.12499709E+03</rscale>
<asrwt>0</asrwt>
<pdfrwt beam="1">  1        4 0.41577069E-02 0.12499709E+03</pdfrwt>
<pdfrwt beam="2">  1       -4 0.22236131E-01 0.12499709E+03</pdfrwt>
<totfact> 0.95164894E+03</totfact>
</mgrwt>
</event>
<event>
 5    1  0.3422688E-002  0.1250024E+03  0.7818608E-02  0.1235066E+00
         -4   -1    0    0    0  501 -0.00000000000E+00  0.00000000000E+00  0.15887170501E+03  0.15887678104E+03  0.12700000000E+01 0. -1.
          4   -1    0    0  501    0  0.00000000000E+00 -0.00000000000E+00 -0.24566520804E+02  0.24599326097E+02  0.12700000000E+01 0. -1.
         25    2    1    2    0    0  0.00000000000E+00  0.00000000000E+00  0.13430518421E+03  0.18347610714E+03  0.12500239752E+03 0.  0.
    9000005    1    3    3    0    0 -0.44758502663E+02  0.36297674888E+02  0.10263996867E+03  0.11771494354E+03  0.10000000000E+01 0.  0.
    9000005    1    3    3    0    0  0.44758502663E+02 -0.36297674888E+02  0.31665215534E+02  0.65761163598E+02  0.10000000000E+01 0.  0.
<mgrwt>
<rscale>  0 0.12500240E+03</rscale>
<asrwt>0</asrwt>
<pdfrwt beam="2">  1        4 0.37823787E-02 0.12500240E+03</pdfrwt>
<pdfrwt beam="1">  1       -4 0.24444715E-01 0.12500240E+03</pdfrwt>
<totfact> 0.92990011E+03</totfact>
</mgrwt>
</event>
<event>
 5    1  0.3422688E-002  0.1250008E+03  0.7818608E-02  0.1235068E+00
          4   -1    0    0  501    0  0.00000000000E+00  0.00000000000E+00  0.11287954612E+04  0.11287961756E+04  0.12700000000E+01 0.  1.
         -4   -1    0    0    0  501 -0.00000000000E+00 -0.00000000000E+00 -0.33433350570E+01  0.35764212984E+01  0.12700000000E+01 0.  1.
         25    2    1    2    0    0  0.00000000000E+00  0.00000000000E+00  0.11254521261E+04  0.11323725969E+04  0.12500084017E+03 0.  0.
    9000005    1    3    3    0    0 -0.16929286910E+02 -0.56864487115E+02  0.74050534298E+03  0.74287908413E+03  0.10000000000E+01 0.  0.
    9000005    1    3    3    0    0  0.16929286910E+02  0.56864487115E+02  0.38494678313E+03  0.38949351277E+03  0.10000000000E+01 0.  0.
<mgrwt>
<rscale>  0 0.12500084E+03</rscale>
<asrwt>0</asrwt>
<pdfrwt beam="1">  1        4 0.17367851E+00 0.12500084E+03</pdfrwt>
<pdfrwt beam="2">  1       -4 0.53234488E-03 0.12500084E+03</pdfrwt>
<totfact> 0.26554004E+03</totfact>
</mgrwt>
</event>
<event>
 5    1  0.3422688E-002  0.1249992E+03  0.7818608E-02  0.1235071E+00
         -4   -1    0    0    0  501 -0.00000000000E+00  0.00000000000E+00  0.26804416173E+02  0.26834485767E+02  0.12700000000E+01 0.  1.
          4   -1    0    0  501    0  0.00000000000E+00 -0.00000000000E+00 -0.14561517523E+03  0.14562071335E+03  0.12700000000E+01 0.  1.
         25    2    1    2    0    0  0.00000000000E+00  0.00000000000E+00 -0.11881075906E+03  0.17245519912E+03  0.12499919694E+03 0.  0.
    9000005    1    3    3    0    0 -0.45539030615E+02  0.96126384446E+01 -0.11693851870E+03  0.12586430504E+03  0.10000000000E+01 0.  0.
    9000005    1    3    3    0    0  0.45539030615E+02 -0.96126384446E+01 -0.18722403577E+01  0.46590894081E+02  0.10000000000E+01 0.  0.
<mgrwt>
<rscale>  0 0.12499920E+03</rscale>
<asrwt>0</asrwt>
<pdfrwt beam="2">  1        4 0.22405073E-01 0.12499920E+03</pdfrwt>
<pdfrwt beam="1">  1       -4 0.41264955E-02 0.12499920E+03</pdfrwt>
<totfact> 0.94994704E+03</totfact>
</mgrwt>
</event>
<event>
 5    1  0.3422688E-002  0.1250002E+03  0.7818608E-02  0.1235069E+00
          4   -1    0    0  501    0  0.00000000000E+00  0.00000000000E+00  0.43981755002E+02  0.44000087194E+02  0.12700000000E+01 0.  1.
         -4   -1    0    0    0  501 -0.00000000000E+00 -0.00000000000E+00 -0.88774206812E+02  0.88783290630E+02  0.12700000000E+01 0.  1.
         25    2    1    2    0    0  0.00000000000E+00  0.00000000000E+00 -0.44792451810E+02  0.13278337782E+03  0.12500024675E+03 0.  0.
    9000005    1    3    3    0    0  0.59269659995E+01 -0.19028050900E+02 -0.85313073345E+02  0.87615729926E+02  0.10000000000E+01 0.  0.
    9000005    1    3    3    0    0 -0.59269659995E+01  0.19028050900E+02  0.40520621535E+02  0.45167647898E+02  0.10000000000E+01 0.  0.
<mgrwt>
<rscale>  0 0.12500025E+03</rscale>
<asrwt>0</asrwt>
<pdfrwt beam="1">  1        4 0.67685328E-02 0.12500025E+03</pdfrwt>
<pdfrwt beam="2">  1       -4 0.13659679E-01 0.12500025E+03</pdfrwt>
<totfact> 0.10284949E+04</totfact>
</mgrwt>
</event>
<event>
 5    1  0.3422688E-002  0.1249987E+03  0.7818608E-02  0.1235071E+00
         -4   -1    0    0    0  501 -0.00000000000E+00  0.00000000000E+00  0.20881336491E+03  0.20881722694E+03  0.12700000000E+01 0. -1.
          4   -1    0    0  501    0  0.00000000000E+00 -0.00000000000E+00 -0.18680899937E+02  0.18724019933E+02  0.12700000000E+01 0. -1.
         25    2    1    2    0    0  0.00000000000E+00  0.00000000000E+00  0.19013246498E+03  0.22754124687E+03  0.12499865915E+03 0.  0.
    9000005    1    3    3    0    0  0.18107312290E+02  0.28128705662E+02  0.19115012421E+03  0.19405790070E+03  0.10000000000E+01 0.  0.
    9000005    1    3    3    0    0 -0.18107312290E+02 -0.28128705662E+02 -0.10176592282E+01  0.33483346173E+02  0.10000000000E+01 0.  0.
<mgrwt>
<rscale>  0 0.12499866E+03</rscale>
<asrwt>0</asrwt>
<pdfrwt beam="2">  1        4 0.28775984E-02 0.12499866E+03</pdfrwt>
<pdfrwt beam="1">  1       -4 0.32128749E-01 0.12499866E+03</pdfrwt>
<totfact> 0.85691138E+03</totfact>
</mgrwt>
</event>
<event>
 5    1  0.3422688E-002  0.1249990E+03  0.7818608E-02  0.1235071E+00
          4   -1    0    0  501    0  0.00000000000E+00  0.00000000000E+00  0.28021824610E+03  0.28022112402E+03  0.12700000000E+01 0.  1.
         -4   -1    0    0    0  501 -0.00000000000E+00 -0.00000000000E+00 -0.13907911577E+02  0.13965776185E+02  0.12700000000E+01 0.  1.
         25    2    1    2    0    0  0.00000000000E+00  0.00000000000E+00  0.26631033453E+03  0.29418690021E+03  0.12499895191E+03 0.  0.
    9000005    1    3    3    0    0  0.33415690826E+02  0.29623238946E+02  0.30270223059E+02  0.53957678630E+02  0.10000000000E+01 0.  0.
    9000005    1    3    3    0    0 -0.33415690826E+02 -0.29623238946E+02  0.23604011147E+03  0.24022922158E+03  0.10000000000E+01 0.  0.
<mgrwt>
<rscale>  0 0.12499895E+03</rscale>
<asrwt>0</asrwt>
<pdfrwt beam="1">  1        4 0.43115169E-01 0.12499895E+03</pdfrwt>
<pdfrwt beam="2">  1       -4 0.21443514E-02 0.12499895E+03</pdfrwt>
<totfact> 0.76335635E+03</totfact>
</mgrwt>
</event>
<event>
 5    1  0.3422688E-002  0.1250063E+03  0.7818608E-02  0.1235059E+00
          4   -1    0    0  501    0  0.00000000000E+00  0.00000000000E+00  0.10991451054E+02  0.11064578450E+02  0.12700000000E+01 0. -1.
         -4   -1    0    0    0  501 -0.00000000000E+00 -0.00000000000E+00 -0.35417304385E+03  0.35417532083E+03  0.12700000000E+01 0. -1.
         25    2    1    2    0    0  0.00000000000E+00  0.00000000000E+00 -0.34318159279E+03  0.36523989928E+03  0.12500631343E+03 0.  0.
    9000005    1    3    3    0    0 -0.54001317830E+02 -0.16784817620E+02 -0.93860019649E+02  0.10958364713E+03  0.10000000000E+01 0.  0.
    9000005    1    3    3    0    0  0.54001317830E+02  0.16784817620E+02 -0.24932157314E+03  0.25565625215E+03  0.10000000000E+01 0.  0.
<mgrwt>
<rscale>  0 0.12500631E+03</rscale>
<asrwt>0</asrwt>
<pdfrwt beam="1">  1        4 0.16967931E-02 0.12500631E+03</pdfrwt>
<pdfrwt beam="2">  1       -4 0.54493952E-01 0.12500631E+03</pdfrwt>
<totfact> 0.68070390E+03</totfact>
</mgrwt>
</event>
<event>
 5    1  0.3422688E-002  0.1250008E+03  0.7818608E-02  0.1235068E+00
          4   -1    0    0  501    0  0.00000000000E+00  0.00000000000E+00  0.24374914642E+03  0.24375245492E+03  0.12700000000E+01 0.  1.
         -4   -1    0    0    0  501 -0.00000000000E+00 -0.00000000000E+00 -0.15997326959E+02  0.16047659326E+02  0.12700000000E+01 0.  1.
         25    2    1    2    0    0  0.00000000000E+00  0.00000000000E+00  0.22775181946E+03  0.25980011424E+03  0.12500083238E+03 0.  0.
    9000005    1    3    3    0    0 -0.39262556995E+02  0.14524453544E+02  0.17442469810E+02  0.45362406083E+02  0.10000000000E+01 0.  0.
    9000005    1    3    3    0    0  0.39262556995E+02 -0.14524453544E+02  0.21030934965E+03  0.21443770816E+03  0.10000000000E+01 0.  0.
<mgrwt>
<rscale>  0 0.12500083E+03</rscale>
<asrwt>0</asrwt>
<pdfrwt beam="1">  1        4 0.37503993E-01 0.12500083E+03</pdfrwt>
<pdfrwt beam="2">  1       -4 0.24652535E-02 0.12500083E+03</pdfrwt>
<totfact> 0.80932621E+03</totfact>
</mgrwt>
</event>
<event>
 5    1  0.3422688E-002  0.1249935E+03  0.7818608E-02  0.1235079E+00
          4   -1    0    0  501    0  0.00000000000E+00  0.00000000000E+00  0.10972577028E+03  0.10973311972E+03  0.12700000000E+01 0.  1.
         -4   -1    0    0    0  501 -0.00000000000E+00 -0.00000000000E+00 -0.35576553658E+02  0.35599214460E+02  0.12700000000E+01 0.  1.
         25    2    1    2    0    0  0.00000000000E+00  0.00000000000E+00  0.74149216625E+02  0.14533233418E+03  0.12499352396E+03 0.  0.
    9000005    1    3    3    0    0 -0.35673438664E+02  0.48700438488E+02  0.55841565943E+02  0.82241154066E+02  0.10000000000E+01 0.  0.
    9000005    1    3    3    0    0  0.35673438664E+02 -0.48700438488E+02  0.18307650681E+02  0.63091180117E+02  0.10000000000E+01 0.  0.
<mgrwt>
<rscale>  0 0.12499352E+03</rscale>
<asrwt>0</asrwt>
<pdfrwt beam="1">  1        4 0.16883196E-01 0.12499352E+03</pdfrwt>
<pdfrwt beam="2">  1       -4 0.54756245E-02 0.12499352E+03</pdfrwt>
<totfact> 0.10025702E+04</totfact>
</mgrwt>
</event>
<event>
 5    1  0.3422688E-002  0.1249872E+03  0.7818608E-02  0.1235089E+00
         -4   -1    0    0    0  501 -0.00000000000E+00  0.00000000000E+00  0.36358627642E+02  0.36380801311E+02  0.12700000000E+01 0.  1.
          4   -1    0    0  501    0  0.00000000000E+00 -0.00000000000E+00 -0.10735597601E+03  0.10736348767E+03  0.12700000000E+01 0.  1.
         25    2    1    2    0    0  0.00000000000E+00  0.00000000000E+00 -0.70997348368E+02  0.14374428898E+03  0.12498718790E+03 0.  0.
    9000005    1    3    3    0    0  0.55057830239E+02 -0.30906246763E+01 -0.17027377677E+01  0.55179850918E+02  0.10000000000E+01 0.  0.
    9000005    1    3    3    0    0 -0.55057830239E+02  0.30906246763E+01 -0.69294610601E+02  0.88564438065E+02  0.10000000000E+01 0.  0.
<mgrwt>
<rscale>  0 0.12498719E+03</rscale>
<asrwt>0</asrwt>
<pdfrwt beam="2">  1        4 0.16518587E-01 0.12498719E+03</pdfrwt>
<pdfrwt beam="1">  1       -4 0.55959186E-02 0.12498719E+03</pdfrwt>
<totfact> 0.10059466E+04</totfact>
</mgrwt>
</event>
<event>
 5    1  0.3422688E-002  0.1249913E+03  0.7818608E-02  0.1235083E+00
          4   -1    0    0  501    0  0.00000000000E+00  0.00000000000E+00  0.42395355898E+02  0.42414373763E+02  0.12700000000E+01 0.  1.
         -4   -1    0    0    0  501 -0.00000000000E+00 -0.00000000000E+00 -0.92081818675E+02  0.92090576230E+02  0.12700000000E+01 0.  1.
         25    2    1    2    0    0  0.00000000000E+00  0.00000000000E+00 -0.49686462777E+02  0.13450494999E+03  0.12499134766E+03 0.  0.
    9000005    1    3    3    0    0  0.20050175187E+02 -0.38753778037E+02 -0.72978674697E+02  0.85033827373E+02  0.10000000000E+01 0.  0.
    9000005    1    3    3    0    0 -0.20050175187E+02  0.38753778037E+02  0.23292211920E+02  0.49471122620E+02  0.10000000000E+01 0.  0.
<mgrwt>
<rscale>  0 0.12499135E+03</rscale>
<asrwt>0</asrwt>
<pdfrwt beam="1">  1        4 0.65244990E-02 0.12499135E+03</pdfrwt>
<pdfrwt beam="2">  1       -4 0.14168570E-01 0.12499135E+03</pdfrwt>
<totfact> 0.10250516E+04</totfact>
</mgrwt>
</event>
<event>
 5    1  0.3422688E-002  0.1250084E+03  0.7818608E-02  0.1235056E+00
         -4   -1    0    0    0  501 -0.00000000000E+00  0.00000000000E+00  0.67588983243E+03  0.67589102560E+03  0.12700000000E+01 0. -1.
          4   -1    0    0  501    0  0.00000000000E+00 -0.00000000000E+00 -0.57092200050E+01  0.58487685084E+01  0.12700000000E+01 0. -1.
         25    2    1    2    0    0  0.00000000000E+00  0.00000000000E+00  0.67018061243E+03  0.68173979411E+03  0.12500837410E+03 0.  0.
    9000005    1    3    3    0    0  0.55301817745E+02  0.28478424986E+02  0.30215984772E+03  0.30849778818E+03  0.10000000000E+01 0.  0.
    9000005    1    3    3    0    0 -0.55301817745E+02 -0.28478424986E+02  0.36802076471E+03  0.37324200593E+03  0.10000000000E+01 0.  0.
<mgrwt>
<rscale>  0 0.12500837E+03</rscale>
<asrwt>0</asrwt>
<pdfrwt beam="2">  1        4 0.88916782E-03 0.12500837E+03</pdfrwt>
<pdfrwt beam="1">  1       -4 0.10399388E+00 0.12500837E+03</pdfrwt>
<totfact> 0.44060241E+03</totfact>
</mgrwt>
</event>
<event>
 5    1  0.3422688E-002  0.1250015E+03  0.7818608E-02  0.1235067E+00
          4   -1    0    0  501    0  0.00000000000E+00  0.00000000000E+00  0.75850733126E+03  0.75850839447E+03  0.12700000000E+01 0.  1.
         -4   -1    0    0    0  501 -0.00000000000E+00 -0.00000000000E+00 -0.50706622775E+01  0.52272857137E+01  0.12700000000E+01 0.  1.
         25    2    1    2    0    0  0.00000000000E+00  0.00000000000E+00  0.75343666899E+03  0.76373568018E+03  0.12500150004E+03 0.  0.
    9000005    1    3    3    0    0 -0.42772747910E+01  0.21530821578E+02  0.19230496817E+02  0.29200742547E+02  0.10000000000E+01 0.  0.
    9000005    1    3    3    0    0  0.42772747910E+01 -0.21530821578E+02  0.73420617217E+03  0.73453493764E+03  0.10000000000E+01 0.  0.
<mgrwt>
<rscale>  0 0.12500150E+03</rscale>
<asrwt>0</asrwt>
<pdfrwt beam="1">  1        4 0.11670552E+00 0.12500150E+03</pdfrwt>
<pdfrwt beam="2">  1       -4 0.79223194E-03 0.12500150E+03</pdfrwt>
<totfact> 0.39924324E+03</totfact>
</mgrwt>
</event>
<event>
 5    1  0.3422688E-002  0.1250008E+03  0.7818608E-02  0.1235068E+00
         -4   -1    0    0    0  501 -0.00000000000E+00  0.00000000000E+00  0.20887673368E+01  0.24445549671E+01  0.12700000000E+01 0.  1.
          4   -1    0    0  501    0  0.00000000000E+00 -0.00000000000E+00 -0.17230171148E+04  0.17230175828E+04  0.12700000000E+01 0.  1.
         25    2    1    2    0    0  0.00000000000E+00  0.00000000000E+00 -0.17209283474E+04  0.17254621378E+04  0.12500084768E+03 0.  0.
    9000005    1    3    3    0    0  0.59146748008E+02  0.79266672182E+01 -0.11165324136E+04  0.11181264689E+04  0.10000000000E+01 0.  0.
    9000005    1    3    3    0    0 -0.59146748008E+02 -0.79266672182E+01 -0.60439593387E+03  0.60733566891E+03  0.10000000000E+01 0.  0.
<mgrwt>
<rscale>  0 0.12500085E+03</rscale>
<asrwt>0</asrwt>
<pdfrwt beam="2">  1        4 0.26510591E+00 0.12500085E+03</pdfrwt>
<pdfrwt beam="1">  1       -4 0.34875448E-03 0.12500085E+03</pdfrwt>
<totfact> 0.13887324E+03</totfact>
</mgrwt>
</event>
<event>
 5    1  0.3422688E-002  0.1250000E+03  0.7818608E-02  0.1235069E+00
         -4   -1    0    0    0  501 -0.00000000000E+00  0.00000000000E+00  0.10918380936E+02  0.10991994462E+02  0.12700000000E+01 0.  1.
          4   -1    0    0  501    0  0.00000000000E+00 -0.00000000000E+00 -0.35649157954E+03  0.35649384172E+03  0.12700000000E+01 0.  1.
         25    2    1    2    0    0  0.00000000000E+00  0.00000000000E+00 -0.34557319861E+03  0.36748583618E+03  0.12500001680E+03 0.  0.
    9000005    1    3    3    0    0  0.20526191246E+02 -0.55041639323E+02 -0.11012187205E+03  0.12481479596E+03  0.10000000000E+01 0.  0.
    9000005    1    3    3    0    0 -0.20526191246E+02  0.55041639323E+02 -0.23545132655E+03  0.24267104022E+03  0.10000000000E+01 0.  0.
<mgrwt>
<rscale>  0 0.12500002E+03</rscale>
<asrwt>0</asrwt>
<pdfrwt beam="2">  1        4 0.54850686E-01 0.12500002E+03</pdfrwt>
<pdfrwt beam="1">  1       -4 0.16855878E-02 0.12500002E+03</pdfrwt>
<totfact> 0.67842767E+03</totfact>
</mgrwt>
</event>
<event>
 5    1  0.3422688E-002  0.1249986E+03  0.7818608E-02  0.1235072E+00
         -4   -1    0    0    0  501 -0.00000000000E+00  0.00000000000E+00  0.20498637441E+03  0.20499030854E+03  0.12700000000E+01 0. -1.
          4   -1    0    0  501    0  0.00000000000E+00 -0.00000000000E+00 -0.19030421773E+02  0.19072751581E+02  0.12700000000E+01 0. -1.
         25    2    1    2    0    0  0.00000000000E+00  0.00000000000E+00  0.18595595264E+03  0.22406306012E+03  0.12499855434E+03 0.  0.
    9000005    1    3    3    0    0 -0.59783001831E+02  0.51444378705E+01  0.61688931522E+02  0.86063911260E+02  0.10000000000E+01 0.  0.
    9000005    1    3    3    0    0  0.59783001831E+02 -0.51444378705E+01  0.12426702112E+03  0.13799914886E+03  0.10000000000E+01 0.  0.
<mgrwt>
<rscale>  0 0.12499855E+03</rscale>
<asrwt>0</asrwt>
<pdfrwt beam="2">  1        4 0.29313157E-02 0.12499855E+03</pdfrwt>
<pdfrwt beam="1">  1       -4 0.31539927E-01 0.12499855E+03</pdfrwt>
<totfact> 0.86232259E+03</totfact>
</mgrwt>
</event>
<event>
 5    1  0.3422688E-002  0.1249993E+03  0.7818608E-02  0.1235070E+00
          4   -1    0    0  501    0  0.00000000000E+00  0.00000000000E+00  0.20558199570E+03  0.20558591843E+03  0.12700000000E+01 0.  1.
         -4   -1    0    0    0  501 -0.00000000000E+00 -0.00000000000E+00 -0.18975380979E+02  0.19017833297E+02  0.12700000000E+01 0.  1.
         25    2    1    2    0    0  0.00000000000E+00  0.00000000000E+00  0.18660661472E+03  0.22460375172E+03  0.12499926652E+03 0.  0.
    9000005    1    3    3    0    0 -0.16642893911E+02 -0.51910801849E+02  0.14820220874E+03  0.15791330514E+03  0.10000000000E+01 0.  0.
    9000005    1    3    3    0    0  0.16642893911E+02  0.51910801849E+02  0.38404405982E+02  0.66690446581E+02  0.10000000000E+01 0.  0.
<mgrwt>
<rscale>  0 0.12499927E+03</rscale>
<asrwt>0</asrwt>
<pdfrwt beam="1">  1        4 0.31631567E-01 0.12499927E+03</pdfrwt>
<pdfrwt beam="2">  1       -4 0.29228567E-02 0.12499927E+03</pdfrwt>
<totfact> 0.86146477E+03</totfact>
</mgrwt>
</event>
<event>
 5    1  0.3422688E-002  0.1250007E+03  0.7818608E-02  0.1235068E+00
         -4   -1    0    0    0  501 -0.00000000000E+00  0.00000000000E+00  0.10383049014E+03  0.10383825683E+03  0.12700000000E+01 0. -1.
          4   -1    0    0  501    0  0.00000000000E+00 -0.00000000000E+00 -0.37601948430E+02  0.37623389344E+02  0.12700000000E+01 0. -1.
         25    2    1    2    0    0  0.00000000000E+00  0.00000000000E+00  0.66228541708E+02  0.14146164618E+03  0.12500071041E+03 0.  0.
    9000005    1    3    3    0    0 -0.54871693519E+02  0.26472775066E+02  0.17368614567E+02  0.63359129897E+02  0.10000000000E+01 0.  0.
    9000005    1    3    3    0    0  0.54871693519E+02 -0.26472775066E+02  0.48859927141E+02  0.78102516282E+02  0.10000000000E+01 0.  0.
<mgrwt>
<rscale>  0 0.12500071E+03</rscale>
<asrwt>0</asrwt>
<pdfrwt beam="2">  1        4 0.57871619E-02 0.12500071E+03</pdfrwt>
<pdfrwt beam="1">  1       -4 0.15976168E-01 0.12500071E+03</pdfrwt>
<totfact> 0.10103220E+04</totfact>
</mgrwt>
</event>
<event>
 5    1  0.3422688E-002  0.1250051E+03  0.7818608E-02  0.1235061E+00
          4   -1    0    0  501    0  0.00000000000E+00  0.00000000000E+00  0.52367137480E+02  0.52382535141E+02  0.12700000000E+01 0.  1.
         -4   -1    0    0    0  501 -0.00000000000E+00 -0.00000000000E+00 -0.74567812192E+02  0.74578626396E+02  0.12700000000E+01 0.  1.
         25    2    1    2    0    0  0.00000000000E+00  0.00000000000E+00 -0.22200674712E+02  0.12696116154E+03  0.12500506622E+03 0.  0.
    9000005    1    3    3    0    0 -0.46377965064E+02  0.58758041265E+01 -0.53223734974E+02  0.70846359697E+02  0.10000000000E+01 0.  0.
    9000005    1    3    3    0    0  0.46377965064E+02 -0.58758041265E+01  0.31023060262E+02  0.56114801841E+02  0.10000000000E+01 0.  0.
<mgrwt>
<rscale>  0 0.12500507E+03</rscale>
<asrwt>0</asrwt>
<pdfrwt beam="1">  1        4 0.80584990E-02 0.12500507E+03</pdfrwt>
<pdfrwt beam="2">  1       -4 0.11473987E-01 0.12500507E+03</pdfrwt>
<totfact> 0.10408799E+04</totfact>
</mgrwt>
</event>
<event>
 5    1  0.3422688E-002  0.1250033E+03  0.7818608E-02  0.1235064E+00
         -4   -1    0    0    0  501 -0.00000000000E+00  0.00000000000E+00  0.10767690561E+02  0.10842327242E+02  0.12700000000E+01 0. -1.
          4   -1    0    0  501    0  0.00000000000E+00 -0.00000000000E+00 -0.36146554943E+03  0.36146778048E+03  0.12700000000E+01 0. -1.
         25    2    1    2    0    0  0.00000000000E+00  0.00000000000E+00 -0.35069785887E+03  0.37231010772E+03  0.12500331234E+03 0.  0.
    9000005    1    3    3    0    0  0.20132442856E+02 -0.41581864895E+02 -0.30069295996E+03  0.30422298223E+03  0.10000000000E+01 0.  0.
    9000005    1    3    3    0    0 -0.20132442856E+02  0.41581864895E+02 -0.50004898904E+02  0.68087125493E+02  0.10000000000E+01 0.  0.
<mgrwt>
<rscale>  0 0.12500331E+03</rscale>
<asrwt>0</asrwt>
<pdfrwt beam="2">  1        4 0.55615988E-01 0.12500331E+03</pdfrwt>
<pdfrwt beam="1">  1       -4 0.16624810E-02 0.12500331E+03</pdfrwt>
<totfact> 0.67333021E+03</totfact>
</mgrwt>
</event>
<event>
 5    1  0.3422688E-002  0.1249999E+03  0.7818608E-02  0.1235069E+00
         -4   -1    0    0    0  501 -0.00000000000E+00  0.00000000000E+00  0.58073124814E+03  0.58073263682E+03  0.12700000000E+01 0.  1.
          4   -1    0    0  501    0  0.00000000000E+00 -0.00000000000E+00 -0.66650625943E+01  0.67849804263E+01  0.12700000000E+01 0.  1.
         25    2    1    2    0    0  0.00000000000E+00  0.00000000000E+00  0.57406618555E+03  0.58751761725E+03  0.12499986074E+03 0.  0.
    9000005    1    3    3    0    0  0.48099068706E+02  0.31845420953E+02  0.17407399461E+03  0.18338595051E+03  0.10000000000E+01 0.  0.
    9000005    1    3    3    0    0 -0.48099068706E+02 -0.31845420953E+02  0.39999219094E+03  0.40413166673E+03  0.10000000000E+01 0.  0.
<mgrwt>
<rscale>  0 0.12499986E+03</rscale>
<asrwt>0</asrwt>
<pdfrwt beam="2">  1        4 0.10347257E-02 0.12499986E+03</pdfrwt>
<pdfrwt beam="1">  1       -4 0.89352586E-01 0.12499986E+03</pdfrwt>
<totfact> 0.49665291E+03</totfact>
</mgrwt>
</event>
<event>
 5    1  0.3422688E-002  0.1250089E+03  0.7818608E-02  0.1235055E+00
         -4   -1    0    0    0  501 -0.00000000000E+00  0.00000000000E+00  0.13322323096E+02  0.13382719928E+02  0.12700000000E+01 0.  1.
          4   -1    0    0  501    0  0.00000000000E+00 -0.00000000000E+00 -0.29252751802E+03  0.29253027484E+03  0.12700000000E+01 0.  1.
         25    2    1    2    0    0  0.00000000000E+00  0.00000000000E+00 -0.27920519492E+03  0.30591299477E+03  0.12500887767E+03 0.  0.
    9000005    1    3    3    0    0  0.34327382230E+02 -0.61958436171E+00 -0.11810568742E+02  0.36321379235E+02  0.10000000000E+01 0.  0.
    9000005    1    3    3    0    0 -0.34327382230E+02  0.61958436171E+00 -0.26739462618E+03  0.26959161553E+03  0.10000000000E+01 0.  0.
<mgrwt>
<rscale>  0 0.12500888E+03</rscale>
<asrwt>0</asrwt>
<pdfrwt beam="2">  1        4 0.45009087E-01 0.12500888E+03</pdfrwt>
<pdfrwt beam="1">  1       -4 0.20544464E-02 0.12500888E+03</pdfrwt>
<totfact> 0.74848315E+03</totfact>
</mgrwt>
</event>
<event>
 5    1  0.3422688E-002  0.1250024E+03  0.7818608E-02  0.1235066E+00
          4   -1    0    0  501    0  0.00000000000E+00  0.00000000000E+00  0.31922987921E+01  0.34356471847E+01  0.12700000000E+01 0. -1.
         -4   -1    0    0    0  501 -0.00000000000E+00 -0.00000000000E+00 -0.11785217871E+04  0.11785224714E+04  0.12700000000E+01 0. -1.
         25    2    1    2    0    0  0.00000000000E+00  0.00000000000E+00 -0.11753294883E+04  0.11819581186E+04  0.12500235188E+03 0.  0.
    9000005    1    3    3    0    0  0.50579630823E+02  0.28359265417E+02 -0.80796947681E+03  0.81004828402E+03  0.10000000000E+01 0.  0.
    9000005    1    3    3    0    0 -0.50579630823E+02 -0.28359265417E+02 -0.36736001149E+03  0.37190983454E+03  0.10000000000E+01 0.  0.
<mgrwt>
<rscale>  0 0.12500235E+03</rscale>
<asrwt>0</asrwt>
<pdfrwt beam="1">  1        4 0.50989557E-03 0.12500235E+03</pdfrwt>
<pdfrwt beam="2">  1       -4 0.18132948E+00 0.12500235E+03</pdfrwt>
<totfact> 0.25188703E+03</totfact>
</mgrwt>
</event>
<event>
 5    1  0.3422688E-002  0.1249936E+03  0.7818608E-02  0.1235079E+00
         -4   -1    0    0    0  501 -0.00000000000E+00  0.00000000000E+00  0.11005599366E+02  0.11078633373E+02  0.12700000000E+01 0.  1.
          4   -1    0    0  501    0  0.00000000000E+00 -0.00000000000E+00 -0.35364851337E+03  0.35365079373E+03  0.12700000000E+01 0.  1.
         25    2    1    2    0    0  0.00000000000E+00  0.00000000000E+00 -0.34264291400E+03  0.36472942710E+03  0.12499355376E+03 0.  0.
    9000005    1    3    3    0    0  0.22394340989E+02  0.75284999342E+01 -0.34012794493E+03  0.34094897528E+03  0.10000000000E+01 0.  0.
    9000005    1    3    3    0    0 -0.22394340989E+02 -0.75284999342E+01 -0.25149690679E+01  0.23780451825E+02  0.10000000000E+01 0.  0.
<mgrwt>
<rscale>  0 0.12499355E+03</rscale>
<asrwt>0</asrwt>
<pdfrwt beam="2">  1        4 0.54413248E-01 0.12499355E+03</pdfrwt>
<pdfrwt beam="1">  1       -4 0.16989628E-02 0.12499355E+03</pdfrwt>
<totfact> 0.68143683E+03</totfact>
</mgrwt>
</event>
<event>
 5    1  0.3422688E-002  0.1249999E+03  0.7818608E-02  0.1235069E+00
         -4   -1    0    0    0  501 -0.00000000000E+00  0.00000000000E+00  0.25470266457E+01  0.28460928892E+01  0.12700000000E+01 0. -1.
          4   -1    0    0  501    0  0.00000000000E+00 -0.00000000000E+00 -0.14483040520E+04  0.14483046088E+04  0.12700000000E+01 0. -1.
         25    2    1    2    0    0  0.00000000000E+00  0.00000000000E+00 -0.14457570253E+04  0.14511507017E+04  0.12499993088E+03 0.  0.
    9000005    1    3    3    0    0 -0.45688410064E+02 -0.35491945843E+02 -0.99714516931E+03  0.99882260573E+03  0.10000000000E+01 0.  0.
    9000005    1    3    3    0    0  0.45688410064E+02  0.35491945843E+02 -0.44861185601E+03  0.45232809595E+03  0.10000000000E+01 0.  0.
<mgrwt>
<rscale>  0 0.12499993E+03</rscale>
<asrwt>0</asrwt>
<pdfrwt beam="2">  1        4 0.22283843E+00 0.12499993E+03</pdfrwt>
<pdfrwt beam="1">  1       -4 0.41489934E-03 0.12499993E+03</pdfrwt>
<totfact> 0.18909286E+03</totfact>
</mgrwt>
</event>
<event>
 5    1  0.3422688E-002  0.1249955E+03  0.7818608E-02  0.1235076E+00
          4   -1    0    0  501    0  0.00000000000E+00  0.00000000000E+00  0.22698059197E+02  0.22733560903E+02  0.12700000000E+01 0.  1.
         -4   -1    0    0    0  501 -0.00000000000E+00 -0.00000000000E+00 -0.17191136707E+03  0.17191605809E+03  0.12700000000E+01 0.  1.
         25    2    1    2    0    0  0.00000000000E+00  0.00000000000E+00 -0.14921330788E+03  0.19464961899E+03  0.12499545162E+03 0.  0.
    9000005    1    3    3    0    0  0.15056050599E+02 -0.18623996190E+01  0.19794421684E+02  0.24959413490E+02  0.10000000000E+01 0.  0.
    9000005    1    3    3    0    0 -0.15056050599E+02  0.18623996190E+01 -0.16900772956E+03  0.16969020550E+03  0.10000000000E+01 0.  0.
<mgrwt>
<rscale>  0 0.12499545E+03</rscale>
<asrwt>0</asrwt>
<pdfrwt beam="1">  1        4 0.34951010E-02 0.12499545E+03</pdfrwt>
<pdfrwt beam="2">  1       -4 0.26450994E-01 0.12499545E+03</pdfrwt>
<totfact> 0.91053804E+03</totfact>
</mgrwt>
</event>
<event>
 5    1  0.3422688E-002  0.1249967E+03  0.7818608E-02  0.1235074E+00
         -4   -1    0    0    0  501 -0.00000000000E+00  0.00000000000E+00  0.14659850206E+02  0.14714758172E+02  0.12700000000E+01 0. -1.
          4   -1    0    0  501    0  0.00000000000E+00 -0.00000000000E+00 -0.26589064228E+03  0.26589367528E+03  0.12700000000E+01 0. -1.
         25    2    1    2    0    0  0.00000000000E+00  0.00000000000E+00 -0.25123079208E+03  0.28060843345E+03  0.12499672810E+03 0.  0.
    9000005    1    3    3    0    0  0.28848562326E+02 -0.11798441178E+02 -0.24720675879E+03  0.24916585712E+03  0.10000000000E+01 0.  0.
    9000005    1    3    3    0    0 -0.28848562326E+02  0.11798441178E+02 -0.40240332860E+01  0.31442576332E+02  0.10000000000E+01 0.  0.
<mgrwt>
<rscale>  0 0.12499673E+03</rscale>
<asrwt>0</asrwt>
<pdfrwt beam="2">  1        4 0.40910706E-01 0.12499673E+03</pdfrwt>
<pdfrwt beam="1">  1       -4 0.22598188E-02 0.12499673E+03</pdfrwt>
<totfact> 0.78103182E+03</totfact>
</mgrwt>
</event>
<event>
 5    1  0.3422688E-002  0.1250180E+03  0.7818608E-02  0.1235041E+00
         -4   -1    0    0    0  501 -0.00000000000E+00  0.00000000000E+00  0.29037106575E+02  0.29064866389E+02  0.12700000000E+01 0.  1.
          4   -1    0    0  501    0  0.00000000000E+00 -0.00000000000E+00 -0.13446991483E+03  0.13447591195E+03  0.12700000000E+01 0.  1.
         25    2    1    2    0    0  0.00000000000E+00  0.00000000000E+00 -0.10543280826E+03  0.16354077834E+03  0.12501803519E+03 0.  0.
    9000005    1    3    3    0    0 -0.39273429888E+02 -0.48618919783E+02 -0.53264613082E+02  0.82123813007E+02  0.10000000000E+01 0.  0.
    9000005    1    3    3    0    0  0.39273429888E+02  0.48618919783E+02 -0.52168195174E+02  0.81416965332E+02  0.10000000000E+01 0.  0.
<mgrwt>
<rscale>  0 0.12501804E+03</rscale>
<asrwt>0</asrwt>
<pdfrwt beam="2">  1        4 0.20690276E-01 0.12501804E+03</pdfrwt>
<pdfrwt beam="1">  1       -4 0.44698439E-02 0.12501804E+03</pdfrwt>
<totfact> 0.96625301E+03</totfact>
</mgrwt>
</event>
<event>
 5    1  0.3422688E-002  0.1249831E+03  0.7818608E-02  0.1235096E+00
         -4   -1    0    0    0  501 -0.00000000000E+00  0.00000000000E+00  0.15379843476E+02  0.15432189908E+02  0.12700000000E+01 0.  1.
          4   -1    0    0  501    0  0.00000000000E+00 -0.00000000000E+00 -0.25343109945E+03  0.25343428155E+03  0.12700000000E+01 0.  1.
         25    2    1    2    0    0  0.00000000000E+00  0.00000000000E+00 -0.23805125597E+03  0.26886647146E+03  0.12498311489E+03 0.  0.
    9000005    1    3    3    0    0 -0.47151379246E+02 -0.39290797354E+02 -0.14422115628E+03  0.15674106431E+03  0.10000000000E+01 0.  0.
    9000005    1    3    3    0    0  0.47151379246E+02  0.39290797354E+02 -0.93830099685E+02  0.11212540715E+03  0.10000000000E+01 0.  0.
<mgrwt>
<rscale>  0 0.12498311E+03</rscale>
<asrwt>0</asrwt>
<pdfrwt beam="2">  1        4 0.38993668E-01 0.12498311E+03</pdfrwt>
<pdfrwt beam="1">  1       -4 0.23704014E-02 0.12498311E+03</pdfrwt>
<totfact> 0.79707595E+03</totfact>
</mgrwt>
</event>
<event>
 5    1  0.3422688E-002  0.1249994E+03  0.7818608E-02  0.1235070E+00
          4   -1    0    0  501    0  0.00000000000E+00  0.00000000000E+00  0.20800110268E+03  0.20800497979E+03  0.12700000000E+01 0. -1.
         -4   -1    0    0    0  501 -0.00000000000E+00 -0.00000000000E+00 -0.18754245921E+02  0.18797197665E+02  0.12700000000E+01 0. -1.
         25    2    1    2    0    0  0.00000000000E+00  0.00000000000E+00  0.18924685676E+03  0.22680217745E+03  0.12499941961E+03 0.  0.
    9000005    1    3    3    0    0  0.50599432940E+02 -0.56271891249E+01  0.28870932531E+02  0.58536301698E+02  0.10000000000E+01 0.  0.
    9000005    1    3    3    0    0 -0.50599432940E+02  0.56271891249E+01  0.16037592423E+03  0.16826587576E+03  0.10000000000E+01 0.  0.
<mgrwt>
<rscale>  0 0.12499942E+03</rscale>
<asrwt>0</asrwt>
<pdfrwt beam="1">  1        4 0.32003773E-01 0.12499942E+03</pdfrwt>
<pdfrwt beam="2">  1       -4 0.28888707E-02 0.12499942E+03</pdfrwt>
<totfact> 0.85804166E+03</totfact>
</mgrwt>
</event>
<event>
 5    1  0.3422688E-002  0.1250036E+03  0.7818608E-02  0.1235064E+00
         -4   -1    0    0    0  501 -0.00000000000E+00  0.00000000000E+00  0.12140825146E+03  0.12141489374E+03  0.12700000000E+01 0.  1.
          4   -1    0    0  501    0  0.00000000000E+00 -0.00000000000E+00 -0.32156287742E+02  0.32181357046E+02  0.12700000000E+01 0.  1.
         25    2    1    2    0    0  0.00000000000E+00  0.00000000000E+00  0.89251963717E+02  0.15359625079E+03  0.12500358086E+03 0.  0.
    9000005    1    3    3    0    0 -0.47965295830E+00 -0.61319040268E+02  0.59433079591E+02  0.85402258260E+02  0.10000000000E+01 0.  0.
    9000005    1    3    3    0    0  0.47965295830E+00  0.61319040268E+02  0.29818884127E+02  0.68193992528E+02  0.10000000000E+01 0.  0.
<mgrwt>
<rscale>  0 0.12500358E+03</rscale>
<asrwt>0</asrwt>
<pdfrwt beam="2">  1        4 0.49495606E-02 0.12500358E+03</pdfrwt>
<pdfrwt beam="1">  1       -4 0.18680632E-01 0.12500358E+03</pdfrwt>
<totfact> 0.98583668E+03</totfact>
</mgrwt>
</event>
<event>
 5    1  0.3422688E-002  0.1249997E+03  0.7818608E-02  0.1235070E+00
         -4   -1    0    0    0  501 -0.00000000000E+00  0.00000000000E+00  0.13303269712E+02  0.13363752656E+02  0.12700000000E+01 0. -1.
          4   -1    0    0  501    0  0.00000000000E+00 -0.00000000000E+00 -0.29290160567E+03  0.29290435897E+03  0.12700000000E+01 0. -1.
         25    2    1    2    0    0  0.00000000000E+00  0.00000000000E+00 -0.27959833596E+03  0.30626811163E+03  0.12499970692E+03 0.  0.
    9000005    1    3    3    0    0 -0.22317367523E+02 -0.23952717881E+02 -0.27022071394E+03  0.27219851548E+03  0.10000000000E+01 0.  0.
    9000005    1    3    3    0    0  0.22317367523E+02  0.23952717881E+02 -0.93776220208E+01  0.34069596150E+02  0.10000000000E+01 0.  0.
<mgrwt>
<rscale>  0 0.12499971E+03</rscale>
<asrwt>0</asrwt>
<pdfrwt beam="2">  1        4 0.45066645E-01 0.12499971E+03</pdfrwt>
<pdfrwt beam="1">  1       -4 0.20515214E-02 0.12499971E+03</pdfrwt>
<totfact> 0.74819734E+03</totfact>
</mgrwt>
</event>
<event>
 5    1  0.3422688E-002  0.1249883E+03  0.7818608E-02  0.1235088E+00
         -4   -1    0    0    0  501 -0.00000000000E+00  0.00000000000E+00  0.90932842816E+02  0.90941711017E+02  0.12700000000E+01 0.  1.
          4   -1    0    0  501    0  0.00000000000E+00 -0.00000000000E+00 -0.42929152203E+02  0.42947933697E+02  0.12700000000E+01 0.  1.
         25    2    1    2    0    0  0.00000000000E+00  0.00000000000E+00  0.48003690613E+02  0.13388964471E+03  0.12498833005E+03 0.  0.
    9000005    1    3    3    0    0 -0.27368968211E+02  0.52840276739E+02  0.35821476977E+01  0.59623712136E+02  0.10000000000E+01 0.  0.
    9000005    1    3    3    0    0  0.27368968211E+02 -0.52840276739E+02  0.44421542916E+02  0.74265932578E+02  0.10000000000E+01 0.  0.
<mgrwt>
<rscale>  0 0.12498833E+03</rscale>
<asrwt>0</asrwt>
<pdfrwt beam="2">  1        4 0.66066119E-02 0.12498833E+03</pdfrwt>
<pdfrwt beam="1">  1       -4 0.13991795E-01 0.12498833E+03</pdfrwt>
<totfact> 0.10264229E+04</totfact>
</mgrwt>
</event>
<event>
 5    1  0.3422688E-002  0.1249985E+03  0.7818608E-02  0.1235072E+00
         -4   -1    0    0    0  501 -0.00000000000E+00  0.00000000000E+00  0.41190490387E+02  0.41210064284E+02  0.12700000000E+01 0. -1.
          4   -1    0    0  501    0  0.00000000000E+00 -0.00000000000E+00 -0.94785093651E+02  0.94793601464E+02  0.12700000000E+01 0. -1.
         25    2    1    2    0    0  0.00000000000E+00  0.00000000000E+00 -0.53594603264E+02  0.13600366575E+03  0.12499846238E+03 0.  0.
    9000005    1    3    3    0    0 -0.15150709063E+02  0.55466803746E+02 -0.53427546420E+02  0.78495942694E+02  0.10000000000E+01 0.  0.
    9000005    1    3    3    0    0  0.15150709063E+02 -0.55466803746E+02 -0.16705684430E+00  0.57507723054E+02  0.10000000000E+01 0.  0.
<mgrwt>
<rscale>  0 0.12499846E+03</rscale>
<asrwt>0</asrwt>
<pdfrwt beam="2">  1        4 0.14584482E-01 0.12499846E+03</pdfrwt>
<pdfrwt beam="1">  1       -4 0.63391587E-02 0.12499846E+03</pdfrwt>
<totfact> 0.10217314E+04</totfact>
</mgrwt>
</event>
<event>
 5    1  0.3422688E-002  0.1249908E+03  0.7818608E-02  0.1235084E+00
          4   -1    0    0  501    0  0.00000000000E+00  0.00000000000E+00  0.11983982878E+03  0.11984655799E+03  0.12700000000E+01 0.  1.
         -4   -1    0    0    0  501 -0.00000000000E+00 -0.00000000000E+00 -0.32570748696E+02  0.32595499239E+02  0.12700000000E+01 0.  1.
         25    2    1    2    0    0  0.00000000000E+00  0.00000000000E+00  0.87269080081E+02  0.15244205723E+03  0.12499075355E+03 0.  0.
    9000005    1    3    3    0    0 -0.48473204090E+02 -0.17070178143E+02  0.27977732585E+00  0.51401563906E+02  0.10000000000E+01 0.  0.
    9000005    1    3    3    0    0  0.48473204090E+02  0.17070178143E+02  0.86989302755E+02  0.10104049332E+03  0.10000000000E+01 0.  0.
<mgrwt>
<rscale>  0 0.12499075E+03</rscale>
<asrwt>0</asrwt>
<pdfrwt beam="1">  1        4 0.18439318E-01 0.12499075E+03</pdfrwt>
<pdfrwt beam="2">  1       -4 0.50133059E-02 0.12499075E+03</pdfrwt>
<totfact> 0.98839681E+03</totfact>
</mgrwt>
</event>
<event>
 5    1  0.3422688E-002  0.1249992E+03  0.7818608E-02  0.1235070E+00
          4   -1    0    0  501    0  0.00000000000E+00  0.00000000000E+00  0.76041648410E+02  0.76052253043E+02  0.12700000000E+01 0.  1.
         -4   -1    0    0    0  501 -0.00000000000E+00 -0.00000000000E+00 -0.51347203525E+02  0.51362906945E+02  0.12700000000E+01 0.  1.
         25    2    1    2    0    0  0.00000000000E+00  0.00000000000E+00  0.24694444885E+02  0.12741515999E+03  0.12499922954E+03 0.  0.
    9000005    1    3    3    0    0  0.60882790756E+02 -0.10600301839E+02  0.21806738052E+02  0.65540937083E+02  0.10000000000E+01 0.  0.
    9000005    1    3    3    0    0 -0.60882790756E+02  0.10600301839E+02  0.28877068329E+01  0.61874222905E+02  0.10000000000E+01 0.  0.
<mgrwt>
<rscale>  0 0.12499923E+03</rscale>
<asrwt>0</asrwt>
<pdfrwt beam="1">  1        4 0.11700739E-01 0.12499923E+03</pdfrwt>
<pdfrwt beam="2">  1       -4 0.79015935E-02 0.12499923E+03</pdfrwt>
<totfact> 0.10400319E+04</totfact>
</mgrwt>
</event>
<event>
 5    1  0.3422688E-002  0.1250009E+03  0.7818608E-02  0.1235068E+00
         -4   -1    0    0    0  501 -0.00000000000E+00  0.00000000000E+00  0.64472093739E+03  0.64472218824E+03  0.12700000000E+01 0. -1.
          4   -1    0    0  501    0  0.00000000000E+00 -0.00000000000E+00 -0.59910914952E+01  0.61242205466E+01  0.12700000000E+01 0. -1.
         25    2    1    2    0    0  0.00000000000E+00  0.00000000000E+00  0.63872984590E+03  0.65084640879E+03  0.12500092717E+03 0.  0.
    9000005    1    3    3    0    0  0.52070979454E+02  0.34519084576E+02  0.32735322369E+03  0.33326278995E+03  0.10000000000E+01 0.  0.
    9000005    1    3    3    0    0 -0.52070979454E+02 -0.34519084576E+02  0.31137662221E+03  0.31758361885E+03  0.10000000000E+01 0.  0.
<mgrwt>
<rscale>  0 0.12500093E+03</rscale>
<asrwt>0</asrwt>
<pdfrwt beam="2">  1        4 0.93204352E-03 0.12500093E+03</pdfrwt>
<pdfrwt beam="1">  1       -4 0.99198150E-01 0.12500093E+03</pdfrwt>
<totfact> 0.45806563E+03</totfact>
</mgrwt>
</event>
<event>
 5    1  0.3422688E-002  0.1249964E+03  0.7818608E-02  0.1235075E+00
          4   -1    0    0  501    0  0.00000000000E+00  0.00000000000E+00  0.12539607807E+03  0.12540250912E+03  0.12700000000E+01 0. -1.
         -4   -1    0    0    0  501 -0.00000000000E+00 -0.00000000000E+00 -0.31129302471E+02  0.31155198159E+02  0.12700000000E+01 0. -1.
         25    2    1    2    0    0  0.00000000000E+00  0.00000000000E+00  0.94266775595E+02  0.15655770728E+03  0.12499636286E+03 0.  0.
    9000005    1    3    3    0    0  0.14633128998E+02 -0.43306585713E+02  0.10049971212E+03  0.11041186968E+03  0.10000000000E+01 0.  0.
    9000005    1    3    3    0    0 -0.14633128998E+02  0.43306585713E+02 -0.62329365223E+01  0.46145837603E+02  0.10000000000E+01 0.  0.
<mgrwt>
<rscale>  0 0.12499636E+03</rscale>
<asrwt>0</asrwt>
<pdfrwt beam="1">  1        4 0.19294191E-01 0.12499636E+03</pdfrwt>
<pdfrwt beam="2">  1       -4 0.47916101E-02 0.12499636E+03</pdfrwt>
<totfact> 0.98018583E+03</totfact>
</mgrwt>
</event>
<event>
 5    1  0.3422688E-002  0.1249999E+03  0.7818608E-02  0.1235069E+00
          4   -1    0    0  501    0  0.00000000000E+00  0.00000000000E+00  0.14339975530E+03  0.14340537898E+03  0.12700000000E+01 0. -1.
         -4   -1    0    0    0  501 -0.00000000000E+00 -0.00000000000E+00 -0.27219275025E+02  0.27248886819E+02  0.12700000000E+01 0. -1.
         25    2    1    2    0    0  0.00000000000E+00  0.00000000000E+00  0.11618048027E+03  0.17065426580E+03  0.12499989775E+03 0.  0.
    9000005    1    3    3    0    0  0.16652018886E+02  0.83756053051E+00 -0.24133339005E+02  0.29349774993E+02  0.10000000000E+01 0.  0.
    9000005    1    3    3    0    0 -0.16652018886E+02 -0.83756053051E+00  0.14031381928E+03  0.14130449080E+03  0.10000000000E+01 0.  0.
<mgrwt>
<rscale>  0 0.12499990E+03</rscale>
<asrwt>0</asrwt>
<pdfrwt beam="1">  1        4 0.22064211E-01 0.12499990E+03</pdfrwt>
<pdfrwt beam="2">  1       -4 0.41902912E-02 0.12499990E+03</pdfrwt>
<totfact> 0.95327049E+03</totfact>
</mgrwt>
</event>
<event>
 5    1  0.3422688E-002  0.1250014E+03  0.7818608E-02  0.1235067E+00
         -4   -1    0    0    0  501 -0.00000000000E+00  0.00000000000E+00  0.50739897036E+02  0.50755788352E+02  0.12700000000E+01 0. -1.
          4   -1    0    0  501    0  0.00000000000E+00 -0.00000000000E+00 -0.76954357998E+02  0.76964836873E+02  0.12700000000E+01 0. -1.
         25    2    1    2    0    0  0.00000000000E+00  0.00000000000E+00 -0.26214460962E+02  0.12772062522E+03  0.12500144057E+03 0.  0.
    9000005    1    3    3    0    0 -0.81244508270E+01 -0.29547100980E+02 -0.68755762420E+02  0.75282087799E+02  0.10000000000E+01 0.  0.
    9000005    1    3    3    0    0  0.81244508270E+01  0.29547100980E+02  0.42541301458E+02  0.52438537425E+02  0.10000000000E+01 0.  0.
<mgrwt>
<rscale>  0 0.12500144E+03</rscale>
<asrwt>0</asrwt>
<pdfrwt beam="2">  1        4 0.11841161E-01 0.12500144E+03</pdfrwt>
<pdfrwt beam="1">  1       -4 0.78081665E-02 0.12500144E+03</pdfrwt>
<totfact> 0.10393188E+04</totfact>
</mgrwt>
</event>
<event>
 5    1  0.3422688E-002  0.1250029E+03  0.7818608E-02  0.1235065E+00
          4   -1    0    0  501    0  0.00000000000E+00  0.00000000000E+00  0.67240382720E+01  0.68429226712E+01  0.12700000000E+01 0. -1.
         -4   -1    0    0    0  501 -0.00000000000E+00 -0.00000000000E+00 -0.57575437323E+03  0.57575577391E+03  0.12700000000E+01 0. -1.
         25    2    1    2    0    0  0.00000000000E+00  0.00000000000E+00 -0.56903033496E+03  0.58259869659E+03  0.12500287660E+03 0.  0.
    9000005    1    3    3    0    0 -0.13483776611E+02 -0.26678635091E+02 -0.54029568851E+03  0.54112289992E+03  0.10000000000E+01 0.  0.
    9000005    1    3    3    0    0  0.13483776611E+02  0.26678635091E+02 -0.28734646453E+02  0.41475796662E+02  0.10000000000E+01 0.  0.
<mgrwt>
<rscale>  0 0.12500288E+03</rscale>
<asrwt>0</asrwt>
<pdfrwt beam="1">  1        4 0.10437206E-02 0.12500288E+03</pdfrwt>
<pdfrwt beam="2">  1       -4 0.88586810E-01 0.12500288E+03</pdfrwt>
<totfact> 0.49981643E+03</totfact>
</mgrwt>
</event>
<event>
 5    1  0.3422688E-002  0.1249923E+03  0.7818608E-02  0.1235081E+00
          4   -1    0    0  501    0  0.00000000000E+00  0.00000000000E+00  0.31912630564E+03  0.31912883268E+03  0.12700000000E+01 0.  1.
         -4   -1    0    0    0  501 -0.00000000000E+00 -0.00000000000E+00 -0.12203404991E+02  0.12269311039E+02  0.12700000000E+01 0.  1.
         25    2    1    2    0    0  0.00000000000E+00  0.00000000000E+00  0.30692290065E+03  0.33139814372E+03  0.12499225065E+03 0.  0.
    9000005    1    3    3    0    0  0.26842919571E+01  0.36137792170E+02  0.28843624153E+03  0.29070536781E+03  0.10000000000E+01 0.  0.
    9000005    1    3    3    0    0 -0.26842919571E+01 -0.36137792170E+02  0.18486659119E+02  0.40692775914E+02  0.10000000000E+01 0.  0.
<mgrwt>
<rscale>  0 0.12499225E+03</rscale>
<asrwt>0</asrwt>
<pdfrwt beam="1">  1        4 0.49101621E-01 0.12499225E+03</pdfrwt>
<pdfrwt beam="2">  1       -4 0.18827109E-02 0.12499225E+03</pdfrwt>
<totfact> 0.71832993E+03</totfact>
</mgrwt>
</event>
<event>
 5    1  0.3422688E-002  0.1249980E+03  0.7818608E-02  0.1235072E+00
          4   -1    0    0  501    0  0.00000000000E+00  0.00000000000E+00  0.30030511276E+03  0.30030779818E+03  0.12700000000E+01 0.  1.
         -4   -1    0    0    0  501 -0.00000000000E+00 -0.00000000000E+00 -0.12973439080E+02  0.13035452487E+02  0.12700000000E+01 0.  1.
         25    2    1    2    0    0  0.00000000000E+00  0.00000000000E+00  0.28733167368E+03  0.31334325067E+03  0.12499800815E+03 0.  0.
    9000005    1    3    3    0    0 -0.55921779861E+02 -0.25952267261E+02  0.16927432970E+03  0.18015427925E+03  0.10000000000E+01 0.  0.
    9000005    1    3    3    0    0  0.55921779861E+02  0.25952267261E+02  0.11805734398E+03  0.13318897142E+03  0.10000000000E+01 0.  0.
<mgrwt>
<rscale>  0 0.12499801E+03</rscale>
<asrwt>0</asrwt>
<pdfrwt beam="1">  1        4 0.46205758E-01 0.12499801E+03</pdfrwt>
<pdfrwt beam="2">  1       -4 0.20008908E-02 0.12499801E+03</pdfrwt>
<totfact> 0.73958184E+03</totfact>
</mgrwt>
</event>
<event>
 5    1  0.3422688E-002  0.1250078E+03  0.7818608E-02  0.1235057E+00
          4   -1    0    0  501    0  0.00000000000E+00  0.00000000000E+00  0.26913484566E+03  0.26913784210E+03  0.12700000000E+01 0.  1.
         -4   -1    0    0    0  501 -0.00000000000E+00 -0.00000000000E+00 -0.14485047642E+02  0.14540615709E+02  0.12700000000E+01 0.  1.
         25    2    1    2    0    0  0.00000000000E+00  0.00000000000E+00  0.25464979802E+03  0.28367845781E+03  0.12500779093E+03 0.  0.
    9000005    1    3    3    0    0 -0.47367652076E+02 -0.36670756253E+02  0.86902412323E+02  0.10555315294E+03  0.10000000000E+01 0.  0.
    9000005    1    3    3    0    0  0.47367652076E+02  0.36670756253E+02  0.16774738570E+03  0.17812530487E+03  0.10000000000E+01 0.  0.
<mgrwt>
<rscale>  0 0.12500779E+03</rscale>
<asrwt>0</asrwt>
<pdfrwt beam="1">  1        4 0.41409865E-01 0.12500779E+03</pdfrwt>
<pdfrwt beam="2">  1       -4 0.22329739E-02 0.12500779E+03</pdfrwt>
<totfact> 0.77679432E+03</totfact>
</mgrwt>
</event>
<event>
 5    1  0.3422688E-002  0.1249985E+03  0.7818608E-02  0.1235072E+00
         -4   -1    0    0    0  501 -0.00000000000E+00  0.00000000000E+00  0.10614114905E+03  0.10614874668E+03  0.12700000000E+01 0. -1.
          4   -1    0    0  501    0  0.00000000000E+00 -0.00000000000E+00 -0.36781667956E+02  0.36803586749E+02  0.12700000000E+01 0. -1.
         25    2    1    2    0    0  0.00000000000E+00  0.00000000000E+00  0.69359481093E+02  0.14295233343E+03  0.12499852805E+03 0.  0.
    9000005    1    3    3    0    0 -0.22830247750E+02  0.29721698249E+02 -0.22508252367E+02  0.43728949035E+02  0.10000000000E+01 0.  0.
    9000005    1    3    3    0    0  0.22830247750E+02 -0.29721698249E+02  0.91867733460E+02  0.99223384392E+02  0.10000000000E+01 0.  0.
<mgrwt>
<rscale>  0 0.12499853E+03</rscale>
<asrwt>0</asrwt>
<pdfrwt beam="2">  1        4 0.56609887E-02 0.12499853E+03</pdfrwt>
<pdfrwt beam="1">  1       -4 0.16331678E-01 0.12499853E+03</pdfrwt>
<totfact> 0.10073093E+04</totfact>
</mgrwt>
</event>
<event>
 5    1  0.3422688E-002  0.1250022E+03  0.7818608E-02  0.1235066E+00
          4   -1    0    0  501    0  0.00000000000E+00  0.00000000000E+00  0.38932040615E+02  0.38952749408E+02  0.12700000000E+01 0.  1.
         -4   -1    0    0    0  501 -0.00000000000E+00 -0.00000000000E+00 -0.10028714898E+03  0.10029519007E+03  0.12700000000E+01 0.  1.
         25    2    1    2    0    0  0.00000000000E+00  0.00000000000E+00 -0.61355108364E+02  0.13924793947E+03  0.12500215728E+03 0.  0.
    9000005    1    3    3    0    0 -0.59460092899E+02  0.11598261482E+02 -0.47767469739E+02  0.77154089212E+02  0.10000000000E+01 0.  0.
    9000005    1    3    3    0    0  0.59460092899E+02 -0.11598261482E+02 -0.13587638625E+02  0.62093850262E+02  0.10000000000E+01 0.  0.
<mgrwt>
<rscale>  0 0.12500216E+03</rscale>
<asrwt>0</asrwt>
<pdfrwt beam="1">  1        4 0.59917563E-02 0.12500216E+03</pdfrwt>
<pdfrwt beam="2">  1       -4 0.15431004E-01 0.12500216E+03</pdfrwt>
<totfact> 0.10148703E+04</totfact>
</mgrwt>
</event>
<event>
 5    1  0.3422688E-002  0.1250010E+03  0.7818608E-02  0.1235068E+00
         -4   -1    0    0    0  501 -0.00000000000E+00  0.00000000000E+00  0.85804339561E+02  0.85813737755E+02  0.12700000000E+01 0.  1.
          4   -1    0    0  501    0  0.00000000000E+00 -0.00000000000E+00 -0.45505087595E+02  0.45522806340E+02  0.12700000000E+01 0.  1.
         25    2    1    2    0    0  0.00000000000E+00  0.00000000000E+00  0.40299251966E+02  0.13133654409E+03  0.12500103242E+03 0.  0.
    9000005    1    3    3    0    0  0.47071914474E+02 -0.66314615902E+00 -0.23032190116E+02  0.52418381095E+02  0.10000000000E+01 0.  0.
    9000005    1    3    3    0    0 -0.47071914474E+02  0.66314615902E+00  0.63331442082E+02  0.78918163000E+02  0.10000000000E+01 0.  0.
<mgrwt>
<rscale>  0 0.12500103E+03</rscale>
<asrwt>0</asrwt>
<pdfrwt beam="2">  1        4 0.70028686E-02 0.12500103E+03</pdfrwt>
<pdfrwt beam="1">  1       -4 0.13202754E-01 0.12500103E+03</pdfrwt>
<totfact> 0.10315640E+04</totfact>
</mgrwt>
</event>
<event>
 5    1  0.3422688E-002  0.1250016E+03  0.7818608E-02  0.1235067E+00
         -4   -1    0    0    0  501 -0.00000000000E+00  0.00000000000E+00  0.10787816733E+02  0.10862315124E+02  0.12700000000E+01 0.  1.
          4   -1    0    0  501    0  0.00000000000E+00 -0.00000000000E+00 -0.36078586348E+03  0.36078809873E+03  0.12700000000E+01 0.  1.
         25    2    1    2    0    0  0.00000000000E+00  0.00000000000E+00 -0.34999804674E+03  0.37165041385E+03  0.12500158956E+03 0.  0.
    9000005    1    3    3    0    0  0.12736148502E+02 -0.17538326769E+02 -0.73127098949E+00  0.21710300362E+02  0.10000000000E+01 0.  0.
    9000005    1    3    3    0    0 -0.12736148502E+02  0.17538326769E+02 -0.34926677575E+03  0.34994011349E+03  0.10000000000E+01 0.  0.
<mgrwt>
<rscale>  0 0.12500159E+03</rscale>
<asrwt>0</asrwt>
<pdfrwt beam="2">  1        4 0.55511411E-01 0.12500159E+03</pdfrwt>
<pdfrwt beam="1">  1       -4 0.16655670E-02 0.12500159E+03</pdfrwt>
<totfact> 0.67404261E+03</totfact>
</mgrwt>
</event>
<event>
 5    1  0.3422688E-002  0.1250014E+03  0.7818608E-02  0.1235067E+00
         -4   -1    0    0    0  501 -0.00000000000E+00  0.00000000000E+00  0.13752307135E+03  0.13752893534E+03  0.12700000000E+01 0.  1.
          4   -1    0    0  501    0  0.00000000000E+00 -0.00000000000E+00 -0.28384297281E+02  0.28412694912E+02  0.12700000000E+01 0.  1.
         25    2    1    2    0    0  0.00000000000E+00  0.00000000000E+00  0.10913877407E+03  0.16594163025E+03  0.12500141056E+03 0.  0.
    9000005    1    3    3    0    0 -0.40357067403E+02 -0.26591341552E+02  0.10716232579E+03  0.11756086255E+03  0.10000000000E+01 0.  0.
    9000005    1    3    3    0    0  0.40357067403E+02  0.26591341552E+02  0.19764482794E+01  0.48380767694E+02  0.10000000000E+01 0.  0.
<mgrwt>
<rscale>  0 0.12500141E+03</rscale>
<asrwt>0</asrwt>
<pdfrwt beam="2">  1        4 0.43694505E-02 0.12500141E+03</pdfrwt>
<pdfrwt beam="1">  1       -4 0.21160031E-01 0.12500141E+03</pdfrwt>
<totfact> 0.96206311E+03</totfact>
</mgrwt>
</event>
<event>
 5    1  0.3422688E-002  0.1249988E+03  0.7818608E-02  0.1235071E+00
          4   -1    0    0  501    0  0.00000000000E+00  0.00000000000E+00  0.15333181549E+03  0.15333707491E+03  0.12700000000E+01 0. -1.
         -4   -1    0    0    0  501 -0.00000000000E+00 -0.00000000000E+00 -0.25453790572E+02  0.25485453783E+02  0.12700000000E+01 0. -1.
         25    2    1    2    0    0  0.00000000000E+00  0.00000000000E+00  0.12787802492E+03  0.17882252870E+03  0.12499883004E+03 0.  0.
    9000005    1    3    3    0    0  0.44104882181E+02  0.35716052997E+02  0.10136208932E+03  0.11617293241E+03  0.10000000000E+01 0.  0.
    9000005    1    3    3    0    0 -0.44104882181E+02 -0.35716052997E+02  0.26515935605E+02  0.62649596287E+02  0.10000000000E+01 0.  0.
<mgrwt>
<rscale>  0 0.12499883E+03</rscale>
<asrwt>0</asrwt>
<pdfrwt beam="1">  1        4 0.23592350E-01 0.12499883E+03</pdfrwt>
<pdfrwt beam="2">  1       -4 0.39188080E-02 0.12499883E+03</pdfrwt>
<totfact> 0.93831844E+03</totfact>
</mgrwt>
</event>
<event>
 5    1  0.3422688E-002  0.1250000E+03  0.7818608E-02  0.1235069E+00
          4   -1    0    0  501    0  0.00000000000E+00  0.00000000000E+00  0.52154719472E+02  0.52170179827E+02  0.12700000000E+01 0. -1.
         -4   -1    0    0    0  501 -0.00000000000E+00 -0.00000000000E+00 -0.74865445719E+02  0.74876216937E+02  0.12700000000E+01 0. -1.
         25    2    1    2    0    0  0.00000000000E+00  0.00000000000E+00 -0.22710726247E+02  0.12704639676E+03  0.12500003938E+03 0.  0.
    9000005    1    3    3    0    0  0.27691344962E+02  0.48929342146E+02  0.16374269164E+02  0.58566268443E+02  0.10000000000E+01 0.  0.
    9000005    1    3    3    0    0 -0.27691344962E+02 -0.48929342146E+02 -0.39084995411E+02  0.68480128322E+02  0.10000000000E+01 0.  0.
<mgrwt>
<rscale>  0 0.12500004E+03</rscale>
<asrwt>0</asrwt>
<pdfrwt beam="1">  1        4 0.80258208E-02 0.12500004E+03</pdfrwt>
<pdfrwt beam="2">  1       -4 0.11519779E-01 0.12500004E+03</pdfrwt>
<totfact> 0.10408129E+04</totfact>
</mgrwt>
</event>
<event>
 5    1  0.3422688E-002  0.1249997E+03  0.7818608E-02  0.1235070E+00
          4   -1    0    0  501    0  0.00000000000E+00  0.00000000000E+00  0.71140909612E+01  0.72265614371E+01  0.12700000000E+01 0. -1.
         -4   -1    0    0    0  501 -0.00000000000E+00 -0.00000000000E+00 -0.54466444621E+03  0.54466592684E+03  0.12700000000E+01 0. -1.
         25    2    1    2    0    0  0.00000000000E+00  0.00000000000E+00 -0.53755035525E+03  0.55189248828E+03  0.12499973677E+03 0.  0.
    9000005    1    3    3    0    0 -0.12469775864E+02  0.66745536277E+01 -0.23896941420E-01  0.14179053117E+02  0.10000000000E+01 0.  0.
    9000005    1    3    3    0    0  0.12469775864E+02 -0.66745536277E+01 -0.53752645831E+03  0.53771343516E+03  0.10000000000E+01 0.  0.
<mgrwt>
<rscale>  0 0.12499974E+03</rscale>
<asrwt>0</asrwt>
<pdfrwt beam="1">  1        4 0.11032414E-02 0.12499974E+03</pdfrwt>
<pdfrwt beam="2">  1       -4 0.83803263E-01 0.12499974E+03</pdfrwt>
<totfact> 0.52052591E+03</totfact>
</mgrwt>
</event>
<event>
 5    1  0.3422688E-002  0.1250332E+03  0.7818608E-02  0.1235017E+00
          4   -1    0    0  501    0  0.00000000000E+00  0.00000000000E+00  0.94801583070E+02  0.94810089403E+02  0.12700000000E+01 0. -1.
         -4   -1    0    0    0  501 -0.00000000000E+00 -0.00000000000E+00 -0.41206257127E+02  0.41225823538E+02  0.12700000000E+01 0. -1.
         25    2    1    2    0    0  0.00000000000E+00  0.00000000000E+00  0.53595325944E+02  0.13603591294E+03  0.12503323817E+03 0.  0.
    9000005    1    3    3    0    0  0.19625221468E+02  0.58149728001E+02  0.39707183436E+02  0.73104039565E+02  0.10000000000E+01 0.  0.
    9000005    1    3    3    0    0 -0.19625221468E+02 -0.58149728001E+02  0.13888142507E+02  0.62931873376E+02  0.10000000000E+01 0.  0.
<mgrwt>
<rscale>  0 0.12503324E+03</rscale>
<asrwt>0</asrwt>
<pdfrwt beam="1">  1        4 0.14587018E-01 0.12503324E+03</pdfrwt>
<pdfrwt beam="2">  1       -4 0.63415836E-02 0.12503324E+03</pdfrwt>
<totfact> 0.10208629E+04</totfact>
</mgrwt>
</event>
<event>
 5    1  0.3422688E-002  0.1250033E+03  0.7818608E-02  0.1235064E+00
          4   -1    0    0  501    0  0.00000000000E+00  0.00000000000E+00  0.47404621823E+02  0.47421630825E+02  0.12700000000E+01 0. -1.
         -4   -1    0    0    0  501 -0.00000000000E+00 -0.00000000000E+00 -0.82369970625E+02  0.82379760626E+02  0.12700000000E+01 0. -1.
         25    2    1    2    0    0  0.00000000000E+00  0.00000000000E+00 -0.34965348803E+02  0.12980139145E+03  0.12500330238E+03 0.  0.
    9000005    1    3    3    0    0 -0.38133769544E+02  0.32776548109E+02 -0.56014544501E+02  0.75280247616E+02  0.10000000000E+01 0.  0.
    9000005    1    3    3    0    0  0.38133769544E+02 -0.32776548109E+02  0.21049195698E+02  0.54521143835E+02  0.10000000000E+01 0.  0.
<mgrwt>
<rscale>  0 0.12500330E+03</rscale>
<asrwt>0</asrwt>
<pdfrwt beam="1">  1        4 0.72950802E-02 0.12500330E+03</pdfrwt>
<pdfrwt beam="2">  1       -4 0.12674365E-01 0.12500330E+03</pdfrwt>
<totfact> 0.10347987E+04</totfact>
</mgrwt>
</event>
<event>
 5    1  0.3422688E-002  0.1250548E+03  0.7818608E-02  0.1234984E+00
         -4   -1    0    0    0  501 -0.00000000000E+00  0.00000000000E+00  0.42555001868E+02  0.42573948419E+02  0.12700000000E+01 0. -1.
          4   -1    0    0  501    0  0.00000000000E+00 -0.00000000000E+00 -0.91829658273E+02  0.91838439875E+02  0.12700000000E+01 0. -1.
         25    2    1    2    0    0  0.00000000000E+00  0.00000000000E+00 -0.49274656406E+02  0.13441238829E+03  0.12505478145E+03 0.  0.
    9000005    1    3    3    0    0  0.12204330508E+02  0.60445351719E+02 -0.35707971829E+02  0.71264615902E+02  0.10000000000E+01 0.  0.
    9000005    1    3    3    0    0 -0.12204330508E+02 -0.60445351719E+02 -0.13566684576E+02  0.63147772391E+02  0.10000000000E+01 0.  0.
<mgrwt>
<rscale>  0 0.12505478E+03</rscale>
<asrwt>0</asrwt>
<pdfrwt beam="2">  1        4 0.14129773E-01 0.12505478E+03</pdfrwt>
<pdfrwt beam="1">  1       -4 0.65490563E-02 0.12505478E+03</pdfrwt>
<totfact> 0.10237817E+04</totfact>
</mgrwt>
</event>
<event>
 5    1  0.3422688E-002  0.1249985E+03  0.7818608E-02  0.1235072E+00
          4   -1    0    0  501    0  0.00000000000E+00  0.00000000000E+00  0.14079368219E+03  0.14079940996E+03  0.12700000000E+01 0. -1.
         -4   -1    0    0    0  501 -0.00000000000E+00 -0.00000000000E+00 -0.27723020881E+02  0.27752095178E+02  0.12700000000E+01 0. -1.
         25    2    1    2    0    0  0.00000000000E+00  0.00000000000E+00  0.11307066131E+03  0.16855150514E+03  0.12499854173E+03 0.  0.
    9000005    1    3    3    0    0 -0.46573071179E+02  0.28665134584E+02  0.97310902658E+02  0.11162953317E+03  0.10000000000E+01 0.  0.
    9000005    1    3    3    0    0  0.46573071179E+02 -0.28665134584E+02  0.15759758651E+02  0.56921971966E+02  0.10000000000E+01 0.  0.
<mgrwt>
<rscale>  0 0.12499854E+03</rscale>
<asrwt>0</asrwt>
<pdfrwt beam="1">  1        4 0.21663243E-01 0.12499854E+03</pdfrwt>
<pdfrwt beam="2">  1       -4 0.42677572E-02 0.12499854E+03</pdfrwt>
<totfact> 0.95722124E+03</totfact>
</mgrwt>
</event>
<event>
 5    1  0.3422688E-002  0.1249974E+03  0.7818608E-02  0.1235073E+00
          4   -1    0    0  501    0  0.00000000000E+00  0.00000000000E+00  0.73464257273E+01  0.74553920733E+01  0.12700000000E+01 0.  1.
         -4   -1    0    0    0  501 -0.00000000000E+00 -0.00000000000E+00 -0.52767481955E+03  0.52767634786E+03  0.12700000000E+01 0.  1.
         25    2    1    2    0    0  0.00000000000E+00  0.00000000000E+00 -0.52032839382E+03  0.53513173993E+03  0.12499736662E+03 0.  0.
    9000005    1    3    3    0    0 -0.11386990334E+02 -0.39294799168E+02 -0.46239289382E+03  0.46420031564E+03  0.10000000000E+01 0.  0.
    9000005    1    3    3    0    0  0.11386990334E+02  0.39294799168E+02 -0.57935500008E+02  0.70931424289E+02  0.10000000000E+01 0.  0.
<mgrwt>
<rscale>  0 0.12499737E+03</rscale>
<asrwt>0</asrwt>
<pdfrwt beam="1">  1        4 0.11387193E-02 0.12499737E+03</pdfrwt>
<pdfrwt beam="2">  1       -4 0.81189211E-01 0.12499737E+03</pdfrwt>
<totfact> 0.53241108E+03</totfact>
</mgrwt>
</event>
<event>
 5    1  0.3422688E-002  0.1250003E+03  0.7818608E-02  0.1235069E+00
          4   -1    0    0  501    0  0.00000000000E+00  0.00000000000E+00  0.12462018009E+03  0.12462665119E+03  0.12700000000E+01 0.  1.
         -4   -1    0    0    0  501 -0.00000000000E+00 -0.00000000000E+00 -0.31325261610E+02  0.31350995438E+02  0.12700000000E+01 0.  1.
         25    2    1    2    0    0  0.00000000000E+00  0.00000000000E+00  0.93294918480E+02  0.15597764662E+03  0.12500033773E+03 0.  0.
    9000005    1    3    3    0    0  0.44276721432E+02 -0.28298804363E+02  0.88852869089E+02  0.10323314746E+03  0.10000000000E+01 0.  0.
    9000005    1    3    3    0    0 -0.44276721432E+02  0.28298804363E+02  0.44420493909E+01  0.52744499163E+02  0.10000000000E+01 0.  0.
<mgrwt>
<rscale>  0 0.12500034E+03</rscale>
<asrwt>0</asrwt>
<pdfrwt beam="1">  1        4 0.19174812E-01 0.12500034E+03</pdfrwt>
<pdfrwt beam="2">  1       -4 0.48217484E-02 0.12500034E+03</pdfrwt>
<totfact> 0.98123171E+03</totfact>
</mgrwt>
</event>
<event>
 5    1  0.3422688E-002  0.1249977E+03  0.7818608E-02  0.1235073E+00
          4   -1    0    0  501    0  0.00000000000E+00  0.00000000000E+00  0.37816963644E+02  0.37838282721E+02  0.12700000000E+01 0. -1.
         -4   -1    0    0    0  501 -0.00000000000E+00 -0.00000000000E+00 -0.10323546905E+03  0.10324328050E+03  0.12700000000E+01 0. -1.
         25    2    1    2    0    0  0.00000000000E+00  0.00000000000E+00 -0.65418505402E+02  0.14108156322E+03  0.12499770651E+03 0.  0.
    9000005    1    3    3    0    0  0.49223156740E+02  0.34145396383E+02 -0.52781854765E+02  0.79848302713E+02  0.10000000000E+01 0.  0.
    9000005    1    3    3    0    0 -0.49223156740E+02 -0.34145396383E+02 -0.12636650636E+02  0.61233260512E+02  0.10000000000E+01 0.  0.
<mgrwt>
<rscale>  0 0.12499771E+03</rscale>
<asrwt>0</asrwt>
<pdfrwt beam="1">  1        4 0.58202353E-02 0.12499771E+03</pdfrwt>
<pdfrwt beam="2">  1       -4 0.15884621E-01 0.12499771E+03</pdfrwt>
<totfact> 0.10111741E+04</totfact>
</mgrwt>
</event>
<event>
 5    1  0.3422688E-002  0.1249996E+03  0.7818608E-02  0.1235070E+00
         -4   -1    0    0    0  501 -0.00000000000E+00  0.00000000000E+00  0.21918269535E+02  0.21955032211E+02  0.12700000000E+01 0.  1.
          4   -1    0    0  501    0  0.00000000000E+00 -0.00000000000E+00 -0.17802928184E+03  0.17803381166E+03  0.12700000000E+01 0.  1.
         25    2    1    2    0    0  0.00000000000E+00  0.00000000000E+00 -0.15611101231E+03  0.19998884387E+03  0.12499955803E+03 0.  0.
    9000005    1    3    3    0    0 -0.49152637369E+02 -0.12878338968E+02 -0.13625792754E+03  0.14542715081E+03  0.10000000000E+01 0.  0.
    9000005    1    3    3    0    0  0.49152637369E+02  0.12878338968E+02 -0.19853084769E+02  0.54561693061E+02  0.10000000000E+01 0.  0.
<mgrwt>
<rscale>  0 0.12499956E+03</rscale>
<asrwt>0</asrwt>
<pdfrwt beam="2">  1        4 0.27392296E-01 0.12499956E+03</pdfrwt>
<pdfrwt beam="1">  1       -4 0.33752179E-02 0.12499956E+03</pdfrwt>
<totfact> 0.90138280E+03</totfact>
</mgrwt>
</event>
<event>
 5    1  0.3422688E-002  0.1249971E+03  0.7818608E-02  0.1235074E+00
          4   -1    0    0  501    0  0.00000000000E+00  0.00000000000E+00  0.27913578802E+02  0.27942454823E+02  0.12700000000E+01 0.  1.
         -4   -1    0    0    0  501 -0.00000000000E+00 -0.00000000000E+00 -0.13983014582E+03  0.13983591305E+03  0.12700000000E+01 0.  1.
         25    2    1    2    0    0  0.00000000000E+00  0.00000000000E+00 -0.11191656702E+03  0.16777836788E+03  0.12499705098E+03 0.  0.
    9000005    1    3    3    0    0  0.13945801668E+02 -0.60195326704E+02 -0.68485443495E+02  0.92245426509E+02  0.10000000000E+01 0.  0.
    9000005    1    3    3    0    0 -0.13945801668E+02  0.60195326704E+02 -0.43431123520E+02  0.75532941366E+02  0.10000000000E+01 0.  0.
<mgrwt>
<rscale>  0 0.12499705E+03</rscale>
<asrwt>0</asrwt>
<pdfrwt beam="1">  1        4 0.42970617E-02 0.12499705E+03</pdfrwt>
<pdfrwt beam="2">  1       -4 0.21514995E-01 0.12499705E+03</pdfrwt>
<totfact> 0.95870135E+03</totfact>
</mgrwt>
</event>
<event>
 5    1  0.3422688E-002  0.1250059E+03  0.7818608E-02  0.1235060E+00
          4   -1    0    0  501    0  0.00000000000E+00  0.00000000000E+00  0.70287398969E+02  0.70298871640E+02  0.12700000000E+01 0. -1.
         -4   -1    0    0    0  501 -0.00000000000E+00 -0.00000000000E+00 -0.55557346732E+02  0.55571860468E+02  0.12700000000E+01 0. -1.
         25    2    1    2    0    0  0.00000000000E+00  0.00000000000E+00  0.14730052237E+02  0.12587073211E+03  0.12500586691E+03 0.  0.
    9000005    1    3    3    0    0  0.77266024673E+01  0.56033942586E+02 -0.19391618161E+02  0.59804163420E+02  0.10000000000E+01 0.  0.
    9000005    1    3    3    0    0 -0.77266024673E+01 -0.56033942586E+02  0.34121670398E+02  0.66066568688E+02  0.10000000000E+01 0.  0.
<mgrwt>
<rscale>  0 0.12500587E+03</rscale>
<asrwt>0</asrwt>
<pdfrwt beam="1">  1        4 0.10815445E-01 0.12500587E+03</pdfrwt>
<pdfrwt beam="2">  1       -4 0.85492831E-02 0.12500587E+03</pdfrwt>
<totfact> 0.10432411E+04</totfact>
</mgrwt>
</event>
<event>
 5    1  0.3422688E-002  0.1249978E+03  0.7818608E-02  0.1235073E+00
         -4   -1    0    0    0  501 -0.00000000000E+00  0.00000000000E+00  0.64736259065E+02  0.64748715336E+02  0.12700000000E+01 0. -1.
          4   -1    0    0  501    0  0.00000000000E+00 -0.00000000000E+00 -0.60313918134E+02  0.60327287530E+02  0.12700000000E+01 0. -1.
         25    2    1    2    0    0  0.00000000000E+00  0.00000000000E+00  0.44223409308E+01  0.12507600287E+03  0.12499779755E+03 0.  0.
    9000005    1    3    3    0    0 -0.34987750421E+02  0.45594147137E+02  0.26765133847E+02  0.63406161550E+02  0.10000000000E+01 0.  0.
    9000005    1    3    3    0    0  0.34987750421E+02 -0.45594147137E+02 -0.22342792916E+02  0.61669841316E+02  0.10000000000E+01 0.  0.
<mgrwt>
<rscale>  0 0.12499780E+03</rscale>
<asrwt>0</asrwt>
<pdfrwt beam="2">  1        4 0.92810509E-02 0.12499780E+03</pdfrwt>
<pdfrwt beam="1">  1       -4 0.99614111E-02 0.12499780E+03</pdfrwt>
<totfact> 0.10451732E+04</totfact>
</mgrwt>
</event>
<event>
 5    1  0.3422688E-002  0.1250339E+03  0.7818608E-02  0.1235016E+00
          4   -1    0    0  501    0  0.00000000000E+00  0.00000000000E+00  0.74503678918E+02  0.74514502429E+02  0.12700000000E+01 0.  1.
         -4   -1    0    0    0  501 -0.00000000000E+00 -0.00000000000E+00 -0.52436411036E+02  0.52451788362E+02  0.12700000000E+01 0.  1.
         25    2    1    2    0    0  0.00000000000E+00  0.00000000000E+00  0.22067267881E+02  0.12696629079E+03  0.12503389415E+03 0.  0.
    9000005    1    3    3    0    0 -0.45662260685E+02 -0.40646890551E+02  0.24279655842E+02  0.65785358935E+02  0.10000000000E+01 0.  0.
    9000005    1    3    3    0    0  0.45662260685E+02  0.40646890551E+02 -0.22123879608E+01  0.61180931857E+02  0.10000000000E+01 0.  0.
<mgrwt>
<rscale>  0 0.12503389E+03</rscale>
<asrwt>0</asrwt>
<pdfrwt beam="1">  1        4 0.11464120E-01 0.12503389E+03</pdfrwt>
<pdfrwt beam="2">  1       -4 0.80691557E-02 0.12503389E+03</pdfrwt>
<totfact> 0.10401917E+04</totfact>
</mgrwt>
</event>
<event>
 5    1  0.3422688E-002  0.1249809E+03  0.7818608E-02  0.1235099E+00
          4   -1    0    0  501    0  0.00000000000E+00  0.00000000000E+00  0.22443828657E+02  0.22479731866E+02  0.12700000000E+01 0. -1.
         -4   -1    0    0    0  501 -0.00000000000E+00 -0.00000000000E+00 -0.17381523424E+03  0.17381987387E+03  0.12700000000E+01 0. -1.
         25    2    1    2    0    0  0.00000000000E+00  0.00000000000E+00 -0.15137140558E+03  0.19629960574E+03  0.12498092969E+03 0.  0.
    9000005    1    3    3    0    0  0.35885197956E+02 -0.40325671628E+02 -0.26263012133E+02  0.60038762736E+02  0.10000000000E+01 0.  0.
    9000005    1    3    3    0    0 -0.35885197956E+02  0.40325671628E+02 -0.12510839345E+03  0.13626084300E+03  0.10000000000E+01 0.  0.
<mgrwt>
<rscale>  0 0.12498093E+03</rscale>
<asrwt>0</asrwt>
<pdfrwt beam="1">  1        4 0.34560155E-02 0.12498093E+03</pdfrwt>
<pdfrwt beam="2">  1       -4 0.26743923E-01 0.12498093E+03</pdfrwt>
<totfact> 0.90801369E+03</totfact>
</mgrwt>
</event>
<event>
 5    1  0.3422688E-002  0.1249950E+03  0.7818608E-02  0.1235077E+00
         -4   -1    0    0    0  501 -0.00000000000E+00  0.00000000000E+00  0.83609260824E+02  0.83618905731E+02  0.12700000000E+01 0.  1.
          4   -1    0    0  501    0  0.00000000000E+00 -0.00000000000E+00 -0.46695617812E+02  0.46712884977E+02  0.12700000000E+01 0.  1.
         25    2    1    2    0    0  0.00000000000E+00  0.00000000000E+00  0.36913643012E+02  0.13033179071E+03  0.12499503442E+03 0.  0.
    9000005    1    3    3    0    0 -0.60457444888E+02  0.78152737962E+01  0.32782357242E+02  0.69223291552E+02  0.10000000000E+01 0.  0.
    9000005    1    3    3    0    0  0.60457444888E+02 -0.78152737962E+01  0.41312857705E+01  0.61108499156E+02  0.10000000000E+01 0.  0.
<mgrwt>
<rscale>  0 0.12499503E+03</rscale>
<asrwt>0</asrwt>
<pdfrwt beam="2">  1        4 0.71860114E-02 0.12499503E+03</pdfrwt>
<pdfrwt beam="1">  1       -4 0.12865033E-01 0.12499503E+03</pdfrwt>
<totfact> 0.10338574E+04</totfact>
</mgrwt>
</event>
<event>
 5    1  0.3422688E-002  0.1249975E+03  0.7818608E-02  0.1235073E+00
         -4   -1    0    0    0  501 -0.00000000000E+00  0.00000000000E+00  0.14355385043E+02  0.14411453075E+02  0.12700000000E+01 0.  1.
          4   -1    0    0  501    0  0.00000000000E+00 -0.00000000000E+00 -0.27151161322E+03  0.27151458343E+03  0.12700000000E+01 0.  1.
         25    2    1    2    0    0  0.00000000000E+00  0.00000000000E+00 -0.25715622818E+03  0.28592603650E+03  0.12499749061E+03 0.  0.
    9000005    1    3    3    0    0 -0.19466787306E+02  0.15575938610E+02 -0.25965398085E+03  0.26085006314E+03  0.10000000000E+01 0.  0.
    9000005    1    3    3    0    0  0.19466787306E+02 -0.15575938610E+02  0.24977526683E+01  0.25075973361E+02  0.10000000000E+01 0.  0.
<mgrwt>
<rscale>  0 0.12499749E+03</rscale>
<asrwt>0</asrwt>
<pdfrwt beam="2">  1        4 0.41775555E-01 0.12499749E+03</pdfrwt>
<pdfrwt beam="1">  1       -4 0.22130624E-02 0.12499749E+03</pdfrwt>
<totfact> 0.77403178E+03</totfact>
</mgrwt>
</event>
<event>
 5    1  0.3422688E-002  0.1250047E+03  0.7818608E-02  0.1235062E+00
         -4   -1    0    0    0  501 -0.00000000000E+00  0.00000000000E+00  0.46810665518E+02  0.46827890260E+02  0.12700000000E+01 0.  1.
          4   -1    0    0  501    0  0.00000000000E+00 -0.00000000000E+00 -0.83416691286E+02  0.83426358455E+02  0.12700000000E+01 0.  1.
         25    2    1    2    0    0  0.00000000000E+00  0.00000000000E+00 -0.36606025768E+02  0.13025424872E+03  0.12500467266E+03 0.  0.
    9000005    1    3    3    0    0  0.69562984389E+01  0.18697642690E+02  0.43408698957E+02  0.47783962533E+02  0.10000000000E+01 0.  0.
    9000005    1    3    3    0    0 -0.69562984389E+01 -0.18697642690E+02 -0.80014724726E+02  0.82470286183E+02  0.10000000000E+01 0.  0.
<mgrwt>
<rscale>  0 0.12500467E+03</rscale>
<asrwt>0</asrwt>
<pdfrwt beam="2">  1        4 0.12835406E-01 0.12500467E+03</pdfrwt>
<pdfrwt beam="1">  1       -4 0.72037095E-02 0.12500467E+03</pdfrwt>
<totfact> 0.10337981E+04</totfact>
</mgrwt>
</event>
<event>
 5    1  0.3422688E-002  0.1249993E+03  0.7818608E-02  0.1235070E+00
         -4   -1    0    0    0  501 -0.00000000000E+00  0.00000000000E+00  0.26478565182E+02  0.26509004396E+02  0.12700000000E+01 0. -1.
          4   -1    0    0  501    0  0.00000000000E+00 -0.00000000000E+00 -0.14740543685E+03  0.14741090771E+03  0.12700000000E+01 0. -1.
         25    2    1    2    0    0  0.00000000000E+00  0.00000000000E+00 -0.12092687166E+03  0.17391991211E+03  0.12499931014E+03 0.  0.
    9000005    1    3    3    0    0  0.39943840463E+02  0.55338188008E+01 -0.12688679604E+03  0.13314425466E+03  0.10000000000E+01 0.  0.
    9000005    1    3    3    0    0 -0.39943840463E+02 -0.55338188008E+01  0.59599243713E+01  0.40775657444E+02  0.10000000000E+01 0.  0.
<mgrwt>
<rscale>  0 0.12499931E+03</rscale>
<asrwt>0</asrwt>
<pdfrwt beam="2">  1        4 0.22680521E-01 0.12499931E+03</pdfrwt>
<pdfrwt beam="1">  1       -4 0.40763878E-02 0.12499931E+03</pdfrwt>
<totfact> 0.94724495E+03</totfact>
</mgrwt>
</event>
<event>
 5    1  0.3422688E-002  0.1249944E+03  0.7818608E-02  0.1235078E+00
          4   -1    0    0  501    0  0.00000000000E+00  0.00000000000E+00  0.84293739828E+02  0.84303306425E+02  0.12700000000E+01 0. -1.
         -4   -1    0    0    0  501 -0.00000000000E+00 -0.00000000000E+00 -0.46315859923E+02  0.46333268614E+02  0.12700000000E+01 0. -1.
         25    2    1    2    0    0  0.00000000000E+00  0.00000000000E+00  0.37977879905E+02  0.13063657504E+03  0.12499438138E+03 0.  0.
    9000005    1    3    3    0    0  0.12131695302E+02 -0.78133388693E+01 -0.44555826159E+02  0.46844935051E+02  0.10000000000E+01 0.  0.
    9000005    1    3    3    0    0 -0.12131695302E+02  0.78133388693E+01  0.82533706064E+02  0.83791639988E+02  0.10000000000E+01 0.  0.
<mgrwt>
<rscale>  0 0.12499438E+03</rscale>
<asrwt>0</asrwt>
<pdfrwt beam="1">  1        4 0.12970343E-01 0.12499438E+03</pdfrwt>
<pdfrwt beam="2">  1       -4 0.71275919E-02 0.12499438E+03</pdfrwt>
<totfact> 0.10332196E+04</totfact>
</mgrwt>
</event>
<event>
 5    1  0.3422688E-002  0.1249978E+03  0.7818608E-02  0.1235073E+00
          4   -1    0    0  501    0  0.00000000000E+00  0.00000000000E+00  0.87948764309E+03  0.87948856005E+03  0.12700000000E+01 0.  1.
         -4   -1    0    0    0  501 -0.00000000000E+00 -0.00000000000E+00 -0.43496199178E+01  0.45312353094E+01  0.12700000000E+01 0.  1.
         25    2    1    2    0    0  0.00000000000E+00  0.00000000000E+00  0.87513802317E+03  0.88401979536E+03  0.12499775588E+03 0.  0.
    9000005    1    3    3    0    0 -0.60499859757E+01  0.28698060006E+02  0.82782389157E+03  0.82834387572E+03  0.10000000000E+01 0.  0.
    9000005    1    3    3    0    0  0.60499859757E+01 -0.28698060006E+02  0.47314131600E+02  0.55675919637E+02  0.10000000000E+01 0.  0.
<mgrwt>
<rscale>  0 0.12499776E+03</rscale>
<asrwt>0</asrwt>
<pdfrwt beam="1">  1        4 0.13531994E+00 0.12499776E+03</pdfrwt>
<pdfrwt beam="2">  1       -4 0.68321272E-03 0.12499776E+03</pdfrwt>
<totfact> 0.34775842E+03</totfact>
</mgrwt>
</event>
<event>
 5    1  0.3422688E-002  0.1249735E+03  0.7818608E-02  0.1235111E+00
         -4   -1    0    0    0  501 -0.00000000000E+00  0.00000000000E+00  0.34176606440E+02  0.34200194850E+02  0.12700000000E+01 0.  1.
          4   -1    0    0  501    0  0.00000000000E+00 -0.00000000000E+00 -0.11418095369E+03  0.11418801639E+03  0.12700000000E+01 0.  1.
         25    2    1    2    0    0  0.00000000000E+00  0.00000000000E+00 -0.80004347253E+02  0.14838821124E+03  0.12497345980E+03 0.  0.
    9000005    1    3    3    0    0 -0.40082518698E+02 -0.47442675372E+02 -0.31933759676E+02  0.69843974391E+02  0.10000000000E+01 0.  0.
    9000005    1    3    3    0    0  0.40082518698E+02  0.47442675372E+02 -0.48070587578E+02  0.78544236846E+02  0.10000000000E+01 0.  0.
<mgrwt>
<rscale>  0 0.12497346E+03</rscale>
<asrwt>0</asrwt>
<pdfrwt beam="2">  1        4 0.17568658E-01 0.12497346E+03</pdfrwt>
<pdfrwt beam="1">  1       -4 0.52602973E-02 0.12497346E+03</pdfrwt>
<totfact> 0.99685500E+03</totfact>
</mgrwt>
</event>
<event>
 5    1  0.3422688E-002  0.1249958E+03  0.7818608E-02  0.1235076E+00
          4   -1    0    0  501    0  0.00000000000E+00  0.00000000000E+00  0.67977638598E+02  0.67989501023E+02  0.12700000000E+01 0. -1.
         -4   -1    0    0    0  501 -0.00000000000E+00 -0.00000000000E+00 -0.57436014291E+02  0.57450053417E+02  0.12700000000E+01 0. -1.
         25    2    1    2    0    0  0.00000000000E+00  0.00000000000E+00  0.10541624307E+02  0.12543955444E+03  0.12499582383E+03 0.  0.
    9000005    1    3    3    0    0 -0.36669460390E+02  0.36819248835E+02  0.40102563814E+02  0.65646949926E+02  0.10000000000E+01 0.  0.
    9000005    1    3    3    0    0  0.36669460390E+02 -0.36819248835E+02 -0.29560939507E+02  0.59792604514E+02  0.10000000000E+01 0.  0.
<mgrwt>
<rscale>  0 0.12499582E+03</rscale>
<asrwt>0</asrwt>
<pdfrwt beam="1">  1        4 0.10460091E-01 0.12499582E+03</pdfrwt>
<pdfrwt beam="2">  1       -4 0.88383023E-02 0.12499582E+03</pdfrwt>
<totfact> 0.10444275E+04</totfact>
</mgrwt>
</event>
<event>
 5    1  0.3422688E-002  0.1250024E+03  0.7818608E-02  0.1235065E+00
         -4   -1    0    0    0  501 -0.00000000000E+00  0.00000000000E+00  0.19005816643E+02  0.19048201130E+02  0.12700000000E+01 0.  1.
          4   -1    0    0  501    0  0.00000000000E+00 -0.00000000000E+00 -0.20526386597E+03  0.20526779478E+03  0.12700000000E+01 0.  1.
         25    2    1    2    0    0  0.00000000000E+00  0.00000000000E+00 -0.18625804932E+03  0.22431599591E+03  0.12500242030E+03 0.  0.
    9000005    1    3    3    0    0 -0.48087663726E+02  0.17748421470E+02 -0.28978178369E+02  0.58891125723E+02  0.10000000000E+01 0.  0.
    9000005    1    3    3    0    0  0.48087663726E+02 -0.17748421470E+02 -0.15727987096E+03  0.16542487018E+03  0.10000000000E+01 0.  0.
<mgrwt>
<rscale>  0 0.12500242E+03</rscale>
<asrwt>0</asrwt>
<pdfrwt beam="2">  1        4 0.31582617E-01 0.12500242E+03</pdfrwt>
<pdfrwt beam="1">  1       -4 0.29275345E-02 0.12500242E+03</pdfrwt>
<totfact> 0.86185317E+03</totfact>
</mgrwt>
</event>
<event>
 5    1  0.3422688E-002  0.1250004E+03  0.7818608E-02  0.1235069E+00
          4   -1    0    0  501    0  0.00000000000E+00  0.00000000000E+00  0.64311130654E+01  0.65553119880E+01  0.12700000000E+01 0. -1.
         -4   -1    0    0    0  501 -0.00000000000E+00 -0.00000000000E+00 -0.60146843126E+03  0.60146977206E+03  0.12700000000E+01 0. -1.
         25    2    1    2    0    0  0.00000000000E+00  0.00000000000E+00 -0.59503731819E+03  0.60802508405E+03  0.12500037115E+03 0.  0.
    9000005    1    3    3    0    0 -0.56069824023E+02  0.25535209995E+02 -0.24664171688E+03  0.25422236058E+03  0.10000000000E+01 0.  0.
    9000005    1    3    3    0    0  0.56069824023E+02 -0.25535209995E+02 -0.34839560131E+03  0.35380272346E+03  0.10000000000E+01 0.  0.
<mgrwt>
<rscale>  0 0.12500037E+03</rscale>
<asrwt>0</asrwt>
<pdfrwt beam="1">  1        4 0.99905938E-03 0.12500037E+03</pdfrwt>
<pdfrwt beam="2">  1       -4 0.92543218E-01 0.12500037E+03</pdfrwt>
<totfact> 0.48364554E+03</totfact>
</mgrwt>
</event>
<event>
 5    1  0.3422688E-002  0.1249988E+03  0.7818608E-02  0.1235071E+00
          4   -1    0    0  501    0  0.00000000000E+00  0.00000000000E+00  0.75743729908E+02  0.75754376245E+02  0.12700000000E+01 0.  1.
         -4   -1    0    0    0  501 -0.00000000000E+00 -0.00000000000E+00 -0.51548804676E+02  0.51564446701E+02  0.12700000000E+01 0.  1.
         25    2    1    2    0    0  0.00000000000E+00  0.00000000000E+00  0.24194925231E+02  0.12731882295E+03  0.12499875307E+03 0.  0.
    9000005    1    3    3    0    0  0.54638214555E+02  0.28085256658E+02  0.23757911853E+02  0.65875295118E+02  0.10000000000E+01 0.  0.
    9000005    1    3    3    0    0 -0.54638214555E+02 -0.28085256658E+02  0.43701337800E+00  0.61443527828E+02  0.10000000000E+01 0.  0.
<mgrwt>
<rscale>  0 0.12499875E+03</rscale>
<asrwt>0</asrwt>
<pdfrwt beam="1">  1        4 0.11654904E-01 0.12499875E+03</pdfrwt>
<pdfrwt beam="2">  1       -4 0.79326075E-02 0.12499875E+03</pdfrwt>
<totfact> 0.10402519E+04</totfact>
</mgrwt>
</event>
<event>
 5    1  0.3422688E-002  0.1250029E+03  0.7818608E-02  0.1235065E+00
         -4   -1    0    0    0  501 -0.00000000000E+00  0.00000000000E+00  0.26158372474E+03  0.26158680768E+03  0.12700000000E+01 0. -1.
          4   -1    0    0  501    0  0.00000000000E+00 -0.00000000000E+00 -0.14903594435E+02  0.14957607665E+02  0.12700000000E+01 0. -1.
         25    2    1    2    0    0  0.00000000000E+00  0.00000000000E+00  0.24668013031E+03  0.27654441534E+03  0.12500290784E+03 0.  0.
    9000005    1    3    3    0    0  0.10709217881E+01 -0.49384208509E+02  0.38649420496E+02  0.62727383400E+02  0.10000000000E+01 0.  0.
    9000005    1    3    3    0    0 -0.10709217881E+01  0.49384208509E+02  0.20803070981E+03  0.21381703194E+03  0.10000000000E+01 0.  0.
<mgrwt>
<rscale>  0 0.12500291E+03</rscale>
<asrwt>0</asrwt>
<pdfrwt beam="2">  1        4 0.22972528E-02 0.12500291E+03</pdfrwt>
<pdfrwt beam="1">  1       -4 0.40248039E-01 0.12500291E+03</pdfrwt>
<totfact> 0.78633450E+03</totfact>
</mgrwt>
</event>
<event>
 5    1  0.3422688E-002  0.1250006E+03  0.7818608E-02  0.1235068E+00
          4   -1    0    0  501    0  0.00000000000E+00  0.00000000000E+00  0.61661825198E+02  0.61674902406E+02  0.12700000000E+01 0. -1.
         -4   -1    0    0    0  501 -0.00000000000E+00 -0.00000000000E+00 -0.63324000816E+02  0.63336734834E+02  0.12700000000E+01 0. -1.
         25    2    1    2    0    0  0.00000000000E+00  0.00000000000E+00 -0.16621756180E+01  0.12501163724E+03  0.12500058647E+03 0.  0.
    9000005    1    3    3    0    0 -0.24537063046E+02 -0.43568856936E+02  0.36655207331E+02  0.62007394576E+02  0.10000000000E+01 0.  0.
    9000005    1    3    3    0    0  0.24537063046E+02  0.43568856936E+02 -0.38317382949E+02  0.63004242664E+02  0.10000000000E+01 0.  0.
<mgrwt>
<rscale>  0 0.12500059E+03</rscale>
<asrwt>0</asrwt>
<pdfrwt beam="1">  1        4 0.94884201E-02 0.12500059E+03</pdfrwt>
<pdfrwt beam="2">  1       -4 0.97441395E-02 0.12500059E+03</pdfrwt>
<totfact> 0.10452471E+04</totfact>
</mgrwt>
</event>
<event>
 5    1  0.3422688E-002  0.1249986E+03  0.7818608E-02  0.1235072E+00
         -4   -1    0    0    0  501 -0.00000000000E+00  0.00000000000E+00  0.64474770267E+01  0.65713666775E+01  0.12700000000E+01 0.  1.
          4   -1    0    0  501    0  0.00000000000E+00 -0.00000000000E+00 -0.59995333232E+03  0.59995467651E+03  0.12700000000E+01 0.  1.
         25    2    1    2    0    0  0.00000000000E+00  0.00000000000E+00 -0.59350585530E+03  0.60652604319E+03  0.12499856316E+03 0.  0.
    9000005    1    3    3    0    0 -0.50987816990E+02  0.40579371710E+01 -0.47095771522E+03  0.47372818563E+03  0.10000000000E+01 0.  0.
    9000005    1    3    3    0    0  0.50987816990E+02 -0.40579371710E+01 -0.12254814008E+03  0.13279785756E+03  0.10000000000E+01 0.  0.
<mgrwt>
<rscale>  0 0.12499856E+03</rscale>
<asrwt>0</asrwt>
<pdfrwt beam="2">  1        4 0.92310103E-01 0.12499856E+03</pdfrwt>
<pdfrwt beam="1">  1       -4 0.10015534E-02 0.12499856E+03</pdfrwt>
<totfact> 0.48459785E+03</totfact>
</mgrwt>
</event>
<event>
 5    1  0.3422688E-002  0.1249987E+03  0.7818608E-02  0.1235071E+00
         -4   -1    0    0    0  501 -0.00000000000E+00  0.00000000000E+00  0.17059135547E+02  0.17106344016E+02  0.12700000000E+01 0.  1.
          4   -1    0    0  501    0  0.00000000000E+00 -0.00000000000E+00 -0.22861272351E+03  0.22861625107E+03  0.12700000000E+01 0.  1.
         25    2    1    2    0    0  0.00000000000E+00  0.00000000000E+00 -0.21155358797E+03  0.24572259508E+03  0.12499869261E+03 0.  0.
    9000005    1    3    3    0    0 -0.29092322256E+02  0.41773201701E+02 -0.17703010125E+03  0.18420646118E+03  0.10000000000E+01 0.  0.
    9000005    1    3    3    0    0  0.29092322256E+02 -0.41773201701E+02 -0.34523486719E+02  0.61516133899E+02  0.10000000000E+01 0.  0.
<mgrwt>
<rscale>  0 0.12499869E+03</rscale>
<asrwt>0</asrwt>
<pdfrwt beam="2">  1        4 0.35175089E-01 0.12499869E+03</pdfrwt>
<pdfrwt beam="1">  1       -4 0.26283853E-02 0.12499869E+03</pdfrwt>
<totfact> 0.82954820E+03</totfact>
</mgrwt>
</event>
<event>
 5    1  0.3422688E-002  0.1249884E+03  0.7818608E-02  0.1235087E+00
          4   -1    0    0  501    0  0.00000000000E+00  0.00000000000E+00  0.12771922104E+04  0.12771928418E+04  0.12700000000E+01 0. -1.
         -4   -1    0    0    0  501 -0.00000000000E+00 -0.00000000000E+00 -0.29253768699E+01  0.31891581696E+01  0.12700000000E+01 0. -1.
         25    2    1    2    0    0  0.00000000000E+00  0.00000000000E+00  0.12742668336E+04  0.12803820000E+04  0.12498841095E+03 0.  0.
    9000005    1    3    3    0    0  0.55853645859E+02  0.20786167867E+02  0.82955478431E+03  0.83169335376E+03  0.10000000000E+01 0.  0.
    9000005    1    3    3    0    0 -0.55853645859E+02 -0.20786167867E+02  0.44471204925E+03  0.44868864625E+03  0.10000000000E+01 0.  0.
<mgrwt>
<rscale>  0 0.12498841E+03</rscale>
<asrwt>0</asrwt>
<pdfrwt beam="1">  1        4 0.19651171E+00 0.12498841E+03</pdfrwt>
<pdfrwt beam="2">  1       -4 0.47039678E-03 0.12498841E+03</pdfrwt>
<totfact> 0.22702022E+03</totfact>
</mgrwt>
</event>
<event>
 5    1  0.3422688E-002  0.1250311E+03  0.7818608E-02  0.1235021E+00
          4   -1    0    0  501    0  0.00000000000E+00  0.00000000000E+00  0.81526216229E+01  0.82509477835E+01  0.12700000000E+01 0.  1.
         -4   -1    0    0    0  501 -0.00000000000E+00 -0.00000000000E+00 -0.47640620674E+03  0.47640789952E+03  0.12700000000E+01 0.  1.
         25    2    1    2    0    0  0.00000000000E+00  0.00000000000E+00 -0.46825358512E+03  0.48465884730E+03  0.12503110929E+03 0.  0.
    9000005    1    3    3    0    0 -0.23343710853E+02  0.77634154131E+00 -0.45887443758E+03  0.45946956484E+03  0.10000000000E+01 0.  0.
    9000005    1    3    3    0    0  0.23343710853E+02 -0.77634154131E+00 -0.93791475339E+01  0.25189282463E+02  0.10000000000E+01 0.  0.
<mgrwt>
<rscale>  0 0.12503111E+03</rscale>
<asrwt>0</asrwt>
<pdfrwt beam="1">  1        4 0.12619436E-02 0.12503111E+03</pdfrwt>
<pdfrwt beam="2">  1       -4 0.73300935E-01 0.12503111E+03</pdfrwt>
<totfact> 0.57035577E+03</totfact>
</mgrwt>
</event>
<event>
 5    1  0.3422688E-002  0.1250064E+03  0.7818608E-02  0.1235059E+00
          4   -1    0    0  501    0  0.00000000000E+00  0.00000000000E+00  0.61985273558E+02  0.61998282541E+02  0.12700000000E+01 0. -1.
         -4   -1    0    0    0  501 -0.00000000000E+00 -0.00000000000E+00 -0.62999388152E+02  0.63012187770E+02  0.12700000000E+01 0. -1.
         25    2    1    2    0    0  0.00000000000E+00  0.00000000000E+00 -0.10141145945E+01  0.12501047031E+03  0.12500635687E+03 0.  0.
    9000005    1    3    3    0    0 -0.42808489362E+02  0.45040648781E+02  0.61580334121E+01  0.62451166358E+02  0.10000000000E+01 0.  0.
    9000005    1    3    3    0    0  0.42808489362E+02 -0.45040648781E+02 -0.71721480066E+01  0.62559303953E+02  0.10000000000E+01 0.  0.
<mgrwt>
<rscale>  0 0.12500636E+03</rscale>
<asrwt>0</asrwt>
<pdfrwt beam="1">  1        4 0.95381812E-02 0.12500636E+03</pdfrwt>
<pdfrwt beam="2">  1       -4 0.96941988E-02 0.12500636E+03</pdfrwt>
<totfact> 0.10451134E+04</totfact>
</mgrwt>
</event>
<event>
 5    1  0.3422688E-002  0.1249992E+03  0.7818608E-02  0.1235071E+00
         -4   -1    0    0    0  501 -0.00000000000E+00  0.00000000000E+00  0.15622940267E+03  0.15623456454E+03  0.12700000000E+01 0.  1.
          4   -1    0    0  501    0  0.00000000000E+00 -0.00000000000E+00 -0.24981274967E+02  0.25013536315E+02  0.12700000000E+01 0.  1.
         25    2    1    2    0    0  0.00000000000E+00  0.00000000000E+00  0.13124812770E+03  0.18124810086E+03  0.12499921216E+03 0.  0.
    9000005    1    3    3    0    0  0.57094905572E+02  0.20265236475E+02  0.87837512452E+02  0.10670959022E+03  0.10000000000E+01 0.  0.
    9000005    1    3    3    0    0 -0.57094905572E+02 -0.20265236475E+02  0.43410615251E+02  0.74538510638E+02  0.10000000000E+01 0.  0.
<mgrwt>
<rscale>  0 0.12499921E+03</rscale>
<asrwt>0</asrwt>
<pdfrwt beam="2">  1        4 0.38461518E-02 0.12499921E+03</pdfrwt>
<pdfrwt beam="1">  1       -4 0.24038172E-01 0.12499921E+03</pdfrwt>
<totfact> 0.93394471E+03</totfact>
</mgrwt>
</event>
<event>
 5    1  0.3422688E-002  0.1249987E+03  0.7818608E-02  0.1235071E+00
         -4   -1    0    0    0  501 -0.00000000000E+00  0.00000000000E+00  0.54830770399E+03  0.54830917479E+03  0.12700000000E+01 0. -1.
          4   -1    0    0  501    0  0.00000000000E+00 -0.00000000000E+00 -0.70659577492E+01  0.71791823291E+01  0.12700000000E+01 0. -1.
         25    2    1    2    0    0  0.00000000000E+00  0.00000000000E+00  0.54124174624E+03  0.55548835711E+03  0.12499874806E+03 0.  0.
    9000005    1    3    3    0    0 -0.12073141493E+01  0.37229609119E+01 -0.65425596740E+01  0.76891568130E+01  0.10000000000E+01 0.  0.
    9000005    1    3    3    0    0  0.12073141493E+01 -0.37229609119E+01  0.54778430591E+03  0.54779920030E+03  0.10000000000E+01 0.  0.
<mgrwt>
<rscale>  0 0.12499875E+03</rscale>
<asrwt>0</asrwt>
<pdfrwt beam="2">  1        4 0.10958929E-02 0.12499875E+03</pdfrwt>
<pdfrwt beam="1">  1       -4 0.84363875E-01 0.12499875E+03</pdfrwt>
<totfact> 0.51804931E+03</totfact>
</mgrwt>
</event>
<event>
 5    1  0.3422688E-002  0.1250010E+03  0.7818608E-02  0.1235068E+00
          4   -1    0    0  501    0  0.00000000000E+00  0.00000000000E+00  0.24144034737E+03  0.24144368751E+03  0.12700000000E+01 0.  1.
         -4   -1    0    0    0  501 -0.00000000000E+00 -0.00000000000E+00 -0.16150835205E+02  0.16200690658E+02  0.12700000000E+01 0.  1.
         25    2    1    2    0    0  0.00000000000E+00  0.00000000000E+00  0.22528951216E+03  0.25764437817E+03  0.12500104523E+03 0.  0.
    9000005    1    3    3    0    0 -0.18087554065E+02  0.28974703209E+02  0.22050790513E+03  0.22313993202E+03  0.10000000000E+01 0.  0.
    9000005    1    3    3    0    0  0.18087554065E+02 -0.28974703209E+02  0.47816070376E+01  0.34504446148E+02  0.10000000000E+01 0.  0.
<mgrwt>
<rscale>  0 0.12500105E+03</rscale>
<asrwt>0</asrwt>
<pdfrwt beam="1">  1        4 0.37148759E-01 0.12500105E+03</pdfrwt>
<pdfrwt beam="2">  1       -4 0.24888360E-02 0.12500105E+03</pdfrwt>
<totfact> 0.81235889E+03</totfact>
</mgrwt>
</event>
<event>
 5    1  0.3422688E-002  0.1250004E+03  0.7818608E-02  0.1235069E+00
          4   -1    0    0  501    0  0.00000000000E+00  0.00000000000E+00  0.34166999162E+03  0.34167235193E+03  0.12700000000E+01 0.  1.
         -4   -1    0    0    0  501 -0.00000000000E+00 -0.00000000000E+00 -0.11395212387E+02  0.11465764926E+02  0.12700000000E+01 0.  1.
         25    2    1    2    0    0  0.00000000000E+00  0.00000000000E+00  0.33027477923E+03  0.35313811685E+03  0.12500039911E+03 0.  0.
    9000005    1    3    3    0    0 -0.19330343843E+02  0.44671992375E+02  0.27585901670E+03  0.28012219867E+03  0.10000000000E+01 0.  0.
    9000005    1    3    3    0    0  0.19330343843E+02 -0.44671992375E+02  0.54415762535E+02  0.73015918182E+02  0.10000000000E+01 0.  0.
<mgrwt>
<rscale>  0 0.12500040E+03</rscale>
<asrwt>0</asrwt>
<pdfrwt beam="1">  1        4 0.52570221E-01 0.12500040E+03</pdfrwt>
<pdfrwt beam="2">  1       -4 0.17587183E-02 0.12500040E+03</pdfrwt>
<totfact> 0.69380085E+03</totfact>
</mgrwt>
</event>
<event>
 5    1  0.3422688E-002  0.1249998E+03  0.7818608E-02  0.1235070E+00
          4   -1    0    0  501    0  0.00000000000E+00  0.00000000000E+00  0.10000174661E+02  0.10080495685E+02  0.12700000000E+01 0.  1.
         -4   -1    0    0    0  501 -0.00000000000E+00 -0.00000000000E+00 -0.38897292453E+03  0.38897499780E+03  0.12700000000E+01 0.  1.
         25    2    1    2    0    0  0.00000000000E+00  0.00000000000E+00 -0.37897274987E+03  0.39905549349E+03  0.12499976697E+03 0.  0.
    9000005    1    3    3    0    0  0.37170989976E+02 -0.44378305871E+02 -0.26463578490E+03  0.27089521069E+03  0.10000000000E+01 0.  0.
    9000005    1    3    3    0    0 -0.37170989976E+02  0.44378305871E+02 -0.11433696497E+03  0.12816028279E+03  0.10000000000E+01 0.  0.
<mgrwt>
<rscale>  0 0.12499977E+03</rscale>
<asrwt>0</asrwt>
<pdfrwt beam="1">  1        4 0.15448267E-02 0.12499977E+03</pdfrwt>
<pdfrwt beam="2">  1       -4 0.59848315E-01 0.12499977E+03</pdfrwt>
<totfact> 0.64645093E+03</totfact>
</mgrwt>
</event>
<event>
 5    1  0.3422688E-002  0.1250001E+03  0.7818608E-02  0.1235069E+00
         -4   -1    0    0    0  501 -0.00000000000E+00  0.00000000000E+00  0.24605552676E+03  0.24605880425E+03  0.12700000000E+01 0. -1.
          4   -1    0    0  501    0  0.00000000000E+00 -0.00000000000E+00 -0.15846717218E+02  0.15897526430E+02  0.12700000000E+01 0. -1.
         25    2    1    2    0    0  0.00000000000E+00  0.00000000000E+00  0.23020880954E+03  0.26195633068E+03  0.12500009277E+03 0.  0.
    9000005    1    3    3    0    0  0.43853642531E+02  0.22047486834E+02  0.19616085424E+03  0.20221106393E+03  0.10000000000E+01 0.  0.
    9000005    1    3    3    0    0 -0.43853642531E+02 -0.22047486834E+02  0.34047955301E+02  0.59745266750E+02  0.10000000000E+01 0.  0.
<mgrwt>
<rscale>  0 0.12500009E+03</rscale>
<asrwt>0</asrwt>
<pdfrwt beam="2">  1        4 0.24421170E-02 0.12500009E+03</pdfrwt>
<pdfrwt beam="1">  1       -4 0.37858856E-01 0.12500009E+03</pdfrwt>
<totfact> 0.80632132E+03</totfact>
</mgrwt>
</event>
<event>
 5    1  0.3422688E-002  0.1249987E+03  0.7818608E-02  0.1235071E+00
          4   -1    0    0  501    0  0.00000000000E+00  0.00000000000E+00  0.13517167669E+03  0.13517764268E+03  0.12700000000E+01 0.  1.
         -4   -1    0    0    0  501 -0.00000000000E+00 -0.00000000000E+00 -0.28877295790E+02  0.28905209084E+02  0.12700000000E+01 0.  1.
         25    2    1    2    0    0  0.00000000000E+00  0.00000000000E+00  0.10629438090E+03  0.16408285176E+03  0.12499874732E+03 0.  0.
    9000005    1    3    3    0    0 -0.29870841182E+02 -0.87351136455E+01  0.12428166131E+03  0.12812299053E+03  0.10000000000E+01 0.  0.
    9000005    1    3    3    0    0  0.29870841182E+02  0.87351136455E+01 -0.17987280410E+02  0.35959861233E+02  0.10000000000E+01 0.  0.
<mgrwt>
<rscale>  0 0.12499875E+03</rscale>
<asrwt>0</asrwt>
<pdfrwt beam="1">  1        4 0.20798249E-01 0.12499875E+03</pdfrwt>
<pdfrwt beam="2">  1       -4 0.44452670E-02 0.12499875E+03</pdfrwt>
<totfact> 0.96564086E+03</totfact>
</mgrwt>
</event>
<event>
 5    1  0.3422688E-002  0.1249989E+03  0.7818608E-02  0.1235071E+00
          4   -1    0    0  501    0  0.00000000000E+00  0.00000000000E+00  0.22669504204E+03  0.22669859943E+03  0.12700000000E+01 0. -1.
         -4   -1    0    0    0  501 -0.00000000000E+00 -0.00000000000E+00 -0.17203888026E+02  0.17250700369E+02  0.12700000000E+01 0. -1.
         25    2    1    2    0    0  0.00000000000E+00  0.00000000000E+00  0.20949115401E+03  0.24394929980E+03  0.12499886905E+03 0.  0.
    9000005    1    3    3    0    0 -0.43793229546E+02  0.40312932922E+02  0.67603379415E+02  0.90078834490E+02  0.10000000000E+01 0.  0.
    9000005    1    3    3    0    0  0.43793229546E+02 -0.40312932922E+02  0.14188777460E+03  0.15387046531E+03  0.10000000000E+01 0.  0.
<mgrwt>
<rscale>  0 0.12499887E+03</rscale>
<asrwt>0</asrwt>
<pdfrwt beam="1">  1        4 0.34880034E-01 0.12499887E+03</pdfrwt>
<pdfrwt beam="2">  1       -4 0.26506267E-02 0.12499887E+03</pdfrwt>
<totfact> 0.83214780E+03</totfact>
</mgrwt>
</event>
<event>
 5    1  0.3422688E-002  0.1249997E+03  0.7818608E-02  0.1235070E+00
          4   -1    0    0  501    0  0.00000000000E+00  0.00000000000E+00  0.41923005379E+02  0.41942237423E+02  0.12700000000E+01 0.  1.
         -4   -1    0    0    0  501 -0.00000000000E+00 -0.00000000000E+00 -0.93131364935E+02  0.93140023806E+02  0.12700000000E+01 0.  1.
         25    2    1    2    0    0  0.00000000000E+00  0.00000000000E+00 -0.51208359556E+02  0.13508226123E+03  0.12499968484E+03 0.  0.
    9000005    1    3    3    0    0  0.49859954660E+02  0.24298885436E+02 -0.56714814759E+02  0.79334867021E+02  0.10000000000E+01 0.  0.
    9000005    1    3    3    0    0 -0.49859954660E+02 -0.24298885436E+02  0.55064552031E+01  0.55747394208E+02  0.10000000000E+01 0.  0.
<mgrwt>
<rscale>  0 0.12499968E+03</rscale>
<asrwt>0</asrwt>
<pdfrwt beam="1">  1        4 0.64518386E-02 0.12499968E+03</pdfrwt>
<pdfrwt beam="2">  1       -4 0.14330048E-01 0.12499968E+03</pdfrwt>
<totfact> 0.10236410E+04</totfact>
</mgrwt>
</event>
<event>
 5    1  0.3422688E-002  0.1250271E+03  0.7818608E-02  0.1235027E+00
          4   -1    0    0  501    0  0.00000000000E+00  0.00000000000E+00  0.22487085544E+01  0.25825549679E+01  0.12700000000E+01 0.  1.
         -4   -1    0    0    0  501 -0.00000000000E+00 -0.00000000000E+00 -0.16174381598E+04  0.16174386584E+04  0.12700000000E+01 0.  1.
         25    2    1    2    0    0  0.00000000000E+00  0.00000000000E+00 -0.16151894512E+04  0.16200212133E+04  0.12502707042E+03 0.  0.
    9000005    1    3    3    0    0  0.17829041010E+01 -0.54097951945E+02 -0.40255016430E+03  0.40617410298E+03  0.10000000000E+01 0.  0.
    9000005    1    3    3    0    0 -0.17829041010E+01  0.54097951945E+02 -0.12126392869E+04  0.12138471104E+04  0.10000000000E+01 0.  0.
<mgrwt>
<rscale>  0 0.12502707E+03</rscale>
<asrwt>0</asrwt>
<pdfrwt beam="1">  1        4 0.37167530E-03 0.12502707E+03</pdfrwt>
<pdfrwt beam="2">  1       -4 0.24886149E+00 0.12502707E+03</pdfrwt>
<totfact> 0.15677724E+03</totfact>
</mgrwt>
</event>
<event>
 5    1  0.3422688E-002  0.1250002E+03  0.7818608E-02  0.1235069E+00
         -4   -1    0    0    0  501 -0.00000000000E+00  0.00000000000E+00  0.19166508952E+04  0.19166513160E+04  0.12700000000E+01 0. -1.
          4   -1    0    0  501    0  0.00000000000E+00 -0.00000000000E+00 -0.18397584407E+01  0.22355337439E+01  0.12700000000E+01 0. -1.
         25    2    1    2    0    0  0.00000000000E+00  0.00000000000E+00  0.19148111368E+04  0.19188868497E+04  0.12500021004E+03 0.  0.
    9000005    1    3    3    0    0  0.11001776598E+02 -0.61245690081E+02  0.10458435626E+04  0.10476935769E+04  0.10000000000E+01 0.  0.
    9000005    1    3    3    0    0 -0.11001776598E+02  0.61245690081E+02  0.86896757423E+03  0.87119327288E+03  0.10000000000E+01 0.  0.
<mgrwt>
<rscale>  0 0.12500021E+03</rscale>
<asrwt>0</asrwt>
<pdfrwt beam="2">  1        4 0.31351562E-03 0.12500021E+03</pdfrwt>
<pdfrwt beam="1">  1       -4 0.29490056E+00 0.12500021E+03</pdfrwt>
<totfact> 0.10957207E+03</totfact>
</mgrwt>
</event>
<event>
 5    1  0.3422688E-002  0.1250015E+03  0.7818608E-02  0.1235067E+00
          4   -1    0    0  501    0  0.00000000000E+00  0.00000000000E+00  0.14129637045E+03  0.14130207785E+03  0.12700000000E+01 0. -1.
         -4   -1    0    0    0  501 -0.00000000000E+00 -0.00000000000E+00 -0.27625583849E+02  0.27654760585E+02  0.12700000000E+01 0. -1.
         25    2    1    2    0    0  0.00000000000E+00  0.00000000000E+00  0.11367078661E+03  0.16895683843E+03  0.12500146209E+03 0.  0.
    9000005    1    3    3    0    0 -0.50453850758E+02  0.15857944764E+02  0.10183250405E+03  0.11475157667E+03  0.10000000000E+01 0.  0.
    9000005    1    3    3    0    0  0.50453850758E+02 -0.15857944764E+02  0.11838282559E+02  0.54205261759E+02  0.10000000000E+01 0.  0.
<mgrwt>
<rscale>  0 0.12500146E+03</rscale>
<asrwt>0</asrwt>
<pdfrwt beam="1">  1        4 0.21740587E-01 0.12500146E+03</pdfrwt>
<pdfrwt beam="2">  1       -4 0.42527732E-02 0.12500146E+03</pdfrwt>
<totfact> 0.95640093E+03</totfact>
</mgrwt>
</event>
<event>
 5    1  0.3422688E-002  0.1250008E+03  0.7818608E-02  0.1235068E+00
         -4   -1    0    0    0  501 -0.00000000000E+00  0.00000000000E+00  0.10499693009E+03  0.10500461051E+03  0.12700000000E+01 0. -1.
          4   -1    0    0  501    0  0.00000000000E+00 -0.00000000000E+00 -0.37184035297E+02  0.37205717047E+02  0.12700000000E+01 0. -1.
         25    2    1    2    0    0  0.00000000000E+00  0.00000000000E+00  0.67812894790E+02  0.14221032755E+03  0.12500075425E+03 0.  0.
    9000005    1    3    3    0    0 -0.35722634132E+02  0.16899027888E+02  0.88982333122E+02  0.97368061195E+02  0.10000000000E+01 0.  0.
    9000005    1    3    3    0    0  0.35722634132E+02 -0.16899027888E+02 -0.21169438333E+02  0.44842266359E+02  0.10000000000E+01 0.  0.
<mgrwt>
<rscale>  0 0.12500075E+03</rscale>
<asrwt>0</asrwt>
<pdfrwt beam="2">  1        4 0.57228795E-02 0.12500075E+03</pdfrwt>
<pdfrwt beam="1">  1       -4 0.16155632E-01 0.12500075E+03</pdfrwt>
<totfact> 0.10087808E+04</totfact>
</mgrwt>
</event>
<event>
 5    1  0.3422688E-002  0.1249986E+03  0.7818608E-02  0.1235072E+00
         -4   -1    0    0    0  501 -0.00000000000E+00  0.00000000000E+00  0.70386427381E+03  0.70386541955E+03  0.12700000000E+01 0.  1.
          4   -1    0    0  501    0  0.00000000000E+00 -0.00000000000E+00 -0.54757704138E+01  0.56211174712E+01  0.12700000000E+01 0.  1.
         25    2    1    2    0    0  0.00000000000E+00  0.00000000000E+00  0.69838850339E+03  0.70948653702E+03  0.12499857818E+03 0.  0.
    9000005    1    3    3    0    0 -0.24680497584E+02 -0.35444598581E+02  0.60553862475E+03  0.60707781428E+03  0.10000000000E+01 0.  0.
    9000005    1    3    3    0    0  0.24680497584E+02  0.35444598581E+02  0.92849878647E+02  0.10240872274E+03  0.10000000000E+01 0.  0.
<mgrwt>
<rscale>  0 0.12499858E+03</rscale>
<asrwt>0</asrwt>
<pdfrwt beam="2">  1        4 0.85369559E-03 0.12499858E+03</pdfrwt>
<pdfrwt beam="1">  1       -4 0.10829799E+00 0.12499858E+03</pdfrwt>
<totfact> 0.42591979E+03</totfact>
</mgrwt>
</event>
<event>
 5    1  0.3422688E-002  0.1250024E+03  0.7818608E-02  0.1235066E+00
         -4   -1    0    0    0  501 -0.00000000000E+00  0.00000000000E+00  0.12385497469E+02  0.12450439653E+02  0.12700000000E+01 0.  1.
          4   -1    0    0  501    0  0.00000000000E+00 -0.00000000000E+00 -0.31451022253E+03  0.31451278666E+03  0.12700000000E+01 0.  1.
         25    2    1    2    0    0  0.00000000000E+00  0.00000000000E+00 -0.30212472506E+03  0.32696322632E+03  0.12500240746E+03 0.  0.
    9000005    1    3    3    0    0 -0.33845693866E+02  0.51951325177E+02 -0.17147944017E+03  0.18234766130E+03  0.10000000000E+01 0.  0.
    9000005    1    3    3    0    0  0.33845693866E+02 -0.51951325177E+02 -0.13064528489E+03  0.14461556502E+03  0.10000000000E+01 0.  0.
<mgrwt>
<rscale>  0 0.12500241E+03</rscale>
<asrwt>0</asrwt>
<pdfrwt beam="2">  1        4 0.48391375E-01 0.12500241E+03</pdfrwt>
<pdfrwt beam="1">  1       -4 0.19106542E-02 0.12500241E+03</pdfrwt>
<totfact> 0.72331669E+03</totfact>
</mgrwt>
</event>
<event>
 5    1  0.3422688E-002  0.1250007E+03  0.7818608E-02  0.1235068E+00
         -4   -1    0    0    0  501 -0.00000000000E+00  0.00000000000E+00  0.19428323445E+03  0.19428738530E+03  0.12700000000E+01 0.  1.
          4   -1    0    0  501    0  0.00000000000E+00 -0.00000000000E+00 -0.20081768181E+02  0.20121886424E+02  0.12700000000E+01 0.  1.
         25    2    1    2    0    0  0.00000000000E+00  0.00000000000E+00  0.17420146627E+03  0.21440927173E+03  0.12500073981E+03 0.  0.
    9000005    1    3    3    0    0 -0.61849073342E+02  0.88724905032E+01  0.85169801971E+02  0.10563580893E+03  0.10000000000E+01 0.  0.
    9000005    1    3    3    0    0  0.61849073342E+02 -0.88724905032E+01  0.89031664295E+02  0.10877346279E+03  0.10000000000E+01 0.  0.
<mgrwt>
<rscale>  0 0.12500074E+03</rscale>
<asrwt>0</asrwt>
<pdfrwt beam="2">  1        4 0.30929080E-02 0.12500074E+03</pdfrwt>
<pdfrwt beam="1">  1       -4 0.29893135E-01 0.12500074E+03</pdfrwt>
<totfact> 0.87759361E+03</totfact>
</mgrwt>
</event>
<event>
 5    1  0.3422688E-002  0.1249453E+03  0.7818608E-02  0.1235155E+00
          4   -1    0    0  501    0  0.00000000000E+00  0.00000000000E+00  0.33913105648E+02  0.33936877208E+02  0.12700000000E+01 0. -1.
         -4   -1    0    0    0  501 -0.00000000000E+00 -0.00000000000E+00 -0.11501568565E+03  0.11502269709E+03  0.12700000000E+01 0. -1.
         25    2    1    2    0    0  0.00000000000E+00  0.00000000000E+00 -0.81102580003E+02  0.14895957430E+03  0.12494529320E+03 0.  0.
    9000005    1    3    3    0    0 -0.30279583248E+02  0.54564557742E+02 -0.37245770953E+02  0.72680063134E+02  0.10000000000E+01 0.  0.
    9000005    1    3    3    0    0  0.30279583248E+02 -0.54564557742E+02 -0.43856809050E+02  0.76279511163E+02  0.10000000000E+01 0.  0.
<mgrwt>
<rscale>  0 0.12494529E+03</rscale>
<asrwt>0</asrwt>
<pdfrwt beam="1">  1        4 0.52197688E-02 0.12494529E+03</pdfrwt>
<pdfrwt beam="2">  1       -4 0.17697089E-01 0.12494529E+03</pdfrwt>
<totfact> 0.99634129E+03</totfact>
</mgrwt>
</event>
<event>
 5    1  0.3422688E-002  0.1249908E+03  0.7818608E-02  0.1235084E+00
          4   -1    0    0  501    0  0.00000000000E+00  0.00000000000E+00  0.29655226725E+02  0.29682408462E+02  0.12700000000E+01 0.  1.
         -4   -1    0    0    0  501 -0.00000000000E+00 -0.00000000000E+00 -0.13161209653E+03  0.13161822386E+03  0.12700000000E+01 0.  1.
         25    2    1    2    0    0  0.00000000000E+00  0.00000000000E+00 -0.10195686980E+03  0.16130063232E+03  0.12499076241E+03 0.  0.
    9000005    1    3    3    0    0  0.34730242601E+02 -0.45199809342E+02 -0.17939099606E+02  0.59766410386E+02  0.10000000000E+01 0.  0.
    9000005    1    3    3    0    0 -0.34730242601E+02  0.45199809342E+02 -0.84017770196E+02  0.10153422194E+03  0.10000000000E+01 0.  0.
<mgrwt>
<rscale>  0 0.12499076E+03</rscale>
<asrwt>0</asrwt>
<pdfrwt beam="1">  1        4 0.45649049E-02 0.12499076E+03</pdfrwt>
<pdfrwt beam="2">  1       -4 0.20250577E-01 0.12499076E+03</pdfrwt>
<totfact> 0.97112778E+03</totfact>
</mgrwt>
</event>
<event>
 5    1  0.3422688E-002  0.1250004E+03  0.7818608E-02  0.1235069E+00
         -4   -1    0    0    0  501 -0.00000000000E+00  0.00000000000E+00  0.77255219386E+01  0.78292138317E+01  0.12700000000E+01 0.  1.
          4   -1    0    0  501    0  0.00000000000E+00 -0.00000000000E+00 -0.50215758929E+03  0.50215919526E+03  0.12700000000E+01 0.  1.
         25    2    1    2    0    0  0.00000000000E+00  0.00000000000E+00 -0.49443206735E+03  0.50998840909E+03  0.12500043272E+03 0.  0.
    9000005    1    3    3    0    0 -0.57268898245E+02 -0.21487810183E+02 -0.19499589521E+03  0.20436695388E+03  0.10000000000E+01 0.  0.
    9000005    1    3    3    0    0  0.57268898245E+02  0.21487810183E+02 -0.29943617215E+03  0.30562145521E+03  0.10000000000E+01 0.  0.
<mgrwt>
<rscale>  0 0.12500043E+03</rscale>
<asrwt>0</asrwt>
<pdfrwt beam="2">  1        4 0.77263088E-01 0.12500043E+03</pdfrwt>
<pdfrwt beam="1">  1       -4 0.11966421E-02 0.12500043E+03</pdfrwt>
<totfact> 0.55097120E+03</totfact>
</mgrwt>
</event>
<event>
 5    1  0.3422688E-002  0.1249978E+03  0.7818608E-02  0.1235073E+00
         -4   -1    0    0    0  501 -0.00000000000E+00  0.00000000000E+00  0.20543332005E+03  0.20543724562E+03  0.12700000000E+01 0.  1.
          4   -1    0    0  501    0  0.00000000000E+00 -0.00000000000E+00 -0.18988698481E+02  0.19031121092E+02  0.12700000000E+01 0.  1.
         25    2    1    2    0    0  0.00000000000E+00  0.00000000000E+00  0.18644462157E+03  0.22446836671E+03  0.12499780294E+03 0.  0.
    9000005    1    3    3    0    0  0.37478436075E+02  0.44524035996E+02  0.52347546611E+02  0.78283386412E+02  0.10000000000E+01 0.  0.
    9000005    1    3    3    0    0 -0.37478436075E+02 -0.44524035996E+02  0.13409707496E+03  0.14618498030E+03  0.10000000000E+01 0.  0.
<mgrwt>
<rscale>  0 0.12499780E+03</rscale>
<asrwt>0</asrwt>
<pdfrwt beam="2">  1        4 0.29249036E-02 0.12499780E+03</pdfrwt>
<pdfrwt beam="1">  1       -4 0.31608690E-01 0.12499780E+03</pdfrwt>
<totfact> 0.86170418E+03</totfact>
</mgrwt>
</event>
<event>
 5    1  0.3422688E-002  0.1249893E+03  0.7818608E-02  0.1235086E+00
         -4   -1    0    0    0  501 -0.00000000000E+00  0.00000000000E+00  0.11124284406E+04  0.11124291656E+04  0.12700000000E+01 0. -1.
          4   -1    0    0  501    0  0.00000000000E+00 -0.00000000000E+00 -0.33952595880E+01  0.36250086441E+01  0.12700000000E+01 0. -1.
         25    2    1    2    0    0  0.00000000000E+00  0.00000000000E+00  0.11090331810E+04  0.11160541742E+04  0.12498929210E+03 0.  0.
    9000005    1    3    3    0    0  0.10848096519E+02 -0.25541913061E+02  0.10544329119E+04  0.10547984813E+04  0.10000000000E+01 0.  0.
    9000005    1    3    3    0    0 -0.10848096519E+02  0.25541913061E+02  0.54600269149E+02  0.61255692895E+02  0.10000000000E+01 0.  0.
<mgrwt>
<rscale>  0 0.12498929E+03</rscale>
<asrwt>0</asrwt>
<pdfrwt beam="2">  1        4 0.54007690E-03 0.12498929E+03</pdfrwt>
<pdfrwt beam="1">  1       -4 0.17116041E+00 0.12498929E+03</pdfrwt>
<totfact> 0.27024566E+03</totfact>
</mgrwt>
</event>
<event>
 5    1  0.3422688E-002  0.1250015E+03  0.7818608E-02  0.1235067E+00
         -4   -1    0    0    0  501 -0.00000000000E+00  0.00000000000E+00  0.15447941633E+02  0.15500058087E+02  0.12700000000E+01 0.  1.
          4   -1    0    0  501    0  0.00000000000E+00 -0.00000000000E+00 -0.25239178930E+03  0.25239498451E+03  0.12700000000E+01 0.  1.
         25    2    1    2    0    0  0.00000000000E+00  0.00000000000E+00 -0.23694384767E+03  0.26789504260E+03  0.12500146760E+03 0.  0.
    9000005    1    3    3    0    0  0.27077656740E+02 -0.23935620592E+02 -0.92092615277E+01  0.37308496694E+02  0.10000000000E+01 0.  0.
    9000005    1    3    3    0    0 -0.27077656740E+02  0.23935620592E+02 -0.22773458614E+03  0.23058654590E+03  0.10000000000E+01 0.  0.
<mgrwt>
<rscale>  0 0.12500147E+03</rscale>
<asrwt>0</asrwt>
<pdfrwt beam="2">  1        4 0.38833758E-01 0.12500147E+03</pdfrwt>
<pdfrwt beam="1">  1       -4 0.23808613E-02 0.12500147E+03</pdfrwt>
<totfact> 0.79808109E+03</totfact>
</mgrwt>
</event>
<event>
 5    1  0.3422688E-002  0.1249972E+03  0.7818608E-02  0.1235074E+00
         -4   -1    0    0    0  501 -0.00000000000E+00  0.00000000000E+00  0.14293289472E+02  0.14349600131E+02  0.12700000000E+01 0. -1.
          4   -1    0    0  501    0  0.00000000000E+00 -0.00000000000E+00 -0.27268530016E+03  0.27268825759E+03  0.12700000000E+01 0. -1.
         25    2    1    2    0    0  0.00000000000E+00  0.00000000000E+00 -0.25839201069E+03  0.28703785772E+03  0.12499720226E+03 0.  0.
    9000005    1    3    3    0    0 -0.40708874197E+02  0.16930829839E+02 -0.27500700051E+02  0.51972626841E+02  0.10000000000E+01 0.  0.
    9000005    1    3    3    0    0  0.40708874197E+02 -0.16930829839E+02 -0.23089131064E+03  0.23506523088E+03  0.10000000000E+01 0.  0.
<mgrwt>
<rscale>  0 0.12499720E+03</rscale>
<asrwt>0</asrwt>
<pdfrwt beam="2">  1        4 0.41956140E-01 0.12499720E+03</pdfrwt>
<pdfrwt beam="1">  1       -4 0.22035269E-02 0.12499720E+03</pdfrwt>
<totfact> 0.77258900E+03</totfact>
</mgrwt>
</event>
<event>
 5    1  0.3422688E-002  0.1249982E+03  0.7818608E-02  0.1235072E+00
         -4   -1    0    0    0  501 -0.00000000000E+00  0.00000000000E+00  0.14554943159E+02  0.14610245390E+02  0.12700000000E+01 0.  1.
          4   -1    0    0  501    0  0.00000000000E+00 -0.00000000000E+00 -0.26780629990E+03  0.26780931120E+03  0.12700000000E+01 0.  1.
         25    2    1    2    0    0  0.00000000000E+00  0.00000000000E+00 -0.25325135674E+03  0.28241955659E+03  0.12499822500E+03 0.  0.
    9000005    1    3    3    0    0  0.25767307547E+02 -0.56833100128E+02 -0.13418151928E+03  0.14798525442E+03  0.10000000000E+01 0.  0.
    9000005    1    3    3    0    0 -0.25767307547E+02  0.56833100128E+02 -0.11906983746E+03  0.13443430217E+03  0.10000000000E+01 0.  0.
<mgrwt>
<rscale>  0 0.12499823E+03</rscale>
<asrwt>0</asrwt>
<pdfrwt beam="2">  1        4 0.41205451E-01 0.12499823E+03</pdfrwt>
<pdfrwt beam="1">  1       -4 0.22437079E-02 0.12499823E+03</pdfrwt>
<totfact> 0.77861453E+03</totfact>
</mgrwt>
</event>
<event>
 4    1  0.3422688E-002  0.1251252E+03  0.7818608E-02  0.1234874E+00
          4   -1    0    0  501    0  0.00000000000E+00  0.00000000000E+00  0.90377449166E+00  0.15587521714E+01  0.12700000000E+01 0.  1.
         -4   -1    0    0    0  501 -0.00000000000E+00 -0.00000000000E+00 -0.31782558982E+04  0.31782561520E+04  0.12700000000E+01 0.  1.
    9000005    1    1    2    0    0 -0.40679146219E+02 -0.47829986256E+01 -0.38714376929E+03  0.38930575145E+03  0.10000000000E+01 0.  0.
    9000005    1    1    2    0    0  0.40679146219E+02  0.47829986256E+01 -0.27902083544E+04  0.27905091527E+04  0.10000000000E+01 0.  0.
<mgrwt>
<rscale>  0 0.12512516E+03</rscale>
<asrwt>0</asrwt>
<pdfrwt beam="1">  1        4 0.18944719E-03 0.12512516E+03</pdfrwt>
<pdfrwt beam="2">  1       -4 0.48900628E+00 0.12512516E+03</pdfrwt>
<totfact> 0.12277127E+02</totfact>
</mgrwt>
</event>
<event>
 5    1  0.3422688E-002  0.1249577E+03  0.7818608E-02  0.1235135E+00
         -4   -1    0    0    0  501 -0.00000000000E+00  0.00000000000E+00  0.73781632231E+02  0.73792561648E+02  0.12700000000E+01 0.  1.
          4   -1    0    0  501    0  0.00000000000E+00 -0.00000000000E+00 -0.52885083791E+02  0.52900330695E+02  0.12700000000E+01 0.  1.
         25    2    1    2    0    0  0.00000000000E+00  0.00000000000E+00  0.20896548439E+02  0.12669289234E+03  0.12495768577E+03 0.  0.
    9000005    1    3    3    0    0 -0.16214207976E+02  0.14006014896E+02 -0.49048256539E+02  0.53533171614E+02  0.10000000000E+01 0.  0.
    9000005    1    3    3    0    0  0.16214207976E+02 -0.14006014896E+02  0.69944804979E+02  0.73159720729E+02  0.10000000000E+01 0.  0.
<mgrwt>
<rscale>  0 0.12495769E+03</rscale>
<asrwt>0</asrwt>
<pdfrwt beam="2">  1        4 0.81381803E-02 0.12495769E+03</pdfrwt>
<pdfrwt beam="1">  1       -4 0.11353034E-01 0.12495769E+03</pdfrwt>
<totfact> 0.10425780E+04</totfact>
</mgrwt>
</event>
<event>
 5    1  0.3422688E-002  0.1249981E+03  0.7818608E-02  0.1235072E+00
         -4   -1    0    0    0  501 -0.00000000000E+00  0.00000000000E+00  0.75013971349E+02  0.75024721242E+02  0.12700000000E+01 0.  1.
          4   -1    0    0  501    0  0.00000000000E+00 -0.00000000000E+00 -0.52049795887E+02  0.52065287399E+02  0.12700000000E+01 0.  1.
         25    2    1    2    0    0  0.00000000000E+00  0.00000000000E+00  0.22964175462E+02  0.12709000864E+03  0.12499806775E+03 0.  0.
    9000005    1    3    3    0    0 -0.13719621366E+02  0.57927190324E+02  0.30809212003E+02  0.67037265260E+02  0.10000000000E+01 0.  0.
    9000005    1    3    3    0    0  0.13719621366E+02 -0.57927190324E+02 -0.78450365414E+01  0.60052743381E+02  0.10000000000E+01 0.  0.
<mgrwt>
<rscale>  0 0.12499807E+03</rscale>
<asrwt>0</asrwt>
<pdfrwt beam="2">  1        4 0.80096795E-02 0.12499807E+03</pdfrwt>
<pdfrwt beam="1">  1       -4 0.11542629E-01 0.12499807E+03</pdfrwt>
<totfact> 0.10407645E+04</totfact>
</mgrwt>
</event>
<event>
 5    1  0.3422688E-002  0.1249994E+03  0.7818608E-02  0.1235070E+00
          4   -1    0    0  501    0  0.00000000000E+00  0.00000000000E+00  0.21567009115E+02  0.21604369515E+02  0.12700000000E+01 0.  1.
         -4   -1    0    0    0  501 -0.00000000000E+00 -0.00000000000E+00 -0.18092340734E+03  0.18092786470E+03  0.12700000000E+01 0.  1.
         25    2    1    2    0    0  0.00000000000E+00  0.00000000000E+00 -0.15935639823E+03  0.20253223421E+03  0.12499937696E+03 0.  0.
    9000005    1    3    3    0    0 -0.37924614801E+02  0.43995602303E+02 -0.42330396620E+02  0.71880121785E+02  0.10000000000E+01 0.  0.
    9000005    1    3    3    0    0  0.37924614801E+02 -0.43995602303E+02 -0.11702600161E+03  0.13065211243E+03  0.10000000000E+01 0.  0.
<mgrwt>
<rscale>  0 0.12499938E+03</rscale>
<asrwt>0</asrwt>
<pdfrwt beam="1">  1        4 0.33212183E-02 0.12499938E+03</pdfrwt>
<pdfrwt beam="2">  1       -4 0.27837586E-01 0.12499938E+03</pdfrwt>
<totfact> 0.89711426E+03</totfact>
</mgrwt>
</event>
<event>
 5    1  0.3422688E-002  0.1250006E+03  0.7818608E-02  0.1235068E+00
          4   -1    0    0  501    0  0.00000000000E+00  0.00000000000E+00  0.37427876208E+02  0.37449416784E+02  0.12700000000E+01 0. -1.
         -4   -1    0    0    0  501 -0.00000000000E+00 -0.00000000000E+00 -0.10431296479E+03  0.10432069557E+03  0.12700000000E+01 0. -1.
         25    2    1    2    0    0  0.00000000000E+00  0.00000000000E+00 -0.66885088583E+02  0.14177011235E+03  0.12500059872E+03 0.  0.
    9000005    1    3    3    0    0  0.56859630466E+02 -0.23326073623E+02 -0.46282272837E+02  0.76942654402E+02  0.10000000000E+01 0.  0.
    9000005    1    3    3    0    0 -0.56859630466E+02  0.23326073623E+02 -0.20602815746E+02  0.64827457949E+02  0.10000000000E+01 0.  0.
<mgrwt>
<rscale>  0 0.12500060E+03</rscale>
<asrwt>0</asrwt>
<pdfrwt beam="1">  1        4 0.57603865E-02 0.12500060E+03</pdfrwt>
<pdfrwt beam="2">  1       -4 0.16050400E-01 0.12500060E+03</pdfrwt>
<totfact> 0.10096894E+04</totfact>
</mgrwt>
</event>
<event>
 5    1  0.3422688E-002  0.1250180E+03  0.7818608E-02  0.1235041E+00
         -4   -1    0    0    0  501 -0.00000000000E+00  0.00000000000E+00  0.18073174644E+02  0.18117741077E+02  0.12700000000E+01 0.  1.
          4   -1    0    0  501    0  0.00000000000E+00 -0.00000000000E+00 -0.21588499489E+03  0.21588873041E+03  0.12700000000E+01 0.  1.
         25    2    1    2    0    0  0.00000000000E+00  0.00000000000E+00 -0.19781182024E+03  0.23400647149E+03  0.12501804857E+03 0.  0.
    9000005    1    3    3    0    0  0.55328016073E+02 -0.21756873185E+02 -0.13499913974E+03  0.14751379130E+03  0.10000000000E+01 0.  0.
    9000005    1    3    3    0    0 -0.55328016073E+02  0.21756873185E+02 -0.62812680499E+02  0.86492680181E+02  0.10000000000E+01 0.  0.
<mgrwt>
<rscale>  0 0.12501805E+03</rscale>
<asrwt>0</asrwt>
<pdfrwt beam="2">  1        4 0.33216790E-01 0.12501805E+03</pdfrwt>
<pdfrwt beam="1">  1       -4 0.27842041E-02 0.12501805E+03</pdfrwt>
<totfact> 0.84664086E+03</totfact>
</mgrwt>
</event>
<event>
 5    1  0.3422688E-002  0.1250006E+03  0.7818608E-02  0.1235068E+00
          4   -1    0    0  501    0  0.00000000000E+00  0.00000000000E+00  0.24920250189E+03  0.24920573799E+03  0.12700000000E+01 0.  1.
         -4   -1    0    0    0  501 -0.00000000000E+00 -0.00000000000E+00 -0.15646094278E+02  0.15697552871E+02  0.12700000000E+01 0.  1.
         25    2    1    2    0    0  0.00000000000E+00  0.00000000000E+00  0.23355640761E+03  0.26490329086E+03  0.12500063189E+03 0.  0.
    9000005    1    3    3    0    0 -0.43421262409E+02  0.44560592563E+02  0.10437815650E+03  0.12151893676E+03  0.10000000000E+01 0.  0.
    9000005    1    3    3    0    0  0.43421262409E+02 -0.44560592563E+02  0.12917825111E+03  0.14338435410E+03  0.10000000000E+01 0.  0.
<mgrwt>
<rscale>  0 0.12500063E+03</rscale>
<asrwt>0</asrwt>
<pdfrwt beam="1">  1        4 0.38343053E-01 0.12500063E+03</pdfrwt>
<pdfrwt beam="2">  1       -4 0.24112987E-02 0.12500063E+03</pdfrwt>
<totfact> 0.80221711E+03</totfact>
</mgrwt>
</event>
<event>
 5    1  0.3422688E-002  0.1249920E+03  0.7818608E-02  0.1235082E+00
         -4   -1    0    0    0  501 -0.00000000000E+00  0.00000000000E+00  0.11171710975E+03  0.11172432819E+03  0.12700000000E+01 0.  1.
          4   -1    0    0  501    0  0.00000000000E+00 -0.00000000000E+00 -0.34941179621E+02  0.34964252220E+02  0.12700000000E+01 0.  1.
         25    2    1    2    0    0  0.00000000000E+00  0.00000000000E+00  0.76775930128E+02  0.14668858041E+03  0.12499198445E+03 0.  0.
    9000005    1    3    3    0    0  0.57611023380E+02  0.20562852052E+02  0.23409790735E+02  0.65504802890E+02  0.10000000000E+01 0.  0.
    9000005    1    3    3    0    0 -0.57611023380E+02 -0.20562852052E+02  0.53366139393E+02  0.81183777524E+02  0.10000000000E+01 0.  0.
<mgrwt>
<rscale>  0 0.12499198E+03</rscale>
<asrwt>0</asrwt>
<pdfrwt beam="2">  1        4 0.53778961E-02 0.12499198E+03</pdfrwt>
<pdfrwt beam="1">  1       -4 0.17189578E-01 0.12499198E+03</pdfrwt>
<totfact> 0.99985966E+03</totfact>
</mgrwt>
</event>
<event>
 5    1  0.3422688E-002  0.1249997E+03  0.7818608E-02  0.1235070E+00
          4   -1    0    0  501    0  0.00000000000E+00  0.00000000000E+00  0.48728280660E+02  0.48744827788E+02  0.12700000000E+01 0. -1.
         -4   -1    0    0    0  501 -0.00000000000E+00 -0.00000000000E+00 -0.80128335915E+02  0.80138399762E+02  0.12700000000E+01 0. -1.
         25    2    1    2    0    0  0.00000000000E+00  0.00000000000E+00 -0.31400055255E+02  0.12888322755E+03  0.12499969149E+03 0.  0.
    9000005    1    3    3    0    0 -0.12701091606E+02 -0.58425875721E+02  0.30396232220E+01  0.59876038538E+02  0.10000000000E+01 0.  0.
    9000005    1    3    3    0    0  0.12701091606E+02  0.58425875721E+02 -0.34439678477E+02  0.69007189012E+02  0.10000000000E+01 0.  0.
<mgrwt>
<rscale>  0 0.12499969E+03</rscale>
<asrwt>0</asrwt>
<pdfrwt beam="1">  1        4 0.74987056E-02 0.12499969E+03</pdfrwt>
<pdfrwt beam="2">  1       -4 0.12329483E-01 0.12499969E+03</pdfrwt>
<totfact> 0.10368529E+04</totfact>
</mgrwt>
</event>
<event>
 5    1  0.3422688E-002  0.1250040E+03  0.7818608E-02  0.1235063E+00
          4   -1    0    0  501    0  0.00000000000E+00  0.00000000000E+00  0.53620989260E+03  0.53621139658E+03  0.12700000000E+01 0.  1.
         -4   -1    0    0    0  501 -0.00000000000E+00 -0.00000000000E+00 -0.72285171700E+01  0.73392343250E+01  0.12700000000E+01 0.  1.
         25    2    1    2    0    0  0.00000000000E+00  0.00000000000E+00  0.52898137543E+03  0.54355063090E+03  0.12500397116E+03 0.  0.
    9000005    1    3    3    0    0 -0.76242818178E+01  0.52888628481E+02  0.12357990036E+03  0.13464148124E+03  0.10000000000E+01 0.  0.
    9000005    1    3    3    0    0  0.76242818178E+01 -0.52888628481E+02  0.40540147507E+03  0.40890914967E+03  0.10000000000E+01 0.  0.
<mgrwt>
<rscale>  0 0.12500397E+03</rscale>
<asrwt>0</asrwt>
<pdfrwt beam="1">  1        4 0.82502443E-01 0.12500397E+03</pdfrwt>
<pdfrwt beam="2">  1       -4 0.11207122E-02 0.12500397E+03</pdfrwt>
<totfact> 0.52632339E+03</totfact>
</mgrwt>
</event>
<event>
 5    1  0.3422688E-002  0.1249956E+03  0.7818608E-02  0.1235076E+00
          4   -1    0    0  501    0  0.00000000000E+00  0.00000000000E+00  0.46616801012E+01  0.48315795932E+01  0.12700000000E+01 0.  1.
         -4   -1    0    0    0  501 -0.00000000000E+00 -0.00000000000E+00 -0.82272347017E+03  0.82272445039E+03  0.12700000000E+01 0.  1.
         25    2    1    2    0    0  0.00000000000E+00  0.00000000000E+00 -0.81806179007E+03  0.82755602999E+03  0.12499556148E+03 0.  0.
    9000005    1    3    3    0    0  0.42923779653E+02 -0.42949323252E+02 -0.31130517522E+03  0.31717346571E+03  0.10000000000E+01 0.  0.
    9000005    1    3    3    0    0 -0.42923779653E+02  0.42949323252E+02 -0.50675661485E+03  0.51038256428E+03  0.10000000000E+01 0.  0.
<mgrwt>
<rscale>  0 0.12499556E+03</rscale>
<asrwt>0</asrwt>
<pdfrwt beam="1">  1        4 0.73032680E-03 0.12499556E+03</pdfrwt>
<pdfrwt beam="2">  1       -4 0.12658587E+00 0.12499556E+03</pdfrwt>
<totfact> 0.37067373E+03</totfact>
</mgrwt>
</event>
<event>
 5    1  0.3422688E-002  0.1250007E+03  0.7818608E-02  0.1235068E+00
         -4   -1    0    0    0  501 -0.00000000000E+00  0.00000000000E+00  0.30826204784E+03  0.30826466395E+03  0.12700000000E+01 0. -1.
          4   -1    0    0  501    0  0.00000000000E+00 -0.00000000000E+00 -0.12637503792E+02  0.12701157510E+02  0.12700000000E+01 0. -1.
         25    2    1    2    0    0  0.00000000000E+00  0.00000000000E+00  0.29562454405E+03  0.32096582146E+03  0.12500075000E+03 0.  0.
    9000005    1    3    3    0    0 -0.15501850523E+02 -0.12556835982E+02 -0.42542380999E+01  0.20422537583E+02  0.10000000000E+01 0.  0.
    9000005    1    3    3    0    0  0.15501850523E+02  0.12556835982E+02  0.29987878215E+03  0.30054328387E+03  0.10000000000E+01 0.  0.
<mgrwt>
<rscale>  0 0.12500075E+03</rscale>
<asrwt>0</asrwt>
<pdfrwt beam="2">  1        4 0.19493292E-02 0.12500075E+03</pdfrwt>
<pdfrwt beam="1">  1       -4 0.47430023E-01 0.12500075E+03</pdfrwt>
<totfact> 0.73040188E+03</totfact>
</mgrwt>
</event>
<event>
 5    1  0.3422688E-002  0.1250012E+03  0.7818608E-02  0.1235067E+00
         -4   -1    0    0    0  501 -0.00000000000E+00  0.00000000000E+00  0.21311513970E+02  0.21349321481E+02  0.12700000000E+01 0.  1.
          4   -1    0    0  501    0  0.00000000000E+00 -0.00000000000E+00 -0.18309414407E+03  0.18309854859E+03  0.12700000000E+01 0.  1.
         25    2    1    2    0    0  0.00000000000E+00  0.00000000000E+00 -0.16178263010E+03  0.20444787007E+03  0.12500124868E+03 0.  0.
    9000005    1    3    3    0    0  0.53275785324E+02  0.31075693837E+02 -0.97354574243E+02  0.11525155607E+03  0.10000000000E+01 0.  0.
    9000005    1    3    3    0    0 -0.53275785324E+02 -0.31075693837E+02 -0.64428055861E+02  0.89196314001E+02  0.10000000000E+01 0.  0.
<mgrwt>
<rscale>  0 0.12500125E+03</rscale>
<asrwt>0</asrwt>
<pdfrwt beam="2">  1        4 0.28171576E-01 0.12500125E+03</pdfrwt>
<pdfrwt beam="1">  1       -4 0.32819416E-02 0.12500125E+03</pdfrwt>
<totfact> 0.89388224E+03</totfact>
</mgrwt>
</event>
<event>
 5    1  0.3422688E-002  0.1250012E+03  0.7818608E-02  0.1235067E+00
         -4   -1    0    0    0  501 -0.00000000000E+00  0.00000000000E+00  0.22201031111E+03  0.22201394357E+03  0.12700000000E+01 0. -1.
          4   -1    0    0  501    0  0.00000000000E+00 -0.00000000000E+00 -0.17568555643E+02  0.17614398865E+02  0.12700000000E+01 0. -1.
         25    2    1    2    0    0  0.00000000000E+00  0.00000000000E+00  0.20444175547E+03  0.23962834244E+03  0.12500124447E+03 0.  0.
    9000005    1    3    3    0    0  0.46328666305E+02  0.19655689395E+02  0.17324429952E+03  0.18040864381E+03  0.10000000000E+01 0.  0.
    9000005    1    3    3    0    0 -0.46328666305E+02 -0.19655689395E+02  0.31197455953E+02  0.59219698624E+02  0.10000000000E+01 0.  0.
<mgrwt>
<rscale>  0 0.12500124E+03</rscale>
<asrwt>0</asrwt>
<pdfrwt beam="2">  1        4 0.27066606E-02 0.12500124E+03</pdfrwt>
<pdfrwt beam="1">  1       -4 0.34159238E-01 0.12500124E+03</pdfrwt>
<totfact> 0.83850423E+03</totfact>
</mgrwt>
</event>
<event>
 5    1  0.3422688E-002  0.1250000E+03  0.7818608E-02  0.1235069E+00
          4   -1    0    0  501    0  0.00000000000E+00  0.00000000000E+00  0.12777320766E+02  0.12840281382E+02  0.12700000000E+01 0.  1.
         -4   -1    0    0    0  501 -0.00000000000E+00 -0.00000000000E+00 -0.30490175685E+03  0.30490440179E+03  0.12700000000E+01 0.  1.
         25    2    1    2    0    0  0.00000000000E+00  0.00000000000E+00 -0.29212443608E+03  0.31774468317E+03  0.12499999010E+03 0.  0.
    9000005    1    3    3    0    0  0.59587872065E+01 -0.56602465034E+02 -0.80466746130E+02  0.98565934407E+02  0.10000000000E+01 0.  0.
    9000005    1    3    3    0    0 -0.59587872065E+01  0.56602465034E+02 -0.21165768995E+03  0.21917874876E+03  0.10000000000E+01 0.  0.
<mgrwt>
<rscale>  0 0.12499999E+03</rscale>
<asrwt>0</asrwt>
<pdfrwt beam="1">  1        4 0.19707885E-02 0.12499999E+03</pdfrwt>
<pdfrwt beam="2">  1       -4 0.46913003E-01 0.12499999E+03</pdfrwt>
<totfact> 0.73425189E+03</totfact>
</mgrwt>
</event>
<event>
 5    1  0.3422688E-002  0.1250006E+03  0.7818608E-02  0.1235068E+00
         -4   -1    0    0    0  501 -0.00000000000E+00  0.00000000000E+00  0.11298230607E+02  0.11369384982E+02  0.12700000000E+01 0.  1.
          4   -1    0    0  501    0  0.00000000000E+00 -0.00000000000E+00 -0.34458564031E+03  0.34458798065E+03  0.12700000000E+01 0.  1.
         25    2    1    2    0    0  0.00000000000E+00  0.00000000000E+00 -0.33328740970E+03  0.35595736563E+03  0.12500059472E+03 0.  0.
    9000005    1    3    3    0    0  0.33008685211E+02 -0.42291750701E+02 -0.75380260441E+02  0.92527558819E+02  0.10000000000E+01 0.  0.
    9000005    1    3    3    0    0 -0.33008685211E+02  0.42291750701E+02 -0.25790714926E+03  0.26342980681E+03  0.10000000000E+01 0.  0.
<mgrwt>
<rscale>  0 0.12500059E+03</rscale>
<asrwt>0</asrwt>
<pdfrwt beam="2">  1        4 0.53018821E-01 0.12500059E+03</pdfrwt>
<pdfrwt beam="1">  1       -4 0.17438430E-02 0.12500059E+03</pdfrwt>
<totfact> 0.69073202E+03</totfact>
</mgrwt>
</event>
<event>
 5    1  0.3422688E-002  0.1249990E+03  0.7818608E-02  0.1235071E+00
         -4   -1    0    0    0  501 -0.00000000000E+00  0.00000000000E+00  0.33150454596E+03  0.33150697865E+03  0.12700000000E+01 0.  1.
          4   -1    0    0  501    0  0.00000000000E+00 -0.00000000000E+00 -0.11746503345E+02  0.11814958351E+02  0.12700000000E+01 0.  1.
         25    2    1    2    0    0  0.00000000000E+00  0.00000000000E+00  0.31975804262E+03  0.34332193700E+03  0.12499898643E+03 0.  0.
    9000005    1    3    3    0    0 -0.25991852473E+02 -0.31160591699E+02  0.29041114252E+03  0.29323402014E+03  0.10000000000E+01 0.  0.
    9000005    1    3    3    0    0  0.25991852473E+02  0.31160591699E+02  0.29346900102E+02  0.50087916862E+02  0.10000000000E+01 0.  0.
<mgrwt>
<rscale>  0 0.12499899E+03</rscale>
<asrwt>0</asrwt>
<pdfrwt beam="2">  1        4 0.18126076E-02 0.12499899E+03</pdfrwt>
<pdfrwt beam="1">  1       -4 0.51006143E-01 0.12499899E+03</pdfrwt>
<totfact> 0.70467112E+03</totfact>
</mgrwt>
</event>
<event>
 5    1  0.3422688E-002  0.1250007E+03  0.7818608E-02  0.1235068E+00
          4   -1    0    0  501    0  0.00000000000E+00  0.00000000000E+00  0.44867563535E+02  0.44885533945E+02  0.12700000000E+01 0. -1.
         -4   -1    0    0    0  501 -0.00000000000E+00 -0.00000000000E+00 -0.87022778273E+02  0.87032044894E+02  0.12700000000E+01 0. -1.
         25    2    1    2    0    0  0.00000000000E+00  0.00000000000E+00 -0.42155214738E+02  0.13191757884E+03  0.12500074191E+03 0.  0.
    9000005    1    3    3    0    0 -0.73054349378E+01  0.17668514001E+02  0.41710358480E+02  0.45894441615E+02  0.10000000000E+01 0.  0.
    9000005    1    3    3    0    0  0.73054349378E+01 -0.17668514001E+02 -0.83865573218E+02  0.86023137224E+02  0.10000000000E+01 0.  0.
<mgrwt>
<rscale>  0 0.12500074E+03</rscale>
<asrwt>0</asrwt>
<pdfrwt beam="1">  1        4 0.69047973E-02 0.12500074E+03</pdfrwt>
<pdfrwt beam="2">  1       -4 0.13390215E-01 0.12500074E+03</pdfrwt>
<totfact> 0.10303285E+04</totfact>
</mgrwt>
</event>
<event>
 5    1  0.3422688E-002  0.1250044E+03  0.7818608E-02  0.1235062E+00
          4   -1    0    0  501    0  0.00000000000E+00  0.00000000000E+00  0.17870275885E+02  0.17915347058E+02  0.12700000000E+01 0. -1.
         -4   -1    0    0    0  501 -0.00000000000E+00 -0.00000000000E+00 -0.21828226569E+03  0.21828596019E+03  0.12700000000E+01 0. -1.
         25    2    1    2    0    0  0.00000000000E+00  0.00000000000E+00 -0.20041198981E+03  0.23620130725E+03  0.12500436747E+03 0.  0.
    9000005    1    3    3    0    0 -0.42691198866E+02 -0.33715349981E+02 -0.15833090299E+03  0.16741845217E+03  0.10000000000E+01 0.  0.
    9000005    1    3    3    0    0  0.42691198866E+02  0.33715349981E+02 -0.42081086817E+02  0.68782855078E+02  0.10000000000E+01 0.  0.
<mgrwt>
<rscale>  0 0.12500437E+03</rscale>
<asrwt>0</asrwt>
<pdfrwt beam="1">  1        4 0.27530246E-02 0.12500437E+03</pdfrwt>
<pdfrwt beam="2">  1       -4 0.33585636E-01 0.12500437E+03</pdfrwt>
<totfact> 0.84358172E+03</totfact>
</mgrwt>
</event>
<event>
 5    1  0.3422688E-002  0.1249995E+03  0.7818608E-02  0.1235070E+00
          4   -1    0    0  501    0  0.00000000000E+00  0.00000000000E+00  0.73527273125E+03  0.73527382805E+03  0.12700000000E+01 0.  1.
         -4   -1    0    0    0  501 -0.00000000000E+00 -0.00000000000E+00 -0.52355954364E+01  0.53874260620E+01  0.12700000000E+01 0.  1.
         25    2    1    2    0    0  0.00000000000E+00  0.00000000000E+00  0.73003713581E+03  0.74066125411E+03  0.12499949472E+03 0.  0.
    9000005    1    3    3    0    0 -0.45889769235E+02 -0.40557357594E+02  0.43865671585E+03  0.44291250212E+03  0.10000000000E+01 0.  0.
    9000005    1    3    3    0    0  0.45889769235E+02  0.40557357594E+02  0.29138041996E+03  0.29774875199E+03  0.10000000000E+01 0.  0.
<mgrwt>
<rscale>  0 0.12499949E+03</rscale>
<asrwt>0</asrwt>
<pdfrwt beam="1">  1        4 0.11313062E+00 0.12499949E+03</pdfrwt>
<pdfrwt beam="2">  1       -4 0.81724003E-03 0.12499949E+03</pdfrwt>
<totfact> 0.41025301E+03</totfact>
</mgrwt>
</event>
<event>
 5    1  0.3422688E-002  0.1249959E+03  0.7818608E-02  0.1235076E+00
          4   -1    0    0  501    0  0.00000000000E+00  0.00000000000E+00  0.65117543326E+02  0.65129926676E+02  0.12700000000E+01 0.  1.
         -4   -1    0    0    0  501 -0.00000000000E+00 -0.00000000000E+00 -0.59958923205E+02  0.59972371738E+02  0.12700000000E+01 0.  1.
         25    2    1    2    0    0  0.00000000000E+00  0.00000000000E+00  0.51586201210E+01  0.12510229841E+03  0.12499589476E+03 0.  0.
    9000005    1    3    3    0    0  0.49282594863E+01  0.40578398464E+02  0.49885805051E+02  0.64501842680E+02  0.10000000000E+01 0.  0.
    9000005    1    3    3    0    0 -0.49282594863E+01 -0.40578398464E+02 -0.44727184930E+02  0.60600455735E+02  0.10000000000E+01 0.  0.
<mgrwt>
<rscale>  0 0.12499589E+03</rscale>
<asrwt>0</asrwt>
<pdfrwt beam="1">  1        4 0.10020071E-01 0.12499589E+03</pdfrwt>
<pdfrwt beam="2">  1       -4 0.92264368E-02 0.12499589E+03</pdfrwt>
<totfact> 0.10451611E+04</totfact>
</mgrwt>
</event>
<event>
 5    1  0.3422688E-002  0.1250010E+03  0.7818608E-02  0.1235068E+00
          4   -1    0    0  501    0  0.00000000000E+00  0.00000000000E+00  0.81068958396E+02  0.81078905490E+02  0.12700000000E+01 0. -1.
         -4   -1    0    0    0  501 -0.00000000000E+00 -0.00000000000E+00 -0.48163808850E+02  0.48180549841E+02  0.12700000000E+01 0. -1.
         25    2    1    2    0    0  0.00000000000E+00  0.00000000000E+00  0.32905149546E+02  0.12925945533E+03  0.12500103170E+03 0.  0.
    9000005    1    3    3    0    0  0.64680903609E+01 -0.59802535047E+02 -0.10697553912E+01  0.60169126366E+02  0.10000000000E+01 0.  0.
    9000005    1    3    3    0    0 -0.64680903609E+01  0.59802535047E+02  0.33974904937E+02  0.69090328965E+02  0.10000000000E+01 0.  0.
<mgrwt>
<rscale>  0 0.12500103E+03</rscale>
<asrwt>0</asrwt>
<pdfrwt beam="1">  1        4 0.12474200E-01 0.12500103E+03</pdfrwt>
<pdfrwt beam="2">  1       -4 0.74118697E-02 0.12500103E+03</pdfrwt>
<totfact> 0.10360134E+04</totfact>
</mgrwt>
</event>
<event>
 5    1  0.3422688E-002  0.1249987E+03  0.7818608E-02  0.1235071E+00
          4   -1    0    0  501    0  0.00000000000E+00  0.00000000000E+00  0.28833396086E+01  0.31506423629E+01  0.12700000000E+01 0. -1.
         -4   -1    0    0    0  501 -0.00000000000E+00 -0.00000000000E+00 -0.12944566562E+04  0.12944572792E+04  0.12700000000E+01 0. -1.
         25    2    1    2    0    0  0.00000000000E+00  0.00000000000E+00 -0.12915733166E+04  0.12976079215E+04  0.12499874391E+03 0.  0.
    9000005    1    3    3    0    0 -0.65495212487E+01  0.46525832755E+02 -0.10735054745E+04  0.10745336444E+04  0.10000000000E+01 0.  0.
    9000005    1    3    3    0    0  0.65495212487E+01 -0.46525832755E+02 -0.21806784212E+03  0.22307427711E+03  0.10000000000E+01 0.  0.
<mgrwt>
<rscale>  0 0.12499874E+03</rscale>
<asrwt>0</asrwt>
<pdfrwt beam="1">  1        4 0.46420142E-03 0.12499874E+03</pdfrwt>
<pdfrwt beam="2">  1       -4 0.19916734E+00 0.12499874E+03</pdfrwt>
<totfact> 0.22285720E+03</totfact>
</mgrwt>
</event>
<event>
 4    1  0.3422688E-002  0.1255798E+03  0.7818608E-02  0.1234166E+00
          4   -1    0    0  501    0  0.00000000000E+00  0.00000000000E+00  0.15902803298E+03  0.15903310402E+03  0.12700000000E+01 0.  1.
         -4   -1    0    0    0  501 -0.00000000000E+00 -0.00000000000E+00 -0.24769953103E+02  0.24802489326E+02  0.12700000000E+01 0.  1.
    9000005    1    1    2    0    0 -0.24964494963E+02  0.52224686462E+02  0.31543174293E+02  0.65928868709E+02  0.10000000000E+01 0.  0.
    9000005    1    1    2    0    0  0.24964494963E+02 -0.52224686462E+02  0.10271490558E+03  0.11790672463E+03  0.10000000000E+01 0.  0.
<mgrwt>
<rscale>  0 0.12557983E+03</rscale>
<asrwt>0</asrwt>
<pdfrwt beam="1">  1        4 0.24468745E-01 0.12557983E+03</pdfrwt>
<pdfrwt beam="2">  1       -4 0.38136548E-02 0.12557983E+03</pdfrwt>
<totfact> 0.91733627E+03</totfact>
</mgrwt>
</event>
<event>
 5    1  0.3422688E-002  0.1249981E+03  0.7818608E-02  0.1235072E+00
          4   -1    0    0  501    0  0.00000000000E+00  0.00000000000E+00  0.64641865584E+03  0.64641990341E+03  0.12700000000E+01 0.  1.
         -4   -1    0    0    0  501 -0.00000000000E+00 -0.00000000000E+00 -0.59747285691E+01  0.61082142623E+01  0.12700000000E+01 0.  1.
         25    2    1    2    0    0  0.00000000000E+00  0.00000000000E+00  0.64044392727E+03  0.65252811767E+03  0.12499808146E+03 0.  0.
    9000005    1    3    3    0    0  0.23546447935E+02 -0.52625226025E+02  0.44608225939E+03  0.44979354350E+03  0.10000000000E+01 0.  0.
    9000005    1    3    3    0    0 -0.23546447935E+02  0.52625226025E+02  0.19436166788E+03  0.20273457417E+03  0.10000000000E+01 0.  0.
<mgrwt>
<rscale>  0 0.12499808E+03</rscale>
<asrwt>0</asrwt>
<pdfrwt beam="1">  1        4 0.99459390E-01 0.12499808E+03</pdfrwt>
<pdfrwt beam="2">  1       -4 0.92955309E-03 0.12499808E+03</pdfrwt>
<totfact> 0.45713035E+03</totfact>
</mgrwt>
</event>
<event>
 5    1  0.3422688E-002  0.1249983E+03  0.7818608E-02  0.1235072E+00
          4   -1    0    0  501    0  0.00000000000E+00  0.00000000000E+00  0.14230102238E+03  0.14230668948E+03  0.12700000000E+01 0. -1.
         -4   -1    0    0    0  501 -0.00000000000E+00 -0.00000000000E+00 -0.27428936363E+02  0.27458322054E+02  0.12700000000E+01 0. -1.
         25    2    1    2    0    0  0.00000000000E+00  0.00000000000E+00  0.11487208602E+03  0.16976501153E+03  0.12499825197E+03 0.  0.
    9000005    1    3    3    0    0  0.42799751178E+02  0.39779222033E+02  0.27343666635E+02  0.64520394540E+02  0.10000000000E+01 0.  0.
    9000005    1    3    3    0    0 -0.42799751178E+02 -0.39779222033E+02  0.87528419381E+02  0.10524461699E+03  0.10000000000E+01 0.  0.
<mgrwt>
<rscale>  0 0.12499825E+03</rscale>
<asrwt>0</asrwt>
<pdfrwt beam="1">  1        4 0.21895161E-01 0.12499825E+03</pdfrwt>
<pdfrwt beam="2">  1       -4 0.42225328E-02 0.12499825E+03</pdfrwt>
<totfact> 0.95496200E+03</totfact>
</mgrwt>
</event>
<event>
 5    1  0.3422688E-002  0.1249950E+03  0.7818608E-02  0.1235077E+00
          4   -1    0    0  501    0  0.00000000000E+00  0.00000000000E+00  0.64954456972E+02  0.64966871408E+02  0.12700000000E+01 0. -1.
         -4   -1    0    0    0  501 -0.00000000000E+00 -0.00000000000E+00 -0.60108655227E+02  0.60122070268E+02  0.12700000000E+01 0. -1.
         25    2    1    2    0    0  0.00000000000E+00  0.00000000000E+00  0.48458017442E+01  0.12508894168E+03  0.12499504604E+03 0.  0.
    9000005    1    3    3    0    0  0.52660992499E+02 -0.31968201600E+02  0.12909051501E+02  0.62950692254E+02  0.10000000000E+01 0.  0.
    9000005    1    3    3    0    0 -0.52660992499E+02  0.31968201600E+02 -0.80632497569E+01  0.62138249422E+02  0.10000000000E+01 0.  0.
<mgrwt>
<rscale>  0 0.12499505E+03</rscale>
<asrwt>0</asrwt>
<pdfrwt beam="1">  1        4 0.99949802E-02 0.12499505E+03</pdfrwt>
<pdfrwt beam="2">  1       -4 0.92494723E-02 0.12499505E+03</pdfrwt>
<totfact> 0.10452101E+04</totfact>
</mgrwt>
</event>
<event>
 5    1  0.3422688E-002  0.1250088E+03  0.7818608E-02  0.1235056E+00
         -4   -1    0    0    0  501 -0.00000000000E+00  0.00000000000E+00  0.61923644555E+02  0.61936666483E+02  0.12700000000E+01 0. -1.
          4   -1    0    0  501    0  0.00000000000E+00 -0.00000000000E+00 -0.63064519663E+02  0.63077306065E+02  0.12700000000E+01 0. -1.
         25    2    1    2    0    0  0.00000000000E+00  0.00000000000E+00 -0.11408751082E+01  0.12501397255E+03  0.12500876664E+03 0.  0.
    9000005    1    3    3    0    0  0.22255168466E+02  0.56805283174E+01  0.57554586175E+02  0.61976538426E+02  0.10000000000E+01 0.  0.
    9000005    1    3    3    0    0 -0.22255168466E+02 -0.56805283174E+01 -0.58695461283E+02  0.63037434122E+02  0.10000000000E+01 0.  0.
<mgrwt>
<rscale>  0 0.12500877E+03</rscale>
<asrwt>0</asrwt>
<pdfrwt beam="2">  1        4 0.97042191E-02 0.12500877E+03</pdfrwt>
<pdfrwt beam="1">  1       -4 0.95286997E-02 0.12500877E+03</pdfrwt>
<totfact> 0.10450488E+04</totfact>
</mgrwt>
</event>
<event>
 5    1  0.3422688E-002  0.1250018E+03  0.7818608E-02  0.1235066E+00
         -4   -1    0    0    0  501 -0.00000000000E+00  0.00000000000E+00  0.34604523071E+03  0.34604756117E+03  0.12700000000E+01 0. -1.
          4   -1    0    0  501    0  0.00000000000E+00 -0.00000000000E+00 -0.11250493871E+02  0.11321948258E+02  0.12700000000E+01 0. -1.
         25    2    1    2    0    0  0.00000000000E+00  0.00000000000E+00  0.33479473683E+03  0.35736950943E+03  0.12500180182E+03 0.  0.
    9000005    1    3    3    0    0  0.32268935137E+02 -0.50328908249E+02  0.11537773048E+03  0.12995115956E+03  0.10000000000E+01 0.  0.
    9000005    1    3    3    0    0 -0.32268935137E+02  0.50328908249E+02  0.21941700635E+03  0.22741834987E+03  0.10000000000E+01 0.  0.
<mgrwt>
<rscale>  0 0.12500180E+03</rscale>
<asrwt>0</asrwt>
<pdfrwt beam="2">  1        4 0.17365209E-02 0.12500180E+03</pdfrwt>
<pdfrwt beam="1">  1       -4 0.53243404E-01 0.12500180E+03</pdfrwt>
<totfact> 0.68918607E+03</totfact>
</mgrwt>
</event>
<event>
 5    1  0.3422688E-002  0.1250170E+03  0.7818608E-02  0.1235043E+00
         -4   -1    0    0    0  501 -0.00000000000E+00  0.00000000000E+00  0.15123219100E+02  0.15176450703E+02  0.12700000000E+01 0. -1.
          4   -1    0    0  501    0  0.00000000000E+00 -0.00000000000E+00 -0.25785654158E+03  0.25785966907E+03  0.12700000000E+01 0. -1.
         25    2    1    2    0    0  0.00000000000E+00  0.00000000000E+00 -0.24273332248E+03  0.27303611978E+03  0.12501702628E+03 0.  0.
    9000005    1    3    3    0    0  0.47713935785E+02 -0.39407420341E+02 -0.10223337899E+03  0.11950827681E+03  0.10000000000E+01 0.  0.
    9000005    1    3    3    0    0 -0.47713935785E+02  0.39407420341E+02 -0.14049994348E+03  0.15352784296E+03  0.10000000000E+01 0.  0.
<mgrwt>
<rscale>  0 0.12501703E+03</rscale>
<asrwt>0</asrwt>
<pdfrwt beam="2">  1        4 0.39674569E-01 0.12501703E+03</pdfrwt>
<pdfrwt beam="1">  1       -4 0.23309846E-02 0.12501703E+03</pdfrwt>
<totfact> 0.79080673E+03</totfact>
</mgrwt>
</event>
<event>
 5    1  0.3422688E-002  0.1250002E+03  0.7818608E-02  0.1235069E+00
         -4   -1    0    0    0  501 -0.00000000000E+00  0.00000000000E+00  0.66173734292E+02  0.66185920030E+02  0.12700000000E+01 0.  1.
          4   -1    0    0  501    0  0.00000000000E+00 -0.00000000000E+00 -0.59005954564E+02  0.59019620246E+02  0.12700000000E+01 0.  1.
         25    2    1    2    0    0  0.00000000000E+00  0.00000000000E+00  0.71677797283E+01  0.12520554028E+03  0.12500020100E+03 0.  0.
    9000005    1    3    3    0    0 -0.41974628640E+02  0.38918335959E+02  0.28700093124E+02  0.64040625142E+02  0.10000000000E+01 0.  0.
    9000005    1    3    3    0    0  0.41974628640E+02 -0.38918335959E+02 -0.21532313395E+02  0.61164915134E+02  0.10000000000E+01 0.  0.
<mgrwt>
<rscale>  0 0.12500020E+03</rscale>
<asrwt>0</asrwt>
<pdfrwt beam="2">  1        4 0.90798277E-02 0.12500020E+03</pdfrwt>
<pdfrwt beam="1">  1       -4 0.10182563E-01 0.12500020E+03</pdfrwt>
<totfact> 0.10448352E+04</totfact>
</mgrwt>
</event>
<event>
 5    1  0.3422688E-002  0.1250027E+03  0.7818608E-02  0.1235065E+00
         -4   -1    0    0    0  501 -0.00000000000E+00  0.00000000000E+00  0.16670334219E+04  0.16670339057E+04  0.12700000000E+01 0.  1.
          4   -1    0    0  501    0  0.00000000000E+00 -0.00000000000E+00 -0.21707416335E+01  0.25149590930E+01  0.12700000000E+01 0.  1.
         25    2    1    2    0    0  0.00000000000E+00  0.00000000000E+00  0.16648626803E+04  0.16695488648E+04  0.12500267064E+03 0.  0.
    9000005    1    3    3    0    0 -0.39044414718E+02  0.78362674757E+01  0.18917940044E+03  0.19332800873E+03  0.10000000000E+01 0.  0.
    9000005    1    3    3    0    0  0.39044414718E+02 -0.78362674757E+01  0.14756832799E+04  0.14762208561E+04  0.10000000000E+01 0.  0.
<mgrwt>
<rscale>  0 0.12500267E+03</rscale>
<asrwt>0</asrwt>
<pdfrwt beam="2">  1        4 0.36047495E-03 0.12500267E+03</pdfrwt>
<pdfrwt beam="1">  1       -4 0.25649375E+00 0.12500267E+03</pdfrwt>
<totfact> 0.14821409E+03</totfact>
</mgrwt>
</event>
<event>
 5    1  0.3422688E-002  0.1250016E+03  0.7818608E-02  0.1235067E+00
         -4   -1    0    0    0  501 -0.00000000000E+00  0.00000000000E+00  0.11428746681E+03  0.11429452292E+03  0.12700000000E+01 0. -1.
          4   -1    0    0  501    0  0.00000000000E+00 -0.00000000000E+00 -0.34160139366E+02  0.34183739138E+02  0.12700000000E+01 0. -1.
         25    2    1    2    0    0  0.00000000000E+00  0.00000000000E+00  0.80127327441E+02  0.14847826206E+03  0.12500162279E+03 0.  0.
    9000005    1    3    3    0    0  0.48261664688E+02 -0.38419927397E+02  0.51946065151E+02  0.80651551655E+02  0.10000000000E+01 0.  0.
    9000005    1    3    3    0    0 -0.48261664688E+02  0.38419927397E+02  0.28181262290E+02  0.67826710402E+02  0.10000000000E+01 0.  0.
<mgrwt>
<rscale>  0 0.12500162E+03</rscale>
<asrwt>0</asrwt>
<pdfrwt beam="2">  1        4 0.52577642E-02 0.12500162E+03</pdfrwt>
<pdfrwt beam="1">  1       -4 0.17585045E-01 0.12500162E+03</pdfrwt>
<totfact> 0.99604264E+03</totfact>
</mgrwt>
</event>
<event>
 5    1  0.3422688E-002  0.1250011E+03  0.7818608E-02  0.1235067E+00
         -4   -1    0    0    0  501 -0.00000000000E+00  0.00000000000E+00  0.10258479667E+03  0.10259265767E+03  0.12700000000E+01 0. -1.
          4   -1    0    0  501    0  0.00000000000E+00 -0.00000000000E+00 -0.38059037107E+02  0.38080220660E+02  0.12700000000E+01 0. -1.
         25    2    1    2    0    0  0.00000000000E+00  0.00000000000E+00  0.64525759565E+02  0.14067287833E+03  0.12500114020E+03 0.  0.
    9000005    1    3    3    0    0  0.20415114343E+02 -0.34384730083E+02  0.86306962625E+02  0.95126118149E+02  0.10000000000E+01 0.  0.
    9000005    1    3    3    0    0 -0.20415114343E+02  0.34384730083E+02 -0.21781203060E+02  0.45546760184E+02  0.10000000000E+01 0.  0.
<mgrwt>
<rscale>  0 0.12500114E+03</rscale>
<asrwt>0</asrwt>
<pdfrwt beam="2">  1        4 0.58574707E-02 0.12500114E+03</pdfrwt>
<pdfrwt beam="1">  1       -4 0.15784511E-01 0.12500114E+03</pdfrwt>
<totfact> 0.10119399E+04</totfact>
</mgrwt>
</event>
<event>
 5    1  0.3422688E-002  0.1249943E+03  0.7818608E-02  0.1235078E+00
          4   -1    0    0  501    0  0.00000000000E+00  0.00000000000E+00  0.37433915939E+03  0.37434131372E+03  0.12700000000E+01 0. -1.
         -4   -1    0    0    0  501 -0.00000000000E+00 -0.00000000000E+00 -0.10393270996E+02  0.10470576965E+02  0.12700000000E+01 0. -1.
         25    2    1    2    0    0  0.00000000000E+00  0.00000000000E+00  0.36394588840E+03  0.38481189068E+03  0.12499432599E+03 0.  0.
    9000005    1    3    3    0    0  0.21237892184E+02  0.55392320732E+02  0.12152356461E+03  0.13523436700E+03  0.10000000000E+01 0.  0.
    9000005    1    3    3    0    0 -0.21237892184E+02 -0.55392320732E+02  0.24242232378E+03  0.24957752369E+03  0.10000000000E+01 0.  0.
<mgrwt>
<rscale>  0 0.12499433E+03</rscale>
<asrwt>0</asrwt>
<pdfrwt beam="1">  1        4 0.57596754E-01 0.12499433E+03</pdfrwt>
<pdfrwt beam="2">  1       -4 0.16050770E-02 0.12499433E+03</pdfrwt>
<totfact> 0.66065545E+03</totfact>
</mgrwt>
</event>
<event>
 5    1  0.3422688E-002  0.1249997E+03  0.7818608E-02  0.1235070E+00
          4   -1    0    0  501    0  0.00000000000E+00  0.00000000000E+00  0.26855020797E+03  0.26855321093E+03  0.12700000000E+01 0. -1.
         -4   -1    0    0    0  501 -0.00000000000E+00 -0.00000000000E+00 -0.14514814776E+02  0.14570269318E+02  0.12700000000E+01 0. -1.
         25    2    1    2    0    0  0.00000000000E+00  0.00000000000E+00  0.25403539320E+03  0.28312348025E+03  0.12499969629E+03 0.  0.
    9000005    1    3    3    0    0  0.17474594791E+02 -0.57919323175E+02  0.16248647688E+03  0.17338646034E+03  0.10000000000E+01 0.  0.
    9000005    1    3    3    0    0 -0.17474594791E+02  0.57919323175E+02  0.91548916314E+02  0.10973701991E+03  0.10000000000E+01 0.  0.
<mgrwt>
<rscale>  0 0.12499970E+03</rscale>
<asrwt>0</asrwt>
<pdfrwt beam="1">  1        4 0.41319909E-01 0.12499970E+03</pdfrwt>
<pdfrwt beam="2">  1       -4 0.22375454E-02 0.12499970E+03</pdfrwt>
<totfact> 0.77766296E+03</totfact>
</mgrwt>
</event>
<event>
 5    1  0.3422688E-002  0.1250055E+03  0.7818608E-02  0.1235061E+00
          4   -1    0    0  501    0  0.00000000000E+00  0.00000000000E+00  0.39808603650E+02  0.39828856681E+02  0.12700000000E+01 0.  1.
         -4   -1    0    0    0  501 -0.00000000000E+00 -0.00000000000E+00 -0.98085011882E+02  0.98093233487E+02  0.12700000000E+01 0.  1.
         25    2    1    2    0    0  0.00000000000E+00  0.00000000000E+00 -0.58276408233E+02  0.13792209017E+03  0.12500545268E+03 0.  0.
    9000005    1    3    3    0    0 -0.13435395606E+02  0.61020320790E+02 -0.30534425191E+02  0.69550992273E+02  0.10000000000E+01 0.  0.
    9000005    1    3    3    0    0  0.13435395606E+02 -0.61020320790E+02 -0.27741983041E+02  0.68371097896E+02  0.10000000000E+01 0.  0.
<mgrwt>
<rscale>  0 0.12500545E+03</rscale>
<asrwt>0</asrwt>
<pdfrwt beam="1">  1        4 0.61265910E-02 0.12500545E+03</pdfrwt>
<pdfrwt beam="2">  1       -4 0.15092192E-01 0.12500545E+03</pdfrwt>
<totfact> 0.10175584E+04</totfact>
</mgrwt>
</event>
<event>
 5    1  0.3422688E-002  0.1250013E+03  0.7818608E-02  0.1235067E+00
          4   -1    0    0  501    0  0.00000000000E+00  0.00000000000E+00  0.37760218498E+02  0.37781569594E+02  0.12700000000E+01 0.  1.
         -4   -1    0    0    0  501 -0.00000000000E+00 -0.00000000000E+00 -0.10339655209E+03  0.10340435138E+03  0.12700000000E+01 0.  1.
         25    2    1    2    0    0  0.00000000000E+00  0.00000000000E+00 -0.65636333596E+02  0.14118592098E+03  0.12500134397E+03 0.  0.
    9000005    1    3    3    0    0  0.11926953803E+02 -0.45407287324E+02 -0.79404878596E+02  0.92250792484E+02  0.10000000000E+01 0.  0.
    9000005    1    3    3    0    0 -0.11926953803E+02  0.45407287324E+02  0.13768545000E+02  0.48935128492E+02  0.10000000000E+01 0.  0.
<mgrwt>
<rscale>  0 0.12500134E+03</rscale>
<asrwt>0</asrwt>
<pdfrwt beam="1">  1        4 0.58115068E-02 0.12500134E+03</pdfrwt>
<pdfrwt beam="2">  1       -4 0.15909404E-01 0.12500134E+03</pdfrwt>
<totfact> 0.10108760E+04</totfact>
</mgrwt>
</event>
<event>
 5    1  0.3422688E-002  0.1250000E+03  0.7818608E-02  0.1235069E+00
         -4   -1    0    0    0  501 -0.00000000000E+00  0.00000000000E+00  0.33924595425E+02  0.33948358940E+02  0.12700000000E+01 0.  1.
          4   -1    0    0  501    0  0.00000000000E+00 -0.00000000000E+00 -0.11507741392E+03  0.11508442160E+03  0.12700000000E+01 0.  1.
         25    2    1    2    0    0  0.00000000000E+00  0.00000000000E+00 -0.81152818499E+02  0.14903278054E+03  0.12499995890E+03 0.  0.
    9000005    1    3    3    0    0 -0.48603108752E+02 -0.27944474863E+02 -0.76627995749E+01  0.56593942724E+02  0.10000000000E+01 0.  0.
    9000005    1    3    3    0    0  0.48603108752E+02  0.27944474863E+02 -0.73490018924E+02  0.92438837818E+02  0.10000000000E+01 0.  0.
<mgrwt>
<rscale>  0 0.12499996E+03</rscale>
<asrwt>0</asrwt>
<pdfrwt beam="2">  1        4 0.17706584E-01 0.12499996E+03</pdfrwt>
<pdfrwt beam="1">  1       -4 0.52215356E-02 0.12499996E+03</pdfrwt>
<totfact> 0.99496941E+03</totfact>
</mgrwt>
</event>
<event>
 5    1  0.3422688E-002  0.1250024E+03  0.7818608E-02  0.1235066E+00
          4   -1    0    0  501    0  0.00000000000E+00  0.00000000000E+00  0.34217612693E+02  0.34241172853E+02  0.12700000000E+01 0.  1.
         -4   -1    0    0    0  501 -0.00000000000E+00 -0.00000000000E+00 -0.11409703421E+03  0.11410410210E+03  0.12700000000E+01 0.  1.
         25    2    1    2    0    0  0.00000000000E+00  0.00000000000E+00 -0.79879421520E+02  0.14834527495E+03  0.12500239445E+03 0.  0.
    9000005    1    3    3    0    0 -0.45453110086E+02 -0.29840773145E+02 -0.76497117396E+02  0.93857689767E+02  0.10000000000E+01 0.  0.
    9000005    1    3    3    0    0  0.45453110086E+02  0.29840773145E+02 -0.33823041237E+01  0.54487585187E+02  0.10000000000E+01 0.  0.
<mgrwt>
<rscale>  0 0.12500239E+03</rscale>
<asrwt>0</asrwt>
<pdfrwt beam="1">  1        4 0.52666042E-02 0.12500239E+03</pdfrwt>
<pdfrwt beam="2">  1       -4 0.17555746E-01 0.12500239E+03</pdfrwt>
<totfact> 0.99629201E+03</totfact>
</mgrwt>
</event>
<event>
 5    1  0.3422688E-002  0.1249986E+03  0.7818608E-02  0.1235071E+00
         -4   -1    0    0    0  501 -0.00000000000E+00  0.00000000000E+00  0.17419083047E+03  0.17419546010E+03  0.12700000000E+01 0.  1.
          4   -1    0    0  501    0  0.00000000000E+00 -0.00000000000E+00 -0.22401716538E+02  0.22437687132E+02  0.12700000000E+01 0.  1.
         25    2    1    2    0    0  0.00000000000E+00  0.00000000000E+00  0.15178911393E+03  0.19663314723E+03  0.12499863792E+03 0.  0.
    9000005    1    3    3    0    0  0.40237426186E+02  0.47748837421E+02  0.79799772865E+02  0.10133116841E+03  0.10000000000E+01 0.  0.
    9000005    1    3    3    0    0 -0.40237426186E+02 -0.47748837421E+02  0.71989341068E+02  0.95301978828E+02  0.10000000000E+01 0.  0.
<mgrwt>
<rscale>  0 0.12499864E+03</rscale>
<asrwt>0</asrwt>
<pdfrwt beam="2">  1        4 0.34495410E-02 0.12499864E+03</pdfrwt>
<pdfrwt beam="1">  1       -4 0.26801713E-01 0.12499864E+03</pdfrwt>
<totfact> 0.90708571E+03</totfact>
</mgrwt>
</event>
<event>
 5    1  0.3422688E-002  0.1249961E+03  0.7818608E-02  0.1235075E+00
         -4   -1    0    0    0  501 -0.00000000000E+00  0.00000000000E+00  0.58547268632E+02  0.58561041352E+02  0.12700000000E+01 0.  1.
          4   -1    0    0  501    0  0.00000000000E+00 -0.00000000000E+00 -0.66687786473E+02  0.66699878296E+02  0.12700000000E+01 0.  1.
         25    2    1    2    0    0  0.00000000000E+00  0.00000000000E+00 -0.81405178419E+01  0.12526091965E+03  0.12499611978E+03 0.  0.
    9000005    1    3    3    0    0 -0.46420924983E+02  0.38303165241E+02  0.12787171245E+02  0.61534920917E+02  0.10000000000E+01 0.  0.
    9000005    1    3    3    0    0  0.46420924983E+02 -0.38303165241E+02 -0.20927689087E+02  0.63725998731E+02  0.10000000000E+01 0.  0.
<mgrwt>
<rscale>  0 0.12499612E+03</rscale>
<asrwt>0</asrwt>
<pdfrwt beam="2">  1        4 0.10261649E-01 0.12499612E+03</pdfrwt>
<pdfrwt beam="1">  1       -4 0.90092618E-02 0.12499612E+03</pdfrwt>
<totfact> 0.10448114E+04</totfact>
</mgrwt>
</event>
<event>
 5    1  0.3422688E-002  0.1249957E+03  0.7818608E-02  0.1235076E+00
         -4   -1    0    0    0  501 -0.00000000000E+00  0.00000000000E+00  0.13562878998E+04  0.13562884944E+04  0.12700000000E+01 0.  1.
          4   -1    0    0  501    0  0.00000000000E+00 -0.00000000000E+00 -0.27392693189E+01  0.30193536397E+01  0.12700000000E+01 0.  1.
         25    2    1    2    0    0  0.00000000000E+00  0.00000000000E+00  0.13535486305E+04  0.13593078480E+04  0.12499572259E+03 0.  0.
    9000005    1    3    3    0    0 -0.49017694225E+02 -0.68769511123E+01  0.10915827533E+04  0.10927048705E+04  0.10000000000E+01 0.  0.
    9000005    1    3    3    0    0  0.49017694225E+02  0.68769511123E+01  0.26196587717E+03  0.26660297749E+03  0.10000000000E+01 0.  0.
<mgrwt>
<rscale>  0 0.12499572E+03</rscale>
<asrwt>0</asrwt>
<pdfrwt beam="2">  1        4 0.44301745E-03 0.12499572E+03</pdfrwt>
<pdfrwt beam="1">  1       -4 0.20868093E+00 0.12499572E+03</pdfrwt>
<totfact> 0.20872438E+03</totfact>
</mgrwt>
</event>
<event>
 5    1  0.3422688E-002  0.1250000E+03  0.7818608E-02  0.1235069E+00
          4   -1    0    0  501    0  0.00000000000E+00  0.00000000000E+00  0.10864117620E+03  0.10864859901E+03  0.12700000000E+01 0.  1.
         -4   -1    0    0    0  501 -0.00000000000E+00 -0.00000000000E+00 -0.35935666751E+02  0.35958101241E+02  0.12700000000E+01 0.  1.
         25    2    1    2    0    0  0.00000000000E+00  0.00000000000E+00  0.72705509451E+02  0.14460670025E+03  0.12500002661E+03 0.  0.
    9000005    1    3    3    0    0 -0.32934070804E+02  0.51881060887E+02  0.49489748583E+02  0.78908381769E+02  0.10000000000E+01 0.  0.
    9000005    1    3    3    0    0  0.32934070804E+02 -0.51881060887E+02  0.23215760868E+02  0.65698318481E+02  0.10000000000E+01 0.  0.
<mgrwt>
<rscale>  0 0.12500003E+03</rscale>
<asrwt>0</asrwt>
<pdfrwt beam="1">  1        4 0.16716323E-01 0.12500003E+03</pdfrwt>
<pdfrwt beam="2">  1       -4 0.55308610E-02 0.12500003E+03</pdfrwt>
<totfact> 0.10038980E+04</totfact>
</mgrwt>
</event>
<event>
 5    1  0.3422688E-002  0.1250010E+03  0.7818608E-02  0.1235068E+00
          4   -1    0    0  501    0  0.00000000000E+00  0.00000000000E+00  0.47309605469E+01  0.48984576854E+01  0.12700000000E+01 0.  1.
         -4   -1    0    0    0  501 -0.00000000000E+00 -0.00000000000E+00 -0.81116081549E+03  0.81116180969E+03  0.12700000000E+01 0.  1.
         25    2    1    2    0    0  0.00000000000E+00  0.00000000000E+00 -0.80642985495E+03  0.81606026737E+03  0.12500099612E+03 0.  0.
    9000005    1    3    3    0    0  0.46728365313E+02  0.23410065670E+02 -0.62687831039E+03  0.62905404167E+03  0.10000000000E+01 0.  0.
    9000005    1    3    3    0    0 -0.46728365313E+02 -0.23410065670E+02 -0.17955154455E+03  0.18700622570E+03  0.10000000000E+01 0.  0.
<mgrwt>
<rscale>  0 0.12500100E+03</rscale>
<asrwt>0</asrwt>
<pdfrwt beam="1">  1        4 0.74080160E-03 0.12500100E+03</pdfrwt>
<pdfrwt beam="2">  1       -4 0.12480682E+00 0.12500100E+03</pdfrwt>
<totfact> 0.37556947E+03</totfact>
</mgrwt>
</event>
<event>
 5    1  0.3422688E-002  0.1249992E+03  0.7818608E-02  0.1235070E+00
         -4   -1    0    0    0  501 -0.00000000000E+00  0.00000000000E+00  0.29537169321E+03  0.29537442348E+03  0.12700000000E+01 0. -1.
          4   -1    0    0  501    0  0.00000000000E+00 -0.00000000000E+00 -0.13191412475E+02  0.13252405936E+02  0.12700000000E+01 0. -1.
         25    2    1    2    0    0  0.00000000000E+00  0.00000000000E+00  0.28218028073E+03  0.30862682942E+03  0.12499923601E+03 0.  0.
    9000005    1    3    3    0    0  0.35976388276E+02  0.24276943651E+02  0.30078990436E+02  0.52814923763E+02  0.10000000000E+01 0.  0.
    9000005    1    3    3    0    0 -0.35976388276E+02 -0.24276943651E+02  0.25210129030E+03  0.25581190566E+03  0.10000000000E+01 0.  0.
<mgrwt>
<rscale>  0 0.12499924E+03</rscale>
<asrwt>0</asrwt>
<pdfrwt beam="2">  1        4 0.20343499E-02 0.12499924E+03</pdfrwt>
<pdfrwt beam="1">  1       -4 0.45446700E-01 0.12499924E+03</pdfrwt>
<totfact> 0.74530555E+03</totfact>
</mgrwt>
</event>
<event>
 5    1  0.3422688E-002  0.1250087E+03  0.7818608E-02  0.1235056E+00
         -4   -1    0    0    0  501 -0.00000000000E+00  0.00000000000E+00  0.56574493157E+02  0.56588746019E+02  0.12700000000E+01 0. -1.
          4   -1    0    0  501    0  0.00000000000E+00 -0.00000000000E+00 -0.69027001678E+02  0.69038683799E+02  0.12700000000E+01 0. -1.
         25    2    1    2    0    0  0.00000000000E+00  0.00000000000E+00 -0.12452508521E+02  0.12562742982E+03  0.12500874431E+03 0.  0.
    9000005    1    3    3    0    0  0.95164665562E+01 -0.50808410584E+02 -0.41524709225E+02  0.66312587025E+02  0.10000000000E+01 0.  0.
    9000005    1    3    3    0    0 -0.95164665562E+01  0.50808410584E+02  0.29072200704E+02  0.59314842793E+02  0.10000000000E+01 0.  0.
<mgrwt>
<rscale>  0 0.12500874E+03</rscale>
<asrwt>0</asrwt>
<pdfrwt beam="2">  1        4 0.10621534E-01 0.12500874E+03</pdfrwt>
<pdfrwt beam="1">  1       -4 0.87057631E-02 0.12500874E+03</pdfrwt>
<totfact> 0.10437083E+04</totfact>
</mgrwt>
</event>
<event>
 5    1  0.3422688E-002  0.1250146E+03  0.7818608E-02  0.1235046E+00
         -4   -1    0    0    0  501 -0.00000000000E+00  0.00000000000E+00  0.33465755976E+02  0.33489845074E+02  0.12700000000E+01 0.  1.
          4   -1    0    0  501    0  0.00000000000E+00 -0.00000000000E+00 -0.11668156737E+03  0.11668847871E+03  0.12700000000E+01 0.  1.
         25    2    1    2    0    0  0.00000000000E+00  0.00000000000E+00 -0.83215811397E+02  0.15017832379E+03  0.12501462982E+03 0.  0.
    9000005    1    3    3    0    0  0.58732372257E+02 -0.18073579845E+02 -0.27910159366E+02  0.67499058032E+02  0.10000000000E+01 0.  0.
    9000005    1    3    3    0    0 -0.58732372257E+02  0.18073579845E+02 -0.55305652031E+02  0.82679265756E+02  0.10000000000E+01 0.  0.
<mgrwt>
<rscale>  0 0.12501463E+03</rscale>
<asrwt>0</asrwt>
<pdfrwt beam="2">  1        4 0.17953395E-01 0.12501463E+03</pdfrwt>
<pdfrwt beam="1">  1       -4 0.51509625E-02 0.12501463E+03</pdfrwt>
<totfact> 0.99235487E+03</totfact>
</mgrwt>
</event>
<event>
 5    1  0.3422688E-002  0.1250082E+03  0.7818608E-02  0.1235056E+00
         -4   -1    0    0    0  501 -0.00000000000E+00  0.00000000000E+00  0.17019661115E+03  0.17020134942E+03  0.12700000000E+01 0.  1.
          4   -1    0    0  501    0  0.00000000000E+00 -0.00000000000E+00 -0.22931792945E+02  0.22966933354E+02  0.12700000000E+01 0.  1.
         25    2    1    2    0    0  0.00000000000E+00  0.00000000000E+00  0.14726481820E+03  0.19316828278E+03  0.12500823489E+03 0.  0.
    9000005    1    3    3    0    0  0.48286698359E+02  0.29424466698E+02  0.32505669837E+02  0.65230537714E+02  0.10000000000E+01 0.  0.
    9000005    1    3    3    0    0 -0.48286698359E+02 -0.29424466698E+02  0.11475914836E+03  0.12793774506E+03  0.10000000000E+01 0.  0.
<mgrwt>
<rscale>  0 0.12500823E+03</rscale>
<asrwt>0</asrwt>
<pdfrwt beam="2">  1        4 0.35310357E-02 0.12500823E+03</pdfrwt>
<pdfrwt beam="1">  1       -4 0.26187162E-01 0.12500823E+03</pdfrwt>
<totfact> 0.91282114E+03</totfact>
</mgrwt>
</event>
<event>
 5    1  0.3422688E-002  0.1250010E+03  0.7818608E-02  0.1235068E+00
         -4   -1    0    0    0  501 -0.00000000000E+00  0.00000000000E+00  0.38734517786E+01  0.40763376554E+01  0.12700000000E+01 0.  1.
          4   -1    0    0  501    0  0.00000000000E+00 -0.00000000000E+00 -0.98254340439E+03  0.98254422516E+03  0.12700000000E+01 0.  1.
         25    2    1    2    0    0  0.00000000000E+00  0.00000000000E+00 -0.97866995261E+03  0.98662056282E+03  0.12500103536E+03 0.  0.
    9000005    1    3    3    0    0 -0.34120872306E+02 -0.43054230411E+02 -0.25420949529E+03  0.26007954202E+03  0.10000000000E+01 0.  0.
    9000005    1    3    3    0    0  0.34120872306E+02  0.43054230411E+02 -0.72446045732E+03  0.72654102079E+03  0.10000000000E+01 0.  0.
<mgrwt>
<rscale>  0 0.12500104E+03</rscale>
<asrwt>0</asrwt>
<pdfrwt beam="2">  1        4 0.15117600E+00 0.12500104E+03</pdfrwt>
<pdfrwt beam="1">  1       -4 0.61158618E-03 0.12500104E+03</pdfrwt>
<totfact> 0.31049748E+03</totfact>
</mgrwt>
</event>
<event>
 5    1  0.3422688E-002  0.1250069E+03  0.7818608E-02  0.1235059E+00
          4   -1    0    0  501    0  0.00000000000E+00  0.00000000000E+00  0.98740486513E+01  0.99553873239E+01  0.12700000000E+01 0.  1.
         -4   -1    0    0    0  501 -0.00000000000E+00 -0.00000000000E+00 -0.39394605531E+03  0.39394810241E+03  0.12700000000E+01 0.  1.
         25    2    1    2    0    0  0.00000000000E+00  0.00000000000E+00 -0.38407200666E+03  0.40390348974E+03  0.12500689070E+03 0.  0.
    9000005    1    3    3    0    0  0.10430358907E+02  0.60692960466E+02 -0.15765106816E+03  0.16925509484E+03  0.10000000000E+01 0.  0.
    9000005    1    3    3    0    0 -0.10430358907E+02 -0.60692960466E+02 -0.22642093850E+03  0.23464839490E+03  0.10000000000E+01 0.  0.
<mgrwt>
<rscale>  0 0.12500689E+03</rscale>
<asrwt>0</asrwt>
<pdfrwt beam="1">  1        4 0.15254990E-02 0.12500689E+03</pdfrwt>
<pdfrwt beam="2">  1       -4 0.60613488E-01 0.12500689E+03</pdfrwt>
<totfact> 0.64165149E+03</totfact>
</mgrwt>
</event>
<event>
 5    1  0.3422688E-002  0.1249962E+03  0.7818608E-02  0.1235075E+00
         -4   -1    0    0    0  501 -0.00000000000E+00  0.00000000000E+00  0.54731020982E+02  0.54745753787E+02  0.12700000000E+01 0. -1.
          4   -1    0    0  501    0  0.00000000000E+00 -0.00000000000E+00 -0.71337498056E+02  0.71348801874E+02  0.12700000000E+01 0. -1.
         25    2    1    2    0    0  0.00000000000E+00  0.00000000000E+00 -0.16606477074E+02  0.12609455566E+03  0.12499624749E+03 0.  0.
    9000005    1    3    3    0    0 -0.33309125035E+02 -0.21917279964E+02  0.40235554667E+02  0.56654786479E+02  0.10000000000E+01 0.  0.
    9000005    1    3    3    0    0  0.33309125035E+02  0.21917279964E+02 -0.56842031741E+02  0.69439769182E+02  0.10000000000E+01 0.  0.
<mgrwt>
<rscale>  0 0.12499625E+03</rscale>
<asrwt>0</asrwt>
<pdfrwt beam="2">  1        4 0.10977003E-01 0.12499625E+03</pdfrwt>
<pdfrwt beam="1">  1       -4 0.84221599E-02 0.12499625E+03</pdfrwt>
<totfact> 0.10429769E+04</totfact>
</mgrwt>
</event>
<event>
 5    1  0.3422688E-002  0.1249962E+03  0.7818608E-02  0.1235075E+00
         -4   -1    0    0    0  501 -0.00000000000E+00  0.00000000000E+00  0.12317710694E+03  0.12318365384E+03  0.12700000000E+01 0. -1.
          4   -1    0    0  501    0  0.00000000000E+00 -0.00000000000E+00 -0.31690454762E+02  0.31715892278E+02  0.12700000000E+01 0. -1.
         25    2    1    2    0    0  0.00000000000E+00  0.00000000000E+00  0.91486652177E+02  0.15489954612E+03  0.12499624739E+03 0.  0.
    9000005    1    3    3    0    0  0.23151028974E+02  0.57096781299E+02  0.32805176355E+02  0.69808252900E+02  0.10000000000E+01 0.  0.
    9000005    1    3    3    0    0 -0.23151028974E+02 -0.57096781299E+02  0.58681475822E+02  0.85091293220E+02  0.10000000000E+01 0.  0.
<mgrwt>
<rscale>  0 0.12499625E+03</rscale>
<asrwt>0</asrwt>
<pdfrwt beam="2">  1        4 0.48779149E-02 0.12499625E+03</pdfrwt>
<pdfrwt beam="1">  1       -4 0.18952784E-01 0.12499625E+03</pdfrwt>
<totfact> 0.98343522E+03</totfact>
</mgrwt>
</event>
<event>
 5    1  0.3422688E-002  0.1250052E+03  0.7818608E-02  0.1235061E+00
          4   -1    0    0  501    0  0.00000000000E+00  0.00000000000E+00  0.10940739708E+03  0.10941476791E+03  0.12700000000E+01 0. -1.
         -4   -1    0    0    0  501 -0.00000000000E+00 -0.00000000000E+00 -0.35686836057E+02  0.35709426876E+02  0.12700000000E+01 0. -1.
         25    2    1    2    0    0  0.00000000000E+00  0.00000000000E+00  0.73720561025E+02  0.14512419478E+03  0.12500524306E+03 0.  0.
    9000005    1    3    3    0    0  0.42521966585E+02  0.42878784447E+02  0.18181334255E+02  0.63073518320E+02  0.10000000000E+01 0.  0.
    9000005    1    3    3    0    0 -0.42521966585E+02 -0.42878784447E+02  0.55539226770E+02  0.82050676463E+02  0.10000000000E+01 0.  0.
<mgrwt>
<rscale>  0 0.12500524E+03</rscale>
<asrwt>0</asrwt>
<pdfrwt beam="1">  1        4 0.16834212E-01 0.12500524E+03</pdfrwt>
<pdfrwt beam="2">  1       -4 0.54925873E-02 0.12500524E+03</pdfrwt>
<totfact> 0.10027282E+04</totfact>
</mgrwt>
</event>
<event>
 5    1  0.3422688E-002  0.1249999E+03  0.7818608E-02  0.1235069E+00
         -4   -1    0    0    0  501 -0.00000000000E+00  0.00000000000E+00  0.19771077067E+02  0.19811824459E+02  0.12700000000E+01 0.  1.
          4   -1    0    0  501    0  0.00000000000E+00 -0.00000000000E+00 -0.19732738793E+03  0.19733147475E+03  0.12700000000E+01 0.  1.
         25    2    1    2    0    0  0.00000000000E+00  0.00000000000E+00 -0.17755631086E+03  0.21714329921E+03  0.12499987546E+03 0.  0.
    9000005    1    3    3    0    0  0.46402026334E+02 -0.46067010669E+01 -0.16105004130E+03  0.16766778327E+03  0.10000000000E+01 0.  0.
    9000005    1    3    3    0    0 -0.46402026334E+02  0.46067010669E+01 -0.16506269556E+02  0.49475515937E+02  0.10000000000E+01 0.  0.
<mgrwt>
<rscale>  0 0.12499988E+03</rscale>
<asrwt>0</asrwt>
<pdfrwt beam="2">  1        4 0.30361507E-01 0.12499988E+03</pdfrwt>
<pdfrwt beam="1">  1       -4 0.30451531E-02 0.12499988E+03</pdfrwt>
<totfact> 0.87322657E+03</totfact>
</mgrwt>
</event>
<event>
 5    1  0.3422688E-002  0.1250106E+03  0.7818608E-02  0.1235053E+00
         -4   -1    0    0    0  501 -0.00000000000E+00  0.00000000000E+00  0.59877008510E+03  0.59877143194E+03  0.12700000000E+01 0.  1.
          4   -1    0    0  501    0  0.00000000000E+00 -0.00000000000E+00 -0.64617360915E+01  0.65853574934E+01  0.12700000000E+01 0.  1.
         25    2    1    2    0    0  0.00000000000E+00  0.00000000000E+00  0.59230834901E+03  0.60535678944E+03  0.12501064839E+03 0.  0.
    9000005    1    3    3    0    0 -0.45457463418E+02 -0.13619221626E+02  0.49309642991E+03  0.49537556800E+03  0.10000000000E+01 0.  0.
    9000005    1    3    3    0    0  0.45457463418E+02  0.13619221626E+02  0.99211919097E+02  0.10998122144E+03  0.10000000000E+01 0.  0.
<mgrwt>
<rscale>  0 0.12501065E+03</rscale>
<asrwt>0</asrwt>
<pdfrwt beam="2">  1        4 0.10037260E-02 0.12501065E+03</pdfrwt>
<pdfrwt beam="1">  1       -4 0.92128103E-01 0.12501065E+03</pdfrwt>
<totfact> 0.48519876E+03</totfact>
</mgrwt>
</event>
<event>
 5    1  0.3422688E-002  0.1250019E+03  0.7818608E-02  0.1235066E+00
         -4   -1    0    0    0  501 -0.00000000000E+00  0.00000000000E+00  0.72388758716E+02  0.72399898401E+02  0.12700000000E+01 0.  1.
          4   -1    0    0  501    0  0.00000000000E+00 -0.00000000000E+00 -0.53940978896E+02  0.53955927425E+02  0.12700000000E+01 0.  1.
         25    2    1    2    0    0  0.00000000000E+00  0.00000000000E+00  0.18447779820E+02  0.12635582583E+03  0.12500189655E+03 0.  0.
    9000005    1    3    3    0    0 -0.48308641737E+02  0.28353927076E+02  0.37231368386E+02  0.67266966923E+02  0.10000000000E+01 0.  0.
    9000005    1    3    3    0    0  0.48308641737E+02 -0.28353927076E+02 -0.18783588566E+02  0.59088858903E+02  0.10000000000E+01 0.  0.
<mgrwt>
<rscale>  0 0.12500190E+03</rscale>
<asrwt>0</asrwt>
<pdfrwt beam="2">  1        4 0.83006189E-02 0.12500190E+03</pdfrwt>
<pdfrwt beam="1">  1       -4 0.11138739E-01 0.12500190E+03</pdfrwt>
<totfact> 0.10422728E+04</totfact>
</mgrwt>
</event>
<event>
 5    1  0.3422688E-002  0.1249993E+03  0.7818608E-02  0.1235070E+00
         -4   -1    0    0    0  501 -0.00000000000E+00  0.00000000000E+00  0.18020709262E+03  0.18021156770E+03  0.12700000000E+01 0.  1.
          4   -1    0    0  501    0  0.00000000000E+00 -0.00000000000E+00 -0.21652858377E+02  0.21690070906E+02  0.12700000000E+01 0.  1.
         25    2    1    2    0    0  0.00000000000E+00  0.00000000000E+00  0.15855423425E+03  0.20190163860E+03  0.12499930589E+03 0.  0.
    9000005    1    3    3    0    0 -0.22030361149E+01 -0.37301830524E+02 -0.16280441562E+01  0.37415644540E+02  0.10000000000E+01 0.  0.
    9000005    1    3    3    0    0  0.22030361149E+01  0.37301830524E+02  0.16018227840E+03  0.16448599406E+03  0.10000000000E+01 0.  0.
<mgrwt>
<rscale>  0 0.12499931E+03</rscale>
<asrwt>0</asrwt>
<pdfrwt beam="2">  1        4 0.33344157E-02 0.12499931E+03</pdfrwt>
<pdfrwt beam="1">  1       -4 0.27727375E-01 0.12499931E+03</pdfrwt>
<totfact> 0.89817162E+03</totfact>
</mgrwt>
</event>
<event>
 5    1  0.3422688E-002  0.1249960E+03  0.7818608E-02  0.1235076E+00
          4   -1    0    0  501    0  0.00000000000E+00  0.00000000000E+00  0.10367578862E+04  0.10367586640E+04  0.12700000000E+01 0.  1.
         -4   -1    0    0    0  501 -0.00000000000E+00 -0.00000000000E+00 -0.36596863888E+01  0.38737842563E+01  0.12700000000E+01 0.  1.
         25    2    1    2    0    0  0.00000000000E+00  0.00000000000E+00  0.10330981998E+04  0.10406324483E+04  0.12499600805E+03 0.  0.
    9000005    1    3    3    0    0 -0.16229213439E+02 -0.59885381950E+02  0.57848983862E+03  0.58180850779E+03  0.10000000000E+01 0.  0.
    9000005    1    3    3    0    0  0.16229213439E+02  0.59885381950E+02  0.45460836115E+03  0.45882394049E+03  0.10000000000E+01 0.  0.
<mgrwt>
<rscale>  0 0.12499601E+03</rscale>
<asrwt>0</asrwt>
<pdfrwt beam="1">  1        4 0.15951795E+00 0.12499601E+03</pdfrwt>
<pdfrwt beam="2">  1       -4 0.57955681E-03 0.12499601E+03</pdfrwt>
<totfact> 0.29291577E+03</totfact>
</mgrwt>
</event>
<event>
 5    1  0.3422688E-002  0.1250120E+03  0.7818608E-02  0.1235051E+00
         -4   -1    0    0    0  501 -0.00000000000E+00  0.00000000000E+00  0.17275425298E+03  0.17275892111E+03  0.12700000000E+01 0.  1.
          4   -1    0    0  501    0  0.00000000000E+00 -0.00000000000E+00 -0.22593134390E+02  0.22628800710E+02  0.12700000000E+01 0.  1.
         25    2    1    2    0    0  0.00000000000E+00  0.00000000000E+00  0.15016111859E+03  0.19538772182E+03  0.12501200063E+03 0.  0.
    9000005    1    3    3    0    0 -0.54988367689E+02 -0.29516586052E+02  0.69884916108E+02  0.93700858762E+02  0.10000000000E+01 0.  0.
    9000005    1    3    3    0    0  0.54988367689E+02  0.29516586052E+02  0.80276202478E+02  0.10168686305E+03  0.10000000000E+01 0.  0.
<mgrwt>
<rscale>  0 0.12501200E+03</rscale>
<asrwt>0</asrwt>
<pdfrwt beam="2">  1        4 0.34789694E-02 0.12501200E+03</pdfrwt>
<pdfrwt beam="1">  1       -4 0.26580681E-01 0.12501200E+03</pdfrwt>
<totfact> 0.90893804E+03</totfact>
</mgrwt>
</event>
<event>
 5    1  0.3422688E-002  0.1250091E+03  0.7818608E-02  0.1235055E+00
          4   -1    0    0  501    0  0.00000000000E+00  0.00000000000E+00  0.30993558874E+02  0.31019567883E+02  0.12700000000E+01 0.  1.
         -4   -1    0    0    0  501 -0.00000000000E+00 -0.00000000000E+00 -0.12597042752E+03  0.12597682926E+03  0.12700000000E+01 0.  1.
         25    2    1    2    0    0  0.00000000000E+00  0.00000000000E+00 -0.94976868646E+02  0.15699639714E+03  0.12500905222E+03 0.  0.
    9000005    1    3    3    0    0  0.10485079034E+02 -0.50903573578E+02 -0.91078607840E+02  0.10486860107E+03  0.10000000000E+01 0.  0.
    9000005    1    3    3    0    0 -0.10485079034E+02  0.50903573578E+02 -0.38982608060E+01  0.52127796065E+02  0.10000000000E+01 0.  0.
<mgrwt>
<rscale>  0 0.12500905E+03</rscale>
<asrwt>0</asrwt>
<pdfrwt beam="1">  1        4 0.47707330E-02 0.12500905E+03</pdfrwt>
<pdfrwt beam="2">  1       -4 0.19382559E-01 0.12500905E+03</pdfrwt>
<totfact> 0.97905072E+03</totfact>
</mgrwt>
</event>
<event>
 5    1  0.3422688E-002  0.1249683E+03  0.7818608E-02  0.1235119E+00
         -4   -1    0    0    0  501 -0.00000000000E+00  0.00000000000E+00  0.47952542061E+01  0.49605809036E+01  0.12700000000E+01 0. -1.
          4   -1    0    0  501    0  0.00000000000E+00 -0.00000000000E+00 -0.80023083648E+03  0.80023184425E+03  0.12700000000E+01 0. -1.
         25    2    1    2    0    0  0.00000000000E+00  0.00000000000E+00 -0.79543558228E+03  0.80519242516E+03  0.12496829990E+03 0.  0.
    9000005    1    3    3    0    0 -0.41603937950E+02 -0.46575745553E+02 -0.38640774033E+03  0.39142321024E+03  0.10000000000E+01 0.  0.
    9000005    1    3    3    0    0  0.41603937950E+02  0.46575745553E+02 -0.40902784194E+03  0.41376921491E+03  0.10000000000E+01 0.  0.
<mgrwt>
<rscale>  0 0.12496830E+03</rscale>
<asrwt>0</asrwt>
<pdfrwt beam="2">  1        4 0.12312513E+00 0.12496830E+03</pdfrwt>
<pdfrwt beam="1">  1       -4 0.75052701E-03 0.12496830E+03</pdfrwt>
<totfact> 0.38060350E+03</totfact>
</mgrwt>
</event>
<event>
 5    1  0.3422688E-002  0.1250005E+03  0.7818608E-02  0.1235069E+00
         -4   -1    0    0    0  501 -0.00000000000E+00  0.00000000000E+00  0.27984365637E+02  0.28013168691E+02  0.12700000000E+01 0. -1.
          4   -1    0    0  501    0  0.00000000000E+00 -0.00000000000E+00 -0.13948445027E+03  0.13949023180E+03  0.12700000000E+01 0. -1.
         25    2    1    2    0    0  0.00000000000E+00  0.00000000000E+00 -0.11150008464E+03  0.16750340049E+03  0.12500048121E+03 0.  0.
    9000005    1    3    3    0    0 -0.20554374973E+02 -0.56066313363E+02 -0.80435789033E+02  0.10018398067E+03  0.10000000000E+01 0.  0.
    9000005    1    3    3    0    0  0.20554374973E+02  0.56066313363E+02 -0.31064295604E+02  0.67319419828E+02  0.10000000000E+01 0.  0.
<mgrwt>
<rscale>  0 0.12500048E+03</rscale>
<asrwt>0</asrwt>
<pdfrwt beam="2">  1        4 0.21461806E-01 0.12500048E+03</pdfrwt>
<pdfrwt beam="1">  1       -4 0.43079474E-02 0.12500048E+03</pdfrwt>
<totfact> 0.95914341E+03</totfact>
</mgrwt>
</event>
<event>
 5    1  0.3422688E-002  0.1250013E+03  0.7818608E-02  0.1235067E+00
         -4   -1    0    0    0  501 -0.00000000000E+00  0.00000000000E+00  0.36378707369E+03  0.36378929050E+03  0.12700000000E+01 0.  1.
          4   -1    0    0  501    0  0.00000000000E+00 -0.00000000000E+00 -0.10698157560E+02  0.10773275972E+02  0.12700000000E+01 0.  1.
         25    2    1    2    0    0  0.00000000000E+00  0.00000000000E+00  0.35308891613E+03  0.37456256647E+03  0.12500133403E+03 0.  0.
    9000005    1    3    3    0    0 -0.25379088899E+02  0.53975704096E+02  0.23243149588E+03  0.23996432039E+03  0.10000000000E+01 0.  0.
    9000005    1    3    3    0    0  0.25379088899E+02 -0.53975704096E+02  0.12065742025E+03  0.13459824608E+03  0.10000000000E+01 0.  0.
<mgrwt>
<rscale>  0 0.12500133E+03</rscale>
<asrwt>0</asrwt>
<pdfrwt beam="2">  1        4 0.16518193E-02 0.12500133E+03</pdfrwt>
<pdfrwt beam="1">  1       -4 0.55973190E-01 0.12500133E+03</pdfrwt>
<totfact> 0.67102314E+03</totfact>
</mgrwt>
</event>
<event>
 5    1  0.3422688E-002  0.1250040E+03  0.7818608E-02  0.1235063E+00
         -4   -1    0    0    0  501 -0.00000000000E+00  0.00000000000E+00  0.20906389932E+03  0.20906775672E+03  0.12700000000E+01 0. -1.
          4   -1    0    0  501    0  0.00000000000E+00 -0.00000000000E+00 -0.18660068984E+02  0.18703237006E+02  0.12700000000E+01 0. -1.
         25    2    1    2    0    0  0.00000000000E+00  0.00000000000E+00  0.19040383034E+03  0.22777099373E+03  0.12500402784E+03 0.  0.
    9000005    1    3    3    0    0 -0.35337495984E+02 -0.16461720055E+02  0.62020924210E+01  0.39486615454E+02  0.10000000000E+01 0.  0.
    9000005    1    3    3    0    0  0.35337495984E+02  0.16461720055E+02  0.18420173792E+03  0.18828437827E+03  0.10000000000E+01 0.  0.
<mgrwt>
<rscale>  0 0.12500403E+03</rscale>
<asrwt>0</asrwt>
<pdfrwt beam="2">  1        4 0.28743971E-02 0.12500403E+03</pdfrwt>
<pdfrwt beam="1">  1       -4 0.32167295E-01 0.12500403E+03</pdfrwt>
<totfact> 0.85645342E+03</totfact>
</mgrwt>
</event>
<event>
 5    1  0.3422688E-002  0.1250203E+03  0.7818608E-02  0.1235038E+00
         -4   -1    0    0    0  501 -0.00000000000E+00  0.00000000000E+00  0.31732019780E+02  0.31757424003E+02  0.12700000000E+01 0. -1.
          4   -1    0    0  501    0  0.00000000000E+00 -0.00000000000E+00 -0.12306324391E+03  0.12306979687E+03  0.12700000000E+01 0. -1.
         25    2    1    2    0    0  0.00000000000E+00  0.00000000000E+00 -0.91331224135E+02  0.15482722088E+03  0.12502030164E+03 0.  0.
    9000005    1    3    3    0    0  0.71595134525E+01  0.59820798621E+02 -0.66267013332E+02  0.89566196952E+02  0.10000000000E+01 0.  0.
    9000005    1    3    3    0    0 -0.71595134525E+01 -0.59820798621E+02 -0.25064210803E+02  0.65261023925E+02  0.10000000000E+01 0.  0.
<mgrwt>
<rscale>  0 0.12502030E+03</rscale>
<asrwt>0</asrwt>
<pdfrwt beam="2">  1        4 0.18935265E-01 0.12502030E+03</pdfrwt>
<pdfrwt beam="1">  1       -4 0.48843075E-02 0.12502030E+03</pdfrwt>
<totfact> 0.98304536E+03</totfact>
</mgrwt>
</event>
<event>
 5    1  0.3422688E-002  0.1250019E+03  0.7818608E-02  0.1235066E+00
         -4   -1    0    0    0  501 -0.00000000000E+00  0.00000000000E+00  0.77514606535E+02  0.77525009683E+02  0.12700000000E+01 0.  1.
          4   -1    0    0  501    0  0.00000000000E+00 -0.00000000000E+00 -0.50373432614E+02  0.50389439502E+02  0.12700000000E+01 0.  1.
         25    2    1    2    0    0  0.00000000000E+00  0.00000000000E+00  0.27141173921E+02  0.12791444919E+03  0.12500185194E+03 0.  0.
    9000005    1    3    3    0    0 -0.13324369399E+02 -0.49807302916E+01  0.75840913457E+02  0.77169881742E+02  0.10000000000E+01 0.  0.
    9000005    1    3    3    0    0  0.13324369399E+02  0.49807302916E+01 -0.48699739536E+02  0.50744567443E+02  0.10000000000E+01 0.  0.
<mgrwt>
<rscale>  0 0.12500185E+03</rscale>
<asrwt>0</asrwt>
<pdfrwt beam="2">  1        4 0.77517904E-02 0.12500185E+03</pdfrwt>
<pdfrwt beam="1">  1       -4 0.11927356E-01 0.12500185E+03</pdfrwt>
<totfact> 0.10388901E+04</totfact>
</mgrwt>
</event>
<event>
 5    1  0.3422688E-002  0.1249928E+03  0.7818608E-02  0.1235080E+00
          4   -1    0    0  501    0  0.00000000000E+00  0.00000000000E+00  0.61236130511E+02  0.61249298608E+02  0.12700000000E+01 0.  1.
         -4   -1    0    0    0  501 -0.00000000000E+00 -0.00000000000E+00 -0.63756293278E+02  0.63768940971E+02  0.12700000000E+01 0.  1.
         25    2    1    2    0    0  0.00000000000E+00  0.00000000000E+00 -0.25201627666E+01  0.12501823958E+03  0.12499283582E+03 0.  0.
    9000005    1    3    3    0    0 -0.15279376802E+02 -0.28077596424E+02 -0.54964489792E+02  0.63591712625E+02  0.10000000000E+01 0.  0.
    9000005    1    3    3    0    0  0.15279376802E+02  0.28077596424E+02  0.52444327026E+02  0.61426526954E+02  0.10000000000E+01 0.  0.
<mgrwt>
<rscale>  0 0.12499284E+03</rscale>
<asrwt>0</asrwt>
<pdfrwt beam="1">  1        4 0.94229290E-02 0.12499284E+03</pdfrwt>
<pdfrwt beam="2">  1       -4 0.98106463E-02 0.12499284E+03</pdfrwt>
<totfact> 0.10454159E+04</totfact>
</mgrwt>
</event>
<event>
 5    1  0.3422688E-002  0.1249996E+03  0.7818608E-02  0.1235070E+00
         -4   -1    0    0    0  501 -0.00000000000E+00  0.00000000000E+00  0.91273135387E+02  0.91281970527E+02  0.12700000000E+01 0. -1.
          4   -1    0    0  501    0  0.00000000000E+00 -0.00000000000E+00 -0.42776768780E+02  0.42795617150E+02  0.12700000000E+01 0. -1.
         25    2    1    2    0    0  0.00000000000E+00  0.00000000000E+00  0.48496366606E+02  0.13407758768E+03  0.12499960777E+03 0.  0.
    9000005    1    3    3    0    0  0.14986427125E+02  0.13852335787E+02 -0.39107002410E+02  0.44122985418E+02  0.10000000000E+01 0.  0.
    9000005    1    3    3    0    0 -0.14986427125E+02 -0.13852335787E+02  0.87603369016E+02  0.89954602259E+02  0.10000000000E+01 0.  0.
<mgrwt>
<rscale>  0 0.12499961E+03</rscale>
<asrwt>0</asrwt>
<pdfrwt beam="2">  1        4 0.65831710E-02 0.12499961E+03</pdfrwt>
<pdfrwt beam="1">  1       -4 0.14044150E-01 0.12499961E+03</pdfrwt>
<totfact> 0.10257640E+04</totfact>
</mgrwt>
</event>
<event>
 5    1  0.3422688E-002  0.1250025E+03  0.7818608E-02  0.1235065E+00
         -4   -1    0    0    0  501 -0.00000000000E+00  0.00000000000E+00  0.14099228072E+02  0.14156310686E+02  0.12700000000E+01 0. -1.
          4   -1    0    0  501    0  0.00000000000E+00 -0.00000000000E+00 -0.27644706973E+03  0.27644998691E+03  0.12700000000E+01 0. -1.
         25    2    1    2    0    0  0.00000000000E+00  0.00000000000E+00 -0.26234784166E+03  0.29060629759E+03  0.12500252069E+03 0.  0.
    9000005    1    3    3    0    0 -0.32960252062E+02  0.41337670152E+02 -0.53711330231E+02  0.75372993736E+02  0.10000000000E+01 0.  0.
    9000005    1    3    3    0    0  0.32960252062E+02 -0.41337670152E+02 -0.20863651143E+03  0.21523330386E+03  0.10000000000E+01 0.  0.
<mgrwt>
<rscale>  0 0.12500252E+03</rscale>
<asrwt>0</asrwt>
<pdfrwt beam="2">  1        4 0.42534930E-01 0.12500252E+03</pdfrwt>
<pdfrwt beam="1">  1       -4 0.21737276E-02 0.12500252E+03</pdfrwt>
<totfact> 0.76788183E+03</totfact>
</mgrwt>
</event>
<event>
 5    1  0.3422688E-002  0.1250032E+03  0.7818608E-02  0.1235064E+00
         -4   -1    0    0    0  501 -0.00000000000E+00  0.00000000000E+00  0.16209750775E+03  0.16210248276E+03  0.12700000000E+01 0.  1.
          4   -1    0    0  501    0  0.00000000000E+00 -0.00000000000E+00 -0.24077315856E+02  0.24110786773E+02  0.12700000000E+01 0.  1.
         25    2    1    2    0    0  0.00000000000E+00  0.00000000000E+00  0.13802019189E+03  0.18621326954E+03  0.12500323349E+03 0.  0.
    9000005    1    3    3    0    0 -0.46280752849E+02 -0.39625227368E+02  0.89725870838E+02  0.10846104658E+03  0.10000000000E+01 0.  0.
    9000005    1    3    3    0    0  0.46280752849E+02  0.39625227368E+02  0.48294321055E+02  0.77752222955E+02  0.10000000000E+01 0.  0.
<mgrwt>
<rscale>  0 0.12500323E+03</rscale>
<asrwt>0</asrwt>
<pdfrwt beam="2">  1        4 0.37071597E-02 0.12500323E+03</pdfrwt>
<pdfrwt beam="1">  1       -4 0.24941036E-01 0.12500323E+03</pdfrwt>
<totfact> 0.92503696E+03</totfact>
</mgrwt>
</event>
<event>
 5    1  0.3422688E-002  0.1250017E+03  0.7818608E-02  0.1235067E+00
         -4   -1    0    0    0  501 -0.00000000000E+00  0.00000000000E+00  0.39330947174E+02  0.39351446042E+02  0.12700000000E+01 0.  1.
          4   -1    0    0  501    0  0.00000000000E+00 -0.00000000000E+00 -0.99269669118E+02  0.99277792616E+02  0.12700000000E+01 0.  1.
         25    2    1    2    0    0  0.00000000000E+00  0.00000000000E+00 -0.59938721944E+02  0.13862923866E+03  0.12500166168E+03 0.  0.
    9000005    1    3    3    0    0 -0.55198920325E+01 -0.27474536365E+02  0.31977420933E+02  0.42530868861E+02  0.10000000000E+01 0.  0.
    9000005    1    3    3    0    0  0.55198920325E+01  0.27474536365E+02 -0.91916142876E+02  0.96098369798E+02  0.10000000000E+01 0.  0.
<mgrwt>
<rscale>  0 0.12500166E+03</rscale>
<asrwt>0</asrwt>
<pdfrwt beam="2">  1        4 0.15274458E-01 0.12500166E+03</pdfrwt>
<pdfrwt beam="1">  1       -4 0.60531167E-02 0.12500166E+03</pdfrwt>
<totfact> 0.10161694E+04</totfact>
</mgrwt>
</event>
<event>
 5    1  0.3422688E-002  0.1250008E+03  0.7818608E-02  0.1235068E+00
          4   -1    0    0  501    0  0.00000000000E+00  0.00000000000E+00  0.18742149758E+03  0.18742580040E+03  0.12700000000E+01 0.  1.
         -4   -1    0    0    0  501 -0.00000000000E+00 -0.00000000000E+00 -0.20818424232E+02  0.20857125581E+02  0.12700000000E+01 0.  1.
         25    2    1    2    0    0  0.00000000000E+00  0.00000000000E+00  0.16660307335E+03  0.20828292598E+03  0.12500077282E+03 0.  0.
    9000005    1    3    3    0    0  0.44676513366E+02 -0.34635245350E+02  0.12769107091E+03  0.13964813159E+03  0.10000000000E+01 0.  0.
    9000005    1    3    3    0    0 -0.44676513366E+02  0.34635245350E+02  0.38912002439E+02  0.68634794389E+02  0.10000000000E+01 0.  0.
<mgrwt>
<rscale>  0 0.12500077E+03</rscale>
<asrwt>0</asrwt>
<pdfrwt beam="1">  1        4 0.28837384E-01 0.12500077E+03</pdfrwt>
<pdfrwt beam="2">  1       -4 0.32061425E-02 0.12500077E+03</pdfrwt>
<totfact> 0.88755537E+03</totfact>
</mgrwt>
</event>
<event>
 5    1  0.3422688E-002  0.1250007E+03  0.7818608E-02  0.1235068E+00
          4   -1    0    0  501    0  0.00000000000E+00  0.00000000000E+00  0.28617452161E+03  0.28617733964E+03  0.12700000000E+01 0.  1.
         -4   -1    0    0    0  501 -0.00000000000E+00 -0.00000000000E+00 -0.13617597988E+02  0.13676690937E+02  0.12700000000E+01 0.  1.
         25    2    1    2    0    0  0.00000000000E+00  0.00000000000E+00  0.27255692362E+03  0.29985403057E+03  0.12500065214E+03 0.  0.
    9000005    1    3    3    0    0 -0.55094272817E+02  0.28458728899E+02  0.11769533149E+03  0.13303559374E+03  0.10000000000E+01 0.  0.
    9000005    1    3    3    0    0  0.55094272817E+02 -0.28458728899E+02  0.15486159214E+03  0.16681843683E+03  0.10000000000E+01 0.  0.
<mgrwt>
<rscale>  0 0.12500065E+03</rscale>
<asrwt>0</asrwt>
<pdfrwt beam="1">  1        4 0.44031610E-01 0.12500065E+03</pdfrwt>
<pdfrwt beam="2">  1       -4 0.20997776E-02 0.12500065E+03</pdfrwt>
<totfact> 0.75616058E+03</totfact>
</mgrwt>
</event>
<event>
 5    1  0.3422688E-002  0.1249974E+03  0.7818608E-02  0.1235073E+00
          4   -1    0    0  501    0  0.00000000000E+00  0.00000000000E+00  0.55483446624E+01  0.56918387620E+01  0.12700000000E+01 0.  1.
         -4   -1    0    0    0  501 -0.00000000000E+00 -0.00000000000E+00 -0.69487747842E+03  0.69487863898E+03  0.12700000000E+01 0.  1.
         25    2    1    2    0    0  0.00000000000E+00  0.00000000000E+00 -0.68932913376E+03  0.70057047774E+03  0.12499735854E+03 0.  0.
    9000005    1    3    3    0    0  0.56206925552E+02  0.98371914902E+01 -0.48745709880E+03  0.49078652385E+03  0.10000000000E+01 0.  0.
    9000005    1    3    3    0    0 -0.56206925552E+02 -0.98371914902E+01 -0.20187203495E+03  0.20978395390E+03  0.10000000000E+01 0.  0.
<mgrwt>
<rscale>  0 0.12499736E+03</rscale>
<asrwt>0</asrwt>
<pdfrwt beam="1">  1        4 0.86471932E-03 0.12499736E+03</pdfrwt>
<pdfrwt beam="2">  1       -4 0.10691529E+00 0.12499736E+03</pdfrwt>
<totfact> 0.43059103E+03</totfact>
</mgrwt>
</event>
<event>
 5    1  0.3422688E-002  0.1250022E+03  0.7818608E-02  0.1235066E+00
         -4   -1    0    0    0  501 -0.00000000000E+00  0.00000000000E+00  0.16639694070E+02  0.16688089128E+02  0.12700000000E+01 0.  1.
          4   -1    0    0  501    0  0.00000000000E+00 -0.00000000000E+00 -0.23437229049E+03  0.23437573136E+03  0.12700000000E+01 0.  1.
         25    2    1    2    0    0  0.00000000000E+00  0.00000000000E+00 -0.21773259642E+03  0.25106382049E+03  0.12500223363E+03 0.  0.
    9000005    1    3    3    0    0  0.40624146526E+02 -0.35674075261E+02 -0.17181936261E+03  0.18012732801E+03  0.10000000000E+01 0.  0.
    9000005    1    3    3    0    0 -0.40624146526E+02  0.35674075261E+02 -0.45913233815E+02  0.70936492485E+02  0.10000000000E+01 0.  0.
<mgrwt>
<rscale>  0 0.12500223E+03</rscale>
<asrwt>0</asrwt>
<pdfrwt beam="2">  1        4 0.36061260E-01 0.12500223E+03</pdfrwt>
<pdfrwt beam="1">  1       -4 0.25639405E-02 0.12500223E+03</pdfrwt>
<totfact> 0.82172628E+03</totfact>
</mgrwt>
</event>
<event>
 5    1  0.3422688E-002  0.1249820E+03  0.7818608E-02  0.1235097E+00
          4   -1    0    0  501    0  0.00000000000E+00  0.00000000000E+00  0.75121691635E+01  0.76187653554E+01  0.12700000000E+01 0.  1.
         -4   -1    0    0    0  501 -0.00000000000E+00 -0.00000000000E+00 -0.51607025511E+03  0.51607181778E+03  0.12700000000E+01 0.  1.
         25    2    1    2    0    0  0.00000000000E+00  0.00000000000E+00 -0.50855808594E+03  0.52369058314E+03  0.12498199905E+03 0.  0.
    9000005    1    3    3    0    0  0.32757813543E+02  0.49542196331E+02 -0.17296232779E+03  0.18287829395E+03  0.10000000000E+01 0.  0.
    9000005    1    3    3    0    0 -0.32757813543E+02 -0.49542196331E+02 -0.33559575815E+03  0.34081228918E+03  0.10000000000E+01 0.  0.
<mgrwt>
<rscale>  0 0.12498200E+03</rscale>
<asrwt>0</asrwt>
<pdfrwt beam="1">  1        4 0.11640387E-02 0.12498200E+03</pdfrwt>
<pdfrwt beam="2">  1       -4 0.79403716E-01 0.12498200E+03</pdfrwt>
<totfact> 0.54093409E+03</totfact>
</mgrwt>
</event>
<event>
 5    1  0.3422688E-002  0.1250002E+03  0.7818608E-02  0.1235069E+00
         -4   -1    0    0    0  501 -0.00000000000E+00  0.00000000000E+00  0.26337193022E+01  0.29239318328E+01  0.12700000000E+01 0. -1.
          4   -1    0    0  501    0  0.00000000000E+00 -0.00000000000E+00 -0.14054337774E+04  0.14054343512E+04  0.12700000000E+01 0. -1.
         25    2    1    2    0    0  0.00000000000E+00  0.00000000000E+00 -0.14028000581E+04  0.14083582831E+04  0.12500020165E+03 0.  0.
    9000005    1    3    3    0    0  0.93541316413E+01  0.61461280258E+02 -0.62989871374E+03  0.63296001321E+03  0.10000000000E+01 0.  0.
    9000005    1    3    3    0    0 -0.93541316413E+01 -0.61461280258E+02 -0.77290134439E+03  0.77539826986E+03  0.10000000000E+01 0.  0.
<mgrwt>
<rscale>  0 0.12500020E+03</rscale>
<asrwt>0</asrwt>
<pdfrwt beam="2">  1        4 0.21624238E+00 0.12500020E+03</pdfrwt>
<pdfrwt beam="1">  1       -4 0.42755689E-03 0.12500020E+03</pdfrwt>
<totfact> 0.19802259E+03</totfact>
</mgrwt>
</event>
<event>
 5    1  0.3422688E-002  0.1250007E+03  0.7818608E-02  0.1235068E+00
          4   -1    0    0  501    0  0.00000000000E+00  0.00000000000E+00  0.15862728253E+02  0.15913486344E+02  0.12700000000E+01 0. -1.
         -4   -1    0    0    0  501 -0.00000000000E+00 -0.00000000000E+00 -0.24581020775E+03  0.24581348851E+03  0.12700000000E+01 0. -1.
         25    2    1    2    0    0  0.00000000000E+00  0.00000000000E+00 -0.22994747950E+03  0.26172697486E+03  0.12500066416E+03 0.  0.
    9000005    1    3    3    0    0  0.45973256736E+01  0.30501796919E+02 -0.11778829549E+01  0.30884987079E+02  0.10000000000E+01 0.  0.
    9000005    1    3    3    0    0 -0.45973256736E+01 -0.30501796919E+02 -0.22876959655E+03  0.23084198778E+03  0.10000000000E+01 0.  0.
<mgrwt>
<rscale>  0 0.12500066E+03</rscale>
<asrwt>0</asrwt>
<pdfrwt beam="1">  1        4 0.24445767E-02 0.12500066E+03</pdfrwt>
<pdfrwt beam="2">  1       -4 0.37821109E-01 0.12500066E+03</pdfrwt>
<totfact> 0.80663122E+03</totfact>
</mgrwt>
</event>
<event>
 5    1  0.3422688E-002  0.1249968E+03  0.7818608E-02  0.1235074E+00
         -4   -1    0    0    0  501 -0.00000000000E+00  0.00000000000E+00  0.99193082941E+02  0.99201212711E+02  0.12700000000E+01 0.  1.
          4   -1    0    0  501    0  0.00000000000E+00 -0.00000000000E+00 -0.39358236613E+02  0.39378721276E+02  0.12700000000E+01 0.  1.
         25    2    1    2    0    0  0.00000000000E+00  0.00000000000E+00  0.59834846327E+02  0.13857993399E+03  0.12499675703E+03 0.  0.
    9000005    1    3    3    0    0  0.37512871168E+02  0.39739540019E+02 -0.36845675719E+01  0.54781589812E+02  0.10000000000E+01 0.  0.
    9000005    1    3    3    0    0 -0.37512871168E+02 -0.39739540019E+02  0.63519413899E+02  0.83798344174E+02  0.10000000000E+01 0.  0.
<mgrwt>
<rscale>  0 0.12499676E+03</rscale>
<asrwt>0</asrwt>
<pdfrwt beam="2">  1        4 0.60573145E-02 0.12499676E+03</pdfrwt>
<pdfrwt beam="1">  1       -4 0.15262675E-01 0.12499676E+03</pdfrwt>
<totfact> 0.10163845E+04</totfact>
</mgrwt>
</event>
<event>
 5    1  0.3422688E-002  0.1249924E+03  0.7818608E-02  0.1235081E+00
          4   -1    0    0  501    0  0.00000000000E+00  0.00000000000E+00  0.24650918968E+02  0.24683612093E+02  0.12700000000E+01 0. -1.
         -4   -1    0    0    0  501 -0.00000000000E+00 -0.00000000000E+00 -0.15830319000E+03  0.15830828425E+03  0.12700000000E+01 0. -1.
         25    2    1    2    0    0  0.00000000000E+00  0.00000000000E+00 -0.13365227103E+03  0.18299189635E+03  0.12499241808E+03 0.  0.
    9000005    1    3    3    0    0 -0.14447782952E+02  0.23730476924E+02  0.15118703260E+02  0.31645681467E+02  0.10000000000E+01 0.  0.
    9000005    1    3    3    0    0  0.14447782952E+02 -0.23730476924E+02 -0.14877097429E+03  0.15134621488E+03  0.10000000000E+01 0.  0.
<mgrwt>
<rscale>  0 0.12499242E+03</rscale>
<asrwt>0</asrwt>
<pdfrwt beam="1">  1        4 0.37953559E-02 0.12499242E+03</pdfrwt>
<pdfrwt beam="2">  1       -4 0.24357243E-01 0.12499242E+03</pdfrwt>
<totfact> 0.93097029E+03</totfact>
</mgrwt>
</event>
<event>
 5    1  0.3422688E-002  0.1250535E+03  0.7818608E-02  0.1234986E+00
         -4   -1    0    0    0  501 -0.00000000000E+00  0.00000000000E+00  0.20460699418E+03  0.20461093560E+03  0.12700000000E+01 0.  1.
          4   -1    0    0  501    0  0.00000000000E+00 -0.00000000000E+00 -0.19082602905E+02  0.19124817218E+02  0.12700000000E+01 0.  1.
         25    2    1    2    0    0  0.00000000000E+00  0.00000000000E+00  0.18552439127E+03  0.22373575282E+03  0.12505353786E+03 0.  0.
    9000005    1    3    3    0    0 -0.57416634930E+02  0.60196697874E+01  0.49834861755E+02  0.76272012149E+02  0.10000000000E+01 0.  0.
    9000005    1    3    3    0    0  0.57416634930E+02 -0.60196697874E+01  0.13568952952E+03  0.14746374067E+03  0.10000000000E+01 0.  0.
<mgrwt>
<rscale>  0 0.12505354E+03</rscale>
<asrwt>0</asrwt>
<pdfrwt beam="2">  1        4 0.29393357E-02 0.12505354E+03</pdfrwt>
<pdfrwt beam="1">  1       -4 0.31481548E-01 0.12505354E+03</pdfrwt>
<totfact> 0.86177582E+03</totfact>
</mgrwt>
</event>
<event>
 5    1  0.3422688E-002  0.1250011E+03  0.7818608E-02  0.1235068E+00
         -4   -1    0    0    0  501 -0.00000000000E+00  0.00000000000E+00  0.40650923246E+03  0.40651121630E+03  0.12700000000E+01 0.  1.
          4   -1    0    0  501    0  0.00000000000E+00 -0.00000000000E+00 -0.95654409972E+01  0.96493814035E+01  0.12700000000E+01 0.  1.
         25    2    1    2    0    0  0.00000000000E+00  0.00000000000E+00  0.39694379146E+03  0.41616059770E+03  0.12500107799E+03 0.  0.
    9000005    1    3    3    0    0 -0.61754405590E+01  0.17875412628E+01 -0.84778859854E+01  0.10686717019E+02  0.10000000000E+01 0.  0.
    9000005    1    3    3    0    0  0.61754405590E+01 -0.17875412628E+01  0.40542167745E+03  0.40547388068E+03  0.10000000000E+01 0.  0.
<mgrwt>
<rscale>  0 0.12500108E+03</rscale>
<asrwt>0</asrwt>
<pdfrwt beam="2">  1        4 0.14782158E-02 0.12500108E+03</pdfrwt>
<pdfrwt beam="1">  1       -4 0.62546496E-01 0.12500108E+03</pdfrwt>
<totfact> 0.63009299E+03</totfact>
</mgrwt>
</event>
<event>
 5    1  0.3422688E-002  0.1250002E+03  0.7818608E-02  0.1235069E+00
         -4   -1    0    0    0  501 -0.00000000000E+00  0.00000000000E+00  0.16829539694E+02  0.16877390388E+02  0.12700000000E+01 0. -1.
          4   -1    0    0  501    0  0.00000000000E+00 -0.00000000000E+00 -0.23172845209E+03  0.23173193222E+03  0.12700000000E+01 0. -1.
         25    2    1    2    0    0  0.00000000000E+00  0.00000000000E+00 -0.21489891240E+03  0.24860932261E+03  0.12500021095E+03 0.  0.
    9000005    1    3    3    0    0  0.22620289386E+02 -0.49112202263E+02 -0.45137854714E+02  0.70442258845E+02  0.10000000000E+01 0.  0.
    9000005    1    3    3    0    0 -0.22620289386E+02  0.49112202263E+02 -0.16976105768E+03  0.17816706376E+03  0.10000000000E+01 0.  0.
<mgrwt>
<rscale>  0 0.12500021E+03</rscale>
<asrwt>0</asrwt>
<pdfrwt beam="2">  1        4 0.35654477E-01 0.12500021E+03</pdfrwt>
<pdfrwt beam="1">  1       -4 0.25931086E-02 0.12500021E+03</pdfrwt>
<totfact> 0.82531253E+03</totfact>
</mgrwt>
</event>
<event>
 5    1  0.3422688E-002  0.1250012E+03  0.7818608E-02  0.1235067E+00
         -4   -1    0    0    0  501 -0.00000000000E+00  0.00000000000E+00  0.13521614810E+03  0.13522211212E+03  0.12700000000E+01 0.  1.
          4   -1    0    0  501    0  0.00000000000E+00 -0.00000000000E+00 -0.28868901786E+02  0.28896823187E+02  0.12700000000E+01 0.  1.
         25    2    1    2    0    0  0.00000000000E+00  0.00000000000E+00  0.10634724631E+03  0.16411893531E+03  0.12500115251E+03 0.  0.
    9000005    1    3    3    0    0 -0.35249293358E+02 -0.57768391653E+01  0.12049858224E+03  0.12568529299E+03  0.10000000000E+01 0.  0.
    9000005    1    3    3    0    0  0.35249293358E+02  0.57768391653E+01 -0.14151335928E+02  0.38433642314E+02  0.10000000000E+01 0.  0.
<mgrwt>
<rscale>  0 0.12500115E+03</rscale>
<asrwt>0</asrwt>
<pdfrwt beam="2">  1        4 0.44439762E-02 0.12500115E+03</pdfrwt>
<pdfrwt beam="1">  1       -4 0.20805090E-01 0.12500115E+03</pdfrwt>
<totfact> 0.96552013E+03</totfact>
</mgrwt>
</event>
<event>
 5    1  0.3422688E-002  0.1250027E+03  0.7818608E-02  0.1235065E+00
          4   -1    0    0  501    0  0.00000000000E+00  0.00000000000E+00  0.12987871782E+03  0.12988492692E+03  0.12700000000E+01 0.  1.
         -4   -1    0    0    0  501 -0.00000000000E+00 -0.00000000000E+00 -0.30057108698E+02  0.30083927325E+02  0.12700000000E+01 0.  1.
         25    2    1    2    0    0  0.00000000000E+00  0.00000000000E+00  0.99821609117E+02  0.15996885425E+03  0.12500272270E+03 0.  0.
    9000005    1    3    3    0    0 -0.55854990693E+02  0.13907177810E+02  0.81053871542E+02  0.99417904182E+02  0.10000000000E+01 0.  0.
    9000005    1    3    3    0    0  0.55854990693E+02 -0.13907177810E+02  0.18767737575E+02  0.60550950064E+02  0.10000000000E+01 0.  0.
<mgrwt>
<rscale>  0 0.12500272E+03</rscale>
<asrwt>0</asrwt>
<pdfrwt beam="1">  1        4 0.19983882E-01 0.12500272E+03</pdfrwt>
<pdfrwt beam="2">  1       -4 0.46267111E-02 0.12500272E+03</pdfrwt>
<totfact> 0.97342832E+03</totfact>
</mgrwt>
</event>
<event>
 5    1  0.3422688E-002  0.1249958E+03  0.7818608E-02  0.1235076E+00
         -4   -1    0    0    0  501 -0.00000000000E+00  0.00000000000E+00  0.17521355724E+02  0.17567322118E+02  0.12700000000E+01 0. -1.
          4   -1    0    0  501    0  0.00000000000E+00 -0.00000000000E+00 -0.22258757481E+03  0.22259119785E+03  0.12700000000E+01 0. -1.
         25    2    1    2    0    0  0.00000000000E+00  0.00000000000E+00 -0.20506621909E+03  0.24015851997E+03  0.12499584194E+03 0.  0.
    9000005    1    3    3    0    0 -0.47656118364E+02  0.34385567522E+02 -0.61706848530E+02  0.85218589679E+02  0.10000000000E+01 0.  0.
    9000005    1    3    3    0    0  0.47656118364E+02 -0.34385567522E+02 -0.14335937056E+03  0.15493993029E+03  0.10000000000E+01 0.  0.
<mgrwt>
<rscale>  0 0.12499584E+03</rscale>
<asrwt>0</asrwt>
<pdfrwt beam="2">  1        4 0.34248055E-01 0.12499584E+03</pdfrwt>
<pdfrwt beam="1">  1       -4 0.26994079E-02 0.12499584E+03</pdfrwt>
<totfact> 0.83781531E+03</totfact>
</mgrwt>
</event>
<event>
 5    1  0.3422688E-002  0.1250035E+03  0.7818608E-02  0.1235064E+00
          4   -1    0    0  501    0  0.00000000000E+00  0.00000000000E+00  0.25356772209E+03  0.25357090248E+03  0.12700000000E+01 0. -1.
         -4   -1    0    0    0  501 -0.00000000000E+00 -0.00000000000E+00 -0.15376554070E+02  0.15428911661E+02  0.12700000000E+01 0. -1.
         25    2    1    2    0    0  0.00000000000E+00  0.00000000000E+00  0.23819116802E+03  0.26899981414E+03  0.12500346990E+03 0.  0.
    9000005    1    3    3    0    0 -0.57739904726E+02 -0.22788273258E+02  0.10353826086E+03  0.12072436977E+03  0.10000000000E+01 0.  0.
    9000005    1    3    3    0    0  0.57739904726E+02  0.22788273258E+02  0.13465290716E+03  0.14827544437E+03  0.10000000000E+01 0.  0.
<mgrwt>
<rscale>  0 0.12500347E+03</rscale>
<asrwt>0</asrwt>
<pdfrwt beam="1">  1        4 0.39014691E-01 0.12500347E+03</pdfrwt>
<pdfrwt beam="2">  1       -4 0.23698958E-02 0.12500347E+03</pdfrwt>
<totfact> 0.79653272E+03</totfact>
</mgrwt>
</event>
<event>
 5    1  0.3422688E-002  0.1250017E+03  0.7818608E-02  0.1235067E+00
         -4   -1    0    0    0  501 -0.00000000000E+00  0.00000000000E+00  0.22131739954E+02  0.22168148624E+02  0.12700000000E+01 0. -1.
          4   -1    0    0  501    0  0.00000000000E+00 -0.00000000000E+00 -0.17632082341E+03  0.17632539712E+03  0.12700000000E+01 0. -1.
         25    2    1    2    0    0  0.00000000000E+00  0.00000000000E+00 -0.15418908346E+03  0.19849354574E+03  0.12500165696E+03 0.  0.
    9000005    1    3    3    0    0 -0.36002816293E+02 -0.50574228459E+02 -0.65710288262E+02  0.90403525090E+02  0.10000000000E+01 0.  0.
    9000005    1    3    3    0    0  0.36002816293E+02  0.50574228459E+02 -0.88478795198E+02  0.10809002065E+03  0.10000000000E+01 0.  0.
<mgrwt>
<rscale>  0 0.12500166E+03</rscale>
<asrwt>0</asrwt>
<pdfrwt beam="2">  1        4 0.27129432E-01 0.12500166E+03</pdfrwt>
<pdfrwt beam="1">  1       -4 0.34080357E-02 0.12500166E+03</pdfrwt>
<totfact> 0.90386755E+03</totfact>
</mgrwt>
</event>
<event>
 5    1  0.3422688E-002  0.1250005E+03  0.7818608E-02  0.1235068E+00
         -4   -1    0    0    0  501 -0.00000000000E+00  0.00000000000E+00  0.16863178935E+01  0.21110585112E+01  0.12700000000E+01 0.  1.
          4   -1    0    0  501    0  0.00000000000E+00 -0.00000000000E+00 -0.20569329897E+04  0.20569333818E+04  0.12700000000E+01 0.  1.
         25    2    1    2    0    0  0.00000000000E+00  0.00000000000E+00 -0.20552466719E+04  0.20590444403E+04  0.12500050023E+03 0.  0.
    9000005    1    3    3    0    0  0.26416598648E+02  0.45370382181E+02 -0.15859763706E+04  0.15868454104E+04  0.10000000000E+01 0.  0.
    9000005    1    3    3    0    0 -0.26416598648E+02 -0.45370382181E+02 -0.46927030121E+03  0.47219902992E+03  0.10000000000E+01 0.  0.
<mgrwt>
<rscale>  0 0.12500050E+03</rscale>
<asrwt>0</asrwt>
<pdfrwt beam="2">  1        4 0.31648215E+00 0.12500050E+03</pdfrwt>
<pdfrwt beam="1">  1       -4 0.29213768E-03 0.12500050E+03</pdfrwt>
<totfact> 0.91101906E+02</totfact>
</mgrwt>
</event>
<event>
 5    1  0.3422688E-002  0.1249974E+03  0.7818608E-02  0.1235073E+00
          4   -1    0    0  501    0  0.00000000000E+00  0.00000000000E+00  0.19036815882E+03  0.19037239504E+03  0.12700000000E+01 0. -1.
         -4   -1    0    0    0  501 -0.00000000000E+00 -0.00000000000E+00 -0.20494484907E+02  0.20533796814E+02  0.12700000000E+01 0. -1.
         25    2    1    2    0    0  0.00000000000E+00  0.00000000000E+00  0.16987367391E+03  0.21090619185E+03  0.12499742666E+03 0.  0.
    9000005    1    3    3    0    0  0.51213924425E+02  0.81345379289E+01  0.26097956121E+02  0.58061519753E+02  0.10000000000E+01 0.  0.
    9000005    1    3    3    0    0 -0.51213924425E+02 -0.81345379289E+01  0.14377571779E+03  0.15284467210E+03  0.10000000000E+01 0.  0.
<mgrwt>
<rscale>  0 0.12499743E+03</rscale>
<asrwt>0</asrwt>
<pdfrwt beam="1">  1        4 0.29290759E-01 0.12499743E+03</pdfrwt>
<pdfrwt beam="2">  1       -4 0.31563476E-02 0.12499743E+03</pdfrwt>
<totfact> 0.88333183E+03</totfact>
</mgrwt>
</event>
<event>
 5    1  0.3422688E-002  0.1250021E+03  0.7818608E-02  0.1235066E+00
         -4   -1    0    0    0  501 -0.00000000000E+00  0.00000000000E+00  0.83017960632E+02  0.83027674227E+02  0.12700000000E+01 0. -1.
          4   -1    0    0  501    0  0.00000000000E+00 -0.00000000000E+00 -0.47033609809E+02  0.47050752934E+02  0.12700000000E+01 0. -1.
         25    2    1    2    0    0  0.00000000000E+00  0.00000000000E+00  0.35984350824E+02  0.13007842716E+03  0.12500209482E+03 0.  0.
    9000005    1    3    3    0    0 -0.18358518709E+01 -0.42938791070E+01 -0.46856891620E+02  0.47099639512E+02  0.10000000000E+01 0.  0.
    9000005    1    3    3    0    0  0.18358518709E+01  0.42938791070E+01  0.82841242444E+02  0.82978787648E+02  0.10000000000E+01 0.  0.
<mgrwt>
<rscale>  0 0.12500209E+03</rscale>
<asrwt>0</asrwt>
<pdfrwt beam="2">  1        4 0.72380059E-02 0.12500209E+03</pdfrwt>
<pdfrwt beam="1">  1       -4 0.12774060E-01 0.12500209E+03</pdfrwt>
<totfact> 0.10342341E+04</totfact>
</mgrwt>
</event>
<event>
 5    1  0.3422688E-002  0.1250002E+03  0.7818608E-02  0.1235069E+00
         -4   -1    0    0    0  501 -0.00000000000E+00  0.00000000000E+00  0.14909698062E+03  0.14910238942E+03  0.12700000000E+01 0.  1.
          4   -1    0    0  501    0  0.00000000000E+00 -0.00000000000E+00 -0.26178216161E+02  0.26209004205E+02  0.12700000000E+01 0.  1.
         25    2    1    2    0    0  0.00000000000E+00  0.00000000000E+00  0.12291876446E+03  0.17531139363E+03  0.12500024831E+03 0.  0.
    9000005    1    3    3    0    0 -0.17976328432E+02  0.59789781658E+02  0.65248475184E+02  0.90312401631E+02  0.10000000000E+01 0.  0.
    9000005    1    3    3    0    0  0.17976328432E+02 -0.59789781658E+02  0.57670289279E+02  0.84998991995E+02  0.10000000000E+01 0.  0.
<mgrwt>
<rscale>  0 0.12500025E+03</rscale>
<asrwt>0</asrwt>
<pdfrwt beam="2">  1        4 0.40302023E-02 0.12500025E+03</pdfrwt>
<pdfrwt beam="1">  1       -4 0.22940781E-01 0.12500025E+03</pdfrwt>
<totfact> 0.94467314E+03</totfact>
</mgrwt>
</event>
<event>
 4    1  0.3422688E-002  0.1246112E+03  0.7818608E-02  0.1235678E+00
          4   -1    0    0  501    0  0.00000000000E+00  0.00000000000E+00  0.10779065204E+03  0.10779813341E+03  0.12700000000E+01 0. -1.
         -4   -1    0    0    0  501 -0.00000000000E+00 -0.00000000000E+00 -0.35994222601E+02  0.36016620616E+02  0.12700000000E+01 0. -1.
    9000005    1    1    2    0    0 -0.13648492456E+02 -0.57533070534E+02  0.58533247986E+02  0.83207431586E+02  0.10000000000E+01 0.  0.
    9000005    1    1    2    0    0  0.13648492456E+02  0.57533070534E+02  0.13263181454E+02  0.60607322443E+02  0.10000000000E+01 0.  0.
<mgrwt>
<rscale>  0 0.12461122E+03</rscale>
<asrwt>0</asrwt>
<pdfrwt beam="1">  1        4 0.16585476E-01 0.12461122E+03</pdfrwt>
<pdfrwt beam="2">  1       -4 0.55398711E-02 0.12461122E+03</pdfrwt>
<totfact> 0.10143673E+04</totfact>
</mgrwt>
</event>
<event>
 5    1  0.3422688E-002  0.1249991E+03  0.7818608E-02  0.1235071E+00
          4   -1    0    0  501    0  0.00000000000E+00  0.00000000000E+00  0.33557868826E+03  0.33558109142E+03  0.12700000000E+01 0.  1.
         -4   -1    0    0    0  501 -0.00000000000E+00 -0.00000000000E+00 -0.11603080131E+02  0.11672376302E+02  0.12700000000E+01 0.  1.
         25    2    1    2    0    0  0.00000000000E+00  0.00000000000E+00  0.32397560813E+03  0.34725346772E+03  0.12499910471E+03 0.  0.
    9000005    1    3    3    0    0 -0.78589664048E+01 -0.34766589781E+02  0.19392079319E+02  0.40589799929E+02  0.10000000000E+01 0.  0.
    9000005    1    3    3    0    0  0.78589664048E+01  0.34766589781E+02  0.30458352881E+03  0.30666366779E+03  0.10000000000E+01 0.  0.
<mgrwt>
<rscale>  0 0.12499910E+03</rscale>
<asrwt>0</asrwt>
<pdfrwt beam="1">  1        4 0.51633014E-01 0.12499910E+03</pdfrwt>
<pdfrwt beam="2">  1       -4 0.17906043E-02 0.12499910E+03</pdfrwt>
<totfact> 0.70029148E+03</totfact>
</mgrwt>
</event>
<event>
 5    1  0.3422688E-002  0.1250004E+03  0.7818608E-02  0.1235069E+00
          4   -1    0    0  501    0  0.00000000000E+00  0.00000000000E+00  0.52897401842E+01  0.54400598541E+01  0.12700000000E+01 0. -1.
         -4   -1    0    0    0  501 -0.00000000000E+00 -0.00000000000E+00 -0.72796580124E+03  0.72796690905E+03  0.12700000000E+01 0. -1.
         25    2    1    2    0    0  0.00000000000E+00  0.00000000000E+00 -0.72267606106E+03  0.73340696891E+03  0.12500037127E+03 0.  0.
    9000005    1    3    3    0    0 -0.38002864079E+02  0.45552360201E+02 -0.47661664853E+03  0.48029539333E+03  0.10000000000E+01 0.  0.
    9000005    1    3    3    0    0  0.38002864079E+02 -0.45552360201E+02 -0.24605941252E+03  0.25311157557E+03  0.10000000000E+01 0.  0.
<mgrwt>
<rscale>  0 0.12500037E+03</rscale>
<asrwt>0</asrwt>
<pdfrwt beam="1">  1        4 0.82545503E-03 0.12500037E+03</pdfrwt>
<pdfrwt beam="2">  1       -4 0.11200631E+00 0.12500037E+03</pdfrwt>
<totfact> 0.41380323E+03</totfact>
</mgrwt>
</event>
<event>
 5    1  0.3422688E-002  0.1250466E+03  0.7818608E-02  0.1234996E+00
          4   -1    0    0  501    0  0.00000000000E+00  0.00000000000E+00  0.30041699161E+03  0.30041967603E+03  0.12700000000E+01 0.  1.
         -4   -1    0    0    0  501 -0.00000000000E+00 -0.00000000000E+00 -0.12978723678E+02  0.13040711955E+02  0.12700000000E+01 0.  1.
         25    2    1    2    0    0  0.00000000000E+00  0.00000000000E+00  0.28743826793E+03  0.31346038799E+03  0.12504661917E+03 0.  0.
    9000005    1    3    3    0    0  0.37302818328E+02 -0.33039678581E+02  0.23834825199E+03  0.24350361361E+03  0.10000000000E+01 0.  0.
    9000005    1    3    3    0    0 -0.37302818328E+02  0.33039678581E+02  0.49090015946E+02  0.69956774379E+02  0.10000000000E+01 0.  0.
<mgrwt>
<rscale>  0 0.12504662E+03</rscale>
<asrwt>0</asrwt>
<pdfrwt beam="1">  1        4 0.46222969E-01 0.12504662E+03</pdfrwt>
<pdfrwt beam="2">  1       -4 0.20017017E-02 0.12504662E+03</pdfrwt>
<totfact> 0.73864348E+03</totfact>
</mgrwt>
</event>
<event>
 5    1  0.3422688E-002  0.1250022E+03  0.7818608E-02  0.1235066E+00
         -4   -1    0    0    0  501 -0.00000000000E+00  0.00000000000E+00  0.65749480336E+02  0.65761744688E+02  0.12700000000E+01 0. -1.
          4   -1    0    0  501    0  0.00000000000E+00 -0.00000000000E+00 -0.59388600537E+02  0.59402178191E+02  0.12700000000E+01 0. -1.
         25    2    1    2    0    0  0.00000000000E+00  0.00000000000E+00  0.63608797984E+01  0.12516392288E+03  0.12500218717E+03 0.  0.
    9000005    1    3    3    0    0  0.12312257488E+02 -0.61264319403E+02  0.24880371924E+01  0.62546773261E+02  0.10000000000E+01 0.  0.
    9000005    1    3    3    0    0 -0.12312257488E+02  0.61264319403E+02  0.38728426059E+01  0.62617149617E+02  0.10000000000E+01 0.  0.
<mgrwt>
<rscale>  0 0.12500219E+03</rscale>
<asrwt>0</asrwt>
<pdfrwt beam="2">  1        4 0.91386956E-02 0.12500219E+03</pdfrwt>
<pdfrwt beam="1">  1       -4 0.10117293E-01 0.12500219E+03</pdfrwt>
<totfact> 0.10448787E+04</totfact>
</mgrwt>
</event>
<event>
 5    1  0.3422688E-002  0.1249990E+03  0.7818608E-02  0.1235071E+00
         -4   -1    0    0    0  501 -0.00000000000E+00  0.00000000000E+00  0.21321103535E+03  0.21321481772E+03  0.12700000000E+01 0. -1.
          4   -1    0    0  501    0  0.00000000000E+00 -0.00000000000E+00 -0.18294806182E+02  0.18338834020E+02  0.12700000000E+01 0. -1.
         25    2    1    2    0    0  0.00000000000E+00  0.00000000000E+00  0.19491622917E+03  0.23155365174E+03  0.12499902896E+03 0.  0.
    9000005    1    3    3    0    0  0.39074510343E+02  0.45303119447E+02  0.13090481979E+03  0.14393144838E+03  0.10000000000E+01 0.  0.
    9000005    1    3    3    0    0 -0.39074510343E+02 -0.45303119447E+02  0.64011409384E+02  0.87622203359E+02  0.10000000000E+01 0.  0.
<mgrwt>
<rscale>  0 0.12499903E+03</rscale>
<asrwt>0</asrwt>
<pdfrwt beam="2">  1        4 0.28182631E-02 0.12499903E+03</pdfrwt>
<pdfrwt beam="1">  1       -4 0.32805378E-01 0.12499903E+03</pdfrwt>
<totfact> 0.85073442E+03</totfact>
</mgrwt>
</event>
<event>
 5    1  0.3422688E-002  0.1250011E+03  0.7818608E-02  0.1235068E+00
         -4   -1    0    0    0  501 -0.00000000000E+00  0.00000000000E+00  0.64080706838E+02  0.64093290514E+02  0.12700000000E+01 0. -1.
          4   -1    0    0  501    0  0.00000000000E+00 -0.00000000000E+00 -0.60934186405E+02  0.60947419739E+02  0.12700000000E+01 0. -1.
         25    2    1    2    0    0  0.00000000000E+00  0.00000000000E+00  0.31465204330E+01  0.12504071025E+03  0.12500111451E+03 0.  0.
    9000005    1    3    3    0    0 -0.59301761547E+02 -0.25503391238E+01 -0.17980732326E+02  0.62028299084E+02  0.10000000000E+01 0.  0.
    9000005    1    3    3    0    0  0.59301761547E+02  0.25503391238E+01  0.21127252759E+02  0.63012411169E+02  0.10000000000E+01 0.  0.
<mgrwt>
<rscale>  0 0.12500111E+03</rscale>
<asrwt>0</asrwt>
<pdfrwt beam="2">  1        4 0.93764761E-02 0.12500111E+03</pdfrwt>
<pdfrwt beam="1">  1       -4 0.98605562E-02 0.12500111E+03</pdfrwt>
<totfact> 0.10451715E+04</totfact>
</mgrwt>
</event>
<event>
 5    1  0.3422688E-002  0.1250027E+03  0.7818608E-02  0.1235065E+00
          4   -1    0    0  501    0  0.00000000000E+00  0.00000000000E+00  0.15340221850E+02  0.15392703025E+02  0.12700000000E+01 0. -1.
         -4   -1    0    0    0  501 -0.00000000000E+00 -0.00000000000E+00 -0.25416303569E+03  0.25416620863E+03  0.12700000000E+01 0. -1.
         25    2    1    2    0    0  0.00000000000E+00  0.00000000000E+00 -0.23882281384E+03  0.26955891166E+03  0.12500268175E+03 0.  0.
    9000005    1    3    3    0    0  0.44673109342E+02  0.33075313375E+02 -0.57820851792E+02  0.80211682161E+02  0.10000000000E+01 0.  0.
    9000005    1    3    3    0    0 -0.44673109342E+02 -0.33075313375E+02 -0.18100196205E+03  0.18934722950E+03  0.10000000000E+01 0.  0.
<mgrwt>
<rscale>  0 0.12500268E+03</rscale>
<asrwt>0</asrwt>
<pdfrwt beam="1">  1        4 0.23643154E-02 0.12500268E+03</pdfrwt>
<pdfrwt beam="2">  1       -4 0.39106284E-01 0.12500268E+03</pdfrwt>
<totfact> 0.79578294E+03</totfact>
</mgrwt>
</event>
<event>
 5    1  0.3422688E-002  0.1250157E+03  0.7818608E-02  0.1235045E+00
         -4   -1    0    0    0  501 -0.00000000000E+00  0.00000000000E+00  0.16114608893E+02  0.16164576078E+02  0.12700000000E+01 0. -1.
          4   -1    0    0  501    0  0.00000000000E+00 -0.00000000000E+00 -0.24203818802E+03  0.24204151991E+03  0.12700000000E+01 0. -1.
         25    2    1    2    0    0  0.00000000000E+00  0.00000000000E+00 -0.22592357913E+03  0.25820609599E+03  0.12501569661E+03 0.  0.
    9000005    1    3    3    0    0 -0.58761756950E+02  0.16778760714E+02 -0.85893349651E+02  0.10541887120E+03  0.10000000000E+01 0.  0.
    9000005    1    3    3    0    0  0.58761756950E+02 -0.16778760714E+02 -0.14003022948E+03  0.15278722479E+03  0.10000000000E+01 0.  0.
<mgrwt>
<rscale>  0 0.12501570E+03</rscale>
<asrwt>0</asrwt>
<pdfrwt beam="2">  1        4 0.37240742E-01 0.12501570E+03</pdfrwt>
<pdfrwt beam="1">  1       -4 0.24832707E-02 0.12501570E+03</pdfrwt>
<totfact> 0.81130117E+03</totfact>
</mgrwt>
</event>
<event>
 5    1  0.3422688E-002  0.1249950E+03  0.7818608E-02  0.1235077E+00
         -4   -1    0    0    0  501 -0.00000000000E+00  0.00000000000E+00  0.62269699749E+02  0.62282649324E+02  0.12700000000E+01 0.  1.
          4   -1    0    0  501    0  0.00000000000E+00 -0.00000000000E+00 -0.62700196969E+02  0.62713057651E+02  0.12700000000E+01 0.  1.
         25    2    1    2    0    0  0.00000000000E+00  0.00000000000E+00 -0.43049722035E+00  0.12499570698E+03  0.12499496564E+03 0.  0.
    9000005    1    3    3    0    0  0.16476986682E+02 -0.45785844676E+02 -0.39421356919E+02  0.62632883090E+02  0.10000000000E+01 0.  0.
    9000005    1    3    3    0    0 -0.16476986682E+02  0.45785844676E+02  0.38990859699E+02  0.62362823885E+02  0.10000000000E+01 0.  0.
<mgrwt>
<rscale>  0 0.12499497E+03</rscale>
<asrwt>0</asrwt>
<pdfrwt beam="2">  1        4 0.96481695E-02 0.12499497E+03</pdfrwt>
<pdfrwt beam="1">  1       -4 0.95819393E-02 0.12499497E+03</pdfrwt>
<totfact> 0.10454145E+04</totfact>
</mgrwt>
</event>
<event>
 5    1  0.3422688E-002  0.1249988E+03  0.7818608E-02  0.1235071E+00
          4   -1    0    0  501    0  0.00000000000E+00  0.00000000000E+00  0.23743071333E+02  0.23777012771E+02  0.12700000000E+01 0. -1.
         -4   -1    0    0    0  501 -0.00000000000E+00 -0.00000000000E+00 -0.16436451339E+03  0.16436941979E+03  0.12700000000E+01 0. -1.
         25    2    1    2    0    0  0.00000000000E+00  0.00000000000E+00 -0.14062144206E+03  0.18814643256E+03  0.12499876047E+03 0.  0.
    9000005    1    3    3    0    0 -0.18386993337E+02 -0.50491324285E+00  0.19583517194E+02  0.26885881184E+02  0.10000000000E+01 0.  0.
    9000005    1    3    3    0    0  0.18386993337E+02  0.50491324285E+00 -0.16020495925E+03  0.16126055138E+03  0.10000000000E+01 0.  0.
<mgrwt>
<rscale>  0 0.12499876E+03</rscale>
<asrwt>0</asrwt>
<pdfrwt beam="1">  1        4 0.36557686E-02 0.12499876E+03</pdfrwt>
<pdfrwt beam="2">  1       -4 0.25289836E-01 0.12499876E+03</pdfrwt>
<totfact> 0.92173393E+03</totfact>
</mgrwt>
</event>
<event>
 5    1  0.3422688E-002  0.1249966E+03  0.7818608E-02  0.1235075E+00
         -4   -1    0    0    0  501 -0.00000000000E+00  0.00000000000E+00  0.21664474889E+03  0.21664847131E+03  0.12700000000E+01 0.  1.
          4   -1    0    0  501    0  0.00000000000E+00 -0.00000000000E+00 -0.18003435403E+02  0.18048174044E+02  0.12700000000E+01 0.  1.
         25    2    1    2    0    0  0.00000000000E+00  0.00000000000E+00  0.19864131349E+03  0.23469664536E+03  0.12499657562E+03 0.  0.
    9000005    1    3    3    0    0  0.41954329059E+02 -0.38953595238E+02  0.52286716278E+02  0.77539983285E+02  0.10000000000E+01 0.  0.
    9000005    1    3    3    0    0 -0.41954329059E+02  0.38953595238E+02  0.14635459721E+03  0.15715666207E+03  0.10000000000E+01 0.  0.
<mgrwt>
<rscale>  0 0.12499658E+03</rscale>
<asrwt>0</asrwt>
<pdfrwt beam="2">  1        4 0.27734872E-02 0.12499658E+03</pdfrwt>
<pdfrwt beam="1">  1       -4 0.33333687E-01 0.12499658E+03</pdfrwt>
<totfact> 0.84600064E+03</totfact>
</mgrwt>
</event>
<event>
 5    1  0.3422688E-002  0.1250027E+03  0.7818608E-02  0.1235065E+00
         -4   -1    0    0    0  501 -0.00000000000E+00  0.00000000000E+00  0.28006876025E+02  0.28035655953E+02  0.12700000000E+01 0.  1.
          4   -1    0    0  501    0  0.00000000000E+00 -0.00000000000E+00 -0.13937731448E+03  0.13938310045E+03  0.12700000000E+01 0.  1.
         25    2    1    2    0    0  0.00000000000E+00  0.00000000000E+00 -0.11137043845E+03  0.16741875640E+03  0.12500266171E+03 0.  0.
    9000005    1    3    3    0    0  0.43630439271E+02 -0.41908658957E+02 -0.76668820310E+02  0.97668106024E+02  0.10000000000E+01 0.  0.
    9000005    1    3    3    0    0 -0.43630439271E+02  0.41908658957E+02 -0.34701618143E+02  0.69750650379E+02  0.10000000000E+01 0.  0.
<mgrwt>
<rscale>  0 0.12500266E+03</rscale>
<asrwt>0</asrwt>
<pdfrwt beam="2">  1        4 0.21445322E-01 0.12500266E+03</pdfrwt>
<pdfrwt beam="1">  1       -4 0.43114091E-02 0.12500266E+03</pdfrwt>
<totfact> 0.95925535E+03</totfact>
</mgrwt>
</event>
<event>
 5    1  0.3422688E-002  0.1249992E+03  0.7818608E-02  0.1235070E+00
         -4   -1    0    0    0  501 -0.00000000000E+00  0.00000000000E+00  0.25927079808E+02  0.25958165716E+02  0.12700000000E+01 0. -1.
          4   -1    0    0  501    0  0.00000000000E+00 -0.00000000000E+00 -0.15053703340E+03  0.15054239046E+03  0.12700000000E+01 0. -1.
         25    2    1    2    0    0  0.00000000000E+00  0.00000000000E+00 -0.12460995360E+03  0.17650055618E+03  0.12499922318E+03 0.  0.
    9000005    1    3    3    0    0  0.43331001266E+02 -0.42041962311E+02 -0.39532605388E+02  0.72172911501E+02  0.10000000000E+01 0.  0.
    9000005    1    3    3    0    0 -0.43331001266E+02  0.42041962311E+02 -0.85077348207E+02  0.10432764468E+03  0.10000000000E+01 0.  0.
<mgrwt>
<rscale>  0 0.12499922E+03</rscale>
<asrwt>0</asrwt>
<pdfrwt beam="2">  1        4 0.23162346E-01 0.12499922E+03</pdfrwt>
<pdfrwt beam="1">  1       -4 0.39915849E-02 0.12499922E+03</pdfrwt>
<totfact> 0.94252376E+03</totfact>
</mgrwt>
</event>
<event>
 5    1  0.3422688E-002  0.1249866E+03  0.7818608E-02  0.1235090E+00
          4   -1    0    0  501    0  0.00000000000E+00  0.00000000000E+00  0.81841317218E+02  0.81851170450E+02  0.12700000000E+01 0. -1.
         -4   -1    0    0    0  501 -0.00000000000E+00 -0.00000000000E+00 -0.47698157183E+02  0.47715061550E+02  0.12700000000E+01 0. -1.
         25    2    1    2    0    0  0.00000000000E+00  0.00000000000E+00  0.34143160035E+02  0.12956623200E+03  0.12498661167E+03 0.  0.
    9000005    1    3    3    0    0 -0.36462996369E+02  0.15544313287E+02 -0.33001903750E+02  0.51587803121E+02  0.10000000000E+01 0.  0.
    9000005    1    3    3    0    0  0.36462996369E+02 -0.15544313287E+02  0.67145063785E+02  0.77978428879E+02  0.10000000000E+01 0.  0.
<mgrwt>
<rscale>  0 0.12498661E+03</rscale>
<asrwt>0</asrwt>
<pdfrwt beam="1">  1        4 0.12593030E-01 0.12498661E+03</pdfrwt>
<pdfrwt beam="2">  1       -4 0.73402365E-02 0.12498661E+03</pdfrwt>
<totfact> 0.10356925E+04</totfact>
</mgrwt>
</event>
<event>
 5    1  0.3422688E-002  0.1250004E+03  0.7818608E-02  0.1235069E+00
          4   -1    0    0  501    0  0.00000000000E+00  0.00000000000E+00  0.36811622455E+02  0.36833523423E+02  0.12700000000E+01 0. -1.
         -4   -1    0    0    0  501 -0.00000000000E+00 -0.00000000000E+00 -0.10605802051E+03  0.10606562409E+03  0.12700000000E+01 0. -1.
         25    2    1    2    0    0  0.00000000000E+00  0.00000000000E+00 -0.69246398050E+02  0.14289914751E+03  0.12500041087E+03 0.  0.
    9000005    1    3    3    0    0 -0.18923192997E+02 -0.51256323538E+02 -0.69297431598E+02  0.88252093244E+02  0.10000000000E+01 0.  0.
    9000005    1    3    3    0    0  0.18923192997E+02  0.51256323538E+02  0.51033547974E-01  0.54647054269E+02  0.10000000000E+01 0.  0.
<mgrwt>
<rscale>  0 0.12500041E+03</rscale>
<asrwt>0</asrwt>
<pdfrwt beam="1">  1        4 0.56655961E-02 0.12500041E+03</pdfrwt>
<pdfrwt beam="2">  1       -4 0.16318888E-01 0.12500041E+03</pdfrwt>
<totfact> 0.10073756E+04</totfact>
</mgrwt>
</event>
<event>
 5    1  0.3422688E-002  0.1250009E+03  0.7818608E-02  0.1235068E+00
          4   -1    0    0  501    0  0.00000000000E+00  0.00000000000E+00  0.16481696471E+03  0.16482185764E+03  0.12700000000E+01 0.  1.
         -4   -1    0    0    0  501 -0.00000000000E+00 -0.00000000000E+00 -0.23678627459E+02  0.23712661140E+02  0.12700000000E+01 0.  1.
         25    2    1    2    0    0  0.00000000000E+00  0.00000000000E+00  0.14113833725E+03  0.18853451878E+03  0.12500093812E+03 0.  0.
    9000005    1    3    3    0    0  0.34356150202E+01  0.52243728773E+02  0.12202947569E+03  0.13279082643E+03  0.10000000000E+01 0.  0.
    9000005    1    3    3    0    0 -0.34356150202E+01 -0.52243728773E+02  0.19108861559E+02  0.55743692350E+02  0.10000000000E+01 0.  0.
<mgrwt>
<rscale>  0 0.12500094E+03</rscale>
<asrwt>0</asrwt>
<pdfrwt beam="1">  1        4 0.25359450E-01 0.12500094E+03</pdfrwt>
<pdfrwt beam="2">  1       -4 0.36458601E-02 0.12500094E+03</pdfrwt>
<totfact> 0.92100994E+03</totfact>
</mgrwt>
</event>
<event>
 5    1  0.3422688E-002  0.1250050E+03  0.7818608E-02  0.1235062E+00
          4   -1    0    0  501    0  0.00000000000E+00  0.00000000000E+00  0.45050727621E+02  0.45068624998E+02  0.12700000000E+01 0. -1.
         -4   -1    0    0    0  501 -0.00000000000E+00 -0.00000000000E+00 -0.86674923053E+02  0.86684226860E+02  0.12700000000E+01 0. -1.
         25    2    1    2    0    0  0.00000000000E+00  0.00000000000E+00 -0.41624195432E+02  0.13175285186E+03  0.12500496121E+03 0.  0.
    9000005    1    3    3    0    0 -0.46179397492E+02 -0.40683424563E+02 -0.32255550071E+02  0.69491713875E+02  0.10000000000E+01 0.  0.
    9000005    1    3    3    0    0  0.46179397492E+02  0.40683424563E+02 -0.93686453615E+01  0.62261137982E+02  0.10000000000E+01 0.  0.
<mgrwt>
<rscale>  0 0.12500496E+03</rscale>
<asrwt>0</asrwt>
<pdfrwt beam="1">  1        4 0.69329736E-02 0.12500496E+03</pdfrwt>
<pdfrwt beam="2">  1       -4 0.13336696E-01 0.12500496E+03</pdfrwt>
<totfact> 0.10305823E+04</totfact>
</mgrwt>
</event>
<event>
 5    1  0.3422688E-002  0.1250003E+03  0.7818608E-02  0.1235069E+00
         -4   -1    0    0    0  501 -0.00000000000E+00  0.00000000000E+00  0.19816877496E+03  0.19817284442E+03  0.12700000000E+01 0.  1.
          4   -1    0    0  501    0  0.00000000000E+00 -0.00000000000E+00 -0.19687103860E+02  0.19728024695E+02  0.12700000000E+01 0.  1.
         25    2    1    2    0    0  0.00000000000E+00  0.00000000000E+00  0.17848167110E+03  0.21790086912E+03  0.12500032738E+03 0.  0.
    9000005    1    3    3    0    0 -0.37661991933E+02 -0.46109446146E+02  0.12235084381E+03  0.13607070090E+03  0.10000000000E+01 0.  0.
    9000005    1    3    3    0    0  0.37661991933E+02  0.46109446146E+02  0.56130827283E+02  0.81830168225E+02  0.10000000000E+01 0.  0.
<mgrwt>
<rscale>  0 0.12500033E+03</rscale>
<asrwt>0</asrwt>
<pdfrwt beam="2">  1        4 0.30322460E-02 0.12500033E+03</pdfrwt>
<pdfrwt beam="1">  1       -4 0.30490964E-01 0.12500033E+03</pdfrwt>
<totfact> 0.87200965E+03</totfact>
</mgrwt>
</event>
<event>
 5    1  0.3422688E-002  0.1250054E+03  0.7818608E-02  0.1235061E+00
          4   -1    0    0  501    0  0.00000000000E+00  0.00000000000E+00  0.62866755985E+01  0.64136721214E+01  0.12700000000E+01 0. -1.
         -4   -1    0    0    0  501 -0.00000000000E+00 -0.00000000000E+00 -0.61506658194E+03  0.61506789310E+03  0.12700000000E+01 0. -1.
         25    2    1    2    0    0  0.00000000000E+00  0.00000000000E+00 -0.60877990635E+03  0.62148156522E+03  0.12500544605E+03 0.  0.
    9000005    1    3    3    0    0  0.35923712891E+02  0.51118931409E+02 -0.31130050767E+03  0.31751010122E+03  0.10000000000E+01 0.  0.
    9000005    1    3    3    0    0 -0.35923712891E+02 -0.51118931409E+02 -0.29747939867E+03  0.30397146401E+03  0.10000000000E+01 0.  0.
<mgrwt>
<rscale>  0 0.12500545E+03</rscale>
<asrwt>0</asrwt>
<pdfrwt beam="1">  1        4 0.97705117E-03 0.12500545E+03</pdfrwt>
<pdfrwt beam="2">  1       -4 0.94635451E-01 0.12500545E+03</pdfrwt>
<totfact> 0.47533457E+03</totfact>
</mgrwt>
</event>
<event>
 5    1  0.3422688E-002  0.1250061E+03  0.7818608E-02  0.1235060E+00
          4   -1    0    0  501    0  0.00000000000E+00  0.00000000000E+00  0.28630577833E+02  0.28658731428E+02  0.12700000000E+01 0. -1.
         -4   -1    0    0    0  501 -0.00000000000E+00 -0.00000000000E+00 -0.13635142068E+03  0.13635733505E+03  0.12700000000E+01 0. -1.
         25    2    1    2    0    0  0.00000000000E+00  0.00000000000E+00 -0.10772084284E+03  0.16501606647E+03  0.12500608870E+03 0.  0.
    9000005    1    3    3    0    0 -0.44437325210E+02  0.43466528718E+02 -0.45344670560E+02  0.76949035983E+02  0.10000000000E+01 0.  0.
    9000005    1    3    3    0    0  0.44437325210E+02 -0.43466528718E+02 -0.62376172285E+02  0.88067030491E+02  0.10000000000E+01 0.  0.
<mgrwt>
<rscale>  0 0.12500609E+03</rscale>
<asrwt>0</asrwt>
<pdfrwt beam="1">  1        4 0.44073250E-02 0.12500609E+03</pdfrwt>
<pdfrwt beam="2">  1       -4 0.20979762E-01 0.12500609E+03</pdfrwt>
<totfact> 0.96371167E+03</totfact>
</mgrwt>
</event>
<event>
 5    1  0.3422688E-002  0.1250061E+03  0.7818608E-02  0.1235060E+00
         -4   -1    0    0    0  501 -0.00000000000E+00  0.00000000000E+00  0.64578768124E+03  0.64578893002E+03  0.12700000000E+01 0. -1.
          4   -1    0    0  501    0  0.00000000000E+00 -0.00000000000E+00 -0.59814808323E+01  0.61148191263E+01  0.12700000000E+01 0. -1.
         25    2    1    2    0    0  0.00000000000E+00  0.00000000000E+00  0.63980620040E+03  0.65190374915E+03  0.12500609615E+03 0.  0.
    9000005    1    3    3    0    0 -0.31153451574E+02 -0.22024725623E+02  0.61774714379E+02  0.72613644863E+02  0.10000000000E+01 0.  0.
    9000005    1    3    3    0    0  0.31153451574E+02  0.22024725623E+02  0.57803148602E+03  0.57929010428E+03  0.10000000000E+01 0.  0.
<mgrwt>
<rscale>  0 0.12500610E+03</rscale>
<asrwt>0</asrwt>
<pdfrwt beam="2">  1        4 0.93058061E-03 0.12500610E+03</pdfrwt>
<pdfrwt beam="1">  1       -4 0.99362311E-01 0.12500610E+03</pdfrwt>
<totfact> 0.45740751E+03</totfact>
</mgrwt>
</event>
<event>
 5    1  0.3422688E-002  0.1249982E+03  0.7818608E-02  0.1235072E+00
          4   -1    0    0  501    0  0.00000000000E+00  0.00000000000E+00  0.13275461527E+03  0.13276068988E+03  0.12700000000E+01 0. -1.
         -4   -1    0    0    0  501 -0.00000000000E+00 -0.00000000000E+00 -0.29403268190E+02  0.29430682633E+02  0.12700000000E+01 0. -1.
         25    2    1    2    0    0  0.00000000000E+00  0.00000000000E+00  0.10335134708E+03  0.16219137251E+03  0.12499816148E+03 0.  0.
    9000005    1    3    3    0    0 -0.38751829557E+02 -0.48882545091E+02  0.56518088746E+02  0.84181362926E+02  0.10000000000E+01 0.  0.
    9000005    1    3    3    0    0  0.38751829557E+02  0.48882545091E+02  0.46833258338E+02  0.78010009583E+02  0.10000000000E+01 0.  0.
<mgrwt>
<rscale>  0 0.12499816E+03</rscale>
<asrwt>0</asrwt>
<pdfrwt beam="1">  1        4 0.20426363E-01 0.12499816E+03</pdfrwt>
<pdfrwt beam="2">  1       -4 0.45261559E-02 0.12499816E+03</pdfrwt>
<totfact> 0.96925966E+03</totfact>
</mgrwt>
</event>
<event>
 5    1  0.3422688E-002  0.1250012E+03  0.7818608E-02  0.1235067E+00
          4   -1    0    0  501    0  0.00000000000E+00  0.00000000000E+00  0.77026274931E+02  0.77036744023E+02  0.12700000000E+01 0. -1.
         -4   -1    0    0    0  501 -0.00000000000E+00 -0.00000000000E+00 -0.50692317091E+02  0.50708223318E+02  0.12700000000E+01 0. -1.
         25    2    1    2    0    0  0.00000000000E+00  0.00000000000E+00  0.26333957839E+02  0.12774496734E+03  0.12500119738E+03 0.  0.
    9000005    1    3    3    0    0 -0.59638150514E+02  0.17585467487E+02  0.67549312741E+01  0.62550673537E+02  0.10000000000E+01 0.  0.
    9000005    1    3    3    0    0  0.59638150514E+02 -0.17585467487E+02  0.19579026565E+02  0.65194293804E+02  0.10000000000E+01 0.  0.
<mgrwt>
<rscale>  0 0.12500120E+03</rscale>
<asrwt>0</asrwt>
<pdfrwt beam="1">  1        4 0.11852225E-01 0.12500120E+03</pdfrwt>
<pdfrwt beam="2">  1       -4 0.78008469E-02 0.12500120E+03</pdfrwt>
<totfact> 0.10392718E+04</totfact>
</mgrwt>
</event>
<event>
 5    1  0.3422688E-002  0.1249996E+03  0.7818608E-02  0.1235070E+00
         -4   -1    0    0    0  501 -0.00000000000E+00  0.00000000000E+00  0.73683663283E+02  0.73694607231E+02  0.12700000000E+01 0.  1.
          4   -1    0    0  501    0  0.00000000000E+00 -0.00000000000E+00 -0.52990974625E+02  0.53006191070E+02  0.12700000000E+01 0.  1.
         25    2    1    2    0    0  0.00000000000E+00  0.00000000000E+00  0.20692688658E+02  0.12670079830E+03  0.12499961970E+03 0.  0.
    9000005    1    3    3    0    0 -0.46763427592E+02  0.26379773930E+02  0.42758329424E+02  0.68643902627E+02  0.10000000000E+01 0.  0.
    9000005    1    3    3    0    0  0.46763427592E+02 -0.26379773930E+02 -0.22065640766E+02  0.58056895673E+02  0.10000000000E+01 0.  0.
<mgrwt>
<rscale>  0 0.12499962E+03</rscale>
<asrwt>0</asrwt>
<pdfrwt beam="2">  1        4 0.81544700E-02 0.12499962E+03</pdfrwt>
<pdfrwt beam="1">  1       -4 0.11337961E-01 0.12499962E+03</pdfrwt>
<totfact> 0.10415742E+04</totfact>
</mgrwt>
</event>
<event>
 5    1  0.3422688E-002  0.1250023E+03  0.7818608E-02  0.1235066E+00
          4   -1    0    0  501    0  0.00000000000E+00  0.00000000000E+00  0.72450143740E+01  0.73554832118E+01  0.12700000000E+01 0.  1.
         -4   -1    0    0    0  501 -0.00000000000E+00 -0.00000000000E+00 -0.53499305072E+03  0.53499455812E+03  0.12700000000E+01 0.  1.
         25    2    1    2    0    0  0.00000000000E+00  0.00000000000E+00 -0.52774803635E+03  0.54235004133E+03  0.12500230984E+03 0.  0.
    9000005    1    3    3    0    0 -0.49924382373E+02  0.30703374184E+02 -0.16978747104E+03  0.17962162026E+03  0.10000000000E+01 0.  0.
    9000005    1    3    3    0    0  0.49924382373E+02 -0.30703374184E+02 -0.35796056530E+03  0.36272842107E+03  0.10000000000E+01 0.  0.
<mgrwt>
<rscale>  0 0.12500231E+03</rscale>
<asrwt>0</asrwt>
<pdfrwt beam="1">  1        4 0.11232316E-02 0.12500231E+03</pdfrwt>
<pdfrwt beam="2">  1       -4 0.82315206E-01 0.12500231E+03</pdfrwt>
<totfact> 0.52719339E+03</totfact>
</mgrwt>
</event>
<event>
 5    1  0.3422688E-002  0.1249941E+03  0.7818608E-02  0.1235078E+00
          4   -1    0    0  501    0  0.00000000000E+00  0.00000000000E+00  0.61695841180E+02  0.61708911179E+02  0.12700000000E+01 0. -1.
         -4   -1    0    0    0  501 -0.00000000000E+00 -0.00000000000E+00 -0.63282558210E+02  0.63295300565E+02  0.12700000000E+01 0. -1.
         25    2    1    2    0    0  0.00000000000E+00  0.00000000000E+00 -0.15867170306E+01  0.12500421174E+03  0.12499414099E+03 0.  0.
    9000005    1    3    3    0    0  0.49579274726E+02  0.84301399412E+01 -0.37886939759E+02  0.62972946144E+02  0.10000000000E+01 0.  0.
    9000005    1    3    3    0    0 -0.49579274726E+02 -0.84301399412E+01  0.36300222728E+02  0.62031265600E+02  0.10000000000E+01 0.  0.
<mgrwt>
<rscale>  0 0.12499414E+03</rscale>
<asrwt>0</asrwt>
<pdfrwt beam="1">  1        4 0.94936535E-02 0.12499414E+03</pdfrwt>
<pdfrwt beam="2">  1       -4 0.97377637E-02 0.12499414E+03</pdfrwt>
<totfact> 0.10454155E+04</totfact>
</mgrwt>
</event>
<event>
 5    1  0.3422688E-002  0.1250026E+03  0.7818608E-02  0.1235065E+00
          4   -1    0    0  501    0  0.00000000000E+00  0.00000000000E+00  0.17102217490E+03  0.17102689030E+03  0.12700000000E+01 0. -1.
         -4   -1    0    0    0  501 -0.00000000000E+00 -0.00000000000E+00 -0.22818885851E+02  0.22854199866E+02  0.12700000000E+01 0. -1.
         25    2    1    2    0    0  0.00000000000E+00  0.00000000000E+00  0.14820328904E+03  0.19388109017E+03  0.12500264893E+03 0.  0.
    9000005    1    3    3    0    0  0.39599600322E+01  0.22012836713E+02 -0.16406068512E+02  0.27756176747E+02  0.10000000000E+01 0.  0.
    9000005    1    3    3    0    0 -0.39599600322E+01 -0.22012836713E+02  0.16460935756E+03  0.16612491342E+03  0.10000000000E+01 0.  0.
<mgrwt>
<rscale>  0 0.12500265E+03</rscale>
<asrwt>0</asrwt>
<pdfrwt beam="1">  1        4 0.26314183E-01 0.12500265E+03</pdfrwt>
<pdfrwt beam="2">  1       -4 0.35136771E-02 0.12500265E+03</pdfrwt>
<totfact> 0.91170961E+03</totfact>
</mgrwt>
</event>
<event>
 5    1  0.3422688E-002  0.1250077E+03  0.7818608E-02  0.1235057E+00
          4   -1    0    0  501    0  0.00000000000E+00  0.00000000000E+00  0.47034686702E+03  0.47034858160E+03  0.12700000000E+01 0.  1.
         -4   -1    0    0    0  501 -0.00000000000E+00 -0.00000000000E+00 -0.82557764293E+01  0.83528883897E+01  0.12700000000E+01 0.  1.
         25    2    1    2    0    0  0.00000000000E+00  0.00000000000E+00  0.46209109059E+03  0.47870146999E+03  0.12500768524E+03 0.  0.
    9000005    1    3    3    0    0  0.44312840643E+02  0.43902603658E+02  0.21638153947E+03  0.22519555297E+03  0.10000000000E+01 0.  0.
    9000005    1    3    3    0    0 -0.44312840643E+02 -0.43902603658E+02  0.24570955112E+03  0.25350591702E+03  0.10000000000E+01 0.  0.
<mgrwt>
<rscale>  0 0.12500769E+03</rscale>
<asrwt>0</asrwt>
<pdfrwt beam="1">  1        4 0.72368653E-01 0.12500769E+03</pdfrwt>
<pdfrwt beam="2">  1       -4 0.12777216E-02 0.12500769E+03</pdfrwt>
<totfact> 0.57545854E+03</totfact>
</mgrwt>
</event>
<event>
 5    1  0.3422688E-002  0.1250024E+03  0.7818608E-02  0.1235065E+00
         -4   -1    0    0    0  501 -0.00000000000E+00  0.00000000000E+00  0.50581862917E+02  0.50597803866E+02  0.12700000000E+01 0. -1.
          4   -1    0    0  501    0  0.00000000000E+00 -0.00000000000E+00 -0.77195982355E+02  0.77206428436E+02  0.12700000000E+01 0. -1.
         25    2    1    2    0    0  0.00000000000E+00  0.00000000000E+00 -0.26614119439E+02  0.12780423230E+03  0.12500244174E+03 0.  0.
    9000005    1    3    3    0    0  0.24369976804E+02  0.39479673164E+02 -0.56112664097E+02  0.72816010840E+02  0.10000000000E+01 0.  0.
    9000005    1    3    3    0    0 -0.24369976804E+02 -0.39479673164E+02  0.29498544658E+02  0.54988221462E+02  0.10000000000E+01 0.  0.
<mgrwt>
<rscale>  0 0.12500244E+03</rscale>
<asrwt>0</asrwt>
<pdfrwt beam="2">  1        4 0.11878335E-01 0.12500244E+03</pdfrwt>
<pdfrwt beam="1">  1       -4 0.77838548E-02 0.12500244E+03</pdfrwt>
<totfact> 0.10391145E+04</totfact>
</mgrwt>
</event>
<event>
 5    1  0.3422688E-002  0.1250013E+03  0.7818608E-02  0.1235067E+00
          4   -1    0    0  501    0  0.00000000000E+00  0.00000000000E+00  0.12390021339E+03  0.12390672209E+03  0.12700000000E+01 0. -1.
         -4   -1    0    0    0  501 -0.00000000000E+00 -0.00000000000E+00 -0.31507930398E+02  0.31533515154E+02  0.12700000000E+01 0. -1.
         25    2    1    2    0    0  0.00000000000E+00  0.00000000000E+00  0.92392282993E+02  0.15544023724E+03  0.12500133358E+03 0.  0.
    9000005    1    3    3    0    0 -0.19672039402E+02 -0.59170039837E+02  0.41031372335E+02  0.74650226150E+02  0.10000000000E+01 0.  0.
    9000005    1    3    3    0    0  0.19672039402E+02  0.59170039837E+02  0.51360910658E+02  0.80790011092E+02  0.10000000000E+01 0.  0.
<mgrwt>
<rscale>  0 0.12500133E+03</rscale>
<asrwt>0</asrwt>
<pdfrwt beam="1">  1        4 0.19064040E-01 0.12500133E+03</pdfrwt>
<pdfrwt beam="2">  1       -4 0.48498427E-02 0.12500133E+03</pdfrwt>
<totfact> 0.98226198E+03</totfact>
</mgrwt>
</event>
<event>
 5    1  0.3422688E-002  0.1250012E+03  0.7818608E-02  0.1235067E+00
         -4   -1    0    0    0  501 -0.00000000000E+00  0.00000000000E+00  0.15939544147E+04  0.15939549206E+04  0.12700000000E+01 0.  1.
          4   -1    0    0  501    0  0.00000000000E+00 -0.00000000000E+00 -0.22856385948E+01  0.26147741367E+01  0.12700000000E+01 0.  1.
         25    2    1    2    0    0  0.00000000000E+00  0.00000000000E+00  0.15916687761E+04  0.15965696948E+04  0.12500118984E+03 0.  0.
    9000005    1    3    3    0    0  0.32662710838E+02  0.32363779477E+02  0.13363752060E+04  0.13371663913E+04  0.10000000000E+01 0.  0.
    9000005    1    3    3    0    0 -0.32662710838E+02 -0.32363779477E+02  0.25529357009E+03  0.25940330343E+03  0.10000000000E+01 0.  0.
<mgrwt>
<rscale>  0 0.12500119E+03</rscale>
<asrwt>0</asrwt>
<pdfrwt beam="2">  1        4 0.37699585E-03 0.12500119E+03</pdfrwt>
<pdfrwt beam="1">  1       -4 0.24524775E+00 0.12500119E+03</pdfrwt>
<totfact> 0.16107905E+03</totfact>
</mgrwt>
</event>
<event>
 5    1  0.3422688E-002  0.1249957E+03  0.7818608E-02  0.1235076E+00
          4   -1    0    0  501    0  0.00000000000E+00  0.00000000000E+00  0.25073021648E+01  0.28105985387E+01  0.12700000000E+01 0. -1.
         -4   -1    0    0    0  501 -0.00000000000E+00 -0.00000000000E+00 -0.14686907378E+04  0.14686912869E+04  0.12700000000E+01 0. -1.
         25    2    1    2    0    0  0.00000000000E+00  0.00000000000E+00 -0.14661834356E+04  0.14715018854E+04  0.12499572753E+03 0.  0.
    9000005    1    3    3    0    0 -0.26393033010E+02 -0.40737017980E+02 -0.26977774034E+03  0.27411152112E+03  0.10000000000E+01 0.  0.
    9000005    1    3    3    0    0  0.26393033010E+02  0.40737017980E+02 -0.11964056953E+04  0.11973903643E+04  0.10000000000E+01 0.  0.
<mgrwt>
<rscale>  0 0.12499573E+03</rscale>
<asrwt>0</asrwt>
<pdfrwt beam="1">  1        4 0.40911270E-03 0.12499573E+03</pdfrwt>
<pdfrwt beam="2">  1       -4 0.22597515E+00 0.12499573E+03</pdfrwt>
<totfact> 0.18498409E+03</totfact>
</mgrwt>
</event>
<event>
 5    1  0.3422688E-002  0.1250015E+03  0.7818608E-02  0.1235067E+00
          4   -1    0    0  501    0  0.00000000000E+00  0.00000000000E+00  0.14560695064E+03  0.14561248907E+03  0.12700000000E+01 0.  1.
         -4   -1    0    0    0  501 -0.00000000000E+00 -0.00000000000E+00 -0.26806940680E+02  0.26837007445E+02  0.12700000000E+01 0.  1.
         25    2    1    2    0    0  0.00000000000E+00  0.00000000000E+00  0.11880000996E+03  0.17244949652E+03  0.12500154592E+03 0.  0.
    9000005    1    3    3    0    0  0.27323787378E+02  0.42455145512E+02  0.11020744238E+03  0.12122585984E+03  0.10000000000E+01 0.  0.
    9000005    1    3    3    0    0 -0.27323787378E+02 -0.42455145512E+02  0.85925675749E+01  0.51223636679E+02  0.10000000000E+01 0.  0.
<mgrwt>
<rscale>  0 0.12500155E+03</rscale>
<asrwt>0</asrwt>
<pdfrwt beam="1">  1        4 0.22403808E-01 0.12500155E+03</pdfrwt>
<pdfrwt beam="2">  1       -4 0.41268836E-02 0.12500155E+03</pdfrwt>
<totfact> 0.94990751E+03</totfact>
</mgrwt>
</event>
<event>
 5    1  0.3422688E-002  0.1249996E+03  0.7818608E-02  0.1235070E+00
          4   -1    0    0  501    0  0.00000000000E+00  0.00000000000E+00  0.13118076494E+02  0.13179409353E+02  0.12700000000E+01 0. -1.
         -4   -1    0    0    0  501 -0.00000000000E+00 -0.00000000000E+00 -0.29701684194E+03  0.29701955710E+03  0.12700000000E+01 0. -1.
         25    2    1    2    0    0  0.00000000000E+00  0.00000000000E+00 -0.28389876545E+03  0.31019896645E+03  0.12499955905E+03 0.  0.
    9000005    1    3    3    0    0 -0.50287817437E+02  0.22864155451E+02 -0.69446365445E+02  0.88743629972E+02  0.10000000000E+01 0.  0.
    9000005    1    3    3    0    0  0.50287817437E+02 -0.22864155451E+02 -0.21445240000E+03  0.22145533648E+03  0.10000000000E+01 0.  0.
<mgrwt>
<rscale>  0 0.12499956E+03</rscale>
<asrwt>0</asrwt>
<pdfrwt beam="1">  1        4 0.20230926E-02 0.12499956E+03</pdfrwt>
<pdfrwt beam="2">  1       -4 0.45699820E-01 0.12499956E+03</pdfrwt>
<totfact> 0.74337782E+03</totfact>
</mgrwt>
</event>
<event>
 5    1  0.3422688E-002  0.1249998E+03  0.7818608E-02  0.1235070E+00
          4   -1    0    0  501    0  0.00000000000E+00  0.00000000000E+00  0.60363140977E+02  0.60376499473E+02  0.12700000000E+01 0. -1.
         -4   -1    0    0    0  501 -0.00000000000E+00 -0.00000000000E+00 -0.64685549399E+02  0.64698015434E+02  0.12700000000E+01 0. -1.
         25    2    1    2    0    0  0.00000000000E+00  0.00000000000E+00 -0.43224084222E+01  0.12507451491E+03  0.12499980426E+03 0.  0.
    9000005    1    3    3    0    0 -0.56465507549E+02 -0.23521932690E+02  0.10637175793E+02  0.62094962509E+02  0.10000000000E+01 0.  0.
    9000005    1    3    3    0    0  0.56465507549E+02  0.23521932690E+02 -0.14959584215E+02  0.62979552397E+02  0.10000000000E+01 0.  0.
<mgrwt>
<rscale>  0 0.12499980E+03</rscale>
<asrwt>0</asrwt>
<pdfrwt beam="1">  1        4 0.92886236E-02 0.12499980E+03</pdfrwt>
<pdfrwt beam="2">  1       -4 0.99536095E-02 0.12499980E+03</pdfrwt>
<totfact> 0.10451291E+04</totfact>
</mgrwt>
</event>
<event>
 5    1  0.3422688E-002  0.1249979E+03  0.7818608E-02  0.1235073E+00
          4   -1    0    0  501    0  0.00000000000E+00  0.00000000000E+00  0.77777350990E+01  0.78807400204E+01  0.12700000000E+01 0.  1.
         -4   -1    0    0    0  501 -0.00000000000E+00 -0.00000000000E+00 -0.49881016689E+03  0.49881178363E+03  0.12700000000E+01 0.  1.
         25    2    1    2    0    0  0.00000000000E+00  0.00000000000E+00 -0.49103243179E+03  0.50669252365E+03  0.12499785781E+03 0.  0.
    9000005    1    3    3    0    0  0.54385218026E+02 -0.22925660842E+02 -0.32876617256E+03  0.33402325381E+03  0.10000000000E+01 0.  0.
    9000005    1    3    3    0    0 -0.54385218026E+02  0.22925660842E+02 -0.16226625923E+03  0.17266926985E+03  0.10000000000E+01 0.  0.
<mgrwt>
<rscale>  0 0.12499786E+03</rscale>
<asrwt>0</asrwt>
<pdfrwt beam="1">  1        4 0.12046228E-02 0.12499786E+03</pdfrwt>
<pdfrwt beam="2">  1       -4 0.76748049E-01 0.12499786E+03</pdfrwt>
<totfact> 0.55351440E+03</totfact>
</mgrwt>
</event>
<event>
 5    1  0.3422688E-002  0.1249976E+03  0.7818608E-02  0.1235073E+00
         -4   -1    0    0    0  501 -0.00000000000E+00  0.00000000000E+00  0.81996015068E+01  0.82973709613E+01  0.12700000000E+01 0. -1.
          4   -1    0    0  501    0  0.00000000000E+00 -0.00000000000E+00 -0.47345497838E+03  0.47345668170E+03  0.12700000000E+01 0. -1.
         25    2    1    2    0    0  0.00000000000E+00  0.00000000000E+00 -0.46525537687E+03  0.48175405266E+03  0.12499760619E+03 0.  0.
    9000005    1    3    3    0    0 -0.17972763613E+02  0.59742367231E+02 -0.21876912744E+03  0.22749308077E+03  0.10000000000E+01 0.  0.
    9000005    1    3    3    0    0  0.17972763613E+02 -0.59742367231E+02 -0.24648624943E+03  0.25426097190E+03  0.10000000000E+01 0.  0.
<mgrwt>
<rscale>  0 0.12499761E+03</rscale>
<asrwt>0</asrwt>
<pdfrwt beam="2">  1        4 0.72846858E-01 0.12499761E+03</pdfrwt>
<pdfrwt beam="1">  1       -4 0.12691293E-02 0.12499761E+03</pdfrwt>
<totfact> 0.57311376E+03</totfact>
</mgrwt>
</event>
<event>
 5    1  0.3422688E-002  0.1250021E+03  0.7818608E-02  0.1235066E+00
          4   -1    0    0  501    0  0.00000000000E+00  0.00000000000E+00  0.54871302797E+02  0.54885997947E+02  0.12700000000E+01 0. -1.
         -4   -1    0    0    0  501 -0.00000000000E+00 -0.00000000000E+00 -0.71161832466E+02  0.71173164184E+02  0.12700000000E+01 0. -1.
         25    2    1    2    0    0  0.00000000000E+00  0.00000000000E+00 -0.16290529669E+02  0.12605916213E+03  0.12500212398E+03 0.  0.
    9000005    1    3    3    0    0  0.14961048124E+02  0.15421879814E+02 -0.67324677539E+02  0.70677291570E+02  0.10000000000E+01 0.  0.
    9000005    1    3    3    0    0 -0.14961048124E+02 -0.15421879814E+02  0.51034147870E+02  0.55381870560E+02  0.10000000000E+01 0.  0.
<mgrwt>
<rscale>  0 0.12500212E+03</rscale>
<asrwt>0</asrwt>
<pdfrwt beam="1">  1        4 0.84437409E-02 0.12500212E+03</pdfrwt>
<pdfrwt beam="2">  1       -4 0.10949976E-01 0.12500212E+03</pdfrwt>
<totfact> 0.10429161E+04</totfact>
</mgrwt>
</event>
<event>
 5    1  0.3422688E-002  0.1249966E+03  0.7818608E-02  0.1235075E+00
         -4   -1    0    0    0  501 -0.00000000000E+00  0.00000000000E+00  0.64544538144E+02  0.64557031408E+02  0.12700000000E+01 0. -1.
          4   -1    0    0  501    0  0.00000000000E+00 -0.00000000000E+00 -0.60491897440E+02  0.60505227509E+02  0.12700000000E+01 0. -1.
         25    2    1    2    0    0  0.00000000000E+00  0.00000000000E+00  0.40526407038E+01  0.12506225892E+03  0.12499657879E+03 0.  0.
    9000005    1    3    3    0    0 -0.15974303748E+02  0.60062484516E+02  0.85378696677E+01  0.62742136121E+02  0.10000000000E+01 0.  0.
    9000005    1    3    3    0    0  0.15974303748E+02 -0.60062484516E+02 -0.44852289639E+01  0.62320122796E+02  0.10000000000E+01 0.  0.
<mgrwt>
<rscale>  0 0.12499658E+03</rscale>
<asrwt>0</asrwt>
<pdfrwt beam="2">  1        4 0.93084322E-02 0.12499658E+03</pdfrwt>
<pdfrwt beam="1">  1       -4 0.99319153E-02 0.12499658E+03</pdfrwt>
<totfact> 0.10452319E+04</totfact>
</mgrwt>
</event>
<event>
 5    1  0.3422688E-002  0.1250002E+03  0.7818608E-02  0.1235069E+00
          4   -1    0    0  501    0  0.00000000000E+00  0.00000000000E+00  0.57245980851E+02  0.57260066570E+02  0.12700000000E+01 0.  1.
         -4   -1    0    0    0  501 -0.00000000000E+00 -0.00000000000E+00 -0.68208092412E+02  0.68219914764E+02  0.12700000000E+01 0.  1.
         25    2    1    2    0    0  0.00000000000E+00  0.00000000000E+00 -0.10962111561E+02  0.12547998133E+03  0.12500023130E+03 0.  0.
    9000005    1    3    3    0    0 -0.51893638288E+02 -0.32511296221E+02 -0.17992050211E+02  0.63832969126E+02  0.10000000000E+01 0.  0.
    9000005    1    3    3    0    0  0.51893638288E+02  0.32511296221E+02  0.70299386496E+01  0.61647012208E+02  0.10000000000E+01 0.  0.
<mgrwt>
<rscale>  0 0.12500023E+03</rscale>
<asrwt>0</asrwt>
<pdfrwt beam="1">  1        4 0.88090669E-02 0.12500023E+03</pdfrwt>
<pdfrwt beam="2">  1       -4 0.10495546E-01 0.12500023E+03</pdfrwt>
<totfact> 0.10442342E+04</totfact>
</mgrwt>
</event>
<event>
 5    1  0.3422688E-002  0.1249815E+03  0.7818608E-02  0.1235098E+00
          4   -1    0    0  501    0  0.00000000000E+00  0.00000000000E+00  0.27073838539E+02  0.27103609229E+02  0.12700000000E+01 0.  1.
         -4   -1    0    0    0  501 -0.00000000000E+00 -0.00000000000E+00 -0.14412681450E+03  0.14413240981E+03  0.12700000000E+01 0.  1.
         25    2    1    2    0    0  0.00000000000E+00  0.00000000000E+00 -0.11705297596E+03  0.17123601904E+03  0.12498149877E+03 0.  0.
    9000005    1    3    3    0    0  0.13035189969E+02 -0.36096855980E+02  0.90287849229E+01  0.39438789870E+02  0.10000000000E+01 0.  0.
    9000005    1    3    3    0    0 -0.13035189969E+02  0.36096855980E+02 -0.12608176089E+03  0.13179722917E+03  0.10000000000E+01 0.  0.
<mgrwt>
<rscale>  0 0.12498150E+03</rscale>
<asrwt>0</asrwt>
<pdfrwt beam="1">  1        4 0.41679265E-02 0.12498150E+03</pdfrwt>
<pdfrwt beam="2">  1       -4 0.22176076E-01 0.12498150E+03</pdfrwt>
<totfact> 0.95258306E+03</totfact>
</mgrwt>
</event>
<event>
 5    1  0.3422688E-002  0.1249660E+03  0.7818608E-02  0.1235122E+00
         -4   -1    0    0    0  501 -0.00000000000E+00  0.00000000000E+00  0.18264637963E+02  0.18308738349E+02  0.12700000000E+01 0. -1.
          4   -1    0    0  501    0  0.00000000000E+00 -0.00000000000E+00 -0.21344941141E+03  0.21345318956E+03  0.12700000000E+01 0. -1.
         25    2    1    2    0    0  0.00000000000E+00  0.00000000000E+00 -0.19518477345E+03  0.23176192791E+03  0.12496597713E+03 0.  0.
    9000005    1    3    3    0    0 -0.39196439536E+02 -0.47103051847E+02 -0.12015956378E+03  0.13488654170E+03  0.10000000000E+01 0.  0.
    9000005    1    3    3    0    0  0.39196439536E+02  0.47103051847E+02 -0.75025209671E+02  0.96875386202E+02  0.10000000000E+01 0.  0.
<mgrwt>
<rscale>  0 0.12496598E+03</rscale>
<asrwt>0</asrwt>
<pdfrwt beam="2">  1        4 0.32842052E-01 0.12496598E+03</pdfrwt>
<pdfrwt beam="1">  1       -4 0.28136274E-02 0.12496598E+03</pdfrwt>
<totfact> 0.85104362E+03</totfact>
</mgrwt>
</event>
<event>
 5    1  0.3422688E-002  0.1249990E+03  0.7818608E-02  0.1235071E+00
          4   -1    0    0  501    0  0.00000000000E+00  0.00000000000E+00  0.51000792147E+02  0.51016602196E+02  0.12700000000E+01 0.  1.
         -4   -1    0    0    0  501 -0.00000000000E+00 -0.00000000000E+00 -0.76557721987E+02  0.76568255144E+02  0.12700000000E+01 0.  1.
         25    2    1    2    0    0  0.00000000000E+00  0.00000000000E+00 -0.25556929839E+02  0.12758485734E+03  0.12499895663E+03 0.  0.
    9000005    1    3    3    0    0 -0.64320414560E+01  0.60745946831E+02 -0.26232331690E+02  0.66487415648E+02  0.10000000000E+01 0.  0.
    9000005    1    3    3    0    0  0.64320414560E+01 -0.60745946831E+02  0.67540185096E+00  0.61097441692E+02  0.10000000000E+01 0.  0.
<mgrwt>
<rscale>  0 0.12499896E+03</rscale>
<asrwt>0</asrwt>
<pdfrwt beam="1">  1        4 0.78483021E-02 0.12499896E+03</pdfrwt>
<pdfrwt beam="2">  1       -4 0.11780137E-01 0.12499896E+03</pdfrwt>
<totfact> 0.10396708E+04</totfact>
</mgrwt>
</event>
<event>
 5    1  0.3422688E-002  0.1249783E+03  0.7818608E-02  0.1235103E+00
         -4   -1    0    0    0  501 -0.00000000000E+00  0.00000000000E+00  0.69026405003E+01  0.70185002583E+01  0.12700000000E+01 0.  1.
          4   -1    0    0  501    0  0.00000000000E+00 -0.00000000000E+00 -0.56088541178E+03  0.56088684960E+03  0.12700000000E+01 0.  1.
         25    2    1    2    0    0  0.00000000000E+00  0.00000000000E+00 -0.55398277128E+03  0.56790534986E+03  0.12497830018E+03 0.  0.
    9000005    1    3    3    0    0 -0.35801203572E+02 -0.40280315765E+02 -0.42066213038E+03  0.42410123550E+03  0.10000000000E+01 0.  0.
    9000005    1    3    3    0    0  0.35801203572E+02  0.40280315765E+02 -0.13332064090E+03  0.14380411436E+03  0.10000000000E+01 0.  0.
<mgrwt>
<rscale>  0 0.12497830E+03</rscale>
<asrwt>0</asrwt>
<pdfrwt beam="2">  1        4 0.86299051E-01 0.12497830E+03</pdfrwt>
<pdfrwt beam="1">  1       -4 0.10709680E-02 0.12497830E+03</pdfrwt>
<totfact> 0.50982569E+03</totfact>
</mgrwt>
</event>
<event>
 5    1  0.3422688E-002  0.1250054E+03  0.7818608E-02  0.1235061E+00
          4   -1    0    0  501    0  0.00000000000E+00  0.00000000000E+00  0.15562433895E+03  0.15562952089E+03  0.12700000000E+01 0.  1.
         -4   -1    0    0    0  501 -0.00000000000E+00 -0.00000000000E+00 -0.25081025073E+02  0.25113158278E+02  0.12700000000E+01 0.  1.
         25    2    1    2    0    0  0.00000000000E+00  0.00000000000E+00  0.13054331388E+03  0.18074267917E+03  0.12500543699E+03 0.  0.
    9000005    1    3    3    0    0 -0.38771475709E+02  0.45292060391E+02  0.38183449231E+02  0.70806594738E+02  0.10000000000E+01 0.  0.
    9000005    1    3    3    0    0  0.38771475709E+02 -0.45292060391E+02  0.92359864644E+02  0.10993608443E+03  0.10000000000E+01 0.  0.
<mgrwt>
<rscale>  0 0.12500544E+03</rscale>
<asrwt>0</asrwt>
<pdfrwt beam="1">  1        4 0.23945076E-01 0.12500544E+03</pdfrwt>
<pdfrwt beam="2">  1       -4 0.38614896E-02 0.12500544E+03</pdfrwt>
<totfact> 0.93472094E+03</totfact>
</mgrwt>
</event>
<event>
 5    1  0.3422688E-002  0.1249862E+03  0.7818608E-02  0.1235091E+00
          4   -1    0    0  501    0  0.00000000000E+00  0.00000000000E+00  0.27926410989E+02  0.27955273755E+02  0.12700000000E+01 0.  1.
         -4   -1    0    0    0  501 -0.00000000000E+00 -0.00000000000E+00 -0.13974167397E+03  0.13974744486E+03  0.12700000000E+01 0.  1.
         25    2    1    2    0    0  0.00000000000E+00  0.00000000000E+00 -0.11181526298E+03  0.16770271861E+03  0.12498619442E+03 0.  0.
    9000005    1    3    3    0    0 -0.25693806017E+02 -0.43693758465E+02 -0.10493405807E+03  0.11653957585E+03  0.10000000000E+01 0.  0.
    9000005    1    3    3    0    0  0.25693806017E+02  0.43693758465E+02 -0.68812049146E+01  0.51163142765E+02  0.10000000000E+01 0.  0.
<mgrwt>
<rscale>  0 0.12498619E+03</rscale>
<asrwt>0</asrwt>
<pdfrwt beam="1">  1        4 0.42990351E-02 0.12498619E+03</pdfrwt>
<pdfrwt beam="2">  1       -4 0.21501383E-01 0.12498619E+03</pdfrwt>
<totfact> 0.95907708E+03</totfact>
</mgrwt>
</event>
<event>
 5    1  0.3422688E-002  0.1250003E+03  0.7818608E-02  0.1235069E+00
          4   -1    0    0  501    0  0.00000000000E+00  0.00000000000E+00  0.15378052719E+03  0.15378577127E+03  0.12700000000E+01 0. -1.
         -4   -1    0    0    0  501 -0.00000000000E+00 -0.00000000000E+00 -0.25380010943E+02  0.25411766083E+02  0.12700000000E+01 0. -1.
         25    2    1    2    0    0  0.00000000000E+00  0.00000000000E+00  0.12840051625E+03  0.17919753735E+03  0.12500025927E+03 0.  0.
    9000005    1    3    3    0    0 -0.40449342762E+02 -0.33143952113E+02  0.15151895534E+02  0.54454116739E+02  0.10000000000E+01 0.  0.
    9000005    1    3    3    0    0  0.40449342762E+02  0.33143952113E+02  0.11324862072E+03  0.12474342061E+03  0.10000000000E+01 0.  0.
<mgrwt>
<rscale>  0 0.12500026E+03</rscale>
<asrwt>0</asrwt>
<pdfrwt beam="1">  1        4 0.23661389E-01 0.12500026E+03</pdfrwt>
<pdfrwt beam="2">  1       -4 0.39074631E-02 0.12500026E+03</pdfrwt>
<totfact> 0.93761103E+03</totfact>
</mgrwt>
</event>
<event>
 5    1  0.3422688E-002  0.1249844E+03  0.7818608E-02  0.1235094E+00
          4   -1    0    0  501    0  0.00000000000E+00  0.00000000000E+00  0.18048420539E+03  0.18048867359E+03  0.12700000000E+01 0.  1.
         -4   -1    0    0    0  501 -0.00000000000E+00 -0.00000000000E+00 -0.21614407815E+02  0.21651686428E+02  0.12700000000E+01 0.  1.
         25    2    1    2    0    0  0.00000000000E+00  0.00000000000E+00  0.15886979757E+03  0.20214036002E+03  0.12498444930E+03 0.  0.
    9000005    1    3    3    0    0 -0.23492274903E+02 -0.57860652033E+02  0.75990299154E+02  0.98362938139E+02  0.10000000000E+01 0.  0.
    9000005    1    3    3    0    0  0.23492274903E+02  0.57860652033E+02  0.82879498419E+02  0.10377742188E+03  0.10000000000E+01 0.  0.
<mgrwt>
<rscale>  0 0.12498445E+03</rscale>
<asrwt>0</asrwt>
<pdfrwt beam="1">  1        4 0.27770012E-01 0.12498445E+03</pdfrwt>
<pdfrwt beam="2">  1       -4 0.33285048E-02 0.12498445E+03</pdfrwt>
<totfact> 0.89807009E+03</totfact>
</mgrwt>
</event>
<event>
 5    1  0.3422688E-002  0.1250030E+03  0.7818608E-02  0.1235065E+00
         -4   -1    0    0    0  501 -0.00000000000E+00  0.00000000000E+00  0.52537223866E+02  0.52552571693E+02  0.12700000000E+01 0. -1.
          4   -1    0    0  501    0  0.00000000000E+00 -0.00000000000E+00 -0.74324008699E+02  0.74334858371E+02  0.12700000000E+01 0. -1.
         25    2    1    2    0    0  0.00000000000E+00  0.00000000000E+00 -0.21786784833E+02  0.12688743006E+03  0.12500302362E+03 0.  0.
    9000005    1    3    3    0    0 -0.18485794200E+02 -0.35709010901E+01  0.49594877140E+02  0.53057777567E+02  0.10000000000E+01 0.  0.
    9000005    1    3    3    0    0  0.18485794200E+02  0.35709010901E+01 -0.71381661973E+02  0.73829652497E+02  0.10000000000E+01 0.  0.
<mgrwt>
<rscale>  0 0.12500302E+03</rscale>
<asrwt>0</asrwt>
<pdfrwt beam="2">  1        4 0.11436478E-01 0.12500302E+03</pdfrwt>
<pdfrwt beam="1">  1       -4 0.80846650E-02 0.12500302E+03</pdfrwt>
<totfact> 0.10410882E+04</totfact>
</mgrwt>
</event>
<event>
 5    1  0.3422688E-002  0.1249965E+03  0.7818608E-02  0.1235075E+00
         -4   -1    0    0    0  501 -0.00000000000E+00  0.00000000000E+00  0.10895237385E+03  0.10895977545E+03  0.12700000000E+01 0. -1.
          4   -1    0    0  501    0  0.00000000000E+00 -0.00000000000E+00 -0.35830965421E+02  0.35853465425E+02  0.12700000000E+01 0. -1.
         25    2    1    2    0    0  0.00000000000E+00  0.00000000000E+00  0.73121408426E+02  0.14481324088E+03  0.12499653741E+03 0.  0.
    9000005    1    3    3    0    0 -0.12710465090E+02  0.58830657593E+02  0.17090667239E+02  0.62575499218E+02  0.10000000000E+01 0.  0.
    9000005    1    3    3    0    0  0.12710465090E+02 -0.58830657593E+02  0.56030741187E+02  0.82237741661E+02  0.10000000000E+01 0.  0.
<mgrwt>
<rscale>  0 0.12499654E+03</rscale>
<asrwt>0</asrwt>
<pdfrwt beam="2">  1        4 0.55147564E-02 0.12499654E+03</pdfrwt>
<pdfrwt beam="1">  1       -4 0.16764204E-01 0.12499654E+03</pdfrwt>
<totfact> 0.10035567E+04</totfact>
</mgrwt>
</event>
<event>
 5    1  0.3422688E-002  0.1250188E+03  0.7818608E-02  0.1235040E+00
         -4   -1    0    0    0  501 -0.00000000000E+00  0.00000000000E+00  0.19819367710E+03  0.19819774606E+03  0.12700000000E+01 0. -1.
          4   -1    0    0  501    0  0.00000000000E+00 -0.00000000000E+00 -0.19690453813E+02  0.19731367702E+02  0.12700000000E+01 0. -1.
         25    2    1    2    0    0  0.00000000000E+00  0.00000000000E+00  0.17850322329E+03  0.21792911376E+03  0.12501879019E+03 0.  0.
    9000005    1    3    3    0    0 -0.47726568563E+02 -0.20635297767E+02  0.14970681862E+03  0.15848271957E+03  0.10000000000E+01 0.  0.
    9000005    1    3    3    0    0  0.47726568563E+02  0.20635297767E+02  0.28796404671E+02  0.59446394194E+02  0.10000000000E+01 0.  0.
<mgrwt>
<rscale>  0 0.12501879E+03</rscale>
<asrwt>0</asrwt>
<pdfrwt beam="2">  1        4 0.30327607E-02 0.12501879E+03</pdfrwt>
<pdfrwt beam="1">  1       -4 0.30494796E-01 0.12501879E+03</pdfrwt>
<totfact> 0.87160509E+03</totfact>
</mgrwt>
</event>
<event>
 5    1  0.3422688E-002  0.1249988E+03  0.7818608E-02  0.1235071E+00
         -4   -1    0    0    0  501 -0.00000000000E+00  0.00000000000E+00  0.51637823835E+01  0.53176638201E+01  0.12700000000E+01 0.  1.
          4   -1    0    0  501    0  0.00000000000E+00 -0.00000000000E+00 -0.74519576009E+03  0.74519684229E+03  0.12700000000E+01 0.  1.
         25    2    1    2    0    0  0.00000000000E+00  0.00000000000E+00 -0.74003197771E+03  0.75051450611E+03  0.12499878340E+03 0.  0.
    9000005    1    3    3    0    0  0.39868641423E+02  0.30749087306E+02 -0.59226446522E+03  0.59440155762E+03  0.10000000000E+01 0.  0.
    9000005    1    3    3    0    0 -0.39868641423E+02 -0.30749087306E+02 -0.14776751248E+03  0.15611294848E+03  0.10000000000E+01 0.  0.
<mgrwt>
<rscale>  0 0.12499878E+03</rscale>
<asrwt>0</asrwt>
<pdfrwt beam="2">  1        4 0.11465734E+00 0.12499878E+03</pdfrwt>
<pdfrwt beam="1">  1       -4 0.80634893E-03 0.12499878E+03</pdfrwt>
<totfact> 0.40550642E+03</totfact>
</mgrwt>
</event>
<event>
 5    1  0.3422688E-002  0.1249986E+03  0.7818608E-02  0.1235072E+00
          4   -1    0    0  501    0  0.00000000000E+00  0.00000000000E+00  0.27509135638E+03  0.27509428794E+03  0.12700000000E+01 0.  1.
         -4   -1    0    0    0  501 -0.00000000000E+00 -0.00000000000E+00 -0.14168088844E+02  0.14224895131E+02  0.12700000000E+01 0.  1.
         25    2    1    2    0    0  0.00000000000E+00  0.00000000000E+00  0.26092326754E+03  0.28931918307E+03  0.12499855259E+03 0.  0.
    9000005    1    3    3    0    0  0.60022936703E+02 -0.99000494952E+00  0.17064654000E+03  0.18090045510E+03  0.10000000000E+01 0.  0.
    9000005    1    3    3    0    0 -0.60022936703E+02  0.99000494952E+00  0.90276727539E+02  0.10841872797E+03  0.10000000000E+01 0.  0.
<mgrwt>
<rscale>  0 0.12499855E+03</rscale>
<asrwt>0</asrwt>
<pdfrwt beam="1">  1        4 0.42326338E-01 0.12499855E+03</pdfrwt>
<pdfrwt beam="2">  1       -4 0.21843014E-02 0.12499855E+03</pdfrwt>
<totfact> 0.76960932E+03</totfact>
</mgrwt>
</event>
<event>
 5    1  0.3422688E-002  0.1249990E+03  0.7818608E-02  0.1235071E+00
         -4   -1    0    0    0  501 -0.00000000000E+00  0.00000000000E+00  0.97958204850E+02  0.97966437096E+02  0.12700000000E+01 0. -1.
          4   -1    0    0  501    0  0.00000000000E+00 -0.00000000000E+00 -0.39856058568E+02  0.39876287497E+02  0.12700000000E+01 0. -1.
         25    2    1    2    0    0  0.00000000000E+00  0.00000000000E+00  0.58102146282E+02  0.13784272459E+03  0.12499902928E+03 0.  0.
    9000005    1    3    3    0    0 -0.26144047736E+02  0.34011831262E+00 -0.33539724124E+02  0.42538688353E+02  0.10000000000E+01 0.  0.
    9000005    1    3    3    0    0  0.26144047736E+02 -0.34011831262E+00  0.91641870405E+02  0.95304036241E+02  0.10000000000E+01 0.  0.
<mgrwt>
<rscale>  0 0.12499903E+03</rscale>
<asrwt>0</asrwt>
<pdfrwt beam="2">  1        4 0.61338907E-02 0.12499903E+03</pdfrwt>
<pdfrwt beam="1">  1       -4 0.15072682E-01 0.12499903E+03</pdfrwt>
<totfact> 0.10178716E+04</totfact>
</mgrwt>
</event>
<event>
 5    1  0.3422688E-002  0.1250011E+03  0.7818608E-02  0.1235068E+00
          4   -1    0    0  501    0  0.00000000000E+00  0.00000000000E+00  0.15857100627E+03  0.15857609192E+03  0.12700000000E+01 0. -1.
         -4   -1    0    0    0  501 -0.00000000000E+00 -0.00000000000E+00 -0.24612649491E+02  0.24645393382E+02  0.12700000000E+01 0. -1.
         25    2    1    2    0    0  0.00000000000E+00  0.00000000000E+00  0.13395835678E+03  0.18322148531E+03  0.12500108530E+03 0.  0.
    9000005    1    3    3    0    0  0.19853818595E+02 -0.58827106933E+02  0.77396922647E+02  0.99227447100E+02  0.10000000000E+01 0.  0.
    9000005    1    3    3    0    0 -0.19853818595E+02  0.58827106933E+02  0.56561434134E+02  0.83994038206E+02  0.10000000000E+01 0.  0.
<mgrwt>
<rscale>  0 0.12500109E+03</rscale>
<asrwt>0</asrwt>
<pdfrwt beam="1">  1        4 0.24398450E-01 0.12500109E+03</pdfrwt>
<pdfrwt beam="2">  1       -4 0.37894713E-02 0.12500109E+03</pdfrwt>
<totfact> 0.93038054E+03</totfact>
</mgrwt>
</event>
<event>
 5    1  0.3422688E-002  0.1250022E+03  0.7818608E-02  0.1235066E+00
         -4   -1    0    0    0  501 -0.00000000000E+00  0.00000000000E+00  0.14748316612E+03  0.14748863410E+03  0.12700000000E+01 0.  1.
          4   -1    0    0  501    0  0.00000000000E+00 -0.00000000000E+00 -0.26465830820E+02  0.26496284664E+02  0.12700000000E+01 0.  1.
         25    2    1    2    0    0  0.00000000000E+00  0.00000000000E+00  0.12101733530E+03  0.17398491877E+03  0.12500222604E+03 0.  0.
    9000005    1    3    3    0    0 -0.21530379912E+02 -0.23734272751E+02 -0.14166841808E+02  0.35050996691E+02  0.10000000000E+01 0.  0.
    9000005    1    3    3    0    0  0.21530379912E+02  0.23734272751E+02  0.13518417711E+03  0.13893392207E+03  0.10000000000E+01 0.  0.
<mgrwt>
<rscale>  0 0.12500223E+03</rscale>
<asrwt>0</asrwt>
<pdfrwt beam="2">  1        4 0.40744296E-02 0.12500223E+03</pdfrwt>
<pdfrwt beam="1">  1       -4 0.22692480E-01 0.12500223E+03</pdfrwt>
<totfact> 0.94706350E+03</totfact>
</mgrwt>
</event>
<event>
 5    1  0.3422688E-002  0.1249988E+03  0.7818608E-02  0.1235071E+00
         -4   -1    0    0    0  501 -0.00000000000E+00  0.00000000000E+00  0.98937048296E+01  0.99748832201E+01  0.12700000000E+01 0.  1.
          4   -1    0    0  501    0  0.00000000000E+00 -0.00000000000E+00 -0.39311858620E+03  0.39312063761E+03  0.12700000000E+01 0.  1.
         25    2    1    2    0    0  0.00000000000E+00  0.00000000000E+00 -0.38322488137E+03  0.40309552083E+03  0.12499875685E+03 0.  0.
    9000005    1    3    3    0    0  0.53191670248E+02 -0.47754017876E+00 -0.29737349030E+03  0.30209530709E+03  0.10000000000E+01 0.  0.
    9000005    1    3    3    0    0 -0.53191670248E+02  0.47754017876E+00 -0.85851391068E+02  0.10100021375E+03  0.10000000000E+01 0.  0.
<mgrwt>
<rscale>  0 0.12499876E+03</rscale>
<asrwt>0</asrwt>
<pdfrwt beam="2">  1        4 0.60486173E-01 0.12499876E+03</pdfrwt>
<pdfrwt beam="1">  1       -4 0.15285110E-02 0.12499876E+03</pdfrwt>
<totfact> 0.64254601E+03</totfact>
</mgrwt>
</event>
<event>
 5    1  0.3422688E-002  0.1250025E+03  0.7818608E-02  0.1235065E+00
         -4   -1    0    0    0  501 -0.00000000000E+00  0.00000000000E+00  0.26847541983E+03  0.26847842363E+03  0.12700000000E+01 0. -1.
          4   -1    0    0  501    0  0.00000000000E+00 -0.00000000000E+00 -0.14519532159E+02  0.14574968752E+02  0.12700000000E+01 0. -1.
         25    2    1    2    0    0  0.00000000000E+00  0.00000000000E+00  0.25395588767E+03  0.28305339238E+03  0.12500252019E+03 0.  0.
    9000005    1    3    3    0    0 -0.31349737031E+01  0.62133854105E+02  0.14036724275E+03  0.15353959334E+03  0.10000000000E+01 0.  0.
    9000005    1    3    3    0    0  0.31349737031E+01 -0.62133854105E+02  0.11358864492E+03  0.12951379904E+03  0.10000000000E+01 0.  0.
<mgrwt>
<rscale>  0 0.12500252E+03</rscale>
<asrwt>0</asrwt>
<pdfrwt beam="2">  1        4 0.22382698E-02 0.12500252E+03</pdfrwt>
<pdfrwt beam="1">  1       -4 0.41308402E-01 0.12500252E+03</pdfrwt>
<totfact> 0.77770628E+03</totfact>
</mgrwt>
</event>
<event>
 5    1  0.3422688E-002  0.1249993E+03  0.7818608E-02  0.1235070E+00
         -4   -1    0    0    0  501 -0.00000000000E+00  0.00000000000E+00  0.12499702160E+04  0.12499708611E+04  0.12700000000E+01 0. -1.
          4   -1    0    0  501    0  0.00000000000E+00 -0.00000000000E+00 -0.29953379605E+01  0.32534519357E+01  0.12700000000E+01 0. -1.
         25    2    1    2    0    0  0.00000000000E+00  0.00000000000E+00  0.12469748780E+04  0.12532243131E+04  0.12499933004E+03 0.  0.
    9000005    1    3    3    0    0 -0.22945824466E+02  0.54435946394E+02  0.82783405237E+03  0.82993975768E+03  0.10000000000E+01 0.  0.
    9000005    1    3    3    0    0  0.22945824466E+02 -0.54435946394E+02  0.41914082563E+03  0.42328455539E+03  0.10000000000E+01 0.  0.
<mgrwt>
<rscale>  0 0.12499933E+03</rscale>
<asrwt>0</asrwt>
<pdfrwt beam="2">  1        4 0.48072570E-03 0.12499933E+03</pdfrwt>
<pdfrwt beam="1">  1       -4 0.19232304E+00 0.12499933E+03</pdfrwt>
<totfact> 0.23360448E+03</totfact>
</mgrwt>
</event>
<event>
 5    1  0.3422688E-002  0.1250031E+03  0.7818608E-02  0.1235064E+00
         -4   -1    0    0    0  501 -0.00000000000E+00  0.00000000000E+00  0.10692629556E+02  0.10767786533E+02  0.12700000000E+01 0. -1.
          4   -1    0    0  501    0  0.00000000000E+00 -0.00000000000E+00 -0.36398419331E+03  0.36398640892E+03  0.12700000000E+01 0. -1.
         25    2    1    2    0    0  0.00000000000E+00  0.00000000000E+00 -0.35329156375E+03  0.37475419545E+03  0.12500311193E+03 0.  0.
    9000005    1    3    3    0    0 -0.50540876971E+02 -0.17617500403E+02 -0.27335902302E+03  0.27855145312E+03  0.10000000000E+01 0.  0.
    9000005    1    3    3    0    0  0.50540876971E+02  0.17617500403E+02 -0.79932540727E+02  0.96202742334E+02  0.10000000000E+01 0.  0.
<mgrwt>
<rscale>  0 0.12500311E+03</rscale>
<asrwt>0</asrwt>
<pdfrwt beam="2">  1        4 0.56003511E-01 0.12500311E+03</pdfrwt>
<pdfrwt beam="1">  1       -4 0.16509719E-02 0.12500311E+03</pdfrwt>
<totfact> 0.67079865E+03</totfact>
</mgrwt>
</event>
<event>
 5    1  0.3422688E-002  0.1250017E+03  0.7818608E-02  0.1235067E+00
         -4   -1    0    0    0  501 -0.00000000000E+00  0.00000000000E+00  0.44762364882E+03  0.44762545045E+03  0.12700000000E+01 0. -1.
          4   -1    0    0  501    0  0.00000000000E+00 -0.00000000000E+00 -0.86788360578E+01  0.87712653202E+01  0.12700000000E+01 0. -1.
         25    2    1    2    0    0  0.00000000000E+00  0.00000000000E+00  0.43894481277E+03  0.45639671577E+03  0.12500165402E+03 0.  0.
    9000005    1    3    3    0    0 -0.57529532904E+01 -0.61676706160E+02  0.18931118827E+03  0.19919045800E+03  0.10000000000E+01 0.  0.
    9000005    1    3    3    0    0  0.57529532904E+01  0.61676706160E+02  0.24963362450E+03  0.25720625777E+03  0.10000000000E+01 0.  0.
<mgrwt>
<rscale>  0 0.12500165E+03</rscale>
<asrwt>0</asrwt>
<pdfrwt beam="2">  1        4 0.13424538E-02 0.12500165E+03</pdfrwt>
<pdfrwt beam="1">  1       -4 0.68872441E-01 0.12500165E+03</pdfrwt>
<totfact> 0.59411452E+03</totfact>
</mgrwt>
</event>
<event>
 5    1  0.3422688E-002  0.1250057E+03  0.7818608E-02  0.1235060E+00
          4   -1    0    0  501    0  0.00000000000E+00  0.00000000000E+00  0.21544069510E+02  0.21581469622E+02  0.12700000000E+01 0.  1.
         -4   -1    0    0    0  501 -0.00000000000E+00 -0.00000000000E+00 -0.18113395341E+03  0.18113840559E+03  0.12700000000E+01 0.  1.
         25    2    1    2    0    0  0.00000000000E+00  0.00000000000E+00 -0.15958988390E+03  0.20271987521E+03  0.12500566692E+03 0.  0.
    9000005    1    3    3    0    0  0.54561501131E+02 -0.30175301904E+02 -0.86693863351E+02  0.10679106795E+03  0.10000000000E+01 0.  0.
    9000005    1    3    3    0    0 -0.54561501131E+02  0.30175301904E+02 -0.72896020552E+02  0.95928807263E+02  0.10000000000E+01 0.  0.
<mgrwt>
<rscale>  0 0.12500567E+03</rscale>
<asrwt>0</asrwt>
<pdfrwt beam="1">  1        4 0.33176918E-02 0.12500567E+03</pdfrwt>
<pdfrwt beam="2">  1       -4 0.27869981E-01 0.12500567E+03</pdfrwt>
<totfact> 0.89667429E+03</totfact>
</mgrwt>
</event>
<event>
 5    1  0.3422688E-002  0.1250029E+03  0.7818608E-02  0.1235065E+00
          4   -1    0    0  501    0  0.00000000000E+00  0.00000000000E+00  0.17900402829E+02  0.17945398336E+02  0.12700000000E+01 0.  1.
         -4   -1    0    0    0  501 -0.00000000000E+00 -0.00000000000E+00 -0.21791069693E+03  0.21791439773E+03  0.12700000000E+01 0.  1.
         25    2    1    2    0    0  0.00000000000E+00  0.00000000000E+00 -0.20001029410E+03  0.23585979606E+03  0.12500290258E+03 0.  0.
    9000005    1    3    3    0    0 -0.29027970640E+02  0.55312057579E+02 -0.96533873953E+02  0.11498624097E+03  0.10000000000E+01 0.  0.
    9000005    1    3    3    0    0  0.29027970640E+02 -0.55312057579E+02 -0.10347642015E+03  0.12087355509E+03  0.10000000000E+01 0.  0.
<mgrwt>
<rscale>  0 0.12500290E+03</rscale>
<asrwt>0</asrwt>
<pdfrwt beam="1">  1        4 0.27576541E-02 0.12500290E+03</pdfrwt>
<pdfrwt beam="2">  1       -4 0.33528467E-01 0.12500290E+03</pdfrwt>
<totfact> 0.84412403E+03</totfact>
</mgrwt>
</event>
<event>
 5    1  0.3422688E-002  0.1250001E+03  0.7818608E-02  0.1235069E+00
          4   -1    0    0  501    0  0.00000000000E+00  0.00000000000E+00  0.92203220918E+01  0.93073755418E+01  0.12700000000E+01 0.  1.
         -4   -1    0    0    0  501 -0.00000000000E+00 -0.00000000000E+00 -0.42157878386E+03  0.42158069678E+03  0.12700000000E+01 0.  1.
         25    2    1    2    0    0  0.00000000000E+00  0.00000000000E+00 -0.41235846176E+03  0.43088807232E+03  0.12500011952E+03 0.  0.
    9000005    1    3    3    0    0 -0.54767322728E+02 -0.29771956198E+02 -0.19098519379E+03  0.20090339285E+03  0.10000000000E+01 0.  0.
    9000005    1    3    3    0    0  0.54767322728E+02  0.29771956198E+02 -0.22137326798E+03  0.22998467947E+03  0.10000000000E+01 0.  0.
<mgrwt>
<rscale>  0 0.12500012E+03</rscale>
<asrwt>0</asrwt>
<pdfrwt beam="1">  1        4 0.14253550E-02 0.12500012E+03</pdfrwt>
<pdfrwt beam="2">  1       -4 0.64865103E-01 0.12500012E+03</pdfrwt>
<totfact> 0.61655420E+03</totfact>
</mgrwt>
</event>
<event>
 5    1  0.3422688E-002  0.1250008E+03  0.7818608E-02  0.1235068E+00
          4   -1    0    0  501    0  0.00000000000E+00  0.00000000000E+00  0.26216426637E+02  0.26247169859E+02  0.12700000000E+01 0.  1.
         -4   -1    0    0    0  501 -0.00000000000E+00 -0.00000000000E+00 -0.14888115303E+03  0.14888656967E+03  0.12700000000E+01 0.  1.
         25    2    1    2    0    0  0.00000000000E+00  0.00000000000E+00 -0.12266472640E+03  0.17513373953E+03  0.12500076648E+03 0.  0.
    9000005    1    3    3    0    0 -0.35883160821E+02 -0.36937327734E+02 -0.11731418486E+02  0.52826069230E+02  0.10000000000E+01 0.  0.
    9000005    1    3    3    0    0  0.35883160821E+02  0.36937327734E+02 -0.11093330791E+03  0.12230767030E+03  0.10000000000E+01 0.  0.
<mgrwt>
<rscale>  0 0.12500077E+03</rscale>
<asrwt>0</asrwt>
<pdfrwt beam="1">  1        4 0.40360780E-02 0.12500077E+03</pdfrwt>
<pdfrwt beam="2">  1       -4 0.22907574E-01 0.12500077E+03</pdfrwt>
<totfact> 0.94498727E+03</totfact>
</mgrwt>
</event>
<event>
 5    1  0.3422688E-002  0.1250007E+03  0.7818608E-02  0.1235068E+00
          4   -1    0    0  501    0  0.00000000000E+00  0.00000000000E+00  0.22228365747E+03  0.22228728547E+03  0.12700000000E+01 0.  1.
         -4   -1    0    0    0  501 -0.00000000000E+00 -0.00000000000E+00 -0.17546746054E+02  0.17592646108E+02  0.12700000000E+01 0.  1.
         25    2    1    2    0    0  0.00000000000E+00  0.00000000000E+00  0.20473691142E+03  0.23987993157E+03  0.12500071470E+03 0.  0.
    9000005    1    3    3    0    0 -0.48676373906E+02  0.35098707885E+02  0.68909821481E+02  0.91383106581E+02  0.10000000000E+01 0.  0.
    9000005    1    3    3    0    0  0.48676373906E+02 -0.35098707885E+02  0.13582708994E+03  0.14849682499E+03  0.10000000000E+01 0.  0.
<mgrwt>
<rscale>  0 0.12500071E+03</rscale>
<asrwt>0</asrwt>
<pdfrwt beam="1">  1        4 0.34201293E-01 0.12500071E+03</pdfrwt>
<pdfrwt beam="2">  1       -4 0.27033094E-02 0.12500071E+03</pdfrwt>
<totfact> 0.83813919E+03</totfact>
</mgrwt>
</event>
<event>
 5    1  0.3422688E-002  0.1249649E+03  0.7818608E-02  0.1235124E+00
          4   -1    0    0  501    0  0.00000000000E+00  0.00000000000E+00  0.22871000679E+03  0.22871353285E+03  0.12700000000E+01 0. -1.
         -4   -1    0    0    0  501 -0.00000000000E+00 -0.00000000000E+00 -0.17042605630E+02  0.17089859761E+02  0.12700000000E+01 0. -1.
         25    2    1    2    0    0  0.00000000000E+00  0.00000000000E+00  0.21166740116E+03  0.24580339261E+03  0.12496487147E+03 0.  0.
    9000005    1    3    3    0    0 -0.28520230503E+02  0.46585153673E+02  0.46189281329E+02  0.71540406767E+02  0.10000000000E+01 0.  0.
    9000005    1    3    3    0    0  0.28520230503E+02 -0.46585153673E+02  0.16547811983E+03  0.17426298584E+03  0.10000000000E+01 0.  0.
<mgrwt>
<rscale>  0 0.12496487E+03</rscale>
<asrwt>0</asrwt>
<pdfrwt beam="1">  1        4 0.35190060E-01 0.12496487E+03</pdfrwt>
<pdfrwt beam="2">  1       -4 0.26258456E-02 0.12496487E+03</pdfrwt>
<totfact> 0.83005534E+03</totfact>
</mgrwt>
</event>
<event>
 5    1  0.3422688E-002  0.1250001E+03  0.7818608E-02  0.1235069E+00
         -4   -1    0    0    0  501 -0.00000000000E+00  0.00000000000E+00  0.46200663726E+02  0.46218115807E+02  0.12700000000E+01 0. -1.
          4   -1    0    0  501    0  0.00000000000E+00 -0.00000000000E+00 -0.84511657892E+02  0.84521199823E+02  0.12700000000E+01 0. -1.
         25    2    1    2    0    0  0.00000000000E+00  0.00000000000E+00 -0.38310994166E+02  0.13073931563E+03  0.12500014551E+03 0.  0.
    9000005    1    3    3    0    0 -0.15400228437E+01  0.18379033252E+02 -0.81605355649E+02  0.83669556018E+02  0.10000000000E+01 0.  0.
    9000005    1    3    3    0    0  0.15400228437E+01 -0.18379033252E+02  0.43294361483E+02  0.47069759612E+02  0.10000000000E+01 0.  0.
<mgrwt>
<rscale>  0 0.12500015E+03</rscale>
<asrwt>0</asrwt>
<pdfrwt beam="2">  1        4 0.13003870E-01 0.12500015E+03</pdfrwt>
<pdfrwt beam="1">  1       -4 0.71098709E-02 0.12500015E+03</pdfrwt>
<totfact> 0.10328647E+04</totfact>
</mgrwt>
</event>
<event>
 5    1  0.3422688E-002  0.1249981E+03  0.7818608E-02  0.1235072E+00
         -4   -1    0    0    0  501 -0.00000000000E+00  0.00000000000E+00  0.14790085341E+03  0.14790630595E+03  0.12700000000E+01 0.  1.
          4   -1    0    0  501    0  0.00000000000E+00 -0.00000000000E+00 -0.26389266135E+02  0.26419808234E+02  0.12700000000E+01 0.  1.
         25    2    1    2    0    0  0.00000000000E+00  0.00000000000E+00  0.12151158728E+03  0.17432611418E+03  0.12499811296E+03 0.  0.
    9000005    1    3    3    0    0  0.10739700465E+02 -0.45783628813E+02  0.11815037009E+03  0.12716914636E+03  0.10000000000E+01 0.  0.
    9000005    1    3    3    0    0 -0.10739700465E+02  0.45783628813E+02  0.33612171841E+01  0.47156967823E+02  0.10000000000E+01 0.  0.
<mgrwt>
<rscale>  0 0.12499811E+03</rscale>
<asrwt>0</asrwt>
<pdfrwt beam="2">  1        4 0.40626559E-02 0.12499811E+03</pdfrwt>
<pdfrwt beam="1">  1       -4 0.22756747E-01 0.12499811E+03</pdfrwt>
<totfact> 0.94652413E+03</totfact>
</mgrwt>
</event>
<event>
 5    1  0.3422688E-002  0.1249934E+03  0.7818608E-02  0.1235080E+00
         -4   -1    0    0    0  501 -0.00000000000E+00  0.00000000000E+00  0.46849923648E+01  0.48540759634E+01  0.12700000000E+01 0. -1.
          4   -1    0    0  501    0  0.00000000000E+00 -0.00000000000E+00 -0.81874461790E+03  0.81874560289E+03  0.12700000000E+01 0. -1.
         25    2    1    2    0    0  0.00000000000E+00  0.00000000000E+00 -0.81405962554E+03  0.82359967885E+03  0.12499342811E+03 0.  0.
    9000005    1    3    3    0    0  0.54400618838E+02 -0.29781881485E+02 -0.45740616510E+03  0.46159266423E+03  0.10000000000E+01 0.  0.
    9000005    1    3    3    0    0 -0.54400618838E+02  0.29781881485E+02 -0.35665346044E+03  0.36200701462E+03  0.10000000000E+01 0.  0.
<mgrwt>
<rscale>  0 0.12499343E+03</rscale>
<asrwt>0</asrwt>
<pdfrwt beam="2">  1        4 0.12597368E+00 0.12499343E+03</pdfrwt>
<pdfrwt beam="1">  1       -4 0.73385091E-03 0.12499343E+03</pdfrwt>
<totfact> 0.37238014E+03</totfact>
</mgrwt>
</event>
<event>
 5    1  0.3422688E-002  0.1250009E+03  0.7818608E-02  0.1235068E+00
          4   -1    0    0  501    0  0.00000000000E+00  0.00000000000E+00  0.51141760917E+03  0.51141918606E+03  0.12700000000E+01 0.  1.
         -4   -1    0    0    0  501 -0.00000000000E+00 -0.00000000000E+00 -0.75837986740E+01  0.76894019487E+01  0.12700000000E+01 0.  1.
         25    2    1    2    0    0  0.00000000000E+00  0.00000000000E+00  0.50383381050E+03  0.51910858801E+03  0.12500087017E+03 0.  0.
    9000005    1    3    3    0    0 -0.22646302412E+02 -0.32087595557E+01  0.10403179517E+02  0.25147113053E+02  0.10000000000E+01 0.  0.
    9000005    1    3    3    0    0  0.22646302412E+02  0.32087595557E+01  0.49343063098E+03  0.49396147496E+03  0.10000000000E+01 0.  0.
<mgrwt>
<rscale>  0 0.12500087E+03</rscale>
<asrwt>0</asrwt>
<pdfrwt beam="1">  1        4 0.78687874E-01 0.12500087E+03</pdfrwt>
<pdfrwt beam="2">  1       -4 0.11749829E-02 0.12500087E+03</pdfrwt>
<totfact> 0.54410628E+03</totfact>
</mgrwt>
</event>
<event>
 5    1  0.3422688E-002  0.1250029E+03  0.7818608E-02  0.1235065E+00
         -4   -1    0    0    0  501 -0.00000000000E+00  0.00000000000E+00  0.45757923143E+02  0.45775544020E+02  0.12700000000E+01 0.  1.
          4   -1    0    0  501    0  0.00000000000E+00 -0.00000000000E+00 -0.85332905478E+02  0.85342355588E+02  0.12700000000E+01 0.  1.
         25    2    1    2    0    0  0.00000000000E+00  0.00000000000E+00 -0.39574982336E+02  0.13111789961E+03  0.12500289745E+03 0.  0.
    9000005    1    3    3    0    0  0.11866360057E+01  0.62258591141E+02 -0.25327016093E+02  0.67230930531E+02  0.10000000000E+01 0.  0.
    9000005    1    3    3    0    0 -0.11866360057E+01 -0.62258591141E+02 -0.14247966243E+02  0.63886969077E+02  0.10000000000E+01 0.  0.
<mgrwt>
<rscale>  0 0.12500290E+03</rscale>
<asrwt>0</asrwt>
<pdfrwt beam="2">  1        4 0.13130222E-01 0.12500290E+03</pdfrwt>
<pdfrwt beam="1">  1       -4 0.70417629E-02 0.12500290E+03</pdfrwt>
<totfact> 0.10319888E+04</totfact>
</mgrwt>
</event>
<event>
 5    1  0.3422688E-002  0.1249983E+03  0.7818608E-02  0.1235072E+00
         -4   -1    0    0    0  501 -0.00000000000E+00  0.00000000000E+00  0.58499470255E+02  0.58513254226E+02  0.12700000000E+01 0. -1.
          4   -1    0    0  501    0  0.00000000000E+00 -0.00000000000E+00 -0.66744611562E+02  0.66756693092E+02  0.12700000000E+01 0. -1.
         25    2    1    2    0    0  0.00000000000E+00  0.00000000000E+00 -0.82451413071E+01  0.12526994732E+03  0.12499830937E+03 0.  0.
    9000005    1    3    3    0    0 -0.26126738258E+02 -0.54990189034E+02 -0.18246351124E+02  0.63564586613E+02  0.10000000000E+01 0.  0.
    9000005    1    3    3    0    0  0.26126738258E+02  0.54990189034E+02  0.10001209817E+02  0.61705360705E+02  0.10000000000E+01 0.  0.
<mgrwt>
<rscale>  0 0.12499831E+03</rscale>
<asrwt>0</asrwt>
<pdfrwt beam="2">  1        4 0.10270391E-01 0.12499831E+03</pdfrwt>
<pdfrwt beam="1">  1       -4 0.90019082E-02 0.12499831E+03</pdfrwt>
<totfact> 0.10447401E+04</totfact>
</mgrwt>
</event>
<event>
 5    1  0.3422688E-002  0.1250016E+03  0.7818608E-02  0.1235067E+00
         -4   -1    0    0    0  501 -0.00000000000E+00  0.00000000000E+00  0.17762071104E+02  0.17807416149E+02  0.12700000000E+01 0. -1.
          4   -1    0    0  501    0  0.00000000000E+00 -0.00000000000E+00 -0.21959907012E+03  0.21960274246E+03  0.12700000000E+01 0. -1.
         25    2    1    2    0    0  0.00000000000E+00  0.00000000000E+00 -0.20183699901E+03  0.23741015861E+03  0.12500163695E+03 0.  0.
    9000005    1    3    3    0    0  0.46405850147E+02 -0.17653870435E+02 -0.28842026001E+02  0.57428429658E+02  0.10000000000E+01 0.  0.
    9000005    1    3    3    0    0 -0.46405850147E+02  0.17653870435E+02 -0.17299497301E+03  0.17998172895E+03  0.10000000000E+01 0.  0.
<mgrwt>
<rscale>  0 0.12500164E+03</rscale>
<asrwt>0</asrwt>
<pdfrwt beam="2">  1        4 0.33788241E-01 0.12500164E+03</pdfrwt>
<pdfrwt beam="1">  1       -4 0.27363971E-02 0.12500164E+03</pdfrwt>
<totfact> 0.84181525E+03</totfact>
</mgrwt>
</event>
<event>
 5    1  0.3422688E-002  0.1249957E+03  0.7818608E-02  0.1235076E+00
         -4   -1    0    0    0  501 -0.00000000000E+00  0.00000000000E+00  0.80692633782E+03  0.80692733723E+03  0.12700000000E+01 0.  1.
          4   -1    0    0  501    0  0.00000000000E+00 -0.00000000000E+00 -0.47562447046E+01  0.49228816449E+01  0.12700000000E+01 0.  1.
         25    2    1    2    0    0  0.00000000000E+00  0.00000000000E+00  0.80217009312E+03  0.81185021888E+03  0.12499567831E+03 0.  0.
    9000005    1    3    3    0    0  0.59613381749E+02 -0.14024414414E+02  0.48182750210E+03  0.48570482936E+03  0.10000000000E+01 0.  0.
    9000005    1    3    3    0    0 -0.59613381749E+02  0.14024414414E+02  0.32034259102E+03  0.32614538951E+03  0.10000000000E+01 0.  0.
<mgrwt>
<rscale>  0 0.12499568E+03</rscale>
<asrwt>0</asrwt>
<pdfrwt beam="2">  1        4 0.74462506E-03 0.12499568E+03</pdfrwt>
<pdfrwt beam="1">  1       -4 0.12415541E+00 0.12499568E+03</pdfrwt>
<totfact> 0.37744709E+03</totfact>
</mgrwt>
</event>
<event>
 5    1  0.3422688E-002  0.1249964E+03  0.7818608E-02  0.1235075E+00
          4   -1    0    0  501    0  0.00000000000E+00  0.00000000000E+00  0.13255901069E+02  0.13316599158E+02  0.12700000000E+01 0.  1.
         -4   -1    0    0    0  501 -0.00000000000E+00 -0.00000000000E+00 -0.29392806769E+03  0.29393081138E+03  0.12700000000E+01 0.  1.
         25    2    1    2    0    0  0.00000000000E+00  0.00000000000E+00 -0.28067216662E+03  0.30724741053E+03  0.12499642461E+03 0.  0.
    9000005    1    3    3    0    0 -0.48203033038E+02 -0.80805831008E+01 -0.23604858038E+03  0.24105758755E+03  0.10000000000E+01 0.  0.
    9000005    1    3    3    0    0  0.48203033038E+02  0.80805831008E+01 -0.44623586242E+02  0.66189822982E+02  0.10000000000E+01 0.  0.
<mgrwt>
<rscale>  0 0.12499642E+03</rscale>
<asrwt>0</asrwt>
<pdfrwt beam="1">  1        4 0.20442498E-02 0.12499642E+03</pdfrwt>
<pdfrwt beam="2">  1       -4 0.45224578E-01 0.12499642E+03</pdfrwt>
<totfact> 0.74704566E+03</totfact>
</mgrwt>
</event>
<event>
 5    1  0.3422688E-002  0.1249987E+03  0.7818608E-02  0.1235071E+00
         -4   -1    0    0    0  501 -0.00000000000E+00  0.00000000000E+00  0.39242767686E+02  0.39263312591E+02  0.12700000000E+01 0. -1.
          4   -1    0    0  501    0  0.00000000000E+00 -0.00000000000E+00 -0.99487926369E+02  0.99496032047E+02  0.12700000000E+01 0. -1.
         25    2    1    2    0    0  0.00000000000E+00  0.00000000000E+00 -0.60245158683E+02  0.13875934464E+03  0.12499870631E+03 0.  0.
    9000005    1    3    3    0    0  0.44994953961E+02  0.42232354578E+02 -0.41058562302E+02  0.74127749146E+02  0.10000000000E+01 0.  0.
    9000005    1    3    3    0    0 -0.44994953961E+02 -0.42232354578E+02 -0.19186596381E+02  0.64631595493E+02  0.10000000000E+01 0.  0.
<mgrwt>
<rscale>  0 0.12499871E+03</rscale>
<asrwt>0</asrwt>
<pdfrwt beam="2">  1        4 0.15308039E-01 0.12499871E+03</pdfrwt>
<pdfrwt beam="1">  1       -4 0.60395528E-02 0.12499871E+03</pdfrwt>
<totfact> 0.10159660E+04</totfact>
</mgrwt>
</event>
<event>
 5    1  0.3422688E-002  0.1250028E+03  0.7818608E-02  0.1235065E+00
         -4   -1    0    0    0  501 -0.00000000000E+00  0.00000000000E+00  0.27243596514E+03  0.27243892527E+03  0.12700000000E+01 0. -1.
          4   -1    0    0  501    0  0.00000000000E+00 -0.00000000000E+00 -0.14307718931E+02  0.14363973023E+02  0.12700000000E+01 0. -1.
         25    2    1    2    0    0  0.00000000000E+00  0.00000000000E+00  0.25812824621E+03  0.28680289829E+03  0.12500284388E+03 0.  0.
    9000005    1    3    3    0    0 -0.43567761741E+02  0.44798136889E+02  0.13052391396E+03  0.14471528961E+03  0.10000000000E+01 0.  0.
    9000005    1    3    3    0    0  0.43567761741E+02 -0.44798136889E+02  0.12760433225E+03  0.14208760868E+03  0.10000000000E+01 0.  0.
<mgrwt>
<rscale>  0 0.12500284E+03</rscale>
<asrwt>0</asrwt>
<pdfrwt beam="2">  1        4 0.22057426E-02 0.12500284E+03</pdfrwt>
<pdfrwt beam="1">  1       -4 0.41917779E-01 0.12500284E+03</pdfrwt>
<totfact> 0.77279768E+03</totfact>
</mgrwt>
</event>
<event>
 4    1  0.3422688E-002  0.1250941E+03  0.7818608E-02  0.1234922E+00
         -4   -1    0    0    0  501 -0.00000000000E+00  0.00000000000E+00  0.26430456754E+03  0.26430761874E+03  0.12700000000E+01 0.  1.
          4   -1    0    0  501    0  0.00000000000E+00 -0.00000000000E+00 -0.14771215739E+02  0.14825711262E+02  0.12700000000E+01 0.  1.
    9000005    1    1    2    0    0  0.18770169439E+02 -0.57915509301E+02  0.15668449749E+03  0.16809984304E+03  0.10000000000E+01 0.  0.
    9000005    1    1    2    0    0 -0.18770169439E+02  0.57915509301E+02  0.92848854316E+02  0.11103348696E+03  0.10000000000E+01 0.  0.
<mgrwt>
<rscale>  0 0.12509405E+03</rscale>
<asrwt>0</asrwt>
<pdfrwt beam="2">  1        4 0.22769214E-02 0.12509405E+03</pdfrwt>
<pdfrwt beam="1">  1       -4 0.40666668E-01 0.12509405E+03</pdfrwt>
<totfact> 0.78129690E+03</totfact>
</mgrwt>
</event>
<event>
 5    1  0.3422688E-002  0.1249987E+03  0.7818608E-02  0.1235071E+00
          4   -1    0    0  501    0  0.00000000000E+00  0.00000000000E+00  0.20415132846E+03  0.20415527867E+03  0.12700000000E+01 0.  1.
         -4   -1    0    0    0  501 -0.00000000000E+00 -0.00000000000E+00 -0.19108478342E+02  0.19150635618E+02  0.12700000000E+01 0.  1.
         25    2    1    2    0    0  0.00000000000E+00  0.00000000000E+00  0.18504285011E+03  0.22330591429E+03  0.12499869991E+03 0.  0.
    9000005    1    3    3    0    0 -0.26932582807E+02  0.39273002240E+02  0.20231645591E+02  0.51749900530E+02  0.10000000000E+01 0.  0.
    9000005    1    3    3    0    0  0.26932582807E+02 -0.39273002240E+02  0.16481120452E+03  0.17155601376E+03  0.10000000000E+01 0.  0.
<mgrwt>
<rscale>  0 0.12499870E+03</rscale>
<asrwt>0</asrwt>
<pdfrwt beam="1">  1        4 0.31411446E-01 0.12499870E+03</pdfrwt>
<pdfrwt beam="2">  1       -4 0.29433124E-02 0.12499870E+03</pdfrwt>
<totfact> 0.86350424E+03</totfact>
</mgrwt>
</event>
<event>
 5    1  0.3422688E-002  0.1249929E+03  0.7818608E-02  0.1235080E+00
         -4   -1    0    0    0  501 -0.00000000000E+00  0.00000000000E+00  0.16460330301E+03  0.16460820229E+03  0.12700000000E+01 0.  1.
          4   -1    0    0  501    0  0.00000000000E+00 -0.00000000000E+00 -0.23706348782E+02  0.23740342722E+02  0.12700000000E+01 0.  1.
         25    2    1    2    0    0  0.00000000000E+00  0.00000000000E+00  0.14089695423E+03  0.18834854502E+03  0.12499289059E+03 0.  0.
    9000005    1    3    3    0    0 -0.36714936480E-01 -0.54019085038E+02  0.11778310161E+03  0.12958364836E+03  0.10000000000E+01 0.  0.
    9000005    1    3    3    0    0  0.36714936480E-01  0.54019085038E+02  0.23113852616E+02  0.58764896656E+02  0.10000000000E+01 0.  0.
<mgrwt>
<rscale>  0 0.12499289E+03</rscale>
<asrwt>0</asrwt>
<pdfrwt beam="2">  1        4 0.36501224E-02 0.12499289E+03</pdfrwt>
<pdfrwt beam="1">  1       -4 0.25326576E-01 0.12499289E+03</pdfrwt>
<totfact> 0.92150135E+03</totfact>
</mgrwt>
</event>
<event>
 5    1  0.3422688E-002  0.1249968E+03  0.7818608E-02  0.1235074E+00
          4   -1    0    0  501    0  0.00000000000E+00  0.00000000000E+00  0.30948693688E+03  0.30948954264E+03  0.12700000000E+01 0. -1.
         -4   -1    0    0    0  501 -0.00000000000E+00 -0.00000000000E+00 -0.12586434847E+02  0.12650345535E+02  0.12700000000E+01 0. -1.
         25    2    1    2    0    0  0.00000000000E+00  0.00000000000E+00  0.29690050204E+03  0.32213988817E+03  0.12499679773E+03 0.  0.
    9000005    1    3    3    0    0  0.21162071488E+02  0.13316606939E+02  0.85414613367E+00  0.25037868433E+02  0.10000000000E+01 0.  0.
    9000005    1    3    3    0    0 -0.21162071488E+02 -0.13316606939E+02  0.29604635590E+03  0.29710201974E+03  0.10000000000E+01 0.  0.
<mgrwt>
<rscale>  0 0.12499680E+03</rscale>
<asrwt>0</asrwt>
<pdfrwt beam="1">  1        4 0.47618488E-01 0.12499680E+03</pdfrwt>
<pdfrwt beam="2">  1       -4 0.19414914E-02 0.12499680E+03</pdfrwt>
<totfact> 0.72907510E+03</totfact>
</mgrwt>
</event>
<event>
 5    1  0.3422688E-002  0.1250034E+03  0.7818608E-02  0.1235064E+00
          4   -1    0    0  501    0  0.00000000000E+00  0.00000000000E+00  0.50473001147E+02  0.50488976468E+02  0.12700000000E+01 0. -1.
         -4   -1    0    0    0  501 -0.00000000000E+00 -0.00000000000E+00 -0.77363680358E+02  0.77374103798E+02  0.12700000000E+01 0. -1.
         25    2    1    2    0    0  0.00000000000E+00  0.00000000000E+00 -0.26890679211E+02  0.12786308027E+03  0.12500343462E+03 0.  0.
    9000005    1    3    3    0    0 -0.50531265859E+01  0.55215210499E+02 -0.42935618905E+02  0.70133593445E+02  0.10000000000E+01 0.  0.
    9000005    1    3    3    0    0  0.50531265859E+01 -0.55215210499E+02  0.16044939695E+02  0.57729486820E+02  0.10000000000E+01 0.  0.
<mgrwt>
<rscale>  0 0.12500343E+03</rscale>
<asrwt>0</asrwt>
<pdfrwt beam="1">  1        4 0.77671078E-02 0.12500343E+03</pdfrwt>
<pdfrwt beam="2">  1       -4 0.11904135E-01 0.12500343E+03</pdfrwt>
<totfact> 0.10389640E+04</totfact>
</mgrwt>
</event>
<event>
 5    1  0.3422688E-002  0.1250006E+03  0.7818608E-02  0.1235068E+00
         -4   -1    0    0    0  501 -0.00000000000E+00  0.00000000000E+00  0.28087275993E+03  0.28087563115E+03  0.12700000000E+01 0. -1.
          4   -1    0    0  501    0  0.00000000000E+00 -0.00000000000E+00 -0.13875728820E+02  0.13933727078E+02  0.12700000000E+01 0. -1.
         25    2    1    2    0    0  0.00000000000E+00  0.00000000000E+00  0.26699703111E+03  0.29480935823E+03  0.12500057230E+03 0.  0.
    9000005    1    3    3    0    0 -0.84703312395E+01 -0.60616738540E+02  0.16325166534E+03  0.17435091550E+03  0.10000000000E+01 0.  0.
    9000005    1    3    3    0    0  0.84703312395E+01  0.60616738540E+02  0.10374536578E+03  0.12045844272E+03  0.10000000000E+01 0.  0.
<mgrwt>
<rscale>  0 0.12500057E+03</rscale>
<asrwt>0</asrwt>
<pdfrwt beam="2">  1        4 0.21394099E-02 0.12500057E+03</pdfrwt>
<pdfrwt beam="1">  1       -4 0.43215874E-01 0.12500057E+03</pdfrwt>
<totfact> 0.76253621E+03</totfact>
</mgrwt>
</event>
<event>
 5    1  0.3422688E-002  0.1249982E+03  0.7818608E-02  0.1235072E+00
         -4   -1    0    0    0  501 -0.00000000000E+00  0.00000000000E+00  0.36088901644E+02  0.36111240935E+02  0.12700000000E+01 0. -1.
          4   -1    0    0  501    0  0.00000000000E+00 -0.00000000000E+00 -0.10817695951E+03  0.10818441417E+03  0.12700000000E+01 0. -1.
         25    2    1    2    0    0  0.00000000000E+00  0.00000000000E+00 -0.72088057867E+02  0.14429565510E+03  0.12499819197E+03 0.  0.
    9000005    1    3    3    0    0  0.55912110566E+02  0.15181314171E+02 -0.90083006595E+01  0.58641162068E+02  0.10000000000E+01 0.  0.
    9000005    1    3    3    0    0 -0.55912110566E+02 -0.15181314171E+02 -0.63079757208E+02  0.85654493036E+02  0.10000000000E+01 0.  0.
<mgrwt>
<rscale>  0 0.12499819E+03</rscale>
<asrwt>0</asrwt>
<pdfrwt beam="2">  1        4 0.16644901E-01 0.12499819E+03</pdfrwt>
<pdfrwt beam="1">  1       -4 0.55544306E-02 0.12499819E+03</pdfrwt>
<totfact> 0.10045728E+04</totfact>
</mgrwt>
</event>
<event>
 5    1  0.3422688E-002  0.1250011E+03  0.7818608E-02  0.1235068E+00
         -4   -1    0    0    0  501 -0.00000000000E+00  0.00000000000E+00  0.39956686248E+01  0.41926444828E+01  0.12700000000E+01 0.  1.
          4   -1    0    0  501    0  0.00000000000E+00 -0.00000000000E+00 -0.95392296024E+03  0.95392380564E+03  0.12700000000E+01 0.  1.
         25    2    1    2    0    0  0.00000000000E+00  0.00000000000E+00 -0.94992729161E+03  0.95811645013E+03  0.12500109058E+03 0.  0.
    9000005    1    3    3    0    0 -0.36090262913E+02  0.37342268038E+02 -0.74140630631E+03  0.74322356199E+03  0.10000000000E+01 0.  0.
    9000005    1    3    3    0    0  0.36090262913E+02 -0.37342268038E+02 -0.20852098530E+03  0.21489288814E+03  0.10000000000E+01 0.  0.
<mgrwt>
<rscale>  0 0.12500109E+03</rscale>
<asrwt>0</asrwt>
<pdfrwt beam="2">  1        4 0.14677242E+00 0.12500109E+03</pdfrwt>
<pdfrwt beam="1">  1       -4 0.62993603E-03 0.12500109E+03</pdfrwt>
<totfact> 0.32028822E+03</totfact>
</mgrwt>
</event>
<event>
 5    1  0.3422688E-002  0.1249979E+03  0.7818608E-02  0.1235073E+00
         -4   -1    0    0    0  501 -0.00000000000E+00  0.00000000000E+00  0.71646128997E+02  0.71657384129E+02  0.12700000000E+01 0.  1.
          4   -1    0    0  501    0  0.00000000000E+00 -0.00000000000E+00 -0.54496636213E+02  0.54511432365E+02  0.12700000000E+01 0.  1.
         25    2    1    2    0    0  0.00000000000E+00  0.00000000000E+00  0.17149492784E+02  0.12616881649E+03  0.12499786059E+03 0.  0.
    9000005    1    3    3    0    0  0.42462295086E+02 -0.19483644376E+01  0.54810773942E+02  0.69369038973E+02  0.10000000000E+01 0.  0.
    9000005    1    3    3    0    0 -0.42462295086E+02  0.19483644376E+01 -0.37661281158E+02  0.56799777521E+02  0.10000000000E+01 0.  0.
<mgrwt>
<rscale>  0 0.12499786E+03</rscale>
<asrwt>0</asrwt>
<pdfrwt beam="2">  1        4 0.83861019E-02 0.12499786E+03</pdfrwt>
<pdfrwt beam="1">  1       -4 0.11024485E-01 0.12499786E+03</pdfrwt>
<totfact> 0.10427764E+04</totfact>
</mgrwt>
</event>
<event>
 5    1  0.3422688E-002  0.1250001E+03  0.7818608E-02  0.1235069E+00
          4   -1    0    0  501    0  0.00000000000E+00  0.00000000000E+00  0.72822752797E+02  0.72833826104E+02  0.12700000000E+01 0. -1.
         -4   -1    0    0    0  501 -0.00000000000E+00 -0.00000000000E+00 -0.53617906317E+02  0.53632944892E+02  0.12700000000E+01 0. -1.
         25    2    1    2    0    0  0.00000000000E+00  0.00000000000E+00  0.19204846480E+02  0.12646677100E+03  0.12500007215E+03 0.  0.
    9000005    1    3    3    0    0 -0.37713450713E+02  0.32089258331E+01  0.59911662243E+02  0.70873188460E+02  0.10000000000E+01 0.  0.
    9000005    1    3    3    0    0  0.37713450713E+02 -0.32089258331E+01 -0.40706815764E+02  0.55593582537E+02  0.10000000000E+01 0.  0.
<mgrwt>
<rscale>  0 0.12500007E+03</rscale>
<asrwt>0</asrwt>
<pdfrwt beam="1">  1        4 0.11205509E-01 0.12500007E+03</pdfrwt>
<pdfrwt beam="2">  1       -4 0.82509172E-02 0.12500007E+03</pdfrwt>
<totfact> 0.10420736E+04</totfact>
</mgrwt>
</event>
<event>
 5    1  0.3422688E-002  0.1249953E+03  0.7818608E-02  0.1235077E+00
          4   -1    0    0  501    0  0.00000000000E+00  0.00000000000E+00  0.38171671134E+02  0.38192792215E+02  0.12700000000E+01 0.  1.
         -4   -1    0    0    0  501 -0.00000000000E+00 -0.00000000000E+00 -0.10227265896E+03  0.10228054395E+03  0.12700000000E+01 0.  1.
         25    2    1    2    0    0  0.00000000000E+00  0.00000000000E+00 -0.64100987822E+02  0.14047333616E+03  0.12499528604E+03 0.  0.
    9000005    1    3    3    0    0  0.41253077893E+02  0.46805025035E+02 -0.28088525582E+02  0.68428737191E+02  0.10000000000E+01 0.  0.
    9000005    1    3    3    0    0 -0.41253077893E+02 -0.46805025035E+02 -0.36012462239E+02  0.72044598970E+02  0.10000000000E+01 0.  0.
<mgrwt>
<rscale>  0 0.12499529E+03</rscale>
<asrwt>0</asrwt>
<pdfrwt beam="1">  1        4 0.58747961E-02 0.12499529E+03</pdfrwt>
<pdfrwt beam="2">  1       -4 0.15736486E-01 0.12499529E+03</pdfrwt>
<totfact> 0.10124860E+04</totfact>
</mgrwt>
</event>
<event>
 5    1  0.3422688E-002  0.1249980E+03  0.7818608E-02  0.1235072E+00
         -4   -1    0    0    0  501 -0.00000000000E+00  0.00000000000E+00  0.10836651432E+03  0.10837395594E+03  0.12700000000E+01 0.  1.
          4   -1    0    0  501    0  0.00000000000E+00 -0.00000000000E+00 -0.36025614325E+02  0.36047992836E+02  0.12700000000E+01 0.  1.
         25    2    1    2    0    0  0.00000000000E+00  0.00000000000E+00  0.72340900000E+02  0.14442194878E+03  0.12499797389E+03 0.  0.
    9000005    1    3    3    0    0 -0.76936752352E+01  0.27886867741E+02  0.10016984007E+03  0.10426824488E+03  0.10000000000E+01 0.  0.
    9000005    1    3    3    0    0  0.76936752352E+01 -0.27886867741E+02 -0.27828940072E+02  0.40153703896E+02  0.10000000000E+01 0.  0.
<mgrwt>
<rscale>  0 0.12499797E+03</rscale>
<asrwt>0</asrwt>
<pdfrwt beam="2">  1        4 0.55446961E-02 0.12499797E+03</pdfrwt>
<pdfrwt beam="1">  1       -4 0.16674065E-01 0.12499797E+03</pdfrwt>
<totfact> 0.10043205E+04</totfact>
</mgrwt>
</event>
<event>
 5    1  0.3422688E-002  0.1250026E+03  0.7818608E-02  0.1235065E+00
          4   -1    0    0  501    0  0.00000000000E+00  0.00000000000E+00  0.30271145903E+02  0.30297775072E+02  0.12700000000E+01 0.  1.
         -4   -1    0    0    0  501 -0.00000000000E+00 -0.00000000000E+00 -0.12896095617E+03  0.12896720946E+03  0.12700000000E+01 0.  1.
         25    2    1    2    0    0  0.00000000000E+00  0.00000000000E+00 -0.98689810263E+02  0.15926498453E+03  0.12500262656E+03 0.  0.
    9000005    1    3    3    0    0 -0.47952187793E+02  0.39745099555E+02 -0.42807316390E+02  0.75581423573E+02  0.10000000000E+01 0.  0.
    9000005    1    3    3    0    0  0.47952187793E+02 -0.39745099555E+02 -0.55882493873E+02  0.83683560956E+02  0.10000000000E+01 0.  0.
<mgrwt>
<rscale>  0 0.12500263E+03</rscale>
<asrwt>0</asrwt>
<pdfrwt beam="1">  1        4 0.46596289E-02 0.12500263E+03</pdfrwt>
<pdfrwt beam="2">  1       -4 0.19842676E-01 0.12500263E+03</pdfrwt>
<totfact> 0.97478922E+03</totfact>
</mgrwt>
</event>
<event>
 5    1  0.3422688E-002  0.1249948E+03  0.7818608E-02  0.1235077E+00
         -4   -1    0    0    0  501 -0.00000000000E+00  0.00000000000E+00  0.24702717618E+02  0.24735342280E+02  0.12700000000E+01 0. -1.
          4   -1    0    0  501    0  0.00000000000E+00 -0.00000000000E+00 -0.15797760383E+03  0.15798270859E+03  0.12700000000E+01 0. -1.
         25    2    1    2    0    0  0.00000000000E+00  0.00000000000E+00 -0.13327488621E+03  0.18271805087E+03  0.12499476316E+03 0.  0.
    9000005    1    3    3    0    0  0.56724643340E+02  0.18800816640E+02 -0.93343589584E+02  0.11083853836E+03  0.10000000000E+01 0.  0.
    9000005    1    3    3    0    0 -0.56724643340E+02 -0.18800816640E+02 -0.39931296629E+02  0.71879512511E+02  0.10000000000E+01 0.  0.
<mgrwt>
<rscale>  0 0.12499476E+03</rscale>
<asrwt>0</asrwt>
<pdfrwt beam="2">  1        4 0.24307148E-01 0.12499476E+03</pdfrwt>
<pdfrwt beam="1">  1       -4 0.38033205E-02 0.12499476E+03</pdfrwt>
<totfact> 0.93140954E+03</totfact>
</mgrwt>
</event>
<event>
 5    1  0.3422688E-002  0.1249955E+03  0.7818608E-02  0.1235076E+00
         -4   -1    0    0    0  501 -0.00000000000E+00  0.00000000000E+00  0.28103939635E+03  0.28104226586E+03  0.12700000000E+01 0. -1.
          4   -1    0    0  501    0  0.00000000000E+00 -0.00000000000E+00 -0.13866334160E+02  0.13924371549E+02  0.12700000000E+01 0. -1.
         25    2    1    2    0    0  0.00000000000E+00  0.00000000000E+00  0.26717306219E+03  0.29496663741E+03  0.12499548802E+03 0.  0.
    9000005    1    3    3    0    0  0.49187608124E+02 -0.30947375725E+02  0.79371938939E+02  0.98377159687E+02  0.10000000000E+01 0.  0.
    9000005    1    3    3    0    0 -0.49187608124E+02  0.30947375725E+02  0.18780112325E+03  0.19658947773E+03  0.10000000000E+01 0.  0.
<mgrwt>
<rscale>  0 0.12499549E+03</rscale>
<asrwt>0</asrwt>
<pdfrwt beam="2">  1        4 0.21379675E-02 0.12499549E+03</pdfrwt>
<pdfrwt beam="1">  1       -4 0.43241512E-01 0.12499549E+03</pdfrwt>
<totfact> 0.76242223E+03</totfact>
</mgrwt>
</event>
<event>
 5    1  0.3422688E-002  0.1250004E+03  0.7818608E-02  0.1235069E+00
          4   -1    0    0  501    0  0.00000000000E+00  0.00000000000E+00  0.17064420416E+04  0.17064425142E+04  0.12700000000E+01 0.  1.
         -4   -1    0    0    0  501 -0.00000000000E+00 -0.00000000000E+00 -0.21124759537E+01  0.24648437385E+01  0.12700000000E+01 0.  1.
         25    2    1    2    0    0  0.00000000000E+00  0.00000000000E+00  0.17043295657E+04  0.17089073580E+04  0.12500035860E+03 0.  0.
    9000005    1    3    3    0    0  0.50484546391E+02  0.17282761818E+02  0.40750552518E+03  0.41098556706E+03  0.10000000000E+01 0.  0.
    9000005    1    3    3    0    0 -0.50484546391E+02 -0.17282761818E+02  0.12968240405E+04  0.12979217909E+04  0.10000000000E+01 0.  0.
<mgrwt>
<rscale>  0 0.12500036E+03</rscale>
<asrwt>0</asrwt>
<pdfrwt beam="1">  1        4 0.26255621E+00 0.12500036E+03</pdfrwt>
<pdfrwt beam="2">  1       -4 0.35213851E-03 0.12500036E+03</pdfrwt>
<totfact> 0.14159783E+03</totfact>
</mgrwt>
</event>
<event>
 5    1  0.3422688E-002  0.1250004E+03  0.7818608E-02  0.1235069E+00
          4   -1    0    0  501    0  0.00000000000E+00  0.00000000000E+00  0.10020079006E+02  0.10100241744E+02  0.12700000000E+01 0. -1.
         -4   -1    0    0    0  501 -0.00000000000E+00 -0.00000000000E+00 -0.38821005733E+03  0.38821213468E+03  0.12700000000E+01 0. -1.
         25    2    1    2    0    0  0.00000000000E+00  0.00000000000E+00 -0.37818997833E+03  0.39831237643E+03  0.12500035803E+03 0.  0.
    9000005    1    3    3    0    0  0.32949062810E+02 -0.50799744278E+02 -0.23835874296E+03  0.24593117961E+03  0.10000000000E+01 0.  0.
    9000005    1    3    3    0    0 -0.32949062810E+02  0.50799744278E+02 -0.13983123537E+03  0.15238119682E+03  0.10000000000E+01 0.  0.
<mgrwt>
<rscale>  0 0.12500036E+03</rscale>
<asrwt>0</asrwt>
<pdfrwt beam="1">  1        4 0.15478771E-02 0.12500036E+03</pdfrwt>
<pdfrwt beam="2">  1       -4 0.59730939E-01 0.12500036E+03</pdfrwt>
<totfact> 0.64716751E+03</totfact>
</mgrwt>
</event>
<event>
 5    1  0.3422688E-002  0.1250019E+03  0.7818608E-02  0.1235066E+00
          4   -1    0    0  501    0  0.00000000000E+00  0.00000000000E+00  0.20731762620E+02  0.20770625444E+02  0.12700000000E+01 0. -1.
         -4   -1    0    0    0  501 -0.00000000000E+00 -0.00000000000E+00 -0.18820684506E+03  0.18821112992E+03  0.12700000000E+01 0. -1.
         25    2    1    2    0    0  0.00000000000E+00  0.00000000000E+00 -0.16747508244E+03  0.20898175536E+03  0.12500188334E+03 0.  0.
    9000005    1    3    3    0    0 -0.43790383339E+02 -0.39931663199E+02 -0.11689005117E+03  0.13105883969E+03  0.10000000000E+01 0.  0.
    9000005    1    3    3    0    0  0.43790383339E+02  0.39931663199E+02 -0.50585031265E+02  0.77922915673E+02  0.10000000000E+01 0.  0.
<mgrwt>
<rscale>  0 0.12500188E+03</rscale>
<asrwt>0</asrwt>
<pdfrwt beam="1">  1        4 0.31928211E-02 0.12500188E+03</pdfrwt>
<pdfrwt beam="2">  1       -4 0.28958217E-01 0.12500188E+03</pdfrwt>
<totfact> 0.88638712E+03</totfact>
</mgrwt>
</event>
<event>
 5    1  0.3422688E-002  0.1250004E+03  0.7818608E-02  0.1235069E+00
         -4   -1    0    0    0  501 -0.00000000000E+00  0.00000000000E+00  0.29495580610E+03  0.29495854023E+03  0.12700000000E+01 0.  1.
          4   -1    0    0  501    0  0.00000000000E+00 -0.00000000000E+00 -0.13210350101E+02  0.13271256526E+02  0.12700000000E+01 0.  1.
         25    2    1    2    0    0  0.00000000000E+00  0.00000000000E+00  0.28174545600E+03  0.30822979676E+03  0.12500042252E+03 0.  0.
    9000005    1    3    3    0    0 -0.10668412124E+02 -0.13148948227E+02  0.28920355603E+03  0.28970054656E+03  0.10000000000E+01 0.  0.
    9000005    1    3    3    0    0  0.10668412124E+02  0.13148948227E+02 -0.74581000285E+01  0.18529250194E+02  0.10000000000E+01 0.  0.
<mgrwt>
<rscale>  0 0.12500042E+03</rscale>
<asrwt>0</asrwt>
<pdfrwt beam="2">  1        4 0.20372569E-02 0.12500042E+03</pdfrwt>
<pdfrwt beam="1">  1       -4 0.45382715E-01 0.12500042E+03</pdfrwt>
<totfact> 0.74577267E+03</totfact>
</mgrwt>
</event>
<event>
 5    1  0.3422688E-002  0.1249863E+03  0.7818608E-02  0.1235091E+00
         -4   -1    0    0    0  501 -0.00000000000E+00  0.00000000000E+00  0.99587877563E+02  0.99595975107E+02  0.12700000000E+01 0.  1.
          4   -1    0    0  501    0  0.00000000000E+00 -0.00000000000E+00 -0.39195557184E+02  0.39216126822E+02  0.12700000000E+01 0.  1.
         25    2    1    2    0    0  0.00000000000E+00  0.00000000000E+00  0.60392320379E+02  0.13881210193E+03  0.12498626837E+03 0.  0.
    9000005    1    3    3    0    0 -0.30972570711E+02 -0.19661916943E+02 -0.25980743600E+02  0.44965432860E+02  0.10000000000E+01 0.  0.
    9000005    1    3    3    0    0  0.30972570711E+02  0.19661916943E+02  0.86373063979E+02  0.93846669069E+02  0.10000000000E+01 0.  0.
<mgrwt>
<rscale>  0 0.12498627E+03</rscale>
<asrwt>0</asrwt>
<pdfrwt beam="2">  1        4 0.60322908E-02 0.12498627E+03</pdfrwt>
<pdfrwt beam="1">  1       -4 0.15323417E-01 0.12498627E+03</pdfrwt>
<totfact> 0.10161409E+04</totfact>
</mgrwt>
</event>
<event>
 4    1  0.3422688E-002  0.1249385E+03  0.7818608E-02  0.1235165E+00
          4   -1    0    0  501    0  0.00000000000E+00  0.00000000000E+00  0.33236428099E+03  0.33236670739E+03  0.12700000000E+01 0.  1.
         -4   -1    0    0    0  501 -0.00000000000E+00 -0.00000000000E+00 -0.11704530720E+02  0.11773229777E+02  0.12700000000E+01 0.  1.
    9000005    1    1    2    0    0 -0.51120416611E+02 -0.35072190131E+02  0.18131632268E+03  0.19162454014E+03  0.10000000000E+01 0.  0.
    9000005    1    1    2    0    0  0.51120416611E+02  0.35072190131E+02  0.13934342759E+03  0.15251539702E+03  0.10000000000E+01 0.  0.
<mgrwt>
<rscale>  0 0.12493847E+03</rscale>
<asrwt>0</asrwt>
<pdfrwt beam="1">  1        4 0.51138429E-01 0.12493847E+03</pdfrwt>
<pdfrwt beam="2">  1       -4 0.18061685E-02 0.12493847E+03</pdfrwt>
<totfact> 0.70470031E+03</totfact>
</mgrwt>
</event>
<event>
 5    1  0.3422688E-002  0.1249990E+03  0.7818608E-02  0.1235071E+00
          4   -1    0    0  501    0  0.00000000000E+00  0.00000000000E+00  0.20062073251E+03  0.20062475225E+03  0.12700000000E+01 0. -1.
         -4   -1    0    0    0  501 -0.00000000000E+00 -0.00000000000E+00 -0.19445587144E+02  0.19487015148E+02  0.12700000000E+01 0. -1.
         25    2    1    2    0    0  0.00000000000E+00  0.00000000000E+00  0.18117514537E+03  0.22011176740E+03  0.12499902738E+03 0.  0.
    9000005    1    3    3    0    0  0.34191322020E+02  0.43229748763E+02  0.38727968828E+02  0.67369972905E+02  0.10000000000E+01 0.  0.
    9000005    1    3    3    0    0 -0.34191322020E+02 -0.43229748763E+02  0.14244717654E+03  0.15274179449E+03  0.10000000000E+01 0.  0.
<mgrwt>
<rscale>  0 0.12499903E+03</rscale>
<asrwt>0</asrwt>
<pdfrwt beam="1">  1        4 0.30868225E-01 0.12499903E+03</pdfrwt>
<pdfrwt beam="2">  1       -4 0.29951247E-02 0.12499903E+03</pdfrwt>
<totfact> 0.86852552E+03</totfact>
</mgrwt>
</event>
<event>
 5    1  0.3422688E-002  0.1249976E+03  0.7818608E-02  0.1235073E+00
          4   -1    0    0  501    0  0.00000000000E+00  0.00000000000E+00  0.34362592918E+03  0.34362827606E+03  0.12700000000E+01 0.  1.
         -4   -1    0    0    0  501 -0.00000000000E+00 -0.00000000000E+00 -0.11329435605E+02  0.11400395218E+02  0.12700000000E+01 0.  1.
         25    2    1    2    0    0  0.00000000000E+00  0.00000000000E+00  0.33229649358E+03  0.35502867128E+03  0.12499759111E+03 0.  0.
    9000005    1    3    3    0    0  0.38335722441E+02 -0.43804696288E+02  0.23070587479E+03  0.23793839474E+03  0.10000000000E+01 0.  0.
    9000005    1    3    3    0    0 -0.38335722441E+02  0.43804696288E+02  0.10159061879E+03  0.11709027653E+03  0.10000000000E+01 0.  0.
<mgrwt>
<rscale>  0 0.12499759E+03</rscale>
<asrwt>0</asrwt>
<pdfrwt beam="1">  1        4 0.52871163E-01 0.12499759E+03</pdfrwt>
<pdfrwt beam="2">  1       -4 0.17486292E-02 0.12499759E+03</pdfrwt>
<totfact> 0.69178548E+03</totfact>
</mgrwt>
</event>
<event>
 5    1  0.3422688E-002  0.1250007E+03  0.7818608E-02  0.1235068E+00
         -4   -1    0    0    0  501 -0.00000000000E+00  0.00000000000E+00  0.33095505890E+02  0.33119864283E+02  0.12700000000E+01 0. -1.
          4   -1    0    0  501    0  0.00000000000E+00 -0.00000000000E+00 -0.11795965682E+03  0.11796649328E+03  0.12700000000E+01 0. -1.
         25    2    1    2    0    0  0.00000000000E+00  0.00000000000E+00 -0.84864150932E+02  0.15108635757E+03  0.12500065332E+03 0.  0.
    9000005    1    3    3    0    0  0.30670200854E+02  0.52581640336E+02 -0.25347213140E+02  0.65946731040E+02  0.10000000000E+01 0.  0.
    9000005    1    3    3    0    0 -0.30670200854E+02 -0.52581640336E+02 -0.59516937793E+02  0.85139626527E+02  0.10000000000E+01 0.  0.
<mgrwt>
<rscale>  0 0.12500065E+03</rscale>
<asrwt>0</asrwt>
<pdfrwt beam="2">  1        4 0.18150039E-01 0.12500065E+03</pdfrwt>
<pdfrwt beam="1">  1       -4 0.50940159E-02 0.12500065E+03</pdfrwt>
<totfact> 0.99086132E+03</totfact>
</mgrwt>
</event>
<event>
 5    1  0.3422688E-002  0.1250024E+03  0.7818608E-02  0.1235066E+00
          4   -1    0    0  501    0  0.00000000000E+00  0.00000000000E+00  0.41369429547E+02  0.41388918819E+02  0.12700000000E+01 0. -1.
         -4   -1    0    0    0  501 -0.00000000000E+00 -0.00000000000E+00 -0.94381145845E+02  0.94389690068E+02  0.12700000000E+01 0. -1.
         25    2    1    2    0    0  0.00000000000E+00  0.00000000000E+00 -0.53011716298E+02  0.13577860889E+03  0.12500235424E+03 0.  0.
    9000005    1    3    3    0    0 -0.43570637337E+02 -0.46153906554E+01 -0.74908539368E+02  0.86787047069E+02  0.10000000000E+01 0.  0.
    9000005    1    3    3    0    0  0.43570637337E+02  0.46153906554E+01  0.21896823069E+02  0.48991561818E+02  0.10000000000E+01 0.  0.
<mgrwt>
<rscale>  0 0.12500235E+03</rscale>
<asrwt>0</asrwt>
<pdfrwt beam="1">  1        4 0.63666841E-02 0.12500235E+03</pdfrwt>
<pdfrwt beam="2">  1       -4 0.14522333E-01 0.12500235E+03</pdfrwt>
<totfact> 0.10221143E+04</totfact>
</mgrwt>
</event>
<event>
 5    1  0.3422688E-002  0.1250033E+03  0.7818608E-02  0.1235064E+00
          4   -1    0    0  501    0  0.00000000000E+00  0.00000000000E+00  0.93297828184E+02  0.93306471608E+02  0.12700000000E+01 0. -1.
         -4   -1    0    0    0  501 -0.00000000000E+00 -0.00000000000E+00 -0.41850588955E+02  0.41869854262E+02  0.12700000000E+01 0. -1.
         25    2    1    2    0    0  0.00000000000E+00  0.00000000000E+00  0.51447239229E+02  0.13517632587E+03  0.12500328256E+03 0.  0.
    9000005    1    3    3    0    0 -0.33252802574E+02  0.52454098487E+02  0.18210243597E+02  0.64728620401E+02  0.10000000000E+01 0.  0.
    9000005    1    3    3    0    0  0.33252802574E+02 -0.52454098487E+02  0.33236995632E+02  0.70447705469E+02  0.10000000000E+01 0.  0.
<mgrwt>
<rscale>  0 0.12500328E+03</rscale>
<asrwt>0</asrwt>
<pdfrwt beam="1">  1        4 0.14355659E-01 0.12500328E+03</pdfrwt>
<pdfrwt beam="2">  1       -4 0.64406990E-02 0.12500328E+03</pdfrwt>
<totfact> 0.10233598E+04</totfact>
</mgrwt>
</event>
<event>
 5    1  0.3422688E-002  0.1250038E+03  0.7818608E-02  0.1235063E+00
          4   -1    0    0  501    0  0.00000000000E+00  0.00000000000E+00  0.34635021473E+03  0.34635254315E+03  0.12700000000E+01 0. -1.
         -4   -1    0    0    0  501 -0.00000000000E+00 -0.00000000000E+00 -0.11240878439E+02  0.11312393561E+02  0.12700000000E+01 0. -1.
         25    2    1    2    0    0  0.00000000000E+00  0.00000000000E+00  0.33510933630E+03  0.35766493671E+03  0.12500375866E+03 0.  0.
    9000005    1    3    3    0    0 -0.61239864456E+02  0.12210966121E+02  0.17459599317E+03  0.18542974283E+03  0.10000000000E+01 0.  0.
    9000005    1    3    3    0    0  0.61239864456E+02 -0.12210966121E+02  0.16051334312E+03  0.17223519388E+03  0.10000000000E+01 0.  0.
<mgrwt>
<rscale>  0 0.12500376E+03</rscale>
<asrwt>0</asrwt>
<pdfrwt beam="1">  1        4 0.53290334E-01 0.12500376E+03</pdfrwt>
<pdfrwt beam="2">  1       -4 0.17350460E-02 0.12500376E+03</pdfrwt>
<totfact> 0.68883737E+03</totfact>
</mgrwt>
</event>
<event>
 5    1  0.3422688E-002  0.1249954E+03  0.7818608E-02  0.1235076E+00
         -4   -1    0    0    0  501 -0.00000000000E+00  0.00000000000E+00  0.27078449779E+03  0.27078747597E+03  0.12700000000E+01 0. -1.
          4   -1    0    0  501    0  0.00000000000E+00 -0.00000000000E+00 -0.14393607699E+02  0.14449527417E+02  0.12700000000E+01 0. -1.
         25    2    1    2    0    0  0.00000000000E+00  0.00000000000E+00  0.25639089009E+03  0.28523700339E+03  0.12499543824E+03 0.  0.
    9000005    1    3    3    0    0  0.41501325616E+02  0.45701957471E+02  0.15031251640E+03  0.16249886625E+03  0.10000000000E+01 0.  0.
    9000005    1    3    3    0    0 -0.41501325616E+02 -0.45701957471E+02  0.10607837369E+03  0.12273813714E+03  0.10000000000E+01 0.  0.
<mgrwt>
<rscale>  0 0.12499544E+03</rscale>
<asrwt>0</asrwt>
<pdfrwt beam="2">  1        4 0.22189318E-02 0.12499544E+03</pdfrwt>
<pdfrwt beam="1">  1       -4 0.41663684E-01 0.12499544E+03</pdfrwt>
<totfact> 0.77496655E+03</totfact>
</mgrwt>
</event>
<event>
 5    1  0.3422688E-002  0.1249918E+03  0.7818608E-02  0.1235082E+00
         -4   -1    0    0    0  501 -0.00000000000E+00  0.00000000000E+00  0.60764243136E+03  0.60764375853E+03  0.12700000000E+01 0.  1.
          4   -1    0    0  501    0  0.00000000000E+00 -0.00000000000E+00 -0.63636094878E+01  0.64891005319E+01  0.12700000000E+01 0.  1.
         25    2    1    2    0    0  0.00000000000E+00  0.00000000000E+00  0.60127882187E+03  0.61413285907E+03  0.12499178755E+03 0.  0.
    9000005    1    3    3    0    0 -0.56275204476E+02 -0.16834020504E+02  0.40538259001E+03  0.40961729354E+03  0.10000000000E+01 0.  0.
    9000005    1    3    3    0    0  0.56275204476E+02  0.16834020504E+02  0.19589623186E+03  0.20451556552E+03  0.10000000000E+01 0.  0.
<mgrwt>
<rscale>  0 0.12499179E+03</rscale>
<asrwt>0</asrwt>
<pdfrwt beam="2">  1        4 0.98877178E-03 0.12499179E+03</pdfrwt>
<pdfrwt beam="1">  1       -4 0.93493236E-01 0.12499179E+03</pdfrwt>
<totfact> 0.47996113E+03</totfact>
</mgrwt>
</event>
<event>
 5    1  0.3422688E-002  0.1249982E+03  0.7818608E-02  0.1235072E+00
         -4   -1    0    0    0  501 -0.00000000000E+00  0.00000000000E+00  0.89094987134E+02  0.89104038250E+02  0.12700000000E+01 0.  1.
          4   -1    0    0  501    0  0.00000000000E+00 -0.00000000000E+00 -0.43821939935E+02  0.43840338955E+02  0.12700000000E+01 0.  1.
         25    2    1    2    0    0  0.00000000000E+00  0.00000000000E+00  0.45273047199E+02  0.13294437720E+03  0.12499823450E+03 0.  0.
    9000005    1    3    3    0    0  0.27488274841E+02  0.15813230037E+02 -0.34633302704E+02  0.46969449157E+02  0.10000000000E+01 0.  0.
    9000005    1    3    3    0    0 -0.27488274841E+02 -0.15813230037E+02  0.79906349903E+02  0.85974928047E+02  0.10000000000E+01 0.  0.
<mgrwt>
<rscale>  0 0.12499823E+03</rscale>
<asrwt>0</asrwt>
<pdfrwt beam="2">  1        4 0.67439485E-02 0.12499823E+03</pdfrwt>
<pdfrwt beam="1">  1       -4 0.13709032E-01 0.12499823E+03</pdfrwt>
<totfact> 0.10281992E+04</totfact>
</mgrwt>
</event>
<event>
 5    1  0.3422688E-002  0.1250563E+03  0.7818608E-02  0.1234981E+00
          4   -1    0    0  501    0  0.00000000000E+00  0.00000000000E+00  0.77496077149E+02  0.77506482784E+02  0.12700000000E+01 0. -1.
         -4   -1    0    0    0  501 -0.00000000000E+00 -0.00000000000E+00 -0.50429437116E+02  0.50445426233E+02  0.12700000000E+01 0. -1.
         25    2    1    2    0    0  0.00000000000E+00  0.00000000000E+00  0.27066640033E+02  0.12795190902E+03  0.12505633938E+03 0.  0.
    9000005    1    3    3    0    0  0.61041626616E+02  0.21827351311E+01 -0.11447800314E+00  0.61088932040E+02  0.10000000000E+01 0.  0.
    9000005    1    3    3    0    0 -0.61041626616E+02 -0.21827351311E+01  0.27181118036E+02  0.66862976977E+02  0.10000000000E+01 0.  0.
<mgrwt>
<rscale>  0 0.12505634E+03</rscale>
<asrwt>0</asrwt>
<pdfrwt beam="1">  1        4 0.11924504E-01 0.12505634E+03</pdfrwt>
<pdfrwt beam="2">  1       -4 0.77604054E-02 0.12505634E+03</pdfrwt>
<totfact> 0.10375325E+04</totfact>
</mgrwt>
</event>
<event>
 5    1  0.3422688E-002  0.1250002E+03  0.7818608E-02  0.1235069E+00
          4   -1    0    0  501    0  0.00000000000E+00  0.00000000000E+00  0.57191631944E+02  0.57205731045E+02  0.12700000000E+01 0. -1.
         -4   -1    0    0    0  501 -0.00000000000E+00 -0.00000000000E+00 -0.68272884517E+02  0.68284695652E+02  0.12700000000E+01 0. -1.
         25    2    1    2    0    0  0.00000000000E+00  0.00000000000E+00 -0.11081252573E+02  0.12549042670E+03  0.12500021214E+03 0.  0.
    9000005    1    3    3    0    0  0.99853942009E+01  0.60627848963E+02  0.58978750806E+01  0.61735152852E+02  0.10000000000E+01 0.  0.
    9000005    1    3    3    0    0 -0.99853942009E+01 -0.60627848963E+02 -0.16979127654E+02  0.63755273845E+02  0.10000000000E+01 0.  0.
<mgrwt>
<rscale>  0 0.12500021E+03</rscale>
<asrwt>0</asrwt>
<pdfrwt beam="1">  1        4 0.88007057E-02 0.12500021E+03</pdfrwt>
<pdfrwt beam="2">  1       -4 0.10505514E-01 0.12500021E+03</pdfrwt>
<totfact> 0.10442116E+04</totfact>
</mgrwt>
</event>
<event>
 5    1  0.3422688E-002  0.1249983E+03  0.7818608E-02  0.1235072E+00
         -4   -1    0    0    0  501 -0.00000000000E+00  0.00000000000E+00  0.79403339071E+02  0.79413494795E+02  0.12700000000E+01 0.  1.
          4   -1    0    0  501    0  0.00000000000E+00 -0.00000000000E+00 -0.49172205780E+02  0.49188603571E+02  0.12700000000E+01 0.  1.
         25    2    1    2    0    0  0.00000000000E+00  0.00000000000E+00  0.30231133291E+02  0.12860209837E+03  0.12499831312E+03 0.  0.
    9000005    1    3    3    0    0 -0.40038160194E+01  0.21509469619E+02 -0.45108007942E+02  0.50143994720E+02  0.10000000000E+01 0.  0.
    9000005    1    3    3    0    0  0.40038160194E+01 -0.21509469619E+02  0.75339141233E+02  0.78458103646E+02  0.10000000000E+01 0.  0.
<mgrwt>
<rscale>  0 0.12499831E+03</rscale>
<asrwt>0</asrwt>
<pdfrwt beam="2">  1        4 0.75669974E-02 0.12499831E+03</pdfrwt>
<pdfrwt beam="1">  1       -4 0.12217941E-01 0.12499831E+03</pdfrwt>
<totfact> 0.10374900E+04</totfact>
</mgrwt>
</event>
<event>
 5    1  0.3422688E-002  0.1249972E+03  0.7818608E-02  0.1235074E+00
         -4   -1    0    0    0  501 -0.00000000000E+00  0.00000000000E+00  0.70821856494E+03  0.70821970364E+03  0.12700000000E+01 0.  1.
          4   -1    0    0  501    0  0.00000000000E+00 -0.00000000000E+00 -0.54410874769E+01  0.55873368372E+01  0.12700000000E+01 0.  1.
         25    2    1    2    0    0  0.00000000000E+00  0.00000000000E+00  0.70277747746E+03  0.71380704048E+03  0.12499723280E+03 0.  0.
    9000005    1    3    3    0    0 -0.21870770520E+02 -0.31798047366E+02  0.63205854357E+03  0.63323648735E+03  0.10000000000E+01 0.  0.
    9000005    1    3    3    0    0  0.21870770520E+02  0.31798047366E+02  0.70718933893E+02  0.80570553122E+02  0.10000000000E+01 0.  0.
<mgrwt>
<rscale>  0 0.12499723E+03</rscale>
<asrwt>0</asrwt>
<pdfrwt beam="2">  1        4 0.84842809E-03 0.12499723E+03</pdfrwt>
<pdfrwt beam="1">  1       -4 0.10896802E+00 0.12499723E+03</pdfrwt>
<totfact> 0.42370366E+03</totfact>
</mgrwt>
</event>
<event>
 5    1  0.3422688E-002  0.1249968E+03  0.7818608E-02  0.1235074E+00
         -4   -1    0    0    0  501 -0.00000000000E+00  0.00000000000E+00  0.37321612634E+03  0.37321828714E+03  0.12700000000E+01 0. -1.
          4   -1    0    0  501    0  0.00000000000E+00 -0.00000000000E+00 -0.10425190190E+02  0.10502261209E+02  0.12700000000E+01 0. -1.
         25    2    1    2    0    0  0.00000000000E+00  0.00000000000E+00  0.36279093615E+03  0.38372054835E+03  0.12499678347E+03 0.  0.
    9000005    1    3    3    0    0 -0.51291659332E+02  0.21748087535E+02  0.26829076416E+03  0.27401596260E+03  0.10000000000E+01 0.  0.
    9000005    1    3    3    0    0  0.51291659332E+02 -0.21748087535E+02  0.94500171993E+02  0.10970458575E+03  0.10000000000E+01 0.  0.
<mgrwt>
<rscale>  0 0.12499678E+03</rscale>
<asrwt>0</asrwt>
<pdfrwt beam="2">  1        4 0.16099704E-02 0.12499678E+03</pdfrwt>
<pdfrwt beam="1">  1       -4 0.57423951E-01 0.12499678E+03</pdfrwt>
<totfact> 0.66172223E+03</totfact>
</mgrwt>
</event>
<event>
 5    1  0.3422688E-002  0.1250053E+03  0.7818608E-02  0.1235061E+00
          4   -1    0    0  501    0  0.00000000000E+00  0.00000000000E+00  0.25610411481E+01  0.28586415939E+01  0.12700000000E+01 0. -1.
         -4   -1    0    0    0  501 -0.00000000000E+00 -0.00000000000E+00 -0.14413296292E+04  0.14413301887E+04  0.12700000000E+01 0. -1.
         25    2    1    2    0    0  0.00000000000E+00  0.00000000000E+00 -0.14387685881E+04  0.14441888303E+04  0.12500531042E+03 0.  0.
    9000005    1    3    3    0    0 -0.54315829930E+02  0.11189549626E+01 -0.10762436808E+04  0.10776144589E+04  0.10000000000E+01 0.  0.
    9000005    1    3    3    0    0  0.54315829930E+02 -0.11189549626E+01 -0.36252490723E+03  0.36657437145E+03  0.10000000000E+01 0.  0.
<mgrwt>
<rscale>  0 0.12500531E+03</rscale>
<asrwt>0</asrwt>
<pdfrwt beam="1">  1        4 0.41694286E-03 0.12500531E+03</pdfrwt>
<pdfrwt beam="2">  1       -4 0.22176534E+00 0.12500531E+03</pdfrwt>
<totfact> 0.19049943E+03</totfact>
</mgrwt>
</event>
<event>
 5    1  0.3422688E-002  0.1249906E+03  0.7818608E-02  0.1235084E+00
         -4   -1    0    0    0  501 -0.00000000000E+00  0.00000000000E+00  0.75658280325E+01  0.76716786831E+01  0.12700000000E+01 0.  1.
          4   -1    0    0  501    0  0.00000000000E+00 -0.00000000000E+00 -0.51253121936E+03  0.51253279283E+03  0.12700000000E+01 0.  1.
         25    2    1    2    0    0  0.00000000000E+00  0.00000000000E+00 -0.50496539133E+03  0.52020447151E+03  0.12499058259E+03 0.  0.
    9000005    1    3    3    0    0  0.26437973421E+01  0.50865520206E+01  0.64895225229E+01  0.87164544638E+01  0.10000000000E+01 0.  0.
    9000005    1    3    3    0    0 -0.26437973421E+01 -0.50865520206E+01 -0.51145491385E+03  0.51148801705E+03  0.10000000000E+01 0.  0.
<mgrwt>
<rscale>  0 0.12499058E+03</rscale>
<asrwt>0</asrwt>
<pdfrwt beam="2">  1        4 0.78859193E-01 0.12499058E+03</pdfrwt>
<pdfrwt beam="1">  1       -4 0.11722373E-02 0.12499058E+03</pdfrwt>
<totfact> 0.54341387E+03</totfact>
</mgrwt>
</event>
<event>
 5    1  0.3422688E-002  0.1250054E+03  0.7818608E-02  0.1235061E+00
         -4   -1    0    0    0  501 -0.00000000000E+00  0.00000000000E+00  0.31984477358E+01  0.34413613467E+01  0.12700000000E+01 0.  1.
          4   -1    0    0  501    0  0.00000000000E+00 -0.00000000000E+00 -0.11764730043E+04  0.11764736898E+04  0.12700000000E+01 0.  1.
         25    2    1    2    0    0  0.00000000000E+00  0.00000000000E+00 -0.11732745566E+04  0.11799150511E+04  0.12500537107E+03 0.  0.
    9000005    1    3    3    0    0  0.18044655784E+02 -0.53576270101E+02 -0.83806689878E+03  0.83997211451E+03  0.10000000000E+01 0.  0.
    9000005    1    3    3    0    0 -0.18044655784E+02  0.53576270101E+02 -0.33520765777E+03  0.33994293660E+03  0.10000000000E+01 0.  0.
<mgrwt>
<rscale>  0 0.12500537E+03</rscale>
<asrwt>0</asrwt>
<pdfrwt beam="2">  1        4 0.18101425E+00 0.12500537E+03</pdfrwt>
<pdfrwt beam="1">  1       -4 0.51080821E-03 0.12500537E+03</pdfrwt>
<totfact> 0.25241707E+03</totfact>
</mgrwt>
</event>
<event>
 5    1  0.3422688E-002  0.1249977E+03  0.7818608E-02  0.1235073E+00
          4   -1    0    0  501    0  0.00000000000E+00  0.00000000000E+00  0.83269260168E+02  0.83278944451E+02  0.12700000000E+01 0.  1.
         -4   -1    0    0    0  501 -0.00000000000E+00 -0.00000000000E+00 -0.46888349384E+02  0.46905545599E+02  0.12700000000E+01 0.  1.
         25    2    1    2    0    0  0.00000000000E+00  0.00000000000E+00  0.36380910784E+02  0.13018449005E+03  0.12499772310E+03 0.  0.
    9000005    1    3    3    0    0  0.27541942442E+02  0.21748268404E+02 -0.35661598004E+02  0.50042935009E+02  0.10000000000E+01 0.  0.
    9000005    1    3    3    0    0 -0.27541942442E+02 -0.21748268404E+02  0.72042508788E+02  0.80141555042E+02  0.10000000000E+01 0.  0.
<mgrwt>
<rscale>  0 0.12499772E+03</rscale>
<asrwt>0</asrwt>
<pdfrwt beam="1">  1        4 0.12812723E-01 0.12499772E+03</pdfrwt>
<pdfrwt beam="2">  1       -4 0.72156600E-02 0.12499772E+03</pdfrwt>
<totfact> 0.10341094E+04</totfact>
</mgrwt>
</event>
<event>
 5    1  0.3422688E-002  0.1249976E+03  0.7818608E-02  0.1235073E+00
          4   -1    0    0  501    0  0.00000000000E+00  0.00000000000E+00  0.41003393433E+03  0.41003590112E+03  0.12700000000E+01 0.  1.
         -4   -1    0    0    0  501 -0.00000000000E+00 -0.00000000000E+00 -0.94819618903E+01  0.95666347944E+01  0.12700000000E+01 0.  1.
         25    2    1    2    0    0  0.00000000000E+00  0.00000000000E+00  0.40055197244E+03  0.41960253591E+03  0.12499762204E+03 0.  0.
    9000005    1    3    3    0    0  0.23114478399E+02  0.44687197287E+02  0.75850247769E+02  0.91024638420E+02  0.10000000000E+01 0.  0.
    9000005    1    3    3    0    0 -0.23114478399E+02 -0.44687197287E+02  0.32470172467E+03  0.32857789749E+03  0.10000000000E+01 0.  0.
<mgrwt>
<rscale>  0 0.12499762E+03</rscale>
<asrwt>0</asrwt>
<pdfrwt beam="1">  1        4 0.63088794E-01 0.12499762E+03</pdfrwt>
<pdfrwt beam="2">  1       -4 0.14654283E-02 0.12499762E+03</pdfrwt>
<totfact> 0.62693195E+03</totfact>
</mgrwt>
</event>
<event>
 5    1  0.3422688E-002  0.1249983E+03  0.7818608E-02  0.1235072E+00
         -4   -1    0    0    0  501 -0.00000000000E+00  0.00000000000E+00  0.10268011047E+03  0.10268796417E+03  0.12700000000E+01 0. -1.
          4   -1    0    0  501    0  0.00000000000E+00 -0.00000000000E+00 -0.38021935848E+02  0.38043140061E+02  0.12700000000E+01 0. -1.
         25    2    1    2    0    0  0.00000000000E+00  0.00000000000E+00  0.64658174617E+02  0.14073110423E+03  0.12499825660E+03 0.  0.
    9000005    1    3    3    0    0  0.15832018577E+02 -0.59102324251E+02  0.46632596710E+02  0.76937225190E+02  0.10000000000E+01 0.  0.
    9000005    1    3    3    0    0 -0.15832018577E+02  0.59102324251E+02  0.18025577908E+02  0.63793879040E+02  0.10000000000E+01 0.  0.
<mgrwt>
<rscale>  0 0.12499826E+03</rscale>
<asrwt>0</asrwt>
<pdfrwt beam="2">  1        4 0.58517640E-02 0.12499826E+03</pdfrwt>
<pdfrwt beam="1">  1       -4 0.15799175E-01 0.12499826E+03</pdfrwt>
<totfact> 0.10118853E+04</totfact>
</mgrwt>
</event>
<event>
 4    1  0.3422688E-002  0.1248839E+03  0.7818608E-02  0.1235251E+00
         -4   -1    0    0    0  501 -0.00000000000E+00  0.00000000000E+00  0.44525632460E+02  0.44543740817E+02  0.12700000000E+01 0. -1.
          4   -1    0    0  501    0  0.00000000000E+00 -0.00000000000E+00 -0.87526904802E+02  0.87536118055E+02  0.12700000000E+01 0. -1.
    9000005    1    1    2    0    0 -0.99592280483E+01  0.61628997300E+02 -0.20631458734E+02  0.65756951123E+02  0.10000000000E+01 0.  0.
    9000005    1    1    2    0    0  0.99592280483E+01 -0.61628997300E+02 -0.22369813608E+02  0.66322907749E+02  0.10000000000E+01 0.  0.
<mgrwt>
<rscale>  0 0.12488386E+03</rscale>
<asrwt>0</asrwt>
<pdfrwt beam="2">  1        4 0.13467779E-01 0.12488386E+03</pdfrwt>
<pdfrwt beam="1">  1       -4 0.68521990E-02 0.12488386E+03</pdfrwt>
<totfact> 0.10327025E+04</totfact>
</mgrwt>
</event>
<event>
 5    1  0.3422688E-002  0.1250024E+03  0.7818608E-02  0.1235065E+00
          4   -1    0    0  501    0  0.00000000000E+00  0.00000000000E+00  0.41217782329E+03  0.41217977984E+03  0.12700000000E+01 0.  1.
         -4   -1    0    0    0  501 -0.00000000000E+00 -0.00000000000E+00 -0.94329356994E+01  0.95180447524E+01  0.12700000000E+01 0.  1.
         25    2    1    2    0    0  0.00000000000E+00  0.00000000000E+00  0.40274488759E+03  0.42169782459E+03  0.12500244313E+03 0.  0.
    9000005    1    3    3    0    0 -0.43219517234E+02  0.20967747092E+02  0.66523331526E+02  0.82060506490E+02  0.10000000000E+01 0.  0.
    9000005    1    3    3    0    0  0.43219517234E+02 -0.20967747092E+02  0.33622155606E+03  0.33963731810E+03  0.10000000000E+01 0.  0.
<mgrwt>
<rscale>  0 0.12500244E+03</rscale>
<asrwt>0</asrwt>
<pdfrwt beam="1">  1        4 0.63418665E-01 0.12500244E+03</pdfrwt>
<pdfrwt beam="2">  1       -4 0.14579183E-02 0.12500244E+03</pdfrwt>
<totfact> 0.62492444E+03</totfact>
</mgrwt>
</event>
<event>
 5    1  0.3422688E-002  0.1250003E+03  0.7818608E-02  0.1235069E+00
          4   -1    0    0  501    0  0.00000000000E+00  0.00000000000E+00  0.21879417784E+04  0.21879421470E+04  0.12700000000E+01 0. -1.
         -4   -1    0    0    0  501 -0.00000000000E+00 -0.00000000000E+00 -0.15590971036E+01  0.20108912896E+01  0.12700000000E+01 0. -1.
         25    2    1    2    0    0  0.00000000000E+00  0.00000000000E+00  0.21863826813E+04  0.21899530383E+04  0.12500032316E+03 0.  0.
    9000005    1    3    3    0    0 -0.14186969752E+02  0.49825837624E+01  0.21558623350E+04  0.21559150038E+04  0.10000000000E+01 0.  0.
    9000005    1    3    3    0    0  0.14186969752E+02 -0.49825837624E+01  0.30520346356E+02  0.34038034511E+02  0.10000000000E+01 0.  0.
<mgrwt>
<rscale>  0 0.12500032E+03</rscale>
<asrwt>0</asrwt>
<pdfrwt beam="1">  1        4 0.33664062E+00 0.12500032E+03</pdfrwt>
<pdfrwt beam="2">  1       -4 0.27464332E-03 0.12500032E+03</pdfrwt>
<totfact> 0.75812312E+02</totfact>
</mgrwt>
</event>
<event>
 5    1  0.3422688E-002  0.1250014E+03  0.7818608E-02  0.1235067E+00
         -4   -1    0    0    0  501 -0.00000000000E+00  0.00000000000E+00  0.13520366461E+02  0.13579882520E+02  0.12700000000E+01 0.  1.
          4   -1    0    0  501    0  0.00000000000E+00 -0.00000000000E+00 -0.28822699993E+03  0.28822979788E+03  0.12700000000E+01 0.  1.
         25    2    1    2    0    0  0.00000000000E+00  0.00000000000E+00 -0.27470663347E+03  0.30180968040E+03  0.12500139485E+03 0.  0.
    9000005    1    3    3    0    0  0.10067363912E+01 -0.61241568009E+02 -0.10741081979E+03  0.12365123282E+03  0.10000000000E+01 0.  0.
    9000005    1    3    3    0    0 -0.10067363912E+01  0.61241568009E+02 -0.16729581368E+03  0.17815844759E+03  0.10000000000E+01 0.  0.
<mgrwt>
<rscale>  0 0.12500139E+03</rscale>
<asrwt>0</asrwt>
<pdfrwt beam="2">  1        4 0.44347404E-01 0.12500139E+03</pdfrwt>
<pdfrwt beam="1">  1       -4 0.20848500E-02 0.12500139E+03</pdfrwt>
<totfact> 0.75370063E+03</totfact>
</mgrwt>
</event>
<event>
 5    1  0.3422688E-002  0.1249980E+03  0.7818608E-02  0.1235072E+00
          4   -1    0    0  501    0  0.00000000000E+00  0.00000000000E+00  0.11251823585E+03  0.11252540290E+03  0.12700000000E+01 0.  1.
         -4   -1    0    0    0  501 -0.00000000000E+00 -0.00000000000E+00 -0.34695619876E+02  0.34718855663E+02  0.12700000000E+01 0.  1.
         25    2    1    2    0    0  0.00000000000E+00  0.00000000000E+00  0.77822615974E+02  0.14724425857E+03  0.12499804848E+03 0.  0.
    9000005    1    3    3    0    0  0.90823110356E+01  0.50468851974E+02 -0.31595399325E+01  0.51386536038E+02  0.10000000000E+01 0.  0.
    9000005    1    3    3    0    0 -0.90823110356E+01 -0.50468851974E+02  0.80982155907E+02  0.95857722530E+02  0.10000000000E+01 0.  0.
<mgrwt>
<rscale>  0 0.12499805E+03</rscale>
<asrwt>0</asrwt>
<pdfrwt beam="1">  1        4 0.17312836E-01 0.12499805E+03</pdfrwt>
<pdfrwt beam="2">  1       -4 0.53401264E-02 0.12499805E+03</pdfrwt>
<totfact> 0.99860265E+03</totfact>
</mgrwt>
</event>
<event>
 5    1  0.3422688E-002  0.1249959E+03  0.7818608E-02  0.1235076E+00
          4   -1    0    0  501    0  0.00000000000E+00  0.00000000000E+00  0.31940070700E+03  0.31940323188E+03  0.12700000000E+01 0.  1.
         -4   -1    0    0    0  501 -0.00000000000E+00 -0.00000000000E+00 -0.12193577430E+02  0.12259536310E+02  0.12700000000E+01 0.  1.
         25    2    1    2    0    0  0.00000000000E+00  0.00000000000E+00  0.30720712957E+03  0.33166276819E+03  0.12499588530E+03 0.  0.
    9000005    1    3    3    0    0  0.55381988442E+02 -0.25840660726E+02  0.11899860016E+03  0.13377806708E+03  0.10000000000E+01 0.  0.
    9000005    1    3    3    0    0 -0.55381988442E+02  0.25840660726E+02  0.18820852941E+03  0.19788470111E+03  0.10000000000E+01 0.  0.
<mgrwt>
<rscale>  0 0.12499589E+03</rscale>
<asrwt>0</asrwt>
<pdfrwt beam="1">  1        4 0.49143835E-01 0.12499589E+03</pdfrwt>
<pdfrwt beam="2">  1       -4 0.18812031E-02 0.12499589E+03</pdfrwt>
<totfact> 0.71796677E+03</totfact>
</mgrwt>
</event>
<event>
 5    1  0.3422688E-002  0.1250032E+03  0.7818608E-02  0.1235064E+00
         -4   -1    0    0    0  501 -0.00000000000E+00  0.00000000000E+00  0.39920463703E+01  0.41891925502E+01  0.12700000000E+01 0.  1.
          4   -1    0    0  501    0  0.00000000000E+00 -0.00000000000E+00 -0.95477943695E+03  0.95478028160E+03  0.12700000000E+01 0.  1.
         25    2    1    2    0    0  0.00000000000E+00  0.00000000000E+00 -0.95078739058E+03  0.95896947415E+03  0.12500316099E+03 0.  0.
    9000005    1    3    3    0    0  0.24372957854E+01  0.42005375180E+02 -0.12091643271E+03  0.12803193216E+03  0.10000000000E+01 0.  0.
    9000005    1    3    3    0    0 -0.24372957854E+01 -0.42005375180E+02 -0.82987095787E+03  0.83093754198E+03  0.10000000000E+01 0.  0.
<mgrwt>
<rscale>  0 0.12500316E+03</rscale>
<asrwt>0</asrwt>
<pdfrwt beam="2">  1        4 0.14690420E+00 0.12500316E+03</pdfrwt>
<pdfrwt beam="1">  1       -4 0.62939180E-03 0.12500316E+03</pdfrwt>
<totfact> 0.31997476E+03</totfact>
</mgrwt>
</event>
<event>
 5    1  0.3422688E-002  0.1250029E+03  0.7818608E-02  0.1235065E+00
         -4   -1    0    0    0  501 -0.00000000000E+00  0.00000000000E+00  0.25621182103E+03  0.25621496860E+03  0.12700000000E+01 0.  1.
          4   -1    0    0  501    0  0.00000000000E+00 -0.00000000000E+00 -0.15217177733E+02  0.15270081799E+02  0.12700000000E+01 0.  1.
         25    2    1    2    0    0  0.00000000000E+00  0.00000000000E+00  0.24099464329E+03  0.27148505040E+03  0.12500285794E+03 0.  0.
    9000005    1    3    3    0    0  0.40988853930E+02 -0.42112140996E+02  0.74328160833E+02  0.94758609416E+02  0.10000000000E+01 0.  0.
    9000005    1    3    3    0    0 -0.40988853930E+02  0.42112140996E+02  0.16666648246E+03  0.17672644098E+03  0.10000000000E+01 0.  0.
<mgrwt>
<rscale>  0 0.12500286E+03</rscale>
<asrwt>0</asrwt>
<pdfrwt beam="2">  1        4 0.23454160E-02 0.12500286E+03</pdfrwt>
<pdfrwt beam="1">  1       -4 0.39421514E-01 0.12500286E+03</pdfrwt>
<totfact> 0.79315791E+03</totfact>
</mgrwt>
</event>
<event>
 5    1  0.3422688E-002  0.1250187E+03  0.7818608E-02  0.1235040E+00
          4   -1    0    0  501    0  0.00000000000E+00  0.00000000000E+00  0.99530064007E+02  0.99538166254E+02  0.12700000000E+01 0.  1.
         -4   -1    0    0    0  501 -0.00000000000E+00 -0.00000000000E+00 -0.39238675747E+02  0.39259222794E+02  0.12700000000E+01 0.  1.
         25    2    1    2    0    0  0.00000000000E+00  0.00000000000E+00  0.60291388259E+02  0.13879738905E+03  0.12501865344E+03 0.  0.
    9000005    1    3    3    0    0  0.10899517691E+02 -0.16849375689E+02  0.95861655356E+02  0.97944667617E+02  0.10000000000E+01 0.  0.
    9000005    1    3    3    0    0 -0.10899517691E+02  0.16849375689E+02 -0.35570267096E+02  0.40852721431E+02  0.10000000000E+01 0.  0.
<mgrwt>
<rscale>  0 0.12501865E+03</rscale>
<asrwt>0</asrwt>
<pdfrwt beam="1">  1        4 0.15314521E-01 0.12501865E+03</pdfrwt>
<pdfrwt beam="2">  1       -4 0.60389231E-02 0.12501865E+03</pdfrwt>
<totfact> 0.10154303E+04</totfact>
</mgrwt>
</event>
<event>
 5    1  0.3422688E-002  0.1250009E+03  0.7818608E-02  0.1235068E+00
          4   -1    0    0  501    0  0.00000000000E+00  0.00000000000E+00  0.74902291056E+01  0.75971331470E+01  0.12700000000E+01 0.  1.
         -4   -1    0    0    0  501 -0.00000000000E+00 -0.00000000000E+00 -0.51771755939E+03  0.51771911709E+03  0.12700000000E+01 0.  1.
         25    2    1    2    0    0  0.00000000000E+00  0.00000000000E+00 -0.51022733029E+03  0.52531625024E+03  0.12500093677E+03 0.  0.
    9000005    1    3    3    0    0 -0.22198377562E+02  0.14803837511E+01 -0.50053198769E+03  0.50102717511E+03  0.10000000000E+01 0.  0.
    9000005    1    3    3    0    0  0.22198377562E+02 -0.14803837511E+01 -0.96953425992E+01  0.24289075127E+02  0.10000000000E+01 0.  0.
<mgrwt>
<rscale>  0 0.12500094E+03</rscale>
<asrwt>0</asrwt>
<pdfrwt beam="1">  1        4 0.11606866E-02 0.12500094E+03</pdfrwt>
<pdfrwt beam="2">  1       -4 0.79657170E-01 0.12500094E+03</pdfrwt>
<totfact> 0.53951182E+03</totfact>
</mgrwt>
</event>
<event>
 5    1  0.3422688E-002  0.1250009E+03  0.7818608E-02  0.1235068E+00
         -4   -1    0    0    0  501 -0.00000000000E+00  0.00000000000E+00  0.82224925504E+02  0.82234732772E+02  0.12700000000E+01 0. -1.
          4   -1    0    0  501    0  0.00000000000E+00 -0.00000000000E+00 -0.47486455722E+02  0.47503435423E+02  0.12700000000E+01 0. -1.
         25    2    1    2    0    0  0.00000000000E+00  0.00000000000E+00  0.34738469782E+02  0.12973816820E+03  0.12500092401E+03 0.  0.
    9000005    1    3    3    0    0  0.18289482872E+02 -0.22839734863E+02  0.74681010998E+02  0.80214787141E+02  0.10000000000E+01 0.  0.
    9000005    1    3    3    0    0 -0.18289482872E+02  0.22839734863E+02 -0.39942541216E+02  0.49523381055E+02  0.10000000000E+01 0.  0.
<mgrwt>
<rscale>  0 0.12500092E+03</rscale>
<asrwt>0</asrwt>
<pdfrwt beam="2">  1        4 0.73076691E-02 0.12500092E+03</pdfrwt>
<pdfrwt beam="1">  1       -4 0.12652049E-01 0.12500092E+03</pdfrwt>
<totfact> 0.10349896E+04</totfact>
</mgrwt>
</event>
<event>
 5    1  0.3422688E-002  0.1250185E+03  0.7818608E-02  0.1235040E+00
          4   -1    0    0  501    0  0.00000000000E+00  0.00000000000E+00  0.18483208499E+03  0.18483644809E+03  0.12700000000E+01 0. -1.
         -4   -1    0    0    0  501 -0.00000000000E+00 -0.00000000000E+00 -0.21116605158E+02  0.21154761010E+02  0.12700000000E+01 0. -1.
         25    2    1    2    0    0  0.00000000000E+00  0.00000000000E+00  0.16371547983E+03  0.20599120910E+03  0.12501847819E+03 0.  0.
    9000005    1    3    3    0    0  0.41445043533E+02 -0.24754673688E+02  0.16448140537E+02  0.51010065967E+02  0.10000000000E+01 0.  0.
    9000005    1    3    3    0    0 -0.41445043533E+02  0.24754673688E+02  0.14726733929E+03  0.15498114313E+03  0.10000000000E+01 0.  0.
<mgrwt>
<rscale>  0 0.12501848E+03</rscale>
<asrwt>0</asrwt>
<pdfrwt beam="1">  1        4 0.28438976E-01 0.12501848E+03</pdfrwt>
<pdfrwt beam="2">  1       -4 0.32519792E-02 0.12501848E+03</pdfrwt>
<totfact> 0.89097956E+03</totfact>
</mgrwt>
</event>
<event>
 5    1  0.3422688E-002  0.1249990E+03  0.7818608E-02  0.1235071E+00
          4   -1    0    0  501    0  0.00000000000E+00  0.00000000000E+00  0.11836340949E+03  0.11837022263E+03  0.12700000000E+01 0.  1.
         -4   -1    0    0    0  501 -0.00000000000E+00 -0.00000000000E+00 -0.32981680452E+02  0.33006122848E+02  0.12700000000E+01 0.  1.
         25    2    1    2    0    0  0.00000000000E+00  0.00000000000E+00  0.85381729038E+02  0.15137634548E+03  0.12499903327E+03 0.  0.
    9000005    1    3    3    0    0  0.40381297097E+02  0.13259223623E+02 -0.12788311273E+02  0.44395912780E+02  0.10000000000E+01 0.  0.
    9000005    1    3    3    0    0 -0.40381297097E+02 -0.13259223623E+02  0.98170040311E+02  0.10698043270E+03  0.10000000000E+01 0.  0.
<mgrwt>
<rscale>  0 0.12499903E+03</rscale>
<asrwt>0</asrwt>
<pdfrwt beam="1">  1        4 0.18212160E-01 0.12499903E+03</pdfrwt>
<pdfrwt beam="2">  1       -4 0.50765089E-02 0.12499903E+03</pdfrwt>
<totfact> 0.99032203E+03</totfact>
</mgrwt>
</event>
<event>
 5    1  0.3422688E-002  0.1249999E+03  0.7818608E-02  0.1235069E+00
          4   -1    0    0  501    0  0.00000000000E+00  0.00000000000E+00  0.26112983566E+02  0.26143848430E+02  0.12700000000E+01 0. -1.
         -4   -1    0    0    0  501 -0.00000000000E+00 -0.00000000000E+00 -0.14946810109E+03  0.14947349646E+03  0.12700000000E+01 0. -1.
         25    2    1    2    0    0  0.00000000000E+00  0.00000000000E+00 -0.12335511752E+03  0.17561734489E+03  0.12499986723E+03 0.  0.
    9000005    1    3    3    0    0  0.17486114826E+02 -0.46518673461E+02 -0.84473685666E+01  0.50419333871E+02  0.10000000000E+01 0.  0.
    9000005    1    3    3    0    0 -0.17486114826E+02  0.46518673461E+02 -0.11490774896E+03  0.12519801102E+03  0.10000000000E+01 0.  0.
<mgrwt>
<rscale>  0 0.12499987E+03</rscale>
<asrwt>0</asrwt>
<pdfrwt beam="1">  1        4 0.40201714E-02 0.12499987E+03</pdfrwt>
<pdfrwt beam="2">  1       -4 0.22997881E-01 0.12499987E+03</pdfrwt>
<totfact> 0.94412178E+03</totfact>
</mgrwt>
</event>
<event>
 5    1  0.3422688E-002  0.1249833E+03  0.7818608E-02  0.1235095E+00
          4   -1    0    0  501    0  0.00000000000E+00  0.00000000000E+00  0.16680908178E+03  0.16681391627E+03  0.12700000000E+01 0. -1.
         -4   -1    0    0    0  501 -0.00000000000E+00 -0.00000000000E+00 -0.23388846187E+02  0.23423300919E+02  0.12700000000E+01 0. -1.
         25    2    1    2    0    0  0.00000000000E+00  0.00000000000E+00  0.14342023559E+03  0.19023721719E+03  0.12498333821E+03 0.  0.
    9000005    1    3    3    0    0 -0.31662016024E+02 -0.53864943706E+02  0.70885807771E+02  0.94497159547E+02  0.10000000000E+01 0.  0.
    9000005    1    3    3    0    0  0.31662016024E+02  0.53864943706E+02  0.72534427818E+02  0.95740057646E+02  0.10000000000E+01 0.  0.
<mgrwt>
<rscale>  0 0.12498334E+03</rscale>
<asrwt>0</asrwt>
<pdfrwt beam="1">  1        4 0.25665957E-01 0.12498334E+03</pdfrwt>
<pdfrwt beam="2">  1       -4 0.36013064E-02 0.12498334E+03</pdfrwt>
<totfact> 0.91840328E+03</totfact>
</mgrwt>
</event>
<event>
 4    1  0.3422688E-002  0.1250970E+03  0.7818608E-02  0.1234918E+00
          4   -1    0    0  501    0  0.00000000000E+00  0.00000000000E+00  0.24630503286E+02  0.24663223473E+02  0.12700000000E+01 0.  1.
         -4   -1    0    0    0  501 -0.00000000000E+00 -0.00000000000E+00 -0.15869963859E+03  0.15870472012E+03  0.12700000000E+01 0.  1.
    9000005    1    1    2    0    0  0.47096020492E+02  0.39999611657E+02 -0.52875056603E+02  0.81331271290E+02  0.10000000000E+01 0.  0.
    9000005    1    1    2    0    0 -0.47096020492E+02 -0.39999611657E+02 -0.81194078705E+02  0.10203667231E+03  0.10000000000E+01 0.  0.
<mgrwt>
<rscale>  0 0.12509704E+03</rscale>
<asrwt>0</asrwt>
<pdfrwt beam="1">  1        4 0.37922161E-02 0.12509704E+03</pdfrwt>
<pdfrwt beam="2">  1       -4 0.24418236E-01 0.12509704E+03</pdfrwt>
<totfact> 0.92812224E+03</totfact>
</mgrwt>
</event>
<event>
 5    1  0.3422688E-002  0.1249983E+03  0.7818608E-02  0.1235072E+00
         -4   -1    0    0    0  501 -0.00000000000E+00  0.00000000000E+00  0.14795190105E+02  0.14849597645E+02  0.12700000000E+01 0.  1.
          4   -1    0    0  501    0  0.00000000000E+00 -0.00000000000E+00 -0.26347378021E+03  0.26347684103E+03  0.12700000000E+01 0.  1.
         25    2    1    2    0    0  0.00000000000E+00  0.00000000000E+00 -0.24867859011E+03  0.27832643868E+03  0.12499826114E+03 0.  0.
    9000005    1    3    3    0    0  0.50234156478E+01 -0.59592996748E+02 -0.16470122736E+03  0.17522572374E+03  0.10000000000E+01 0.  0.
    9000005    1    3    3    0    0 -0.50234156478E+01  0.59592996748E+02 -0.83977362744E+02  0.10310071493E+03  0.10000000000E+01 0.  0.
<mgrwt>
<rscale>  0 0.12499826E+03</rscale>
<asrwt>0</asrwt>
<pdfrwt beam="2">  1        4 0.40538845E-01 0.12499826E+03</pdfrwt>
<pdfrwt beam="1">  1       -4 0.22806039E-02 0.12499826E+03</pdfrwt>
<totfact> 0.78403564E+03</totfact>
</mgrwt>
</event>
<event>
 5    1  0.3422688E-002  0.1249997E+03  0.7818608E-02  0.1235070E+00
         -4   -1    0    0    0  501 -0.00000000000E+00  0.00000000000E+00  0.52396625436E+02  0.52412014435E+02  0.12700000000E+01 0.  1.
          4   -1    0    0  501    0  0.00000000000E+00 -0.00000000000E+00 -0.74519427012E+02  0.74530248236E+02  0.12700000000E+01 0.  1.
         25    2    1    2    0    0  0.00000000000E+00  0.00000000000E+00 -0.22122801576E+02  0.12694226267E+03  0.12499967881E+03 0.  0.
    9000005    1    3    3    0    0  0.18819483758E+02  0.53413569498E+02 -0.37892585042E+02  0.68147123025E+02  0.10000000000E+01 0.  0.
    9000005    1    3    3    0    0 -0.18819483758E+02 -0.53413569498E+02  0.15769783467E+02  0.58795139646E+02  0.10000000000E+01 0.  0.
<mgrwt>
<rscale>  0 0.12499968E+03</rscale>
<asrwt>0</asrwt>
<pdfrwt beam="2">  1        4 0.11466543E-01 0.12499968E+03</pdfrwt>
<pdfrwt beam="1">  1       -4 0.80630355E-02 0.12499968E+03</pdfrwt>
<totfact> 0.10410476E+04</totfact>
</mgrwt>
</event>
<event>
 5    1  0.3422688E-002  0.1250010E+03  0.7818608E-02  0.1235068E+00
         -4   -1    0    0    0  501 -0.00000000000E+00  0.00000000000E+00  0.94699273913E+03  0.94699359072E+03  0.12700000000E+01 0. -1.
          4   -1    0    0  501    0  0.00000000000E+00 -0.00000000000E+00 -0.40263375023E+01  0.42218827178E+01  0.12700000000E+01 0. -1.
         25    2    1    2    0    0  0.00000000000E+00  0.00000000000E+00  0.94296640163E+03  0.95121547344E+03  0.12500096923E+03 0.  0.
    9000005    1    3    3    0    0 -0.42634399714E+02 -0.17915825802E+02  0.79132834926E+03  0.79267914391E+03  0.10000000000E+01 0.  0.
    9000005    1    3    3    0    0  0.42634399714E+02  0.17915825802E+02  0.15163805237E+03  0.15853632953E+03  0.10000000000E+01 0.  0.
<mgrwt>
<rscale>  0 0.12500097E+03</rscale>
<asrwt>0</asrwt>
<pdfrwt beam="2">  1        4 0.63454451E-03 0.12500097E+03</pdfrwt>
<pdfrwt beam="1">  1       -4 0.14570618E+00 0.12500097E+03</pdfrwt>
<totfact> 0.32272199E+03</totfact>
</mgrwt>
</event>
<event>
 5    1  0.3422688E-002  0.1250125E+03  0.7818608E-02  0.1235050E+00
         -4   -1    0    0    0  501 -0.00000000000E+00  0.00000000000E+00  0.66677226179E+01  0.67875934549E+01  0.12700000000E+01 0.  1.
          4   -1    0    0  501    0  0.00000000000E+00 -0.00000000000E+00 -0.58062062690E+03  0.58062201584E+03  0.12700000000E+01 0.  1.
         25    2    1    2    0    0  0.00000000000E+00  0.00000000000E+00 -0.57395290428E+03  0.58740960930E+03  0.12501245043E+03 0.  0.
    9000005    1    3    3    0    0 -0.24360532257E+02  0.55772170875E+02 -0.22018430737E+03  0.22844277136E+03  0.10000000000E+01 0.  0.
    9000005    1    3    3    0    0  0.24360532257E+02 -0.55772170875E+02 -0.35376859691E+03  0.35896683793E+03  0.10000000000E+01 0.  0.
<mgrwt>
<rscale>  0 0.12501245E+03</rscale>
<asrwt>0</asrwt>
<pdfrwt beam="2">  1        4 0.89335539E-01 0.12501245E+03</pdfrwt>
<pdfrwt beam="1">  1       -4 0.10351316E-02 0.12501245E+03</pdfrwt>
<totfact> 0.49658574E+03</totfact>
</mgrwt>
</event>
<event>
 5    1  0.3422688E-002  0.1249919E+03  0.7818608E-02  0.1235082E+00
          4   -1    0    0  501    0  0.00000000000E+00  0.00000000000E+00  0.80591994649E+02  0.80602000605E+02  0.12700000000E+01 0. -1.
         -4   -1    0    0    0  501 -0.00000000000E+00 -0.00000000000E+00 -0.48441861599E+02  0.48458506531E+02  0.12700000000E+01 0. -1.
         25    2    1    2    0    0  0.00000000000E+00  0.00000000000E+00  0.32150133050E+02  0.12906050714E+03  0.12499193353E+03 0.  0.
    9000005    1    3    3    0    0 -0.96951358708E+01 -0.25231638288E+02 -0.42098097352E+02  0.50038795258E+02  0.10000000000E+01 0.  0.
    9000005    1    3    3    0    0  0.96951358708E+01  0.25231638288E+02  0.74248230402E+02  0.79021711878E+02  0.10000000000E+01 0.  0.
<mgrwt>
<rscale>  0 0.12499193E+03</rscale>
<asrwt>0</asrwt>
<pdfrwt beam="1">  1        4 0.12400818E-01 0.12499193E+03</pdfrwt>
<pdfrwt beam="2">  1       -4 0.74546443E-02 0.12499193E+03</pdfrwt>
<totfact> 0.10366534E+04</totfact>
</mgrwt>
</event>
<event>
 5    1  0.3422688E-002  0.1250035E+03  0.7818608E-02  0.1235064E+00
          4   -1    0    0  501    0  0.00000000000E+00  0.00000000000E+00  0.41648119056E+02  0.41667477976E+02  0.12700000000E+01 0. -1.
         -4   -1    0    0    0  501 -0.00000000000E+00 -0.00000000000E+00 -0.93751574184E+02  0.93760175778E+02  0.12700000000E+01 0. -1.
         25    2    1    2    0    0  0.00000000000E+00  0.00000000000E+00 -0.52103455128E+02  0.13542765375E+03  0.12500351741E+03 0.  0.
    9000005    1    3    3    0    0 -0.54459256221E+02  0.15406410010E+02 -0.54762640794E+02  0.78759855791E+02  0.10000000000E+01 0.  0.
    9000005    1    3    3    0    0  0.54459256221E+02 -0.15406410010E+02  0.26591856658E+01  0.56667797963E+02  0.10000000000E+01 0.  0.
<mgrwt>
<rscale>  0 0.12500352E+03</rscale>
<asrwt>0</asrwt>
<pdfrwt beam="1">  1        4 0.64095538E-02 0.12500352E+03</pdfrwt>
<pdfrwt beam="2">  1       -4 0.14425470E-01 0.12500352E+03</pdfrwt>
<totfact> 0.10228254E+04</totfact>
</mgrwt>
</event>
<event>
 5    1  0.3422688E-002  0.1250008E+03  0.7818608E-02  0.1235068E+00
         -4   -1    0    0    0  501 -0.00000000000E+00  0.00000000000E+00  0.56138592062E+02  0.56152955565E+02  0.12700000000E+01 0.  1.
          4   -1    0    0  501    0  0.00000000000E+00 -0.00000000000E+00 -0.69554061827E+02  0.69565655438E+02  0.12700000000E+01 0.  1.
         25    2    1    2    0    0  0.00000000000E+00  0.00000000000E+00 -0.13415469765E+02  0.12571861100E+03  0.12500077729E+03 0.  0.
    9000005    1    3    3    0    0  0.62306512431E+02 -0.43445238865E+01 -0.87986643317E+01  0.63082429195E+02  0.10000000000E+01 0.  0.
    9000005    1    3    3    0    0 -0.62306512431E+02  0.43445238865E+01 -0.46168054333E+01  0.62636181808E+02  0.10000000000E+01 0.  0.
<mgrwt>
<rscale>  0 0.12500078E+03</rscale>
<asrwt>0</asrwt>
<pdfrwt beam="2">  1        4 0.10702622E-01 0.12500078E+03</pdfrwt>
<pdfrwt beam="1">  1       -4 0.86387032E-02 0.12500078E+03</pdfrwt>
<totfact> 0.10436952E+04</totfact>
</mgrwt>
</event>
<event>
 5    1  0.3422688E-002  0.1249989E+03  0.7818608E-02  0.1235071E+00
         -4   -1    0    0    0  501 -0.00000000000E+00  0.00000000000E+00  0.42337452783E+02  0.42356496647E+02  0.12700000000E+01 0.  1.
          4   -1    0    0  501    0  0.00000000000E+00 -0.00000000000E+00 -0.92218811549E+02  0.92227556096E+02  0.12700000000E+01 0.  1.
         25    2    1    2    0    0  0.00000000000E+00  0.00000000000E+00 -0.49881358766E+02  0.13458405274E+03  0.12499886920E+03 0.  0.
    9000005    1    3    3    0    0  0.95233697450E+01 -0.58265904607E+02 -0.46994776027E+02  0.75466013441E+02  0.10000000000E+01 0.  0.
    9000005    1    3    3    0    0 -0.95233697450E+01  0.58265904607E+02 -0.28865827387E+01  0.59118039301E+02  0.10000000000E+01 0.  0.
<mgrwt>
<rscale>  0 0.12499887E+03</rscale>
<asrwt>0</asrwt>
<pdfrwt beam="2">  1        4 0.14189647E-01 0.12499887E+03</pdfrwt>
<pdfrwt beam="1">  1       -4 0.65155919E-02 0.12499887E+03</pdfrwt>
<totfact> 0.10247107E+04</totfact>
</mgrwt>
</event>
<event>
 5    1  0.3422688E-002  0.1250036E+03  0.7818608E-02  0.1235064E+00
          4   -1    0    0  501    0  0.00000000000E+00  0.00000000000E+00  0.77720674572E+01  0.78751465103E+01  0.12700000000E+01 0.  1.
         -4   -1    0    0    0  501 -0.00000000000E+00 -0.00000000000E+00 -0.49921519157E+03  0.49921680700E+03  0.12700000000E+01 0.  1.
         25    2    1    2    0    0  0.00000000000E+00  0.00000000000E+00 -0.49144312411E+03  0.50709195351E+03  0.12500362027E+03 0.  0.
    9000005    1    3    3    0    0  0.54108998570E+02 -0.26081371868E+02 -0.31568553487E+03  0.32135086527E+03  0.10000000000E+01 0.  0.
    9000005    1    3    3    0    0 -0.54108998570E+02  0.26081371868E+02 -0.17575758924E+03  0.18574108824E+03  0.10000000000E+01 0.  0.
<mgrwt>
<rscale>  0 0.12500362E+03</rscale>
<asrwt>0</asrwt>
<pdfrwt beam="1">  1        4 0.12037565E-02 0.12500362E+03</pdfrwt>
<pdfrwt beam="2">  1       -4 0.76810365E-01 0.12500362E+03</pdfrwt>
<totfact> 0.55313895E+03</totfact>
</mgrwt>
</event>
<event>
 5    1  0.3422688E-002  0.1249997E+03  0.7818608E-02  0.1235070E+00
          4   -1    0    0  501    0  0.00000000000E+00  0.00000000000E+00  0.84830906471E+02  0.84840412497E+02  0.12700000000E+01 0.  1.
         -4   -1    0    0    0  501 -0.00000000000E+00 -0.00000000000E+00 -0.46026428302E+02  0.46043946423E+02  0.12700000000E+01 0.  1.
         25    2    1    2    0    0  0.00000000000E+00  0.00000000000E+00  0.38804478170E+02  0.13088435892E+03  0.12499971154E+03 0.  0.
    9000005    1    3    3    0    0  0.77392430547E+01 -0.50610145099E+02  0.56921361969E+02  0.76565815599E+02  0.10000000000E+01 0.  0.
    9000005    1    3    3    0    0 -0.77392430547E+01  0.50610145099E+02 -0.18116883799E+02  0.54318543321E+02  0.10000000000E+01 0.  0.
<mgrwt>
<rscale>  0 0.12499971E+03</rscale>
<asrwt>0</asrwt>
<pdfrwt beam="1">  1        4 0.13052987E-01 0.12499971E+03</pdfrwt>
<pdfrwt beam="2">  1       -4 0.70830678E-02 0.12499971E+03</pdfrwt>
<totfact> 0.10325636E+04</totfact>
</mgrwt>
</event>
<event>
 5    1  0.3422688E-002  0.1249994E+03  0.7818608E-02  0.1235070E+00
         -4   -1    0    0    0  501 -0.00000000000E+00  0.00000000000E+00  0.67402606572E+03  0.67402726219E+03  0.12700000000E+01 0.  1.
          4   -1    0    0  501    0  0.00000000000E+00 -0.00000000000E+00 -0.57245471500E+01  0.58637309004E+01  0.12700000000E+01 0.  1.
         25    2    1    2    0    0  0.00000000000E+00  0.00000000000E+00  0.66830151857E+03  0.67989099309E+03  0.12499937103E+03 0.  0.
    9000005    1    3    3    0    0 -0.58942742342E+02  0.20759667916E+02  0.33415931816E+03  0.33995390953E+03  0.10000000000E+01 0.  0.
    9000005    1    3    3    0    0  0.58942742342E+02 -0.20759667916E+02  0.33414220041E+03  0.33993708356E+03  0.10000000000E+01 0.  0.
<mgrwt>
<rscale>  0 0.12499937E+03</rscale>
<asrwt>0</asrwt>
<pdfrwt beam="2">  1        4 0.89149845E-03 0.12499937E+03</pdfrwt>
<pdfrwt beam="1">  1       -4 0.10370707E+00 0.12499937E+03</pdfrwt>
<totfact> 0.44170321E+03</totfact>
</mgrwt>
</event>
<event>
 5    1  0.3422688E-002  0.1250024E+03  0.7818608E-02  0.1235065E+00
          4   -1    0    0  501    0  0.00000000000E+00  0.00000000000E+00  0.16373981641E+03  0.16374474152E+03  0.12700000000E+01 0.  1.
         -4   -1    0    0    0  501 -0.00000000000E+00 -0.00000000000E+00 -0.23835188800E+02  0.23868999249E+02  0.12700000000E+01 0.  1.
         25    2    1    2    0    0  0.00000000000E+00  0.00000000000E+00  0.13990462761E+03  0.18761374077E+03  0.12500244358E+03 0.  0.
    9000005    1    3    3    0    0  0.19463897066E+02  0.51231452579E+02  0.24878450796E+02  0.60195035812E+02  0.10000000000E+01 0.  0.
    9000005    1    3    3    0    0 -0.19463897066E+02 -0.51231452579E+02  0.11502617681E+03  0.12741870496E+03  0.10000000000E+01 0.  0.
<mgrwt>
<rscale>  0 0.12500244E+03</rscale>
<asrwt>0</asrwt>
<pdfrwt beam="1">  1        4 0.25193721E-01 0.12500244E+03</pdfrwt>
<pdfrwt beam="2">  1       -4 0.36699318E-02 0.12500244E+03</pdfrwt>
<totfact> 0.92259129E+03</totfact>
</mgrwt>
</event>
<event>
 5    1  0.3422688E-002  0.1249990E+03  0.7818608E-02  0.1235071E+00
         -4   -1    0    0    0  501 -0.00000000000E+00  0.00000000000E+00  0.16229037492E+02  0.16278653443E+02  0.12700000000E+01 0.  1.
          4   -1    0    0  501    0  0.00000000000E+00 -0.00000000000E+00 -0.24027252211E+03  0.24027587848E+03  0.12700000000E+01 0.  1.
         25    2    1    2    0    0  0.00000000000E+00  0.00000000000E+00 -0.22404348462E+03  0.25655453193E+03  0.12499897941E+03 0.  0.
    9000005    1    3    3    0    0  0.44553722006E+02  0.19735057109E+02 -0.19232170975E+03  0.19840147849E+03  0.10000000000E+01 0.  0.
    9000005    1    3    3    0    0 -0.44553722006E+02 -0.19735057109E+02 -0.31721774863E+02  0.58153053438E+02  0.10000000000E+01 0.  0.
<mgrwt>
<rscale>  0 0.12499898E+03</rscale>
<asrwt>0</asrwt>
<pdfrwt beam="2">  1        4 0.36969076E-01 0.12499898E+03</pdfrwt>
<pdfrwt beam="1">  1       -4 0.25008500E-02 0.12499898E+03</pdfrwt>
<totfact> 0.81393878E+03</totfact>
</mgrwt>
</event>
<event>
 5    1  0.3422688E-002  0.1250190E+03  0.7818608E-02  0.1235040E+00
          4   -1    0    0  501    0  0.00000000000E+00  0.00000000000E+00  0.94282999339E+01  0.95134504594E+01  0.12700000000E+01 0. -1.
         -4   -1    0    0    0  501 -0.00000000000E+00 -0.00000000000E+00 -0.41248768038E+03  0.41248963546E+03  0.12700000000E+01 0. -1.
         25    2    1    2    0    0  0.00000000000E+00  0.00000000000E+00 -0.40305938045E+03  0.42200308592E+03  0.12501896002E+03 0.  0.
    9000005    1    3    3    0    0 -0.12655679371E+02  0.59650171429E+02 -0.15523149496E+03  0.16678167226E+03  0.10000000000E+01 0.  0.
    9000005    1    3    3    0    0  0.12655679371E+02 -0.59650171429E+02 -0.24782788548E+03  0.25522141367E+03  0.10000000000E+01 0.  0.
<mgrwt>
<rscale>  0 0.12501896E+03</rscale>
<asrwt>0</asrwt>
<pdfrwt beam="1">  1        4 0.14572084E-02 0.12501896E+03</pdfrwt>
<pdfrwt beam="2">  1       -4 0.63466330E-01 0.12501896E+03</pdfrwt>
<totfact> 0.62441503E+03</totfact>
</mgrwt>
</event>
<event>
 5    1  0.3422688E-002  0.1250003E+03  0.7818608E-02  0.1235069E+00
         -4   -1    0    0    0  501 -0.00000000000E+00  0.00000000000E+00  0.26737312738E+03  0.26737614356E+03  0.12700000000E+01 0.  1.
          4   -1    0    0  501    0  0.00000000000E+00 -0.00000000000E+00 -0.14579108686E+02  0.14634319597E+02  0.12700000000E+01 0.  1.
         25    2    1    2    0    0  0.00000000000E+00  0.00000000000E+00  0.25279401869E+03  0.28201046315E+03  0.12500034177E+03 0.  0.
    9000005    1    3    3    0    0  0.57423818196E+02  0.91443971324E+01  0.17804869448E+03  0.18730577274E+03  0.10000000000E+01 0.  0.
    9000005    1    3    3    0    0 -0.57423818196E+02 -0.91443971324E+01  0.74745324207E+02  0.94704690412E+02  0.10000000000E+01 0.  0.
<mgrwt>
<rscale>  0 0.12500034E+03</rscale>
<asrwt>0</asrwt>
<pdfrwt beam="2">  1        4 0.22474190E-02 0.12500034E+03</pdfrwt>
<pdfrwt beam="1">  1       -4 0.41138802E-01 0.12500034E+03</pdfrwt>
<totfact> 0.77911696E+03</totfact>
</mgrwt>
</event>
<event>
 5    1  0.3422688E-002  0.1249980E+03  0.7818608E-02  0.1235072E+00
         -4   -1    0    0    0  501 -0.00000000000E+00  0.00000000000E+00  0.23927608631E+03  0.23927945666E+03  0.12700000000E+01 0. -1.
          4   -1    0    0  501    0  0.00000000000E+00 -0.00000000000E+00 -0.16296582593E+02  0.16345993522E+02  0.12700000000E+01 0. -1.
         25    2    1    2    0    0  0.00000000000E+00  0.00000000000E+00  0.22297950372E+03  0.25562545018E+03  0.12499804680E+03 0.  0.
    9000005    1    3    3    0    0 -0.68131133806E+01  0.15639088792E+02  0.23443242367E+03  0.23505437856E+03  0.10000000000E+01 0.  0.
    9000005    1    3    3    0    0  0.68131133806E+01 -0.15639088792E+02 -0.11452919954E+02  0.20571071622E+02  0.10000000000E+01 0.  0.
<mgrwt>
<rscale>  0 0.12499805E+03</rscale>
<asrwt>0</asrwt>
<pdfrwt beam="2">  1        4 0.25112268E-02 0.12499805E+03</pdfrwt>
<pdfrwt beam="1">  1       -4 0.36815763E-01 0.12499805E+03</pdfrwt>
<totfact> 0.81527460E+03</totfact>
</mgrwt>
</event>
<event>
 5    1  0.3422688E-002  0.1250015E+03  0.7818608E-02  0.1235067E+00
         -4   -1    0    0    0  501 -0.00000000000E+00  0.00000000000E+00  0.47313360056E+02  0.47330401855E+02  0.12700000000E+01 0.  1.
          4   -1    0    0  501    0  0.00000000000E+00 -0.00000000000E+00 -0.82526499213E+02  0.82536270647E+02  0.12700000000E+01 0.  1.
         25    2    1    2    0    0  0.00000000000E+00  0.00000000000E+00 -0.35213139158E+02  0.12986667250E+03  0.12500154982E+03 0.  0.
    9000005    1    3    3    0    0  0.53651877651E+02  0.18953969618E+02  0.92364084987E+01  0.57654905964E+02  0.10000000000E+01 0.  0.
    9000005    1    3    3    0    0 -0.53651877651E+02 -0.18953969618E+02 -0.44449547656E+02  0.72211766538E+02  0.10000000000E+01 0.  0.
<mgrwt>
<rscale>  0 0.12500155E+03</rscale>
<asrwt>0</asrwt>
<pdfrwt beam="2">  1        4 0.12698447E-01 0.12500155E+03</pdfrwt>
<pdfrwt beam="1">  1       -4 0.72810410E-02 0.12500155E+03</pdfrwt>
<totfact> 0.10346998E+04</totfact>
</mgrwt>
</event>
<event>
 5    1  0.3422688E-002  0.1249974E+03  0.7818608E-02  0.1235073E+00
          4   -1    0    0  501    0  0.00000000000E+00  0.00000000000E+00  0.11669883105E+04  0.11669890016E+04  0.12700000000E+01 0. -1.
         -4   -1    0    0    0  501 -0.00000000000E+00 -0.00000000000E+00 -0.32259656024E+01  0.34669516968E+01  0.12700000000E+01 0. -1.
         25    2    1    2    0    0  0.00000000000E+00  0.00000000000E+00  0.11637623449E+04  0.11704559533E+04  0.12499737235E+03 0.  0.
    9000005    1    3    3    0    0 -0.17262977753E+02 -0.23172582906E+02  0.11007181627E+04  0.11010978398E+04  0.10000000000E+01 0.  0.
    9000005    1    3    3    0    0  0.17262977753E+02  0.23172582906E+02  0.63044182195E+02  0.69358113498E+02  0.10000000000E+01 0.  0.
<mgrwt>
<rscale>  0 0.12499737E+03</rscale>
<asrwt>0</asrwt>
<pdfrwt beam="1">  1        4 0.17955496E+00 0.12499737E+03</pdfrwt>
<pdfrwt beam="2">  1       -4 0.51489378E-03 0.12499737E+03</pdfrwt>
<totfact> 0.25500935E+03</totfact>
</mgrwt>
</event>
<event>
 5    1  0.3422688E-002  0.1249958E+03  0.7818608E-02  0.1235076E+00
         -4   -1    0    0    0  501 -0.00000000000E+00  0.00000000000E+00  0.14558882102E+02  0.14614169428E+02  0.12700000000E+01 0. -1.
          4   -1    0    0  501    0  0.00000000000E+00 -0.00000000000E+00 -0.26772371820E+03  0.26772673043E+03  0.12700000000E+01 0. -1.
         25    2    1    2    0    0  0.00000000000E+00  0.00000000000E+00 -0.25316483610E+03  0.28234089986E+03  0.12499579792E+03 0.  0.
    9000005    1    3    3    0    0  0.33894721895E+02  0.49980816886E+02 -0.90296930767E+02  0.10863457062E+03  0.10000000000E+01 0.  0.
    9000005    1    3    3    0    0 -0.33894721895E+02 -0.49980816886E+02 -0.16286790533E+03  0.17370632923E+03  0.10000000000E+01 0.  0.
<mgrwt>
<rscale>  0 0.12499580E+03</rscale>
<asrwt>0</asrwt>
<pdfrwt beam="2">  1        4 0.41192745E-01 0.12499580E+03</pdfrwt>
<pdfrwt beam="1">  1       -4 0.22443128E-02 0.12499580E+03</pdfrwt>
<totfact> 0.77876014E+03</totfact>
</mgrwt>
</event>
<event>
 5    1  0.3422688E-002  0.1250001E+03  0.7818608E-02  0.1235069E+00
          4   -1    0    0  501    0  0.00000000000E+00  0.00000000000E+00  0.12069216500E+02  0.12135851306E+02  0.12700000000E+01 0. -1.
         -4   -1    0    0    0  501 -0.00000000000E+00 -0.00000000000E+00 -0.32269572982E+03  0.32269822891E+03  0.12700000000E+01 0. -1.
         25    2    1    2    0    0  0.00000000000E+00  0.00000000000E+00 -0.31062651332E+03  0.33483408022E+03  0.12500012200E+03 0.  0.
    9000005    1    3    3    0    0  0.95186071608E+01 -0.53031480789E+02 -0.70508247805E+02  0.88743196051E+02  0.10000000000E+01 0.  0.
    9000005    1    3    3    0    0 -0.95186071608E+01  0.53031480789E+02 -0.24011826551E+03  0.24609088416E+03  0.10000000000E+01 0.  0.
<mgrwt>
<rscale>  0 0.12500012E+03</rscale>
<asrwt>0</asrwt>
<pdfrwt beam="1">  1        4 0.18621208E-02 0.12500012E+03</pdfrwt>
<pdfrwt beam="2">  1       -4 0.49650808E-01 0.12500012E+03</pdfrwt>
<totfact> 0.71425673E+03</totfact>
</mgrwt>
</event>
<event>
 5    1  0.3422688E-002  0.1249919E+03  0.7818608E-02  0.1235082E+00
         -4   -1    0    0    0  501 -0.00000000000E+00  0.00000000000E+00  0.30416245250E+02  0.30442747496E+02  0.12700000000E+01 0.  1.
          4   -1    0    0  501    0  0.00000000000E+00 -0.00000000000E+00 -0.12832419744E+03  0.12833048176E+03  0.12700000000E+01 0.  1.
         25    2    1    2    0    0  0.00000000000E+00  0.00000000000E+00 -0.97907952189E+02  0.15877322925E+03  0.12499188464E+03 0.  0.
    9000005    1    3    3    0    0  0.35485563957E+01  0.23922041360E+02  0.24236922472E+02  0.34253244025E+02  0.10000000000E+01 0.  0.
    9000005    1    3    3    0    0 -0.35485563957E+01 -0.23922041360E+02 -0.12214487466E+03  0.12451998523E+03  0.10000000000E+01 0.  0.
<mgrwt>
<rscale>  0 0.12499188E+03</rscale>
<asrwt>0</asrwt>
<pdfrwt beam="2">  1        4 0.19744706E-01 0.12499188E+03</pdfrwt>
<pdfrwt beam="1">  1       -4 0.46819445E-02 0.12499188E+03</pdfrwt>
<totfact> 0.97597624E+03</totfact>
</mgrwt>
</event>
<event>
 5    1  0.3422688E-002  0.1249997E+03  0.7818608E-02  0.1235070E+00
         -4   -1    0    0    0  501 -0.00000000000E+00  0.00000000000E+00  0.11082445326E+02  0.11154976217E+02  0.12700000000E+01 0.  1.
          4   -1    0    0  501    0  0.00000000000E+00 -0.00000000000E+00 -0.35124696099E+03  0.35124925695E+03  0.12700000000E+01 0.  1.
         25    2    1    2    0    0  0.00000000000E+00  0.00000000000E+00 -0.34016451567E+03  0.36240423316E+03  0.12499972199E+03 0.  0.
    9000005    1    3    3    0    0 -0.13312305502E+02 -0.23953875178E+01 -0.34696626762E+03  0.34723125756E+03  0.10000000000E+01 0.  0.
    9000005    1    3    3    0    0  0.13312305502E+02  0.23953875178E+01  0.68017519533E+01  0.15172975607E+02  0.10000000000E+01 0.  0.
<mgrwt>
<rscale>  0 0.12499972E+03</rscale>
<asrwt>0</asrwt>
<pdfrwt beam="2">  1        4 0.54043741E-01 0.12499972E+03</pdfrwt>
<pdfrwt beam="1">  1       -4 0.17107478E-02 0.12499972E+03</pdfrwt>
<totfact> 0.68381579E+03</totfact>
</mgrwt>
</event>
<event>
 5    1  0.3422688E-002  0.1250040E+03  0.7818608E-02  0.1235063E+00
          4   -1    0    0  501    0  0.00000000000E+00  0.00000000000E+00  0.67000436879E+01  0.68193464071E+01  0.12700000000E+01 0. -1.
         -4   -1    0    0    0  501 -0.00000000000E+00 -0.00000000000E+00 -0.57779036568E+03  0.57779176142E+03  0.12700000000E+01 0. -1.
         25    2    1    2    0    0  0.00000000000E+00  0.00000000000E+00 -0.57109032199E+03  0.58461110783E+03  0.12500396606E+03 0.  0.
    9000005    1    3    3    0    0  0.17785229459E+02  0.57142808001E+02 -0.20137903459E+03  0.21008600730E+03  0.10000000000E+01 0.  0.
    9000005    1    3    3    0    0 -0.17785229459E+02 -0.57142808001E+02 -0.36971128740E+03  0.37452510053E+03  0.10000000000E+01 0.  0.
<mgrwt>
<rscale>  0 0.12500397E+03</rscale>
<asrwt>0</asrwt>
<pdfrwt beam="1">  1        4 0.10400609E-02 0.12500397E+03</pdfrwt>
<pdfrwt beam="2">  1       -4 0.88900071E-01 0.12500397E+03</pdfrwt>
<totfact> 0.49849315E+03</totfact>
</mgrwt>
</event>
<event>
 5    1  0.3422688E-002  0.1249959E+03  0.7818608E-02  0.1235076E+00
         -4   -1    0    0    0  501 -0.00000000000E+00  0.00000000000E+00  0.61380025857E+02  0.61393163090E+02  0.12700000000E+01 0. -1.
          4   -1    0    0  501    0  0.00000000000E+00 -0.00000000000E+00 -0.63609911370E+02  0.63622588163E+02  0.12700000000E+01 0. -1.
         25    2    1    2    0    0  0.00000000000E+00  0.00000000000E+00 -0.22298855126E+01  0.12501575125E+03  0.12499586262E+03 0.  0.
    9000005    1    3    3    0    0  0.57408359330E+02  0.22031494159E+02 -0.12247075930E+02  0.62706437666E+02  0.10000000000E+01 0.  0.
    9000005    1    3    3    0    0 -0.57408359330E+02 -0.22031494159E+02  0.10017190417E+02  0.62309313587E+02  0.10000000000E+01 0.  0.
<mgrwt>
<rscale>  0 0.12499586E+03</rscale>
<asrwt>0</asrwt>
<pdfrwt beam="2">  1        4 0.97881260E-02 0.12499586E+03</pdfrwt>
<pdfrwt beam="1">  1       -4 0.94450666E-02 0.12499586E+03</pdfrwt>
<totfact> 0.10453498E+04</totfact>
</mgrwt>
</event>
<event>
 5    1  0.3422688E-002  0.1250014E+03  0.7818608E-02  0.1235067E+00
          4   -1    0    0  501    0  0.00000000000E+00  0.00000000000E+00  0.14913461201E+02  0.14967438826E+02  0.12700000000E+01 0. -1.
         -4   -1    0    0    0  501 -0.00000000000E+00 -0.00000000000E+00 -0.26140506062E+03  0.26140814566E+03  0.12700000000E+01 0. -1.
         25    2    1    2    0    0  0.00000000000E+00  0.00000000000E+00 -0.24649159942E+03  0.27637558448E+03  0.12500142046E+03 0.  0.
    9000005    1    3    3    0    0 -0.28781996192E+02 -0.43894334830E+02 -0.48260571035E+02  0.71310578820E+02  0.10000000000E+01 0.  0.
    9000005    1    3    3    0    0  0.28781996192E+02  0.43894334830E+02 -0.19823102838E+03  0.20506500566E+03  0.10000000000E+01 0.  0.
<mgrwt>
<rscale>  0 0.12500142E+03</rscale>
<asrwt>0</asrwt>
<pdfrwt beam="1">  1        4 0.22987683E-02 0.12500142E+03</pdfrwt>
<pdfrwt beam="2">  1       -4 0.40220549E-01 0.12500142E+03</pdfrwt>
<totfact> 0.78658661E+03</totfact>
</mgrwt>
</event>
<event>
 5    1  0.3422688E-002  0.1249994E+03  0.7818608E-02  0.1235070E+00
         -4   -1    0    0    0  501 -0.00000000000E+00  0.00000000000E+00  0.15300001753E+03  0.15300528835E+03  0.12700000000E+01 0. -1.
          4   -1    0    0  501    0  0.00000000000E+00 -0.00000000000E+00 -0.25509299202E+02  0.25540893598E+02  0.12700000000E+01 0. -1.
         25    2    1    2    0    0  0.00000000000E+00  0.00000000000E+00  0.12749071833E+03  0.17854618195E+03  0.12499942332E+03 0.  0.
    9000005    1    3    3    0    0  0.31883924914E+02  0.40231323700E+02  0.11464988156E+03  0.12562141304E+03  0.10000000000E+01 0.  0.
    9000005    1    3    3    0    0 -0.31883924914E+02 -0.40231323700E+02  0.12840836770E+02  0.52924768904E+02  0.10000000000E+01 0.  0.
<mgrwt>
<rscale>  0 0.12499942E+03</rscale>
<asrwt>0</asrwt>
<pdfrwt beam="2">  1        4 0.39273433E-02 0.12499942E+03</pdfrwt>
<pdfrwt beam="1">  1       -4 0.23541300E-01 0.12499942E+03</pdfrwt>
<totfact> 0.93880565E+03</totfact>
</mgrwt>
</event>
<event>
 5    1  0.3422688E-002  0.1250027E+03  0.7818608E-02  0.1235065E+00
          4   -1    0    0  501    0  0.00000000000E+00  0.00000000000E+00  0.20447384929E+03  0.20447779328E+03  0.12700000000E+01 0. -1.
         -4   -1    0    0    0  501 -0.00000000000E+00 -0.00000000000E+00 -0.19079482911E+02  0.19121704112E+02  0.12700000000E+01 0. -1.
         25    2    1    2    0    0  0.00000000000E+00  0.00000000000E+00  0.18539436638E+03  0.22359949739E+03  0.12500265656E+03 0.  0.
    9000005    1    3    3    0    0  0.15208753384E+02 -0.57272837567E+02  0.12819994793E+03  0.14123636483E+03  0.10000000000E+01 0.  0.
    9000005    1    3    3    0    0 -0.15208753384E+02  0.57272837567E+02  0.57194418448E+02  0.82363132554E+02  0.10000000000E+01 0.  0.
<mgrwt>
<rscale>  0 0.12500266E+03</rscale>
<asrwt>0</asrwt>
<pdfrwt beam="1">  1        4 0.31461067E-01 0.12500266E+03</pdfrwt>
<pdfrwt beam="2">  1       -4 0.29388561E-02 0.12500266E+03</pdfrwt>
<totfact> 0.86296841E+03</totfact>
</mgrwt>
</event>
<event>
 5    1  0.3422688E-002  0.1249896E+03  0.7818608E-02  0.1235086E+00
          4   -1    0    0  501    0  0.00000000000E+00  0.00000000000E+00  0.88419160165E+02  0.88428280456E+02  0.12700000000E+01 0. -1.
         -4   -1    0    0    0  501 -0.00000000000E+00 -0.00000000000E+00 -0.44150907348E+02  0.44169169334E+02  0.12700000000E+01 0. -1.
         25    2    1    2    0    0  0.00000000000E+00  0.00000000000E+00  0.44268252817E+02  0.13259744979E+03  0.12498962150E+03 0.  0.
    9000005    1    3    3    0    0 -0.58507943655E+02  0.14981230328E+02  0.51276320253E+01  0.60621030534E+02  0.10000000000E+01 0.  0.
    9000005    1    3    3    0    0  0.58507943655E+02 -0.14981230328E+02  0.39140620792E+02  0.71976419255E+02  0.10000000000E+01 0.  0.
<mgrwt>
<rscale>  0 0.12498962E+03</rscale>
<asrwt>0</asrwt>
<pdfrwt beam="1">  1        4 0.13605054E-01 0.12498962E+03</pdfrwt>
<pdfrwt beam="2">  1       -4 0.67945537E-02 0.12498962E+03</pdfrwt>
<totfact> 0.10291372E+04</totfact>
</mgrwt>
</event>
<event>
 5    1  0.3422688E-002  0.1250065E+03  0.7818608E-02  0.1235059E+00
         -4   -1    0    0    0  501 -0.00000000000E+00  0.00000000000E+00  0.31281207046E+03  0.31281464851E+03  0.12700000000E+01 0.  1.
          4   -1    0    0  501    0  0.00000000000E+00 -0.00000000000E+00 -0.12453902813E+02  0.12518490136E+02  0.12700000000E+01 0.  1.
         25    2    1    2    0    0  0.00000000000E+00  0.00000000000E+00  0.30035816764E+03  0.32533313865E+03  0.12500648876E+03 0.  0.
    9000005    1    3    3    0    0 -0.49551679227E+01 -0.59903905883E+02  0.10565954418E+03  0.12156467787E+03  0.10000000000E+01 0.  0.
    9000005    1    3    3    0    0  0.49551679227E+01  0.59903905883E+02  0.19469862346E+03  0.20376846078E+03  0.10000000000E+01 0.  0.
<mgrwt>
<rscale>  0 0.12500649E+03</rscale>
<asrwt>0</asrwt>
<pdfrwt beam="2">  1        4 0.19211518E-02 0.12500649E+03</pdfrwt>
<pdfrwt beam="1">  1       -4 0.48130096E-01 0.12500649E+03</pdfrwt>
<totfact> 0.72515851E+03</totfact>
</mgrwt>
</event>
<event>
 5    1  0.3422688E-002  0.1250004E+03  0.7818608E-02  0.1235069E+00
         -4   -1    0    0    0  501 -0.00000000000E+00  0.00000000000E+00  0.35403932441E+02  0.35426703661E+02  0.12700000000E+01 0.  1.
          4   -1    0    0  501    0  0.00000000000E+00 -0.00000000000E+00 -0.11027267661E+03  0.11027998960E+03  0.12700000000E+01 0.  1.
         25    2    1    2    0    0  0.00000000000E+00  0.00000000000E+00 -0.74868744166E+02  0.14570669326E+03  0.12500044643E+03 0.  0.
    9000005    1    3    3    0    0 -0.61719005974E+02  0.67839612112E+01 -0.29190331845E+02  0.68617295934E+02  0.10000000000E+01 0.  0.
    9000005    1    3    3    0    0  0.61719005974E+02 -0.67839612112E+01 -0.45678412321E+02  0.77089397327E+02  0.10000000000E+01 0.  0.
<mgrwt>
<rscale>  0 0.12500045E+03</rscale>
<asrwt>0</asrwt>
<pdfrwt beam="2">  1        4 0.16967341E-01 0.12500045E+03</pdfrwt>
<pdfrwt beam="1">  1       -4 0.54490731E-02 0.12500045E+03</pdfrwt>
<totfact> 0.10016549E+04</totfact>
</mgrwt>
</event>
<event>
 5    1  0.3422688E-002  0.1249998E+03  0.7818608E-02  0.1235070E+00
          4   -1    0    0  501    0  0.00000000000E+00  0.00000000000E+00  0.38422208889E+03  0.38422418780E+03  0.12700000000E+01 0.  1.
         -4   -1    0    0    0  501 -0.00000000000E+00 -0.00000000000E+00 -0.10124814609E+02  0.10204154588E+02  0.12700000000E+01 0.  1.
         25    2    1    2    0    0  0.00000000000E+00  0.00000000000E+00  0.37409727428E+03  0.39442834239E+03  0.12499978662E+03 0.  0.
    9000005    1    3    3    0    0  0.28391485986E+02  0.54605192899E+02  0.22124296708E+03  0.22964593193E+03  0.10000000000E+01 0.  0.
    9000005    1    3    3    0    0 -0.28391485986E+02 -0.54605192899E+02  0.15285430720E+03  0.16478241046E+03  0.10000000000E+01 0.  0.
<mgrwt>
<rscale>  0 0.12499979E+03</rscale>
<asrwt>0</asrwt>
<pdfrwt beam="1">  1        4 0.59117345E-01 0.12499979E+03</pdfrwt>
<pdfrwt beam="2">  1       -4 0.15639286E-02 0.12499979E+03</pdfrwt>
<totfact> 0.65098625E+03</totfact>
</mgrwt>
</event>
<event>
 5    1  0.3422688E-002  0.1249988E+03  0.7818608E-02  0.1235071E+00
         -4   -1    0    0    0  501 -0.00000000000E+00  0.00000000000E+00  0.19541513267E+02  0.19582738336E+02  0.12700000000E+01 0.  1.
          4   -1    0    0  501    0  0.00000000000E+00 -0.00000000000E+00 -0.19963709699E+03  0.19964113652E+03  0.12700000000E+01 0.  1.
         25    2    1    2    0    0  0.00000000000E+00  0.00000000000E+00 -0.18009558372E+03  0.21922387486E+03  0.12499875213E+03 0.  0.
    9000005    1    3    3    0    0 -0.74749890410E+01 -0.34871381461E+02 -0.18004539951E+03  0.18354627370E+03  0.10000000000E+01 0.  0.
    9000005    1    3    3    0    0  0.74749890410E+01  0.34871381461E+02 -0.50184213479E-01  0.35677601161E+02  0.10000000000E+01 0.  0.
<mgrwt>
<rscale>  0 0.12499875E+03</rscale>
<asrwt>0</asrwt>
<pdfrwt beam="2">  1        4 0.30716880E-01 0.12499875E+03</pdfrwt>
<pdfrwt beam="1">  1       -4 0.30098687E-02 0.12499875E+03</pdfrwt>
<totfact> 0.86993736E+03</totfact>
</mgrwt>
</event>
<event>
 5    1  0.3422688E-002  0.1250001E+03  0.7818608E-02  0.1235069E+00
         -4   -1    0    0    0  501 -0.00000000000E+00  0.00000000000E+00  0.11241399847E+03  0.11242117217E+03  0.12700000000E+01 0. -1.
          4   -1    0    0  501    0  0.00000000000E+00 -0.00000000000E+00 -0.34728973742E+02  0.34752187228E+02  0.12700000000E+01 0. -1.
         25    2    1    2    0    0  0.00000000000E+00  0.00000000000E+00  0.77685024725E+02  0.14717335940E+03  0.12500013860E+03 0.  0.
    9000005    1    3    3    0    0 -0.12333652744E+02 -0.49531277865E+02  0.81290359579E+02  0.95992650955E+02  0.10000000000E+01 0.  0.
    9000005    1    3    3    0    0  0.12333652744E+02  0.49531277865E+02 -0.36053348538E+01  0.51180708440E+02  0.10000000000E+01 0.  0.
<mgrwt>
<rscale>  0 0.12500014E+03</rscale>
<asrwt>0</asrwt>
<pdfrwt beam="2">  1        4 0.53452565E-02 0.12500014E+03</pdfrwt>
<pdfrwt beam="1">  1       -4 0.17296799E-01 0.12500014E+03</pdfrwt>
<totfact> 0.99869848E+03</totfact>
</mgrwt>
</event>
<event>
 5    1  0.3422688E-002  0.1250009E+03  0.7818608E-02  0.1235068E+00
         -4   -1    0    0    0  501 -0.00000000000E+00  0.00000000000E+00  0.12860006008E+03  0.12860633092E+03  0.12700000000E+01 0.  1.
          4   -1    0    0  501    0  0.00000000000E+00 -0.00000000000E+00 -0.30355326409E+02  0.30381881795E+02  0.12700000000E+01 0.  1.
         25    2    1    2    0    0  0.00000000000E+00  0.00000000000E+00  0.98244733668E+02  0.15898821271E+03  0.12500089635E+03 0.  0.
    9000005    1    3    3    0    0 -0.50973259576E+02  0.30469270269E+02  0.73872323934E+02  0.94788025963E+02  0.10000000000E+01 0.  0.
    9000005    1    3    3    0    0  0.50973259576E+02 -0.30469270269E+02  0.24372409734E+02  0.64200186750E+02  0.10000000000E+01 0.  0.
<mgrwt>
<rscale>  0 0.12500090E+03</rscale>
<asrwt>0</asrwt>
<pdfrwt beam="2">  1        4 0.46725754E-02 0.12500090E+03</pdfrwt>
<pdfrwt beam="1">  1       -4 0.19787149E-01 0.12500090E+03</pdfrwt>
<totfact> 0.97536239E+03</totfact>
</mgrwt>
</event>
<event>
 5    1  0.3422688E-002  0.1250020E+03  0.7818608E-02  0.1235066E+00
         -4   -1    0    0    0  501 -0.00000000000E+00  0.00000000000E+00  0.51823863481E+02  0.51839422509E+02  0.12700000000E+01 0.  1.
          4   -1    0    0  501    0  0.00000000000E+00 -0.00000000000E+00 -0.75345738956E+02  0.75356441522E+02  0.12700000000E+01 0.  1.
         25    2    1    2    0    0  0.00000000000E+00  0.00000000000E+00 -0.23521875475E+02  0.12719586403E+03  0.12500203679E+03 0.  0.
    9000005    1    3    3    0    0  0.33538589005E+02  0.52641497646E+02 -0.14882856673E+02  0.64175257301E+02  0.10000000000E+01 0.  0.
    9000005    1    3    3    0    0 -0.33538589005E+02 -0.52641497646E+02 -0.86390188027E+01  0.63020606731E+02  0.10000000000E+01 0.  0.
<mgrwt>
<rscale>  0 0.12500204E+03</rscale>
<asrwt>0</asrwt>
<pdfrwt beam="2">  1        4 0.11593672E-01 0.12500204E+03</pdfrwt>
<pdfrwt beam="1">  1       -4 0.79749222E-02 0.12500204E+03</pdfrwt>
<totfact> 0.10404415E+04</totfact>
</mgrwt>
</event>
<event>
 5    1  0.3422688E-002  0.1249986E+03  0.7818608E-02  0.1235071E+00
         -4   -1    0    0    0  501 -0.00000000000E+00  0.00000000000E+00  0.33185521888E+02  0.33209814256E+02  0.12700000000E+01 0.  1.
          4   -1    0    0  501    0  0.00000000000E+00 -0.00000000000E+00 -0.11763603561E+03  0.11764289087E+03  0.12700000000E+01 0.  1.
         25    2    1    2    0    0  0.00000000000E+00  0.00000000000E+00 -0.84450513718E+02  0.15085270513E+03  0.12499859750E+03 0.  0.
    9000005    1    3    3    0    0 -0.34517852924E+02 -0.42655545359E+02 -0.78313152742E+02  0.95629114880E+02  0.10000000000E+01 0.  0.
    9000005    1    3    3    0    0  0.34517852924E+02  0.42655545359E+02 -0.61373609760E+01  0.55223590250E+02  0.10000000000E+01 0.  0.
<mgrwt>
<rscale>  0 0.12499860E+03</rscale>
<asrwt>0</asrwt>
<pdfrwt beam="2">  1        4 0.18100247E-01 0.12499860E+03</pdfrwt>
<pdfrwt beam="1">  1       -4 0.51078610E-02 0.12499860E+03</pdfrwt>
<totfact> 0.99137124E+03</totfact>
</mgrwt>
</event>
<event>
 5    1  0.3422688E-002  0.1249988E+03  0.7818608E-02  0.1235071E+00
          4   -1    0    0  501    0  0.00000000000E+00  0.00000000000E+00  0.11178297755E+02  0.11250210696E+02  0.12700000000E+01 0.  1.
         -4   -1    0    0    0  501 -0.00000000000E+00 -0.00000000000E+00 -0.34824945049E+03  0.34825176621E+03  0.12700000000E+01 0.  1.
         25    2    1    2    0    0  0.00000000000E+00  0.00000000000E+00 -0.33707115274E+03  0.35950197690E+03  0.12499883756E+03 0.  0.
    9000005    1    3    3    0    0 -0.51970995532E+02  0.10255410219E+02 -0.73190556370E+02  0.90354940967E+02  0.10000000000E+01 0.  0.
    9000005    1    3    3    0    0  0.51970995532E+02 -0.10255410219E+02 -0.26388059637E+03  0.26914703594E+03  0.10000000000E+01 0.  0.
<mgrwt>
<rscale>  0 0.12499884E+03</rscale>
<asrwt>0</asrwt>
<pdfrwt beam="1">  1        4 0.17254483E-02 0.12499884E+03</pdfrwt>
<pdfrwt beam="2">  1       -4 0.53582540E-01 0.12499884E+03</pdfrwt>
<totfact> 0.68693488E+03</totfact>
</mgrwt>
</event>
<event>
 5    1  0.3422688E-002  0.1249963E+03  0.7818608E-02  0.1235075E+00
          4   -1    0    0  501    0  0.00000000000E+00  0.00000000000E+00  0.80277961381E+02  0.80288006473E+02  0.12700000000E+01 0. -1.
         -4   -1    0    0    0  501 -0.00000000000E+00 -0.00000000000E+00 -0.48634784639E+02  0.48651363567E+02  0.12700000000E+01 0. -1.
         25    2    1    2    0    0  0.00000000000E+00  0.00000000000E+00  0.31643176742E+02  0.12893937004E+03  0.12499628199E+03 0.  0.
    9000005    1    3    3    0    0 -0.57639256939E+02  0.73750568679E+01 -0.78892062525E+01  0.58650788397E+02  0.10000000000E+01 0.  0.
    9000005    1    3    3    0    0  0.57639256939E+02 -0.73750568679E+01  0.39532382994E+02  0.70288581644E+02  0.10000000000E+01 0.  0.
<mgrwt>
<rscale>  0 0.12499628E+03</rscale>
<asrwt>0</asrwt>
<pdfrwt beam="1">  1        4 0.12352504E-01 0.12499628E+03</pdfrwt>
<pdfrwt beam="2">  1       -4 0.74843226E-02 0.12499628E+03</pdfrwt>
<totfact> 0.10368120E+04</totfact>
</mgrwt>
</event>
<event>
 5    1  0.3422688E-002  0.1249900E+03  0.7818608E-02  0.1235085E+00
          4   -1    0    0  501    0  0.00000000000E+00  0.00000000000E+00  0.13313199086E+03  0.13313804824E+03  0.12700000000E+01 0. -1.
         -4   -1    0    0    0  501 -0.00000000000E+00 -0.00000000000E+00 -0.29316032690E+02  0.29343528633E+02  0.12700000000E+01 0. -1.
         25    2    1    2    0    0  0.00000000000E+00  0.00000000000E+00  0.10381595817E+03  0.16248157687E+03  0.12499003822E+03 0.  0.
    9000005    1    3    3    0    0 -0.48779100805E+02 -0.22322593123E+02  0.10249938042E+02  0.54623804966E+02  0.10000000000E+01 0.  0.
    9000005    1    3    3    0    0  0.48779100805E+02  0.22322593123E+02  0.93566020124E+02  0.10785777191E+03  0.10000000000E+01 0.  0.
<mgrwt>
<rscale>  0 0.12499004E+03</rscale>
<asrwt>0</asrwt>
<pdfrwt beam="1">  1        4 0.20484426E-01 0.12499004E+03</pdfrwt>
<pdfrwt beam="2">  1       -4 0.45127399E-02 0.12499004E+03</pdfrwt>
<totfact> 0.96888166E+03</totfact>
</mgrwt>
</event>
<event>
 5    1  0.3422688E-002  0.1250071E+03  0.7818608E-02  0.1235058E+00
         -4   -1    0    0    0  501 -0.00000000000E+00  0.00000000000E+00  0.33831557752E+02  0.33855386571E+02  0.12700000000E+01 0.  1.
          4   -1    0    0  501    0  0.00000000000E+00 -0.00000000000E+00 -0.11540682432E+03  0.11541381200E+03  0.12700000000E+01 0.  1.
         25    2    1    2    0    0  0.00000000000E+00  0.00000000000E+00 -0.81575266569E+02  0.14926919857E+03  0.12500707790E+03 0.  0.
    9000005    1    3    3    0    0  0.25947655141E+02  0.56816273243E+02 -0.43270260904E+02  0.75991349450E+02  0.10000000000E+01 0.  0.
    9000005    1    3    3    0    0 -0.25947655141E+02 -0.56816273243E+02 -0.38305005665E+02  0.73277849119E+02  0.10000000000E+01 0.  0.
<mgrwt>
<rscale>  0 0.12500708E+03</rscale>
<asrwt>0</asrwt>
<pdfrwt beam="2">  1        4 0.17757266E-01 0.12500708E+03</pdfrwt>
<pdfrwt beam="1">  1       -4 0.52072256E-02 0.12500708E+03</pdfrwt>
<totfact> 0.99433731E+03</totfact>
</mgrwt>
</event>
<event>
 5    1  0.3422688E-002  0.1249989E+03  0.7818608E-02  0.1235071E+00
         -4   -1    0    0    0  501 -0.00000000000E+00  0.00000000000E+00  0.25146342713E+03  0.25146663413E+03  0.12700000000E+01 0.  1.
          4   -1    0    0  501    0  0.00000000000E+00 -0.00000000000E+00 -0.15504525635E+02  0.15556452525E+02  0.12700000000E+01 0.  1.
         25    2    1    2    0    0  0.00000000000E+00  0.00000000000E+00  0.23595890149E+03  0.26702308666E+03  0.12499890246E+03 0.  0.
    9000005    1    3    3    0    0  0.29048917044E+02  0.23294471004E+02  0.22518855003E+03  0.22824845021E+03  0.10000000000E+01 0.  0.
    9000005    1    3    3    0    0 -0.29048917044E+02 -0.23294471004E+02  0.10770351463E+02  0.38774636445E+02  0.10000000000E+01 0.  0.
<mgrwt>
<rscale>  0 0.12499890E+03</rscale>
<asrwt>0</asrwt>
<pdfrwt beam="2">  1        4 0.23895530E-02 0.12499890E+03</pdfrwt>
<pdfrwt beam="1">  1       -4 0.38690917E-01 0.12499890E+03</pdfrwt>
<totfact> 0.79932417E+03</totfact>
</mgrwt>
</event>
<event>
 5    1  0.3422688E-002  0.1249998E+03  0.7818608E-02  0.1235070E+00
         -4   -1    0    0    0  501 -0.00000000000E+00  0.00000000000E+00  0.67314114346E+02  0.67326093680E+02  0.12700000000E+01 0. -1.
          4   -1    0    0  501    0  0.00000000000E+00 -0.00000000000E+00 -0.58005873160E+02  0.58019774397E+02  0.12700000000E+01 0. -1.
         25    2    1    2    0    0  0.00000000000E+00  0.00000000000E+00  0.93082411856E+01  0.12534586808E+03  0.12499977316E+03 0.  0.
    9000005    1    3    3    0    0  0.19959576344E+02  0.16149767294E+02  0.61785863553E+02  0.66915563261E+02  0.10000000000E+01 0.  0.
    9000005    1    3    3    0    0 -0.19959576344E+02 -0.16149767294E+02 -0.52477622367E+02  0.58430304816E+02  0.10000000000E+01 0.  0.
<mgrwt>
<rscale>  0 0.12499977E+03</rscale>
<asrwt>0</asrwt>
<pdfrwt beam="2">  1        4 0.89259713E-02 0.12499977E+03</pdfrwt>
<pdfrwt beam="1">  1       -4 0.10358008E-01 0.12499977E+03</pdfrwt>
<totfact> 0.10445408E+04</totfact>
</mgrwt>
</event>
<event>
 5    1  0.3422688E-002  0.1249864E+03  0.7818608E-02  0.1235091E+00
         -4   -1    0    0    0  501 -0.00000000000E+00  0.00000000000E+00  0.41582236242E+03  0.41582430183E+03  0.12700000000E+01 0.  1.
          4   -1    0    0  501    0  0.00000000000E+00 -0.00000000000E+00 -0.93470911421E+01  0.94329747598E+01  0.12700000000E+01 0.  1.
         25    2    1    2    0    0  0.00000000000E+00  0.00000000000E+00  0.40647527128E+03  0.42525727659E+03  0.12498641978E+03 0.  0.
    9000005    1    3    3    0    0  0.27293656138E+02 -0.38054367141E+02  0.62485533881E+02  0.78093024453E+02  0.10000000000E+01 0.  0.
    9000005    1    3    3    0    0 -0.27293656138E+02  0.38054367141E+02  0.34398973740E+03  0.34716425214E+03  0.10000000000E+01 0.  0.
<mgrwt>
<rscale>  0 0.12498642E+03</rscale>
<asrwt>0</asrwt>
<pdfrwt beam="2">  1        4 0.14447699E-02 0.12498642E+03</pdfrwt>
<pdfrwt beam="1">  1       -4 0.63979414E-01 0.12498642E+03</pdfrwt>
<totfact> 0.62186883E+03</totfact>
</mgrwt>
</event>
<event>
 5    1  0.3422688E-002  0.1249983E+03  0.7818608E-02  0.1235072E+00
          4   -1    0    0  501    0  0.00000000000E+00  0.00000000000E+00  0.75690969295E+02  0.75701623053E+02  0.12700000000E+01 0. -1.
         -4   -1    0    0    0  501 -0.00000000000E+00 -0.00000000000E+00 -0.51584390531E+02  0.51600021768E+02  0.12700000000E+01 0. -1.
         25    2    1    2    0    0  0.00000000000E+00  0.00000000000E+00  0.24106578764E+02  0.12730164482E+03  0.12499832653E+03 0.  0.
    9000005    1    3    3    0    0 -0.10826730368E+02  0.21135969657E+02 -0.46814934046E+02  0.52503193746E+02  0.10000000000E+01 0.  0.
    9000005    1    3    3    0    0  0.10826730368E+02 -0.21135969657E+02  0.70921512810E+02  0.74798451074E+02  0.10000000000E+01 0.  0.
<mgrwt>
<rscale>  0 0.12499833E+03</rscale>
<asrwt>0</asrwt>
<pdfrwt beam="1">  1        4 0.11646786E-01 0.12499833E+03</pdfrwt>
<pdfrwt beam="2">  1       -4 0.79380820E-02 0.12499833E+03</pdfrwt>
<totfact> 0.10402992E+04</totfact>
</mgrwt>
</event>
<event>
 5    1  0.3422688E-002  0.1249988E+03  0.7818608E-02  0.1235071E+00
          4   -1    0    0  501    0  0.00000000000E+00  0.00000000000E+00  0.10531527355E+03  0.10532293076E+03  0.12700000000E+01 0.  1.
         -4   -1    0    0    0  501 -0.00000000000E+00 -0.00000000000E+00 -0.37070394137E+02  0.37092142314E+02  0.12700000000E+01 0.  1.
         25    2    1    2    0    0  0.00000000000E+00  0.00000000000E+00  0.68244879415E+02  0.14241507307E+03  0.12499875788E+03 0.  0.
    9000005    1    3    3    0    0 -0.46477647903E+02  0.23916793788E+02  0.73143311493E+02  0.89906222231E+02  0.10000000000E+01 0.  0.
    9000005    1    3    3    0    0  0.46477647903E+02 -0.23916793788E+02 -0.48984320781E+01  0.52508850840E+02  0.10000000000E+01 0.  0.
<mgrwt>
<rscale>  0 0.12499876E+03</rscale>
<asrwt>0</asrwt>
<pdfrwt beam="1">  1        4 0.16204612E-01 0.12499876E+03</pdfrwt>
<pdfrwt beam="2">  1       -4 0.57053995E-02 0.12499876E+03</pdfrwt>
<totfact> 0.10084057E+04</totfact>
</mgrwt>
</event>
<event>
 5    1  0.3422688E-002  0.1249995E+03  0.7818608E-02  0.1235070E+00
          4   -1    0    0  501    0  0.00000000000E+00  0.00000000000E+00  0.19136451216E+02  0.19178547002E+02  0.12700000000E+01 0. -1.
         -4   -1    0    0    0  501 -0.00000000000E+00 -0.00000000000E+00 -0.20385620932E+03  0.20386016526E+03  0.12700000000E+01 0. -1.
         25    2    1    2    0    0  0.00000000000E+00  0.00000000000E+00 -0.18471975811E+03  0.22303871226E+03  0.12499951253E+03 0.  0.
    9000005    1    3    3    0    0  0.56394843767E+02  0.15906866221E+02 -0.13111746867E+03  0.14361823487E+03  0.10000000000E+01 0.  0.
    9000005    1    3    3    0    0 -0.56394843767E+02 -0.15906866221E+02 -0.53602289438E+02  0.79420477393E+02  0.10000000000E+01 0.  0.
<mgrwt>
<rscale>  0 0.12499951E+03</rscale>
<asrwt>0</asrwt>
<pdfrwt beam="1">  1        4 0.29476120E-02 0.12499951E+03</pdfrwt>
<pdfrwt beam="2">  1       -4 0.31366035E-01 0.12499951E+03</pdfrwt>
<totfact> 0.86390727E+03</totfact>
</mgrwt>
</event>
<event>
 5    1  0.3422688E-002  0.1249994E+03  0.7818608E-02  0.1235070E+00
         -4   -1    0    0    0  501 -0.00000000000E+00  0.00000000000E+00  0.54477909975E+02  0.54492711213E+02  0.12700000000E+01 0.  1.
          4   -1    0    0  501    0  0.00000000000E+00 -0.00000000000E+00 -0.71672567940E+02  0.71683818921E+02  0.12700000000E+01 0.  1.
         25    2    1    2    0    0  0.00000000000E+00  0.00000000000E+00 -0.17194657965E+02  0.12617653013E+03  0.12499944198E+03 0.  0.
    9000005    1    3    3    0    0 -0.36863174571E+02 -0.43753408181E+02 -0.33972884649E+02  0.66546309125E+02  0.10000000000E+01 0.  0.
    9000005    1    3    3    0    0  0.36863174571E+02  0.43753408181E+02  0.16778226684E+02  0.59630221009E+02  0.10000000000E+01 0.  0.
<mgrwt>
<rscale>  0 0.12499944E+03</rscale>
<asrwt>0</asrwt>
<pdfrwt beam="2">  1        4 0.11028553E-01 0.12499944E+03</pdfrwt>
<pdfrwt beam="1">  1       -4 0.83832209E-02 0.12499944E+03</pdfrwt>
<totfact> 0.10427223E+04</totfact>
</mgrwt>
</event>
<event>
 5    1  0.3422688E-002  0.1249984E+03  0.7818608E-02  0.1235072E+00
         -4   -1    0    0    0  501 -0.00000000000E+00  0.00000000000E+00  0.45964721408E+03  0.45964896858E+03  0.12700000000E+01 0.  1.
          4   -1    0    0  501    0  0.00000000000E+00 -0.00000000000E+00 -0.84489129598E+01  0.85438299493E+01  0.12700000000E+01 0.  1.
         25    2    1    2    0    0  0.00000000000E+00  0.00000000000E+00  0.45119830112E+03  0.46819279853E+03  0.12499835861E+03 0.  0.
    9000005    1    3    3    0    0 -0.17569857644E+01 -0.62437634202E+02  0.21849016946E+03  0.22724546049E+03  0.10000000000E+01 0.  0.
    9000005    1    3    3    0    0  0.17569857644E+01  0.62437634202E+02  0.23270813166E+03  0.24094733803E+03  0.10000000000E+01 0.  0.
<mgrwt>
<rscale>  0 0.12499836E+03</rscale>
<asrwt>0</asrwt>
<pdfrwt beam="2">  1        4 0.13072689E-02 0.12499836E+03</pdfrwt>
<pdfrwt beam="1">  1       -4 0.70722398E-01 0.12499836E+03</pdfrwt>
<totfact> 0.58421633E+03</totfact>
</mgrwt>
</event>
<event>
 5    1  0.3422688E-002  0.1249990E+03  0.7818608E-02  0.1235071E+00
         -4   -1    0    0    0  501 -0.00000000000E+00  0.00000000000E+00  0.20270823181E+03  0.20271221015E+03  0.12700000000E+01 0. -1.
          4   -1    0    0  501    0  0.00000000000E+00 -0.00000000000E+00 -0.19244912917E+02  0.19286771974E+02  0.12700000000E+01 0. -1.
         25    2    1    2    0    0  0.00000000000E+00  0.00000000000E+00  0.18346331890E+03  0.22199898213E+03  0.12499903474E+03 0.  0.
    9000005    1    3    3    0    0 -0.18585421285E+02  0.22364891934E+02  0.18996874545E+03  0.19218410580E+03  0.10000000000E+01 0.  0.
    9000005    1    3    3    0    0  0.18585421285E+02 -0.22364891934E+02 -0.65054265532E+01  0.29814876324E+02  0.10000000000E+01 0.  0.
<mgrwt>
<rscale>  0 0.12499903E+03</rscale>
<asrwt>0</asrwt>
<pdfrwt beam="2">  1        4 0.29642820E-02 0.12499903E+03</pdfrwt>
<pdfrwt beam="1">  1       -4 0.31189406E-01 0.12499903E+03</pdfrwt>
<totfact> 0.86554889E+03</totfact>
</mgrwt>
</event>
<event>
 5    1  0.3422688E-002  0.1249989E+03  0.7818608E-02  0.1235071E+00
          4   -1    0    0  501    0  0.00000000000E+00  0.00000000000E+00  0.34168646193E+03  0.34168882213E+03  0.12700000000E+01 0.  1.
         -4   -1    0    0    0  501 -0.00000000000E+00 -0.00000000000E+00 -0.11394381016E+02  0.11464938671E+02  0.12700000000E+01 0.  1.
         25    2    1    2    0    0  0.00000000000E+00  0.00000000000E+00  0.33029208091E+03  0.35315376080E+03  0.12499888020E+03 0.  0.
    9000005    1    3    3    0    0 -0.61653775157E+02 -0.24123139296E+01  0.19313928386E+03  0.20275795970E+03  0.10000000000E+01 0.  0.
    9000005    1    3    3    0    0  0.61653775157E+02  0.24123139296E+01  0.13715279705E+03  0.15039580110E+03  0.10000000000E+01 0.  0.
<mgrwt>
<rscale>  0 0.12499888E+03</rscale>
<asrwt>0</asrwt>
<pdfrwt beam="1">  1        4 0.52572754E-01 0.12499888E+03</pdfrwt>
<pdfrwt beam="2">  1       -4 0.17585908E-02 0.12499888E+03</pdfrwt>
<totfact> 0.69380711E+03</totfact>
</mgrwt>
</event>
<event>
 5    1  0.3422688E-002  0.1250041E+03  0.7818608E-02  0.1235063E+00
         -4   -1    0    0    0  501 -0.00000000000E+00  0.00000000000E+00  0.31992350388E+02  0.32017548053E+02  0.12700000000E+01 0. -1.
          4   -1    0    0  501    0  0.00000000000E+00 -0.00000000000E+00 -0.12203092851E+03  0.12203753690E+03  0.12700000000E+01 0. -1.
         25    2    1    2    0    0  0.00000000000E+00  0.00000000000E+00 -0.90038578120E+02  0.15405508495E+03  0.12500409453E+03 0.  0.
    9000005    1    3    3    0    0 -0.46422241354E+02 -0.38784927678E+02 -0.64357012881E+02  0.88329611197E+02  0.10000000000E+01 0.  0.
    9000005    1    3    3    0    0  0.46422241354E+02  0.38784927678E+02 -0.25681565239E+02  0.65725473756E+02  0.10000000000E+01 0.  0.
<mgrwt>
<rscale>  0 0.12500409E+03</rscale>
<asrwt>0</asrwt>
<pdfrwt beam="2">  1        4 0.18776435E-01 0.12500409E+03</pdfrwt>
<pdfrwt beam="1">  1       -4 0.49243467E-02 0.12500409E+03</pdfrwt>
<totfact> 0.98492246E+03</totfact>
</mgrwt>
</event>
<event>
 5    1  0.3422688E-002  0.1250033E+03  0.7818608E-02  0.1235064E+00
         -4   -1    0    0    0  501 -0.00000000000E+00  0.00000000000E+00  0.10530504920E+03  0.10531270715E+03  0.12700000000E+01 0.  1.
          4   -1    0    0  501    0  0.00000000000E+00 -0.00000000000E+00 -0.37076711775E+02  0.37098456248E+02  0.12700000000E+01 0.  1.
         25    2    1    2    0    0  0.00000000000E+00  0.00000000000E+00  0.68228337422E+02  0.14241116339E+03  0.12500333368E+03 0.  0.
    9000005    1    3    3    0    0  0.15442566598E+01  0.10408553117E+02 -0.36065805260E+02  0.37582775519E+02  0.10000000000E+01 0.  0.
    9000005    1    3    3    0    0 -0.15442566598E+01 -0.10408553117E+02  0.10429414268E+03  0.10482838787E+03  0.10000000000E+01 0.  0.
<mgrwt>
<rscale>  0 0.12500333E+03</rscale>
<asrwt>0</asrwt>
<pdfrwt beam="2">  1        4 0.57063713E-02 0.12500333E+03</pdfrwt>
<pdfrwt beam="1">  1       -4 0.16203038E-01 0.12500333E+03</pdfrwt>
<totfact> 0.10083098E+04</totfact>
</mgrwt>
</event>
<event>
 5    1  0.3422688E-002  0.1250012E+03  0.7818608E-02  0.1235067E+00
         -4   -1    0    0    0  501 -0.00000000000E+00  0.00000000000E+00  0.29877820629E+03  0.29878090544E+03  0.12700000000E+01 0.  1.
          4   -1    0    0  501    0  0.00000000000E+00 -0.00000000000E+00 -0.13040729462E+02  0.13102424390E+02  0.12700000000E+01 0.  1.
         25    2    1    2    0    0  0.00000000000E+00  0.00000000000E+00  0.28573747683E+03  0.31188332983E+03  0.12500122303E+03 0.  0.
    9000005    1    3    3    0    0 -0.20864283552E+02 -0.36717829993E+02  0.25779811504E+03  0.26123626373E+03  0.10000000000E+01 0.  0.
    9000005    1    3    3    0    0  0.20864283552E+02  0.36717829993E+02  0.27939361788E+02  0.50647066101E+02  0.10000000000E+01 0.  0.
<mgrwt>
<rscale>  0 0.12500122E+03</rscale>
<asrwt>0</asrwt>
<pdfrwt beam="2">  1        4 0.20112197E-02 0.12500122E+03</pdfrwt>
<pdfrwt beam="1">  1       -4 0.45970825E-01 0.12500122E+03</pdfrwt>
<totfact> 0.74129982E+03</totfact>
</mgrwt>
</event>
<event>
 5    1  0.3422688E-002  0.1250016E+03  0.7818608E-02  0.1235067E+00
         -4   -1    0    0    0  501 -0.00000000000E+00  0.00000000000E+00  0.51857697825E+02  0.51873246705E+02  0.12700000000E+01 0. -1.
          4   -1    0    0  501    0  0.00000000000E+00 -0.00000000000E+00 -0.75296103141E+02  0.75306812761E+02  0.12700000000E+01 0. -1.
         25    2    1    2    0    0  0.00000000000E+00  0.00000000000E+00 -0.23438405316E+02  0.12718005947E+03  0.12500163472E+03 0.  0.
    9000005    1    3    3    0    0 -0.32936880810E+02 -0.49978957036E+02  0.65553841210E+01  0.60222149787E+02  0.10000000000E+01 0.  0.
    9000005    1    3    3    0    0  0.32936880810E+02  0.49978957036E+02 -0.29993789437E+02  0.66957909680E+02  0.10000000000E+01 0.  0.
<mgrwt>
<rscale>  0 0.12500163E+03</rscale>
<asrwt>0</asrwt>
<pdfrwt beam="2">  1        4 0.11586036E-01 0.12500163E+03</pdfrwt>
<pdfrwt beam="1">  1       -4 0.79801272E-02 0.12500163E+03</pdfrwt>
<totfact> 0.10404852E+04</totfact>
</mgrwt>
</event>
<event>
 5    1  0.3422688E-002  0.1250003E+03  0.7818608E-02  0.1235069E+00
          4   -1    0    0  501    0  0.00000000000E+00  0.00000000000E+00  0.36650563424E+02  0.36672560577E+02  0.12700000000E+01 0.  1.
         -4   -1    0    0    0  501 -0.00000000000E+00 -0.00000000000E+00 -0.10652360913E+03  0.10653117949E+03  0.12700000000E+01 0.  1.
         25    2    1    2    0    0  0.00000000000E+00  0.00000000000E+00 -0.69873045709E+02  0.14320374006E+03  0.12500027461E+03 0.  0.
    9000005    1    3    3    0    0 -0.23203713682E+01 -0.88533810284E+01  0.35884201492E+02  0.37046489654E+02  0.10000000000E+01 0.  0.
    9000005    1    3    3    0    0  0.23203713682E+01  0.88533810284E+01 -0.10575724720E+03  0.10615725041E+03  0.10000000000E+01 0.  0.
<mgrwt>
<rscale>  0 0.12500027E+03</rscale>
<asrwt>0</asrwt>
<pdfrwt beam="1">  1        4 0.56408227E-02 0.12500027E+03</pdfrwt>
<pdfrwt beam="2">  1       -4 0.16390522E-01 0.12500027E+03</pdfrwt>
<totfact> 0.10067551E+04</totfact>
</mgrwt>
</event>
<event>
 5    1  0.3422688E-002  0.1250011E+03  0.7818608E-02  0.1235068E+00
         -4   -1    0    0    0  501 -0.00000000000E+00  0.00000000000E+00  0.24965685479E+02  0.24997966946E+02  0.12700000000E+01 0. -1.
          4   -1    0    0  501    0  0.00000000000E+00 -0.00000000000E+00 -0.15633147689E+03  0.15633663539E+03  0.12700000000E+01 0. -1.
         25    2    1    2    0    0  0.00000000000E+00  0.00000000000E+00 -0.13136579141E+03  0.18133460234E+03  0.12500106741E+03 0.  0.
    9000005    1    3    3    0    0  0.55098875944E+02 -0.19945688038E+02 -0.34179750693E+02  0.67845205867E+02  0.10000000000E+01 0.  0.
    9000005    1    3    3    0    0 -0.55098875944E+02  0.19945688038E+02 -0.97186040714E+02  0.11348939647E+03  0.10000000000E+01 0.  0.
<mgrwt>
<rscale>  0 0.12500107E+03</rscale>
<asrwt>0</asrwt>
<pdfrwt beam="2">  1        4 0.24053876E-01 0.12500107E+03</pdfrwt>
<pdfrwt beam="1">  1       -4 0.38437548E-02 0.12500107E+03</pdfrwt>
<totfact> 0.93375086E+03</totfact>
</mgrwt>
</event>
<event>
 5    1  0.3422688E-002  0.1250000E+03  0.7818608E-02  0.1235069E+00
          4   -1    0    0  501    0  0.00000000000E+00  0.00000000000E+00  0.89776612309E+02  0.89785594712E+02  0.12700000000E+01 0.  1.
         -4   -1    0    0    0  501 -0.00000000000E+00 -0.00000000000E+00 -0.43490318370E+02  0.43508857627E+02  0.12700000000E+01 0.  1.
         25    2    1    2    0    0  0.00000000000E+00  0.00000000000E+00  0.46286293939E+02  0.13329445234E+03  0.12499996007E+03 0.  0.
    9000005    1    3    3    0    0  0.32963892861E+02 -0.48008340484E+02  0.47315075505E+02  0.75040891244E+02  0.10000000000E+01 0.  0.
    9000005    1    3    3    0    0 -0.32963892861E+02  0.48008340484E+02 -0.10287815665E+01  0.58253561094E+02  0.10000000000E+01 0.  0.
<mgrwt>
<rscale>  0 0.12499996E+03</rscale>
<asrwt>0</asrwt>
<pdfrwt beam="1">  1        4 0.13813903E-01 0.12499996E+03</pdfrwt>
<pdfrwt beam="2">  1       -4 0.66929353E-02 0.12499996E+03</pdfrwt>
<totfact> 0.10274155E+04</totfact>
</mgrwt>
</event>
<event>
 5    1  0.3422688E-002  0.1250024E+03  0.7818608E-02  0.1235066E+00
         -4   -1    0    0    0  501 -0.00000000000E+00  0.00000000000E+00  0.11065492578E+03  0.11066221351E+03  0.12700000000E+01 0.  1.
          4   -1    0    0  501    0  0.00000000000E+00 -0.00000000000E+00 -0.35282637787E+02  0.35305487239E+02  0.12700000000E+01 0.  1.
         25    2    1    2    0    0  0.00000000000E+00  0.00000000000E+00  0.75372287990E+02  0.14596770075E+03  0.12500235144E+03 0.  0.
    9000005    1    3    3    0    0  0.22464269275E+02  0.58188303919E+02  0.42189797972E+02  0.75309369670E+02  0.10000000000E+01 0.  0.
    9000005    1    3    3    0    0 -0.22464269275E+02 -0.58188303919E+02  0.33182490018E+02  0.70658331079E+02  0.10000000000E+01 0.  0.
<mgrwt>
<rscale>  0 0.12500235E+03</rscale>
<asrwt>0</asrwt>
<pdfrwt beam="2">  1        4 0.54304164E-02 0.12500235E+03</pdfrwt>
<pdfrwt beam="1">  1       -4 0.17026153E-01 0.12500235E+03</pdfrwt>
<totfact> 0.10010834E+04</totfact>
</mgrwt>
</event>
<event>
 5    1  0.3422688E-002  0.1249923E+03  0.7818608E-02  0.1235081E+00
         -4   -1    0    0    0  501 -0.00000000000E+00  0.00000000000E+00  0.55522079191E+03  0.55522224439E+03  0.12700000000E+01 0. -1.
          4   -1    0    0  501    0  0.00000000000E+00 -0.00000000000E+00 -0.69758296126E+01  0.70904935502E+01  0.12700000000E+01 0. -1.
         25    2    1    2    0    0  0.00000000000E+00  0.00000000000E+00  0.54824496230E+03  0.56231273794E+03  0.12499230604E+03 0.  0.
    9000005    1    3    3    0    0 -0.46807561292E+02 -0.35696250654E+02  0.36844665441E+03  0.37312076765E+03  0.10000000000E+01 0.  0.
    9000005    1    3    3    0    0  0.46807561292E+02  0.35696250654E+02  0.17979830788E+03  0.18919197029E+03  0.10000000000E+01 0.  0.
<mgrwt>
<rscale>  0 0.12499231E+03</rscale>
<asrwt>0</asrwt>
<pdfrwt beam="2">  1        4 0.10821361E-02 0.12499231E+03</pdfrwt>
<pdfrwt beam="1">  1       -4 0.85427556E-01 0.12499231E+03</pdfrwt>
<totfact> 0.51345015E+03</totfact>
</mgrwt>
</event>
<event>
 5    1  0.3422688E-002  0.1249601E+03  0.7818608E-02  0.1235132E+00
          4   -1    0    0  501    0  0.00000000000E+00  0.00000000000E+00  0.13308236191E+02  0.13368696664E+02  0.12700000000E+01 0. -1.
         -4   -1    0    0    0  501 -0.00000000000E+00 -0.00000000000E+00 -0.29260733148E+03  0.29261008755E+03  0.12700000000E+01 0. -1.
         25    2    1    2    0    0  0.00000000000E+00  0.00000000000E+00 -0.27929909529E+03  0.30597878422E+03  0.12496012068E+03 0.  0.
    9000005    1    3    3    0    0 -0.46373083355E+02  0.36167695982E+02 -0.19125619659E+03  0.20009622142E+03  0.10000000000E+01 0.  0.
    9000005    1    3    3    0    0  0.46373083355E+02 -0.36167695982E+02 -0.88042898701E+02  0.10588256280E+03  0.10000000000E+01 0.  0.
<mgrwt>
<rscale>  0 0.12496012E+03</rscale>
<asrwt>0</asrwt>
<pdfrwt beam="1">  1        4 0.20522840E-02 0.12496012E+03</pdfrwt>
<pdfrwt beam="2">  1       -4 0.45021370E-01 0.12496012E+03</pdfrwt>
<totfact> 0.74921223E+03</totfact>
</mgrwt>
</event>
<event>
 5    1  0.3422688E-002  0.1250011E+03  0.7818608E-02  0.1235068E+00
         -4   -1    0    0    0  501 -0.00000000000E+00  0.00000000000E+00  0.39372137269E+02  0.39392614702E+02  0.12700000000E+01 0. -1.
          4   -1    0    0  501    0  0.00000000000E+00 -0.00000000000E+00 -0.99164974221E+02  0.99173106295E+02  0.12700000000E+01 0. -1.
         25    2    1    2    0    0  0.00000000000E+00  0.00000000000E+00 -0.59792836952E+02  0.13856572100E+03  0.12500110273E+03 0.  0.
    9000005    1    3    3    0    0 -0.18855244160E+02 -0.51109051583E+02  0.40477735099E+01  0.54635518268E+02  0.10000000000E+01 0.  0.
    9000005    1    3    3    0    0  0.18855244160E+02  0.51109051583E+02 -0.63840610462E+02  0.83930202729E+02  0.10000000000E+01 0.  0.
<mgrwt>
<rscale>  0 0.12500110E+03</rscale>
<asrwt>0</asrwt>
<pdfrwt beam="2">  1        4 0.15258350E-01 0.12500110E+03</pdfrwt>
<pdfrwt beam="1">  1       -4 0.60594527E-02 0.12500110E+03</pdfrwt>
<totfact> 0.10163146E+04</totfact>
</mgrwt>
</event>
<event>
 5    1  0.3422688E-002  0.1250041E+03  0.7818608E-02  0.1235063E+00
         -4   -1    0    0    0  501 -0.00000000000E+00  0.00000000000E+00  0.43949657640E+03  0.43949841133E+03  0.12700000000E+01 0. -1.
          4   -1    0    0  501    0  0.00000000000E+00 -0.00000000000E+00 -0.88413705590E+01  0.89321180782E+01  0.12700000000E+01 0. -1.
         25    2    1    2    0    0  0.00000000000E+00  0.00000000000E+00  0.43065520584E+03  0.44843052941E+03  0.12500413350E+03 0.  0.
    9000005    1    3    3    0    0 -0.30033165455E+02 -0.46150836132E+02  0.10929693514E+03  0.12238754321E+03  0.10000000000E+01 0.  0.
    9000005    1    3    3    0    0  0.30033165455E+02  0.46150836132E+02  0.32135827070E+03  0.32604298620E+03  0.10000000000E+01 0.  0.
<mgrwt>
<rscale>  0 0.12500413E+03</rscale>
<asrwt>0</asrwt>
<pdfrwt beam="2">  1        4 0.13673328E-02 0.12500413E+03</pdfrwt>
<pdfrwt beam="1">  1       -4 0.67621968E-01 0.12500413E+03</pdfrwt>
<totfact> 0.60094532E+03</totfact>
</mgrwt>
</event>
<event>
 5    1  0.3422688E-002  0.1250036E+03  0.7818608E-02  0.1235064E+00
          4   -1    0    0  501    0  0.00000000000E+00  0.00000000000E+00  0.16286602040E+02  0.16336043156E+02  0.12700000000E+01 0. -1.
         -4   -1    0    0    0  501 -0.00000000000E+00 -0.00000000000E+00 -0.23944337432E+03  0.23944674231E+03  0.12700000000E+01 0. -1.
         25    2    1    2    0    0  0.00000000000E+00  0.00000000000E+00 -0.22315677228E+03  0.25578278547E+03  0.12500355327E+03 0.  0.
    9000005    1    3    3    0    0  0.45761652470E+02  0.30967243589E+02 -0.51838579245E+02  0.75771612827E+02  0.10000000000E+01 0.  0.
    9000005    1    3    3    0    0 -0.45761652470E+02 -0.30967243589E+02 -0.17131819303E+03  0.18001117264E+03  0.10000000000E+01 0.  0.
<mgrwt>
<rscale>  0 0.12500355E+03</rscale>
<asrwt>0</asrwt>
<pdfrwt beam="1">  1        4 0.25096935E-02 0.12500355E+03</pdfrwt>
<pdfrwt beam="2">  1       -4 0.36841502E-01 0.12500355E+03</pdfrwt>
<totfact> 0.81495107E+03</totfact>
</mgrwt>
</event>
<event>
 5    1  0.3422688E-002  0.1249993E+03  0.7818608E-02  0.1235070E+00
         -4   -1    0    0    0  501 -0.00000000000E+00  0.00000000000E+00  0.46012568402E+02  0.46030091798E+02  0.12700000000E+01 0. -1.
          4   -1    0    0  501    0  0.00000000000E+00 -0.00000000000E+00 -0.84855869535E+02  0.84865372765E+02  0.12700000000E+01 0. -1.
         25    2    1    2    0    0  0.00000000000E+00  0.00000000000E+00 -0.38843301133E+02  0.13089546456E+03  0.12499928240E+03 0.  0.
    9000005    1    3    3    0    0 -0.49663342928E+02  0.32894168699E+02 -0.39199889413E+02  0.71316935542E+02  0.10000000000E+01 0.  0.
    9000005    1    3    3    0    0  0.49663342928E+02 -0.32894168699E+02  0.35658828025E+00  0.59578529021E+02  0.10000000000E+01 0.  0.
<mgrwt>
<rscale>  0 0.12499928E+03</rscale>
<asrwt>0</asrwt>
<pdfrwt beam="2">  1        4 0.13056828E-01 0.12499928E+03</pdfrwt>
<pdfrwt beam="1">  1       -4 0.70809357E-02 0.12499928E+03</pdfrwt>
<totfact> 0.10325498E+04</totfact>
</mgrwt>
</event>
<event>
 5    1  0.3422688E-002  0.1249997E+03  0.7818608E-02  0.1235070E+00
          4   -1    0    0  501    0  0.00000000000E+00  0.00000000000E+00  0.13554334126E+02  0.13613701686E+02  0.12700000000E+01 0. -1.
         -4   -1    0    0    0  501 -0.00000000000E+00 -0.00000000000E+00 -0.28750019901E+03  0.28750300403E+03  0.12700000000E+01 0. -1.
         25    2    1    2    0    0  0.00000000000E+00  0.00000000000E+00 -0.27394586488E+03  0.30111670572E+03  0.12499973432E+03 0.  0.
    9000005    1    3    3    0    0 -0.54407467767E+02 -0.24936534872E+02 -0.93663584835E+02  0.11115696309E+03  0.10000000000E+01 0.  0.
    9000005    1    3    3    0    0  0.54407467767E+02  0.24936534872E+02 -0.18028228005E+03  0.18995974263E+03  0.10000000000E+01 0.  0.
<mgrwt>
<rscale>  0 0.12499973E+03</rscale>
<asrwt>0</asrwt>
<pdfrwt beam="1">  1        4 0.20900649E-02 0.12499973E+03</pdfrwt>
<pdfrwt beam="2">  1       -4 0.44235578E-01 0.12499973E+03</pdfrwt>
<totfact> 0.75459421E+03</totfact>
</mgrwt>
</event>
<event>
 5    1  0.3422688E-002  0.1250013E+03  0.7818608E-02  0.1235067E+00
         -4   -1    0    0    0  501 -0.00000000000E+00  0.00000000000E+00  0.25619084926E+03  0.25619399709E+03  0.12700000000E+01 0.  1.
          4   -1    0    0  501    0  0.00000000000E+00 -0.00000000000E+00 -0.15218041074E+02  0.15270942149E+02  0.12700000000E+01 0.  1.
         25    2    1    2    0    0  0.00000000000E+00  0.00000000000E+00  0.24097280819E+03  0.27146493924E+03  0.12500127580E+03 0.  0.
    9000005    1    3    3    0    0  0.23242391167E+02  0.57128570959E+02  0.14235997553E+03  0.15514910570E+03  0.10000000000E+01 0.  0.
    9000005    1    3    3    0    0 -0.23242391167E+02 -0.57128570959E+02  0.98612832656E+02  0.11631583354E+03  0.10000000000E+01 0.  0.
<mgrwt>
<rscale>  0 0.12500128E+03</rscale>
<asrwt>0</asrwt>
<pdfrwt beam="2">  1        4 0.23455487E-02 0.12500128E+03</pdfrwt>
<pdfrwt beam="1">  1       -4 0.39418286E-01 0.12500128E+03</pdfrwt>
<totfact> 0.79321314E+03</totfact>
</mgrwt>
</event>
<event>
 5    1  0.3422688E-002  0.1249998E+03  0.7818608E-02  0.1235070E+00
         -4   -1    0    0    0  501 -0.00000000000E+00  0.00000000000E+00  0.16314709553E+03  0.16315203854E+03  0.12700000000E+01 0.  1.
          4   -1    0    0  501    0  0.00000000000E+00 -0.00000000000E+00 -0.23920905787E+02  0.23954595252E+02  0.12700000000E+01 0.  1.
         25    2    1    2    0    0  0.00000000000E+00  0.00000000000E+00  0.13922618974E+03  0.18710663379E+03  0.12499984199E+03 0.  0.
    9000005    1    3    3    0    0  0.38787136557E+01  0.49516429431E+02  0.12638158172E+03  0.13579479151E+03  0.10000000000E+01 0.  0.
    9000005    1    3    3    0    0 -0.38787136557E+01 -0.49516429431E+02  0.12844608026E+02  0.51311842284E+02  0.10000000000E+01 0.  0.
<mgrwt>
<rscale>  0 0.12499984E+03</rscale>
<asrwt>0</asrwt>
<pdfrwt beam="2">  1        4 0.36831111E-02 0.12499984E+03</pdfrwt>
<pdfrwt beam="1">  1       -4 0.25102525E-01 0.12499984E+03</pdfrwt>
<totfact> 0.92353529E+03</totfact>
</mgrwt>
</event>
<event>
 5    1  0.3422688E-002  0.1249979E+03  0.7818608E-02  0.1235073E+00
         -4   -1    0    0    0  501 -0.00000000000E+00  0.00000000000E+00  0.77744798432E+01  0.78775273298E+01  0.12700000000E+01 0. -1.
          4   -1    0    0  501    0  0.00000000000E+00 -0.00000000000E+00 -0.49901686002E+03  0.49901847610E+03  0.12700000000E+01 0. -1.
         25    2    1    2    0    0  0.00000000000E+00  0.00000000000E+00 -0.49124238018E+03  0.50689600343E+03  0.12499792881E+03 0.  0.
    9000005    1    3    3    0    0  0.94567396435E+01  0.13978073151E+02 -0.16218924916E+01  0.16983727181E+02  0.10000000000E+01 0.  0.
    9000005    1    3    3    0    0 -0.94567396435E+01 -0.13978073151E+02 -0.48962048769E+03  0.48991227625E+03  0.10000000000E+01 0.  0.
<mgrwt>
<rscale>  0 0.12499793E+03</rscale>
<asrwt>0</asrwt>
<pdfrwt beam="2">  1        4 0.76779851E-01 0.12499793E+03</pdfrwt>
<pdfrwt beam="1">  1       -4 0.12041253E-02 0.12499793E+03</pdfrwt>
<totfact> 0.55335794E+03</totfact>
</mgrwt>
</event>
<event>
 5    1  0.3422688E-002  0.1250009E+03  0.7818608E-02  0.1235068E+00
         -4   -1    0    0    0  501 -0.00000000000E+00  0.00000000000E+00  0.37389763744E+02  0.37411326264E+02  0.12700000000E+01 0. -1.
          4   -1    0    0  501    0  0.00000000000E+00 -0.00000000000E+00 -0.10441978595E+03  0.10442750882E+03  0.12700000000E+01 0. -1.
         25    2    1    2    0    0  0.00000000000E+00  0.00000000000E+00 -0.67030022205E+02  0.14183883508E+03  0.12500092504E+03 0.  0.
    9000005    1    3    3    0    0 -0.30432617131E+02 -0.46964796212E+02 -0.65072620748E+02  0.85832873887E+02  0.10000000000E+01 0.  0.
    9000005    1    3    3    0    0  0.30432617131E+02  0.46964796212E+02 -0.19574014568E+01  0.56005961193E+02  0.10000000000E+01 0.  0.
<mgrwt>
<rscale>  0 0.12500093E+03</rscale>
<asrwt>0</asrwt>
<pdfrwt beam="2">  1        4 0.16066835E-01 0.12500093E+03</pdfrwt>
<pdfrwt beam="1">  1       -4 0.57545241E-02 0.12500093E+03</pdfrwt>
<totfact> 0.10095406E+04</totfact>
</mgrwt>
</event>
<event>
 5    1  0.3422688E-002  0.1249980E+03  0.7818608E-02  0.1235072E+00
         -4   -1    0    0    0  501 -0.00000000000E+00  0.00000000000E+00  0.22321552871E+03  0.22321914156E+03  0.12700000000E+01 0.  1.
          4   -1    0    0  501    0  0.00000000000E+00 -0.00000000000E+00 -0.17472542066E+02  0.17518636541E+02  0.12700000000E+01 0.  1.
         25    2    1    2    0    0  0.00000000000E+00  0.00000000000E+00  0.20574298664E+03  0.24073777810E+03  0.12499800498E+03 0.  0.
    9000005    1    3    3    0    0  0.31872504547E+02 -0.53320401198E+02  0.11596267927E+03  0.13155707777E+03  0.10000000000E+01 0.  0.
    9000005    1    3    3    0    0 -0.31872504547E+02  0.53320401198E+02  0.89780307378E+02  0.10918070032E+03  0.10000000000E+01 0.  0.
<mgrwt>
<rscale>  0 0.12499800E+03</rscale>
<asrwt>0</asrwt>
<pdfrwt beam="2">  1        4 0.26919071E-02 0.12499800E+03</pdfrwt>
<pdfrwt beam="1">  1       -4 0.34344674E-01 0.12499800E+03</pdfrwt>
<totfact> 0.83691333E+03</totfact>
</mgrwt>
</event>
<event>
 5    1  0.3422688E-002  0.1250017E+03  0.7818608E-02  0.1235067E+00
         -4   -1    0    0    0  501 -0.00000000000E+00  0.00000000000E+00  0.46629627282E+02  0.46646918874E+02  0.12700000000E+01 0. -1.
          4   -1    0    0  501    0  0.00000000000E+00 -0.00000000000E+00 -0.83736422780E+02  0.83746053041E+02  0.12700000000E+01 0. -1.
         25    2    1    2    0    0  0.00000000000E+00  0.00000000000E+00 -0.37106795498E+02  0.13039297191E+03  0.12500165140E+03 0.  0.
    9000005    1    3    3    0    0  0.61185283928E+02  0.26739419588E+01 -0.31521994860E+02  0.68887045915E+02  0.10000000000E+01 0.  0.
    9000005    1    3    3    0    0 -0.61185283928E+02 -0.26739419588E+01 -0.55848006380E+01  0.61505926000E+02  0.10000000000E+01 0.  0.
<mgrwt>
<rscale>  0 0.12500165E+03</rscale>
<asrwt>0</asrwt>
<pdfrwt beam="2">  1        4 0.12884597E-01 0.12500165E+03</pdfrwt>
<pdfrwt beam="1">  1       -4 0.71758597E-02 0.12500165E+03</pdfrwt>
<totfact> 0.10335723E+04</totfact>
</mgrwt>
</event>
<event>
 5    1  0.3422688E-002  0.1249993E+03  0.7818608E-02  0.1235070E+00
          4   -1    0    0  501    0  0.00000000000E+00  0.00000000000E+00  0.13443268829E+02  0.13503124705E+02  0.12700000000E+01 0. -1.
         -4   -1    0    0    0  501 -0.00000000000E+00 -0.00000000000E+00 -0.28986275525E+03  0.28986553742E+03  0.12700000000E+01 0. -1.
         25    2    1    2    0    0  0.00000000000E+00  0.00000000000E+00 -0.27641948642E+03  0.30336866212E+03  0.12499925073E+03 0.  0.
    9000005    1    3    3    0    0 -0.12941524886E+02 -0.43338586405E+02 -0.33554766930E+02  0.56326179719E+02  0.10000000000E+01 0.  0.
    9000005    1    3    3    0    0  0.12941524886E+02  0.43338586405E+02 -0.24286471949E+03  0.24704248240E+03  0.10000000000E+01 0.  0.
<mgrwt>
<rscale>  0 0.12499925E+03</rscale>
<asrwt>0</asrwt>
<pdfrwt beam="1">  1        4 0.20730137E-02 0.12499925E+03</pdfrwt>
<pdfrwt beam="2">  1       -4 0.44599084E-01 0.12499925E+03</pdfrwt>
<totfact> 0.75179466E+03</totfact>
</mgrwt>
</event>
<event>
 5    1  0.3422688E-002  0.1250023E+03  0.7818608E-02  0.1235066E+00
          4   -1    0    0  501    0  0.00000000000E+00  0.00000000000E+00  0.81654196305E+02  0.81664072114E+02  0.12700000000E+01 0. -1.
         -4   -1    0    0    0  501 -0.00000000000E+00 -0.00000000000E+00 -0.47819502281E+02  0.47836363766E+02  0.12700000000E+01 0. -1.
         25    2    1    2    0    0  0.00000000000E+00  0.00000000000E+00  0.33834694025E+02  0.12950043588E+03  0.12500230547E+03 0.  0.
    9000005    1    3    3    0    0  0.39430387613E+02 -0.48340296675E+02  0.13061265716E+02  0.63742736151E+02  0.10000000000E+01 0.  0.
    9000005    1    3    3    0    0 -0.39430387613E+02  0.48340296675E+02  0.20773428309E+02  0.65757699729E+02  0.10000000000E+01 0.  0.
<mgrwt>
<rscale>  0 0.12500231E+03</rscale>
<asrwt>0</asrwt>
<pdfrwt beam="1">  1        4 0.12564241E-01 0.12500231E+03</pdfrwt>
<pdfrwt beam="2">  1       -4 0.73589033E-02 0.12500231E+03</pdfrwt>
<totfact> 0.10354667E+04</totfact>
</mgrwt>
</event>
<event>
 5    1  0.3422688E-002  0.1249981E+03  0.7818608E-02  0.1235072E+00
         -4   -1    0    0    0  501 -0.00000000000E+00  0.00000000000E+00  0.21142285841E+01  0.24663459826E+01  0.12700000000E+01 0. -1.
          4   -1    0    0  501    0  0.00000000000E+00 -0.00000000000E+00 -0.17051682842E+04  0.17051687571E+04  0.12700000000E+01 0. -1.
         25    2    1    2    0    0  0.00000000000E+00  0.00000000000E+00 -0.17030540556E+04  0.17076351031E+04  0.12499811631E+03 0.  0.
    9000005    1    3    3    0    0  0.15345679959E+02  0.56655352911E+02 -0.11444695389E+04  0.11459741901E+04  0.10000000000E+01 0.  0.
    9000005    1    3    3    0    0 -0.15345679959E+02 -0.56655352911E+02 -0.55858451670E+03  0.56166091301E+03  0.10000000000E+01 0.  0.
<mgrwt>
<rscale>  0 0.12499812E+03</rscale>
<asrwt>0</asrwt>
<pdfrwt beam="2">  1        4 0.26235969E+00 0.12499812E+03</pdfrwt>
<pdfrwt beam="1">  1       -4 0.35238963E-03 0.12499812E+03</pdfrwt>
<totfact> 0.14181622E+03</totfact>
</mgrwt>
</event>
<event>
 5    1  0.3422688E-002  0.1250015E+03  0.7818608E-02  0.1235067E+00
          4   -1    0    0  501    0  0.00000000000E+00  0.00000000000E+00  0.23773258075E+02  0.23807156477E+02  0.12700000000E+01 0.  1.
         -4   -1    0    0    0  501 -0.00000000000E+00 -0.00000000000E+00 -0.16416322729E+03  0.16416813970E+03  0.12700000000E+01 0.  1.
         25    2    1    2    0    0  0.00000000000E+00  0.00000000000E+00 -0.14038996921E+03  0.18797529618E+03  0.12500147406E+03 0.  0.
    9000005    1    3    3    0    0  0.16958078904E+00  0.61139603484E+02 -0.50746551350E+02  0.79462521642E+02  0.10000000000E+01 0.  0.
    9000005    1    3    3    0    0 -0.16958078904E+00 -0.61139603484E+02 -0.89643417861E+02  0.10851277454E+03  0.10000000000E+01 0.  0.
<mgrwt>
<rscale>  0 0.12500147E+03</rscale>
<asrwt>0</asrwt>
<pdfrwt beam="1">  1        4 0.36604099E-02 0.12500147E+03</pdfrwt>
<pdfrwt beam="2">  1       -4 0.25258866E-01 0.12500147E+03</pdfrwt>
<totfact> 0.92197760E+03</totfact>
</mgrwt>
</event>
<event>
 5    1  0.3422688E-002  0.1250001E+03  0.7818608E-02  0.1235069E+00
         -4   -1    0    0    0  501 -0.00000000000E+00  0.00000000000E+00  0.12401293448E+02  0.12466153344E+02  0.12700000000E+01 0.  1.
          4   -1    0    0  501    0  0.00000000000E+00 -0.00000000000E+00 -0.31410003619E+03  0.31410260367E+03  0.12700000000E+01 0.  1.
         25    2    1    2    0    0  0.00000000000E+00  0.00000000000E+00 -0.30169874274E+03  0.32656875701E+03  0.12500008675E+03 0.  0.
    9000005    1    3    3    0    0 -0.49026578556E+02 -0.21589467199E+02 -0.23492087032E+03  0.24095336854E+03  0.10000000000E+01 0.  0.
    9000005    1    3    3    0    0  0.49026578556E+02  0.21589467199E+02 -0.66777872419E+02  0.85615388475E+02  0.10000000000E+01 0.  0.
<mgrwt>
<rscale>  0 0.12500009E+03</rscale>
<asrwt>0</asrwt>
<pdfrwt beam="2">  1        4 0.48328263E-01 0.12500009E+03</pdfrwt>
<pdfrwt beam="1">  1       -4 0.19130783E-02 0.12500009E+03</pdfrwt>
<totfact> 0.72381474E+03</totfact>
</mgrwt>
</event>
<event>
 5    1  0.3422688E-002  0.1249976E+03  0.7818608E-02  0.1235073E+00
          4   -1    0    0  501    0  0.00000000000E+00  0.00000000000E+00  0.48262239666E+03  0.48262406763E+03  0.12700000000E+01 0.  1.
         -4   -1    0    0    0  501 -0.00000000000E+00 -0.00000000000E+00 -0.80419788471E+01  0.81416413441E+01  0.12700000000E+01 0.  1.
         25    2    1    2    0    0  0.00000000000E+00  0.00000000000E+00  0.47458041781E+03  0.49076570898E+03  0.12499763252E+03 0.  0.
    9000005    1    3    3    0    0  0.17742945064E+02 -0.22706822760E+02  0.19582854832E+02  0.34855417123E+02  0.10000000000E+01 0.  0.
    9000005    1    3    3    0    0 -0.17742945064E+02  0.22706822760E+02  0.45499756298E+03  0.45591029185E+03  0.10000000000E+01 0.  0.
<mgrwt>
<rscale>  0 0.12499763E+03</rscale>
<asrwt>0</asrwt>
<pdfrwt beam="1">  1        4 0.74257435E-01 0.12499763E+03</pdfrwt>
<pdfrwt beam="2">  1       -4 0.12450217E-02 0.12499763E+03</pdfrwt>
<totfact> 0.56590945E+03</totfact>
</mgrwt>
</event>
<event>
 5    1  0.3422688E-002  0.1249777E+03  0.7818608E-02  0.1235104E+00
          4   -1    0    0  501    0  0.00000000000E+00  0.00000000000E+00  0.17026717009E+03  0.17027190641E+03  0.12700000000E+01 0.  1.
         -4   -1    0    0    0  501 -0.00000000000E+00 -0.00000000000E+00 -0.22911075615E+02  0.22946247751E+02  0.12700000000E+01 0.  1.
         25    2    1    2    0    0  0.00000000000E+00  0.00000000000E+00  0.14735609448E+03  0.19321815416E+03  0.12497774408E+03 0.  0.
    9000005    1    3    3    0    0  0.25644764557E+01  0.34468767001E+02 -0.67920849025E+01  0.35239251629E+02  0.10000000000E+01 0.  0.
    9000005    1    3    3    0    0 -0.25644764557E+01 -0.34468767001E+02  0.15414817938E+03  0.15797890253E+03  0.10000000000E+01 0.  0.
<mgrwt>
<rscale>  0 0.12497774E+03</rscale>
<asrwt>0</asrwt>
<pdfrwt beam="1">  1        4 0.26198019E-01 0.12497774E+03</pdfrwt>
<pdfrwt beam="2">  1       -4 0.35278507E-02 0.12497774E+03</pdfrwt>
<totfact> 0.91335873E+03</totfact>
</mgrwt>
</event>
<event>
 5    1  0.3422688E-002  0.1250002E+03  0.7818608E-02  0.1235069E+00
          4   -1    0    0  501    0  0.00000000000E+00  0.00000000000E+00  0.84071716598E+02  0.84081308456E+02  0.12700000000E+01 0. -1.
         -4   -1    0    0    0  501 -0.00000000000E+00 -0.00000000000E+00 -0.46442549433E+02  0.46459910652E+02  0.12700000000E+01 0. -1.
         25    2    1    2    0    0  0.00000000000E+00  0.00000000000E+00  0.37629167165E+02  0.13054121911E+03  0.12500022266E+03 0.  0.
    9000005    1    3    3    0    0 -0.45995539529E+02 -0.13810643958E+02  0.60573864523E+02  0.77307933657E+02  0.10000000000E+01 0.  0.
    9000005    1    3    3    0    0  0.45995539529E+02  0.13810643958E+02 -0.22944697358E+02  0.53233285451E+02  0.10000000000E+01 0.  0.
<mgrwt>
<rscale>  0 0.12500022E+03</rscale>
<asrwt>0</asrwt>
<pdfrwt beam="1">  1        4 0.12936183E-01 0.12500022E+03</pdfrwt>
<pdfrwt beam="2">  1       -4 0.71470810E-02 0.12500022E+03</pdfrwt>
<totfact> 0.10332883E+04</totfact>
</mgrwt>
</event>
<event>
 5    1  0.3422688E-002  0.1249995E+03  0.7818608E-02  0.1235070E+00
          4   -1    0    0  501    0  0.00000000000E+00  0.00000000000E+00  0.24000625080E+02  0.24034202800E+02  0.12700000000E+01 0. -1.
         -4   -1    0    0    0  501 -0.00000000000E+00 -0.00000000000E+00 -0.16260511087E+03  0.16261007036E+03  0.12700000000E+01 0. -1.
         25    2    1    2    0    0  0.00000000000E+00  0.00000000000E+00 -0.13860448579E+03  0.18664427316E+03  0.12499952488E+03 0.  0.
    9000005    1    3    3    0    0 -0.28516668305E+02 -0.44909601231E+02 -0.20342360957E+02  0.56963885956E+02  0.10000000000E+01 0.  0.
    9000005    1    3    3    0    0  0.28516668305E+02  0.44909601231E+02 -0.11826212483E+03  0.12968038720E+03  0.10000000000E+01 0.  0.
<mgrwt>
<rscale>  0 0.12499952E+03</rscale>
<asrwt>0</asrwt>
<pdfrwt beam="1">  1        4 0.36953684E-02 0.12499952E+03</pdfrwt>
<pdfrwt beam="2">  1       -4 0.25019135E-01 0.12499952E+03</pdfrwt>
<totfact> 0.92435485E+03</totfact>
</mgrwt>
</event>
<event>
 5    1  0.3422688E-002  0.1250013E+03  0.7818608E-02  0.1235067E+00
         -4   -1    0    0    0  501 -0.00000000000E+00  0.00000000000E+00  0.62067442592E+02  0.62080434357E+02  0.12700000000E+01 0. -1.
          4   -1    0    0  501    0  0.00000000000E+00 -0.00000000000E+00 -0.62910860320E+02  0.62923677946E+02  0.12700000000E+01 0. -1.
         25    2    1    2    0    0  0.00000000000E+00  0.00000000000E+00 -0.84341772805E+00  0.12500411230E+03  0.12500126695E+03 0.  0.
    9000005    1    3    3    0    0 -0.27088396698E+02 -0.51862374682E+02  0.21529691492E+02  0.62353947422E+02  0.10000000000E+01 0.  0.
    9000005    1    3    3    0    0  0.27088396698E+02  0.51862374682E+02 -0.22373109220E+02  0.62650164880E+02  0.10000000000E+01 0.  0.
<mgrwt>
<rscale>  0 0.12500127E+03</rscale>
<asrwt>0</asrwt>
<pdfrwt beam="2">  1        4 0.96805792E-02 0.12500127E+03</pdfrwt>
<pdfrwt beam="1">  1       -4 0.95508227E-02 0.12500127E+03</pdfrwt>
<totfact> 0.10452474E+04</totfact>
</mgrwt>
</event>
<event>
 5    1  0.3422688E-002  0.1249973E+03  0.7818608E-02  0.1235074E+00
         -4   -1    0    0    0  501 -0.00000000000E+00  0.00000000000E+00  0.60502299941E+01  0.61820856499E+01  0.12700000000E+01 0.  1.
          4   -1    0    0  501    0  0.00000000000E+00 -0.00000000000E+00 -0.63851668276E+03  0.63851794577E+03  0.12700000000E+01 0.  1.
         25    2    1    2    0    0  0.00000000000E+00  0.00000000000E+00 -0.63246645277E+03  0.64470003142E+03  0.12499726649E+03 0.  0.
    9000005    1    3    3    0    0  0.84092275676E+01  0.45839079563E+02 -0.53095414357E+03  0.53299647175E+03  0.10000000000E+01 0.  0.
    9000005    1    3    3    0    0 -0.84092275676E+01 -0.45839079563E+02 -0.10151230920E+03  0.11170355967E+03  0.10000000000E+01 0.  0.
<mgrwt>
<rscale>  0 0.12499727E+03</rscale>
<asrwt>0</asrwt>
<pdfrwt beam="2">  1        4 0.98243523E-01 0.12499727E+03</pdfrwt>
<pdfrwt beam="1">  1       -4 0.94104502E-03 0.12499727E+03</pdfrwt>
<totfact> 0.46165014E+03</totfact>
</mgrwt>
</event>
<event>
 5    1  0.3422688E-002  0.1250017E+03  0.7818608E-02  0.1235067E+00
         -4   -1    0    0    0  501 -0.00000000000E+00  0.00000000000E+00  0.15699052352E+02  0.15750337925E+02  0.12700000000E+01 0.  1.
          4   -1    0    0  501    0  0.00000000000E+00 -0.00000000000E+00 -0.24836869701E+03  0.24837194397E+03  0.12700000000E+01 0.  1.
         25    2    1    2    0    0  0.00000000000E+00  0.00000000000E+00 -0.23266964466E+03  0.26412228190E+03  0.12500166500E+03 0.  0.
    9000005    1    3    3    0    0  0.42191764512E+02  0.36468587404E+02 -0.17592043516E+03  0.18455108335E+03  0.10000000000E+01 0.  0.
    9000005    1    3    3    0    0 -0.42191764512E+02 -0.36468587404E+02 -0.56749209498E+02  0.79571198549E+02  0.10000000000E+01 0.  0.
<mgrwt>
<rscale>  0 0.12500166E+03</rscale>
<asrwt>0</asrwt>
<pdfrwt beam="2">  1        4 0.38214761E-01 0.12500166E+03</pdfrwt>
<pdfrwt beam="1">  1       -4 0.24194338E-02 0.12500166E+03</pdfrwt>
<totfact> 0.80328040E+03</totfact>
</mgrwt>
</event>
<event>
 5    1  0.3422688E-002  0.1250018E+03  0.7818608E-02  0.1235067E+00
          4   -1    0    0  501    0  0.00000000000E+00  0.00000000000E+00  0.21833208602E+02  0.21870114262E+02  0.12700000000E+01 0. -1.
         -4   -1    0    0    0  501 -0.00000000000E+00 -0.00000000000E+00 -0.17872807626E+03  0.17873258837E+03  0.12700000000E+01 0. -1.
         25    2    1    2    0    0  0.00000000000E+00  0.00000000000E+00 -0.15689486766E+03  0.20060270263E+03  0.12500177920E+03 0.  0.
    9000005    1    3    3    0    0 -0.16236438694E+02  0.56250953914E+02 -0.11351768294E+03  0.12773040397E+03  0.10000000000E+01 0.  0.
    9000005    1    3    3    0    0  0.16236438694E+02 -0.56250953914E+02 -0.43377184715E+02  0.72872298657E+02  0.10000000000E+01 0.  0.
<mgrwt>
<rscale>  0 0.12500178E+03</rscale>
<asrwt>0</asrwt>
<pdfrwt beam="1">  1        4 0.33621413E-02 0.12500178E+03</pdfrwt>
<pdfrwt beam="2">  1       -4 0.27499812E-01 0.12500178E+03</pdfrwt>
<totfact> 0.90030371E+03</totfact>
</mgrwt>
</event>
<event>
 5    1  0.3422688E-002  0.1250027E+03  0.7818608E-02  0.1235065E+00
         -4   -1    0    0    0  501 -0.00000000000E+00  0.00000000000E+00  0.20505142405E+02  0.20544433919E+02  0.12700000000E+01 0.  1.
          4   -1    0    0  501    0  0.00000000000E+00 -0.00000000000E+00 -0.19028544550E+03  0.19028968356E+03  0.12700000000E+01 0.  1.
         25    2    1    2    0    0  0.00000000000E+00  0.00000000000E+00 -0.16978030309E+03  0.21083411748E+03  0.12500269506E+03 0.  0.
    9000005    1    3    3    0    0 -0.28591893953E+02 -0.60488558512E+01  0.82777565404E+01  0.30390891897E+02  0.10000000000E+01 0.  0.
    9000005    1    3    3    0    0  0.28591893953E+02  0.60488558512E+01 -0.17805805963E+03  0.18044322558E+03  0.10000000000E+01 0.  0.
<mgrwt>
<rscale>  0 0.12500270E+03</rscale>
<asrwt>0</asrwt>
<pdfrwt beam="2">  1        4 0.29278031E-01 0.12500270E+03</pdfrwt>
<pdfrwt beam="1">  1       -4 0.31579859E-02 0.12500270E+03</pdfrwt>
<totfact> 0.88334518E+03</totfact>
</mgrwt>
</event>
<event>
 5    1  0.3422688E-002  0.1250064E+03  0.7818608E-02  0.1235059E+00
          4   -1    0    0  501    0  0.00000000000E+00  0.00000000000E+00  0.45265272145E+03  0.45265450305E+03  0.12700000000E+01 0.  1.
         -4   -1    0    0    0  501 -0.00000000000E+00 -0.00000000000E+00 -0.85820449856E+01  0.86755055262E+01  0.12700000000E+01 0.  1.
         25    2    1    2    0    0  0.00000000000E+00  0.00000000000E+00  0.44407067646E+03  0.46133000858E+03  0.12500644432E+03 0.  0.
    9000005    1    3    3    0    0 -0.55348043809E+02  0.25976989761E+02  0.17428102750E+03  0.18469728341E+03  0.10000000000E+01 0.  0.
    9000005    1    3    3    0    0  0.55348043809E+02 -0.25976989761E+02  0.26978964896E+03  0.27663272517E+03  0.10000000000E+01 0.  0.
<mgrwt>
<rscale>  0 0.12500644E+03</rscale>
<asrwt>0</asrwt>
<pdfrwt beam="1">  1        4 0.69646175E-01 0.12500644E+03</pdfrwt>
<pdfrwt beam="2">  1       -4 0.13276415E-02 0.12500644E+03</pdfrwt>
<totfact> 0.58986337E+03</totfact>
</mgrwt>
</event>
<event>
 5    1  0.3422688E-002  0.1250012E+03  0.7818608E-02  0.1235067E+00
          4   -1    0    0  501    0  0.00000000000E+00  0.00000000000E+00  0.48040285494E+01  0.49690633226E+01  0.12700000000E+01 0. -1.
         -4   -1    0    0    0  501 -0.00000000000E+00 -0.00000000000E+00 -0.79923902999E+03  0.79924003902E+03  0.12700000000E+01 0. -1.
         25    2    1    2    0    0  0.00000000000E+00  0.00000000000E+00 -0.79443500144E+03  0.80420910234E+03  0.12500123505E+03 0.  0.
    9000005    1    3    3    0    0 -0.45452488000E+02 -0.35876499859E+02 -0.24602422242E+03  0.25274882774E+03  0.10000000000E+01 0.  0.
    9000005    1    3    3    0    0  0.45452488000E+02  0.35876499859E+02 -0.54841077903E+03  0.55146027460E+03  0.10000000000E+01 0.  0.
<mgrwt>
<rscale>  0 0.12500124E+03</rscale>
<asrwt>0</asrwt>
<pdfrwt beam="1">  1        4 0.75185455E-03 0.12500124E+03</pdfrwt>
<pdfrwt beam="2">  1       -4 0.12297252E+00 0.12500124E+03</pdfrwt>
<totfact> 0.38076510E+03</totfact>
</mgrwt>
</event>
<event>
 5    1  0.3422688E-002  0.1250009E+03  0.7818608E-02  0.1235068E+00
         -4   -1    0    0    0  501 -0.00000000000E+00  0.00000000000E+00  0.16239077372E+02  0.16288662742E+02  0.12700000000E+01 0. -1.
          4   -1    0    0  501    0  0.00000000000E+00 -0.00000000000E+00 -0.24013176688E+03  0.24013512522E+03  0.12700000000E+01 0. -1.
         25    2    1    2    0    0  0.00000000000E+00  0.00000000000E+00 -0.22389268950E+03  0.25642378796E+03  0.12500089047E+03 0.  0.
    9000005    1    3    3    0    0  0.26599160249E+02  0.37547286072E+02 -0.25204641394E+02  0.52474641163E+02  0.10000000000E+01 0.  0.
    9000005    1    3    3    0    0 -0.26599160249E+02 -0.37547286072E+02 -0.19868804811E+03  0.20394914680E+03  0.10000000000E+01 0.  0.
<mgrwt>
<rscale>  0 0.12500089E+03</rscale>
<asrwt>0</asrwt>
<pdfrwt beam="2">  1        4 0.36947419E-01 0.12500089E+03</pdfrwt>
<pdfrwt beam="1">  1       -4 0.25023924E-02 0.12500089E+03</pdfrwt>
<totfact> 0.81408952E+03</totfact>
</mgrwt>
</event>
<event>
 5    1  0.3422688E-002  0.1249994E+03  0.7818608E-02  0.1235070E+00
         -4   -1    0    0    0  501 -0.00000000000E+00  0.00000000000E+00  0.85303041142E+03  0.85303135681E+03  0.12700000000E+01 0.  1.
          4   -1    0    0  501    0  0.00000000000E+00 -0.00000000000E+00 -0.44901976154E+01  0.46663448892E+01  0.12700000000E+01 0.  1.
         25    2    1    2    0    0  0.00000000000E+00  0.00000000000E+00  0.84854021380E+03  0.85769770170E+03  0.12499941225E+03 0.  0.
    9000005    1    3    3    0    0 -0.47619993925E+02  0.53936706929E+01  0.69945912945E+03  0.70109972848E+03  0.10000000000E+01 0.  0.
    9000005    1    3    3    0    0  0.47619993925E+02 -0.53936706929E+01  0.14908108436E+03  0.15659797323E+03  0.10000000000E+01 0.  0.
<mgrwt>
<rscale>  0 0.12499941E+03</rscale>
<asrwt>0</asrwt>
<pdfrwt beam="2">  1        4 0.70442274E-03 0.12499941E+03</pdfrwt>
<pdfrwt beam="1">  1       -4 0.13124896E+00 0.12499941E+03</pdfrwt>
<totfact> 0.35814868E+03</totfact>
</mgrwt>
</event>
<event>
 5    1  0.3422688E-002  0.1249986E+03  0.7818608E-02  0.1235071E+00
         -4   -1    0    0    0  501 -0.00000000000E+00  0.00000000000E+00  0.21638938243E+02  0.21676174669E+02  0.12700000000E+01 0.  1.
          4   -1    0    0  501    0  0.00000000000E+00 -0.00000000000E+00 -0.18032080161E+03  0.18032527387E+03  0.12700000000E+01 0.  1.
         25    2    1    2    0    0  0.00000000000E+00  0.00000000000E+00 -0.15868186337E+03  0.20200144854E+03  0.12499860578E+03 0.  0.
    9000005    1    3    3    0    0 -0.28979586455E+01  0.31284604085E+02 -0.16663702420E+03  0.16957600789E+03  0.10000000000E+01 0.  0.
    9000005    1    3    3    0    0  0.28979586455E+01 -0.31284604085E+02  0.79551608315E+01  0.32425440644E+02  0.10000000000E+01 0.  0.
<mgrwt>
<rscale>  0 0.12499861E+03</rscale>
<asrwt>0</asrwt>
<pdfrwt beam="2">  1        4 0.27744869E-01 0.12499861E+03</pdfrwt>
<pdfrwt beam="1">  1       -4 0.33322759E-02 0.12499861E+03</pdfrwt>
<totfact> 0.89801842E+03</totfact>
</mgrwt>
</event>
<event>
 5    1  0.3422688E-002  0.1250243E+03  0.7818608E-02  0.1235031E+00
          4   -1    0    0  501    0  0.00000000000E+00  0.00000000000E+00  0.24668870157E+02  0.24701539524E+02  0.12700000000E+01 0. -1.
         -4   -1    0    0    0  501 -0.00000000000E+00 -0.00000000000E+00 -0.15826892144E+03  0.15827401680E+03  0.12700000000E+01 0. -1.
         25    2    1    2    0    0  0.00000000000E+00  0.00000000000E+00 -0.13360005129E+03  0.18297555633E+03  0.12502431967E+03 0.  0.
    9000005    1    3    3    0    0  0.14138959065E+02  0.33749715587E+02 -0.14096188036E+03  0.14563723830E+03  0.10000000000E+01 0.  0.
    9000005    1    3    3    0    0 -0.14138959065E+02 -0.33749715587E+02  0.73618290735E+01  0.37338318025E+02  0.10000000000E+01 0.  0.
<mgrwt>
<rscale>  0 0.12502432E+03</rscale>
<asrwt>0</asrwt>
<pdfrwt beam="1">  1        4 0.37981159E-02 0.12502432E+03</pdfrwt>
<pdfrwt beam="2">  1       -4 0.24351969E-01 0.12502432E+03</pdfrwt>
<totfact> 0.93033394E+03</totfact>
</mgrwt>
</event>
<event>
 5    1  0.3422688E-002  0.1250139E+03  0.7818608E-02  0.1235047E+00
          4   -1    0    0  501    0  0.00000000000E+00  0.00000000000E+00  0.19571420730E+04  0.19571424850E+04  0.12700000000E+01 0. -1.
         -4   -1    0    0    0  501 -0.00000000000E+00 -0.00000000000E+00 -0.17939042694E+01  0.21979518938E+01  0.12700000000E+01 0. -1.
         25    2    1    2    0    0  0.00000000000E+00  0.00000000000E+00  0.19553481687E+04  0.19593404369E+04  0.12501394684E+03 0.  0.
    9000005    1    3    3    0    0  0.21698039120E+02  0.54472419488E+02  0.63858959560E+03  0.64127663375E+03  0.10000000000E+01 0.  0.
    9000005    1    3    3    0    0 -0.21698039120E+02 -0.54472419488E+02  0.13167585731E+04  0.13180638032E+04  0.10000000000E+01 0.  0.
<mgrwt>
<rscale>  0 0.12501395E+03</rscale>
<asrwt>0</asrwt>
<pdfrwt beam="1">  1        4 0.30113181E+00 0.12501395E+03</pdfrwt>
<pdfrwt beam="2">  1       -4 0.30709560E-03 0.12501395E+03</pdfrwt>
<totfact> 0.10398008E+03</totfact>
</mgrwt>
</event>
<event>
 5    1  0.3422688E-002  0.1250036E+03  0.7818608E-02  0.1235064E+00
         -4   -1    0    0    0  501 -0.00000000000E+00  0.00000000000E+00  0.39492117810E+01  0.41483941099E+01  0.12700000000E+01 0.  1.
          4   -1    0    0  501    0  0.00000000000E+00 -0.00000000000E+00 -0.96464783505E+03  0.96464867106E+03  0.12700000000E+01 0.  1.
         25    2    1    2    0    0  0.00000000000E+00  0.00000000000E+00 -0.96069862327E+03  0.96879706517E+03  0.12500363483E+03 0.  0.
    9000005    1    3    3    0    0 -0.14559344590E+02  0.57203276476E+02 -0.32127515572E+03  0.32665412141E+03  0.10000000000E+01 0.  0.
    9000005    1    3    3    0    0  0.14559344590E+02 -0.57203276476E+02 -0.63942346756E+03  0.64214294376E+03  0.10000000000E+01 0.  0.
<mgrwt>
<rscale>  0 0.12500363E+03</rscale>
<asrwt>0</asrwt>
<pdfrwt beam="2">  1        4 0.14842256E+00 0.12500363E+03</pdfrwt>
<pdfrwt beam="1">  1       -4 0.62295784E-03 0.12500363E+03</pdfrwt>
<totfact> 0.31655392E+03</totfact>
</mgrwt>
</event>
<event>
 5    1  0.3422688E-002  0.1249981E+03  0.7818608E-02  0.1235072E+00
          4   -1    0    0  501    0  0.00000000000E+00  0.00000000000E+00  0.22072669703E+03  0.22073035061E+03  0.12700000000E+01 0.  1.
         -4   -1    0    0    0  501 -0.00000000000E+00 -0.00000000000E+00 -0.17670096151E+02  0.17715676617E+02  0.12700000000E+01 0.  1.
         25    2    1    2    0    0  0.00000000000E+00  0.00000000000E+00  0.20305660088E+03  0.23844602723E+03  0.12499809895E+03 0.  0.
    9000005    1    3    3    0    0  0.35785054100E+00 -0.10259228941E+02 -0.16060042945E+02  0.19086770676E+02  0.10000000000E+01 0.  0.
    9000005    1    3    3    0    0 -0.35785054100E+00  0.10259228941E+02  0.21911664382E+03  0.21935925655E+03  0.10000000000E+01 0.  0.
<mgrwt>
<rscale>  0 0.12499810E+03</rscale>
<asrwt>0</asrwt>
<pdfrwt beam="1">  1        4 0.33961741E-01 0.12499810E+03</pdfrwt>
<pdfrwt beam="2">  1       -4 0.27222635E-02 0.12499810E+03</pdfrwt>
<totfact> 0.84032910E+03</totfact>
</mgrwt>
</event>
<event>
 5    1  0.3422688E-002  0.1250158E+03  0.7818608E-02  0.1235045E+00
         -4   -1    0    0    0  501 -0.00000000000E+00  0.00000000000E+00  0.38219861789E+03  0.38220072791E+03  0.12700000000E+01 0.  1.
          4   -1    0    0  501    0  0.00000000000E+00 -0.00000000000E+00 -0.10181469288E+02  0.10260371185E+02  0.12700000000E+01 0.  1.
         25    2    1    2    0    0  0.00000000000E+00  0.00000000000E+00  0.37201714860E+03  0.39246109910E+03  0.12501582080E+03 0.  0.
    9000005    1    3    3    0    0  0.36629741479E+02  0.10547954406E+02  0.34149833523E+03  0.34362059058E+03  0.10000000000E+01 0.  0.
    9000005    1    3    3    0    0 -0.36629741479E+02 -0.10547954406E+02  0.30518813372E+02  0.48840508521E+02  0.10000000000E+01 0.  0.
<mgrwt>
<rscale>  0 0.12501582E+03</rscale>
<asrwt>0</asrwt>
<pdfrwt beam="2">  1        4 0.15726117E-02 0.12501582E+03</pdfrwt>
<pdfrwt beam="1">  1       -4 0.58806015E-01 0.12501582E+03</pdfrwt>
<totfact> 0.65269871E+03</totfact>
</mgrwt>
</event>
<event>
 5    1  0.3422688E-002  0.1249965E+03  0.7818608E-02  0.1235075E+00
         -4   -1    0    0    0  501 -0.00000000000E+00  0.00000000000E+00  0.31523263990E+02  0.31548836311E+02  0.12700000000E+01 0.  1.
          4   -1    0    0  501    0  0.00000000000E+00 -0.00000000000E+00 -0.12383046228E+03  0.12383697464E+03  0.12700000000E+01 0.  1.
         25    2    1    2    0    0  0.00000000000E+00  0.00000000000E+00 -0.92307198291E+02  0.15538581095E+03  0.12499652551E+03 0.  0.
    9000005    1    3    3    0    0 -0.13789823642E+02  0.31152698749E+02 -0.11127680557E+03  0.11637945409E+03  0.10000000000E+01 0.  0.
    9000005    1    3    3    0    0  0.13789823642E+02 -0.31152698749E+02  0.18969607283E+02  0.39006356865E+02  0.10000000000E+01 0.  0.
<mgrwt>
<rscale>  0 0.12499653E+03</rscale>
<asrwt>0</asrwt>
<pdfrwt beam="2">  1        4 0.19053308E-01 0.12499653E+03</pdfrwt>
<pdfrwt beam="1">  1       -4 0.48522010E-02 0.12499653E+03</pdfrwt>
<totfact> 0.98247489E+03</totfact>
</mgrwt>
</event>
<event>
 5    1  0.3422688E-002  0.1250012E+03  0.7818608E-02  0.1235067E+00
          4   -1    0    0  501    0  0.00000000000E+00  0.00000000000E+00  0.83148628766E+02  0.83158327098E+02  0.12700000000E+01 0. -1.
         -4   -1    0    0    0  501 -0.00000000000E+00 -0.00000000000E+00 -0.46958978360E+02  0.46976148721E+02  0.12700000000E+01 0. -1.
         25    2    1    2    0    0  0.00000000000E+00  0.00000000000E+00  0.36189650406E+02  0.13013447582E+03  0.12500116400E+03 0.  0.
    9000005    1    3    3    0    0  0.38126316299E+02  0.21163906588E+02  0.64696877446E+02  0.78027001018E+02  0.10000000000E+01 0.  0.
    9000005    1    3    3    0    0 -0.38126316299E+02 -0.21163906588E+02 -0.28507227039E+02  0.52107474801E+02  0.10000000000E+01 0.  0.
<mgrwt>
<rscale>  0 0.12500116E+03</rscale>
<asrwt>0</asrwt>
<pdfrwt beam="1">  1        4 0.12794163E-01 0.12500116E+03</pdfrwt>
<pdfrwt beam="2">  1       -4 0.72265251E-02 0.12500116E+03</pdfrwt>
<totfact> 0.10341360E+04</totfact>
</mgrwt>
</event>
<event>
 5    1  0.3422688E-002  0.1250007E+03  0.7818608E-02  0.1235068E+00
         -4   -1    0    0    0  501 -0.00000000000E+00  0.00000000000E+00  0.50222124306E+03  0.50222284883E+03  0.12700000000E+01 0. -1.
          4   -1    0    0  501    0  0.00000000000E+00 -0.00000000000E+00 -0.77245631786E+01  0.78282677713E+01  0.12700000000E+01 0. -1.
         25    2    1    2    0    0  0.00000000000E+00  0.00000000000E+00  0.49449667988E+03  0.51005111660E+03  0.12500070050E+03 0.  0.
    9000005    1    3    3    0    0 -0.33660376478E+02 -0.52619164938E+02  0.23961865283E+03  0.24762854489E+03  0.10000000000E+01 0.  0.
    9000005    1    3    3    0    0  0.33660376478E+02  0.52619164938E+02  0.25487802706E+03  0.26242257170E+03  0.10000000000E+01 0.  0.
<mgrwt>
<rscale>  0 0.12500070E+03</rscale>
<asrwt>0</asrwt>
<pdfrwt beam="2">  1        4 0.11964948E-02 0.12500070E+03</pdfrwt>
<pdfrwt beam="1">  1       -4 0.77272930E-01 0.12500070E+03</pdfrwt>
<totfact> 0.55092010E+03</totfact>
</mgrwt>
</event>
<event>
 5    1  0.3422688E-002  0.1250054E+03  0.7818608E-02  0.1235061E+00
         -4   -1    0    0    0  501 -0.00000000000E+00  0.00000000000E+00  0.11907290384E+03  0.11907967639E+03  0.12700000000E+01 0.  1.
          4   -1    0    0  501    0  0.00000000000E+00 -0.00000000000E+00 -0.32788353622E+02  0.32812940028E+02  0.12700000000E+01 0.  1.
         25    2    1    2    0    0  0.00000000000E+00  0.00000000000E+00  0.86284550221E+02  0.15189261642E+03  0.12500537315E+03 0.  0.
    9000005    1    3    3    0    0  0.59036420470E+02  0.19633213084E+02  0.50312722540E+02  0.80019572901E+02  0.10000000000E+01 0.  0.
    9000005    1    3    3    0    0 -0.59036420470E+02 -0.19633213084E+02  0.35971827681E+02  0.71873043518E+02  0.10000000000E+01 0.  0.
<mgrwt>
<rscale>  0 0.12500537E+03</rscale>
<asrwt>0</asrwt>
<pdfrwt beam="2">  1        4 0.50467744E-02 0.12500537E+03</pdfrwt>
<pdfrwt beam="1">  1       -4 0.18321320E-01 0.12500537E+03</pdfrwt>
<totfact> 0.98915804E+03</totfact>
</mgrwt>
</event>
<event>
 5    1  0.3422688E-002  0.1250325E+03  0.7818608E-02  0.1235019E+00
         -4   -1    0    0    0  501 -0.00000000000E+00  0.00000000000E+00  0.14669447462E+02  0.14724319639E+02  0.12700000000E+01 0.  1.
          4   -1    0    0  501    0  0.00000000000E+00 -0.00000000000E+00 -0.26586940928E+03  0.26587244252E+03  0.12700000000E+01 0.  1.
         25    2    1    2    0    0  0.00000000000E+00  0.00000000000E+00 -0.25119996182E+03  0.28059676216E+03  0.12503248424E+03 0.  0.
    9000005    1    3    3    0    0 -0.31845015861E+02 -0.52202385609E+02 -0.96504460966E+02  0.11425106164E+03  0.10000000000E+01 0.  0.
    9000005    1    3    3    0    0  0.31845015861E+02  0.52202385609E+02 -0.15469550085E+03  0.16634570052E+03  0.10000000000E+01 0.  0.
<mgrwt>
<rscale>  0 0.12503248E+03</rscale>
<asrwt>0</asrwt>
<pdfrwt beam="2">  1        4 0.40907437E-01 0.12503248E+03</pdfrwt>
<pdfrwt beam="1">  1       -4 0.22612925E-02 0.12503248E+03</pdfrwt>
<totfact> 0.78042683E+03</totfact>
</mgrwt>
</event>
<event>
 5    1  0.3422688E-002  0.1249978E+03  0.7818608E-02  0.1235073E+00
         -4   -1    0    0    0  501 -0.00000000000E+00  0.00000000000E+00  0.64472009137E+02  0.64484516453E+02  0.12700000000E+01 0. -1.
          4   -1    0    0  501    0  0.00000000000E+00 -0.00000000000E+00 -0.60561174766E+02  0.60574489590E+02  0.12700000000E+01 0. -1.
         25    2    1    2    0    0  0.00000000000E+00  0.00000000000E+00  0.39108343707E+01  0.12505900604E+03  0.12499784145E+03 0.  0.
    9000005    1    3    3    0    0  0.37148882161E+02  0.48660318214E+02 -0.10590618314E+02  0.62137164489E+02  0.10000000000E+01 0.  0.
    9000005    1    3    3    0    0 -0.37148882161E+02 -0.48660318214E+02  0.14501452685E+02  0.62921841553E+02  0.10000000000E+01 0.  0.
<mgrwt>
<rscale>  0 0.12499784E+03</rscale>
<asrwt>0</asrwt>
<pdfrwt beam="2">  1        4 0.93190901E-02 0.12499784E+03</pdfrwt>
<pdfrwt beam="1">  1       -4 0.99207569E-02 0.12499784E+03</pdfrwt>
<totfact> 0.10452091E+04</totfact>
</mgrwt>
</event>
<event>
 5    1  0.3422688E-002  0.1250001E+03  0.7818608E-02  0.1235069E+00
         -4   -1    0    0    0  501 -0.00000000000E+00  0.00000000000E+00  0.46798719072E+01  0.48491340534E+01  0.12700000000E+01 0.  1.
          4   -1    0    0  501    0  0.00000000000E+00 -0.00000000000E+00 -0.81969611597E+03  0.81969709981E+03  0.12700000000E+01 0.  1.
         25    2    1    2    0    0  0.00000000000E+00  0.00000000000E+00 -0.81501624406E+03  0.82454623386E+03  0.12500005476E+03 0.  0.
    9000005    1    3    3    0    0 -0.95673263554E+01 -0.58994754960E+02 -0.52794170229E+03  0.53131474275E+03  0.10000000000E+01 0.  0.
    9000005    1    3    3    0    0  0.95673263554E+01  0.58994754960E+02 -0.28707454177E+03  0.29323149111E+03  0.10000000000E+01 0.  0.
<mgrwt>
<rscale>  0 0.12500005E+03</rscale>
<asrwt>0</asrwt>
<pdfrwt beam="2">  1        4 0.12612008E+00 0.12500005E+03</pdfrwt>
<pdfrwt beam="1">  1       -4 0.73307679E-03 0.12500005E+03</pdfrwt>
<totfact> 0.37192111E+03</totfact>
</mgrwt>
</event>
<event>
 5    1  0.3422688E-002  0.1249988E+03  0.7818608E-02  0.1235071E+00
         -4   -1    0    0    0  501 -0.00000000000E+00  0.00000000000E+00  0.91497859005E+02  0.91506672448E+02  0.12700000000E+01 0. -1.
          4   -1    0    0  501    0  0.00000000000E+00 -0.00000000000E+00 -0.42671102974E+02  0.42689997997E+02  0.12700000000E+01 0. -1.
         25    2    1    2    0    0  0.00000000000E+00  0.00000000000E+00  0.48826756031E+02  0.13419667044E+03  0.12499877701E+03 0.  0.
    9000005    1    3    3    0    0  0.15593144407E+02  0.58864684202E+02  0.39480941709E+02  0.72580589395E+02  0.10000000000E+01 0.  0.
    9000005    1    3    3    0    0 -0.15593144407E+02 -0.58864684202E+02  0.93458143226E+01  0.61616081050E+02  0.10000000000E+01 0.  0.
<mgrwt>
<rscale>  0 0.12499878E+03</rscale>
<asrwt>0</asrwt>
<pdfrwt beam="2">  1        4 0.65669166E-02 0.12499878E+03</pdfrwt>
<pdfrwt beam="1">  1       -4 0.14078725E-01 0.12499878E+03</pdfrwt>
<totfact> 0.10255314E+04</totfact>
</mgrwt>
</event>
<event>
 5    1  0.3422688E-002  0.1250038E+03  0.7818608E-02  0.1235063E+00
          4   -1    0    0  501    0  0.00000000000E+00  0.00000000000E+00  0.13113457529E+03  0.13114072494E+03  0.12700000000E+01 0.  1.
         -4   -1    0    0    0  501 -0.00000000000E+00 -0.00000000000E+00 -0.29769524754E+02  0.29796602224E+02  0.12700000000E+01 0.  1.
         25    2    1    2    0    0  0.00000000000E+00  0.00000000000E+00  0.10136505054E+03  0.16093732716E+03  0.12500379916E+03 0.  0.
    9000005    1    3    3    0    0  0.20929419823E+02 -0.28049431404E+02  0.11734105863E+03  0.12245299203E+03  0.10000000000E+01 0.  0.
    9000005    1    3    3    0    0 -0.20929419823E+02  0.28049431404E+02 -0.15976008090E+02  0.38484335134E+02  0.10000000000E+01 0.  0.
<mgrwt>
<rscale>  0 0.12500380E+03</rscale>
<asrwt>0</asrwt>
<pdfrwt beam="1">  1        4 0.20177106E-01 0.12500380E+03</pdfrwt>
<pdfrwt beam="2">  1       -4 0.45824827E-02 0.12500380E+03</pdfrwt>
<totfact> 0.97154083E+03</totfact>
</mgrwt>
</event>
<event>
 5    1  0.3422688E-002  0.1249988E+03  0.7818608E-02  0.1235071E+00
         -4   -1    0    0    0  501 -0.00000000000E+00  0.00000000000E+00  0.13229033222E+04  0.13229039318E+04  0.12700000000E+01 0. -1.
          4   -1    0    0  501    0  0.00000000000E+00 -0.00000000000E+00 -0.28155298833E+01  0.30887066102E+01  0.12700000000E+01 0. -1.
         25    2    1    2    0    0  0.00000000000E+00  0.00000000000E+00  0.13200877924E+04  0.13259926384E+04  0.12499879084E+03 0.  0.
    9000005    1    3    3    0    0  0.29828903858E+02 -0.10548759800E+02  0.88376175001E+02  0.93874321017E+02  0.10000000000E+01 0.  0.
    9000005    1    3    3    0    0 -0.29828903858E+02  0.10548759800E+02  0.12317116173E+04  0.12321183174E+04  0.10000000000E+01 0.  0.
<mgrwt>
<rscale>  0 0.12499879E+03</rscale>
<asrwt>0</asrwt>
<pdfrwt beam="2">  1        4 0.45421759E-03 0.12499879E+03</pdfrwt>
<pdfrwt beam="1">  1       -4 0.20354525E+00 0.12499879E+03</pdfrwt>
<totfact> 0.21623722E+03</totfact>
</mgrwt>
</event>
<event>
 5    1  0.3422688E-002  0.1250032E+03  0.7818608E-02  0.1235064E+00
         -4   -1    0    0    0  501 -0.00000000000E+00  0.00000000000E+00  0.22889254294E+04  0.22889257817E+04  0.12700000000E+01 0. -1.
          4   -1    0    0  501    0  0.00000000000E+00 -0.00000000000E+00 -0.14700084729E+01  0.19426334987E+01  0.12700000000E+01 0. -1.
         25    2    1    2    0    0  0.00000000000E+00  0.00000000000E+00  0.22874554209E+04  0.22908684152E+04  0.12500317256E+03 0.  0.
    9000005    1    3    3    0    0  0.44089172626E+02 -0.34724930584E+01  0.19529067420E+04  0.19534077035E+04  0.10000000000E+01 0.  0.
    9000005    1    3    3    0    0 -0.44089172626E+02  0.34724930584E+01  0.33454867897E+03  0.33746071171E+03  0.10000000000E+01 0.  0.
<mgrwt>
<rscale>  0 0.12500317E+03</rscale>
<asrwt>0</asrwt>
<pdfrwt beam="2">  1        4 0.26253837E-03 0.12500317E+03</pdfrwt>
<pdfrwt beam="1">  1       -4 0.35217829E+00 0.12500317E+03</pdfrwt>
<totfact> 0.65260632E+02</totfact>
</mgrwt>
</event>
<event>
 5    1  0.3422688E-002  0.1250013E+03  0.7818608E-02  0.1235067E+00
         -4   -1    0    0    0  501 -0.00000000000E+00  0.00000000000E+00  0.28856381644E+03  0.28856661113E+03  0.12700000000E+01 0.  1.
          4   -1    0    0  501    0  0.00000000000E+00 -0.00000000000E+00 -0.13504486001E+02  0.13564071739E+02  0.12700000000E+01 0.  1.
         25    2    1    2    0    0  0.00000000000E+00  0.00000000000E+00  0.27505933044E+03  0.30213068287E+03  0.12500125707E+03 0.  0.
    9000005    1    3    3    0    0  0.28756662284E+02 -0.27298066060E+02  0.20779823911E+02  0.44776457186E+02  0.10000000000E+01 0.  0.
    9000005    1    3    3    0    0 -0.28756662284E+02  0.27298066060E+02  0.25427950653E+03  0.25735422568E+03  0.10000000000E+01 0.  0.
<mgrwt>
<rscale>  0 0.12500126E+03</rscale>
<asrwt>0</asrwt>
<pdfrwt beam="2">  1        4 0.20824116E-02 0.12500126E+03</pdfrwt>
<pdfrwt beam="1">  1       -4 0.44399234E-01 0.12500126E+03</pdfrwt>
<totfact> 0.75330239E+03</totfact>
</mgrwt>
</event>
<event>
 5    1  0.3422688E-002  0.1250029E+03  0.7818608E-02  0.1235065E+00
         -4   -1    0    0    0  501 -0.00000000000E+00  0.00000000000E+00  0.15958896194E+03  0.15959401515E+03  0.12700000000E+01 0.  1.
          4   -1    0    0  501    0  0.00000000000E+00 -0.00000000000E+00 -0.24456171907E+02  0.24489125022E+02  0.12700000000E+01 0.  1.
         25    2    1    2    0    0  0.00000000000E+00  0.00000000000E+00  0.13513279003E+03  0.18408314017E+03  0.12500292618E+03 0.  0.
    9000005    1    3    3    0    0  0.56537872471E+02 -0.26209720628E+02  0.60666619930E+02  0.86976544267E+02  0.10000000000E+01 0.  0.
    9000005    1    3    3    0    0 -0.56537872471E+02  0.26209720628E+02  0.74466170099E+02  0.97106595905E+02  0.10000000000E+01 0.  0.
<mgrwt>
<rscale>  0 0.12500293E+03</rscale>
<asrwt>0</asrwt>
<pdfrwt beam="2">  1        4 0.37654116E-02 0.12500293E+03</pdfrwt>
<pdfrwt beam="1">  1       -4 0.24555071E-01 0.12500293E+03</pdfrwt>
<totfact> 0.92881054E+03</totfact>
</mgrwt>
</event>
<event>
 5    1  0.3422688E-002  0.1250001E+03  0.7818608E-02  0.1235069E+00
         -4   -1    0    0    0  501 -0.00000000000E+00  0.00000000000E+00  0.26680680970E+03  0.26680983228E+03  0.12700000000E+01 0. -1.
          4   -1    0    0  501    0  0.00000000000E+00 -0.00000000000E+00 -0.14610113869E+02  0.14665208054E+02  0.12700000000E+01 0. -1.
         25    2    1    2    0    0  0.00000000000E+00  0.00000000000E+00  0.25219669583E+03  0.28147504034E+03  0.12500009978E+03 0.  0.
    9000005    1    3    3    0    0 -0.78305507759E+01  0.55039014316E+01  0.26515754149E+03  0.26533211691E+03  0.10000000000E+01 0.  0.
    9000005    1    3    3    0    0  0.78305507759E+01 -0.55039014316E+01 -0.12960845659E+02  0.16142923423E+02  0.10000000000E+01 0.  0.
<mgrwt>
<rscale>  0 0.12500010E+03</rscale>
<asrwt>0</asrwt>
<pdfrwt beam="2">  1        4 0.22521803E-02 0.12500010E+03</pdfrwt>
<pdfrwt beam="1">  1       -4 0.41051673E-01 0.12500010E+03</pdfrwt>
<totfact> 0.77982756E+03</totfact>
</mgrwt>
</event>
<event>
 5    1  0.3422688E-002  0.1250002E+03  0.7818608E-02  0.1235069E+00
          4   -1    0    0  501    0  0.00000000000E+00  0.00000000000E+00  0.50943557940E+01  0.52502724649E+01  0.12700000000E+01 0. -1.
         -4   -1    0    0    0  501 -0.00000000000E+00 -0.00000000000E+00 -0.75506862012E+03  0.75506968817E+03  0.12700000000E+01 0. -1.
         25    2    1    2    0    0  0.00000000000E+00  0.00000000000E+00 -0.74997426433E+03  0.76031996064E+03  0.12500018154E+03 0.  0.
    9000005    1    3    3    0    0 -0.31883476725E+02 -0.29529628877E+02 -0.64814082321E+03  0.64959686097E+03  0.10000000000E+01 0.  0.
    9000005    1    3    3    0    0  0.31883476725E+02  0.29529628877E+02 -0.10183344112E+03  0.11072309967E+03  0.10000000000E+01 0.  0.
<mgrwt>
<rscale>  0 0.12500018E+03</rscale>
<asrwt>0</asrwt>
<pdfrwt beam="1">  1        4 0.79582339E-03 0.12500018E+03</pdfrwt>
<pdfrwt beam="2">  1       -4 0.11617639E+00 0.12500018E+03</pdfrwt>
<totfact> 0.40085199E+03</totfact>
</mgrwt>
</event>
<event>
 5    1  0.3422688E-002  0.1250035E+03  0.7818608E-02  0.1235064E+00
          4   -1    0    0  501    0  0.00000000000E+00  0.00000000000E+00  0.35286634952E+03  0.35286863494E+03  0.12700000000E+01 0.  1.
         -4   -1    0    0    0  501 -0.00000000000E+00 -0.00000000000E+00 -0.11031916975E+02  0.11104777897E+02  0.12700000000E+01 0.  1.
         25    2    1    2    0    0  0.00000000000E+00  0.00000000000E+00  0.34183443255E+03  0.36397341284E+03  0.12500346386E+03 0.  0.
    9000005    1    3    3    0    0  0.32457565802E+02 -0.50893451978E+02  0.21803196403E+03  0.22623566114E+03  0.10000000000E+01 0.  0.
    9000005    1    3    3    0    0 -0.32457565802E+02  0.50893451978E+02  0.12380246852E+03  0.13773775170E+03  0.10000000000E+01 0.  0.
<mgrwt>
<rscale>  0 0.12500346E+03</rscale>
<asrwt>0</asrwt>
<pdfrwt beam="1">  1        4 0.54292913E-01 0.12500346E+03</pdfrwt>
<pdfrwt beam="2">  1       -4 0.17029984E-02 0.12500346E+03</pdfrwt>
<totfact> 0.68208951E+03</totfact>
</mgrwt>
</event>
<event>
 5    1  0.3422688E-002  0.1249962E+03  0.7818608E-02  0.1235075E+00
         -4   -1    0    0    0  501 -0.00000000000E+00  0.00000000000E+00  0.28366976567E+02  0.28395391519E+02  0.12700000000E+01 0.  1.
          4   -1    0    0  501    0  0.00000000000E+00 -0.00000000000E+00 -0.13759555501E+03  0.13760141590E+03  0.12700000000E+01 0.  1.
         25    2    1    2    0    0  0.00000000000E+00  0.00000000000E+00 -0.10922857844E+03  0.16599680742E+03  0.12499623085E+03 0.  0.
    9000005    1    3    3    0    0  0.10833862024E+02 -0.32346304566E+02 -0.12414645080E+03  0.12875168826E+03  0.10000000000E+01 0.  0.
    9000005    1    3    3    0    0 -0.10833862024E+02  0.32346304566E+02  0.14917872354E+02  0.37245119157E+02  0.10000000000E+01 0.  0.
<mgrwt>
<rscale>  0 0.12499623E+03</rscale>
<asrwt>0</asrwt>
<pdfrwt beam="2">  1        4 0.21171183E-01 0.12499623E+03</pdfrwt>
<pdfrwt beam="1">  1       -4 0.43667869E-02 0.12499623E+03</pdfrwt>
<totfact> 0.96207090E+03</totfact>
</mgrwt>
</event>
<event>
 5    1  0.3422688E-002  0.1250063E+03  0.7818608E-02  0.1235059E+00
          4   -1    0    0  501    0  0.00000000000E+00  0.00000000000E+00  0.57477507953E+02  0.57491536947E+02  0.12700000000E+01 0.  1.
         -4   -1    0    0    0  501 -0.00000000000E+00 -0.00000000000E+00 -0.67939958922E+02  0.67951827925E+02  0.12700000000E+01 0.  1.
         25    2    1    2    0    0  0.00000000000E+00  0.00000000000E+00 -0.10462450969E+02  0.12544336487E+03  0.12500629948E+03 0.  0.
    9000005    1    3    3    0    0 -0.29333668667E+02  0.53079803808E+02  0.99117318219E+01  0.61458702537E+02  0.10000000000E+01 0.  0.
    9000005    1    3    3    0    0  0.29333668667E+02 -0.53079803808E+02 -0.20374182791E+02  0.63984662335E+02  0.10000000000E+01 0.  0.
<mgrwt>
<rscale>  0 0.12500630E+03</rscale>
<asrwt>0</asrwt>
<pdfrwt beam="1">  1        4 0.88446857E-02 0.12500630E+03</pdfrwt>
<pdfrwt beam="2">  1       -4 0.10454294E-01 0.12500630E+03</pdfrwt>
<totfact> 0.10441723E+04</totfact>
</mgrwt>
</event>
<event>
 5    1  0.3422688E-002  0.1249988E+03  0.7818608E-02  0.1235071E+00
          4   -1    0    0  501    0  0.00000000000E+00  0.00000000000E+00  0.23331470318E+04  0.23331473774E+04  0.12700000000E+01 0. -1.
         -4   -1    0    0    0  501 -0.00000000000E+00 -0.00000000000E+00 -0.14329678640E+01  0.19147576607E+01  0.12700000000E+01 0. -1.
         25    2    1    2    0    0  0.00000000000E+00  0.00000000000E+00  0.23317140639E+04  0.23350621351E+04  0.12499879546E+03 0.  0.
    9000005    1    3    3    0    0 -0.23841409435E+02 -0.42526088144E+02  0.43556589395E+03  0.43828703945E+03  0.10000000000E+01 0.  0.
    9000005    1    3    3    0    0  0.23841409435E+02  0.42526088144E+02  0.18961481700E+04  0.18967750956E+04  0.10000000000E+01 0.  0.
<mgrwt>
<rscale>  0 0.12499880E+03</rscale>
<asrwt>0</asrwt>
<pdfrwt beam="1">  1        4 0.35898300E+00 0.12499880E+03</pdfrwt>
<pdfrwt beam="2">  1       -4 0.25754378E-03 0.12499880E+03</pdfrwt>
<totfact> 0.60978366E+02</totfact>
</mgrwt>
</event>
<event>
 5    1  0.3422688E-002  0.1250002E+03  0.7818608E-02  0.1235069E+00
         -4   -1    0    0    0  501 -0.00000000000E+00  0.00000000000E+00  0.31333251407E+02  0.31358978678E+02  0.12700000000E+01 0.  1.
          4   -1    0    0  501    0  0.00000000000E+00 -0.00000000000E+00 -0.12458806248E+03  0.12459453524E+03  0.12700000000E+01 0.  1.
         25    2    1    2    0    0  0.00000000000E+00  0.00000000000E+00 -0.93254811070E+02  0.15595351392E+03  0.12500015486E+03 0.  0.
    9000005    1    3    3    0    0 -0.43731775951E+01  0.58333774081E+02 -0.74055498719E+02  0.94377808681E+02  0.10000000000E+01 0.  0.
    9000005    1    3    3    0    0  0.43731775951E+01 -0.58333774081E+02 -0.19199312351E+02  0.61575705238E+02  0.10000000000E+01 0.  0.
<mgrwt>
<rscale>  0 0.12500015E+03</rscale>
<asrwt>0</asrwt>
<pdfrwt beam="2">  1        4 0.19169871E-01 0.12500015E+03</pdfrwt>
<pdfrwt beam="1">  1       -4 0.48229772E-02 0.12500015E+03</pdfrwt>
<totfact> 0.98128295E+03</totfact>
</mgrwt>
</event>
<event>
 5    1  0.3422688E-002  0.1250157E+03  0.7818608E-02  0.1235045E+00
         -4   -1    0    0    0  501 -0.00000000000E+00  0.00000000000E+00  0.25025706496E+02  0.25057910640E+02  0.12700000000E+01 0.  1.
          4   -1    0    0  501    0  0.00000000000E+00 -0.00000000000E+00 -0.15599348414E+03  0.15599865382E+03  0.12700000000E+01 0.  1.
         25    2    1    2    0    0  0.00000000000E+00  0.00000000000E+00 -0.13096777764E+03  0.18105656446E+03  0.12501568203E+03 0.  0.
    9000005    1    3    3    0    0 -0.29057632210E+02  0.22117954200E+02 -0.13894249631E+03  0.14366477358E+03  0.10000000000E+01 0.  0.
    9000005    1    3    3    0    0  0.29057632210E+02 -0.22117954200E+02  0.79747186626E+01  0.37391790882E+02  0.10000000000E+01 0.  0.
<mgrwt>
<rscale>  0 0.12501568E+03</rscale>
<asrwt>0</asrwt>
<pdfrwt beam="2">  1        4 0.24001872E-01 0.12501568E+03</pdfrwt>
<pdfrwt beam="1">  1       -4 0.38529837E-02 0.12501568E+03</pdfrwt>
<totfact> 0.93394323E+03</totfact>
</mgrwt>
</event>
<event>
 5    1  0.3422688E-002  0.1250017E+03  0.7818608E-02  0.1235067E+00
          4   -1    0    0  501    0  0.00000000000E+00  0.00000000000E+00  0.47625164455E+02  0.47642094720E+02  0.12700000000E+01 0. -1.
         -4   -1    0    0    0  501 -0.00000000000E+00 -0.00000000000E+00 -0.81986480427E+02  0.81996316215E+02  0.12700000000E+01 0. -1.
         25    2    1    2    0    0  0.00000000000E+00  0.00000000000E+00 -0.34361315973E+02  0.12963841094E+03  0.12500167021E+03 0.  0.
    9000005    1    3    3    0    0  0.17735240685E+02  0.33055826243E+02  0.34654595269E+02  0.51080009632E+02  0.10000000000E+01 0.  0.
    9000005    1    3    3    0    0 -0.17735240685E+02 -0.33055826243E+02 -0.69015911242E+02  0.78558401303E+02  0.10000000000E+01 0.  0.
<mgrwt>
<rscale>  0 0.12500167E+03</rscale>
<asrwt>0</asrwt>
<pdfrwt beam="1">  1        4 0.73290073E-02 0.12500167E+03</pdfrwt>
<pdfrwt beam="2">  1       -4 0.12615364E-01 0.12500167E+03</pdfrwt>
<totfact> 0.10351858E+04</totfact>
</mgrwt>
</event>
<event>
 5    1  0.3422688E-002  0.1250014E+03  0.7818608E-02  0.1235067E+00
          4   -1    0    0  501    0  0.00000000000E+00  0.00000000000E+00  0.66847306093E+01  0.68043018245E+01  0.12700000000E+01 0.  1.
         -4   -1    0    0    0  501 -0.00000000000E+00 -0.00000000000E+00 -0.57906720489E+03  0.57906859756E+03  0.12700000000E+01 0.  1.
         25    2    1    2    0    0  0.00000000000E+00  0.00000000000E+00 -0.57238247428E+03  0.58587289939E+03  0.12500142947E+03 0.  0.
    9000005    1    3    3    0    0 -0.12292850831E+02  0.23508028879E+02 -0.20992279825E+02  0.33844015950E+02  0.10000000000E+01 0.  0.
    9000005    1    3    3    0    0  0.12292850831E+02 -0.23508028879E+02 -0.55139019446E+03  0.55202888344E+03  0.10000000000E+01 0.  0.
<mgrwt>
<rscale>  0 0.12500143E+03</rscale>
<asrwt>0</asrwt>
<pdfrwt beam="1">  1        4 0.10377255E-02 0.12500143E+03</pdfrwt>
<pdfrwt beam="2">  1       -4 0.89096528E-01 0.12500143E+03</pdfrwt>
<totfact> 0.49770126E+03</totfact>
</mgrwt>
</event>
<event>
 5    1  0.3422688E-002  0.1250059E+03  0.7818608E-02  0.1235060E+00
         -4   -1    0    0    0  501 -0.00000000000E+00  0.00000000000E+00  0.11231129001E+02  0.11302705811E+02  0.12700000000E+01 0.  1.
          4   -1    0    0  501    0  0.00000000000E+00 -0.00000000000E+00 -0.34666097128E+03  0.34666329761E+03  0.12700000000E+01 0.  1.
         25    2    1    2    0    0  0.00000000000E+00  0.00000000000E+00 -0.33542984228E+03  0.35796600342E+03  0.12500592191E+03 0.  0.
    9000005    1    3    3    0    0 -0.55755760509E+02 -0.24375993156E+02 -0.12694252872E+03  0.14077748211E+03  0.10000000000E+01 0.  0.
    9000005    1    3    3    0    0  0.55755760509E+02  0.24375993156E+02 -0.20848731356E+03  0.21718852131E+03  0.10000000000E+01 0.  0.
<mgrwt>
<rscale>  0 0.12500592E+03</rscale>
<asrwt>0</asrwt>
<pdfrwt beam="2">  1        4 0.53338134E-01 0.12500592E+03</pdfrwt>
<pdfrwt beam="1">  1       -4 0.17335511E-02 0.12500592E+03</pdfrwt>
<totfact> 0.68847982E+03</totfact>
</mgrwt>
</event>
<event>
 5    1  0.3422688E-002  0.1249951E+03  0.7818608E-02  0.1235077E+00
         -4   -1    0    0    0  501 -0.00000000000E+00  0.00000000000E+00  0.17991781650E+02  0.18036549197E+02  0.12700000000E+01 0.  1.
          4   -1    0    0  501    0  0.00000000000E+00 -0.00000000000E+00 -0.21677957053E+03  0.21678329063E+03  0.12700000000E+01 0.  1.
         25    2    1    2    0    0  0.00000000000E+00  0.00000000000E+00 -0.19878778888E+03  0.23481983983E+03  0.12499508859E+03 0.  0.
    9000005    1    3    3    0    0 -0.39686075758E+02 -0.21624210213E+02 -0.18046623658E+03  0.18604207487E+03  0.10000000000E+01 0.  0.
    9000005    1    3    3    0    0  0.39686075758E+02  0.21624210213E+02 -0.18321552303E+02  0.48777764967E+02  0.10000000000E+01 0.  0.
<mgrwt>
<rscale>  0 0.12499509E+03</rscale>
<asrwt>0</asrwt>
<pdfrwt beam="2">  1        4 0.33354431E-01 0.12499509E+03</pdfrwt>
<pdfrwt beam="1">  1       -4 0.27716964E-02 0.12499509E+03</pdfrwt>
<totfact> 0.84584225E+03</totfact>
</mgrwt>
</event>
<event>
 5    1  0.3422688E-002  0.1250008E+03  0.7818608E-02  0.1235068E+00
         -4   -1    0    0    0  501 -0.00000000000E+00  0.00000000000E+00  0.21547787289E+02  0.21585180960E+02  0.12700000000E+01 0. -1.
          4   -1    0    0  501    0  0.00000000000E+00 -0.00000000000E+00 -0.18108876314E+03  0.18109321643E+03  0.12700000000E+01 0. -1.
         25    2    1    2    0    0  0.00000000000E+00  0.00000000000E+00 -0.15954097585E+03  0.20267839739E+03  0.12500083917E+03 0.  0.
    9000005    1    3    3    0    0  0.56030175177E+02 -0.25457363658E+02 -0.97371972127E+02  0.11519443932E+03  0.10000000000E+01 0.  0.
    9000005    1    3    3    0    0 -0.56030175177E+02  0.25457363658E+02 -0.62169003728E+02  0.87483958068E+02  0.10000000000E+01 0.  0.
<mgrwt>
<rscale>  0 0.12500084E+03</rscale>
<asrwt>0</asrwt>
<pdfrwt beam="2">  1        4 0.27863028E-01 0.12500084E+03</pdfrwt>
<pdfrwt beam="1">  1       -4 0.33182633E-02 0.12500084E+03</pdfrwt>
<totfact> 0.89684048E+03</totfact>
</mgrwt>
</event>
<event>
 5    1  0.3422688E-002  0.1250022E+03  0.7818608E-02  0.1235066E+00
         -4   -1    0    0    0  501 -0.00000000000E+00  0.00000000000E+00  0.12598966709E+03  0.12599606785E+03  0.12700000000E+01 0.  1.
          4   -1    0    0  501    0  0.00000000000E+00 -0.00000000000E+00 -0.30985404216E+02  0.31011420065E+02  0.12700000000E+01 0.  1.
         25    2    1    2    0    0  0.00000000000E+00  0.00000000000E+00  0.95004262874E+02  0.15700748791E+03  0.12500216517E+03 0.  0.
    9000005    1    3    3    0    0 -0.13677346838E+02 -0.51914597033E+02  0.73248082022E+01  0.54192693390E+02  0.10000000000E+01 0.  0.
    9000005    1    3    3    0    0  0.13677346838E+02  0.51914597033E+02  0.87679454672E+02  0.10281479452E+03  0.10000000000E+01 0.  0.
<mgrwt>
<rscale>  0 0.12500217E+03</rscale>
<asrwt>0</asrwt>
<pdfrwt beam="2">  1        4 0.47694788E-02 0.12500217E+03</pdfrwt>
<pdfrwt beam="1">  1       -4 0.19385520E-01 0.12500217E+03</pdfrwt>
<totfact> 0.97918072E+03</totfact>
</mgrwt>
</event>
<event>
 5    1  0.3422688E-002  0.1250007E+03  0.7818608E-02  0.1235068E+00
          4   -1    0    0  501    0  0.00000000000E+00  0.00000000000E+00  0.11554805204E+03  0.11555503117E+03  0.12700000000E+01 0.  1.
         -4   -1    0    0    0  501 -0.00000000000E+00 -0.00000000000E+00 -0.33786734202E+02  0.33810594612E+02  0.12700000000E+01 0.  1.
         25    2    1    2    0    0  0.00000000000E+00  0.00000000000E+00  0.81761317836E+02  0.14936562579E+03  0.12500070829E+03 0.  0.
    9000005    1    3    3    0    0  0.86931786592E+01 -0.21615038837E+02  0.11017059736E+03  0.11261146381E+03  0.10000000000E+01 0.  0.
    9000005    1    3    3    0    0 -0.86931786592E+01  0.21615038837E+02 -0.28409279526E+02  0.36754161973E+02  0.10000000000E+01 0.  0.
<mgrwt>
<rscale>  0 0.12500071E+03</rscale>
<asrwt>0</asrwt>
<pdfrwt beam="1">  1        4 0.17778996E-01 0.12500071E+03</pdfrwt>
<pdfrwt beam="2">  1       -4 0.52003313E-02 0.12500071E+03</pdfrwt>
<totfact> 0.99428716E+03</totfact>
</mgrwt>
</event>
<event>
 5    1  0.3422688E-002  0.1249997E+03  0.7818608E-02  0.1235070E+00
         -4   -1    0    0    0  501 -0.00000000000E+00  0.00000000000E+00  0.30966511019E+03  0.30966771445E+03  0.12700000000E+01 0. -1.
          4   -1    0    0  501    0  0.00000000000E+00 -0.00000000000E+00 -0.12579746694E+02  0.12643691189E+02  0.12700000000E+01 0. -1.
         25    2    1    2    0    0  0.00000000000E+00  0.00000000000E+00  0.29708536350E+03  0.32231140564E+03  0.12499971599E+03 0.  0.
    9000005    1    3    3    0    0 -0.29227876896E+02 -0.16122187414E+02  0.12319956571E+02  0.35594592915E+02  0.10000000000E+01 0.  0.
    9000005    1    3    3    0    0  0.29227876896E+02  0.16122187414E+02  0.28476540693E+03  0.28671681272E+03  0.10000000000E+01 0.  0.
<mgrwt>
<rscale>  0 0.12499972E+03</rscale>
<asrwt>0</asrwt>
<pdfrwt beam="2">  1        4 0.19404647E-02 0.12499972E+03</pdfrwt>
<pdfrwt beam="1">  1       -4 0.47645908E-01 0.12499972E+03</pdfrwt>
<totfact> 0.72882510E+03</totfact>
</mgrwt>
</event>
<event>
 5    1  0.3422688E-002  0.1249986E+03  0.7818608E-02  0.1235071E+00
         -4   -1    0    0    0  501 -0.00000000000E+00  0.00000000000E+00  0.37988834742E+02  0.38010057420E+02  0.12700000000E+01 0. -1.
          4   -1    0    0  501    0  0.00000000000E+00 -0.00000000000E+00 -0.10277012501E+03  0.10277797184E+03  0.12700000000E+01 0. -1.
         25    2    1    2    0    0  0.00000000000E+00  0.00000000000E+00 -0.64781290269E+02  0.14078802926E+03  0.12499861444E+03 0.  0.
    9000005    1    3    3    0    0 -0.43768431297E+02 -0.17512687186E+01 -0.82589772399E+02  0.93492315327E+02  0.10000000000E+01 0.  0.
    9000005    1    3    3    0    0  0.43768431297E+02  0.17512687186E+01  0.17808482129E+02  0.47295713930E+02  0.10000000000E+01 0.  0.
<mgrwt>
<rscale>  0 0.12499861E+03</rscale>
<asrwt>0</asrwt>
<pdfrwt beam="2">  1        4 0.15813024E-01 0.12499861E+03</pdfrwt>
<pdfrwt beam="1">  1       -4 0.58466723E-02 0.12499861E+03</pdfrwt>
<totfact> 0.10117595E+04</totfact>
</mgrwt>
</event>
<event>
 5    1  0.3422688E-002  0.1250236E+03  0.7818608E-02  0.1235032E+00
          4   -1    0    0  501    0  0.00000000000E+00  0.00000000000E+00  0.17204926295E+02  0.17251735821E+02  0.12700000000E+01 0. -1.
         -4   -1    0    0    0  501 -0.00000000000E+00 -0.00000000000E+00 -0.22677127015E+03  0.22677482635E+03  0.12700000000E+01 0. -1.
         25    2    1    2    0    0  0.00000000000E+00  0.00000000000E+00 -0.20956634386E+03  0.24402656217E+03  0.12502364003E+03 0.  0.
    9000005    1    3    3    0    0 -0.31965244763E+02 -0.53217569068E+02 -0.11897149063E+03  0.13419799593E+03  0.10000000000E+01 0.  0.
    9000005    1    3    3    0    0  0.31965244763E+02  0.53217569068E+02 -0.90594853227E+02  0.10982856624E+03  0.10000000000E+01 0.  0.
<mgrwt>
<rscale>  0 0.12502364E+03</rscale>
<asrwt>0</asrwt>
<pdfrwt beam="1">  1        4 0.26507862E-02 0.12502364E+03</pdfrwt>
<pdfrwt beam="2">  1       -4 0.34891760E-01 0.12502364E+03</pdfrwt>
<totfact> 0.83157495E+03</totfact>
</mgrwt>
</event>
<event>
 5    1  0.3422688E-002  0.1250023E+03  0.7818608E-02  0.1235066E+00
          4   -1    0    0  501    0  0.00000000000E+00  0.00000000000E+00  0.25398925950E+01  0.28397102658E+01  0.12700000000E+01 0.  1.
         -4   -1    0    0    0  501 -0.00000000000E+00 -0.00000000000E+00 -0.14519972491E+04  0.14519978045E+04  0.12700000000E+01 0.  1.
         25    2    1    2    0    0  0.00000000000E+00  0.00000000000E+00 -0.14494573565E+04  0.14548375148E+04  0.12500226424E+03 0.  0.
    9000005    1    3    3    0    0  0.49256375234E+02  0.37674677879E+02 -0.63471291087E+03  0.63773587877E+03  0.10000000000E+01 0.  0.
    9000005    1    3    3    0    0 -0.49256375234E+02 -0.37674677879E+02 -0.81474444568E+03  0.81710163604E+03  0.10000000000E+01 0.  0.
<mgrwt>
<rscale>  0 0.12500226E+03</rscale>
<asrwt>0</asrwt>
<pdfrwt beam="1">  1        4 0.41385949E-03 0.12500226E+03</pdfrwt>
<pdfrwt beam="2">  1       -4 0.22340667E+00 0.12500226E+03</pdfrwt>
<totfact> 0.18833019E+03</totfact>
</mgrwt>
</event>
<event>
 5    1  0.3422688E-002  0.1250023E+03  0.7818608E-02  0.1235066E+00
         -4   -1    0    0    0  501 -0.00000000000E+00  0.00000000000E+00  0.41837080320E+02  0.41856351844E+02  0.12700000000E+01 0.  1.
          4   -1    0    0  501    0  0.00000000000E+00 -0.00000000000E+00 -0.93326409132E+02  0.93335049908E+02  0.12700000000E+01 0.  1.
         25    2    1    2    0    0  0.00000000000E+00  0.00000000000E+00 -0.51489328811E+02  0.13519140175E+03  0.12500225649E+03 0.  0.
    9000005    1    3    3    0    0 -0.20820473769E+02  0.16364758036E+02 -0.86963323878E+02  0.90911589654E+02  0.10000000000E+01 0.  0.
    9000005    1    3    3    0    0  0.20820473769E+02 -0.16364758036E+02  0.35473995066E+02  0.44279812099E+02  0.10000000000E+01 0.  0.
<mgrwt>
<rscale>  0 0.12500226E+03</rscale>
<asrwt>0</asrwt>
<pdfrwt beam="2">  1        4 0.14360056E-01 0.12500226E+03</pdfrwt>
<pdfrwt beam="1">  1       -4 0.64386210E-02 0.12500226E+03</pdfrwt>
<totfact> 0.10233517E+04</totfact>
</mgrwt>
</event>
<event>
 5    1  0.3422688E-002  0.1250277E+03  0.7818608E-02  0.1235026E+00
          4   -1    0    0  501    0  0.00000000000E+00  0.00000000000E+00  0.22867824774E+01  0.26157740917E+01  0.12700000000E+01 0.  1.
         -4   -1    0    0    0  501 -0.00000000000E+00 -0.00000000000E+00 -0.15939338243E+04  0.15939343302E+04  0.12700000000E+01 0.  1.
         25    2    1    2    0    0  0.00000000000E+00  0.00000000000E+00 -0.15916470418E+04  0.15965501043E+04  0.12502771664E+03 0.  0.
    9000005    1    3    3    0    0 -0.31119956899E+02  0.12513997902E+02 -0.14693418206E+04  0.14697249530E+04  0.10000000000E+01 0.  0.
    9000005    1    3    3    0    0  0.31119956899E+02 -0.12513997902E+02 -0.12230522120E+03  0.12682515127E+03  0.10000000000E+01 0.  0.
<mgrwt>
<rscale>  0 0.12502772E+03</rscale>
<asrwt>0</asrwt>
<pdfrwt beam="1">  1        4 0.37715993E-03 0.12502772E+03</pdfrwt>
<pdfrwt beam="2">  1       -4 0.24524511E+00 0.12502772E+03</pdfrwt>
<totfact> 0.16098849E+03</totfact>
</mgrwt>
</event>
<event>
 5    1  0.3422688E-002  0.1249956E+03  0.7818608E-02  0.1235076E+00
          4   -1    0    0  501    0  0.00000000000E+00  0.00000000000E+00  0.79686115906E+03  0.79686217109E+03  0.12700000000E+01 0. -1.
         -4   -1    0    0    0  501 -0.00000000000E+00 -0.00000000000E+00 -0.48184029446E+01  0.49829616632E+01  0.12700000000E+01 0. -1.
         25    2    1    2    0    0  0.00000000000E+00  0.00000000000E+00  0.79204275611E+03  0.80184513275E+03  0.12499555756E+03 0.  0.
    9000005    1    3    3    0    0 -0.12975930965E+02  0.60635148418E+02  0.34634088304E+03  0.35184940425E+03  0.10000000000E+01 0.  0.
    9000005    1    3    3    0    0  0.12975930965E+02 -0.60635148418E+02  0.44570187307E+03  0.44999572850E+03  0.10000000000E+01 0.  0.
<mgrwt>
<rscale>  0 0.12499556E+03</rscale>
<asrwt>0</asrwt>
<pdfrwt beam="1">  1        4 0.12260694E+00 0.12499556E+03</pdfrwt>
<pdfrwt beam="2">  1       -4 0.75402787E-03 0.12499556E+03</pdfrwt>
<totfact> 0.38186139E+03</totfact>
</mgrwt>
</event>
<event>
 5    1  0.3422688E-002  0.1250005E+03  0.7818608E-02  0.1235068E+00
         -4   -1    0    0    0  501 -0.00000000000E+00  0.00000000000E+00  0.12530811775E+04  0.12530818210E+04  0.12700000000E+01 0.  1.
          4   -1    0    0  501    0  0.00000000000E+00 -0.00000000000E+00 -0.29873223810E+01  0.32460737835E+01  0.12700000000E+01 0.  1.
         25    2    1    2    0    0  0.00000000000E+00  0.00000000000E+00  0.12500938551E+04  0.12563278948E+04  0.12500053116E+03 0.  0.
    9000005    1    3    3    0    0  0.26737313597E+02  0.36344550457E+02  0.10596079124E+04  0.10605685920E+04  0.10000000000E+01 0.  0.
    9000005    1    3    3    0    0 -0.26737313597E+02 -0.36344550457E+02  0.19048594265E+03  0.19575930280E+03  0.10000000000E+01 0.  0.
<mgrwt>
<rscale>  0 0.12500053E+03</rscale>
<asrwt>0</asrwt>
<pdfrwt beam="2">  1        4 0.47954071E-03 0.12500053E+03</pdfrwt>
<pdfrwt beam="1">  1       -4 0.19280200E+00 0.12500053E+03</pdfrwt>
<totfact> 0.23282961E+03</totfact>
</mgrwt>
</event>
<event>
 5    1  0.3422688E-002  0.1249982E+03  0.7818608E-02  0.1235072E+00
          4   -1    0    0  501    0  0.00000000000E+00  0.00000000000E+00  0.35920641965E+03  0.35920866473E+03  0.12700000000E+01 0. -1.
         -4   -1    0    0    0  501 -0.00000000000E+00 -0.00000000000E+00 -0.10834981661E+02  0.10909157969E+02  0.12700000000E+01 0. -1.
         25    2    1    2    0    0  0.00000000000E+00  0.00000000000E+00  0.34837143798E+03  0.37011782270E+03  0.12499817548E+03 0.  0.
    9000005    1    3    3    0    0  0.50423618215E+02  0.81195571386E+01  0.67562783466E+02  0.84700638674E+02  0.10000000000E+01 0.  0.
    9000005    1    3    3    0    0 -0.50423618215E+02 -0.81195571386E+01  0.28080865452E+03  0.28541718402E+03  0.10000000000E+01 0.  0.
<mgrwt>
<rscale>  0 0.12499818E+03</rscale>
<asrwt>0</asrwt>
<pdfrwt beam="1">  1        4 0.55268394E-01 0.12499818E+03</pdfrwt>
<pdfrwt beam="2">  1       -4 0.16727991E-02 0.12499818E+03</pdfrwt>
<totfact> 0.67569343E+03</totfact>
</mgrwt>
</event>
<event>
 5    1  0.3422688E-002  0.1249998E+03  0.7818608E-02  0.1235070E+00
          4   -1    0    0  501    0  0.00000000000E+00  0.00000000000E+00  0.12446527771E+03  0.12447175686E+03  0.12700000000E+01 0.  1.
         -4   -1    0    0    0  501 -0.00000000000E+00 -0.00000000000E+00 -0.31363989972E+02  0.31389692050E+02  0.12700000000E+01 0.  1.
         25    2    1    2    0    0  0.00000000000E+00  0.00000000000E+00  0.93101287737E+02  0.15586144891E+03  0.12499976591E+03 0.  0.
    9000005    1    3    3    0    0 -0.49057138776E+02 -0.23763028840E+02  0.84448032173E+01  0.55168823677E+02  0.10000000000E+01 0.  0.
    9000005    1    3    3    0    0  0.49057138776E+02  0.23763028840E+02  0.84656484520E+02  0.10069262523E+03  0.10000000000E+01 0.  0.
<mgrwt>
<rscale>  0 0.12499977E+03</rscale>
<asrwt>0</asrwt>
<pdfrwt beam="1">  1        4 0.19150980E-01 0.12499977E+03</pdfrwt>
<pdfrwt beam="2">  1       -4 0.48277047E-02 0.12499977E+03</pdfrwt>
<totfact> 0.98147167E+03</totfact>
</mgrwt>
</event>
<event>
 5    1  0.3422688E-002  0.1250041E+03  0.7818608E-02  0.1235063E+00
         -4   -1    0    0    0  501 -0.00000000000E+00  0.00000000000E+00  0.41661768887E+02  0.41681121468E+02  0.12700000000E+01 0.  1.
          4   -1    0    0  501    0  0.00000000000E+00 -0.00000000000E+00 -0.93721763996E+02  0.93730368326E+02  0.12700000000E+01 0.  1.
         25    2    1    2    0    0  0.00000000000E+00  0.00000000000E+00 -0.52059995109E+02  0.13541148979E+03  0.12500411384E+03 0.  0.
    9000005    1    3    3    0    0  0.50075067826E+02 -0.44227204789E+01  0.14188351357E+02  0.52243489436E+02  0.10000000000E+01 0.  0.
    9000005    1    3    3    0    0 -0.50075067826E+02  0.44227204789E+01 -0.66248346466E+02  0.83168000359E+02  0.10000000000E+01 0.  0.
<mgrwt>
<rscale>  0 0.12500411E+03</rscale>
<asrwt>0</asrwt>
<pdfrwt beam="2">  1        4 0.14420883E-01 0.12500411E+03</pdfrwt>
<pdfrwt beam="1">  1       -4 0.64116535E-02 0.12500411E+03</pdfrwt>
<totfact> 0.10228456E+04</totfact>
</mgrwt>
</event>
<event>
 5    1  0.3422688E-002  0.1249963E+03  0.7818608E-02  0.1235075E+00
          4   -1    0    0  501    0  0.00000000000E+00  0.00000000000E+00  0.93743797190E+03  0.93743883217E+03  0.12700000000E+01 0.  1.
         -4   -1    0    0    0  501 -0.00000000000E+00 -0.00000000000E+00 -0.40690422789E+01  0.42626288916E+01  0.12700000000E+01 0.  1.
         25    2    1    2    0    0  0.00000000000E+00  0.00000000000E+00  0.93336892963E+03  0.94170146107E+03  0.12499633188E+03 0.  0.
    9000005    1    3    3    0    0  0.40805091989E+02 -0.23990526323E+01  0.82278936359E+03  0.82380467820E+03  0.10000000000E+01 0.  0.
    9000005    1    3    3    0    0 -0.40805091989E+02  0.23990526323E+01  0.11057956604E+03  0.11789678287E+03  0.10000000000E+01 0.  0.
<mgrwt>
<rscale>  0 0.12499633E+03</rscale>
<asrwt>0</asrwt>
<pdfrwt beam="1">  1        4 0.14423632E+00 0.12499633E+03</pdfrwt>
<pdfrwt beam="2">  1       -4 0.64096334E-03 0.12499633E+03</pdfrwt>
<totfact> 0.32615024E+03</totfact>
</mgrwt>
</event>
<event>
 5    1  0.3422688E-002  0.1249987E+03  0.7818608E-02  0.1235071E+00
         -4   -1    0    0    0  501 -0.00000000000E+00  0.00000000000E+00  0.37463243129E+03  0.37463458392E+03  0.12700000000E+01 0.  1.
          4   -1    0    0  501    0  0.00000000000E+00 -0.00000000000E+00 -0.10385807008E+02  0.10463168125E+02  0.12700000000E+01 0.  1.
         25    2    1    2    0    0  0.00000000000E+00  0.00000000000E+00  0.36424662428E+03  0.38509775205E+03  0.12499870133E+03 0.  0.
    9000005    1    3    3    0    0 -0.20482868362E+02  0.16597898599E+02  0.75705039829E+01  0.27447234192E+02  0.10000000000E+01 0.  0.
    9000005    1    3    3    0    0  0.20482868362E+02 -0.16597898599E+02  0.35667612029E+03  0.35765051786E+03  0.10000000000E+01 0.  0.
<mgrwt>
<rscale>  0 0.12499870E+03</rscale>
<asrwt>0</asrwt>
<pdfrwt beam="2">  1        4 0.16039326E-02 0.12499870E+03</pdfrwt>
<pdfrwt beam="1">  1       -4 0.57641885E-01 0.12499870E+03</pdfrwt>
<totfact> 0.66030324E+03</totfact>
</mgrwt>
</event>
<event>
 5    1  0.3422688E-002  0.1250010E+03  0.7818608E-02  0.1235068E+00
         -4   -1    0    0    0  501 -0.00000000000E+00  0.00000000000E+00  0.11980278740E+02  0.12047405476E+02  0.12700000000E+01 0. -1.
          4   -1    0    0  501    0  0.00000000000E+00 -0.00000000000E+00 -0.32508254519E+03  0.32508502594E+03  0.12700000000E+01 0. -1.
         25    2    1    2    0    0  0.00000000000E+00  0.00000000000E+00 -0.31310226645E+03  0.33713243141E+03  0.12500098821E+03 0.  0.
    9000005    1    3    3    0    0  0.52445026171E+02  0.29220038442E+02 -0.20334457740E+03  0.21202431128E+03  0.10000000000E+01 0.  0.
    9000005    1    3    3    0    0 -0.52445026171E+02 -0.29220038442E+02 -0.10975768905E+03  0.12510812013E+03  0.10000000000E+01 0.  0.
<mgrwt>
<rscale>  0 0.12500099E+03</rscale>
<asrwt>0</asrwt>
<pdfrwt beam="2">  1        4 0.50018047E-01 0.12500099E+03</pdfrwt>
<pdfrwt beam="1">  1       -4 0.18484745E-02 0.12500099E+03</pdfrwt>
<totfact> 0.71162182E+03</totfact>
</mgrwt>
</event>
<event>
 5    1  0.3422688E-002  0.1249958E+03  0.7818608E-02  0.1235076E+00
          4   -1    0    0  501    0  0.00000000000E+00  0.00000000000E+00  0.37731141037E+03  0.37731354772E+03  0.12700000000E+01 0. -1.
         -4   -1    0    0    0  501 -0.00000000000E+00 -0.00000000000E+00 -0.10311032418E+02  0.10388950357E+02  0.12700000000E+01 0. -1.
         25    2    1    2    0    0  0.00000000000E+00  0.00000000000E+00  0.36700037795E+03  0.38770249808E+03  0.12499579833E+03 0.  0.
    9000005    1    3    3    0    0  0.54779956357E+02  0.24568764328E+02  0.12973024469E+03  0.14295245428E+03  0.10000000000E+01 0.  0.
    9000005    1    3    3    0    0 -0.54779956357E+02 -0.24568764328E+02  0.23727013326E+03  0.24475004379E+03  0.10000000000E+01 0.  0.
<mgrwt>
<rscale>  0 0.12499580E+03</rscale>
<asrwt>0</asrwt>
<pdfrwt beam="1">  1        4 0.58054060E-01 0.12499580E+03</pdfrwt>
<pdfrwt beam="2">  1       -4 0.15924710E-02 0.12499580E+03</pdfrwt>
<totfact> 0.65772771E+03</totfact>
</mgrwt>
</event>
<event>
 5    1  0.3422688E-002  0.1249949E+03  0.7818608E-02  0.1235077E+00
         -4   -1    0    0    0  501 -0.00000000000E+00  0.00000000000E+00  0.13286473228E+02  0.13347032286E+02  0.12700000000E+01 0.  1.
          4   -1    0    0  501    0  0.00000000000E+00 -0.00000000000E+00 -0.29324747413E+03  0.29325022419E+03  0.12700000000E+01 0.  1.
         25    2    1    2    0    0  0.00000000000E+00  0.00000000000E+00 -0.27996100090E+03  0.30659725647E+03  0.12499486249E+03 0.  0.
    9000005    1    3    3    0    0 -0.22657152381E+00 -0.47847992558E+02 -0.41392857571E+02  0.63275985843E+02  0.10000000000E+01 0.  0.
    9000005    1    3    3    0    0  0.22657152381E+00  0.47847992558E+02 -0.23856814333E+03  0.24332127063E+03  0.10000000000E+01 0.  0.
<mgrwt>
<rscale>  0 0.12499486E+03</rscale>
<asrwt>0</asrwt>
<pdfrwt beam="2">  1        4 0.45119861E-01 0.12499486E+03</pdfrwt>
<pdfrwt beam="1">  1       -4 0.20489430E-02 0.12499486E+03</pdfrwt>
<totfact> 0.74787201E+03</totfact>
</mgrwt>
</event>
<event>
 5    1  0.3422688E-002  0.1249961E+03  0.7818608E-02  0.1235075E+00
          4   -1    0    0  501    0  0.00000000000E+00  0.00000000000E+00  0.57709814601E+02  0.57723787136E+02  0.12700000000E+01 0.  1.
         -4   -1    0    0    0  501 -0.00000000000E+00 -0.00000000000E+00 -0.67655415482E+02  0.67667334394E+02  0.12700000000E+01 0.  1.
         25    2    1    2    0    0  0.00000000000E+00  0.00000000000E+00 -0.99456008810E+01  0.12539112153E+03  0.12499607346E+03 0.  0.
    9000005    1    3    3    0    0 -0.72786195486E+01  0.43666680025E+02 -0.49217151767E+02  0.66204873499E+02  0.10000000000E+01 0.  0.
    9000005    1    3    3    0    0  0.72786195486E+01 -0.43666680025E+02  0.39271550886E+02  0.59186248031E+02  0.10000000000E+01 0.  0.
<mgrwt>
<rscale>  0 0.12499607E+03</rscale>
<asrwt>0</asrwt>
<pdfrwt beam="1">  1        4 0.88804247E-02 0.12499607E+03</pdfrwt>
<pdfrwt beam="2">  1       -4 0.10410517E-01 0.12499607E+03</pdfrwt>
<totfact> 0.10445288E+04</totfact>
</mgrwt>
</event>
<event>
 5    1  0.3422688E-002  0.1249908E+03  0.7818608E-02  0.1235084E+00
          4   -1    0    0  501    0  0.00000000000E+00  0.00000000000E+00  0.10666298743E+02  0.10741639953E+02  0.12700000000E+01 0.  1.
         -4   -1    0    0    0  501 -0.00000000000E+00 -0.00000000000E+00 -0.36480467465E+03  0.36480688528E+03  0.12700000000E+01 0.  1.
         25    2    1    2    0    0  0.00000000000E+00  0.00000000000E+00 -0.35413837591E+03  0.37554852523E+03  0.12499082172E+03 0.  0.
    9000005    1    3    3    0    0 -0.34657650556E+02  0.50455088776E+02 -0.13932483645E+03  0.15218172944E+03  0.10000000000E+01 0.  0.
    9000005    1    3    3    0    0  0.34657650556E+02 -0.50455088776E+02 -0.21481353946E+03  0.22336679579E+03  0.10000000000E+01 0.  0.
<mgrwt>
<rscale>  0 0.12499082E+03</rscale>
<asrwt>0</asrwt>
<pdfrwt beam="1">  1        4 0.16469348E-02 0.12499082E+03</pdfrwt>
<pdfrwt beam="2">  1       -4 0.56129752E-01 0.12499082E+03</pdfrwt>
<totfact> 0.67016023E+03</totfact>
</mgrwt>
</event>
<event>
 5    1  0.3422688E-002  0.1249976E+03  0.7818608E-02  0.1235073E+00
         -4   -1    0    0    0  501 -0.00000000000E+00  0.00000000000E+00  0.23575763503E+03  0.23576105568E+03  0.12700000000E+01 0. -1.
          4   -1    0    0  501    0  0.00000000000E+00 -0.00000000000E+00 -0.16540399353E+02  0.16589084084E+02  0.12700000000E+01 0. -1.
         25    2    1    2    0    0  0.00000000000E+00  0.00000000000E+00  0.21921723567E+03  0.25235013976E+03  0.12499758646E+03 0.  0.
    9000005    1    3    3    0    0 -0.28524169404E+02  0.51979857078E+02  0.14945529359E+03  0.16078998278E+03  0.10000000000E+01 0.  0.
    9000005    1    3    3    0    0  0.28524169404E+02 -0.51979857078E+02  0.69761942087E+02  0.91560156978E+02  0.10000000000E+01 0.  0.
<mgrwt>
<rscale>  0 0.12499759E+03</rscale>
<asrwt>0</asrwt>
<pdfrwt beam="2">  1        4 0.25486850E-02 0.12499759E+03</pdfrwt>
<pdfrwt beam="1">  1       -4 0.36274412E-01 0.12499759E+03</pdfrwt>
<totfact> 0.81996150E+03</totfact>
</mgrwt>
</event>
