<event>
 5    1  0.3188180E-002  0.1249961E+03  0.7818608E-02  0.1235075E+00
         -4   -1    0    0    0  501 -0.00000000000E+00  0.00000000000E+00  0.75406700498E+03  0.75406807445E+03  0.12700000000E+01 0.  1.
          4   -1    0    0  501    0  0.00000000000E+00 -0.00000000000E+00 -0.51009877944E+01  0.52567077604E+01  0.12700000000E+01 0.  1.
         25    2    1    2    0    0  0.00000000000E+00  0.00000000000E+00  0.74896601719E+03  0.75932478221E+03  0.12499611984E+03 0.  0.
    9000005    1    3    3    0    0 -0.31770947596E+02 -0.30308919482E+02  0.64458799133E+03  0.64608258162E+03  0.10000000000E+01 0.  0.
    9000005    1    3    3    0    0  0.31770947596E+02  0.30308919482E+02  0.10437802586E+03  0.11324220059E+03  0.10000000000E+01 0.  0.
<mgrwt>
<rscale>  0 0.12499612E+03</rscale>
<asrwt>0</asrwt>
<pdfrwt beam="2">  1        4 0.79682835E-03 0.12499612E+03</pdfrwt>
<pdfrwt beam="1">  1       -4 0.11602233E+00 0.12499612E+03</pdfrwt>
<totfact> 0.40135472E+03</totfact>
</mgrwt>
</event>
<event>
 5    1  0.3188180E-002  0.1250042E+03  0.7818608E-02  0.1235063E+00
         -4   -1    0    0    0  501 -0.00000000000E+00  0.00000000000E+00  0.23873735261E+02  0.23907491196E+02  0.12700000000E+01 0. -1.
          4   -1    0    0  501    0  0.00000000000E+00 -0.00000000000E+00 -0.16348047799E+03  0.16348541092E+03  0.12700000000E+01 0. -1.
         25    2    1    2    0    0  0.00000000000E+00  0.00000000000E+00 -0.13960674272E+03  0.18739290211E+03  0.12500422852E+03 0.  0.
    9000005    1    3    3    0    0  0.29417547633E+02 -0.54414918488E+02 -0.56467443744E+02  0.83761253965E+02  0.10000000000E+01 0.  0.
    9000005    1    3    3    0    0 -0.29417547633E+02  0.54414918488E+02 -0.83139298980E+02  0.10363164815E+03  0.10000000000E+01 0.  0.
<mgrwt>
<rscale>  0 0.12500423E+03</rscale>
<asrwt>0</asrwt>
<pdfrwt beam="2">  1        4 0.25153818E-01 0.12500423E+03</pdfrwt>
<pdfrwt beam="1">  1       -4 0.36758585E-02 0.12500423E+03</pdfrwt>
<totfact> 0.92294186E+03</totfact>
</mgrwt>
</event>
<event>
 5    1  0.3188180E-002  0.1250006E+03  0.7818608E-02  0.1235068E+00
         -4   -1    0    0    0  501 -0.00000000000E+00  0.00000000000E+00  0.74198177663E+02  0.74209045732E+02  0.12700000000E+01 0. -1.
          4   -1    0    0  501    0  0.00000000000E+00 -0.00000000000E+00 -0.52624322642E+02  0.52639645074E+02  0.12700000000E+01 0. -1.
         25    2    1    2    0    0  0.00000000000E+00  0.00000000000E+00  0.21573855021E+02  0.12684869081E+03  0.12500063655E+03 0.  0.
    9000005    1    3    3    0    0  0.18136968825E+02  0.58390523453E+02 -0.23225357603E+01  0.61194746830E+02  0.10000000000E+01 0.  0.
    9000005    1    3    3    0    0 -0.18136968825E+02 -0.58390523453E+02  0.23896390781E+02  0.65653943976E+02  0.10000000000E+01 0.  0.
<mgrwt>
<rscale>  0 0.12500064E+03</rscale>
<asrwt>0</asrwt>
<pdfrwt beam="2">  1        4 0.80980643E-02 0.12500064E+03</pdfrwt>
<pdfrwt beam="1">  1       -4 0.11417119E-01 0.12500064E+03</pdfrwt>
<totfact> 0.10412285E+04</totfact>
</mgrwt>
</event>
<event>
 5    1  0.3188180E-002  0.1249997E+03  0.7818608E-02  0.1235070E+00
          4   -1    0    0  501    0  0.00000000000E+00  0.00000000000E+00  0.11401116923E+03  0.11401824244E+03  0.12700000000E+01 0.  1.
         -4   -1    0    0    0  501 -0.00000000000E+00 -0.00000000000E+00 -0.34241921103E+02  0.34265464550E+02  0.12700000000E+01 0.  1.
         25    2    1    2    0    0  0.00000000000E+00  0.00000000000E+00  0.79769248125E+02  0.14828370699E+03  0.12499969925E+03 0.  0.
    9000005    1    3    3    0    0  0.40299214194E+01  0.59101482226E+02  0.63491319894E+02  0.86841079966E+02  0.10000000000E+01 0.  0.
    9000005    1    3    3    0    0 -0.40299214194E+01 -0.59101482226E+02  0.16277928231E+02  0.61442627022E+02  0.10000000000E+01 0.  0.
<mgrwt>
<rscale>  0 0.12499970E+03</rscale>
<asrwt>0</asrwt>
<pdfrwt beam="1">  1        4 0.17542535E-01 0.12499970E+03</pdfrwt>
<pdfrwt beam="2">  1       -4 0.52703429E-02 0.12499970E+03</pdfrwt>
<totfact> 0.99647596E+03</totfact>
</mgrwt>
</event>
<event>
 5    1  0.3188180E-002  0.1250014E+03  0.7818608E-02  0.1235067E+00
          4   -1    0    0  501    0  0.00000000000E+00  0.00000000000E+00  0.90283965118E+02  0.90292897048E+02  0.12700000000E+01 0.  1.
         -4   -1    0    0    0  501 -0.00000000000E+00 -0.00000000000E+00 -0.43246838768E+02  0.43265482356E+02  0.12700000000E+01 0.  1.
         25    2    1    2    0    0  0.00000000000E+00  0.00000000000E+00  0.47037126349E+02  0.13355837940E+03  0.12500139781E+03 0.  0.
    9000005    1    3    3    0    0  0.10712443025E+02 -0.39115108651E+02  0.74318958943E+02  0.84670277067E+02  0.10000000000E+01 0.  0.
    9000005    1    3    3    0    0 -0.10712443025E+02  0.39115108651E+02 -0.27281832593E+02  0.48888102336E+02  0.10000000000E+01 0.  0.
<mgrwt>
<rscale>  0 0.12500140E+03</rscale>
<asrwt>0</asrwt>
<pdfrwt beam="1">  1        4 0.13891962E-01 0.12500140E+03</pdfrwt>
<pdfrwt beam="2">  1       -4 0.66554811E-02 0.12500140E+03</pdfrwt>
<totfact> 0.10268223E+04</totfact>
</mgrwt>
</event>
<event>
 5    1  0.3188180E-002  0.1249974E+03  0.7818608E-02  0.1235073E+00
          4   -1    0    0  501    0  0.00000000000E+00  0.00000000000E+00  0.92192470174E+02  0.92201217219E+02  0.12700000000E+01 0. -1.
         -4   -1    0    0    0  501 -0.00000000000E+00 -0.00000000000E+00 -0.42348576571E+02  0.42367615434E+02  0.12700000000E+01 0. -1.
         25    2    1    2    0    0  0.00000000000E+00  0.00000000000E+00  0.49843893603E+02  0.13456883265E+03  0.12499742794E+03 0.  0.
    9000005    1    3    3    0    0  0.56017054625E+02 -0.18931780415E+02  0.31558241395E+01  0.59222309517E+02  0.10000000000E+01 0.  0.
    9000005    1    3    3    0    0 -0.56017054625E+02  0.18931780415E+02  0.46688069464E+02  0.75346523136E+02  0.10000000000E+01 0.  0.
<mgrwt>
<rscale>  0 0.12499743E+03</rscale>
<asrwt>0</asrwt>
<pdfrwt beam="1">  1        4 0.14185594E-01 0.12499743E+03</pdfrwt>
<pdfrwt beam="2">  1       -4 0.65173031E-02 0.12499743E+03</pdfrwt>
<totfact> 0.10247761E+04</totfact>
</mgrwt>
</event>
<event>
 5    1  0.3188180E-002  0.1249994E+03  0.7818608E-02  0.1235070E+00
          4   -1    0    0  501    0  0.00000000000E+00  0.00000000000E+00  0.71193023515E+01  0.72316917781E+01  0.12700000000E+01 0. -1.
         -4   -1    0    0    0  501 -0.00000000000E+00 -0.00000000000E+00 -0.54426907194E+03  0.54427055365E+03  0.12700000000E+01 0. -1.
         25    2    1    2    0    0  0.00000000000E+00  0.00000000000E+00 -0.53714976959E+03  0.55150224543E+03  0.12499940697E+03 0.  0.
    9000005    1    3    3    0    0 -0.16052245264E+02  0.54696795863E+02 -0.15558887595E+03  0.16570549893E+03  0.10000000000E+01 0.  0.
    9000005    1    3    3    0    0  0.16052245264E+02 -0.54696795863E+02 -0.38156089364E+03  0.38579674650E+03  0.10000000000E+01 0.  0.
<mgrwt>
<rscale>  0 0.12499941E+03</rscale>
<asrwt>0</asrwt>
<pdfrwt beam="1">  1        4 0.11040370E-02 0.12499941E+03</pdfrwt>
<pdfrwt beam="2">  1       -4 0.83742430E-01 0.12499941E+03</pdfrwt>
<totfact> 0.52080074E+03</totfact>
</mgrwt>
</event>
<event>
 5    1  0.3188180E-002  0.1250392E+03  0.7818608E-02  0.1235008E+00
          4   -1    0    0  501    0  0.00000000000E+00  0.00000000000E+00  0.82156223522E+03  0.82156321682E+03  0.12700000000E+01 0. -1.
         -4   -1    0    0    0  501 -0.00000000000E+00 -0.00000000000E+00 -0.46718854175E+01  0.48414267891E+01  0.12700000000E+01 0. -1.
         25    2    1    2    0    0  0.00000000000E+00  0.00000000000E+00  0.81689034980E+03  0.82640464361E+03  0.12503915941E+03 0.  0.
    9000005    1    3    3    0    0 -0.54017448197E+02 -0.24026125758E+02  0.54268748897E+03  0.54589912082E+03  0.10000000000E+01 0.  0.
    9000005    1    3    3    0    0  0.54017448197E+02  0.24026125758E+02  0.27420286083E+03  0.28050552279E+03  0.10000000000E+01 0.  0.
<mgrwt>
<rscale>  0 0.12503916E+03</rscale>
<asrwt>0</asrwt>
<pdfrwt beam="1">  1        4 0.12640715E+00 0.12503916E+03</pdfrwt>
<pdfrwt beam="2">  1       -4 0.73186967E-03 0.12503916E+03</pdfrwt>
<totfact> 0.37081099E+03</totfact>
</mgrwt>
</event>
<event>
 5    1  0.3188180E-002  0.1249971E+03  0.7818608E-02  0.1235074E+00
          4   -1    0    0  501    0  0.00000000000E+00  0.00000000000E+00  0.50395094495E+03  0.50395254520E+03  0.12700000000E+01 0.  1.
         -4   -1    0    0    0  501 -0.00000000000E+00 -0.00000000000E+00 -0.76972430605E+01  0.78013108342E+01  0.12700000000E+01 0.  1.
         25    2    1    2    0    0  0.00000000000E+00  0.00000000000E+00  0.49625370189E+03  0.51175385604E+03  0.12499709008E+03 0.  0.
    9000005    1    3    3    0    0 -0.15277403557E+02 -0.29277375274E+02  0.30925668822E+02  0.45254400388E+02  0.10000000000E+01 0.  0.
    9000005    1    3    3    0    0  0.15277403557E+02  0.29277375274E+02  0.46532803307E+03  0.46649945565E+03  0.10000000000E+01 0.  0.
<mgrwt>
<rscale>  0 0.12499709E+03</rscale>
<asrwt>0</asrwt>
<pdfrwt beam="1">  1        4 0.77539039E-01 0.12499709E+03</pdfrwt>
<pdfrwt beam="2">  1       -4 0.11923196E-02 0.12499709E+03</pdfrwt>
<totfact> 0.54967323E+03</totfact>
</mgrwt>
</event>
<event>
 5    1  0.3188180E-002  0.1250019E+03  0.7818608E-02  0.1235066E+00
          4   -1    0    0  501    0  0.00000000000E+00  0.00000000000E+00  0.28813225034E+02  0.28841200337E+02  0.12700000000E+01 0. -1.
         -4   -1    0    0    0  501 -0.00000000000E+00 -0.00000000000E+00 -0.13547873253E+03  0.13548468500E+03  0.12700000000E+01 0. -1.
         25    2    1    2    0    0  0.00000000000E+00  0.00000000000E+00 -0.10666550750E+03  0.16432588533E+03  0.12500186439E+03 0.  0.
    9000005    1    3    3    0    0 -0.45756396559E+02 -0.32552789393E+02 -0.89383013808E+02  0.10556351207E+03  0.10000000000E+01 0.  0.
    9000005    1    3    3    0    0  0.45756396559E+02  0.32552789393E+02 -0.17282493691E+02  0.58762373263E+02  0.10000000000E+01 0.  0.
<mgrwt>
<rscale>  0 0.12500186E+03</rscale>
<asrwt>0</asrwt>
<pdfrwt beam="1">  1        4 0.44354138E-02 0.12500186E+03</pdfrwt>
<pdfrwt beam="2">  1       -4 0.20845491E-01 0.12500186E+03</pdfrwt>
<totfact> 0.96511169E+03</totfact>
</mgrwt>
</event>
<event>
 5    1  0.3188180E-002  0.1249960E+03  0.7818608E-02  0.1235076E+00
         -4   -1    0    0    0  501 -0.00000000000E+00  0.00000000000E+00  0.24502008862E+02  0.24534900413E+02  0.12700000000E+01 0.  1.
          4   -1    0    0  501    0  0.00000000000E+00 -0.00000000000E+00 -0.15927319868E+03  0.15927826191E+03  0.12700000000E+01 0.  1.
         25    2    1    2    0    0  0.00000000000E+00  0.00000000000E+00 -0.13477118982E+03  0.18381316232E+03  0.12499602009E+03 0.  0.
    9000005    1    3    3    0    0  0.60437205923E+01 -0.40943995778E+02 -0.13623608367E+03  0.14238752699E+03  0.10000000000E+01 0.  0.
    9000005    1    3    3    0    0 -0.60437205923E+01  0.40943995778E+02  0.14648938516E+01  0.41425635334E+02  0.10000000000E+01 0.  0.
<mgrwt>
<rscale>  0 0.12499602E+03</rscale>
<asrwt>0</asrwt>
<pdfrwt beam="2">  1        4 0.24506488E-01 0.12499602E+03</pdfrwt>
<pdfrwt beam="1">  1       -4 0.37724595E-02 0.12499602E+03</pdfrwt>
<totfact> 0.92943381E+03</totfact>
</mgrwt>
</event>
<event>
 5    1  0.3188180E-002  0.1250016E+03  0.7818608E-02  0.1235067E+00
          4   -1    0    0  501    0  0.00000000000E+00  0.00000000000E+00  0.61031888024E+02  0.61045100178E+02  0.12700000000E+01 0. -1.
         -4   -1    0    0    0  501 -0.00000000000E+00 -0.00000000000E+00 -0.63978600817E+02  0.63991204571E+02  0.12700000000E+01 0. -1.
         25    2    1    2    0    0  0.00000000000E+00  0.00000000000E+00 -0.29467127923E+01  0.12503630475E+03  0.12500157755E+03 0.  0.
    9000005    1    3    3    0    0 -0.33886119571E+02 -0.51904597728E+02 -0.94123259432E+01  0.62705248940E+02  0.10000000000E+01 0.  0.
    9000005    1    3    3    0    0  0.33886119571E+02  0.51904597728E+02  0.64656131509E+01  0.62331055810E+02  0.10000000000E+01 0.  0.
<mgrwt>
<rscale>  0 0.12500158E+03</rscale>
<asrwt>0</asrwt>
<pdfrwt beam="1">  1        4 0.93915071E-02 0.12500158E+03</pdfrwt>
<pdfrwt beam="2">  1       -4 0.98448475E-02 0.12500158E+03</pdfrwt>
<totfact> 0.10451701E+04</totfact>
</mgrwt>
</event>
<event>
 5    1  0.3188180E-002  0.1249691E+03  0.7818608E-02  0.1235118E+00
         -4   -1    0    0    0  501 -0.00000000000E+00  0.00000000000E+00  0.31828128119E+03  0.31828381494E+03  0.12700000000E+01 0. -1.
          4   -1    0    0  501    0  0.00000000000E+00 -0.00000000000E+00 -0.12231423347E+02  0.12297179233E+02  0.12700000000E+01 0. -1.
         25    2    1    2    0    0  0.00000000000E+00  0.00000000000E+00  0.30604985784E+03  0.33058099417E+03  0.12496910909E+03 0.  0.
    9000005    1    3    3    0    0 -0.34319947354E+02  0.52204921469E+02  0.15215985194E+03  0.16448961413E+03  0.10000000000E+01 0.  0.
    9000005    1    3    3    0    0  0.34319947354E+02 -0.52204921469E+02  0.15389000590E+03  0.16609138005E+03  0.10000000000E+01 0.  0.
<mgrwt>
<rscale>  0 0.12496911E+03</rscale>
<asrwt>0</asrwt>
<pdfrwt beam="2">  1        4 0.18870107E-02 0.12496911E+03</pdfrwt>
<pdfrwt beam="1">  1       -4 0.48971600E-01 0.12496911E+03</pdfrwt>
<totfact> 0.71964320E+03</totfact>
</mgrwt>
</event>
<event>
 5    1  0.3188180E-002  0.1250002E+03  0.7818608E-02  0.1235069E+00
          4   -1    0    0  501    0  0.00000000000E+00  0.00000000000E+00  0.60614250396E+02  0.60627553563E+02  0.12700000000E+01 0. -1.
         -4   -1    0    0    0  501 -0.00000000000E+00 -0.00000000000E+00 -0.64417978784E+02  0.64430496589E+02  0.12700000000E+01 0. -1.
         25    2    1    2    0    0  0.00000000000E+00  0.00000000000E+00 -0.38037283883E+01  0.12505805015E+03  0.12500019023E+03 0.  0.
    9000005    1    3    3    0    0 -0.34075950038E+02 -0.50022225529E+02  0.13657455680E+02  0.62055777439E+02  0.10000000000E+01 0.  0.
    9000005    1    3    3    0    0  0.34075950038E+02  0.50022225529E+02 -0.17461184069E+02  0.63002272713E+02  0.10000000000E+01 0.  0.
<mgrwt>
<rscale>  0 0.12500019E+03</rscale>
<asrwt>0</asrwt>
<pdfrwt beam="1">  1        4 0.93272555E-02 0.12500019E+03</pdfrwt>
<pdfrwt beam="2">  1       -4 0.99124445E-02 0.12500019E+03</pdfrwt>
<totfact> 0.10451557E+04</totfact>
</mgrwt>
</event>
<event>
 5    1  0.3188180E-002  0.1249962E+03  0.7818608E-02  0.1235075E+00
          4   -1    0    0  501    0  0.00000000000E+00  0.00000000000E+00  0.24405589171E+03  0.24405919606E+03  0.12700000000E+01 0.  1.
         -4   -1    0    0    0  501 -0.00000000000E+00 -0.00000000000E+00 -0.15975957277E+02  0.16026356757E+02  0.12700000000E+01 0.  1.
         25    2    1    2    0    0  0.00000000000E+00  0.00000000000E+00  0.22807993444E+03  0.26008555282E+03  0.12499615310E+03 0.  0.
    9000005    1    3    3    0    0  0.47088996417E+02 -0.37974094132E+02  0.81430969971E+02  0.10144657845E+03  0.10000000000E+01 0.  0.
    9000005    1    3    3    0    0 -0.47088996417E+02  0.37974094132E+02  0.14664896447E+03  0.15863897437E+03  0.10000000000E+01 0.  0.
<mgrwt>
<rscale>  0 0.12499615E+03</rscale>
<asrwt>0</asrwt>
<pdfrwt beam="1">  1        4 0.37551191E-01 0.12499615E+03</pdfrwt>
<pdfrwt beam="2">  1       -4 0.24619706E-02 0.12499615E+03</pdfrwt>
<totfact> 0.80900982E+03</totfact>
</mgrwt>
</event>
<event>
 5    1  0.3188180E-002  0.1250016E+03  0.7818608E-02  0.1235067E+00
         -4   -1    0    0    0  501 -0.00000000000E+00  0.00000000000E+00  0.48241367648E+02  0.48258081733E+02  0.12700000000E+01 0. -1.
          4   -1    0    0  501    0  0.00000000000E+00 -0.00000000000E+00 -0.80939429587E+02  0.80949392597E+02  0.12700000000E+01 0. -1.
         25    2    1    2    0    0  0.00000000000E+00  0.00000000000E+00 -0.32698061939E+02  0.12920747433E+03  0.12500163266E+03 0.  0.
    9000005    1    3    3    0    0 -0.46072270669E+01 -0.61860025562E+02 -0.24184502022E+02  0.66586631105E+02  0.10000000000E+01 0.  0.
    9000005    1    3    3    0    0  0.46072270669E+01  0.61860025562E+02 -0.85135599166E+01  0.62620843225E+02  0.10000000000E+01 0.  0.
<mgrwt>
<rscale>  0 0.12500163E+03</rscale>
<asrwt>0</asrwt>
<pdfrwt beam="2">  1        4 0.12454272E-01 0.12500163E+03</pdfrwt>
<pdfrwt beam="1">  1       -4 0.74238010E-02 0.12500163E+03</pdfrwt>
<totfact> 0.10361109E+04</totfact>
</mgrwt>
</event>
<event>
 5    1  0.3188180E-002  0.1250010E+03  0.7818608E-02  0.1235068E+00
         -4   -1    0    0    0  501 -0.00000000000E+00  0.00000000000E+00  0.17404133327E+03  0.17404596688E+03  0.12700000000E+01 0.  1.
          4   -1    0    0  501    0  0.00000000000E+00 -0.00000000000E+00 -0.22421846232E+02  0.22457784585E+02  0.12700000000E+01 0.  1.
         25    2    1    2    0    0  0.00000000000E+00  0.00000000000E+00  0.15161948704E+03  0.19650375147E+03  0.12500102195E+03 0.  0.
    9000005    1    3    3    0    0  0.49407087341E+01  0.58145248246E+02  0.11096228902E+03  0.12537507759E+03  0.10000000000E+01 0.  0.
    9000005    1    3    3    0    0 -0.49407087341E+01 -0.58145248246E+02  0.40657198023E+02  0.71128673877E+02  0.10000000000E+01 0.  0.
<mgrwt>
<rscale>  0 0.12500102E+03</rscale>
<asrwt>0</asrwt>
<pdfrwt beam="2">  1        4 0.34526357E-02 0.12500102E+03</pdfrwt>
<pdfrwt beam="1">  1       -4 0.26778711E-01 0.12500102E+03</pdfrwt>
<totfact> 0.90725760E+03</totfact>
</mgrwt>
</event>
<event>
 5    1  0.3188180E-002  0.1249998E+03  0.7818608E-02  0.1235070E+00
          4   -1    0    0  501    0  0.00000000000E+00  0.00000000000E+00  0.13781051825E+03  0.13781637000E+03  0.12700000000E+01 0. -1.
         -4   -1    0    0    0  501 -0.00000000000E+00 -0.00000000000E+00 -0.28324304038E+02  0.28352761756E+02  0.12700000000E+01 0. -1.
         25    2    1    2    0    0  0.00000000000E+00  0.00000000000E+00  0.10948621421E+03  0.16616913176E+03  0.12499979699E+03 0.  0.
    9000005    1    3    3    0    0 -0.50329385427E+01 -0.28597812085E+02  0.12830429624E+03  0.13155287059E+03  0.10000000000E+01 0.  0.
    9000005    1    3    3    0    0  0.50329385427E+01  0.28597812085E+02 -0.18818082025E+02  0.34616261172E+02  0.10000000000E+01 0.  0.
<mgrwt>
<rscale>  0 0.12499980E+03</rscale>
<asrwt>0</asrwt>
<pdfrwt beam="1">  1        4 0.21204258E-01 0.12499980E+03</pdfrwt>
<pdfrwt beam="2">  1       -4 0.43602244E-02 0.12499980E+03</pdfrwt>
<totfact> 0.96166873E+03</totfact>
</mgrwt>
</event>
<event>
 5    1  0.3188180E-002  0.1250006E+03  0.7818608E-02  0.1235068E+00
         -4   -1    0    0    0  501 -0.00000000000E+00  0.00000000000E+00  0.19896447929E+02  0.19936939088E+02  0.12700000000E+01 0. -1.
          4   -1    0    0  501    0  0.00000000000E+00 -0.00000000000E+00 -0.19608887454E+03  0.19609298717E+03  0.12700000000E+01 0. -1.
         25    2    1    2    0    0  0.00000000000E+00  0.00000000000E+00 -0.17619242661E+03  0.21602992626E+03  0.12500063138E+03 0.  0.
    9000005    1    3    3    0    0 -0.72804298132E+01 -0.25288393199E+02 -0.18605476102E+03  0.18790923763E+03  0.10000000000E+01 0.  0.
    9000005    1    3    3    0    0  0.72804298132E+01  0.25288393199E+02  0.98623344116E+01  0.28120688628E+02  0.10000000000E+01 0.  0.
<mgrwt>
<rscale>  0 0.12500063E+03</rscale>
<asrwt>0</asrwt>
<pdfrwt beam="2">  1        4 0.30170949E-01 0.12500063E+03</pdfrwt>
<pdfrwt beam="1">  1       -4 0.30644232E-02 0.12500063E+03</pdfrwt>
<totfact> 0.87499253E+03</totfact>
</mgrwt>
</event>
<event>
 5    1  0.3188180E-002  0.1249991E+03  0.7818608E-02  0.1235071E+00
         -4   -1    0    0    0  501 -0.00000000000E+00  0.00000000000E+00  0.43033269791E+02  0.43052005864E+02  0.12700000000E+01 0. -1.
          4   -1    0    0  501    0  0.00000000000E+00 -0.00000000000E+00 -0.90728532528E+02  0.90737420697E+02  0.12700000000E+01 0. -1.
         25    2    1    2    0    0  0.00000000000E+00  0.00000000000E+00 -0.47695262737E+02  0.13378942656E+03  0.12499909028E+03 0.  0.
    9000005    1    3    3    0    0  0.34780313013E+02 -0.51214878119E+02 -0.32964826913E+02  0.70144947982E+02  0.10000000000E+01 0.  0.
    9000005    1    3    3    0    0 -0.34780313013E+02  0.51214878119E+02 -0.14730435824E+02  0.63644478579E+02  0.10000000000E+01 0.  0.
<mgrwt>
<rscale>  0 0.12499909E+03</rscale>
<asrwt>0</asrwt>
<pdfrwt beam="2">  1        4 0.13960361E-01 0.12499909E+03</pdfrwt>
<pdfrwt beam="1">  1       -4 0.66226280E-02 0.12499909E+03</pdfrwt>
<totfact> 0.10263861E+04</totfact>
</mgrwt>
</event>
<event>
 5    1  0.3188180E-002  0.1249977E+03  0.7818608E-02  0.1235073E+00
         -4   -1    0    0    0  501 -0.00000000000E+00  0.00000000000E+00  0.31725124860E+02  0.31750534600E+02  0.12700000000E+01 0. -1.
          4   -1    0    0  501    0  0.00000000000E+00 -0.00000000000E+00 -0.12304541639E+03  0.12305197030E+03  0.12700000000E+01 0. -1.
         25    2    1    2    0    0  0.00000000000E+00  0.00000000000E+00 -0.91320291530E+02  0.15480250490E+03  0.12499767949E+03 0.  0.
    9000005    1    3    3    0    0 -0.36448363110E+02  0.39294623819E+02 -0.58647809486E+01  0.53925377051E+02  0.10000000000E+01 0.  0.
    9000005    1    3    3    0    0  0.36448363110E+02 -0.39294623819E+02 -0.85455510582E+02  0.10087712785E+03  0.10000000000E+01 0.  0.
<mgrwt>
<rscale>  0 0.12499768E+03</rscale>
<asrwt>0</asrwt>
<pdfrwt beam="2">  1        4 0.18932523E-01 0.12499768E+03</pdfrwt>
<pdfrwt beam="1">  1       -4 0.48832473E-02 0.12499768E+03</pdfrwt>
<totfact> 0.98359417E+03</totfact>
</mgrwt>
</event>
<event>
 5    1  0.3188180E-002  0.1249986E+03  0.7818608E-02  0.1235071E+00
         -4   -1    0    0    0  501 -0.00000000000E+00  0.00000000000E+00  0.10818335550E+02  0.10892625215E+02  0.12700000000E+01 0.  1.
          4   -1    0    0  501    0  0.00000000000E+00 -0.00000000000E+00 -0.35975772384E+03  0.35975996548E+03  0.12700000000E+01 0.  1.
         25    2    1    2    0    0  0.00000000000E+00  0.00000000000E+00 -0.34893938829E+03  0.37065259070E+03  0.12499858515E+03 0.  0.
    9000005    1    3    3    0    0  0.51998074769E+02  0.31986404465E+02 -0.21405686309E+03  0.22259440803E+03  0.10000000000E+01 0.  0.
    9000005    1    3    3    0    0 -0.51998074769E+02 -0.31986404465E+02 -0.13488252520E+03  0.14805818267E+03  0.10000000000E+01 0.  0.
<mgrwt>
<rscale>  0 0.12499859E+03</rscale>
<asrwt>0</asrwt>
<pdfrwt beam="2">  1        4 0.55353220E-01 0.12499859E+03</pdfrwt>
<pdfrwt beam="1">  1       -4 0.16702466E-02 0.12499859E+03</pdfrwt>
<totfact> 0.67512835E+03</totfact>
</mgrwt>
</event>
<event>
 5    1  0.3188180E-002  0.1250062E+03  0.7818608E-02  0.1235060E+00
         -4   -1    0    0    0  501 -0.00000000000E+00  0.00000000000E+00  0.93013053843E+02  0.93021723728E+02  0.12700000000E+01 0. -1.
          4   -1    0    0  501    0  0.00000000000E+00 -0.00000000000E+00 -0.41980728956E+02  0.41999934567E+02  0.12700000000E+01 0. -1.
         25    2    1    2    0    0  0.00000000000E+00  0.00000000000E+00  0.51032324888E+02  0.13502165830E+03  0.12500619995E+03 0.  0.
    9000005    1    3    3    0    0  0.14371043971E+02 -0.49219797691E+01 -0.39961587047E+02  0.42763082548E+02  0.10000000000E+01 0.  0.
    9000005    1    3    3    0    0 -0.14371043971E+02  0.49219797691E+01  0.90993911935E+02  0.92258575747E+02  0.10000000000E+01 0.  0.
<mgrwt>
<rscale>  0 0.12500620E+03</rscale>
<asrwt>0</asrwt>
<pdfrwt beam="2">  1        4 0.64607179E-02 0.12500620E+03</pdfrwt>
<pdfrwt beam="1">  1       -4 0.14311845E-01 0.12500620E+03</pdfrwt>
<totfact> 0.10236183E+04</totfact>
</mgrwt>
</event>
<event>
 5    1  0.3188180E-002  0.1250146E+03  0.7818608E-02  0.1235046E+00
          4   -1    0    0  501    0  0.00000000000E+00  0.00000000000E+00  0.27959409933E+02  0.27988238669E+02  0.12700000000E+01 0.  1.
         -4   -1    0    0    0  501 -0.00000000000E+00 -0.00000000000E+00 -0.13964044828E+03  0.13964622335E+03  0.12700000000E+01 0.  1.
         25    2    1    2    0    0  0.00000000000E+00  0.00000000000E+00 -0.11168103835E+03  0.16763446202E+03  0.12501463326E+03 0.  0.
    9000005    1    3    3    0    0  0.40614241278E+01 -0.17358961563E+02  0.24484160088E+02  0.30303511475E+02  0.10000000000E+01 0.  0.
    9000005    1    3    3    0    0 -0.40614241278E+01  0.17358961563E+02 -0.13616519844E+03  0.13733095055E+03  0.10000000000E+01 0.  0.
<mgrwt>
<rscale>  0 0.12501463E+03</rscale>
<asrwt>0</asrwt>
<pdfrwt beam="1">  1        4 0.43041096E-02 0.12501463E+03</pdfrwt>
<pdfrwt beam="2">  1       -4 0.21485807E-01 0.12501463E+03</pdfrwt>
<totfact> 0.95859274E+03</totfact>
</mgrwt>
</event>
<event>
 5    1  0.3188180E-002  0.1249962E+03  0.7818608E-02  0.1235075E+00
          4   -1    0    0  501    0  0.00000000000E+00  0.00000000000E+00  0.18129114982E+02  0.18173544234E+02  0.12700000000E+01 0.  1.
         -4   -1    0    0    0  501 -0.00000000000E+00 -0.00000000000E+00 -0.21514517273E+03  0.21514892110E+03  0.12700000000E+01 0.  1.
         25    2    1    2    0    0  0.00000000000E+00  0.00000000000E+00 -0.19701605775E+03  0.23332246533E+03  0.12499618321E+03 0.  0.
    9000005    1    3    3    0    0  0.15657179711E+02 -0.45146464871E+01 -0.21111871413E+03  0.21174900417E+03  0.10000000000E+01 0.  0.
    9000005    1    3    3    0    0 -0.15657179711E+02  0.45146464871E+01  0.14102656385E+02  0.21573461162E+02  0.10000000000E+01 0.  0.
<mgrwt>
<rscale>  0 0.12499618E+03</rscale>
<asrwt>0</asrwt>
<pdfrwt beam="1">  1        4 0.27928007E-02 0.12499618E+03</pdfrwt>
<pdfrwt beam="2">  1       -4 0.33102961E-01 0.12499618E+03</pdfrwt>
<totfact> 0.84809248E+03</totfact>
</mgrwt>
</event>
<event>
 5    1  0.3188180E-002  0.1249968E+03  0.7818608E-02  0.1235074E+00
          4   -1    0    0  501    0  0.00000000000E+00  0.00000000000E+00  0.15972005377E+03  0.15972510283E+03  0.12700000000E+01 0.  1.
         -4   -1    0    0    0  501 -0.00000000000E+00 -0.00000000000E+00 -0.24433685917E+02  0.24466669317E+02  0.12700000000E+01 0.  1.
         25    2    1    2    0    0  0.00000000000E+00  0.00000000000E+00  0.13528636785E+03  0.18419177215E+03  0.12499683037E+03 0.  0.
    9000005    1    3    3    0    0  0.19908556104E+02 -0.14818752597E+02 -0.16867215055E+02  0.30024139927E+02  0.10000000000E+01 0.  0.
    9000005    1    3    3    0    0 -0.19908556104E+02  0.14818752597E+02  0.15215358291E+03  0.15416763222E+03  0.10000000000E+01 0.  0.
<mgrwt>
<rscale>  0 0.12499683E+03</rscale>
<asrwt>0</asrwt>
<pdfrwt beam="1">  1        4 0.24575242E-01 0.12499683E+03</pdfrwt>
<pdfrwt beam="2">  1       -4 0.37619541E-02 0.12499683E+03</pdfrwt>
<totfact> 0.92874463E+03</totfact>
</mgrwt>
</event>
<event>
 5    1  0.3188180E-002  0.1250005E+03  0.7818608E-02  0.1235068E+00
         -4   -1    0    0    0  501 -0.00000000000E+00  0.00000000000E+00  0.47171001103E+02  0.47188094314E+02  0.12700000000E+01 0.  1.
          4   -1    0    0  501    0  0.00000000000E+00 -0.00000000000E+00 -0.82774139471E+02  0.82783881675E+02  0.12700000000E+01 0.  1.
         25    2    1    2    0    0  0.00000000000E+00  0.00000000000E+00 -0.35603138368E+02  0.12997197599E+03  0.12500052432E+03 0.  0.
    9000005    1    3    3    0    0  0.56454342185E+02 -0.18407840167E+02  0.24497365682E+01  0.59438561056E+02  0.10000000000E+01 0.  0.
    9000005    1    3    3    0    0 -0.56454342185E+02  0.18407840167E+02 -0.38052874936E+02  0.70533414933E+02  0.10000000000E+01 0.  0.
<mgrwt>
<rscale>  0 0.12500052E+03</rscale>
<asrwt>0</asrwt>
<pdfrwt beam="2">  1        4 0.12736547E-01 0.12500052E+03</pdfrwt>
<pdfrwt beam="1">  1       -4 0.72591413E-02 0.12500052E+03</pdfrwt>
<totfact> 0.10344985E+04</totfact>
</mgrwt>
</event>
<event>
 5    1  0.3188180E-002  0.1249999E+03  0.7818608E-02  0.1235069E+00
         -4   -1    0    0    0  501 -0.00000000000E+00  0.00000000000E+00  0.26454963727E+02  0.26485430066E+02  0.12700000000E+01 0.  1.
          4   -1    0    0  501    0  0.00000000000E+00 -0.00000000000E+00 -0.14753820865E+03  0.14754367459E+03  0.12700000000E+01 0.  1.
         25    2    1    2    0    0  0.00000000000E+00  0.00000000000E+00 -0.12108324493E+03  0.17402910466E+03  0.12499990827E+03 0.  0.
    9000005    1    3    3    0    0 -0.13743073861E+02  0.24326626612E+02  0.17281478504E+02  0.32868013946E+02  0.10000000000E+01 0.  0.
    9000005    1    3    3    0    0  0.13743073861E+02 -0.24326626612E+02 -0.13836472343E+03  0.14116109071E+03  0.10000000000E+01 0.  0.
<mgrwt>
<rscale>  0 0.12499991E+03</rscale>
<asrwt>0</asrwt>
<pdfrwt beam="2">  1        4 0.22700949E-01 0.12499991E+03</pdfrwt>
<pdfrwt beam="1">  1       -4 0.40727585E-02 0.12499991E+03</pdfrwt>
<totfact> 0.94703154E+03</totfact>
</mgrwt>
</event>
<event>
 5    1  0.3188180E-002  0.1250065E+03  0.7818608E-02  0.1235059E+00
          4   -1    0    0  501    0  0.00000000000E+00  0.00000000000E+00  0.28944045029E+03  0.28944323652E+03  0.12700000000E+01 0.  1.
         -4   -1    0    0    0  501 -0.00000000000E+00 -0.00000000000E+00 -0.13464531597E+02  0.13524293369E+02  0.12700000000E+01 0.  1.
         25    2    1    2    0    0  0.00000000000E+00  0.00000000000E+00  0.27597591870E+03  0.30296752989E+03  0.12500646569E+03 0.  0.
    9000005    1    3    3    0    0  0.22184087495E+02  0.21866701876E+02  0.66788465135E+01  0.31873082368E+02  0.10000000000E+01 0.  0.
    9000005    1    3    3    0    0 -0.22184087495E+02 -0.21866701876E+02  0.26929707218E+03  0.27109444752E+03  0.10000000000E+01 0.  0.
<mgrwt>
<rscale>  0 0.12500647E+03</rscale>
<asrwt>0</asrwt>
<pdfrwt beam="1">  1        4 0.44534106E-01 0.12500647E+03</pdfrwt>
<pdfrwt beam="2">  1       -4 0.20762781E-02 0.12500647E+03</pdfrwt>
<totfact> 0.75217307E+03</totfact>
</mgrwt>
</event>
<event>
 5    1  0.3188180E-002  0.1250036E+03  0.7818608E-02  0.1235064E+00
          4   -1    0    0  501    0  0.00000000000E+00  0.00000000000E+00  0.36248832375E+03  0.36249054850E+03  0.12700000000E+01 0. -1.
         -4   -1    0    0    0  501 -0.00000000000E+00 -0.00000000000E+00 -0.10737150544E+02  0.10811998048E+02  0.12700000000E+01 0. -1.
         25    2    1    2    0    0  0.00000000000E+00  0.00000000000E+00  0.35175117320E+03  0.37330254655E+03  0.12500361359E+03 0.  0.
    9000005    1    3    3    0    0 -0.31495677913E+02 -0.64562471530E+01  0.33591119104E+03  0.33744775762E+03  0.10000000000E+01 0.  0.
    9000005    1    3    3    0    0  0.31495677913E+02  0.64562471530E+01  0.15839982162E+02  0.35854788932E+02  0.10000000000E+01 0.  0.
<mgrwt>
<rscale>  0 0.12500361E+03</rscale>
<asrwt>0</asrwt>
<pdfrwt beam="1">  1        4 0.55773355E-01 0.12500361E+03</pdfrwt>
<pdfrwt beam="2">  1       -4 0.16577982E-02 0.12500361E+03</pdfrwt>
<totfact> 0.67229472E+03</totfact>
</mgrwt>
</event>
<event>
 5    1  0.3188180E-002  0.1249908E+03  0.7818608E-02  0.1235084E+00
         -4   -1    0    0    0  501 -0.00000000000E+00  0.00000000000E+00  0.25487634558E+03  0.25487950965E+03  0.12700000000E+01 0. -1.
          4   -1    0    0  501    0  0.00000000000E+00 -0.00000000000E+00 -0.15294230936E+02  0.15346869385E+02  0.12700000000E+01 0. -1.
         25    2    1    2    0    0  0.00000000000E+00  0.00000000000E+00  0.23958211465E+03  0.27022637903E+03  0.12499082472E+03 0.  0.
    9000005    1    3    3    0    0  0.29579816284E+02 -0.53042032639E+02  0.87998058753E+02  0.10692558675E+03  0.10000000000E+01 0.  0.
    9000005    1    3    3    0    0 -0.29579816284E+02  0.53042032639E+02  0.15158405589E+03  0.16330079228E+03  0.10000000000E+01 0.  0.
<mgrwt>
<rscale>  0 0.12499082E+03</rscale>
<asrwt>0</asrwt>
<pdfrwt beam="2">  1        4 0.23572512E-02 0.12499082E+03</pdfrwt>
<pdfrwt beam="1">  1       -4 0.39216036E-01 0.12499082E+03</pdfrwt>
<totfact> 0.79508240E+03</totfact>
</mgrwt>
</event>
<event>
 5    1  0.3188180E-002  0.1249970E+03  0.7818608E-02  0.1235074E+00
          4   -1    0    0  501    0  0.00000000000E+00  0.00000000000E+00  0.59692929041E+03  0.59693064141E+03  0.12700000000E+01 0.  1.
         -4   -1    0    0    0  501 -0.00000000000E+00 -0.00000000000E+00 -0.64806046403E+01  0.66038728412E+01  0.12700000000E+01 0.  1.
         25    2    1    2    0    0  0.00000000000E+00  0.00000000000E+00  0.59044868577E+03  0.60353451425E+03  0.12499703741E+03 0.  0.
    9000005    1    3    3    0    0 -0.42393081732E+02  0.42964750743E+02  0.21708170020E+03  0.22531890233E+03  0.10000000000E+01 0.  0.
    9000005    1    3    3    0    0  0.42393081732E+02 -0.42964750743E+02  0.37336698557E+03  0.37821561192E+03  0.10000000000E+01 0.  0.
<mgrwt>
<rscale>  0 0.12499704E+03</rscale>
<asrwt>0</asrwt>
<pdfrwt beam="1">  1        4 0.91844874E-01 0.12499704E+03</pdfrwt>
<pdfrwt beam="2">  1       -4 0.10066021E-02 0.12499704E+03</pdfrwt>
<totfact> 0.48648414E+03</totfact>
</mgrwt>
</event>
<event>
 5    1  0.3188180E-002  0.1250502E+03  0.7818608E-02  0.1234991E+00
          4   -1    0    0  501    0  0.00000000000E+00  0.00000000000E+00  0.23461795313E+02  0.23496143073E+02  0.12700000000E+01 0. -1.
         -4   -1    0    0    0  501 -0.00000000000E+00 -0.00000000000E+00 -0.16646915982E+03  0.16647400419E+03  0.12700000000E+01 0. -1.
         25    2    1    2    0    0  0.00000000000E+00  0.00000000000E+00 -0.14300736450E+03  0.18997014726E+03  0.12505019211E+03 0.  0.
    9000005    1    3    3    0    0  0.14984785169E+02 -0.40393977458E+02 -0.14032257954E+03  0.14679115617E+03  0.10000000000E+01 0.  0.
    9000005    1    3    3    0    0 -0.14984785169E+02  0.40393977458E+02 -0.26847849682E+01  0.43178991093E+02  0.10000000000E+01 0.  0.
<mgrwt>
<rscale>  0 0.12505019E+03</rscale>
<asrwt>0</asrwt>
<pdfrwt beam="1">  1        4 0.36125218E-02 0.12505019E+03</pdfrwt>
<pdfrwt beam="2">  1       -4 0.25613654E-01 0.12505019E+03</pdfrwt>
<totfact> 0.91749316E+03</totfact>
</mgrwt>
</event>
<event>
 5    1  0.3188180E-002  0.1250031E+03  0.7818608E-02  0.1235064E+00
          4   -1    0    0  501    0  0.00000000000E+00  0.00000000000E+00  0.13272886659E+02  0.13333507425E+02  0.12700000000E+01 0.  1.
         -4   -1    0    0    0  501 -0.00000000000E+00 -0.00000000000E+00 -0.29358514681E+03  0.29358789370E+03  0.12700000000E+01 0.  1.
         25    2    1    2    0    0  0.00000000000E+00  0.00000000000E+00 -0.28031226015E+03  0.30692140112E+03  0.12500313307E+03 0.  0.
    9000005    1    3    3    0    0  0.39552963130E+02  0.34364613757E+02 -0.56528331509E+02  0.77083174780E+02  0.10000000000E+01 0.  0.
    9000005    1    3    3    0    0 -0.39552963130E+02 -0.34364613757E+02 -0.22378392864E+03  0.22983822634E+03  0.10000000000E+01 0.  0.
<mgrwt>
<rscale>  0 0.12500313E+03</rscale>
<asrwt>0</asrwt>
<pdfrwt beam="1">  1        4 0.20468572E-02 0.12500313E+03</pdfrwt>
<pdfrwt beam="2">  1       -4 0.45171815E-01 0.12500313E+03</pdfrwt>
<totfact> 0.74733559E+03</totfact>
</mgrwt>
</event>
<event>
 5    1  0.3188180E-002  0.1250003E+03  0.7818608E-02  0.1235069E+00
         -4   -1    0    0    0  501 -0.00000000000E+00  0.00000000000E+00  0.66319564686E+02  0.66331723633E+02  0.12700000000E+01 0.  1.
          4   -1    0    0  501    0  0.00000000000E+00 -0.00000000000E+00 -0.58876317185E+02  0.58890012950E+02  0.12700000000E+01 0.  1.
         25    2    1    2    0    0  0.00000000000E+00  0.00000000000E+00  0.74432475006E+01  0.12522173658E+03  0.12500032552E+03 0.  0.
    9000005    1    3    3    0    0 -0.17245534009E+02 -0.63228033334E+01  0.63559193261E+02  0.66167645668E+02  0.10000000000E+01 0.  0.
    9000005    1    3    3    0    0  0.17245534009E+02  0.63228033334E+01 -0.56115945760E+02  0.59054090915E+02  0.10000000000E+01 0.  0.
<mgrwt>
<rscale>  0 0.12500033E+03</rscale>
<asrwt>0</asrwt>
<pdfrwt beam="2">  1        4 0.90598838E-02 0.12500033E+03</pdfrwt>
<pdfrwt beam="1">  1       -4 0.10204999E-01 0.12500033E+03</pdfrwt>
<totfact> 0.10447972E+04</totfact>
</mgrwt>
</event>
<event>
 5    1  0.3188180E-002  0.1249984E+03  0.7818608E-02  0.1235072E+00
          4   -1    0    0  501    0  0.00000000000E+00  0.00000000000E+00  0.82229255828E+03  0.82229353901E+03  0.12700000000E+01 0.  1.
         -4   -1    0    0    0  501 -0.00000000000E+00 -0.00000000000E+00 -0.46644333268E+01  0.48342360575E+01  0.12700000000E+01 0.  1.
         25    2    1    2    0    0  0.00000000000E+00  0.00000000000E+00  0.81762812495E+03  0.82712777507E+03  0.12499842230E+03 0.  0.
    9000005    1    3    3    0    0  0.34659366425E+02 -0.47475566078E+02  0.54917632661E+03  0.55231407620E+03  0.10000000000E+01 0.  0.
    9000005    1    3    3    0    0 -0.34659366425E+02  0.47475566078E+02  0.26845179834E+03  0.27481369887E+03  0.10000000000E+01 0.  0.
<mgrwt>
<rscale>  0 0.12499842E+03</rscale>
<asrwt>0</asrwt>
<pdfrwt beam="1">  1        4 0.12651967E+00 0.12499842E+03</pdfrwt>
<pdfrwt beam="2">  1       -4 0.73074241E-03 0.12499842E+03</pdfrwt>
<totfact> 0.37083256E+03</totfact>
</mgrwt>
</event>
<event>
 5    1  0.3188180E-002  0.1250010E+03  0.7818608E-02  0.1235068E+00
         -4   -1    0    0    0  501 -0.00000000000E+00  0.00000000000E+00  0.26232062949E+02  0.26262787867E+02  0.12700000000E+01 0.  1.
          4   -1    0    0  501    0  0.00000000000E+00 -0.00000000000E+00 -0.14879302185E+03  0.14879844170E+03  0.12700000000E+01 0.  1.
         25    2    1    2    0    0  0.00000000000E+00  0.00000000000E+00 -0.12256095890E+03  0.17506122956E+03  0.12500098179E+03 0.  0.
    9000005    1    3    3    0    0 -0.41484319412E+01 -0.58745777816E+02 -0.32002918745E+02  0.67033295510E+02  0.10000000000E+01 0.  0.
    9000005    1    3    3    0    0  0.41484319412E+01  0.58745777816E+02 -0.90558040157E+02  0.10802793405E+03  0.10000000000E+01 0.  0.
<mgrwt>
<rscale>  0 0.12500098E+03</rscale>
<asrwt>0</asrwt>
<pdfrwt beam="2">  1        4 0.22894014E-01 0.12500098E+03</pdfrwt>
<pdfrwt beam="1">  1       -4 0.40384824E-02 0.12500098E+03</pdfrwt>
<totfact> 0.94511546E+03</totfact>
</mgrwt>
</event>
<event>
 5    1  0.3188180E-002  0.1249997E+03  0.7818608E-02  0.1235070E+00
         -4   -1    0    0    0  501 -0.00000000000E+00  0.00000000000E+00  0.10527710731E+03  0.10528476729E+03  0.12700000000E+01 0.  1.
          4   -1    0    0  501    0  0.00000000000E+00 -0.00000000000E+00 -0.37084381691E+02  0.37106121671E+02  0.12700000000E+01 0.  1.
         25    2    1    2    0    0  0.00000000000E+00  0.00000000000E+00  0.68192725619E+02  0.14239088896E+03  0.12499966973E+03 0.  0.
    9000005    1    3    3    0    0 -0.30475279579E+02 -0.52968822729E+02  0.19209430789E+02  0.64065911981E+02  0.10000000000E+01 0.  0.
    9000005    1    3    3    0    0  0.30475279579E+02  0.52968822729E+02  0.48983294830E+02  0.78324976982E+02  0.10000000000E+01 0.  0.
<mgrwt>
<rscale>  0 0.12499967E+03</rscale>
<asrwt>0</asrwt>
<pdfrwt beam="2">  1        4 0.57075510E-02 0.12499967E+03</pdfrwt>
<pdfrwt beam="1">  1       -4 0.16198740E-01 0.12499967E+03</pdfrwt>
<totfact> 0.10084347E+04</totfact>
</mgrwt>
</event>
<event>
 4    1  0.3188180E-002  0.1248836E+03  0.7818608E-02  0.1235251E+00
          4   -1    0    0  501    0  0.00000000000E+00  0.00000000000E+00  0.24928148699E+02  0.24960478713E+02  0.12700000000E+01 0.  1.
         -4   -1    0    0    0  501 -0.00000000000E+00 -0.00000000000E+00 -0.15627230734E+03  0.15627746780E+03  0.12700000000E+01 0.  1.
    9000005    1    1    2    0    0  0.98186659173E+01  0.23774273692E+02  0.16888332415E+02  0.30786978769E+02  0.10000000000E+01 0.  0.
    9000005    1    1    2    0    0 -0.98186659173E+01 -0.23774273692E+02 -0.14823249106E+03  0.15045096774E+03  0.10000000000E+01 0.  0.
<mgrwt>
<rscale>  0 0.12488357E+03</rscale>
<asrwt>0</asrwt>
<pdfrwt beam="1">  1        4 0.38379838E-02 0.12488357E+03</pdfrwt>
<pdfrwt beam="2">  1       -4 0.24044777E-01 0.12488357E+03</pdfrwt>
<totfact> 0.93638852E+03</totfact>
</mgrwt>
</event>
<event>
 5    1  0.3188180E-002  0.1249948E+03  0.7818608E-02  0.1235077E+00
         -4   -1    0    0    0  501 -0.00000000000E+00  0.00000000000E+00  0.17554173320E+03  0.17554632720E+03  0.12700000000E+01 0. -1.
          4   -1    0    0  501    0  0.00000000000E+00 -0.00000000000E+00 -0.22227675578E+02  0.22263927363E+02  0.12700000000E+01 0. -1.
         25    2    1    2    0    0  0.00000000000E+00  0.00000000000E+00  0.15331405762E+03  0.19781025456E+03  0.12499478608E+03 0.  0.
    9000005    1    3    3    0    0 -0.11787095539E+02 -0.29300341418E+02  0.16198966466E+03  0.16504271291E+03  0.10000000000E+01 0.  0.
    9000005    1    3    3    0    0  0.11787095539E+02  0.29300341418E+02 -0.86756070403E+01  0.32767541653E+02  0.10000000000E+01 0.  0.
<mgrwt>
<rscale>  0 0.12499479E+03</rscale>
<asrwt>0</asrwt>
<pdfrwt beam="2">  1        4 0.34227843E-02 0.12499479E+03</pdfrwt>
<pdfrwt beam="1">  1       -4 0.27009563E-01 0.12499479E+03</pdfrwt>
<totfact> 0.90516396E+03</totfact>
</mgrwt>
</event>
<event>
 5    1  0.3188180E-002  0.1249997E+03  0.7818608E-02  0.1235070E+00
          4   -1    0    0  501    0  0.00000000000E+00  0.00000000000E+00  0.17248436671E+03  0.17248904214E+03  0.12700000000E+01 0. -1.
         -4   -1    0    0    0  501 -0.00000000000E+00 -0.00000000000E+00 -0.22624070096E+02  0.22659687723E+02  0.12700000000E+01 0. -1.
         25    2    1    2    0    0  0.00000000000E+00  0.00000000000E+00  0.14986029661E+03  0.19514872986E+03  0.12499967307E+03 0.  0.
    9000005    1    3    3    0    0 -0.22635916119E+00 -0.62480233955E+02  0.73083781173E+02  0.96156486750E+02  0.10000000000E+01 0.  0.
    9000005    1    3    3    0    0  0.22635916119E+00  0.62480233955E+02  0.76776515437E+02  0.98992243111E+02  0.10000000000E+01 0.  0.
<mgrwt>
<rscale>  0 0.12499967E+03</rscale>
<asrwt>0</asrwt>
<pdfrwt beam="1">  1        4 0.26539155E-01 0.12499967E+03</pdfrwt>
<pdfrwt beam="2">  1       -4 0.34837257E-02 0.12499967E+03</pdfrwt>
<totfact> 0.90959756E+03</totfact>
</mgrwt>
</event>
<event>
 5    1  0.3188180E-002  0.1250016E+03  0.7818608E-02  0.1235067E+00
          4   -1    0    0  501    0  0.00000000000E+00  0.00000000000E+00  0.44584825453E+03  0.44585006333E+03  0.12700000000E+01 0. -1.
         -4   -1    0    0    0  501 -0.00000000000E+00 -0.00000000000E+00 -0.87137518574E+01  0.88058146376E+01  0.12700000000E+01 0. -1.
         25    2    1    2    0    0  0.00000000000E+00  0.00000000000E+00  0.43713450267E+03  0.45465587796E+03  0.12500157575E+03 0.  0.
    9000005    1    3    3    0    0 -0.50457851134E+02 -0.15038528221E+02  0.34100629197E+03  0.34504846505E+03  0.10000000000E+01 0.  0.
    9000005    1    3    3    0    0  0.50457851134E+02  0.15038528221E+02  0.96128210704E+02  0.10960741291E+03  0.10000000000E+01 0.  0.
<mgrwt>
<rscale>  0 0.12500158E+03</rscale>
<asrwt>0</asrwt>
<pdfrwt beam="1">  1        4 0.68599235E-01 0.12500158E+03</pdfrwt>
<pdfrwt beam="2">  1       -4 0.13477986E-02 0.12500158E+03</pdfrwt>
<totfact> 0.59560513E+03</totfact>
</mgrwt>
</event>
<event>
 5    1  0.3188180E-002  0.1250028E+03  0.7818608E-02  0.1235065E+00
         -4   -1    0    0    0  501 -0.00000000000E+00  0.00000000000E+00  0.38001672821E+02  0.38022888333E+02  0.12700000000E+01 0. -1.
          4   -1    0    0  501    0  0.00000000000E+00 -0.00000000000E+00 -0.10274230189E+03  0.10275015084E+03  0.12700000000E+01 0. -1.
         25    2    1    2    0    0  0.00000000000E+00  0.00000000000E+00 -0.64740629069E+02  0.14077303917E+03  0.12500279799E+03 0.  0.
    9000005    1    3    3    0    0  0.11265397822E+02 -0.50603259402E+01  0.36619306192E+02  0.38658629990E+02  0.10000000000E+01 0.  0.
    9000005    1    3    3    0    0 -0.11265397822E+02  0.50603259402E+01 -0.10135993526E+03  0.10211440918E+03  0.10000000000E+01 0.  0.
<mgrwt>
<rscale>  0 0.12500280E+03</rscale>
<asrwt>0</asrwt>
<pdfrwt beam="2">  1        4 0.15808744E-01 0.12500280E+03</pdfrwt>
<pdfrwt beam="1">  1       -4 0.58486470E-02 0.12500280E+03</pdfrwt>
<totfact> 0.10116952E+04</totfact>
</mgrwt>
</event>
<event>
 5    1  0.3188180E-002  0.1249972E+03  0.7818608E-02  0.1235074E+00
         -4   -1    0    0    0  501 -0.00000000000E+00  0.00000000000E+00  0.84720210331E+02  0.84729728777E+02  0.12700000000E+01 0. -1.
          4   -1    0    0  501    0  0.00000000000E+00 -0.00000000000E+00 -0.46084765807E+02  0.46102261761E+02  0.12700000000E+01 0. -1.
         25    2    1    2    0    0  0.00000000000E+00  0.00000000000E+00  0.38635444524E+02  0.13083199054E+03  0.12499724867E+03 0.  0.
    9000005    1    3    3    0    0  0.15020266307E+01  0.49435641622E+02  0.59296738786E+02  0.77222030388E+02  0.10000000000E+01 0.  0.
    9000005    1    3    3    0    0 -0.15020266307E+01 -0.49435641622E+02 -0.20661294262E+02  0.53609960149E+02  0.10000000000E+01 0.  0.
<mgrwt>
<rscale>  0 0.12499725E+03</rscale>
<asrwt>0</asrwt>
<pdfrwt beam="2">  1        4 0.70920421E-02 0.12499725E+03</pdfrwt>
<pdfrwt beam="1">  1       -4 0.13035956E-01 0.12499725E+03</pdfrwt>
<totfact> 0.10327333E+04</totfact>
</mgrwt>
</event>
<event>
 5    1  0.3188180E-002  0.1249971E+03  0.7818608E-02  0.1235074E+00
         -4   -1    0    0    0  501 -0.00000000000E+00  0.00000000000E+00  0.66854697821E+02  0.66866759460E+02  0.12700000000E+01 0.  1.
          4   -1    0    0  501    0  0.00000000000E+00 -0.00000000000E+00 -0.58402027845E+02  0.58415834809E+02  0.12700000000E+01 0.  1.
         25    2    1    2    0    0  0.00000000000E+00  0.00000000000E+00  0.84526699753E+01  0.12528259427E+03  0.12499712316E+03 0.  0.
    9000005    1    3    3    0    0  0.23730174152E+00 -0.50910703903E+02 -0.32093340131E+02  0.60190851171E+02  0.10000000000E+01 0.  0.
    9000005    1    3    3    0    0 -0.23730174152E+00  0.50910703903E+02  0.40546010106E+02  0.65091743098E+02  0.10000000000E+01 0.  0.
<mgrwt>
<rscale>  0 0.12499712E+03</rscale>
<asrwt>0</asrwt>
<pdfrwt beam="2">  1        4 0.89869173E-02 0.12499712E+03</pdfrwt>
<pdfrwt beam="1">  1       -4 0.10287328E-01 0.12499712E+03</pdfrwt>
<totfact> 0.10447407E+04</totfact>
</mgrwt>
</event>
<event>
 5    1  0.3188180E-002  0.1249916E+03  0.7818608E-02  0.1235082E+00
          4   -1    0    0  501    0  0.00000000000E+00  0.00000000000E+00  0.68281801812E+02  0.68293611405E+02  0.12700000000E+01 0.  1.
         -4   -1    0    0    0  501 -0.00000000000E+00 -0.00000000000E+00 -0.57176293045E+02  0.57190395927E+02  0.12700000000E+01 0.  1.
         25    2    1    2    0    0  0.00000000000E+00  0.00000000000E+00  0.11105508767E+02  0.12548400733E+03  0.12499161480E+03 0.  0.
    9000005    1    3    3    0    0  0.30356016212E+02 -0.53328573510E+02 -0.62963452181E+01  0.61693341910E+02  0.10000000000E+01 0.  0.
    9000005    1    3    3    0    0 -0.30356016212E+02  0.53328573510E+02  0.17401853985E+02  0.63790665422E+02  0.10000000000E+01 0.  0.
<mgrwt>
<rscale>  0 0.12499161E+03</rscale>
<asrwt>0</asrwt>
<pdfrwt beam="1">  1        4 0.10506886E-01 0.12499161E+03</pdfrwt>
<pdfrwt beam="2">  1       -4 0.87983461E-02 0.12499161E+03</pdfrwt>
<totfact> 0.10444283E+04</totfact>
</mgrwt>
</event>
<event>
 5    1  0.3188180E-002  0.1249788E+03  0.7818608E-02  0.1235102E+00
          4   -1    0    0  501    0  0.00000000000E+00  0.00000000000E+00  0.19401620893E+03  0.19402036550E+03  0.12700000000E+01 0.  1.
         -4   -1    0    0    0  501 -0.00000000000E+00 -0.00000000000E+00 -0.20102380204E+02  0.20142457394E+02  0.12700000000E+01 0.  1.
         25    2    1    2    0    0  0.00000000000E+00  0.00000000000E+00  0.17391382872E+03  0.21416282289E+03  0.12497877775E+03 0.  0.
    9000005    1    3    3    0    0 -0.33065607390E+02 -0.51276069626E+02  0.11003349166E+03  0.12582105943E+03  0.10000000000E+01 0.  0.
    9000005    1    3    3    0    0  0.33065607390E+02  0.51276069626E+02  0.63880337066E+02  0.88341763465E+02  0.10000000000E+01 0.  0.
<mgrwt>
<rscale>  0 0.12497878E+03</rscale>
<asrwt>0</asrwt>
<pdfrwt beam="1">  1        4 0.29852050E-01 0.12497878E+03</pdfrwt>
<pdfrwt beam="2">  1       -4 0.30960765E-02 0.12497878E+03</pdfrwt>
<totfact> 0.87842173E+03</totfact>
</mgrwt>
</event>
<event>
 5    1  0.3188180E-002  0.1249985E+03  0.7818608E-02  0.1235072E+00
         -4   -1    0    0    0  501 -0.00000000000E+00  0.00000000000E+00  0.21656782898E+02  0.21693988694E+02  0.12700000000E+01 0.  1.
          4   -1    0    0  501    0  0.00000000000E+00 -0.00000000000E+00 -0.18017202495E+03  0.18017650089E+03  0.12700000000E+01 0.  1.
         25    2    1    2    0    0  0.00000000000E+00  0.00000000000E+00 -0.15851524205E+03  0.20187048959E+03  0.12499845041E+03 0.  0.
    9000005    1    3    3    0    0 -0.32262180772E+02  0.38067229253E+02 -0.18503502967E+02  0.53229144961E+02  0.10000000000E+01 0.  0.
    9000005    1    3    3    0    0  0.32262180772E+02 -0.38067229253E+02 -0.14001173908E+03  0.14864134463E+03  0.10000000000E+01 0.  0.
<mgrwt>
<rscale>  0 0.12499845E+03</rscale>
<asrwt>0</asrwt>
<pdfrwt beam="2">  1        4 0.27721978E-01 0.12499845E+03</pdfrwt>
<pdfrwt beam="1">  1       -4 0.33350192E-02 0.12499845E+03</pdfrwt>
<totfact> 0.89824104E+03</totfact>
</mgrwt>
</event>
<event>
 5    1  0.3188180E-002  0.1250015E+03  0.7818608E-02  0.1235067E+00
         -4   -1    0    0    0  501 -0.00000000000E+00  0.00000000000E+00  0.51749646992E+01  0.53285232136E+01  0.12700000000E+01 0.  1.
          4   -1    0    0  501    0  0.00000000000E+00 -0.00000000000E+00 -0.74366373546E+03  0.74366481989E+03  0.12700000000E+01 0.  1.
         25    2    1    2    0    0  0.00000000000E+00  0.00000000000E+00 -0.73848877076E+03  0.74899334310E+03  0.12500145387E+03 0.  0.
    9000005    1    3    3    0    0  0.45878410046E+02 -0.24778056821E+02 -0.16284528838E+03  0.17099230555E+03  0.10000000000E+01 0.  0.
    9000005    1    3    3    0    0 -0.45878410046E+02  0.24778056821E+02 -0.57564348238E+03  0.57800103756E+03  0.10000000000E+01 0.  0.
<mgrwt>
<rscale>  0 0.12500145E+03</rscale>
<asrwt>0</asrwt>
<pdfrwt beam="2">  1        4 0.11442162E+00 0.12500145E+03</pdfrwt>
<pdfrwt beam="1">  1       -4 0.80804462E-03 0.12500145E+03</pdfrwt>
<totfact> 0.40621063E+03</totfact>
</mgrwt>
</event>
<event>
 5    1  0.3188180E-002  0.1249984E+03  0.7818608E-02  0.1235072E+00
         -4   -1    0    0    0  501 -0.00000000000E+00  0.00000000000E+00  0.14465684955E+03  0.14466242436E+03  0.12700000000E+01 0.  1.
          4   -1    0    0  501    0  0.00000000000E+00 -0.00000000000E+00 -0.26981839720E+02  0.27011711806E+02  0.12700000000E+01 0.  1.
         25    2    1    2    0    0  0.00000000000E+00  0.00000000000E+00  0.11767500983E+03  0.17167413616E+03  0.12499840435E+03 0.  0.
    9000005    1    3    3    0    0  0.32138179731E+02  0.34328415596E+02  0.11536211340E+03  0.12458218140E+03  0.10000000000E+01 0.  0.
    9000005    1    3    3    0    0 -0.32138179731E+02 -0.34328415596E+02  0.23128964277E+01  0.47091954765E+02  0.10000000000E+01 0.  0.
<mgrwt>
<rscale>  0 0.12499840E+03</rscale>
<asrwt>0</asrwt>
<pdfrwt beam="2">  1        4 0.41537790E-02 0.12499840E+03</pdfrwt>
<pdfrwt beam="1">  1       -4 0.22257626E-01 0.12499840E+03</pdfrwt>
<totfact> 0.95140925E+03</totfact>
</mgrwt>
</event>
<event>
 5    1  0.3188180E-002  0.1249998E+03  0.7818608E-02  0.1235070E+00
         -4   -1    0    0    0  501 -0.00000000000E+00  0.00000000000E+00  0.43717384430E+02  0.43735827435E+02  0.12700000000E+01 0. -1.
          4   -1    0    0  501    0  0.00000000000E+00 -0.00000000000E+00 -0.89310235242E+02  0.89319264546E+02  0.12700000000E+01 0. -1.
         25    2    1    2    0    0  0.00000000000E+00  0.00000000000E+00 -0.45592850812E+02  0.13305509198E+03  0.12499979783E+03 0.  0.
    9000005    1    3    3    0    0  0.22721722055E+02  0.50675937517E+02  0.77014776739E+01  0.56077090284E+02  0.10000000000E+01 0.  0.
    9000005    1    3    3    0    0 -0.22721722055E+02 -0.50675937517E+02 -0.53294328486E+02  0.76978001696E+02  0.10000000000E+01 0.  0.
<mgrwt>
<rscale>  0 0.12499980E+03</rscale>
<asrwt>0</asrwt>
<pdfrwt beam="2">  1        4 0.13742149E-01 0.12499980E+03</pdfrwt>
<pdfrwt beam="1">  1       -4 0.67278647E-02 0.12499980E+03</pdfrwt>
<totfact> 0.10279276E+04</totfact>
</mgrwt>
</event>
<event>
 5    1  0.3188180E-002  0.1249994E+03  0.7818608E-02  0.1235070E+00
          4   -1    0    0  501    0  0.00000000000E+00  0.00000000000E+00  0.11848943946E+03  0.11849624535E+03  0.12700000000E+01 0. -1.
         -4   -1    0    0    0  501 -0.00000000000E+00 -0.00000000000E+00 -0.32946791468E+02  0.32971259728E+02  0.12700000000E+01 0. -1.
         25    2    1    2    0    0  0.00000000000E+00  0.00000000000E+00  0.85542647990E+02  0.15146750508E+03  0.12499944188E+03 0.  0.
    9000005    1    3    3    0    0 -0.42363284135E+02 -0.45930870247E+02  0.41607522492E+02  0.75076485082E+02  0.10000000000E+01 0.  0.
    9000005    1    3    3    0    0  0.42363284135E+02  0.45930870247E+02  0.43935125498E+02  0.76391020001E+02  0.10000000000E+01 0.  0.
<mgrwt>
<rscale>  0 0.12499944E+03</rscale>
<asrwt>0</asrwt>
<pdfrwt beam="1">  1        4 0.18231550E-01 0.12499944E+03</pdfrwt>
<pdfrwt beam="2">  1       -4 0.50711429E-02 0.12499944E+03</pdfrwt>
<totfact> 0.99013217E+03</totfact>
</mgrwt>
</event>
<event>
 5    1  0.3188180E-002  0.1249998E+03  0.7818608E-02  0.1235070E+00
          4   -1    0    0  501    0  0.00000000000E+00  0.00000000000E+00  0.78098815550E+01  0.79124680033E+01  0.12700000000E+01 0. -1.
         -4   -1    0    0    0  501 -0.00000000000E+00 -0.00000000000E+00 -0.49679931929E+03  0.49680094258E+03  0.12700000000E+01 0. -1.
         25    2    1    2    0    0  0.00000000000E+00  0.00000000000E+00 -0.48898943773E+03  0.50471341058E+03  0.12499982642E+03 0.  0.
    9000005    1    3    3    0    0  0.40504361079E+02  0.37236190091E+02 -0.12484603504E+03  0.13643558767E+03  0.10000000000E+01 0.  0.
    9000005    1    3    3    0    0 -0.40504361079E+02 -0.37236190091E+02 -0.36414340270E+03  0.36827782291E+03  0.10000000000E+01 0.  0.
<mgrwt>
<rscale>  0 0.12499983E+03</rscale>
<asrwt>0</asrwt>
<pdfrwt beam="1">  1        4 0.12095368E-02 0.12499983E+03</pdfrwt>
<pdfrwt beam="2">  1       -4 0.76438656E-01 0.12499983E+03</pdfrwt>
<totfact> 0.55500732E+03</totfact>
</mgrwt>
</event>
<event>
 5    1  0.3188180E-002  0.1249990E+03  0.7818608E-02  0.1235071E+00
          4   -1    0    0  501    0  0.00000000000E+00  0.00000000000E+00  0.38613136218E+03  0.38613345071E+03  0.12700000000E+01 0.  1.
         -4   -1    0    0    0  501 -0.00000000000E+00 -0.00000000000E+00 -0.10074236802E+02  0.10153971988E+02  0.12700000000E+01 0.  1.
         25    2    1    2    0    0  0.00000000000E+00  0.00000000000E+00  0.37605712537E+03  0.39628742270E+03  0.12499903937E+03 0.  0.
    9000005    1    3    3    0    0  0.11285903860E+02 -0.49310931059E+01  0.38226109722E+03  0.38246076106E+03  0.10000000000E+01 0.  0.
    9000005    1    3    3    0    0 -0.11285903860E+02  0.49310931059E+01 -0.62039718484E+01  0.13826661631E+02  0.10000000000E+01 0.  0.
<mgrwt>
<rscale>  0 0.12499904E+03</rscale>
<asrwt>0</asrwt>
<pdfrwt beam="1">  1        4 0.59411116E-01 0.12499904E+03</pdfrwt>
<pdfrwt beam="2">  1       -4 0.15561768E-02 0.12499904E+03</pdfrwt>
<totfact> 0.64916855E+03</totfact>
</mgrwt>
</event>
<event>
 5    1  0.3188180E-002  0.1249983E+03  0.7818608E-02  0.1235072E+00
         -4   -1    0    0    0  501 -0.00000000000E+00  0.00000000000E+00  0.81174675208E+02  0.81184609349E+02  0.12700000000E+01 0. -1.
          4   -1    0    0  501    0  0.00000000000E+00 -0.00000000000E+00 -0.48098977849E+02  0.48115741396E+02  0.12700000000E+01 0. -1.
         25    2    1    2    0    0  0.00000000000E+00  0.00000000000E+00  0.33075697359E+02  0.12930035074E+03  0.12499831578E+03 0.  0.
    9000005    1    3    3    0    0 -0.56523972607E+02 -0.26624220285E+02  0.17733551944E+02  0.64956042442E+02  0.10000000000E+01 0.  0.
    9000005    1    3    3    0    0  0.56523972607E+02  0.26624220285E+02  0.15342145415E+02  0.64344308303E+02  0.10000000000E+01 0.  0.
<mgrwt>
<rscale>  0 0.12499832E+03</rscale>
<asrwt>0</asrwt>
<pdfrwt beam="2">  1        4 0.74018965E-02 0.12499832E+03</pdfrwt>
<pdfrwt beam="1">  1       -4 0.12490465E-01 0.12499832E+03</pdfrwt>
<totfact> 0.10359891E+04</totfact>
</mgrwt>
</event>
<event>
 5    1  0.3188180E-002  0.1249973E+03  0.7818608E-02  0.1235073E+00
         -4   -1    0    0    0  501 -0.00000000000E+00  0.00000000000E+00  0.79099263954E+02  0.79109458715E+02  0.12700000000E+01 0.  1.
          4   -1    0    0  501    0  0.00000000000E+00 -0.00000000000E+00 -0.49360509340E+02  0.49376844596E+02  0.12700000000E+01 0.  1.
         25    2    1    2    0    0  0.00000000000E+00  0.00000000000E+00  0.29738754615E+02  0.12848630331E+03  0.12499734642E+03 0.  0.
    9000005    1    3    3    0    0  0.24153809464E+02 -0.17386416735E+02 -0.41613349907E+02  0.51169960807E+02  0.10000000000E+01 0.  0.
    9000005    1    3    3    0    0 -0.24153809464E+02  0.17386416735E+02  0.71352104522E+02  0.77316342504E+02  0.10000000000E+01 0.  0.
<mgrwt>
<rscale>  0 0.12499735E+03</rscale>
<asrwt>0</asrwt>
<pdfrwt beam="2">  1        4 0.75959654E-02 0.12499735E+03</pdfrwt>
<pdfrwt beam="1">  1       -4 0.12171158E-01 0.12499735E+03</pdfrwt>
<totfact> 0.10377620E+04</totfact>
</mgrwt>
</event>
<event>
 5    1  0.3188180E-002  0.1249877E+03  0.7818608E-02  0.1235089E+00
         -4   -1    0    0    0  501 -0.00000000000E+00  0.00000000000E+00  0.76740578609E+01  0.77784358359E+01  0.12700000000E+01 0.  1.
          4   -1    0    0  501    0  0.00000000000E+00 -0.00000000000E+00 -0.50537711376E+03  0.50537870950E+03  0.12700000000E+01 0.  1.
         25    2    1    2    0    0  0.00000000000E+00  0.00000000000E+00 -0.49770305590E+03  0.51315714534E+03  0.12498769521E+03 0.  0.
    9000005    1    3    3    0    0  0.55639976737E+02 -0.17538363885E+02 -0.15694707478E+03  0.16744188694E+03  0.10000000000E+01 0.  0.
    9000005    1    3    3    0    0 -0.55639976737E+02  0.17538363885E+02 -0.34075598112E+03  0.34571525840E+03  0.10000000000E+01 0.  0.
<mgrwt>
<rscale>  0 0.12498770E+03</rscale>
<asrwt>0</asrwt>
<pdfrwt beam="2">  1        4 0.77758451E-01 0.12498770E+03</pdfrwt>
<pdfrwt beam="1">  1       -4 0.11887765E-02 0.12498770E+03</pdfrwt>
<totfact> 0.54872642E+03</totfact>
</mgrwt>
</event>
<event>
 5    1  0.3188180E-002  0.1250027E+03  0.7818608E-02  0.1235065E+00
         -4   -1    0    0    0  501 -0.00000000000E+00  0.00000000000E+00  0.49924597767E+02  0.49940748514E+02  0.12700000000E+01 0.  1.
          4   -1    0    0  501    0  0.00000000000E+00 -0.00000000000E+00 -0.78212391528E+02  0.78222701874E+02  0.12700000000E+01 0.  1.
         25    2    1    2    0    0  0.00000000000E+00  0.00000000000E+00 -0.28287793761E+02  0.12816345039E+03  0.12500268293E+03 0.  0.
    9000005    1    3    3    0    0  0.56246062429E+02 -0.15940363536E+02 -0.36786301694E+02  0.69079278519E+02  0.10000000000E+01 0.  0.
    9000005    1    3    3    0    0 -0.56246062429E+02  0.15940363536E+02  0.84985079323E+01  0.59084171869E+02  0.10000000000E+01 0.  0.
<mgrwt>
<rscale>  0 0.12500268E+03</rscale>
<asrwt>0</asrwt>
<pdfrwt beam="2">  1        4 0.12034711E-01 0.12500268E+03</pdfrwt>
<pdfrwt beam="1">  1       -4 0.76827428E-02 0.12500268E+03</pdfrwt>
<totfact> 0.10383330E+04</totfact>
</mgrwt>
</event>
<event>
 5    1  0.3188180E-002  0.1250030E+03  0.7818608E-02  0.1235065E+00
         -4   -1    0    0    0  501 -0.00000000000E+00  0.00000000000E+00  0.13087826083E+03  0.13088442252E+03  0.12700000000E+01 0.  1.
          4   -1    0    0  501    0  0.00000000000E+00 -0.00000000000E+00 -0.29827480893E+02  0.29854505798E+02  0.12700000000E+01 0.  1.
         25    2    1    2    0    0  0.00000000000E+00  0.00000000000E+00  0.10105077994E+03  0.16073892832E+03  0.12500297177E+03 0.  0.
    9000005    1    3    3    0    0  0.22840203087E+02  0.49256332868E+02  0.10734191094E+02  0.55354169338E+02  0.10000000000E+01 0.  0.
    9000005    1    3    3    0    0 -0.22840203087E+02 -0.49256332868E+02  0.90316588847E+02  0.10538475898E+03  0.10000000000E+01 0.  0.
<mgrwt>
<rscale>  0 0.12500297E+03</rscale>
<asrwt>0</asrwt>
<pdfrwt beam="2">  1        4 0.45913960E-02 0.12500297E+03</pdfrwt>
<pdfrwt beam="1">  1       -4 0.20137670E-01 0.12500297E+03</pdfrwt>
<totfact> 0.97194022E+03</totfact>
</mgrwt>
</event>
<event>
 5    1  0.3188180E-002  0.1249932E+03  0.7818608E-02  0.1235080E+00
         -4   -1    0    0    0  501 -0.00000000000E+00  0.00000000000E+00  0.64686998006E+03  0.64687122676E+03  0.12700000000E+01 0. -1.
          4   -1    0    0  501    0  0.00000000000E+00 -0.00000000000E+00 -0.59699888985E+01  0.61035782495E+01  0.12700000000E+01 0. -1.
         25    2    1    2    0    0  0.00000000000E+00  0.00000000000E+00  0.64089999116E+03  0.65297480500E+03  0.12499318901E+03 0.  0.
    9000005    1    3    3    0    0  0.45794861143E+02  0.41795635639E+02  0.27972229223E+03  0.28651283608E+03  0.10000000000E+01 0.  0.
    9000005    1    3    3    0    0 -0.45794861143E+02 -0.41795635639E+02  0.36117769893E+03  0.36646196893E+03  0.10000000000E+01 0.  0.
<mgrwt>
<rscale>  0 0.12499319E+03</rscale>
<asrwt>0</asrwt>
<pdfrwt beam="2">  1        4 0.92883150E-03 0.12499319E+03</pdfrwt>
<pdfrwt beam="1">  1       -4 0.99528866E-01 0.12499319E+03</pdfrwt>
<totfact> 0.45692370E+03</totfact>
</mgrwt>
</event>
<event>
 5    1  0.3188180E-002  0.1249942E+03  0.7818608E-02  0.1235078E+00
         -4   -1    0    0    0  501 -0.00000000000E+00  0.00000000000E+00  0.68762290321E+03  0.68762407601E+03  0.12700000000E+01 0.  1.
          4   -1    0    0  501    0  0.00000000000E+00 -0.00000000000E+00 -0.56081003431E+01  0.57501034302E+01  0.12700000000E+01 0.  1.
         25    2    1    2    0    0  0.00000000000E+00  0.00000000000E+00  0.68201480286E+03  0.69337417944E+03  0.12499424545E+03 0.  0.
    9000005    1    3    3    0    0  0.86032152868E+01 -0.30764607105E+02  0.43082748530E+02  0.53643262247E+02  0.10000000000E+01 0.  0.
    9000005    1    3    3    0    0 -0.86032152868E+01  0.30764607105E+02  0.63893205433E+03  0.63973091720E+03  0.10000000000E+01 0.  0.
<mgrwt>
<rscale>  0 0.12499425E+03</rscale>
<asrwt>0</asrwt>
<pdfrwt beam="2">  1        4 0.87379824E-03 0.12499425E+03</pdfrwt>
<pdfrwt beam="1">  1       -4 0.10579915E+00 0.12499425E+03</pdfrwt>
<totfact> 0.43444243E+03</totfact>
</mgrwt>
</event>
<event>
 5    1  0.3188180E-002  0.1249996E+03  0.7818608E-02  0.1235070E+00
         -4   -1    0    0    0  501 -0.00000000000E+00  0.00000000000E+00  0.58378373723E+02  0.58392186279E+02  0.12700000000E+01 0.  1.
          4   -1    0    0  501    0  0.00000000000E+00 -0.00000000000E+00 -0.66884413358E+02  0.66896469640E+02  0.12700000000E+01 0.  1.
         25    2    1    2    0    0  0.00000000000E+00  0.00000000000E+00 -0.85060396358E+01  0.12528865592E+03  0.12499957837E+03 0.  0.
    9000005    1    3    3    0    0 -0.33369764564E+01  0.59745955631E+02  0.13802774121E+02  0.61418492326E+02  0.10000000000E+01 0.  0.
    9000005    1    3    3    0    0  0.33369764564E+01 -0.59745955631E+02 -0.22308813757E+02  0.63870163593E+02  0.10000000000E+01 0.  0.
<mgrwt>
<rscale>  0 0.12499958E+03</rscale>
<asrwt>0</asrwt>
<pdfrwt beam="2">  1        4 0.10291900E-01 0.12499958E+03</pdfrwt>
<pdfrwt beam="1">  1       -4 0.89832782E-02 0.12499958E+03</pdfrwt>
<totfact> 0.10446696E+04</totfact>
</mgrwt>
</event>
<event>
 5    1  0.3188180E-002  0.1250028E+03  0.7818608E-02  0.1235065E+00
          4   -1    0    0  501    0  0.00000000000E+00  0.00000000000E+00  0.34363142400E+03  0.34363377084E+03  0.12700000000E+01 0.  1.
         -4   -1    0    0    0  501 -0.00000000000E+00 -0.00000000000E+00 -0.11330209818E+02  0.11401164612E+02  0.12700000000E+01 0.  1.
         25    2    1    2    0    0  0.00000000000E+00  0.00000000000E+00  0.33230121418E+03  0.35503493545E+03  0.12500283374E+03 0.  0.
    9000005    1    3    3    0    0  0.20977708692E+01  0.55115946384E+02  0.24959972864E+03  0.25562314591E+03  0.10000000000E+01 0.  0.
    9000005    1    3    3    0    0 -0.20977708692E+01 -0.55115946384E+02  0.82701485540E+02  0.99411789537E+02  0.10000000000E+01 0.  0.
<mgrwt>
<rscale>  0 0.12500283E+03</rscale>
<asrwt>0</asrwt>
<pdfrwt beam="1">  1        4 0.52872024E-01 0.12500283E+03</pdfrwt>
<pdfrwt beam="2">  1       -4 0.17487474E-02 0.12500283E+03</pdfrwt>
<totfact> 0.69169833E+03</totfact>
</mgrwt>
</event>
<event>
 5    1  0.3188180E-002  0.1250032E+03  0.7818608E-02  0.1235064E+00
         -4   -1    0    0    0  501 -0.00000000000E+00  0.00000000000E+00  0.28911676477E+02  0.28939556609E+02  0.12700000000E+01 0.  1.
          4   -1    0    0  501    0  0.00000000000E+00 -0.00000000000E+00 -0.13502060844E+03  0.13502658110E+03  0.12700000000E+01 0.  1.
         25    2    1    2    0    0  0.00000000000E+00  0.00000000000E+00 -0.10610893196E+03  0.16396613770E+03  0.12500315545E+03 0.  0.
    9000005    1    3    3    0    0 -0.77805514062E+01  0.58680129064E+02 -0.79339252919E+02  0.98992987534E+02  0.10000000000E+01 0.  0.
    9000005    1    3    3    0    0  0.77805514062E+01 -0.58680129064E+02 -0.26769679039E+02  0.64973150170E+02  0.10000000000E+01 0.  0.
<mgrwt>
<rscale>  0 0.12500316E+03</rscale>
<asrwt>0</asrwt>
<pdfrwt beam="2">  1        4 0.20775005E-01 0.12500316E+03</pdfrwt>
<pdfrwt beam="1">  1       -4 0.44505544E-02 0.12500316E+03</pdfrwt>
<totfact> 0.96576701E+03</totfact>
</mgrwt>
</event>
<event>
 5    1  0.3188180E-002  0.1250007E+03  0.7818608E-02  0.1235068E+00
         -4   -1    0    0    0  501 -0.00000000000E+00  0.00000000000E+00  0.20283477042E+04  0.20283481018E+04  0.12700000000E+01 0.  1.
          4   -1    0    0  501    0  0.00000000000E+00 -0.00000000000E+00 -0.17160330184E+01  0.21348698603E+01  0.12700000000E+01 0.  1.
         25    2    1    2    0    0  0.00000000000E+00  0.00000000000E+00  0.20266316711E+04  0.20304829716E+04  0.12500067009E+03 0.  0.
    9000005    1    3    3    0    0 -0.18132368933E+01  0.58535255735E+02  0.65905701981E+03  0.66165460729E+03  0.10000000000E+01 0.  0.
    9000005    1    3    3    0    0  0.18132368933E+01 -0.58535255735E+02  0.13675746513E+04  0.13688283643E+04  0.10000000000E+01 0.  0.
<mgrwt>
<rscale>  0 0.12500067E+03</rscale>
<asrwt>0</asrwt>
<pdfrwt beam="2">  1        4 0.29625400E-03 0.12500067E+03</pdfrwt>
<pdfrwt beam="1">  1       -4 0.31208561E+00 0.12500067E+03</pdfrwt>
<totfact> 0.94684180E+02</totfact>
</mgrwt>
</event>
<event>
 5    1  0.3188180E-002  0.1249992E+03  0.7818608E-02  0.1235070E+00
          4   -1    0    0  501    0  0.00000000000E+00  0.00000000000E+00  0.15958260170E+02  0.16008715366E+02  0.12700000000E+01 0.  1.
         -4   -1    0    0    0  501 -0.00000000000E+00 -0.00000000000E+00 -0.24433773561E+03  0.24434103614E+03  0.12700000000E+01 0.  1.
         25    2    1    2    0    0  0.00000000000E+00  0.00000000000E+00 -0.22837947544E+03  0.26034975151E+03  0.12499923323E+03 0.  0.
    9000005    1    3    3    0    0  0.61576492863E+02  0.91217086374E+01 -0.10271875583E+03  0.12011250077E+03  0.10000000000E+01 0.  0.
    9000005    1    3    3    0    0 -0.61576492863E+02 -0.91217086374E+01 -0.12566071961E+03  0.14023725074E+03  0.10000000000E+01 0.  0.
<mgrwt>
<rscale>  0 0.12499923E+03</rscale>
<asrwt>0</asrwt>
<pdfrwt beam="1">  1        4 0.24592522E-02 0.12499923E+03</pdfrwt>
<pdfrwt beam="2">  1       -4 0.37594553E-01 0.12499923E+03</pdfrwt>
<totfact> 0.80858384E+03</totfact>
</mgrwt>
</event>
<event>
 5    1  0.3188180E-002  0.1250241E+03  0.7818608E-02  0.1235032E+00
          4   -1    0    0  501    0  0.00000000000E+00  0.00000000000E+00  0.29219975495E+03  0.29220251487E+03  0.12700000000E+01 0.  1.
         -4   -1    0    0    0  501 -0.00000000000E+00 -0.00000000000E+00 -0.13340593839E+02  0.13400908327E+02  0.12700000000E+01 0.  1.
         25    2    1    2    0    0  0.00000000000E+00  0.00000000000E+00  0.27885916112E+03  0.30560342320E+03  0.12502407980E+03 0.  0.
    9000005    1    3    3    0    0  0.39534605437E+01 -0.47602766287E+02  0.23796783171E+03  0.24271658809E+03  0.10000000000E+01 0.  0.
    9000005    1    3    3    0    0 -0.39534605437E+01  0.47602766287E+02  0.40891329410E+02  0.62886835104E+02  0.10000000000E+01 0.  0.
<mgrwt>
<rscale>  0 0.12502408E+03</rscale>
<asrwt>0</asrwt>
<pdfrwt beam="1">  1        4 0.44958655E-01 0.12502408E+03</pdfrwt>
<pdfrwt beam="2">  1       -4 0.20572512E-02 0.12502408E+03</pdfrwt>
<totfact> 0.74861281E+03</totfact>
</mgrwt>
</event>
<event>
 5    1  0.3188180E-002  0.1249980E+03  0.7818608E-02  0.1235072E+00
         -4   -1    0    0    0  501 -0.00000000000E+00  0.00000000000E+00  0.81330143863E+02  0.81340059017E+02  0.12700000000E+01 0.  1.
          4   -1    0    0  501    0  0.00000000000E+00 -0.00000000000E+00 -0.48006756703E+02  0.48023552442E+02  0.12700000000E+01 0.  1.
         25    2    1    2    0    0  0.00000000000E+00  0.00000000000E+00  0.33323387160E+02  0.12936361146E+03  0.12499798334E+03 0.  0.
    9000005    1    3    3    0    0 -0.13633247916E+02  0.53669903606E+02  0.46635253384E+02  0.72402837375E+02  0.10000000000E+01 0.  0.
    9000005    1    3    3    0    0  0.13633247916E+02 -0.53669903606E+02 -0.13311866224E+02  0.56960774083E+02  0.10000000000E+01 0.  0.
<mgrwt>
<rscale>  0 0.12499798E+03</rscale>
<asrwt>0</asrwt>
<pdfrwt beam="2">  1        4 0.73877096E-02 0.12499798E+03</pdfrwt>
<pdfrwt beam="1">  1       -4 0.12514384E-01 0.12499798E+03</pdfrwt>
<totfact> 0.10358612E+04</totfact>
</mgrwt>
</event>
<event>
 5    1  0.3188180E-002  0.1249969E+03  0.7818608E-02  0.1235074E+00
         -4   -1    0    0    0  501 -0.00000000000E+00  0.00000000000E+00  0.19751711996E+04  0.19751716079E+04  0.12700000000E+01 0. -1.
          4   -1    0    0  501    0  0.00000000000E+00 -0.00000000000E+00 -0.17732294206E+01  0.21811104002E+01  0.12700000000E+01 0. -1.
         25    2    1    2    0    0  0.00000000000E+00  0.00000000000E+00  0.19733979702E+04  0.19773527183E+04  0.12499689531E+03 0.  0.
    9000005    1    3    3    0    0 -0.16094553166E+02  0.19206107767E+02  0.81106388566E+02  0.84894967362E+02  0.10000000000E+01 0.  0.
    9000005    1    3    3    0    0  0.16094553166E+02 -0.19206107767E+02  0.18922915816E+04  0.18924577510E+04  0.10000000000E+01 0.  0.
<mgrwt>
<rscale>  0 0.12499690E+03</rscale>
<asrwt>0</asrwt>
<pdfrwt beam="2">  1        4 0.30421037E-03 0.12499690E+03</pdfrwt>
<pdfrwt beam="1">  1       -4 0.30390492E+00 0.12499690E+03</pdfrwt>
<totfact> 0.10160382E+03</totfact>
</mgrwt>
</event>
<event>
 5    1  0.3188180E-002  0.1250009E+03  0.7818608E-02  0.1235068E+00
         -4   -1    0    0    0  501 -0.00000000000E+00  0.00000000000E+00  0.53493555623E+03  0.53493706380E+03  0.12700000000E+01 0.  1.
          4   -1    0    0  501    0  0.00000000000E+00 -0.00000000000E+00 -0.72456383635E+01  0.73560978307E+01  0.12700000000E+01 0.  1.
         25    2    1    2    0    0  0.00000000000E+00  0.00000000000E+00  0.52768991787E+03  0.54229316163E+03  0.12500089490E+03 0.  0.
    9000005    1    3    3    0    0  0.34091754799E+02  0.50515624843E+01  0.49000140490E+03  0.49121293024E+03  0.10000000000E+01 0.  0.
    9000005    1    3    3    0    0 -0.34091754799E+02 -0.50515624843E+01  0.37688512967E+02  0.51080231386E+02  0.10000000000E+01 0.  0.
<mgrwt>
<rscale>  0 0.12500089E+03</rscale>
<asrwt>0</asrwt>
<pdfrwt beam="2">  1        4 0.11233267E-02 0.12500089E+03</pdfrwt>
<pdfrwt beam="1">  1       -4 0.82306371E-01 0.12500089E+03</pdfrwt>
<totfact> 0.52725008E+03</totfact>
</mgrwt>
</event>
<event>
 5    1  0.3188180E-002  0.1249971E+03  0.7818608E-02  0.1235074E+00
         -4   -1    0    0    0  501 -0.00000000000E+00  0.00000000000E+00  0.11026954516E+02  0.11099848013E+02  0.12700000000E+01 0. -1.
          4   -1    0    0  501    0  0.00000000000E+00 -0.00000000000E+00 -0.35298833304E+03  0.35299061767E+03  0.12700000000E+01 0. -1.
         25    2    1    2    0    0  0.00000000000E+00  0.00000000000E+00 -0.34196137853E+03  0.36409046569E+03  0.12499713116E+03 0.  0.
    9000005    1    3    3    0    0 -0.18833369354E+02 -0.46644035292E+02 -0.27897841954E+03  0.28347895936E+03  0.10000000000E+01 0.  0.
    9000005    1    3    3    0    0  0.18833369354E+02  0.46644035292E+02 -0.62982958984E+02  0.80611506324E+02  0.10000000000E+01 0.  0.
<mgrwt>
<rscale>  0 0.12499713E+03</rscale>
<asrwt>0</asrwt>
<pdfrwt beam="2">  1        4 0.54311672E-01 0.12499713E+03</pdfrwt>
<pdfrwt beam="1">  1       -4 0.17022377E-02 0.12499713E+03</pdfrwt>
<totfact> 0.68206081E+03</totfact>
</mgrwt>
</event>
<event>
 5    1  0.3188180E-002  0.1250005E+03  0.7818608E-02  0.1235068E+00
         -4   -1    0    0    0  501 -0.00000000000E+00  0.00000000000E+00  0.40679583412E+02  0.40699403024E+02  0.12700000000E+01 0.  1.
          4   -1    0    0  501    0  0.00000000000E+00 -0.00000000000E+00 -0.95978236563E+02  0.95986638621E+02  0.12700000000E+01 0.  1.
         25    2    1    2    0    0  0.00000000000E+00  0.00000000000E+00 -0.55298653151E+02  0.13668604165E+03  0.12500053176E+03 0.  0.
    9000005    1    3    3    0    0  0.42765076610E+02 -0.31120883877E+02  0.87477839968E+01  0.53617953295E+02  0.10000000000E+01 0.  0.
    9000005    1    3    3    0    0 -0.42765076610E+02  0.31120883877E+02 -0.64046437148E+02  0.83068088350E+02  0.10000000000E+01 0.  0.
<mgrwt>
<rscale>  0 0.12500053E+03</rscale>
<asrwt>0</asrwt>
<pdfrwt beam="2">  1        4 0.14768053E-01 0.12500053E+03</pdfrwt>
<pdfrwt beam="1">  1       -4 0.62605684E-02 0.12500053E+03</pdfrwt>
<totfact> 0.10202532E+04</totfact>
</mgrwt>
</event>
<event>
 5    1  0.3188180E-002  0.1249878E+03  0.7818608E-02  0.1235088E+00
         -4   -1    0    0    0  501 -0.00000000000E+00  0.00000000000E+00  0.27908846957E+02  0.27937727869E+02  0.12700000000E+01 0.  1.
          4   -1    0    0  501    0  0.00000000000E+00 -0.00000000000E+00 -0.13983318811E+03  0.13983895522E+03  0.12700000000E+01 0.  1.
         25    2    1    2    0    0  0.00000000000E+00  0.00000000000E+00 -0.11192434115E+03  0.16777668309E+03  0.12498782839E+03 0.  0.
    9000005    1    3    3    0    0  0.38942637679E+02  0.16406033730E+02 -0.11775087707E+03  0.12510777763E+03  0.10000000000E+01 0.  0.
    9000005    1    3    3    0    0 -0.38942637679E+02 -0.16406033730E+02  0.58265359196E+01  0.42668905458E+02  0.10000000000E+01 0.  0.
<mgrwt>
<rscale>  0 0.12498783E+03</rscale>
<asrwt>0</asrwt>
<pdfrwt beam="2">  1        4 0.21515463E-01 0.12498783E+03</pdfrwt>
<pdfrwt beam="1">  1       -4 0.42963341E-02 0.12498783E+03</pdfrwt>
<totfact> 0.95890311E+03</totfact>
</mgrwt>
</event>
<event>
 5    1  0.3188180E-002  0.1249935E+03  0.7818608E-02  0.1235079E+00
          4   -1    0    0  501    0  0.00000000000E+00  0.00000000000E+00  0.93030811696E+03  0.93030898383E+03  0.12700000000E+01 0. -1.
         -4   -1    0    0    0  501 -0.00000000000E+00 -0.00000000000E+00 -0.41015099144E+01  0.42936329114E+01  0.12700000000E+01 0. -1.
         25    2    1    2    0    0  0.00000000000E+00  0.00000000000E+00  0.92620660705E+03  0.93460261674E+03  0.12499348892E+03 0.  0.
    9000005    1    3    3    0    0 -0.48641215524E+01  0.13491320135E+02  0.83335100417E+01  0.16616942771E+02  0.10000000000E+01 0.  0.
    9000005    1    3    3    0    0  0.48641215524E+01 -0.13491320135E+02  0.91787309701E+03  0.91798567397E+03  0.10000000000E+01 0.  0.
<mgrwt>
<rscale>  0 0.12499349E+03</rscale>
<asrwt>0</asrwt>
<pdfrwt beam="1">  1        4 0.14313917E+00 0.12499349E+03</pdfrwt>
<pdfrwt beam="2">  1       -4 0.64584690E-03 0.12499349E+03</pdfrwt>
<totfact> 0.32873696E+03</totfact>
</mgrwt>
</event>
<event>
 5    1  0.3188180E-002  0.1250024E+03  0.7818608E-02  0.1235066E+00
         -4   -1    0    0    0  501 -0.00000000000E+00  0.00000000000E+00  0.16108914008E+03  0.16109414624E+03  0.12700000000E+01 0.  1.
          4   -1    0    0  501    0  0.00000000000E+00 -0.00000000000E+00 -0.24227901777E+02  0.24261164945E+02  0.12700000000E+01 0.  1.
         25    2    1    2    0    0  0.00000000000E+00  0.00000000000E+00  0.13686123831E+03  0.18535531119E+03  0.12500237131E+03 0.  0.
    9000005    1    3    3    0    0  0.20655546101E+02  0.11888562197E+02 -0.17232026019E+02  0.29426726229E+02  0.10000000000E+01 0.  0.
    9000005    1    3    3    0    0 -0.20655546101E+02 -0.11888562197E+02  0.15409326433E+03  0.15592858496E+03  0.10000000000E+01 0.  0.
<mgrwt>
<rscale>  0 0.12500237E+03</rscale>
<asrwt>0</asrwt>
<pdfrwt beam="2">  1        4 0.37303132E-02 0.12500237E+03</pdfrwt>
<pdfrwt beam="1">  1       -4 0.24785889E-01 0.12500237E+03</pdfrwt>
<totfact> 0.92656890E+03</totfact>
</mgrwt>
</event>
<event>
 5    1  0.3188180E-002  0.1250039E+03  0.7818608E-02  0.1235063E+00
         -4   -1    0    0    0  501 -0.00000000000E+00  0.00000000000E+00  0.11041470437E+03  0.11042200796E+03  0.12700000000E+01 0. -1.
          4   -1    0    0  501    0  0.00000000000E+00 -0.00000000000E+00 -0.35360332522E+02  0.35383131801E+02  0.12700000000E+01 0. -1.
         25    2    1    2    0    0  0.00000000000E+00  0.00000000000E+00  0.75054371848E+02  0.14580513976E+03  0.12500392012E+03 0.  0.
    9000005    1    3    3    0    0  0.10929915237E+02 -0.49032017641E+02  0.80886903259E+02  0.95222334144E+02  0.10000000000E+01 0.  0.
    9000005    1    3    3    0    0 -0.10929915237E+02  0.49032017641E+02 -0.58325314110E+01  0.50582805613E+02  0.10000000000E+01 0.  0.
<mgrwt>
<rscale>  0 0.12500392E+03</rscale>
<asrwt>0</asrwt>
<pdfrwt beam="2">  1        4 0.54423669E-02 0.12500392E+03</pdfrwt>
<pdfrwt beam="1">  1       -4 0.16989193E-01 0.12500392E+03</pdfrwt>
<totfact> 0.10013772E+04</totfact>
</mgrwt>
</event>
<event>
 5    1  0.3188180E-002  0.1249990E+03  0.7818608E-02  0.1235071E+00
          4   -1    0    0  501    0  0.00000000000E+00  0.00000000000E+00  0.29196916046E+01  0.31839439483E+01  0.12700000000E+01 0. -1.
         -4   -1    0    0    0  501 -0.00000000000E+00 -0.00000000000E+00 -0.12796895138E+04  0.12796901440E+04  0.12700000000E+01 0. -1.
         25    2    1    2    0    0  0.00000000000E+00  0.00000000000E+00 -0.12767698222E+04  0.12828740879E+04  0.12499898655E+03 0.  0.
    9000005    1    3    3    0    0  0.44805016704E+02  0.43096079438E+02 -0.70363828299E+03  0.70637992248E+03  0.10000000000E+01 0.  0.
    9000005    1    3    3    0    0 -0.44805016704E+02 -0.43096079438E+02 -0.57313153918E+03  0.57649416544E+03  0.10000000000E+01 0.  0.
<mgrwt>
<rscale>  0 0.12499899E+03</rscale>
<asrwt>0</asrwt>
<pdfrwt beam="1">  1        4 0.46955993E-03 0.12499899E+03</pdfrwt>
<pdfrwt beam="2">  1       -4 0.19689526E+00 0.12499899E+03</pdfrwt>
<totfact> 0.22636928E+03</totfact>
</mgrwt>
</event>
<event>
 5    1  0.3188180E-002  0.1250009E+03  0.7818608E-02  0.1235068E+00
         -4   -1    0    0    0  501 -0.00000000000E+00  0.00000000000E+00  0.16042642413E+03  0.16043145097E+03  0.12700000000E+01 0. -1.
          4   -1    0    0  501    0  0.00000000000E+00 -0.00000000000E+00 -0.24327564571E+02  0.24360691656E+02  0.12700000000E+01 0. -1.
         25    2    1    2    0    0  0.00000000000E+00  0.00000000000E+00  0.13609885956E+03  0.18479214262E+03  0.12500094560E+03 0.  0.
    9000005    1    3    3    0    0  0.45087525355E+02  0.43268665452E+02  0.68783769399E+02  0.92936910242E+02  0.10000000000E+01 0.  0.
    9000005    1    3    3    0    0 -0.45087525355E+02 -0.43268665452E+02  0.67315090162E+02  0.91855232383E+02  0.10000000000E+01 0.  0.
<mgrwt>
<rscale>  0 0.12500095E+03</rscale>
<asrwt>0</asrwt>
<pdfrwt beam="2">  1        4 0.37456372E-02 0.12500095E+03</pdfrwt>
<pdfrwt beam="1">  1       -4 0.24683923E-01 0.12500095E+03</pdfrwt>
<totfact> 0.92759479E+03</totfact>
</mgrwt>
</event>
<event>
 5    1  0.3188180E-002  0.1249968E+03  0.7818608E-02  0.1235074E+00
         -4   -1    0    0    0  501 -0.00000000000E+00  0.00000000000E+00  0.70139734062E+02  0.70151230882E+02  0.12700000000E+01 0.  1.
          4   -1    0    0  501    0  0.00000000000E+00 -0.00000000000E+00 -0.55666276149E+02  0.55680761491E+02  0.12700000000E+01 0.  1.
         25    2    1    2    0    0  0.00000000000E+00  0.00000000000E+00  0.14473457913E+02  0.12583199237E+03  0.12499683724E+03 0.  0.
    9000005    1    3    3    0    0  0.93286921491E+01 -0.10773826158E+02  0.68486923147E+02  0.69961121127E+02  0.10000000000E+01 0.  0.
    9000005    1    3    3    0    0 -0.93286921491E+01  0.10773826158E+02 -0.54013465233E+02  0.55870871246E+02  0.10000000000E+01 0.  0.
<mgrwt>
<rscale>  0 0.12499684E+03</rscale>
<asrwt>0</asrwt>
<pdfrwt beam="2">  1        4 0.85660411E-02 0.12499684E+03</pdfrwt>
<pdfrwt beam="1">  1       -4 0.10792727E-01 0.12499684E+03</pdfrwt>
<totfact> 0.10435387E+04</totfact>
</mgrwt>
</event>
<event>
 5    1  0.3188180E-002  0.1249985E+03  0.7818608E-02  0.1235072E+00
         -4   -1    0    0    0  501 -0.00000000000E+00  0.00000000000E+00  0.94489668093E+03  0.94489753440E+03  0.12700000000E+01 0.  1.
          4   -1    0    0  501    0  0.00000000000E+00 -0.00000000000E+00 -0.40355354083E+01  0.42306555085E+01  0.12700000000E+01 0.  1.
         25    2    1    2    0    0  0.00000000000E+00  0.00000000000E+00  0.94086114552E+03  0.94912818991E+03  0.12499850297E+03 0.  0.
    9000005    1    3    3    0    0  0.47311353175E+02  0.52872319797E+01  0.77781934753E+03  0.77927546885E+03  0.10000000000E+01 0.  0.
    9000005    1    3    3    0    0 -0.47311353175E+02 -0.52872319797E+01  0.16304179799E+03  0.16985272106E+03  0.10000000000E+01 0.  0.
<mgrwt>
<rscale>  0 0.12499850E+03</rscale>
<asrwt>0</asrwt>
<pdfrwt beam="2">  1        4 0.63592548E-03 0.12499850E+03</pdfrwt>
<pdfrwt beam="1">  1       -4 0.14538403E+00 0.12499850E+03</pdfrwt>
<totfact> 0.32347945E+03</totfact>
</mgrwt>
</event>
<event>
 5    1  0.3188180E-002  0.1250021E+03  0.7818608E-02  0.1235066E+00
         -4   -1    0    0    0  501 -0.00000000000E+00  0.00000000000E+00  0.45055348098E+02  0.45073243640E+02  0.12700000000E+01 0. -1.
          4   -1    0    0  501    0  0.00000000000E+00 -0.00000000000E+00 -0.86662001314E+02  0.86671306507E+02  0.12700000000E+01 0. -1.
         25    2    1    2    0    0  0.00000000000E+00  0.00000000000E+00 -0.41606653216E+02  0.13174455015E+03  0.12500205159E+03 0.  0.
    9000005    1    3    3    0    0 -0.28065940166E+02 -0.76760464432E+01  0.37485885677E+02  0.47463778942E+02  0.10000000000E+01 0.  0.
    9000005    1    3    3    0    0  0.28065940166E+02  0.76760464432E+01 -0.79092538893E+02  0.84280771206E+02  0.10000000000E+01 0.  0.
<mgrwt>
<rscale>  0 0.12500205E+03</rscale>
<asrwt>0</asrwt>
<pdfrwt beam="2">  1        4 0.13334708E-01 0.12500205E+03</pdfrwt>
<pdfrwt beam="1">  1       -4 0.69336844E-02 0.12500205E+03</pdfrwt>
<totfact> 0.10306677E+04</totfact>
</mgrwt>
</event>
<event>
 5    1  0.3188180E-002  0.1250006E+03  0.7818608E-02  0.1235068E+00
          4   -1    0    0  501    0  0.00000000000E+00  0.00000000000E+00  0.26945445361E+02  0.26975357749E+02  0.12700000000E+01 0.  1.
         -4   -1    0    0    0  501 -0.00000000000E+00 -0.00000000000E+00 -0.14485701327E+03  0.14486258037E+03  0.12700000000E+01 0.  1.
         25    2    1    2    0    0  0.00000000000E+00  0.00000000000E+00 -0.11791156791E+03  0.17183793812E+03  0.12500055653E+03 0.  0.
    9000005    1    3    3    0    0  0.15239467924E+02  0.57943335020E+02 -0.83377983379E+02  0.10267696708E+03  0.10000000000E+01 0.  0.
    9000005    1    3    3    0    0 -0.15239467924E+02 -0.57943335020E+02 -0.34533584528E+02  0.69160971047E+02  0.10000000000E+01 0.  0.
<mgrwt>
<rscale>  0 0.12500056E+03</rscale>
<asrwt>0</asrwt>
<pdfrwt beam="1">  1        4 0.41481824E-02 0.12500056E+03</pdfrwt>
<pdfrwt beam="2">  1       -4 0.22288423E-01 0.12500056E+03</pdfrwt>
<totfact> 0.95105988E+03</totfact>
</mgrwt>
</event>
<event>
 5    1  0.3188180E-002  0.1249818E+03  0.7818608E-02  0.1235098E+00
         -4   -1    0    0    0  501 -0.00000000000E+00  0.00000000000E+00  0.79293811568E+01  0.80304411791E+01  0.12700000000E+01 0.  1.
          4   -1    0    0  501    0  0.00000000000E+00 -0.00000000000E+00 -0.48926613889E+03  0.48926778718E+03  0.12700000000E+01 0.  1.
         25    2    1    2    0    0  0.00000000000E+00  0.00000000000E+00 -0.48133675774E+03  0.49729822835E+03  0.12498181298E+03 0.  0.
    9000005    1    3    3    0    0  0.11792950917E+02 -0.40100049800E+01 -0.48429540829E+03  0.48445659901E+03  0.10000000000E+01 0.  0.
    9000005    1    3    3    0    0 -0.11792950917E+02  0.40100049800E+01  0.29586505511E+01  0.12841629349E+02  0.10000000000E+01 0.  0.
<mgrwt>
<rscale>  0 0.12498181E+03</rscale>
<asrwt>0</asrwt>
<pdfrwt beam="2">  1        4 0.75279591E-01 0.12498181E+03</pdfrwt>
<pdfrwt beam="1">  1       -4 0.12278058E-02 0.12498181E+03</pdfrwt>
<totfact> 0.56097044E+03</totfact>
</mgrwt>
</event>
<event>
 5    1  0.3188180E-002  0.1249954E+03  0.7818608E-02  0.1235076E+00
          4   -1    0    0  501    0  0.00000000000E+00  0.00000000000E+00  0.18580916877E+03  0.18581350893E+03  0.12700000000E+01 0. -1.
         -4   -1    0    0    0  501 -0.00000000000E+00 -0.00000000000E+00 -0.20997588778E+02  0.21035960508E+02  0.12700000000E+01 0. -1.
         25    2    1    2    0    0  0.00000000000E+00  0.00000000000E+00  0.16481157999E+03  0.20684946944E+03  0.12499538434E+03 0.  0.
    9000005    1    3    3    0    0  0.17611591930E+00 -0.13574831470E+02  0.18334737140E+03  0.18385202111E+03  0.10000000000E+01 0.  0.
    9000005    1    3    3    0    0 -0.17611591930E+00  0.13574831470E+02 -0.18535791409E+02  0.22997448324E+02  0.10000000000E+01 0.  0.
<mgrwt>
<rscale>  0 0.12499538E+03</rscale>
<asrwt>0</asrwt>
<pdfrwt beam="1">  1        4 0.28589311E-01 0.12499538E+03</pdfrwt>
<pdfrwt beam="2">  1       -4 0.32336839E-02 0.12499538E+03</pdfrwt>
<totfact> 0.89002189E+03</totfact>
</mgrwt>
</event>
<event>
 5    1  0.3188180E-002  0.1249942E+03  0.7818608E-02  0.1235078E+00
         -4   -1    0    0    0  501 -0.00000000000E+00  0.00000000000E+00  0.63495289435E+01  0.64752928740E+01  0.12700000000E+01 0.  1.
          4   -1    0    0  501    0  0.00000000000E+00 -0.00000000000E+00 -0.60898760426E+03  0.60898892850E+03  0.12700000000E+01 0.  1.
         25    2    1    2    0    0  0.00000000000E+00  0.00000000000E+00 -0.60263807532E+03  0.61546422138E+03  0.12499423178E+03 0.  0.
    9000005    1    3    3    0    0  0.11724132232E+02  0.35337952003E+02 -0.54843335155E+03  0.54969661380E+03  0.10000000000E+01 0.  0.
    9000005    1    3    3    0    0 -0.11724132232E+02 -0.35337952003E+02 -0.54204723764E+02  0.65767607579E+02  0.10000000000E+01 0.  0.
<mgrwt>
<rscale>  0 0.12499423E+03</rscale>
<asrwt>0</asrwt>
<pdfrwt beam="2">  1        4 0.93700131E-01 0.12499423E+03</pdfrwt>
<pdfrwt beam="1">  1       -4 0.98662710E-03 0.12499423E+03</pdfrwt>
<totfact> 0.47911866E+03</totfact>
</mgrwt>
</event>
<event>
 5    1  0.3188180E-002  0.1249986E+03  0.7818608E-02  0.1235071E+00
         -4   -1    0    0    0  501 -0.00000000000E+00  0.00000000000E+00  0.49711704213E+02  0.49727924105E+02  0.12700000000E+01 0. -1.
          4   -1    0    0  501    0  0.00000000000E+00 -0.00000000000E+00 -0.78542149389E+02  0.78552416454E+02  0.12700000000E+01 0. -1.
         25    2    1    2    0    0  0.00000000000E+00  0.00000000000E+00 -0.28830445176E+02  0.12828034056E+03  0.12499860481E+03 0.  0.
    9000005    1    3    3    0    0  0.53404233120E+02 -0.26025370032E+02  0.54801063207E+01  0.59668782170E+02  0.10000000000E+01 0.  0.
    9000005    1    3    3    0    0 -0.53404233120E+02  0.26025370032E+02 -0.34310551497E+02  0.68611558388E+02  0.10000000000E+01 0.  0.
<mgrwt>
<rscale>  0 0.12499860E+03</rscale>
<asrwt>0</asrwt>
<pdfrwt beam="2">  1        4 0.12085445E-01 0.12499860E+03</pdfrwt>
<pdfrwt beam="1">  1       -4 0.76499919E-02 0.12499860E+03</pdfrwt>
<totfact> 0.10381765E+04</totfact>
</mgrwt>
</event>
<event>
 5    1  0.3188180E-002  0.1250016E+03  0.7818608E-02  0.1235067E+00
         -4   -1    0    0    0  501 -0.00000000000E+00  0.00000000000E+00  0.23911243362E+01  0.27074666371E+01  0.12700000000E+01 0. -1.
          4   -1    0    0  501    0  0.00000000000E+00 -0.00000000000E+00 -0.15320095286E+04  0.15320100550E+04  0.12700000000E+01 0. -1.
         25    2    1    2    0    0  0.00000000000E+00  0.00000000000E+00 -0.15296184043E+04  0.15347175216E+04  0.12500163422E+03 0.  0.
    9000005    1    3    3    0    0  0.52874882319E+02  0.26885858137E+02 -0.52335893384E+03  0.52671071394E+03  0.10000000000E+01 0.  0.
    9000005    1    3    3    0    0 -0.52874882319E+02 -0.26885858137E+02 -0.10062594704E+04  0.10080068077E+04  0.10000000000E+01 0.  0.
<mgrwt>
<rscale>  0 0.12500163E+03</rscale>
<asrwt>0</asrwt>
<pdfrwt beam="2">  1        4 0.23571741E+00 0.12500163E+03</pdfrwt>
<pdfrwt beam="1">  1       -4 0.39224102E-03 0.12500163E+03</pdfrwt>
<totfact> 0.17257430E+03</totfact>
</mgrwt>
</event>
<event>
 5    1  0.3188180E-002  0.1250034E+03  0.7818608E-02  0.1235064E+00
          4   -1    0    0  501    0  0.00000000000E+00  0.00000000000E+00  0.33106149115E+02  0.33130499683E+02  0.12700000000E+01 0.  1.
         -4   -1    0    0    0  501 -0.00000000000E+00 -0.00000000000E+00 -0.11792696029E+03  0.11793379865E+03  0.12700000000E+01 0.  1.
         25    2    1    2    0    0  0.00000000000E+00  0.00000000000E+00 -0.84820811175E+02  0.15106429833E+03  0.12500340884E+03 0.  0.
    9000005    1    3    3    0    0 -0.55249690035E+02  0.26840000371E+02 -0.28497157955E+02  0.67720025697E+02  0.10000000000E+01 0.  0.
    9000005    1    3    3    0    0  0.55249690035E+02 -0.26840000371E+02 -0.56323653220E+02  0.83344272634E+02  0.10000000000E+01 0.  0.
<mgrwt>
<rscale>  0 0.12500341E+03</rscale>
<asrwt>0</asrwt>
<pdfrwt beam="1">  1        4 0.50956529E-02 0.12500341E+03</pdfrwt>
<pdfrwt beam="2">  1       -4 0.18145008E-01 0.12500341E+03</pdfrwt>
<totfact> 0.99084367E+03</totfact>
</mgrwt>
</event>
<event>
 5    1  0.3188180E-002  0.1249977E+03  0.7818608E-02  0.1235073E+00
          4   -1    0    0  501    0  0.00000000000E+00  0.00000000000E+00  0.10293095374E+03  0.10293878831E+03  0.12700000000E+01 0. -1.
         -4   -1    0    0    0  501 -0.00000000000E+00 -0.00000000000E+00 -0.37928892860E+02  0.37950149059E+02  0.12700000000E+01 0. -1.
         25    2    1    2    0    0  0.00000000000E+00  0.00000000000E+00  0.65002060879E+02  0.14088893736E+03  0.12499769899E+03 0.  0.
    9000005    1    3    3    0    0  0.48818020825E+02 -0.34948617379E+01  0.76295492065E+02  0.90649960426E+02  0.10000000000E+01 0.  0.
    9000005    1    3    3    0    0 -0.48818020825E+02  0.34948617379E+01 -0.11293431186E+02  0.50238976938E+02  0.10000000000E+01 0.  0.
<mgrwt>
<rscale>  0 0.12499770E+03</rscale>
<asrwt>0</asrwt>
<pdfrwt beam="1">  1        4 0.15837769E-01 0.12499770E+03</pdfrwt>
<pdfrwt beam="2">  1       -4 0.58374520E-02 0.12499770E+03</pdfrwt>
<totfact> 0.10115720E+04</totfact>
</mgrwt>
</event>
<event>
 5    1  0.3188180E-002  0.1249977E+03  0.7818608E-02  0.1235073E+00
          4   -1    0    0  501    0  0.00000000000E+00  0.00000000000E+00  0.24000458188E+02  0.24034036141E+02  0.12700000000E+01 0. -1.
         -4   -1    0    0    0  501 -0.00000000000E+00 -0.00000000000E+00 -0.16260149510E+03  0.16260645470E+03  0.12700000000E+01 0. -1.
         25    2    1    2    0    0  0.00000000000E+00  0.00000000000E+00 -0.13860103692E+03  0.18664049084E+03  0.12499770153E+03 0.  0.
    9000005    1    3    3    0    0 -0.21107041425E+01  0.59382332393E+02 -0.98191738897E+02  0.11477514565E+03  0.10000000000E+01 0.  0.
    9000005    1    3    3    0    0  0.21107041425E+01 -0.59382332393E+02 -0.40409298019E+02  0.71865345186E+02  0.10000000000E+01 0.  0.
<mgrwt>
<rscale>  0 0.12499770E+03</rscale>
<asrwt>0</asrwt>
<pdfrwt beam="1">  1        4 0.36953427E-02 0.12499770E+03</pdfrwt>
<pdfrwt beam="2">  1       -4 0.25018578E-01 0.12499770E+03</pdfrwt>
<totfact> 0.92439927E+03</totfact>
</mgrwt>
</event>
<event>
 5    1  0.3188180E-002  0.1249948E+03  0.7818608E-02  0.1235077E+00
          4   -1    0    0  501    0  0.00000000000E+00  0.00000000000E+00  0.19869240816E+03  0.19869646690E+03  0.12700000000E+01 0.  1.
         -4   -1    0    0    0  501 -0.00000000000E+00 -0.00000000000E+00 -0.19633370954E+02  0.19674403549E+02  0.12700000000E+01 0.  1.
         25    2    1    2    0    0  0.00000000000E+00  0.00000000000E+00  0.17905903721E+03  0.21837087045E+03  0.12499479292E+03 0.  0.
    9000005    1    3    3    0    0  0.70661838645E+01 -0.15963186681E+02 -0.15295344796E+02  0.23231484150E+02  0.10000000000E+01 0.  0.
    9000005    1    3    3    0    0 -0.70661838645E+01  0.15963186681E+02  0.19435438200E+03  0.19513938630E+03  0.10000000000E+01 0.  0.
<mgrwt>
<rscale>  0 0.12499479E+03</rscale>
<asrwt>0</asrwt>
<pdfrwt beam="1">  1        4 0.30571532E-01 0.12499479E+03</pdfrwt>
<pdfrwt beam="2">  1       -4 0.30239871E-02 0.12499479E+03</pdfrwt>
<totfact> 0.87136931E+03</totfact>
</mgrwt>
</event>
<event>
 5    1  0.3188180E-002  0.1249939E+03  0.7818608E-02  0.1235079E+00
          4   -1    0    0  501    0  0.00000000000E+00  0.00000000000E+00  0.97998885098E+02  0.98007113928E+02  0.12700000000E+01 0.  1.
         -4   -1    0    0    0  501 -0.00000000000E+00 -0.00000000000E+00 -0.39836236024E+02  0.39856475014E+02  0.12700000000E+01 0.  1.
         25    2    1    2    0    0  0.00000000000E+00  0.00000000000E+00  0.58162649074E+02  0.13786358894E+03  0.12499390149E+03 0.  0.
    9000005    1    3    3    0    0  0.24456249256E+02 -0.55854992465E+02  0.44163325433E+02  0.75294671951E+02  0.10000000000E+01 0.  0.
    9000005    1    3    3    0    0 -0.24456249256E+02  0.55854992465E+02  0.13999323641E+02  0.62568916990E+02  0.10000000000E+01 0.  0.
<mgrwt>
<rscale>  0 0.12499390E+03</rscale>
<asrwt>0</asrwt>
<pdfrwt beam="1">  1        4 0.15078941E-01 0.12499390E+03</pdfrwt>
<pdfrwt beam="2">  1       -4 0.61308416E-02 0.12499390E+03</pdfrwt>
<totfact> 0.10179456E+04</totfact>
</mgrwt>
</event>
<event>
 5    1  0.3188180E-002  0.1250051E+03  0.7818608E-02  0.1235061E+00
         -4   -1    0    0    0  501 -0.00000000000E+00  0.00000000000E+00  0.36327448865E+01  0.38483419040E+01  0.12700000000E+01 0. -1.
          4   -1    0    0  501    0  0.00000000000E+00 -0.00000000000E+00 -0.10441690099E+04  0.10441697823E+04  0.12700000000E+01 0. -1.
         25    2    1    2    0    0  0.00000000000E+00  0.00000000000E+00 -0.10405362650E+04  0.10480181242E+04  0.12500507877E+03 0.  0.
    9000005    1    3    3    0    0  0.31474118649E+02 -0.32370423256E+02 -0.15800405455E+03  0.16433120733E+03  0.10000000000E+01 0.  0.
    9000005    1    3    3    0    0 -0.31474118649E+02  0.32370423256E+02 -0.88253221048E+03  0.88368691683E+03  0.10000000000E+01 0.  0.
<mgrwt>
<rscale>  0 0.12500508E+03</rscale>
<asrwt>0</asrwt>
<pdfrwt beam="2">  1        4 0.16065780E+00 0.12500508E+03</pdfrwt>
<pdfrwt beam="1">  1       -4 0.57552846E-03 0.12500508E+03</pdfrwt>
<totfact> 0.29053558E+03</totfact>
</mgrwt>
</event>
<event>
 5    1  0.3188180E-002  0.1250033E+03  0.7818608E-02  0.1235064E+00
          4   -1    0    0  501    0  0.00000000000E+00  0.00000000000E+00  0.24663530286E+03  0.24663857265E+03  0.12700000000E+01 0. -1.
         -4   -1    0    0    0  501 -0.00000000000E+00 -0.00000000000E+00 -0.15810157236E+02  0.15861083564E+02  0.12700000000E+01 0. -1.
         25    2    1    2    0    0  0.00000000000E+00  0.00000000000E+00  0.23082514563E+03  0.26249965621E+03  0.12500328659E+03 0.  0.
    9000005    1    3    3    0    0 -0.32122037812E+02 -0.12953049615E+02  0.61782666806E+01  0.35196275183E+02  0.10000000000E+01 0.  0.
    9000005    1    3    3    0    0  0.32122037812E+02  0.12953049615E+02  0.22464687895E+03  0.22730338103E+03  0.10000000000E+01 0.  0.
<mgrwt>
<rscale>  0 0.12500329E+03</rscale>
<asrwt>0</asrwt>
<pdfrwt beam="1">  1        4 0.37948060E-01 0.12500329E+03</pdfrwt>
<pdfrwt beam="2">  1       -4 0.24365009E-02 0.12500329E+03</pdfrwt>
<totfact> 0.80550652E+03</totfact>
</mgrwt>
</event>
<event>
 5    1  0.3188180E-002  0.1250001E+03  0.7818608E-02  0.1235069E+00
          4   -1    0    0  501    0  0.00000000000E+00  0.00000000000E+00  0.66423585446E+03  0.66423706856E+03  0.12700000000E+01 0. -1.
         -4   -1    0    0    0  501 -0.00000000000E+00 -0.00000000000E+00 -0.58110237317E+01  0.59481843289E+01  0.12700000000E+01 0. -1.
         25    2    1    2    0    0  0.00000000000E+00  0.00000000000E+00  0.65842483073E+03  0.67018525289E+03  0.12500006188E+03 0.  0.
    9000005    1    3    3    0    0 -0.31823852034E+02  0.49434401192E+02  0.44278675879E+03  0.44667396537E+03  0.10000000000E+01 0.  0.
    9000005    1    3    3    0    0  0.31823852034E+02 -0.49434401192E+02  0.21563807194E+03  0.22351128752E+03  0.10000000000E+01 0.  0.
<mgrwt>
<rscale>  0 0.12500006E+03</rscale>
<asrwt>0</asrwt>
<pdfrwt beam="1">  1        4 0.10220075E+00 0.12500006E+03</pdfrwt>
<pdfrwt beam="2">  1       -4 0.90464810E-03 0.12500006E+03</pdfrwt>
<totfact> 0.44707926E+03</totfact>
</mgrwt>
</event>
<event>
 5    1  0.3188180E-002  0.1250091E+03  0.7818608E-02  0.1235055E+00
          4   -1    0    0  501    0  0.00000000000E+00  0.00000000000E+00  0.48000193404E+03  0.48000361414E+03  0.12700000000E+01 0.  1.
         -4   -1    0    0    0  501 -0.00000000000E+00 -0.00000000000E+00 -0.80879286144E+01  0.81870317742E+01  0.12700000000E+01 0.  1.
         25    2    1    2    0    0  0.00000000000E+00  0.00000000000E+00  0.47191400543E+03  0.48819064591E+03  0.12500911261E+03 0.  0.
    9000005    1    3    3    0    0 -0.42153372604E+02  0.45612456551E+02  0.26313044618E+03  0.27036278353E+03  0.10000000000E+01 0.  0.
    9000005    1    3    3    0    0  0.42153372604E+02 -0.45612456551E+02  0.20878355925E+03  0.21782786238E+03  0.10000000000E+01 0.  0.
<mgrwt>
<rscale>  0 0.12500911E+03</rscale>
<asrwt>0</asrwt>
<pdfrwt beam="1">  1        4 0.73854198E-01 0.12500911E+03</pdfrwt>
<pdfrwt beam="2">  1       -4 0.12520494E-02 0.12500911E+03</pdfrwt>
<totfact> 0.56781030E+03</totfact>
</mgrwt>
</event>
<event>
 5    1  0.3188180E-002  0.1250026E+03  0.7818608E-02  0.1235065E+00
         -4   -1    0    0    0  501 -0.00000000000E+00  0.00000000000E+00  0.69343189902E+01  0.70496581377E+01  0.12700000000E+01 0. -1.
          4   -1    0    0  501    0  0.00000000000E+00 -0.00000000000E+00 -0.55858229268E+03  0.55858373643E+03  0.12700000000E+01 0. -1.
         25    2    1    2    0    0  0.00000000000E+00  0.00000000000E+00 -0.55164797369E+03  0.56563339456E+03  0.12500260064E+03 0.  0.
    9000005    1    3    3    0    0  0.42845292736E+02 -0.39644553731E+02 -0.17484479701E+03  0.18433424205E+03  0.10000000000E+01 0.  0.
    9000005    1    3    3    0    0 -0.42845292736E+02  0.39644553731E+02 -0.37680317668E+03  0.38129915252E+03  0.10000000000E+01 0.  0.
<mgrwt>
<rscale>  0 0.12500260E+03</rscale>
<asrwt>0</asrwt>
<pdfrwt beam="2">  1        4 0.85944686E-01 0.12500260E+03</pdfrwt>
<pdfrwt beam="1">  1       -4 0.10758020E-02 0.12500260E+03</pdfrwt>
<totfact> 0.51108460E+03</totfact>
</mgrwt>
</event>
<event>
 5    1  0.3188180E-002  0.1249974E+03  0.7818608E-02  0.1235073E+00
         -4   -1    0    0    0  501 -0.00000000000E+00  0.00000000000E+00  0.41360054642E+02  0.41379548330E+02  0.12700000000E+01 0.  1.
          4   -1    0    0  501    0  0.00000000000E+00 -0.00000000000E+00 -0.94395085683E+02  0.94403628644E+02  0.12700000000E+01 0.  1.
         25    2    1    2    0    0  0.00000000000E+00  0.00000000000E+00 -0.53035031041E+02  0.13578317697E+03  0.12499742650E+03 0.  0.
    9000005    1    3    3    0    0  0.51806583661E+02 -0.33626783002E+02 -0.36846193833E+02  0.71925827390E+02  0.10000000000E+01 0.  0.
    9000005    1    3    3    0    0 -0.51806583661E+02  0.33626783002E+02 -0.16188837208E+02  0.63857349584E+02  0.10000000000E+01 0.  0.
<mgrwt>
<rscale>  0 0.12499743E+03</rscale>
<asrwt>0</asrwt>
<pdfrwt beam="2">  1        4 0.14524478E-01 0.12499743E+03</pdfrwt>
<pdfrwt beam="1">  1       -4 0.63652420E-02 0.12499743E+03</pdfrwt>
<totfact> 0.10222183E+04</totfact>
</mgrwt>
</event>
<event>
 5    1  0.3188180E-002  0.1249945E+03  0.7818608E-02  0.1235078E+00
         -4   -1    0    0    0  501 -0.00000000000E+00  0.00000000000E+00  0.57032171357E+03  0.57032312760E+03  0.12700000000E+01 0. -1.
          4   -1    0    0  501    0  0.00000000000E+00 -0.00000000000E+00 -0.67882885874E+01  0.69060670389E+01  0.12700000000E+01 0. -1.
         25    2    1    2    0    0  0.00000000000E+00  0.00000000000E+00  0.56353342498E+03  0.57722919463E+03  0.12499448814E+03 0.  0.
    9000005    1    3    3    0    0  0.59183687427E+02  0.13031680735E+02  0.35216292323E+03  0.35734053515E+03  0.10000000000E+01 0.  0.
    9000005    1    3    3    0    0 -0.59183687427E+02 -0.13031680735E+02  0.21137050175E+03  0.21988865949E+03  0.10000000000E+01 0.  0.
<mgrwt>
<rscale>  0 0.12499449E+03</rscale>
<asrwt>0</asrwt>
<pdfrwt beam="2">  1        4 0.10535206E-02 0.12499449E+03</pdfrwt>
<pdfrwt beam="1">  1       -4 0.87750979E-01 0.12499449E+03</pdfrwt>
<totfact> 0.50343339E+03</totfact>
</mgrwt>
</event>
<event>
 5    1  0.3188180E-002  0.1249940E+03  0.7818608E-02  0.1235079E+00
          4   -1    0    0  501    0  0.00000000000E+00  0.00000000000E+00  0.55288712731E+02  0.55303296967E+02  0.12700000000E+01 0. -1.
         -4   -1    0    0    0  501 -0.00000000000E+00 -0.00000000000E+00 -0.70615469454E+02  0.70626888833E+02  0.12700000000E+01 0. -1.
         25    2    1    2    0    0  0.00000000000E+00  0.00000000000E+00 -0.15326756723E+02  0.12593018580E+03  0.12499400875E+03 0.  0.
    9000005    1    3    3    0    0  0.50222251659E+02 -0.15779531464E+02  0.26257881963E+02  0.58836591846E+02  0.10000000000E+01 0.  0.
    9000005    1    3    3    0    0 -0.50222251659E+02  0.15779531464E+02 -0.41584638686E+02  0.67093593953E+02  0.10000000000E+01 0.  0.
<mgrwt>
<rscale>  0 0.12499401E+03</rscale>
<asrwt>0</asrwt>
<pdfrwt beam="1">  1        4 0.85079561E-02 0.12499401E+03</pdfrwt>
<pdfrwt beam="2">  1       -4 0.10865919E-01 0.12499401E+03</pdfrwt>
<totfact> 0.10433898E+04</totfact>
</mgrwt>
</event>
<event>
 5    1  0.3188180E-002  0.1250044E+03  0.7818608E-02  0.1235062E+00
         -4   -1    0    0    0  501 -0.00000000000E+00  0.00000000000E+00  0.22448266702E+03  0.22448625948E+03  0.12700000000E+01 0.  1.
          4   -1    0    0  501    0  0.00000000000E+00 -0.00000000000E+00 -0.17375439445E+02  0.17421790835E+02  0.12700000000E+01 0.  1.
         25    2    1    2    0    0  0.00000000000E+00  0.00000000000E+00  0.20710722758E+03  0.24190805031E+03  0.12500440428E+03 0.  0.
    9000005    1    3    3    0    0  0.39995010902E+02 -0.15413811658E+02  0.15542838967E+02  0.45604455156E+02  0.10000000000E+01 0.  0.
    9000005    1    3    3    0    0 -0.39995010902E+02  0.15413811658E+02  0.19156438861E+03  0.19630359515E+03  0.10000000000E+01 0.  0.
<mgrwt>
<rscale>  0 0.12500440E+03</rscale>
<asrwt>0</asrwt>
<pdfrwt beam="2">  1        4 0.26769863E-02 0.12500440E+03</pdfrwt>
<pdfrwt beam="1">  1       -4 0.34539637E-01 0.12500440E+03</pdfrwt>
<totfact> 0.83505816E+03</totfact>
</mgrwt>
</event>
<event>
 5    1  0.3188180E-002  0.1249983E+03  0.7818608E-02  0.1235072E+00
          4   -1    0    0  501    0  0.00000000000E+00  0.00000000000E+00  0.65211133884E+01  0.66436300187E+01  0.12700000000E+01 0.  1.
         -4   -1    0    0    0  501 -0.00000000000E+00 -0.00000000000E+00 -0.59330132950E+03  0.59330268876E+03  0.12700000000E+01 0.  1.
         25    2    1    2    0    0  0.00000000000E+00  0.00000000000E+00 -0.58678021611E+03  0.59994631878E+03  0.12499825356E+03 0.  0.
    9000005    1    3    3    0    0 -0.42847555427E+02  0.26467136746E+01 -0.75430391555E+02  0.86796670844E+02  0.10000000000E+01 0.  0.
    9000005    1    3    3    0    0  0.42847555427E+02 -0.26467136746E+01 -0.51134982456E+03  0.51314964794E+03  0.10000000000E+01 0.  0.
<mgrwt>
<rscale>  0 0.12499825E+03</rscale>
<asrwt>0</asrwt>
<pdfrwt beam="1">  1        4 0.10127776E-02 0.12499825E+03</pdfrwt>
<pdfrwt beam="2">  1       -4 0.91286614E-01 0.12499825E+03</pdfrwt>
<totfact> 0.48872887E+03</totfact>
</mgrwt>
</event>
<event>
 5    1  0.3188180E-002  0.1249912E+03  0.7818608E-02  0.1235083E+00
         -4   -1    0    0    0  501 -0.00000000000E+00  0.00000000000E+00  0.34024524109E+02  0.34048217881E+02  0.12700000000E+01 0. -1.
          4   -1    0    0  501    0  0.00000000000E+00 -0.00000000000E+00 -0.11472356248E+03  0.11473059177E+03  0.12700000000E+01 0. -1.
         25    2    1    2    0    0  0.00000000000E+00  0.00000000000E+00 -0.80699038367E+02  0.14877880965E+03  0.12499119732E+03 0.  0.
    9000005    1    3    3    0    0  0.16061584623E+02 -0.46585350855E+02  0.53890793466E+01  0.49580354890E+02  0.10000000000E+01 0.  0.
    9000005    1    3    3    0    0 -0.16061584623E+02  0.46585350855E+02 -0.86088117714E+02  0.99198454758E+02  0.10000000000E+01 0.  0.
<mgrwt>
<rscale>  0 0.12499120E+03</rscale>
<asrwt>0</asrwt>
<pdfrwt beam="2">  1        4 0.17652142E-01 0.12499120E+03</pdfrwt>
<pdfrwt beam="1">  1       -4 0.52369056E-02 0.12499120E+03</pdfrwt>
<totfact> 0.99567409E+03</totfact>
</mgrwt>
</event>
<event>
 5    1  0.3188180E-002  0.1249970E+03  0.7818608E-02  0.1235074E+00
          4   -1    0    0  501    0  0.00000000000E+00  0.00000000000E+00  0.22729770888E+02  0.22765223141E+02  0.12700000000E+01 0. -1.
         -4   -1    0    0    0  501 -0.00000000000E+00 -0.00000000000E+00 -0.17167619176E+03  0.17168088920E+03  0.12700000000E+01 0. -1.
         25    2    1    2    0    0  0.00000000000E+00  0.00000000000E+00 -0.14894642087E+03  0.19444611234E+03  0.12499701722E+03 0.  0.
    9000005    1    3    3    0    0  0.12963654584E+02  0.43473335985E+02 -0.76169574699E+01  0.46010926126E+02  0.10000000000E+01 0.  0.
    9000005    1    3    3    0    0 -0.12963654584E+02 -0.43473335985E+02 -0.14132946340E+03  0.14843518621E+03  0.10000000000E+01 0.  0.
<mgrwt>
<rscale>  0 0.12499702E+03</rscale>
<asrwt>0</asrwt>
<pdfrwt beam="1">  1        4 0.34999764E-02 0.12499702E+03</pdfrwt>
<pdfrwt beam="2">  1       -4 0.26414809E-01 0.12499702E+03</pdfrwt>
<totfact> 0.91085493E+03</totfact>
</mgrwt>
</event>
<event>
 5    1  0.3188180E-002  0.1250011E+03  0.7818608E-02  0.1235068E+00
          4   -1    0    0  501    0  0.00000000000E+00  0.00000000000E+00  0.34223899518E+02  0.34247455354E+02  0.12700000000E+01 0. -1.
         -4   -1    0    0    0  501 -0.00000000000E+00 -0.00000000000E+00 -0.11407365319E+03  0.11408072253E+03  0.12700000000E+01 0. -1.
         25    2    1    2    0    0  0.00000000000E+00  0.00000000000E+00 -0.79849753674E+02  0.14832817788E+03  0.12500106076E+03 0.  0.
    9000005    1    3    3    0    0  0.12836674167E+02  0.12500748401E+02 -0.11096605633E+03  0.11240780476E+03  0.10000000000E+01 0.  0.
    9000005    1    3    3    0    0 -0.12836674167E+02 -0.12500748401E+02  0.31116302654E+02  0.35920373121E+02  0.10000000000E+01 0.  0.
<mgrwt>
<rscale>  0 0.12500106E+03</rscale>
<asrwt>0</asrwt>
<pdfrwt beam="1">  1        4 0.52675711E-02 0.12500106E+03</pdfrwt>
<pdfrwt beam="2">  1       -4 0.17552148E-01 0.12500106E+03</pdfrwt>
<totfact> 0.99635621E+03</totfact>
</mgrwt>
</event>
<event>
 4    1  0.3188180E-002  0.1249110E+03  0.7818608E-02  0.1235208E+00
         -4   -1    0    0    0  501 -0.00000000000E+00  0.00000000000E+00  0.39993729034E+02  0.40013888365E+02  0.12700000000E+01 0. -1.
          4   -1    0    0  501    0  0.00000000000E+00 -0.00000000000E+00 -0.97483644304E+02  0.97491916622E+02  0.12700000000E+01 0. -1.
    9000005    1    1    2    0    0 -0.45913953144E+02 -0.10659226360E+02  0.16348507584E+02  0.49899738477E+02  0.10000000000E+01 0.  0.
    9000005    1    1    2    0    0  0.45913953144E+02  0.10659226360E+02 -0.73838422853E+02  0.87606066510E+02  0.10000000000E+01 0.  0.
<mgrwt>
<rscale>  0 0.12491099E+03</rscale>
<asrwt>0</asrwt>
<pdfrwt beam="2">  1        4 0.14999671E-01 0.12491099E+03</pdfrwt>
<pdfrwt beam="1">  1       -4 0.61550685E-02 0.12491099E+03</pdfrwt>
<totfact> 0.10205987E+04</totfact>
</mgrwt>
</event>
<event>
 5    1  0.3188180E-002  0.1250000E+03  0.7818608E-02  0.1235069E+00
         -4   -1    0    0    0  501 -0.00000000000E+00  0.00000000000E+00  0.15166486677E+03  0.15167018400E+03  0.12700000000E+01 0.  1.
          4   -1    0    0  501    0  0.00000000000E+00 -0.00000000000E+00 -0.25734379895E+02  0.25765698294E+02  0.12700000000E+01 0.  1.
         25    2    1    2    0    0  0.00000000000E+00  0.00000000000E+00  0.12593048688E+03  0.17743588229E+03  0.12500001920E+03 0.  0.
    9000005    1    3    3    0    0  0.34846914428E+02  0.41372169603E+02  0.18544436864E+02  0.57191432937E+02  0.10000000000E+01 0.  0.
    9000005    1    3    3    0    0 -0.34846914428E+02 -0.41372169603E+02  0.10738605001E+03  0.12024444935E+03  0.10000000000E+01 0.  0.
<mgrwt>
<rscale>  0 0.12500002E+03</rscale>
<asrwt>0</asrwt>
<pdfrwt beam="2">  1        4 0.39619534E-02 0.12500002E+03</pdfrwt>
<pdfrwt beam="1">  1       -4 0.23335875E-01 0.12500002E+03</pdfrwt>
<totfact> 0.94080558E+03</totfact>
</mgrwt>
</event>
<event>
 5    1  0.3188180E-002  0.1250008E+03  0.7818608E-02  0.1235068E+00
          4   -1    0    0  501    0  0.00000000000E+00  0.00000000000E+00  0.32342956067E+02  0.32367880795E+02  0.12700000000E+01 0. -1.
         -4   -1    0    0    0  501 -0.00000000000E+00 -0.00000000000E+00 -0.12070262660E+03  0.12070930771E+03  0.12700000000E+01 0. -1.
         25    2    1    2    0    0  0.00000000000E+00  0.00000000000E+00 -0.88359670531E+02  0.15307718850E+03  0.12500077705E+03 0.  0.
    9000005    1    3    3    0    0  0.35249514950E+02  0.49925891219E+02 -0.28204629132E+02  0.67317338202E+02  0.10000000000E+01 0.  0.
    9000005    1    3    3    0    0 -0.35249514950E+02 -0.49925891219E+02 -0.60155041399E+02  0.85759850302E+02  0.10000000000E+01 0.  0.
<mgrwt>
<rscale>  0 0.12500078E+03</rscale>
<asrwt>0</asrwt>
<pdfrwt beam="1">  1        4 0.49782706E-02 0.12500078E+03</pdfrwt>
<pdfrwt beam="2">  1       -4 0.18572066E-01 0.12500078E+03</pdfrwt>
<totfact> 0.98692080E+03</totfact>
</mgrwt>
</event>
<event>
 5    1  0.3188180E-002  0.1250073E+03  0.7818608E-02  0.1235058E+00
         -4   -1    0    0    0  501 -0.00000000000E+00  0.00000000000E+00  0.11453225576E+04  0.11453232617E+04  0.12700000000E+01 0.  1.
          4   -1    0    0  501    0  0.00000000000E+00 -0.00000000000E+00 -0.32920678481E+01  0.35285422934E+01  0.12700000000E+01 0.  1.
         25    2    1    2    0    0  0.00000000000E+00  0.00000000000E+00  0.11420304898E+04  0.11488518040E+04  0.12500731208E+03 0.  0.
    9000005    1    3    3    0    0  0.58402654116E+02 -0.19366347932E+02  0.67159801885E+03  0.67441146518E+03  0.10000000000E+01 0.  0.
    9000005    1    3    3    0    0 -0.58402654116E+02  0.19366347932E+02  0.47043247092E+03  0.47444033886E+03  0.10000000000E+01 0.  0.
<mgrwt>
<rscale>  0 0.12500731E+03</rscale>
<asrwt>0</asrwt>
<pdfrwt beam="2">  1        4 0.52471545E-03 0.12500731E+03</pdfrwt>
<pdfrwt beam="1">  1       -4 0.17622206E+00 0.12500731E+03</pdfrwt>
<totfact> 0.26087887E+03</totfact>
</mgrwt>
</event>
<event>
 5    1  0.3188180E-002  0.1250017E+03  0.7818608E-02  0.1235067E+00
          4   -1    0    0  501    0  0.00000000000E+00  0.00000000000E+00  0.10268709505E+04  0.10268717359E+04  0.12700000000E+01 0.  1.
         -4   -1    0    0    0  501 -0.00000000000E+00 -0.00000000000E+00 -0.36973326897E+01  0.39093693888E+01  0.12700000000E+01 0.  1.
         25    2    1    2    0    0  0.00000000000E+00  0.00000000000E+00  0.10231736179E+04  0.10307811053E+04  0.12500173890E+03 0.  0.
    9000005    1    3    3    0    0  0.18979359525E+02  0.46776872886E+02  0.20781252862E+03  0.21385822167E+03  0.10000000000E+01 0.  0.
    9000005    1    3    3    0    0 -0.18979359525E+02 -0.46776872886E+02  0.81536108924E+03  0.81692288361E+03  0.10000000000E+01 0.  0.
<mgrwt>
<rscale>  0 0.12500174E+03</rscale>
<asrwt>0</asrwt>
<pdfrwt beam="1">  1        4 0.15799674E+00 0.12500174E+03</pdfrwt>
<pdfrwt beam="2">  1       -4 0.58519052E-03 0.12500174E+03</pdfrwt>
<totfact> 0.29601355E+03</totfact>
</mgrwt>
</event>
<event>
 5    1  0.3188180E-002  0.1249972E+03  0.7818608E-02  0.1235074E+00
          4   -1    0    0  501    0  0.00000000000E+00  0.00000000000E+00  0.22384868533E+02  0.22420866157E+02  0.12700000000E+01 0.  1.
         -4   -1    0    0    0  501 -0.00000000000E+00 -0.00000000000E+00 -0.17431773851E+03  0.17432236477E+03  0.12700000000E+01 0.  1.
         25    2    1    2    0    0  0.00000000000E+00  0.00000000000E+00 -0.15193286998E+03  0.19674323093E+03  0.12499720771E+03 0.  0.
    9000005    1    3    3    0    0  0.59263880602E+02  0.13935721097E+02 -0.53781474617E+02  0.81239515499E+02  0.10000000000E+01 0.  0.
    9000005    1    3    3    0    0 -0.59263880602E+02 -0.13935721097E+02 -0.98151395359E+02  0.11550371543E+03  0.10000000000E+01 0.  0.
<mgrwt>
<rscale>  0 0.12499721E+03</rscale>
<asrwt>0</asrwt>
<pdfrwt beam="1">  1        4 0.34469510E-02 0.12499721E+03</pdfrwt>
<pdfrwt beam="2">  1       -4 0.26821238E-01 0.12499721E+03</pdfrwt>
<totfact> 0.90692741E+03</totfact>
</mgrwt>
</event>
<event>
 5    1  0.3188180E-002  0.1250005E+03  0.7818608E-02  0.1235068E+00
         -4   -1    0    0    0  501 -0.00000000000E+00  0.00000000000E+00  0.74328077049E+03  0.74328185548E+03  0.12700000000E+01 0. -1.
          4   -1    0    0  501    0  0.00000000000E+00 -0.00000000000E+00 -0.51776311112E+01  0.53311128223E+01  0.12700000000E+01 0. -1.
         25    2    1    2    0    0  0.00000000000E+00  0.00000000000E+00  0.73810313938E+03  0.74861296830E+03  0.12500052777E+03 0.  0.
    9000005    1    3    3    0    0  0.83226939448E+00 -0.72202707595E+01  0.74077030941E+03  0.74080663894E+03  0.10000000000E+01 0.  0.
    9000005    1    3    3    0    0 -0.83226939448E+00  0.72202707595E+01 -0.26671700321E+01  0.78063293657E+01  0.10000000000E+01 0.  0.
<mgrwt>
<rscale>  0 0.12500053E+03</rscale>
<asrwt>0</asrwt>
<pdfrwt beam="2">  1        4 0.80844931E-03 0.12500053E+03</pdfrwt>
<pdfrwt beam="1">  1       -4 0.11436265E+00 0.12500053E+03</pdfrwt>
<totfact> 0.40640135E+03</totfact>
</mgrwt>
</event>
<event>
 5    1  0.3188180E-002  0.1250002E+03  0.7818608E-02  0.1235069E+00
         -4   -1    0    0    0  501 -0.00000000000E+00  0.00000000000E+00  0.34291465150E+02  0.34314974605E+02  0.12700000000E+01 0.  1.
          4   -1    0    0  501    0  0.00000000000E+00 -0.00000000000E+00 -0.11384744003E+03  0.11385452341E+03  0.12700000000E+01 0.  1.
         25    2    1    2    0    0  0.00000000000E+00  0.00000000000E+00 -0.79555974881E+02  0.14816949802E+03  0.12500018802E+03 0.  0.
    9000005    1    3    3    0    0  0.41269493035E+02  0.34942314910E+02 -0.26492324913E+01  0.54149375430E+02  0.10000000000E+01 0.  0.
    9000005    1    3    3    0    0 -0.41269493035E+02 -0.34942314910E+02 -0.76906742390E+02  0.94020122589E+02  0.10000000000E+01 0.  0.
<mgrwt>
<rscale>  0 0.12500019E+03</rscale>
<asrwt>0</asrwt>
<pdfrwt beam="2">  1        4 0.17517344E-01 0.12500019E+03</pdfrwt>
<pdfrwt beam="1">  1       -4 0.52779634E-02 0.12500019E+03</pdfrwt>
<totfact> 0.99669418E+03</totfact>
</mgrwt>
</event>
<event>
 5    1  0.3188180E-002  0.1250023E+03  0.7818608E-02  0.1235066E+00
          4   -1    0    0  501    0  0.00000000000E+00  0.00000000000E+00  0.20185614500E+03  0.20186014013E+03  0.12700000000E+01 0.  1.
         -4   -1    0    0    0  501 -0.00000000000E+00 -0.00000000000E+00 -0.19327334909E+02  0.19369015842E+02  0.12700000000E+01 0.  1.
         25    2    1    2    0    0  0.00000000000E+00  0.00000000000E+00  0.18252881009E+03  0.22122915597E+03  0.12500229174E+03 0.  0.
    9000005    1    3    3    0    0 -0.99402603968E+01  0.16840252646E+02  0.19631054876E+03  0.19728465333E+03  0.10000000000E+01 0.  0.
    9000005    1    3    3    0    0  0.99402603968E+01 -0.16840252646E+02 -0.13781738670E+02  0.23944502641E+02  0.10000000000E+01 0.  0.
<mgrwt>
<rscale>  0 0.12500229E+03</rscale>
<asrwt>0</asrwt>
<pdfrwt beam="1">  1        4 0.31058304E-01 0.12500229E+03</pdfrwt>
<pdfrwt beam="2">  1       -4 0.29769498E-02 0.12500229E+03</pdfrwt>
<totfact> 0.86669789E+03</totfact>
</mgrwt>
</event>
<event>
 5    1  0.3188180E-002  0.1249969E+03  0.7818608E-02  0.1235074E+00
          4   -1    0    0  501    0  0.00000000000E+00  0.00000000000E+00  0.39623679573E+03  0.39623883099E+03  0.12700000000E+01 0.  1.
         -4   -1    0    0    0  501 -0.00000000000E+00 -0.00000000000E+00 -0.98149176935E+01  0.98967423595E+01  0.12700000000E+01 0.  1.
         25    2    1    2    0    0  0.00000000000E+00  0.00000000000E+00  0.38642187803E+03  0.40613557335E+03  0.12499694445E+03 0.  0.
    9000005    1    3    3    0    0  0.37834994492E+02 -0.10079966728E+02  0.35145444959E+03  0.35363020611E+03  0.10000000000E+01 0.  0.
    9000005    1    3    3    0    0 -0.37834994492E+02  0.10079966728E+02  0.34967428446E+02  0.52505367245E+02  0.10000000000E+01 0.  0.
<mgrwt>
<rscale>  0 0.12499694E+03</rscale>
<asrwt>0</asrwt>
<pdfrwt beam="1">  1        4 0.60965964E-01 0.12499694E+03</pdfrwt>
<pdfrwt beam="2">  1       -4 0.15164380E-02 0.12499694E+03</pdfrwt>
<totfact> 0.63964702E+03</totfact>
</mgrwt>
</event>
<event>
 5    1  0.3188180E-002  0.1250014E+03  0.7818608E-02  0.1235067E+00
         -4   -1    0    0    0  501 -0.00000000000E+00  0.00000000000E+00  0.69113121593E+02  0.69124789159E+02  0.12700000000E+01 0. -1.
          4   -1    0    0  501    0  0.00000000000E+00 -0.00000000000E+00 -0.56497309117E+02  0.56511581446E+02  0.12700000000E+01 0. -1.
         25    2    1    2    0    0  0.00000000000E+00  0.00000000000E+00  0.12615812475E+02  0.12563637060E+03  0.12500135557E+03 0.  0.
    9000005    1    3    3    0    0 -0.20265685998E+02 -0.53130038585E+02  0.32359373967E+02  0.65434150966E+02  0.10000000000E+01 0.  0.
    9000005    1    3    3    0    0  0.20265685998E+02  0.53130038585E+02 -0.19743561492E+02  0.60202219639E+02  0.10000000000E+01 0.  0.
<mgrwt>
<rscale>  0 0.12500136E+03</rscale>
<asrwt>0</asrwt>
<pdfrwt beam="2">  1        4 0.86938891E-02 0.12500136E+03</pdfrwt>
<pdfrwt beam="1">  1       -4 0.10634783E-01 0.12500136E+03</pdfrwt>
<totfact> 0.10438626E+04</totfact>
</mgrwt>
</event>
<event>
 5    1  0.3188180E-002  0.1249882E+03  0.7818608E-02  0.1235088E+00
          4   -1    0    0  501    0  0.00000000000E+00  0.00000000000E+00  0.12757534859E+04  0.12757541181E+04  0.12700000000E+01 0.  1.
         -4   -1    0    0    0  501 -0.00000000000E+00 -0.00000000000E+00 -0.29289624886E+01  0.31924475344E+01  0.12700000000E+01 0.  1.
         25    2    1    2    0    0  0.00000000000E+00  0.00000000000E+00  0.12728245235E+04  0.12789465656E+04  0.12498820019E+03 0.  0.
    9000005    1    3    3    0    0 -0.18720221154E+02  0.59431672989E+02  0.58848058683E+03  0.59177104653E+03  0.10000000000E+01 0.  0.
    9000005    1    3    3    0    0  0.18720221154E+02 -0.59431672989E+02  0.68434393663E+03  0.68717551909E+03  0.10000000000E+01 0.  0.
<mgrwt>
<rscale>  0 0.12498820E+03</rscale>
<asrwt>0</asrwt>
<pdfrwt beam="1">  1        4 0.19629001E+00 0.12498820E+03</pdfrwt>
<pdfrwt beam="2">  1       -4 0.47092650E-03 0.12498820E+03</pdfrwt>
<totfact> 0.22736798E+03</totfact>
</mgrwt>
</event>
<event>
 5    1  0.3188180E-002  0.1249569E+03  0.7818608E-02  0.1235137E+00
         -4   -1    0    0    0  501 -0.00000000000E+00  0.00000000000E+00  0.85294792043E+02  0.85304246375E+02  0.12700000000E+01 0.  1.
          4   -1    0    0  501    0  0.00000000000E+00 -0.00000000000E+00 -0.45744641847E+02  0.45762267839E+02  0.12700000000E+01 0.  1.
         25    2    1    2    0    0  0.00000000000E+00  0.00000000000E+00  0.39550150196E+02  0.13106651421E+03  0.12495685963E+03 0.  0.
    9000005    1    3    3    0    0 -0.56300981844E+02 -0.13090056399E+02 -0.50773870632E+01  0.58033869356E+02  0.10000000000E+01 0.  0.
    9000005    1    3    3    0    0  0.56300981844E+02  0.13090056399E+02  0.44627537259E+02  0.73032644857E+02  0.10000000000E+01 0.  0.
<mgrwt>
<rscale>  0 0.12495686E+03</rscale>
<asrwt>0</asrwt>
<pdfrwt beam="2">  1        4 0.70397204E-02 0.12495686E+03</pdfrwt>
<pdfrwt beam="1">  1       -4 0.13124359E-01 0.12495686E+03</pdfrwt>
<totfact> 0.10331716E+04</totfact>
</mgrwt>
</event>
<event>
 5    1  0.3188180E-002  0.1250017E+03  0.7818608E-02  0.1235067E+00
         -4   -1    0    0    0  501 -0.00000000000E+00  0.00000000000E+00  0.13416461041E+02  0.13476435986E+02  0.12700000000E+01 0.  1.
          4   -1    0    0  501    0  0.00000000000E+00 -0.00000000000E+00 -0.29045055943E+03  0.29045333597E+03  0.12700000000E+01 0.  1.
         25    2    1    2    0    0  0.00000000000E+00  0.00000000000E+00 -0.27703409839E+03  0.30392977195E+03  0.12500165842E+03 0.  0.
    9000005    1    3    3    0    0 -0.89529541113E+01  0.48640988193E+02 -0.23139715407E+03  0.23662574677E+03  0.10000000000E+01 0.  0.
    9000005    1    3    3    0    0  0.89529541113E+01 -0.48640988193E+02 -0.45636944319E+02  0.67304025188E+02  0.10000000000E+01 0.  0.
<mgrwt>
<rscale>  0 0.12500166E+03</rscale>
<asrwt>0</asrwt>
<pdfrwt beam="2">  1        4 0.44689524E-01 0.12500166E+03</pdfrwt>
<pdfrwt beam="1">  1       -4 0.20688982E-02 0.12500166E+03</pdfrwt>
<totfact> 0.75105762E+03</totfact>
</mgrwt>
</event>
<event>
 5    1  0.3188180E-002  0.1249935E+03  0.7818608E-02  0.1235079E+00
         -4   -1    0    0    0  501 -0.00000000000E+00  0.00000000000E+00  0.21579728791E+01  0.25039462747E+01  0.12700000000E+01 0. -1.
          4   -1    0    0  501    0  0.00000000000E+00 -0.00000000000E+00 -0.16752907643E+04  0.16752912456E+04  0.12700000000E+01 0. -1.
         25    2    1    2    0    0  0.00000000000E+00  0.00000000000E+00 -0.16731327914E+04  0.16777951919E+04  0.12499347349E+03 0.  0.
    9000005    1    3    3    0    0  0.44102075979E+02  0.68813869618E+01 -0.14235849395E+04  0.14242848826E+04  0.10000000000E+01 0.  0.
    9000005    1    3    3    0    0 -0.44102075979E+02 -0.68813869618E+01 -0.24954785182E+03  0.25351030934E+03  0.10000000000E+01 0.  0.
<mgrwt>
<rscale>  0 0.12499347E+03</rscale>
<asrwt>0</asrwt>
<pdfrwt beam="2">  1        4 0.25776273E+00 0.12499347E+03</pdfrwt>
<pdfrwt beam="1">  1       -4 0.35864753E-03 0.12499347E+03</pdfrwt>
<totfact> 0.14683967E+03</totfact>
</mgrwt>
</event>
<event>
 5    1  0.3188180E-002  0.1249995E+03  0.7818608E-02  0.1235070E+00
          4   -1    0    0  501    0  0.00000000000E+00  0.00000000000E+00  0.10032591685E+02  0.10112655236E+02  0.12700000000E+01 0.  1.
         -4   -1    0    0    0  501 -0.00000000000E+00 -0.00000000000E+00 -0.38772469666E+03  0.38772677661E+03  0.12700000000E+01 0.  1.
         25    2    1    2    0    0  0.00000000000E+00  0.00000000000E+00 -0.37769210498E+03  0.39783943185E+03  0.12499954948E+03 0.  0.
    9000005    1    3    3    0    0  0.58734755658E+02 -0.78102367217E+01 -0.25205748700E+03  0.25893000612E+03  0.10000000000E+01 0.  0.
    9000005    1    3    3    0    0 -0.58734755658E+02  0.78102367217E+01 -0.12563461798E+03  0.13890942572E+03  0.10000000000E+01 0.  0.
<mgrwt>
<rscale>  0 0.12499955E+03</rscale>
<asrwt>0</asrwt>
<pdfrwt beam="1">  1        4 0.15497947E-02 0.12499955E+03</pdfrwt>
<pdfrwt beam="2">  1       -4 0.59656261E-01 0.12499955E+03</pdfrwt>
<totfact> 0.64764117E+03</totfact>
</mgrwt>
</event>
<event>
 5    1  0.3188180E-002  0.1249880E+03  0.7818608E-02  0.1235088E+00
         -4   -1    0    0    0  501 -0.00000000000E+00  0.00000000000E+00  0.14669924539E+02  0.14724794939E+02  0.12700000000E+01 0.  1.
          4   -1    0    0  501    0  0.00000000000E+00 -0.00000000000E+00 -0.26567178317E+03  0.26567481867E+03  0.12700000000E+01 0.  1.
         25    2    1    2    0    0  0.00000000000E+00  0.00000000000E+00 -0.25100185863E+03  0.28039961361E+03  0.12498804052E+03 0.  0.
    9000005    1    3    3    0    0  0.98165535344E+01  0.30563746476E+02 -0.24576945136E+03  0.24785909413E+03  0.10000000000E+01 0.  0.
    9000005    1    3    3    0    0 -0.98165535344E+01 -0.30563746476E+02 -0.52324072754E+01  0.32540519477E+02  0.10000000000E+01 0.  0.
<mgrwt>
<rscale>  0 0.12498804E+03</rscale>
<asrwt>0</asrwt>
<pdfrwt beam="2">  1        4 0.40877033E-01 0.12498804E+03</pdfrwt>
<pdfrwt beam="1">  1       -4 0.22613660E-02 0.12498804E+03</pdfrwt>
<totfact> 0.78145923E+03</totfact>
</mgrwt>
</event>
<event>
 5    1  0.3188180E-002  0.1249960E+03  0.7818608E-02  0.1235076E+00
          4   -1    0    0  501    0  0.00000000000E+00  0.00000000000E+00  0.92086242151E+03  0.92086329727E+03  0.12700000000E+01 0. -1.
         -4   -1    0    0    0  501 -0.00000000000E+00 -0.00000000000E+00 -0.41457125809E+01  0.43358773972E+01  0.12700000000E+01 0. -1.
         25    2    1    2    0    0  0.00000000000E+00  0.00000000000E+00  0.91671670893E+03  0.92519917467E+03  0.12499595340E+03 0.  0.
    9000005    1    3    3    0    0  0.31061456291E+02 -0.53495579938E+02  0.52389946536E+03  0.52753980034E+03  0.10000000000E+01 0.  0.
    9000005    1    3    3    0    0 -0.31061456291E+02  0.53495579938E+02  0.39281724358E+03  0.39765937433E+03  0.10000000000E+01 0.  0.
<mgrwt>
<rscale>  0 0.12499595E+03</rscale>
<asrwt>0</asrwt>
<pdfrwt beam="1">  1        4 0.14168577E+00 0.12499595E+03</pdfrwt>
<pdfrwt beam="2">  1       -4 0.65249766E-03 0.12499595E+03</pdfrwt>
<totfact> 0.33216124E+03</totfact>
</mgrwt>
</event>
<event>
 5    1  0.3188180E-002  0.1249983E+03  0.7818608E-02  0.1235072E+00
         -4   -1    0    0    0  501 -0.00000000000E+00  0.00000000000E+00  0.36911004416E+03  0.36911222900E+03  0.12700000000E+01 0. -1.
          4   -1    0    0  501    0  0.00000000000E+00 -0.00000000000E+00 -0.10542275111E+02  0.10618496340E+02  0.12700000000E+01 0. -1.
         25    2    1    2    0    0  0.00000000000E+00  0.00000000000E+00  0.35856776905E+03  0.37973072534E+03  0.12499831506E+03 0.  0.
    9000005    1    3    3    0    0  0.42446241664E+02  0.65307017338E+01  0.31719227265E+03  0.32008791187E+03  0.10000000000E+01 0.  0.
    9000005    1    3    3    0    0 -0.42446241664E+02 -0.65307017338E+01  0.41375496396E+02  0.59642813470E+02  0.10000000000E+01 0.  0.
<mgrwt>
<rscale>  0 0.12499832E+03</rscale>
<asrwt>0</asrwt>
<pdfrwt beam="2">  1        4 0.16279199E-02 0.12499832E+03</pdfrwt>
<pdfrwt beam="1">  1       -4 0.56792186E-01 0.12499832E+03</pdfrwt>
<totfact> 0.66575540E+03</totfact>
</mgrwt>
</event>
<event>
 5    1  0.3188180E-002  0.1249965E+03  0.7818608E-02  0.1235075E+00
         -4   -1    0    0    0  501 -0.00000000000E+00  0.00000000000E+00  0.36197222255E+02  0.36219494737E+02  0.12700000000E+01 0.  1.
          4   -1    0    0  501    0  0.00000000000E+00 -0.00000000000E+00 -0.10785052760E+03  0.10785800482E+03  0.12700000000E+01 0.  1.
         25    2    1    2    0    0  0.00000000000E+00  0.00000000000E+00 -0.71653305347E+02  0.14407749956E+03  0.12499651880E+03 0.  0.
    9000005    1    3    3    0    0  0.26956781758E+02  0.54508807171E+02 -0.52416607614E+02  0.80289344846E+02  0.10000000000E+01 0.  0.
    9000005    1    3    3    0    0 -0.26956781758E+02 -0.54508807171E+02 -0.19236697733E+02  0.63788154713E+02  0.10000000000E+01 0.  0.
<mgrwt>
<rscale>  0 0.12499652E+03</rscale>
<asrwt>0</asrwt>
<pdfrwt beam="2">  1        4 0.16594677E-01 0.12499652E+03</pdfrwt>
<pdfrwt beam="1">  1       -4 0.55710919E-02 0.12499652E+03</pdfrwt>
<totfact> 0.10050553E+04</totfact>
</mgrwt>
</event>
<event>
 5    1  0.3188180E-002  0.1250003E+03  0.7818608E-02  0.1235069E+00
          4   -1    0    0  501    0  0.00000000000E+00  0.00000000000E+00  0.19335460937E+02  0.19377124390E+02  0.12700000000E+01 0. -1.
         -4   -1    0    0    0  501 -0.00000000000E+00 -0.00000000000E+00 -0.20176493390E+03  0.20176893084E+03  0.12700000000E+01 0. -1.
         25    2    1    2    0    0  0.00000000000E+00  0.00000000000E+00 -0.18242947296E+03  0.22114605523E+03  0.12500026055E+03 0.  0.
    9000005    1    3    3    0    0  0.55483012604E+02  0.20425672941E+02 -0.55405273691E+02  0.81032815300E+02  0.10000000000E+01 0.  0.
    9000005    1    3    3    0    0 -0.55483012604E+02 -0.20425672941E+02 -0.12702419927E+03  0.14011323993E+03  0.10000000000E+01 0.  0.
<mgrwt>
<rscale>  0 0.12500026E+03</rscale>
<asrwt>0</asrwt>
<pdfrwt beam="1">  1        4 0.29781988E-02 0.12500026E+03</pdfrwt>
<pdfrwt beam="2">  1       -4 0.31044270E-01 0.12500026E+03</pdfrwt>
<totfact> 0.86686822E+03</totfact>
</mgrwt>
</event>
<event>
 5    1  0.3188180E-002  0.1250006E+03  0.7818608E-02  0.1235068E+00
          4   -1    0    0  501    0  0.00000000000E+00  0.00000000000E+00  0.15975093160E+03  0.15975597969E+03  0.12700000000E+01 0.  1.
         -4   -1    0    0    0  501 -0.00000000000E+00 -0.00000000000E+00 -0.24430436251E+02  0.24463424033E+02  0.12700000000E+01 0.  1.
         25    2    1    2    0    0  0.00000000000E+00  0.00000000000E+00  0.13532049535E+03  0.18421940373E+03  0.12500060899E+03 0.  0.
    9000005    1    3    3    0    0 -0.25501992261E+02  0.37878438753E+02  0.47852378650E+01  0.45924135627E+02  0.10000000000E+01 0.  0.
    9000005    1    3    3    0    0  0.25501992261E+02 -0.37878438753E+02  0.13053525749E+03  0.13829526810E+03  0.10000000000E+01 0.  0.
<mgrwt>
<rscale>  0 0.12500061E+03</rscale>
<asrwt>0</asrwt>
<pdfrwt beam="1">  1        4 0.24579993E-01 0.12500061E+03</pdfrwt>
<pdfrwt beam="2">  1       -4 0.37614544E-02 0.12500061E+03</pdfrwt>
<totfact> 0.92861695E+03</totfact>
</mgrwt>
</event>
<event>
 5    1  0.3188180E-002  0.1249956E+03  0.7818608E-02  0.1235076E+00
          4   -1    0    0  501    0  0.00000000000E+00  0.00000000000E+00  0.29358354700E+03  0.29358629391E+03  0.12700000000E+01 0. -1.
         -4   -1    0    0    0  501 -0.00000000000E+00 -0.00000000000E+00 -0.13271345829E+02  0.13331973601E+02  0.12700000000E+01 0. -1.
         25    2    1    2    0    0  0.00000000000E+00  0.00000000000E+00  0.28031220117E+03  0.30691826751E+03  0.12499557114E+03 0.  0.
    9000005    1    3    3    0    0 -0.16736319007E+02  0.21095579245E+02  0.16939371505E+01  0.26999949271E+02  0.10000000000E+01 0.  0.
    9000005    1    3    3    0    0  0.16736319007E+02 -0.21095579245E+02  0.27861826402E+03  0.27991831824E+03  0.10000000000E+01 0.  0.
<mgrwt>
<rscale>  0 0.12499557E+03</rscale>
<asrwt>0</asrwt>
<pdfrwt beam="1">  1        4 0.45171569E-01 0.12499557E+03</pdfrwt>
<pdfrwt beam="2">  1       -4 0.20466207E-02 0.12499557E+03</pdfrwt>
<totfact> 0.74746486E+03</totfact>
</mgrwt>
</event>
<event>
 5    1  0.3188180E-002  0.1249987E+03  0.7818608E-02  0.1235071E+00
          4   -1    0    0  501    0  0.00000000000E+00  0.00000000000E+00  0.57380594182E+02  0.57394646864E+02  0.12700000000E+01 0.  1.
         -4   -1    0    0    0  501 -0.00000000000E+00 -0.00000000000E+00 -0.68046444774E+02  0.68058295207E+02  0.12700000000E+01 0.  1.
         25    2    1    2    0    0  0.00000000000E+00  0.00000000000E+00 -0.10665850592E+02  0.12545294207E+03  0.12499872121E+03 0.  0.
    9000005    1    3    3    0    0 -0.24581936365E+02 -0.15448236466E+02  0.50205765206E+02  0.58004641757E+02  0.10000000000E+01 0.  0.
    9000005    1    3    3    0    0  0.24581936365E+02  0.15448236466E+02 -0.60871615799E+02  0.67448300314E+02  0.10000000000E+01 0.  0.
<mgrwt>
<rscale>  0 0.12499872E+03</rscale>
<asrwt>0</asrwt>
<pdfrwt beam="1">  1        4 0.88297763E-02 0.12499872E+03</pdfrwt>
<pdfrwt beam="2">  1       -4 0.10470676E-01 0.12499872E+03</pdfrwt>
<totfact> 0.10443296E+04</totfact>
</mgrwt>
</event>
<event>
 5    1  0.3188180E-002  0.1250009E+03  0.7818608E-02  0.1235068E+00
         -4   -1    0    0    0  501 -0.00000000000E+00  0.00000000000E+00  0.40068090605E+03  0.40068291874E+03  0.12700000000E+01 0. -1.
          4   -1    0    0  501    0  0.00000000000E+00 -0.00000000000E+00 -0.97057702829E+01  0.97885073829E+01  0.12700000000E+01 0. -1.
         25    2    1    2    0    0  0.00000000000E+00  0.00000000000E+00  0.39097513577E+03  0.41047142613E+03  0.12500093951E+03 0.  0.
    9000005    1    3    3    0    0 -0.13044833684E+02  0.38055372197E+02  0.35252242314E+03  0.35481183443E+03  0.10000000000E+01 0.  0.
    9000005    1    3    3    0    0  0.13044833684E+02 -0.38055372197E+02  0.38452712629E+02  0.55659591693E+02  0.10000000000E+01 0.  0.
<mgrwt>
<rscale>  0 0.12500094E+03</rscale>
<asrwt>0</asrwt>
<pdfrwt beam="2">  1        4 0.14997144E-02 0.12500094E+03</pdfrwt>
<pdfrwt beam="1">  1       -4 0.61649747E-01 0.12500094E+03</pdfrwt>
<totfact> 0.63545609E+03</totfact>
</mgrwt>
</event>
<event>
 5    1  0.3188180E-002  0.1250005E+03  0.7818608E-02  0.1235069E+00
          4   -1    0    0  501    0  0.00000000000E+00  0.00000000000E+00  0.14380170121E+02  0.14436141892E+02  0.12700000000E+01 0.  1.
         -4   -1    0    0    0  501 -0.00000000000E+00 -0.00000000000E+00 -0.27105829755E+03  0.27106127272E+03  0.12700000000E+01 0.  1.
         25    2    1    2    0    0  0.00000000000E+00  0.00000000000E+00 -0.25667812743E+03  0.28549741461E+03  0.12500045061E+03 0.  0.
    9000005    1    3    3    0    0  0.48527254329E+02 -0.12396457149E+02 -0.42981114704E+02  0.66007141915E+02  0.10000000000E+01 0.  0.
    9000005    1    3    3    0    0 -0.48527254329E+02  0.12396457149E+02 -0.21369701272E+03  0.21949027270E+03  0.10000000000E+01 0.  0.
<mgrwt>
<rscale>  0 0.12500045E+03</rscale>
<asrwt>0</asrwt>
<pdfrwt beam="1">  1        4 0.22168684E-02 0.12500045E+03</pdfrwt>
<pdfrwt beam="2">  1       -4 0.41705807E-01 0.12500045E+03</pdfrwt>
<totfact> 0.77454015E+03</totfact>
</mgrwt>
</event>
<event>
 5    1  0.3188180E-002  0.1249991E+03  0.7818608E-02  0.1235071E+00
         -4   -1    0    0    0  501 -0.00000000000E+00  0.00000000000E+00  0.44995363941E+03  0.44995543170E+03  0.12700000000E+01 0.  1.
          4   -1    0    0  501    0  0.00000000000E+00 -0.00000000000E+00 -0.86330623443E+01  0.87259764749E+01  0.12700000000E+01 0.  1.
         25    2    1    2    0    0  0.00000000000E+00  0.00000000000E+00  0.44132057707E+03  0.45868140818E+03  0.12499912986E+03 0.  0.
    9000005    1    3    3    0    0  0.26167862616E+02 -0.20533645982E+02  0.26531163136E+02  0.42559255968E+02  0.10000000000E+01 0.  0.
    9000005    1    3    3    0    0 -0.26167862616E+02  0.20533645982E+02  0.41478941393E+03  0.41612215221E+03  0.10000000000E+01 0.  0.
<mgrwt>
<rscale>  0 0.12499913E+03</rscale>
<asrwt>0</asrwt>
<pdfrwt beam="2">  1        4 0.13354488E-02 0.12499913E+03</pdfrwt>
<pdfrwt beam="1">  1       -4 0.69230910E-01 0.12499913E+03</pdfrwt>
<totfact> 0.59220174E+03</totfact>
</mgrwt>
</event>
<event>
 5    1  0.3188180E-002  0.1249992E+03  0.7818608E-02  0.1235071E+00
          4   -1    0    0  501    0  0.00000000000E+00  0.00000000000E+00  0.14733365751E+03  0.14733913103E+03  0.12700000000E+01 0. -1.
         -4   -1    0    0    0  501 -0.00000000000E+00 -0.00000000000E+00 -0.26491421958E+02  0.26521846417E+02  0.12700000000E+01 0. -1.
         25    2    1    2    0    0  0.00000000000E+00  0.00000000000E+00  0.12084223555E+03  0.17386097745E+03  0.12499917435E+03 0.  0.
    9000005    1    3    3    0    0  0.86662134998E+01 -0.52645706357E+02  0.15168315342E+02  0.55477485925E+02  0.10000000000E+01 0.  0.
    9000005    1    3    3    0    0 -0.86662134998E+01  0.52645706357E+02  0.10567392021E+03  0.11838349153E+03  0.10000000000E+01 0.  0.
<mgrwt>
<rscale>  0 0.12499917E+03</rscale>
<asrwt>0</asrwt>
<pdfrwt beam="1">  1        4 0.22669478E-01 0.12499917E+03</pdfrwt>
<pdfrwt beam="2">  1       -4 0.40783648E-02 0.12499917E+03</pdfrwt>
<totfact> 0.94735619E+03</totfact>
</mgrwt>
</event>
<event>
 5    1  0.3188180E-002  0.1250025E+03  0.7818608E-02  0.1235065E+00
          4   -1    0    0  501    0  0.00000000000E+00  0.00000000000E+00  0.57997841210E+01  0.59372043800E+01  0.12700000000E+01 0.  1.
         -4   -1    0    0    0  501 -0.00000000000E+00 -0.00000000000E+00 -0.66551931429E+03  0.66552052605E+03  0.12700000000E+01 0.  1.
         25    2    1    2    0    0  0.00000000000E+00  0.00000000000E+00 -0.65971953017E+03  0.67145773043E+03  0.12500250104E+03 0.  0.
    9000005    1    3    3    0    0  0.54521000803E+02  0.27876299634E+02 -0.39690285514E+03  0.40159993032E+03  0.10000000000E+01 0.  0.
    9000005    1    3    3    0    0 -0.54521000803E+02 -0.27876299634E+02 -0.26281667503E+03  0.26985780012E+03  0.10000000000E+01 0.  0.
<mgrwt>
<rscale>  0 0.12500250E+03</rscale>
<asrwt>0</asrwt>
<pdfrwt beam="1">  1        4 0.90293901E-03 0.12500250E+03</pdfrwt>
<pdfrwt beam="2">  1       -4 0.10239819E+00 0.12500250E+03</pdfrwt>
<totfact> 0.44634401E+03</totfact>
</mgrwt>
</event>
<event>
 5    1  0.3188180E-002  0.1249897E+03  0.7818608E-02  0.1235085E+00
          4   -1    0    0  501    0  0.00000000000E+00  0.00000000000E+00  0.21755940890E+03  0.21756311567E+03  0.12700000000E+01 0.  1.
         -4   -1    0    0    0  501 -0.00000000000E+00 -0.00000000000E+00 -0.17925572609E+02  0.17970505095E+02  0.12700000000E+01 0.  1.
         25    2    1    2    0    0  0.00000000000E+00  0.00000000000E+00  0.19963383629E+03  0.23553362076E+03  0.12498967125E+03 0.  0.
    9000005    1    3    3    0    0 -0.32981924321E+02 -0.26994356336E+02  0.18592712334E+03  0.19075218950E+03  0.10000000000E+01 0.  0.
    9000005    1    3    3    0    0  0.32981924321E+02  0.26994356336E+02  0.13706712945E+02  0.44781431259E+02  0.10000000000E+01 0.  0.
<mgrwt>
<rscale>  0 0.12498967E+03</rscale>
<asrwt>0</asrwt>
<pdfrwt beam="1">  1        4 0.33474422E-01 0.12498967E+03</pdfrwt>
<pdfrwt beam="2">  1       -4 0.27615217E-02 0.12498967E+03</pdfrwt>
<totfact> 0.84486541E+03</totfact>
</mgrwt>
</event>
<event>
 5    1  0.3188180E-002  0.1250003E+03  0.7818608E-02  0.1235069E+00
          4   -1    0    0  501    0  0.00000000000E+00  0.00000000000E+00  0.63329452358E+02  0.63342185280E+02  0.12700000000E+01 0. -1.
         -4   -1    0    0    0  501 -0.00000000000E+00 -0.00000000000E+00 -0.61656216172E+02  0.61669294569E+02  0.12700000000E+01 0. -1.
         25    2    1    2    0    0  0.00000000000E+00  0.00000000000E+00  0.16732361859E+01  0.12501147985E+03  0.12500028150E+03 0.  0.
    9000005    1    3    3    0    0 -0.36729622578E+01  0.58414556764E+01 -0.61278964145E+02  0.61674343960E+02  0.10000000000E+01 0.  0.
    9000005    1    3    3    0    0  0.36729622578E+01 -0.58414556764E+01  0.62952200331E+02  0.63337135889E+02  0.10000000000E+01 0.  0.
<mgrwt>
<rscale>  0 0.12500028E+03</rscale>
<asrwt>0</asrwt>
<pdfrwt beam="1">  1        4 0.97449782E-02 0.12500028E+03</pdfrwt>
<pdfrwt beam="2">  1       -4 0.94875572E-02 0.12500028E+03</pdfrwt>
<totfact> 0.10452547E+04</totfact>
</mgrwt>
</event>
<event>
 5    1  0.3188180E-002  0.1249982E+03  0.7818608E-02  0.1235072E+00
         -4   -1    0    0    0  501 -0.00000000000E+00  0.00000000000E+00  0.39094107969E+02  0.39114730958E+02  0.12700000000E+01 0. -1.
          4   -1    0    0  501    0  0.00000000000E+00 -0.00000000000E+00 -0.99865185882E+02  0.99873260942E+02  0.12700000000E+01 0. -1.
         25    2    1    2    0    0  0.00000000000E+00  0.00000000000E+00 -0.60771077913E+02  0.13898799190E+03  0.12499815191E+03 0.  0.
    9000005    1    3    3    0    0 -0.21353280618E+02  0.22788747830E+02  0.29800533204E+02  0.43178251471E+02  0.10000000000E+01 0.  0.
    9000005    1    3    3    0    0  0.21353280618E+02 -0.22788747830E+02 -0.90571611117E+02  0.95809740429E+02  0.10000000000E+01 0.  0.
<mgrwt>
<rscale>  0 0.12499815E+03</rscale>
<asrwt>0</asrwt>
<pdfrwt beam="2">  1        4 0.15366082E-01 0.12499815E+03</pdfrwt>
<pdfrwt beam="1">  1       -4 0.60166857E-02 0.12499815E+03</pdfrwt>
<totfact> 0.10155026E+04</totfact>
</mgrwt>
</event>
<event>
 5    1  0.3188180E-002  0.1250003E+03  0.7818608E-02  0.1235069E+00
         -4   -1    0    0    0  501 -0.00000000000E+00  0.00000000000E+00  0.13136125471E+03  0.13136739374E+03  0.12700000000E+01 0.  1.
          4   -1    0    0  501    0  0.00000000000E+00 -0.00000000000E+00 -0.29716427582E+02  0.29743553389E+02  0.12700000000E+01 0.  1.
         25    2    1    2    0    0  0.00000000000E+00  0.00000000000E+00  0.10164482713E+03  0.16111094713E+03  0.12500026562E+03 0.  0.
    9000005    1    3    3    0    0 -0.33098142026E+02 -0.31048667465E+02  0.10619587999E+03  0.11549056968E+03  0.10000000000E+01 0.  0.
    9000005    1    3    3    0    0  0.33098142026E+02  0.31048667465E+02 -0.45510528650E+01  0.45620377455E+02  0.10000000000E+01 0.  0.
<mgrwt>
<rscale>  0 0.12500027E+03</rscale>
<asrwt>0</asrwt>
<pdfrwt beam="2">  1        4 0.45743169E-02 0.12500027E+03</pdfrwt>
<pdfrwt beam="1">  1       -4 0.20211983E-01 0.12500027E+03</pdfrwt>
<totfact> 0.97128450E+03</totfact>
</mgrwt>
</event>
<event>
 5    1  0.3188180E-002  0.1249997E+03  0.7818608E-02  0.1235070E+00
          4   -1    0    0  501    0  0.00000000000E+00  0.00000000000E+00  0.81796689869E+02  0.81806548476E+02  0.12700000000E+01 0. -1.
         -4   -1    0    0    0  501 -0.00000000000E+00 -0.00000000000E+00 -0.47734171984E+02  0.47751063600E+02  0.12700000000E+01 0. -1.
         25    2    1    2    0    0  0.00000000000E+00  0.00000000000E+00  0.34062517886E+02  0.12955761208E+03  0.12499967889E+03 0.  0.
    9000005    1    3    3    0    0 -0.54710103771E+02  0.26887323784E+02  0.27782344572E+01  0.61031485493E+02  0.10000000000E+01 0.  0.
    9000005    1    3    3    0    0  0.54710103771E+02 -0.26887323784E+02  0.31284283428E+02  0.68526126583E+02  0.10000000000E+01 0.  0.
<mgrwt>
<rscale>  0 0.12499968E+03</rscale>
<asrwt>0</asrwt>
<pdfrwt beam="1">  1        4 0.12586164E-01 0.12499968E+03</pdfrwt>
<pdfrwt beam="2">  1       -4 0.73457765E-02 0.12499968E+03</pdfrwt>
<totfact> 0.10354055E+04</totfact>
</mgrwt>
</event>
<event>
 5    1  0.3188180E-002  0.1250025E+03  0.7818608E-02  0.1235065E+00
          4   -1    0    0  501    0  0.00000000000E+00  0.00000000000E+00  0.20711617381E+02  0.20750517934E+02  0.12700000000E+01 0. -1.
         -4   -1    0    0    0  501 -0.00000000000E+00 -0.00000000000E+00 -0.18839152559E+03  0.18839580625E+03  0.12700000000E+01 0. -1.
         25    2    1    2    0    0  0.00000000000E+00  0.00000000000E+00 -0.16767990820E+03  0.20914632418E+03  0.12500253319E+03 0.  0.
    9000005    1    3    3    0    0 -0.39295100314E+02 -0.38215369734E+02 -0.13405883703E+03  0.14483539339E+03  0.10000000000E+01 0.  0.
    9000005    1    3    3    0    0  0.39295100314E+02  0.38215369734E+02 -0.33621071174E+02  0.64310930793E+02  0.10000000000E+01 0.  0.
<mgrwt>
<rscale>  0 0.12500253E+03</rscale>
<asrwt>0</asrwt>
<pdfrwt beam="1">  1        4 0.31897244E-02 0.12500253E+03</pdfrwt>
<pdfrwt beam="2">  1       -4 0.28986632E-01 0.12500253E+03</pdfrwt>
<totfact> 0.88610469E+03</totfact>
</mgrwt>
</event>
<event>
 5    1  0.3188180E-002  0.1250007E+03  0.7818608E-02  0.1235068E+00
         -4   -1    0    0    0  501 -0.00000000000E+00  0.00000000000E+00  0.73115576770E+02  0.73126605736E+02  0.12700000000E+01 0.  1.
          4   -1    0    0  501    0  0.00000000000E+00 -0.00000000000E+00 -0.53403686410E+02  0.53418785293E+02  0.12700000000E+01 0.  1.
         25    2    1    2    0    0  0.00000000000E+00  0.00000000000E+00  0.19711890360E+02  0.12654539103E+03  0.12500070947E+03 0.  0.
    9000005    1    3    3    0    0 -0.37483496650E+02 -0.38830456561E+02 -0.22036967316E+02  0.58304758007E+02  0.10000000000E+01 0.  0.
    9000005    1    3    3    0    0  0.37483496650E+02  0.38830456561E+02  0.41748857677E+02  0.68240633021E+02  0.10000000000E+01 0.  0.
<mgrwt>
<rscale>  0 0.12500071E+03</rscale>
<asrwt>0</asrwt>
<pdfrwt beam="2">  1        4 0.82179616E-02 0.12500071E+03</pdfrwt>
<pdfrwt beam="1">  1       -4 0.11250560E-01 0.12500071E+03</pdfrwt>
<totfact> 0.10418872E+04</totfact>
</mgrwt>
</event>
<event>
 5    1  0.3188180E-002  0.1250023E+03  0.7818608E-02  0.1235066E+00
          4   -1    0    0  501    0  0.00000000000E+00  0.00000000000E+00  0.28364281582E+02  0.28392699232E+02  0.12700000000E+01 0. -1.
         -4   -1    0    0    0  501 -0.00000000000E+00 -0.00000000000E+00 -0.13762194418E+03  0.13762780395E+03  0.12700000000E+01 0. -1.
         25    2    1    2    0    0  0.00000000000E+00  0.00000000000E+00 -0.10925766260E+03  0.16602050318E+03  0.12500228254E+03 0.  0.
    9000005    1    3    3    0    0  0.98948239448E+01  0.61631924327E+02 -0.58611262991E+02  0.85631079560E+02  0.10000000000E+01 0.  0.
    9000005    1    3    3    0    0 -0.98948239448E+01 -0.61631924327E+02 -0.50646399611E+02  0.80389423625E+02  0.10000000000E+01 0.  0.
<mgrwt>
<rscale>  0 0.12500228E+03</rscale>
<asrwt>0</asrwt>
<pdfrwt beam="1">  1        4 0.43663724E-02 0.12500228E+03</pdfrwt>
<pdfrwt beam="2">  1       -4 0.21175243E-01 0.12500228E+03</pdfrwt>
<totfact> 0.96189542E+03</totfact>
</mgrwt>
</event>
<event>
 5    1  0.3188180E-002  0.1249981E+03  0.7818608E-02  0.1235072E+00
          4   -1    0    0  501    0  0.00000000000E+00  0.00000000000E+00  0.18667434980E+03  0.18667866984E+03  0.12700000000E+01 0.  1.
         -4   -1    0    0    0  501 -0.00000000000E+00 -0.00000000000E+00 -0.20901001372E+02  0.20939550099E+02  0.12700000000E+01 0.  1.
         25    2    1    2    0    0  0.00000000000E+00  0.00000000000E+00  0.16577334842E+03  0.20761821994E+03  0.12499808879E+03 0.  0.
    9000005    1    3    3    0    0  0.40338394852E+02 -0.33106320094E+02  0.13998921074E+03  0.14940278997E+03  0.10000000000E+01 0.  0.
    9000005    1    3    3    0    0 -0.40338394852E+02  0.33106320094E+02  0.25784137688E+02  0.58215429962E+02  0.10000000000E+01 0.  0.
<mgrwt>
<rscale>  0 0.12499809E+03</rscale>
<asrwt>0</asrwt>
<pdfrwt beam="1">  1        4 0.28722427E-01 0.12499809E+03</pdfrwt>
<pdfrwt beam="2">  1       -4 0.32188364E-02 0.12499809E+03</pdfrwt>
<totfact> 0.88870139E+03</totfact>
</mgrwt>
</event>
<event>
 5    1  0.3188180E-002  0.1250005E+03  0.7818608E-02  0.1235068E+00
          4   -1    0    0  501    0  0.00000000000E+00  0.00000000000E+00  0.43191062923E+02  0.43209730576E+02  0.12700000000E+01 0. -1.
         -4   -1    0    0    0  501 -0.00000000000E+00 -0.00000000000E+00 -0.90399282846E+02  0.90408203384E+02  0.12700000000E+01 0. -1.
         25    2    1    2    0    0  0.00000000000E+00  0.00000000000E+00 -0.47208219923E+02  0.13361793396E+03  0.12500054499E+03 0.  0.
    9000005    1    3    3    0    0  0.49535511289E+02  0.23389732494E+02  0.85430158222E+01  0.55451145923E+02  0.10000000000E+01 0.  0.
    9000005    1    3    3    0    0 -0.49535511289E+02 -0.23389732494E+02 -0.55751235745E+02  0.78166788037E+02  0.10000000000E+01 0.  0.
<mgrwt>
<rscale>  0 0.12500054E+03</rscale>
<asrwt>0</asrwt>
<pdfrwt beam="1">  1        4 0.66469011E-02 0.12500054E+03</pdfrwt>
<pdfrwt beam="2">  1       -4 0.13909704E-01 0.12500054E+03</pdfrwt>
<totfact> 0.10267158E+04</totfact>
</mgrwt>
</event>
<event>
 5    1  0.3188180E-002  0.1249840E+03  0.7818608E-02  0.1235094E+00
         -4   -1    0    0    0  501 -0.00000000000E+00  0.00000000000E+00  0.54109027481E+03  0.54109176522E+03  0.12700000000E+01 0. -1.
          4   -1    0    0  501    0  0.00000000000E+00 -0.00000000000E+00 -0.71599955167E+01  0.72717560327E+01  0.12700000000E+01 0. -1.
         25    2    1    2    0    0  0.00000000000E+00  0.00000000000E+00  0.53393027929E+03  0.54836352126E+03  0.12498403218E+03 0.  0.
    9000005    1    3    3    0    0 -0.39967215911E+02 -0.27970074397E+02  0.43827591118E+03  0.44098353454E+03  0.10000000000E+01 0.  0.
    9000005    1    3    3    0    0  0.39967215911E+02  0.27970074397E+02  0.95654368109E+02  0.10737998672E+03  0.10000000000E+01 0.  0.
<mgrwt>
<rscale>  0 0.12498403E+03</rscale>
<asrwt>0</asrwt>
<pdfrwt beam="2">  1        4 0.11102493E-02 0.12498403E+03</pdfrwt>
<pdfrwt beam="1">  1       -4 0.83253375E-01 0.12498403E+03</pdfrwt>
<totfact> 0.52316520E+03</totfact>
</mgrwt>
</event>
<event>
 5    1  0.3188180E-002  0.1249496E+03  0.7818608E-02  0.1235148E+00
         -4   -1    0    0    0  501 -0.00000000000E+00  0.00000000000E+00  0.15988578836E+02  0.16038938655E+02  0.12700000000E+01 0.  1.
          4   -1    0    0  501    0  0.00000000000E+00 -0.00000000000E+00 -0.24368230886E+03  0.24368561827E+03  0.12700000000E+01 0.  1.
         25    2    1    2    0    0  0.00000000000E+00  0.00000000000E+00 -0.22769373002E+03  0.25972455692E+03  0.12494963296E+03 0.  0.
    9000005    1    3    3    0    0  0.15510862938E+02 -0.42503439161E+02 -0.20337239123E+03  0.20834696716E+03  0.10000000000E+01 0.  0.
    9000005    1    3    3    0    0 -0.15510862938E+02  0.42503439161E+02 -0.24321338797E+02  0.51377589769E+02  0.10000000000E+01 0.  0.
<mgrwt>
<rscale>  0 0.12494963E+03</rscale>
<asrwt>0</asrwt>
<pdfrwt beam="2">  1        4 0.37493712E-01 0.12494963E+03</pdfrwt>
<pdfrwt beam="1">  1       -4 0.24639099E-02 0.12494963E+03</pdfrwt>
<totfact> 0.81035553E+03</totfact>
</mgrwt>
</event>
<event>
 5    1  0.3188180E-002  0.1249968E+03  0.7818608E-02  0.1235074E+00
         -4   -1    0    0    0  501 -0.00000000000E+00  0.00000000000E+00  0.15993868856E+03  0.15994373073E+03  0.12700000000E+01 0. -1.
          4   -1    0    0  501    0  0.00000000000E+00 -0.00000000000E+00 -0.24400219252E+02  0.24433247831E+02  0.12700000000E+01 0. -1.
         25    2    1    2    0    0  0.00000000000E+00  0.00000000000E+00  0.13553846931E+03  0.18437697856E+03  0.12499677420E+03 0.  0.
    9000005    1    3    3    0    0 -0.18879485539E+02  0.83469169463E+01  0.15477168959E+03  0.15614538705E+03  0.10000000000E+01 0.  0.
    9000005    1    3    3    0    0  0.18879485539E+02 -0.83469169463E+01 -0.19233220284E+02  0.28231591510E+02  0.10000000000E+01 0.  0.
<mgrwt>
<rscale>  0 0.12499677E+03</rscale>
<asrwt>0</asrwt>
<pdfrwt beam="2">  1        4 0.37568086E-02 0.12499677E+03</pdfrwt>
<pdfrwt beam="1">  1       -4 0.24608879E-01 0.12499677E+03</pdfrwt>
<totfact> 0.92841726E+03</totfact>
</mgrwt>
</event>
<event>
 5    1  0.3188180E-002  0.1250127E+03  0.7818608E-02  0.1235049E+00
         -4   -1    0    0    0  501 -0.00000000000E+00  0.00000000000E+00  0.14244382071E+02  0.14300885308E+02  0.12700000000E+01 0. -1.
          4   -1    0    0  501    0  0.00000000000E+00 -0.00000000000E+00 -0.27368569608E+03  0.27368864270E+03  0.12700000000E+01 0. -1.
         25    2    1    2    0    0  0.00000000000E+00  0.00000000000E+00 -0.25944131401E+03  0.28798952800E+03  0.12501269065E+03 0.  0.
    9000005    1    3    3    0    0  0.26175602989E+02  0.47886956810E+02 -0.59553942361E+02  0.80783629995E+02  0.10000000000E+01 0.  0.
    9000005    1    3    3    0    0 -0.26175602989E+02 -0.47886956810E+02 -0.19988737165E+03  0.20720589801E+03  0.10000000000E+01 0.  0.
<mgrwt>
<rscale>  0 0.12501269E+03</rscale>
<asrwt>0</asrwt>
<pdfrwt beam="2">  1        4 0.42110061E-01 0.12501269E+03</pdfrwt>
<pdfrwt beam="1">  1       -4 0.21960167E-02 0.12501269E+03</pdfrwt>
<totfact> 0.77108799E+03</totfact>
</mgrwt>
</event>
<event>
 5    1  0.3188180E-002  0.1250008E+03  0.7818608E-02  0.1235068E+00
          4   -1    0    0  501    0  0.00000000000E+00  0.00000000000E+00  0.28852297054E+02  0.28880234509E+02  0.12700000000E+01 0. -1.
         -4   -1    0    0    0  501 -0.00000000000E+00 -0.00000000000E+00 -0.13529309706E+03  0.13529905769E+03  0.12700000000E+01 0. -1.
         25    2    1    2    0    0  0.00000000000E+00  0.00000000000E+00 -0.10644080001E+03  0.16417929220E+03  0.12500078432E+03 0.  0.
    9000005    1    3    3    0    0  0.26157152594E+02 -0.56032305541E+02 -0.65076435131E+02  0.89776156665E+02  0.10000000000E+01 0.  0.
    9000005    1    3    3    0    0 -0.26157152594E+02  0.56032305541E+02 -0.41364364875E+02  0.74403135536E+02  0.10000000000E+01 0.  0.
<mgrwt>
<rscale>  0 0.12500078E+03</rscale>
<asrwt>0</asrwt>
<pdfrwt beam="1">  1        4 0.44414225E-02 0.12500078E+03</pdfrwt>
<pdfrwt beam="2">  1       -4 0.20816930E-01 0.12500078E+03</pdfrwt>
<totfact> 0.96541346E+03</totfact>
</mgrwt>
</event>
<event>
 5    1  0.3188180E-002  0.1250000E+03  0.7818608E-02  0.1235069E+00
         -4   -1    0    0    0  501 -0.00000000000E+00  0.00000000000E+00  0.11047174334E+03  0.11047904316E+03  0.12700000000E+01 0.  1.
          4   -1    0    0  501    0  0.00000000000E+00 -0.00000000000E+00 -0.35339822913E+02  0.35362635415E+02  0.12700000000E+01 0.  1.
         25    2    1    2    0    0  0.00000000000E+00  0.00000000000E+00  0.75131920429E+02  0.14584167857E+03  0.12499995897E+03 0.  0.
    9000005    1    3    3    0    0  0.61682240659E+02  0.99487348395E+01  0.36103442848E+02  0.72167407624E+02  0.10000000000E+01 0.  0.
    9000005    1    3    3    0    0 -0.61682240659E+02 -0.99487348395E+01  0.39028477581E+02  0.73674270950E+02  0.10000000000E+01 0.  0.
<mgrwt>
<rscale>  0 0.12499996E+03</rscale>
<asrwt>0</asrwt>
<pdfrwt beam="2">  1        4 0.54392122E-02 0.12499996E+03</pdfrwt>
<pdfrwt beam="1">  1       -4 0.16997969E-01 0.12499996E+03</pdfrwt>
<totfact> 0.10013925E+04</totfact>
</mgrwt>
</event>
<event>
 5    1  0.3188180E-002  0.1249932E+03  0.7818608E-02  0.1235080E+00
          4   -1    0    0  501    0  0.00000000000E+00  0.00000000000E+00  0.15326252378E+03  0.15326778557E+03  0.12700000000E+01 0. -1.
         -4   -1    0    0    0  501 -0.00000000000E+00 -0.00000000000E+00 -0.25463016427E+02  0.25494668180E+02  0.12700000000E+01 0. -1.
         25    2    1    2    0    0  0.00000000000E+00  0.00000000000E+00  0.12779950735E+03  0.17876245375E+03  0.12499320299E+03 0.  0.
    9000005    1    3    3    0    0  0.38799767959E+02 -0.43726075091E+02  0.95475063779E+02  0.11195480981E+03  0.10000000000E+01 0.  0.
    9000005    1    3    3    0    0 -0.38799767959E+02  0.43726075091E+02  0.32324443570E+02  0.66807643939E+02  0.10000000000E+01 0.  0.
<mgrwt>
<rscale>  0 0.12499320E+03</rscale>
<asrwt>0</asrwt>
<pdfrwt beam="1">  1        4 0.23581690E-01 0.12499320E+03</pdfrwt>
<pdfrwt beam="2">  1       -4 0.39202266E-02 0.12499320E+03</pdfrwt>
<totfact> 0.93854545E+03</totfact>
</mgrwt>
</event>
<event>
 5    1  0.3188180E-002  0.1249999E+03  0.7818608E-02  0.1235069E+00
          4   -1    0    0  501    0  0.00000000000E+00  0.00000000000E+00  0.39141803653E+02  0.39162401526E+02  0.12700000000E+01 0.  1.
         -4   -1    0    0    0  501 -0.00000000000E+00 -0.00000000000E+00 -0.99746327116E+02  0.99754411798E+02  0.12700000000E+01 0.  1.
         25    2    1    2    0    0  0.00000000000E+00  0.00000000000E+00 -0.60604523463E+02  0.13891681332E+03  0.12499989104E+03 0.  0.
    9000005    1    3    3    0    0 -0.32514485430E+02  0.52967125206E+02 -0.37550271621E+02  0.72620458648E+02  0.10000000000E+01 0.  0.
    9000005    1    3    3    0    0  0.32514485430E+02 -0.52967125206E+02 -0.23054251841E+02  0.66296354676E+02  0.10000000000E+01 0.  0.
<mgrwt>
<rscale>  0 0.12499989E+03</rscale>
<asrwt>0</asrwt>
<pdfrwt beam="1">  1        4 0.60240223E-02 0.12499989E+03</pdfrwt>
<pdfrwt beam="2">  1       -4 0.15347795E-01 0.12499989E+03</pdfrwt>
<totfact> 0.10156110E+04</totfact>
</mgrwt>
</event>
<event>
 5    1  0.3188180E-002  0.1249978E+03  0.7818608E-02  0.1235073E+00
         -4   -1    0    0    0  501 -0.00000000000E+00  0.00000000000E+00  0.19630878284E+03  0.19631289086E+03  0.12700000000E+01 0. -1.
          4   -1    0    0  501    0  0.00000000000E+00 -0.00000000000E+00 -0.19873204497E+02  0.19913742917E+02  0.12700000000E+01 0. -1.
         25    2    1    2    0    0  0.00000000000E+00  0.00000000000E+00  0.17643557834E+03  0.21622663378E+03  0.12499777539E+03 0.  0.
    9000005    1    3    3    0    0 -0.35917823685E+02  0.51044950935E+02  0.93530941642E+02  0.11244871773E+03  0.10000000000E+01 0.  0.
    9000005    1    3    3    0    0  0.35917823685E+02 -0.51044950935E+02  0.82904636700E+02  0.10377791605E+03  0.10000000000E+01 0.  0.
<mgrwt>
<rscale>  0 0.12499778E+03</rscale>
<asrwt>0</asrwt>
<pdfrwt beam="2">  1        4 0.30608504E-02 0.12499778E+03</pdfrwt>
<pdfrwt beam="1">  1       -4 0.30204785E-01 0.12499778E+03</pdfrwt>
<totfact> 0.87473327E+03</totfact>
</mgrwt>
</event>
<event>
 5    1  0.3188180E-002  0.1249852E+03  0.7818608E-02  0.1235092E+00
         -4   -1    0    0    0  501 -0.00000000000E+00  0.00000000000E+00  0.29668636908E+03  0.29668908726E+03  0.12700000000E+01 0.  1.
          4   -1    0    0  501    0  0.00000000000E+00 -0.00000000000E+00 -0.13129733960E+02  0.13191012617E+02  0.12700000000E+01 0.  1.
         25    2    1    2    0    0  0.00000000000E+00  0.00000000000E+00  0.28355663512E+03  0.30988009988E+03  0.12498524304E+03 0.  0.
    9000005    1    3    3    0    0  0.59095872787E+02 -0.11223124601E+02  0.99845535591E+02  0.11656934281E+03  0.10000000000E+01 0.  0.
    9000005    1    3    3    0    0 -0.59095872787E+02  0.11223124601E+02  0.18371109953E+03  0.19331075707E+03  0.10000000000E+01 0.  0.
<mgrwt>
<rscale>  0 0.12498524E+03</rscale>
<asrwt>0</asrwt>
<pdfrwt beam="2">  1        4 0.20248822E-02 0.12498524E+03</pdfrwt>
<pdfrwt beam="1">  1       -4 0.45648973E-01 0.12498524E+03</pdfrwt>
<totfact> 0.74400337E+03</totfact>
</mgrwt>
</event>
<event>
 5    1  0.3188180E-002  0.1249986E+03  0.7818608E-02  0.1235072E+00
         -4   -1    0    0    0  501 -0.00000000000E+00  0.00000000000E+00  0.56034114918E+01  0.57455304670E+01  0.12700000000E+01 0.  1.
          4   -1    0    0  501    0  0.00000000000E+00 -0.00000000000E+00 -0.68823169051E+03  0.68823286228E+03  0.12700000000E+01 0.  1.
         25    2    1    2    0    0  0.00000000000E+00  0.00000000000E+00 -0.68262827902E+03  0.69397839275E+03  0.12499856913E+03 0.  0.
    9000005    1    3    3    0    0  0.38372562474E+02 -0.46978221448E+02 -0.25789640820E+03  0.26493577373E+03  0.10000000000E+01 0.  0.
    9000005    1    3    3    0    0 -0.38372562474E+02  0.46978221448E+02 -0.42473187083E+03  0.42904261902E+03  0.10000000000E+01 0.  0.
<mgrwt>
<rscale>  0 0.12499857E+03</rscale>
<asrwt>0</asrwt>
<pdfrwt beam="2">  1        4 0.10589275E+00 0.12499857E+03</pdfrwt>
<pdfrwt beam="1">  1       -4 0.87308622E-03 0.12499857E+03</pdfrwt>
<totfact> 0.43407853E+03</totfact>
</mgrwt>
</event>
<event>
 4    1  0.3188180E-002  0.1253237E+03  0.7818608E-02  0.1234564E+00
         -4   -1    0    0    0  501 -0.00000000000E+00  0.00000000000E+00  0.11257342529E+02  0.11328753719E+02  0.12700000000E+01 0. -1.
          4   -1    0    0  501    0  0.00000000000E+00 -0.00000000000E+00 -0.34761958780E+03  0.34762190771E+03  0.12700000000E+01 0. -1.
    9000005    1    1    2    0    0 -0.40143401011E+02  0.41182656090E+02 -0.23938377003E+03  0.24619726473E+03  0.10000000000E+01 0.  0.
    9000005    1    1    2    0    0  0.40143401011E+02 -0.41182656090E+02 -0.96978475238E+02  0.11275339670E+03  0.10000000000E+01 0.  0.
<mgrwt>
<rscale>  0 0.12532365E+03</rscale>
<asrwt>0</asrwt>
<pdfrwt beam="2">  1        4 0.53485600E-01 0.12532365E+03</pdfrwt>
<pdfrwt beam="1">  1       -4 0.17375707E-02 0.12532365E+03</pdfrwt>
<totfact> 0.68261089E+03</totfact>
</mgrwt>
</event>
<event>
 5    1  0.3188180E-002  0.1250008E+03  0.7818608E-02  0.1235068E+00
          4   -1    0    0  501    0  0.00000000000E+00  0.00000000000E+00  0.20031422538E+02  0.20071641411E+02  0.12700000000E+01 0.  1.
         -4   -1    0    0    0  501 -0.00000000000E+00 -0.00000000000E+00 -0.19477086777E+03  0.19477500823E+03  0.12700000000E+01 0.  1.
         25    2    1    2    0    0  0.00000000000E+00  0.00000000000E+00 -0.17473944523E+03  0.21484664964E+03  0.12500083657E+03 0.  0.
    9000005    1    3    3    0    0  0.59819740694E+02  0.18065616635E+02 -0.86113256542E+02  0.10640141368E+03  0.10000000000E+01 0.  0.
    9000005    1    3    3    0    0 -0.59819740694E+02 -0.18065616635E+02 -0.88626188690E+02  0.10844523596E+03  0.10000000000E+01 0.  0.
<mgrwt>
<rscale>  0 0.12500084E+03</rscale>
<asrwt>0</asrwt>
<pdfrwt beam="1">  1        4 0.30851697E-02 0.12500084E+03</pdfrwt>
<pdfrwt beam="2">  1       -4 0.29968160E-01 0.12500084E+03</pdfrwt>
<totfact> 0.87688787E+03</totfact>
</mgrwt>
</event>
<event>
 5    1  0.3188180E-002  0.1250004E+03  0.7818608E-02  0.1235069E+00
         -4   -1    0    0    0  501 -0.00000000000E+00  0.00000000000E+00  0.40442088448E+02  0.40462024394E+02  0.12700000000E+01 0.  1.
          4   -1    0    0  501    0  0.00000000000E+00 -0.00000000000E+00 -0.96541429400E+02  0.96549782447E+02  0.12700000000E+01 0.  1.
         25    2    1    2    0    0  0.00000000000E+00  0.00000000000E+00 -0.56099340951E+02  0.13701180684E+03  0.12500039663E+03 0.  0.
    9000005    1    3    3    0    0 -0.19840194381E+02  0.37183793086E+02 -0.78624583910E+02  0.89213748808E+02  0.10000000000E+01 0.  0.
    9000005    1    3    3    0    0  0.19840194381E+02 -0.37183793086E+02  0.22525242959E+02  0.47798058032E+02  0.10000000000E+01 0.  0.
<mgrwt>
<rscale>  0 0.12500040E+03</rscale>
<asrwt>0</asrwt>
<pdfrwt beam="2">  1        4 0.14854704E-01 0.12500040E+03</pdfrwt>
<pdfrwt beam="1">  1       -4 0.62240358E-02 0.12500040E+03</pdfrwt>
<totfact> 0.10195748E+04</totfact>
</mgrwt>
</event>
<event>
 5    1  0.3188180E-002  0.1250026E+03  0.7818608E-02  0.1235065E+00
         -4   -1    0    0    0  501 -0.00000000000E+00  0.00000000000E+00  0.22757074046E+03  0.22757428416E+03  0.12700000000E+01 0.  1.
          4   -1    0    0  501    0  0.00000000000E+00 -0.00000000000E+00 -0.17138546648E+02  0.17185536977E+02  0.12700000000E+01 0.  1.
         25    2    1    2    0    0  0.00000000000E+00  0.00000000000E+00  0.21043219381E+03  0.24475982114E+03  0.12500264738E+03 0.  0.
    9000005    1    3    3    0    0 -0.41028206109E+02 -0.19722878317E+00  0.12916652393E+02  0.43025486688E+02  0.10000000000E+01 0.  0.
    9000005    1    3    3    0    0  0.41028206109E+02  0.19722878317E+00  0.19751554142E+03  0.20173433445E+03  0.10000000000E+01 0.  0.
<mgrwt>
<rscale>  0 0.12500265E+03</rscale>
<asrwt>0</asrwt>
<pdfrwt beam="2">  1        4 0.26405867E-02 0.12500265E+03</pdfrwt>
<pdfrwt beam="1">  1       -4 0.35014771E-01 0.12500265E+03</pdfrwt>
<totfact> 0.83088641E+03</totfact>
</mgrwt>
</event>
<event>
 5    1  0.3188180E-002  0.1250000E+03  0.7818608E-02  0.1235069E+00
          4   -1    0    0  501    0  0.00000000000E+00  0.00000000000E+00  0.12564473774E+02  0.12628495604E+02  0.12700000000E+01 0.  1.
         -4   -1    0    0    0  501 -0.00000000000E+00 -0.00000000000E+00 -0.31004084171E+03  0.31004344280E+03  0.12700000000E+01 0.  1.
         25    2    1    2    0    0  0.00000000000E+00  0.00000000000E+00 -0.29747636793E+03  0.32267193841E+03  0.12499996143E+03 0.  0.
    9000005    1    3    3    0    0  0.58365751190E+02 -0.22322020908E+02 -0.14707713307E+03  0.15980462009E+03  0.10000000000E+01 0.  0.
    9000005    1    3    3    0    0 -0.58365751190E+02  0.22322020908E+02 -0.15039923486E+03  0.16286731832E+03  0.10000000000E+01 0.  0.
<mgrwt>
<rscale>  0 0.12499996E+03</rscale>
<asrwt>0</asrwt>
<pdfrwt beam="1">  1        4 0.19381210E-02 0.12499996E+03</pdfrwt>
<pdfrwt beam="2">  1       -4 0.47703710E-01 0.12499996E+03</pdfrwt>
<totfact> 0.72839521E+03</totfact>
</mgrwt>
</event>
<event>
 5    1  0.3188180E-002  0.1249969E+03  0.7818608E-02  0.1235074E+00
         -4   -1    0    0    0  501 -0.00000000000E+00  0.00000000000E+00  0.29480780503E+02  0.29508122933E+02  0.12700000000E+01 0.  1.
          4   -1    0    0  501    0  0.00000000000E+00 -0.00000000000E+00 -0.13240314074E+03  0.13240923147E+03  0.12700000000E+01 0.  1.
         25    2    1    2    0    0  0.00000000000E+00  0.00000000000E+00 -0.10292236024E+03  0.16191735440E+03  0.12499686964E+03 0.  0.
    9000005    1    3    3    0    0 -0.34712856232E+02 -0.49844217960E+02 -0.70482678640E+02  0.93049645030E+02  0.10000000000E+01 0.  0.
    9000005    1    3    3    0    0  0.34712856232E+02  0.49844217960E+02 -0.32439681595E+02  0.68867709370E+02  0.10000000000E+01 0.  0.
<mgrwt>
<rscale>  0 0.12499687E+03</rscale>
<asrwt>0</asrwt>
<pdfrwt beam="2">  1        4 0.20372285E-01 0.12499687E+03</pdfrwt>
<pdfrwt beam="1">  1       -4 0.45380765E-02 0.12499687E+03</pdfrwt>
<totfact> 0.96981225E+03</totfact>
</mgrwt>
</event>
<event>
 5    1  0.3188180E-002  0.1250009E+03  0.7818608E-02  0.1235068E+00
         -4   -1    0    0    0  501 -0.00000000000E+00  0.00000000000E+00  0.26125596422E+02  0.26156446402E+02  0.12700000000E+01 0.  1.
          4   -1    0    0  501    0  0.00000000000E+00 -0.00000000000E+00 -0.14939851232E+03  0.14940391020E+03  0.12700000000E+01 0.  1.
         25    2    1    2    0    0  0.00000000000E+00  0.00000000000E+00 -0.12327291589E+03  0.17556035660E+03  0.12500090806E+03 0.  0.
    9000005    1    3    3    0    0  0.60228376111E+00  0.34666524096E+02 -0.13465790871E+03  0.13905352573E+03  0.10000000000E+01 0.  0.
    9000005    1    3    3    0    0 -0.60228376111E+00 -0.34666524096E+02  0.11384992820E+02  0.36506830870E+02  0.10000000000E+01 0.  0.
<mgrwt>
<rscale>  0 0.12500091E+03</rscale>
<asrwt>0</asrwt>
<pdfrwt beam="2">  1        4 0.22987174E-01 0.12500091E+03</pdfrwt>
<pdfrwt beam="1">  1       -4 0.40221109E-02 0.12500091E+03</pdfrwt>
<totfact> 0.94420390E+03</totfact>
</mgrwt>
</event>
<event>
 5    1  0.3188180E-002  0.1250025E+03  0.7818608E-02  0.1235065E+00
          4   -1    0    0  501    0  0.00000000000E+00  0.00000000000E+00  0.19971677926E+02  0.20012016869E+02  0.12700000000E+01 0. -1.
         -4   -1    0    0    0  501 -0.00000000000E+00 -0.00000000000E+00 -0.19535749005E+03  0.19536161808E+03  0.12700000000E+01 0. -1.
         25    2    1    2    0    0  0.00000000000E+00  0.00000000000E+00 -0.17538581212E+03  0.21537363495E+03  0.12500247812E+03 0.  0.
    9000005    1    3    3    0    0  0.25465752927E+02 -0.22966104101E+02  0.23215274783E+01  0.34385113052E+02  0.10000000000E+01 0.  0.
    9000005    1    3    3    0    0 -0.25465752927E+02  0.22966104101E+02 -0.17770733960E+03  0.18098852189E+03  0.10000000000E+01 0.  0.
<mgrwt>
<rscale>  0 0.12500248E+03</rscale>
<asrwt>0</asrwt>
<pdfrwt beam="1">  1        4 0.30759865E-02 0.12500248E+03</pdfrwt>
<pdfrwt beam="2">  1       -4 0.30058418E-01 0.12500248E+03</pdfrwt>
<totfact> 0.87600896E+03</totfact>
</mgrwt>
</event>
<event>
 5    1  0.3188180E-002  0.1250021E+03  0.7818608E-02  0.1235066E+00
         -4   -1    0    0    0  501 -0.00000000000E+00  0.00000000000E+00  0.73624514233E+01  0.74711840400E+01  0.12700000000E+01 0. -1.
          4   -1    0    0  501    0  0.00000000000E+00 -0.00000000000E+00 -0.52658259526E+03  0.52658412674E+03  0.12700000000E+01 0. -1.
         25    2    1    2    0    0  0.00000000000E+00  0.00000000000E+00 -0.51922014384E+03  0.53405531078E+03  0.12500206879E+03 0.  0.
    9000005    1    3    3    0    0  0.58415228978E+02 -0.21917088030E+02 -0.27482450097E+03  0.28181945294E+03  0.10000000000E+01 0.  0.
    9000005    1    3    3    0    0 -0.58415228978E+02  0.21917088030E+02 -0.24439564287E+03  0.25223585783E+03  0.10000000000E+01 0.  0.
<mgrwt>
<rscale>  0 0.12500207E+03</rscale>
<asrwt>0</asrwt>
<pdfrwt beam="2">  1        4 0.81021159E-01 0.12500207E+03</pdfrwt>
<pdfrwt beam="1">  1       -4 0.11411671E-02 0.12500207E+03</pdfrwt>
<totfact> 0.53313222E+03</totfact>
</mgrwt>
</event>
<event>
 5    1  0.3188180E-002  0.1249997E+03  0.7818608E-02  0.1235070E+00
         -4   -1    0    0    0  501 -0.00000000000E+00  0.00000000000E+00  0.86526060186E+01  0.87453125109E+01  0.12700000000E+01 0. -1.
          4   -1    0    0  501    0  0.00000000000E+00 -0.00000000000E+00 -0.44895213396E+03  0.44895393025E+03  0.12700000000E+01 0. -1.
         25    2    1    2    0    0  0.00000000000E+00  0.00000000000E+00 -0.44029952794E+03  0.45769924276E+03  0.12499969007E+03 0.  0.
    9000005    1    3    3    0    0  0.62109216681E+02 -0.54154883338E+01 -0.20446531015E+03  0.21376142160E+03  0.10000000000E+01 0.  0.
    9000005    1    3    3    0    0 -0.62109216681E+02  0.54154883338E+01 -0.23583421780E+03  0.24393782116E+03  0.10000000000E+01 0.  0.
<mgrwt>
<rscale>  0 0.12499969E+03</rscale>
<asrwt>0</asrwt>
<pdfrwt beam="2">  1        4 0.69076810E-01 0.12499969E+03</pdfrwt>
<pdfrwt beam="1">  1       -4 0.13384400E-02 0.12499969E+03</pdfrwt>
<totfact> 0.59302978E+03</totfact>
</mgrwt>
</event>
<event>
 5    1  0.3188180E-002  0.1249996E+03  0.7818608E-02  0.1235070E+00
         -4   -1    0    0    0  501 -0.00000000000E+00  0.00000000000E+00  0.16811100825E+01  0.21069008305E+01  0.12700000000E+01 0.  1.
          4   -1    0    0  501    0  0.00000000000E+00 -0.00000000000E+00 -0.20619895867E+04  0.20619899778E+04  0.12700000000E+01 0.  1.
         25    2    1    2    0    0  0.00000000000E+00  0.00000000000E+00 -0.20603084766E+04  0.20640968786E+04  0.12499962225E+03 0.  0.
    9000005    1    3    3    0    0  0.14291324610E+02 -0.44144084485E+02 -0.17213859491E+04  0.17220114773E+04  0.10000000000E+01 0.  0.
    9000005    1    3    3    0    0 -0.14291324610E+02  0.44144084485E+02 -0.33892252746E+03  0.34208540129E+03  0.10000000000E+01 0.  0.
<mgrwt>
<rscale>  0 0.12499962E+03</rscale>
<asrwt>0</asrwt>
<pdfrwt beam="2">  1        4 0.31726015E+00 0.12499962E+03</pdfrwt>
<pdfrwt beam="1">  1       -4 0.29141719E-03 0.12499962E+03</pdfrwt>
<totfact> 0.90479158E+02</totfact>
</mgrwt>
</event>
<event>
 5    1  0.3188180E-002  0.1249940E+03  0.7818608E-02  0.1235079E+00
          4   -1    0    0  501    0  0.00000000000E+00  0.00000000000E+00  0.25300235291E+03  0.25300554041E+03  0.12700000000E+01 0.  1.
         -4   -1    0    0    0  501 -0.00000000000E+00 -0.00000000000E+00 -0.15408695783E+02  0.15460944530E+02  0.12700000000E+01 0.  1.
         25    2    1    2    0    0  0.00000000000E+00  0.00000000000E+00  0.23759365713E+03  0.26846648494E+03  0.12499403037E+03 0.  0.
    9000005    1    3    3    0    0 -0.56119130623E+02  0.26830410939E+01  0.17755183527E+03  0.18623160242E+03  0.10000000000E+01 0.  0.
    9000005    1    3    3    0    0  0.56119130623E+02 -0.26830410939E+01  0.60041821856E+02  0.82234882521E+02  0.10000000000E+01 0.  0.
<mgrwt>
<rscale>  0 0.12499403E+03</rscale>
<asrwt>0</asrwt>
<pdfrwt beam="1">  1        4 0.38927699E-01 0.12499403E+03</pdfrwt>
<pdfrwt beam="2">  1       -4 0.23748331E-02 0.12499403E+03</pdfrwt>
<totfact> 0.79742990E+03</totfact>
</mgrwt>
</event>
<event>
 5    1  0.3188180E-002  0.1250040E+03  0.7818608E-02  0.1235063E+00
          4   -1    0    0  501    0  0.00000000000E+00  0.00000000000E+00  0.10514150940E+02  0.10590574583E+02  0.12700000000E+01 0. -1.
         -4   -1    0    0    0  501 -0.00000000000E+00 -0.00000000000E+00 -0.37012381932E+03  0.37012599818E+03  0.12700000000E+01 0. -1.
         25    2    1    2    0    0  0.00000000000E+00  0.00000000000E+00 -0.35960966838E+03  0.38071657276E+03  0.12500398067E+03 0.  0.
    9000005    1    3    3    0    0 -0.28744665822E+02 -0.43958817522E+02 -0.28294650303E+03  0.28778178717E+03  0.10000000000E+01 0.  0.
    9000005    1    3    3    0    0  0.28744665822E+02  0.43958817522E+02 -0.76663165353E+02  0.92934785593E+02  0.10000000000E+01 0.  0.
<mgrwt>
<rscale>  0 0.12500398E+03</rscale>
<asrwt>0</asrwt>
<pdfrwt beam="1">  1        4 0.16236083E-02 0.12500398E+03</pdfrwt>
<pdfrwt beam="2">  1       -4 0.56948162E-01 0.12500398E+03</pdfrwt>
<totfact> 0.66466646E+03</totfact>
</mgrwt>
</event>
<event>
 5    1  0.3188180E-002  0.1250013E+03  0.7818608E-02  0.1235067E+00
         -4   -1    0    0    0  501 -0.00000000000E+00  0.00000000000E+00  0.26189855974E+03  0.26190163897E+03  0.12700000000E+01 0.  1.
          4   -1    0    0  501    0  0.00000000000E+00 -0.00000000000E+00 -0.14885222493E+02  0.14939302148E+02  0.12700000000E+01 0.  1.
         25    2    1    2    0    0  0.00000000000E+00  0.00000000000E+00  0.24701333725E+03  0.27684094112E+03  0.12500127159E+03 0.  0.
    9000005    1    3    3    0    0 -0.17566707378E+02 -0.35137809064E+02  0.23114394366E+03  0.23446060975E+03  0.10000000000E+01 0.  0.
    9000005    1    3    3    0    0  0.17566707378E+02  0.35137809064E+02  0.15869393591E+02  0.42380331368E+02  0.10000000000E+01 0.  0.
<mgrwt>
<rscale>  0 0.12500127E+03</rscale>
<asrwt>0</asrwt>
<pdfrwt beam="2">  1        4 0.22944312E-02 0.12500127E+03</pdfrwt>
<pdfrwt beam="1">  1       -4 0.40296480E-01 0.12500127E+03</pdfrwt>
<totfact> 0.78596625E+03</totfact>
</mgrwt>
</event>
<event>
 5    1  0.3188180E-002  0.1249926E+03  0.7818608E-02  0.1235081E+00
          4   -1    0    0  501    0  0.00000000000E+00  0.00000000000E+00  0.21721655985E+01  0.25161882654E+01  0.12700000000E+01 0. -1.
         -4   -1    0    0    0  501 -0.00000000000E+00 -0.00000000000E+00 -0.16658227890E+04  0.16658232731E+04  0.12700000000E+01 0. -1.
         25    2    1    2    0    0  0.00000000000E+00  0.00000000000E+00 -0.16636506234E+04  0.16683394614E+04  0.12499264640E+03 0.  0.
    9000005    1    3    3    0    0  0.55049784939E+00  0.21145552942E+02 -0.16166484857E+04  0.16167871733E+04  0.10000000000E+01 0.  0.
    9000005    1    3    3    0    0 -0.55049784939E+00 -0.21145552942E+02 -0.47002137714E+02  0.51552288085E+02  0.10000000000E+01 0.  0.
<mgrwt>
<rscale>  0 0.12499265E+03</rscale>
<asrwt>0</asrwt>
<pdfrwt beam="1">  1        4 0.36068118E-03 0.12499265E+03</pdfrwt>
<pdfrwt beam="2">  1       -4 0.25630598E+00 0.12499265E+03</pdfrwt>
<totfact> 0.14845530E+03</totfact>
</mgrwt>
</event>
<event>
 5    1  0.3188180E-002  0.1250090E+03  0.7818608E-02  0.1235055E+00
         -4   -1    0    0    0  501 -0.00000000000E+00  0.00000000000E+00  0.11022038221E+04  0.11022045538E+04  0.12700000000E+01 0. -1.
          4   -1    0    0  501    0  0.00000000000E+00 -0.00000000000E+00 -0.34300291813E+01  0.36575948634E+01  0.12700000000E+01 0. -1.
         25    2    1    2    0    0  0.00000000000E+00  0.00000000000E+00  0.10987737929E+04  0.11058621487E+04  0.12500897478E+03 0.  0.
    9000005    1    3    3    0    0 -0.58185426053E+02  0.14601542514E+02  0.70440160368E+03  0.70695216820E+03  0.10000000000E+01 0.  0.
    9000005    1    3    3    0    0  0.58185426053E+02 -0.14601542514E+02  0.39437218926E+03  0.39890998046E+03  0.10000000000E+01 0.  0.
<mgrwt>
<rscale>  0 0.12500897E+03</rscale>
<asrwt>0</asrwt>
<pdfrwt beam="2">  1        4 0.54525848E-03 0.12500897E+03</pdfrwt>
<pdfrwt beam="1">  1       -4 0.16958727E+00 0.12500897E+03</pdfrwt>
<totfact> 0.27307129E+03</totfact>
</mgrwt>
</event>
<event>
 5    1  0.3188180E-002  0.1249985E+03  0.7818608E-02  0.1235072E+00
         -4   -1    0    0    0  501 -0.00000000000E+00  0.00000000000E+00  0.92244554548E+01  0.93114702618E+01  0.12700000000E+01 0.  1.
          4   -1    0    0  501    0  0.00000000000E+00 -0.00000000000E+00 -0.42138090310E+03  0.42138281692E+03  0.12700000000E+01 0.  1.
         25    2    1    2    0    0  0.00000000000E+00  0.00000000000E+00 -0.41215644764E+03  0.43069428718E+03  0.12499852670E+03 0.  0.
    9000005    1    3    3    0    0  0.45378158171E+02  0.27687317956E+02 -0.31928020738E+03  0.32367671470E+03  0.10000000000E+01 0.  0.
    9000005    1    3    3    0    0 -0.45378158171E+02 -0.27687317956E+02 -0.92876240267E+02  0.10701757249E+03  0.10000000000E+01 0.  0.
<mgrwt>
<rscale>  0 0.12499853E+03</rscale>
<asrwt>0</asrwt>
<pdfrwt beam="2">  1        4 0.64834657E-01 0.12499853E+03</pdfrwt>
<pdfrwt beam="1">  1       -4 0.14259880E-02 0.12499853E+03</pdfrwt>
<totfact> 0.61675119E+03</totfact>
</mgrwt>
</event>
<event>
 5    1  0.3188180E-002  0.1250169E+03  0.7818608E-02  0.1235043E+00
          4   -1    0    0  501    0  0.00000000000E+00  0.00000000000E+00  0.40426572169E+02  0.40446515763E+02  0.12700000000E+01 0. -1.
         -4   -1    0    0    0  501 -0.00000000000E+00 -0.00000000000E+00 -0.96604036436E+02  0.96612384070E+02  0.12700000000E+01 0. -1.
         25    2    1    2    0    0  0.00000000000E+00  0.00000000000E+00 -0.56177464266E+02  0.13705889983E+03  0.12501693698E+03 0.  0.
    9000005    1    3    3    0    0 -0.22263397731E+02  0.56961115173E+02 -0.13960152290E+02  0.62738452103E+02  0.10000000000E+01 0.  0.
    9000005    1    3    3    0    0  0.22263397731E+02 -0.56961115173E+02 -0.42217311977E+02  0.74320447730E+02  0.10000000000E+01 0.  0.
<mgrwt>
<rscale>  0 0.12501694E+03</rscale>
<asrwt>0</asrwt>
<pdfrwt beam="1">  1        4 0.62216489E-02 0.12501694E+03</pdfrwt>
<pdfrwt beam="2">  1       -4 0.14864336E-01 0.12501694E+03</pdfrwt>
<totfact> 0.10190962E+04</totfact>
</mgrwt>
</event>
<event>
 5    1  0.3188180E-002  0.1249944E+03  0.7818608E-02  0.1235078E+00
         -4   -1    0    0    0  501 -0.00000000000E+00  0.00000000000E+00  0.79879421804E+03  0.79879522763E+03  0.12700000000E+01 0. -1.
          4   -1    0    0  501    0  0.00000000000E+00 -0.00000000000E+00 -0.48062498710E+01  0.49712109010E+01  0.12700000000E+01 0. -1.
         25    2    1    2    0    0  0.00000000000E+00  0.00000000000E+00  0.79398796817E+03  0.80376643853E+03  0.12499437628E+03 0.  0.
    9000005    1    3    3    0    0 -0.60280341633E+02 -0.96650066253E+01  0.48273022913E+03  0.48657641338E+03  0.10000000000E+01 0.  0.
    9000005    1    3    3    0    0  0.60280341633E+02  0.96650066253E+01  0.31125773904E+03  0.31719002515E+03  0.10000000000E+01 0.  0.
<mgrwt>
<rscale>  0 0.12499438E+03</rscale>
<asrwt>0</asrwt>
<pdfrwt beam="2">  1        4 0.75219003E-03 0.12499438E+03</pdfrwt>
<pdfrwt beam="1">  1       -4 0.12290418E+00 0.12499438E+03</pdfrwt>
<totfact> 0.38101813E+03</totfact>
</mgrwt>
</event>
<event>
 5    1  0.3188180E-002  0.1249945E+03  0.7818608E-02  0.1235078E+00
          4   -1    0    0  501    0  0.00000000000E+00  0.00000000000E+00  0.13737817114E+03  0.13738404131E+03  0.12700000000E+01 0.  1.
         -4   -1    0    0    0  501 -0.00000000000E+00 -0.00000000000E+00 -0.28411138643E+02  0.28439509472E+02  0.12700000000E+01 0.  1.
         25    2    1    2    0    0  0.00000000000E+00  0.00000000000E+00  0.10896703250E+03  0.16582355078E+03  0.12499454317E+03 0.  0.
    9000005    1    3    3    0    0 -0.29684328843E+02 -0.34934194295E+02  0.11082073034E+03  0.11993244592E+03  0.10000000000E+01 0.  0.
    9000005    1    3    3    0    0  0.29684328843E+02  0.34934194295E+02 -0.18536978434E+01  0.45891104863E+02  0.10000000000E+01 0.  0.
<mgrwt>
<rscale>  0 0.12499454E+03</rscale>
<asrwt>0</asrwt>
<pdfrwt beam="1">  1        4 0.21137738E-01 0.12499454E+03</pdfrwt>
<pdfrwt beam="2">  1       -4 0.43735783E-02 0.12499454E+03</pdfrwt>
<totfact> 0.96243448E+03</totfact>
</mgrwt>
</event>
<event>
 5    1  0.3188180E-002  0.1250017E+03  0.7818608E-02  0.1235067E+00
         -4   -1    0    0    0  501 -0.00000000000E+00  0.00000000000E+00  0.19488929149E+02  0.19530265215E+02  0.12700000000E+01 0.  1.
          4   -1    0    0  501    0  0.00000000000E+00 -0.00000000000E+00 -0.20018405402E+03  0.20018808253E+03  0.12700000000E+01 0.  1.
         25    2    1    2    0    0  0.00000000000E+00  0.00000000000E+00 -0.18069512487E+03  0.21971834774E+03  0.12500169671E+03 0.  0.
    9000005    1    3    3    0    0 -0.55282066155E+02 -0.29115972562E+02 -0.88188102370E+02  0.10808324614E+03  0.10000000000E+01 0.  0.
    9000005    1    3    3    0    0  0.55282066155E+02  0.29115972562E+02 -0.92507022504E+02  0.11163510160E+03  0.10000000000E+01 0.  0.
<mgrwt>
<rscale>  0 0.12500170E+03</rscale>
<asrwt>0</asrwt>
<pdfrwt beam="2">  1        4 0.30801035E-01 0.12500170E+03</pdfrwt>
<pdfrwt beam="1">  1       -4 0.30017865E-02 0.12500170E+03</pdfrwt>
<totfact> 0.86909644E+03</totfact>
</mgrwt>
</event>
<event>
 5    1  0.3188180E-002  0.1249985E+03  0.7818608E-02  0.1235072E+00
         -4   -1    0    0    0  501 -0.00000000000E+00  0.00000000000E+00  0.14345927841E+02  0.14402032691E+02  0.12700000000E+01 0.  1.
          4   -1    0    0  501    0  0.00000000000E+00 -0.00000000000E+00 -0.27169445429E+03  0.27169742250E+03  0.12700000000E+01 0.  1.
         25    2    1    2    0    0  0.00000000000E+00  0.00000000000E+00 -0.25734852645E+03  0.28609945519E+03  0.12499853677E+03 0.  0.
    9000005    1    3    3    0    0  0.25353216065E+02  0.24368471483E+02 -0.10438238093E+02  0.36695568966E+02  0.10000000000E+01 0.  0.
    9000005    1    3    3    0    0 -0.25353216065E+02 -0.24368471483E+02 -0.24691028835E+03  0.24940388622E+03  0.10000000000E+01 0.  0.
<mgrwt>
<rscale>  0 0.12499854E+03</rscale>
<asrwt>0</asrwt>
<pdfrwt beam="2">  1        4 0.41803687E-01 0.12499854E+03</pdfrwt>
<pdfrwt beam="1">  1       -4 0.22116101E-02 0.12499854E+03</pdfrwt>
<totfact> 0.77378769E+03</totfact>
</mgrwt>
</event>
<event>
 5    1  0.3188180E-002  0.1250020E+03  0.7818608E-02  0.1235066E+00
          4   -1    0    0  501    0  0.00000000000E+00  0.00000000000E+00  0.25633236234E+03  0.25633550843E+03  0.12700000000E+01 0.  1.
         -4   -1    0    0    0  501 -0.00000000000E+00 -0.00000000000E+00 -0.15209796467E+02  0.15262726118E+02  0.12700000000E+01 0.  1.
         25    2    1    2    0    0  0.00000000000E+00  0.00000000000E+00  0.24112256588E+03  0.27159823455E+03  0.12500203693E+03 0.  0.
    9000005    1    3    3    0    0  0.51417324925E+02  0.72148858398E+01  0.19612745240E+03  0.20288610959E+03  0.10000000000E+01 0.  0.
    9000005    1    3    3    0    0 -0.51417324925E+02 -0.72148858398E+01  0.44995113478E+02  0.68712124963E+02  0.10000000000E+01 0.  0.
<mgrwt>
<rscale>  0 0.12500204E+03</rscale>
<asrwt>0</asrwt>
<pdfrwt beam="1">  1        4 0.39440058E-01 0.12500204E+03</pdfrwt>
<pdfrwt beam="2">  1       -4 0.23442824E-02 0.12500204E+03</pdfrwt>
<totfact> 0.79301880E+03</totfact>
</mgrwt>
</event>
<event>
 5    1  0.3188180E-002  0.1249985E+03  0.7818608E-02  0.1235072E+00
         -4   -1    0    0    0  501 -0.00000000000E+00  0.00000000000E+00  0.63104964699E+03  0.63105092494E+03  0.12700000000E+01 0.  1.
          4   -1    0    0  501    0  0.00000000000E+00 -0.00000000000E+00 -0.61234971452E+01  0.62538082227E+01  0.12700000000E+01 0.  1.
         25    2    1    2    0    0  0.00000000000E+00  0.00000000000E+00  0.62492614985E+03  0.63730473317E+03  0.12499852059E+03 0.  0.
    9000005    1    3    3    0    0 -0.54079161651E+02  0.26493388626E+02  0.22734683160E+03  0.23518936456E+03  0.10000000000E+01 0.  0.
    9000005    1    3    3    0    0  0.54079161651E+02 -0.26493388626E+02  0.39757931825E+03  0.40211536860E+03  0.10000000000E+01 0.  0.
<mgrwt>
<rscale>  0 0.12499852E+03</rscale>
<asrwt>0</asrwt>
<pdfrwt beam="2">  1        4 0.95219899E-03 0.12499852E+03</pdfrwt>
<pdfrwt beam="1">  1       -4 0.97094655E-01 0.12499852E+03</pdfrwt>
<totfact> 0.46595933E+03</totfact>
</mgrwt>
</event>
<event>
 5    1  0.3188180E-002  0.1249999E+03  0.7818608E-02  0.1235069E+00
          4   -1    0    0  501    0  0.00000000000E+00  0.00000000000E+00  0.14269584651E+03  0.14270149793E+03  0.12700000000E+01 0. -1.
         -4   -1    0    0    0  501 -0.00000000000E+00 -0.00000000000E+00 -0.27353670107E+02  0.27383136568E+02  0.12700000000E+01 0. -1.
         25    2    1    2    0    0  0.00000000000E+00  0.00000000000E+00  0.11534217641E+03  0.17008463450E+03  0.12499986094E+03 0.  0.
    9000005    1    3    3    0    0  0.41179540104E+02  0.32182597596E+02  0.11053850552E+02  0.53429034460E+02  0.10000000000E+01 0.  0.
    9000005    1    3    3    0    0 -0.41179540104E+02 -0.32182597596E+02  0.10428832585E+03  0.11665560004E+03  0.10000000000E+01 0.  0.
<mgrwt>
<rscale>  0 0.12499986E+03</rscale>
<asrwt>0</asrwt>
<pdfrwt beam="1">  1        4 0.21955908E-01 0.12499986E+03</pdfrwt>
<pdfrwt beam="2">  1       -4 0.42109584E-02 0.12499986E+03</pdfrwt>
<totfact> 0.95433162E+03</totfact>
</mgrwt>
</event>
<event>
 5    1  0.3188180E-002  0.1250021E+03  0.7818608E-02  0.1235066E+00
         -4   -1    0    0    0  501 -0.00000000000E+00  0.00000000000E+00  0.16752590274E+03  0.16753071655E+03  0.12700000000E+01 0.  1.
          4   -1    0    0  501    0  0.00000000000E+00 -0.00000000000E+00 -0.23295636017E+02  0.23330228405E+02  0.12700000000E+01 0.  1.
         25    2    1    2    0    0  0.00000000000E+00  0.00000000000E+00  0.14423026672E+03  0.19086094496E+03  0.12500212187E+03 0.  0.
    9000005    1    3    3    0    0  0.46488838720E+02 -0.41469852503E+02  0.64569620774E+02  0.89728461031E+02  0.10000000000E+01 0.  0.
    9000005    1    3    3    0    0 -0.46488838720E+02  0.41469852503E+02  0.79660645946E+02  0.10113248392E+03  0.10000000000E+01 0.  0.
<mgrwt>
<rscale>  0 0.12500212E+03</rscale>
<asrwt>0</asrwt>
<pdfrwt beam="2">  1        4 0.35869753E-02 0.12500212E+03</pdfrwt>
<pdfrwt beam="1">  1       -4 0.25776247E-01 0.12500212E+03</pdfrwt>
<totfact> 0.91693370E+03</totfact>
</mgrwt>
</event>
<event>
 5    1  0.3188180E-002  0.1249932E+03  0.7818608E-02  0.1235080E+00
         -4   -1    0    0    0  501 -0.00000000000E+00  0.00000000000E+00  0.59584405628E+02  0.59597938673E+02  0.12700000000E+01 0. -1.
          4   -1    0    0  501    0  0.00000000000E+00 -0.00000000000E+00 -0.65523988596E+02  0.65536295147E+02  0.12700000000E+01 0. -1.
         25    2    1    2    0    0  0.00000000000E+00  0.00000000000E+00 -0.59395829679E+01  0.12513423382E+03  0.12499319113E+03 0.  0.
    9000005    1    3    3    0    0 -0.13989986384E+02  0.31301487069E+02 -0.55271652540E+02  0.65049660924E+02  0.10000000000E+01 0.  0.
    9000005    1    3    3    0    0  0.13989986384E+02 -0.31301487069E+02  0.49332069572E+02  0.60084572896E+02  0.10000000000E+01 0.  0.
<mgrwt>
<rscale>  0 0.12499319E+03</rscale>
<asrwt>0</asrwt>
<pdfrwt beam="2">  1        4 0.10082601E-01 0.12499319E+03</pdfrwt>
<pdfrwt beam="1">  1       -4 0.91688193E-02 0.12499319E+03</pdfrwt>
<totfact> 0.10451556E+04</totfact>
</mgrwt>
</event>
<event>
 5    1  0.3188180E-002  0.1250017E+03  0.7818608E-02  0.1235067E+00
          4   -1    0    0  501    0  0.00000000000E+00  0.00000000000E+00  0.95413594541E+03  0.95413679063E+03  0.12700000000E+01 0. -1.
         -4   -1    0    0    0  501 -0.00000000000E+00 -0.00000000000E+00 -0.39947708268E+01  0.41917888733E+01  0.12700000000E+01 0. -1.
         25    2    1    2    0    0  0.00000000000E+00  0.00000000000E+00  0.95014117459E+03  0.95832857950E+03  0.12500165857E+03 0.  0.
    9000005    1    3    3    0    0 -0.13525333196E+02  0.39961147969E+02  0.12161744881E+03  0.12873085039E+03  0.10000000000E+01 0.  0.
    9000005    1    3    3    0    0  0.13525333196E+02 -0.39961147969E+02  0.82852372577E+03  0.82959772912E+03  0.10000000000E+01 0.  0.
<mgrwt>
<rscale>  0 0.12500166E+03</rscale>
<asrwt>0</asrwt>
<pdfrwt beam="1">  1        4 0.14680548E+00 0.12500166E+03</pdfrwt>
<pdfrwt beam="2">  1       -4 0.62979989E-03 0.12500166E+03</pdfrwt>
<totfact> 0.32020920E+03</totfact>
</mgrwt>
</event>
<event>
 5    1  0.3188180E-002  0.1250054E+03  0.7818608E-02  0.1235061E+00
          4   -1    0    0  501    0  0.00000000000E+00  0.00000000000E+00  0.30971437499E+02  0.30997465070E+02  0.12700000000E+01 0. -1.
         -4   -1    0    0    0  501 -0.00000000000E+00 -0.00000000000E+00 -0.12605295178E+03  0.12605934933E+03  0.12700000000E+01 0. -1.
         25    2    1    2    0    0  0.00000000000E+00  0.00000000000E+00 -0.95081514283E+02  0.15705681440E+03  0.12500539424E+03 0.  0.
    9000005    1    3    3    0    0  0.41816051569E+02  0.12756292484E+02  0.85667938519E+01  0.44561139165E+02  0.10000000000E+01 0.  0.
    9000005    1    3    3    0    0 -0.41816051569E+02 -0.12756292484E+02 -0.10364830813E+03  0.11249567523E+03  0.10000000000E+01 0.  0.
<mgrwt>
<rscale>  0 0.12500539E+03</rscale>
<asrwt>0</asrwt>
<pdfrwt beam="1">  1        4 0.47673309E-02 0.12500539E+03</pdfrwt>
<pdfrwt beam="2">  1       -4 0.19395256E-01 0.12500539E+03</pdfrwt>
<totfact> 0.97901353E+03</totfact>
</mgrwt>
</event>
<event>
 5    1  0.3188180E-002  0.1250126E+03  0.7818608E-02  0.1235050E+00
          4   -1    0    0  501    0  0.00000000000E+00  0.00000000000E+00  0.91409620262E+02  0.91418442212E+02  0.12700000000E+01 0. -1.
         -4   -1    0    0    0  501 -0.00000000000E+00 -0.00000000000E+00 -0.42721788276E+02  0.42740660892E+02  0.12700000000E+01 0. -1.
         25    2    1    2    0    0  0.00000000000E+00  0.00000000000E+00  0.48687831986E+02  0.13415910310E+03  0.12501263921E+03 0.  0.
    9000005    1    3    3    0    0 -0.49868141717E+02 -0.37576720083E+02  0.27223226029E+02  0.68124485216E+02  0.10000000000E+01 0.  0.
    9000005    1    3    3    0    0  0.49868141717E+02  0.37576720083E+02  0.21464605958E+02  0.66034617887E+02  0.10000000000E+01 0.  0.
<mgrwt>
<rscale>  0 0.12501264E+03</rscale>
<asrwt>0</asrwt>
<pdfrwt beam="1">  1        4 0.14065149E-01 0.12501264E+03</pdfrwt>
<pdfrwt beam="2">  1       -4 0.65747133E-02 0.12501264E+03</pdfrwt>
<totfact> 0.10252902E+04</totfact>
</mgrwt>
</event>
<event>
 5    1  0.3188180E-002  0.1249997E+03  0.7818608E-02  0.1235070E+00
         -4   -1    0    0    0  501 -0.00000000000E+00  0.00000000000E+00  0.13514831656E+02  0.13574371982E+02  0.12700000000E+01 0. -1.
          4   -1    0    0  501    0  0.00000000000E+00 -0.00000000000E+00 -0.28833669056E+03  0.28833948745E+03  0.12700000000E+01 0. -1.
         25    2    1    2    0    0  0.00000000000E+00  0.00000000000E+00 -0.27482185890E+03  0.30191385943E+03  0.12499969754E+03 0.  0.
    9000005    1    3    3    0    0 -0.40028443012E+01  0.59232467800E+02 -0.90282963360E+02  0.10805795425E+03  0.10000000000E+01 0.  0.
    9000005    1    3    3    0    0  0.40028443012E+01 -0.59232467800E+02 -0.18453889554E+03  0.19385590517E+03  0.10000000000E+01 0.  0.
<mgrwt>
<rscale>  0 0.12499970E+03</rscale>
<asrwt>0</asrwt>
<pdfrwt beam="2">  1        4 0.44364281E-01 0.12499970E+03</pdfrwt>
<pdfrwt beam="1">  1       -4 0.20840003E-02 0.12499970E+03</pdfrwt>
<totfact> 0.75359901E+03</totfact>
</mgrwt>
</event>
<event>
 5    1  0.3188180E-002  0.1249998E+03  0.7818608E-02  0.1235070E+00
          4   -1    0    0  501    0  0.00000000000E+00  0.00000000000E+00  0.79315674291E+01  0.80325999453E+01  0.12700000000E+01 0.  1.
         -4   -1    0    0    0  501 -0.00000000000E+00 -0.00000000000E+00 -0.48927387061E+03  0.48927551887E+03  0.12700000000E+01 0.  1.
         25    2    1    2    0    0  0.00000000000E+00  0.00000000000E+00 -0.48134230318E+03  0.49730811881E+03  0.12499980882E+03 0.  0.
    9000005    1    3    3    0    0  0.21289755447E+02  0.13806561585E+02 -0.13467249811E+02  0.28744419411E+02  0.10000000000E+01 0.  0.
    9000005    1    3    3    0    0 -0.21289755447E+02 -0.13806561585E+02 -0.46787505337E+03  0.46856369940E+03  0.10000000000E+01 0.  0.
<mgrwt>
<rscale>  0 0.12499981E+03</rscale>
<asrwt>0</asrwt>
<pdfrwt beam="1">  1        4 0.12281400E-02 0.12499981E+03</pdfrwt>
<pdfrwt beam="2">  1       -4 0.75280778E-01 0.12499981E+03</pdfrwt>
<totfact> 0.56074076E+03</totfact>
</mgrwt>
</event>
<event>
 5    1  0.3188180E-002  0.1250060E+03  0.7818608E-02  0.1235060E+00
          4   -1    0    0  501    0  0.00000000000E+00  0.00000000000E+00  0.47206357427E+02  0.47223437841E+02  0.12700000000E+01 0.  1.
         -4   -1    0    0    0  501 -0.00000000000E+00 -0.00000000000E+00 -0.82719473092E+02  0.82729221733E+02  0.12700000000E+01 0.  1.
         25    2    1    2    0    0  0.00000000000E+00  0.00000000000E+00 -0.35513115664E+02  0.12995265957E+03  0.12500604924E+03 0.  0.
    9000005    1    3    3    0    0  0.13595907193E+02  0.21126626312E+01  0.45617346353E+02  0.47657678543E+02  0.10000000000E+01 0.  0.
    9000005    1    3    3    0    0 -0.13595907193E+02 -0.21126626312E+01 -0.81130462017E+02  0.82294981031E+02  0.10000000000E+01 0.  0.
<mgrwt>
<rscale>  0 0.12500605E+03</rscale>
<asrwt>0</asrwt>
<pdfrwt beam="1">  1        4 0.72645803E-02 0.12500605E+03</pdfrwt>
<pdfrwt beam="2">  1       -4 0.12728137E-01 0.12500605E+03</pdfrwt>
<totfact> 0.10344108E+04</totfact>
</mgrwt>
</event>
<event>
 5    1  0.3188180E-002  0.1249992E+03  0.7818608E-02  0.1235070E+00
          4   -1    0    0  501    0  0.00000000000E+00  0.00000000000E+00  0.15537432263E+04  0.15537437454E+04  0.12700000000E+01 0. -1.
         -4   -1    0    0    0  501 -0.00000000000E+00 -0.00000000000E+00 -0.23531185682E+01  0.26739609190E+01  0.12700000000E+01 0. -1.
         25    2    1    2    0    0  0.00000000000E+00  0.00000000000E+00  0.15513901078E+04  0.15564177063E+04  0.12499923991E+03 0.  0.
    9000005    1    3    3    0    0 -0.50938814136E+02  0.31751522474E+02  0.55921201390E+03  0.56242510475E+03  0.10000000000E+01 0.  0.
    9000005    1    3    3    0    0  0.50938814136E+02 -0.31751522474E+02  0.99217809386E+03  0.99399260153E+03  0.10000000000E+01 0.  0.
<mgrwt>
<rscale>  0 0.12499924E+03</rscale>
<asrwt>0</asrwt>
<pdfrwt beam="1">  1        4 0.23906212E+00 0.12499924E+03</pdfrwt>
<pdfrwt beam="2">  1       -4 0.38673838E-03 0.12499924E+03</pdfrwt>
<totfact> 0.16847971E+03</totfact>
</mgrwt>
</event>
<event>
 5    1  0.3188180E-002  0.1249884E+03  0.7818608E-02  0.1235087E+00
          4   -1    0    0  501    0  0.00000000000E+00  0.00000000000E+00  0.32190901700E+03  0.32191152220E+03  0.12700000000E+01 0.  1.
         -4   -1    0    0    0  501 -0.00000000000E+00 -0.00000000000E+00 -0.12096585851E+02  0.12163070716E+02  0.12700000000E+01 0.  1.
         25    2    1    2    0    0  0.00000000000E+00  0.00000000000E+00  0.30981243114E+03  0.33407459291E+03  0.12498836401E+03 0.  0.
    9000005    1    3    3    0    0  0.56691310467E+02 -0.25462754270E+02  0.17228305179E+03  0.18315214024E+03  0.10000000000E+01 0.  0.
    9000005    1    3    3    0    0 -0.56691310467E+02  0.25462754270E+02  0.13752937935E+03  0.15092245268E+03  0.10000000000E+01 0.  0.
<mgrwt>
<rscale>  0 0.12498836E+03</rscale>
<asrwt>0</asrwt>
<pdfrwt beam="1">  1        4 0.49529762E-01 0.12498836E+03</pdfrwt>
<pdfrwt beam="2">  1       -4 0.18663205E-02 0.12498836E+03</pdfrwt>
<totfact> 0.71531265E+03</totfact>
</mgrwt>
</event>
<event>
 5    1  0.3188180E-002  0.1249911E+03  0.7818608E-02  0.1235083E+00
         -4   -1    0    0    0  501 -0.00000000000E+00  0.00000000000E+00  0.14250729986E+02  0.14307208153E+02  0.12700000000E+01 0.  1.
          4   -1    0    0  501    0  0.00000000000E+00 -0.00000000000E+00 -0.27346958955E+03  0.27347253849E+03  0.12700000000E+01 0.  1.
         25    2    1    2    0    0  0.00000000000E+00  0.00000000000E+00 -0.25921885956E+03  0.28777974664E+03  0.12499106138E+03 0.  0.
    9000005    1    3    3    0    0  0.33616186971E+02 -0.40029040891E+02 -0.50777127238E+02  0.72881333629E+02  0.10000000000E+01 0.  0.
    9000005    1    3    3    0    0 -0.33616186971E+02  0.40029040891E+02 -0.20844173233E+03  0.21489841302E+03  0.10000000000E+01 0.  0.
<mgrwt>
<rscale>  0 0.12499106E+03</rscale>
<asrwt>0</asrwt>
<pdfrwt beam="2">  1        4 0.42076812E-01 0.12499106E+03</pdfrwt>
<pdfrwt beam="1">  1       -4 0.21969915E-02 0.12499106E+03</pdfrwt>
<totfact> 0.77173074E+03</totfact>
</mgrwt>
</event>
<event>
 5    1  0.3188180E-002  0.1250018E+03  0.7818608E-02  0.1235066E+00
         -4   -1    0    0    0  501 -0.00000000000E+00  0.00000000000E+00  0.68634506455E+02  0.68646255370E+02  0.12700000000E+01 0. -1.
          4   -1    0    0  501    0  0.00000000000E+00 -0.00000000000E+00 -0.56891706671E+02  0.56905880083E+02  0.12700000000E+01 0. -1.
         25    2    1    2    0    0  0.00000000000E+00  0.00000000000E+00  0.11742799784E+02  0.12555213545E+03  0.12500178147E+03 0.  0.
    9000005    1    3    3    0    0 -0.42085012065E+02  0.30560088382E+02 -0.28926396053E+02  0.59521455216E+02  0.10000000000E+01 0.  0.
    9000005    1    3    3    0    0  0.42085012065E+02 -0.30560088382E+02  0.40669195837E+02  0.66030680236E+02  0.10000000000E+01 0.  0.
<mgrwt>
<rscale>  0 0.12500178E+03</rscale>
<asrwt>0</asrwt>
<pdfrwt beam="2">  1        4 0.87545643E-02 0.12500178E+03</pdfrwt>
<pdfrwt beam="1">  1       -4 0.10561149E-01 0.12500178E+03</pdfrwt>
<totfact> 0.10440383E+04</totfact>
</mgrwt>
</event>
<event>
 5    1  0.3188180E-002  0.1249978E+03  0.7818608E-02  0.1235073E+00
          4   -1    0    0  501    0  0.00000000000E+00  0.00000000000E+00  0.85606050250E+01  0.86542971057E+01  0.12700000000E+01 0. -1.
         -4   -1    0    0    0  501 -0.00000000000E+00 -0.00000000000E+00 -0.45371124500E+03  0.45371302245E+03  0.12700000000E+01 0. -1.
         25    2    1    2    0    0  0.00000000000E+00  0.00000000000E+00 -0.44515063998E+03  0.46236731956E+03  0.12499778367E+03 0.  0.
    9000005    1    3    3    0    0  0.42550062293E+02  0.74340252496E+01 -0.55531841749E+02  0.70360201681E+02  0.10000000000E+01 0.  0.
    9000005    1    3    3    0    0 -0.42550062293E+02 -0.74340252496E+01 -0.38961879823E+03  0.39200711788E+03  0.10000000000E+01 0.  0.
<mgrwt>
<rscale>  0 0.12499778E+03</rscale>
<asrwt>0</asrwt>
<pdfrwt beam="1">  1        4 0.13243603E-02 0.12499778E+03</pdfrwt>
<pdfrwt beam="2">  1       -4 0.69809055E-01 0.12499778E+03</pdfrwt>
<totfact> 0.58910073E+03</totfact>
</mgrwt>
</event>
<event>
 5    1  0.3188180E-002  0.1249996E+03  0.7818608E-02  0.1235070E+00
          4   -1    0    0  501    0  0.00000000000E+00  0.00000000000E+00  0.60295117928E+02  0.60308491491E+02  0.12700000000E+01 0.  1.
         -4   -1    0    0    0  501 -0.00000000000E+00 -0.00000000000E+00 -0.64758305590E+02  0.64770757621E+02  0.12700000000E+01 0.  1.
         25    2    1    2    0    0  0.00000000000E+00  0.00000000000E+00 -0.44631876619E+01  0.12507924911E+03  0.12499959406E+03 0.  0.
    9000005    1    3    3    0    0  0.86695308888E+01  0.31519469847E+02  0.51061963216E+02  0.60637957030E+02  0.10000000000E+01 0.  0.
    9000005    1    3    3    0    0 -0.86695308888E+01 -0.31519469847E+02 -0.55525150878E+02  0.64441292083E+02  0.10000000000E+01 0.  0.
<mgrwt>
<rscale>  0 0.12499959E+03</rscale>
<asrwt>0</asrwt>
<pdfrwt beam="1">  1        4 0.92781586E-02 0.12499959E+03</pdfrwt>
<pdfrwt beam="2">  1       -4 0.99648029E-02 0.12499959E+03</pdfrwt>
<totfact> 0.10451237E+04</totfact>
</mgrwt>
</event>
<event>
 5    1  0.3188180E-002  0.1249978E+03  0.7818608E-02  0.1235073E+00
         -4   -1    0    0    0  501 -0.00000000000E+00  0.00000000000E+00  0.27818110057E+03  0.27818399957E+03  0.12700000000E+01 0.  1.
          4   -1    0    0  501    0  0.00000000000E+00 -0.00000000000E+00 -0.14009916390E+02  0.14067361418E+02  0.12700000000E+01 0.  1.
         25    2    1    2    0    0  0.00000000000E+00  0.00000000000E+00  0.26417118418E+03  0.29225136099E+03  0.12499777376E+03 0.  0.
    9000005    1    3    3    0    0 -0.11508741588E+02  0.32082612843E+02  0.25454611650E+03  0.25681991863E+03  0.10000000000E+01 0.  0.
    9000005    1    3    3    0    0  0.11508741588E+02 -0.32082612843E+02  0.96250676874E+01  0.35431442361E+02  0.10000000000E+01 0.  0.
<mgrwt>
<rscale>  0 0.12499777E+03</rscale>
<asrwt>0</asrwt>
<pdfrwt beam="2">  1        4 0.21600138E-02 0.12499777E+03</pdfrwt>
<pdfrwt beam="1">  1       -4 0.42801731E-01 0.12499777E+03</pdfrwt>
<totfact> 0.76584997E+03</totfact>
</mgrwt>
</event>
<event>
 5    1  0.3188180E-002  0.1250024E+03  0.7818608E-02  0.1235066E+00
          4   -1    0    0  501    0  0.00000000000E+00  0.00000000000E+00  0.50927785728E+02  0.50943618434E+02  0.12700000000E+01 0. -1.
         -4   -1    0    0    0  501 -0.00000000000E+00 -0.00000000000E+00 -0.76671665133E+02  0.76682182639E+02  0.12700000000E+01 0. -1.
         25    2    1    2    0    0  0.00000000000E+00  0.00000000000E+00 -0.25743879405E+02  0.12762580107E+03  0.12500239107E+03 0.  0.
    9000005    1    3    3    0    0 -0.23309609178E+02  0.33987594954E+02  0.35091682703E+02  0.54137978220E+02  0.10000000000E+01 0.  0.
    9000005    1    3    3    0    0  0.23309609178E+02 -0.33987594954E+02 -0.60835562108E+02  0.73487822853E+02  0.10000000000E+01 0.  0.
<mgrwt>
<rscale>  0 0.12500239E+03</rscale>
<asrwt>0</asrwt>
<pdfrwt beam="1">  1        4 0.78370709E-02 0.12500239E+03</pdfrwt>
<pdfrwt beam="2">  1       -4 0.11797668E-01 0.12500239E+03</pdfrwt>
<totfact> 0.10395016E+04</totfact>
</mgrwt>
</event>
<event>
 5    1  0.3188180E-002  0.1250013E+03  0.7818608E-02  0.1235067E+00
          4   -1    0    0  501    0  0.00000000000E+00  0.00000000000E+00  0.26027268688E+03  0.26027578534E+03  0.12700000000E+01 0.  1.
         -4   -1    0    0    0  501 -0.00000000000E+00 -0.00000000000E+00 -0.14978546075E+02  0.15032289996E+02  0.12700000000E+01 0.  1.
         25    2    1    2    0    0  0.00000000000E+00  0.00000000000E+00  0.24529414080E+03  0.27530807534E+03  0.12500128333E+03 0.  0.
    9000005    1    3    3    0    0 -0.61156020690E+02 -0.27051980371E+01  0.15032724055E+03  0.16231653093E+03  0.10000000000E+01 0.  0.
    9000005    1    3    3    0    0  0.61156020690E+02  0.27051980371E+01  0.94966900253E+02  0.11299154440E+03  0.10000000000E+01 0.  0.
<mgrwt>
<rscale>  0 0.12500128E+03</rscale>
<asrwt>0</asrwt>
<pdfrwt beam="1">  1        4 0.40046324E-01 0.12500128E+03</pdfrwt>
<pdfrwt beam="2">  1       -4 0.23087642E-02 0.12500128E+03</pdfrwt>
<totfact> 0.78802112E+03</totfact>
</mgrwt>
</event>
<event>
 5    1  0.3188180E-002  0.1250016E+03  0.7818608E-02  0.1235067E+00
          4   -1    0    0  501    0  0.00000000000E+00  0.00000000000E+00  0.47536930321E+02  0.47553892000E+02  0.12700000000E+01 0. -1.
         -4   -1    0    0    0  501 -0.00000000000E+00 -0.00000000000E+00 -0.82138505012E+02  0.82148322597E+02  0.12700000000E+01 0. -1.
         25    2    1    2    0    0  0.00000000000E+00  0.00000000000E+00 -0.34601574691E+02  0.12970221460E+03  0.12500158199E+03 0.  0.
    9000005    1    3    3    0    0  0.51615453838E+02 -0.29655133775E+02 -0.37036202237E+02  0.70116063140E+02  0.10000000000E+01 0.  0.
    9000005    1    3    3    0    0 -0.51615453838E+02  0.29655133775E+02  0.24346275466E+01  0.59586151457E+02  0.10000000000E+01 0.  0.
<mgrwt>
<rscale>  0 0.12500158E+03</rscale>
<asrwt>0</asrwt>
<pdfrwt beam="1">  1        4 0.73154338E-02 0.12500158E+03</pdfrwt>
<pdfrwt beam="2">  1       -4 0.12638753E-01 0.12500158E+03</pdfrwt>
<totfact> 0.10350512E+04</totfact>
</mgrwt>
</event>
<event>
 5    1  0.3188180E-002  0.1250002E+03  0.7818608E-02  0.1235069E+00
         -4   -1    0    0    0  501 -0.00000000000E+00  0.00000000000E+00  0.18602897491E+02  0.18646197871E+02  0.12700000000E+01 0. -1.
          4   -1    0    0  501    0  0.00000000000E+00 -0.00000000000E+00 -0.20969195685E+03  0.20969580270E+03  0.12700000000E+01 0. -1.
         25    2    1    2    0    0  0.00000000000E+00  0.00000000000E+00 -0.19108905936E+03  0.22834200057E+03  0.12500016246E+03 0.  0.
    9000005    1    3    3    0    0  0.15302685174E+02 -0.44285130291E+02 -0.20007046132E+02  0.50957107780E+02  0.10000000000E+01 0.  0.
    9000005    1    3    3    0    0 -0.15302685174E+02  0.44285130291E+02 -0.17108201323E+03  0.17738489279E+03  0.10000000000E+01 0.  0.
<mgrwt>
<rscale>  0 0.12500016E+03</rscale>
<asrwt>0</asrwt>
<pdfrwt beam="2">  1        4 0.32263926E-01 0.12500016E+03</pdfrwt>
<pdfrwt beam="1">  1       -4 0.28656110E-02 0.12500016E+03</pdfrwt>
<totfact> 0.85564526E+03</totfact>
</mgrwt>
</event>
<event>
 5    1  0.3188180E-002  0.1249912E+03  0.7818608E-02  0.1235083E+00
         -4   -1    0    0    0  501 -0.00000000000E+00  0.00000000000E+00  0.85860433472E+02  0.85869825526E+02  0.12700000000E+01 0. -1.
          4   -1    0    0  501    0  0.00000000000E+00 -0.00000000000E+00 -0.45468210588E+02  0.45485943698E+02  0.12700000000E+01 0. -1.
         25    2    1    2    0    0  0.00000000000E+00  0.00000000000E+00  0.40392222883E+02  0.13135576922E+03  0.12499122545E+03 0.  0.
    9000005    1    3    3    0    0 -0.23616703175E+01  0.13982690424E+01  0.85802214796E+02  0.85851923140E+02  0.10000000000E+01 0.  0.
    9000005    1    3    3    0    0  0.23616703175E+01 -0.13982690424E+01 -0.45409991912E+02  0.45503846085E+02  0.10000000000E+01 0.  0.
<mgrwt>
<rscale>  0 0.12499123E+03</rscale>
<asrwt>0</asrwt>
<pdfrwt beam="2">  1        4 0.69971959E-02 0.12499123E+03</pdfrwt>
<pdfrwt beam="1">  1       -4 0.13211384E-01 0.12499123E+03</pdfrwt>
<totfact> 0.10317511E+04</totfact>
</mgrwt>
</event>
<event>
 5    1  0.3188180E-002  0.1249849E+03  0.7818608E-02  0.1235093E+00
         -4   -1    0    0    0  501 -0.00000000000E+00  0.00000000000E+00  0.28644344663E+02  0.28672484740E+02  0.12700000000E+01 0. -1.
          4   -1    0    0  501    0  0.00000000000E+00 -0.00000000000E+00 -0.13623978267E+03  0.13624570189E+03  0.12700000000E+01 0. -1.
         25    2    1    2    0    0  0.00000000000E+00  0.00000000000E+00 -0.10759543801E+03  0.16491818663E+03  0.12498491909E+03 0.  0.
    9000005    1    3    3    0    0 -0.71562723510E+01 -0.89582084563E+01  0.27250870895E+02  0.29581610795E+02  0.10000000000E+01 0.  0.
    9000005    1    3    3    0    0  0.71562723510E+01  0.89582084563E+01 -0.13484630891E+03  0.13533657583E+03  0.10000000000E+01 0.  0.
<mgrwt>
<rscale>  0 0.12498492E+03</rscale>
<asrwt>0</asrwt>
<pdfrwt beam="2">  1        4 0.20962586E-01 0.12498492E+03</pdfrwt>
<pdfrwt beam="1">  1       -4 0.44094423E-02 0.12498492E+03</pdfrwt>
<totfact> 0.96435557E+03</totfact>
</mgrwt>
</event>
<event>
 5    1  0.3188180E-002  0.1249999E+03  0.7818608E-02  0.1235069E+00
         -4   -1    0    0    0  501 -0.00000000000E+00  0.00000000000E+00  0.93414492300E+02  0.93423124930E+02  0.12700000000E+01 0. -1.
          4   -1    0    0  501    0  0.00000000000E+00 -0.00000000000E+00 -0.41796018719E+02  0.41815309167E+02  0.12700000000E+01 0. -1.
         25    2    1    2    0    0  0.00000000000E+00  0.00000000000E+00  0.51618473581E+02  0.13523843410E+03  0.12499986897E+03 0.  0.
    9000005    1    3    3    0    0 -0.23607150294E+02 -0.78570211633E+01  0.87830174799E+02  0.91291675041E+02  0.10000000000E+01 0.  0.
    9000005    1    3    3    0    0  0.23607150294E+02  0.78570211633E+01 -0.36211701217E+02  0.43946759057E+02  0.10000000000E+01 0.  0.
<mgrwt>
<rscale>  0 0.12499987E+03</rscale>
<asrwt>0</asrwt>
<pdfrwt beam="2">  1        4 0.64323047E-02 0.12499987E+03</pdfrwt>
<pdfrwt beam="1">  1       -4 0.14373608E-01 0.12499987E+03</pdfrwt>
<totfact> 0.10233078E+04</totfact>
</mgrwt>
</event>
<event>
 5    1  0.3188180E-002  0.1250004E+03  0.7818608E-02  0.1235069E+00
          4   -1    0    0  501    0  0.00000000000E+00  0.00000000000E+00  0.25252035978E+03  0.25252355337E+03  0.12700000000E+01 0. -1.
         -4   -1    0    0    0  501 -0.00000000000E+00 -0.00000000000E+00 -0.15439792791E+02  0.15491936658E+02  0.12700000000E+01 0. -1.
         25    2    1    2    0    0  0.00000000000E+00  0.00000000000E+00  0.23708056699E+03  0.26801549002E+03  0.12500043059E+03 0.  0.
    9000005    1    3    3    0    0  0.24434051219E+02  0.56272445078E+02  0.14406031275E+03  0.15658219772E+03  0.10000000000E+01 0.  0.
    9000005    1    3    3    0    0 -0.24434051219E+02 -0.56272445078E+02  0.93020254242E+02  0.11143329230E+03  0.10000000000E+01 0.  0.
<mgrwt>
<rscale>  0 0.12500043E+03</rscale>
<asrwt>0</asrwt>
<pdfrwt beam="1">  1        4 0.38853543E-01 0.12500043E+03</pdfrwt>
<pdfrwt beam="2">  1       -4 0.23796095E-02 0.12500043E+03</pdfrwt>
<totfact> 0.79793431E+03</totfact>
</mgrwt>
</event>
<event>
 5    1  0.3188180E-002  0.1249425E+03  0.7818608E-02  0.1235159E+00
          4   -1    0    0  501    0  0.00000000000E+00  0.00000000000E+00  0.98178963468E+02  0.98187177206E+02  0.12700000000E+01 0. -1.
         -4   -1    0    0    0  501 -0.00000000000E+00 -0.00000000000E+00 -0.39730412401E+02  0.39750705271E+02  0.12700000000E+01 0. -1.
         25    2    1    2    0    0  0.00000000000E+00  0.00000000000E+00  0.58448551067E+02  0.13793788248E+03  0.12494249197E+03 0.  0.
    9000005    1    3    3    0    0  0.59375362924E+02 -0.17479706331E+02  0.19942522350E+02  0.65035975072E+02  0.10000000000E+01 0.  0.
    9000005    1    3    3    0    0 -0.59375362924E+02  0.17479706331E+02  0.38506028716E+02  0.72901907405E+02  0.10000000000E+01 0.  0.
<mgrwt>
<rscale>  0 0.12494249E+03</rscale>
<asrwt>0</asrwt>
<pdfrwt beam="1">  1        4 0.15106649E-01 0.12494249E+03</pdfrwt>
<pdfrwt beam="2">  1       -4 0.61145639E-02 0.12494249E+03</pdfrwt>
<totfact> 0.10189703E+04</totfact>
</mgrwt>
</event>
<event>
 5    1  0.3188180E-002  0.1250024E+03  0.7818608E-02  0.1235066E+00
         -4   -1    0    0    0  501 -0.00000000000E+00  0.00000000000E+00  0.17211035105E+02  0.17257828061E+02  0.12700000000E+01 0. -1.
          4   -1    0    0  501    0  0.00000000000E+00 -0.00000000000E+00 -0.22661399952E+03  0.22661755818E+03  0.12700000000E+01 0. -1.
         25    2    1    2    0    0  0.00000000000E+00  0.00000000000E+00 -0.20940296441E+03  0.24387538625E+03  0.12500241002E+03 0.  0.
    9000005    1    3    3    0    0 -0.45288114870E+02 -0.29243362137E+02 -0.16637214740E+03  0.17489104896E+03  0.10000000000E+01 0.  0.
    9000005    1    3    3    0    0  0.45288114870E+02  0.29243362137E+02 -0.43030817016E+02  0.68984337284E+02  0.10000000000E+01 0.  0.
<mgrwt>
<rscale>  0 0.12500241E+03</rscale>
<asrwt>0</asrwt>
<pdfrwt beam="2">  1        4 0.34867563E-01 0.12500241E+03</pdfrwt>
<pdfrwt beam="1">  1       -4 0.26517249E-02 0.12500241E+03</pdfrwt>
<totfact> 0.83219093E+03</totfact>
</mgrwt>
</event>
<event>
 5    1  0.3188180E-002  0.1250004E+03  0.7818608E-02  0.1235069E+00
         -4   -1    0    0    0  501 -0.00000000000E+00  0.00000000000E+00  0.63673431491E+03  0.63673558145E+03  0.12700000000E+01 0.  1.
          4   -1    0    0  501    0  0.00000000000E+00 -0.00000000000E+00 -0.60678443775E+01  0.61993253979E+01  0.12700000000E+01 0.  1.
         25    2    1    2    0    0  0.00000000000E+00  0.00000000000E+00  0.63066647053E+03  0.64293490685E+03  0.12500038956E+03 0.  0.
    9000005    1    3    3    0    0 -0.30611875567E+02  0.12903244814E+02  0.43084440735E+02  0.54413690243E+02  0.10000000000E+01 0.  0.
    9000005    1    3    3    0    0  0.30611875567E+02 -0.12903244814E+02  0.58758202980E+03  0.58852121660E+03  0.10000000000E+01 0.  0.
<mgrwt>
<rscale>  0 0.12500039E+03</rscale>
<asrwt>0</asrwt>
<pdfrwt beam="2">  1        4 0.94372605E-03 0.12500039E+03</pdfrwt>
<pdfrwt beam="1">  1       -4 0.97969318E-01 0.12500039E+03</pdfrwt>
<totfact> 0.46264462E+03</totfact>
</mgrwt>
</event>
<event>
 5    1  0.3188180E-002  0.1249618E+03  0.7818608E-02  0.1235129E+00
          4   -1    0    0  501    0  0.00000000000E+00  0.00000000000E+00  0.14458300980E+04  0.14458306557E+04  0.12700000000E+01 0. -1.
         -4   -1    0    0    0  501 -0.00000000000E+00 -0.00000000000E+00 -0.25501574629E+01  0.28488950640E+01  0.12700000000E+01 0. -1.
         25    2    1    2    0    0  0.00000000000E+00  0.00000000000E+00  0.14432799405E+04  0.14486795508E+04  0.12496181123E+03 0.  0.
    9000005    1    3    3    0    0 -0.60768539811E+02  0.21557542339E+01  0.55549157670E+03  0.55881066068E+03  0.10000000000E+01 0.  0.
    9000005    1    3    3    0    0  0.60768539811E+02 -0.21557542339E+01  0.88778836381E+03  0.88986889013E+03  0.10000000000E+01 0.  0.
<mgrwt>
<rscale>  0 0.12496181E+03</rscale>
<asrwt>0</asrwt>
<pdfrwt beam="1">  1        4 0.22245897E+00 0.12496181E+03</pdfrwt>
<pdfrwt beam="2">  1       -4 0.41535362E-03 0.12496181E+03</pdfrwt>
<totfact> 0.18975547E+03</totfact>
</mgrwt>
</event>
<event>
 5    1  0.3188180E-002  0.1249994E+03  0.7818608E-02  0.1235070E+00
         -4   -1    0    0    0  501 -0.00000000000E+00  0.00000000000E+00  0.11747261228E+03  0.11747947708E+03  0.12700000000E+01 0. -1.
          4   -1    0    0  501    0  0.00000000000E+00 -0.00000000000E+00 -0.33232163951E+02  0.33256422250E+02  0.12700000000E+01 0. -1.
         25    2    1    2    0    0  0.00000000000E+00  0.00000000000E+00  0.84240448326E+02  0.15073589933E+03  0.12499943285E+03 0.  0.
    9000005    1    3    3    0    0 -0.22269176722E+02 -0.46311241397E+02  0.85002676892E+02  0.99333289437E+02  0.10000000000E+01 0.  0.
    9000005    1    3    3    0    0  0.22269176722E+02  0.46311241397E+02 -0.76222856592E+00  0.51402609894E+02  0.10000000000E+01 0.  0.
<mgrwt>
<rscale>  0 0.12499943E+03</rscale>
<asrwt>0</asrwt>
<pdfrwt beam="2">  1        4 0.51150348E-02 0.12499943E+03</pdfrwt>
<pdfrwt beam="1">  1       -4 0.18075103E-01 0.12499943E+03</pdfrwt>
<totfact> 0.99158475E+03</totfact>
</mgrwt>
</event>
<event>
 5    1  0.3188180E-002  0.1249994E+03  0.7818608E-02  0.1235070E+00
          4   -1    0    0  501    0  0.00000000000E+00  0.00000000000E+00  0.44940871064E+02  0.44958812173E+02  0.12700000000E+01 0.  1.
         -4   -1    0    0    0  501 -0.00000000000E+00 -0.00000000000E+00 -0.86878954563E+02  0.86888236523E+02  0.12700000000E+01 0.  1.
         25    2    1    2    0    0  0.00000000000E+00  0.00000000000E+00 -0.41938083499E+02  0.13184704870E+03  0.12499936561E+03 0.  0.
    9000005    1    3    3    0    0  0.53730592109E+02 -0.25145306026E+02 -0.24728040013E+00  0.59332319112E+02  0.10000000000E+01 0.  0.
    9000005    1    3    3    0    0 -0.53730592109E+02  0.25145306026E+02 -0.41690803099E+02  0.72514729584E+02  0.10000000000E+01 0.  0.
<mgrwt>
<rscale>  0 0.12499937E+03</rscale>
<asrwt>0</asrwt>
<pdfrwt beam="1">  1        4 0.69160743E-02 0.12499937E+03</pdfrwt>
<pdfrwt beam="2">  1       -4 0.13368087E-01 0.12499937E+03</pdfrwt>
<totfact> 0.10305112E+04</totfact>
</mgrwt>
</event>
<event>
 5    1  0.3188180E-002  0.1250002E+03  0.7818608E-02  0.1235069E+00
          4   -1    0    0  501    0  0.00000000000E+00  0.00000000000E+00  0.32445440655E+02  0.32470286714E+02  0.12700000000E+01 0. -1.
         -4   -1    0    0    0  501 -0.00000000000E+00 -0.00000000000E+00 -0.12032052079E+03  0.12032722312E+03  0.12700000000E+01 0. -1.
         25    2    1    2    0    0  0.00000000000E+00  0.00000000000E+00 -0.87875080134E+02  0.15279750983E+03  0.12500019721E+03 0.  0.
    9000005    1    3    3    0    0 -0.12901496902E+02 -0.49557380325E+02 -0.15524185435E+00  0.51219202132E+02  0.10000000000E+01 0.  0.
    9000005    1    3    3    0    0  0.12901496902E+02  0.49557380325E+02 -0.87719838279E+02  0.10157830770E+03  0.10000000000E+01 0.  0.
<mgrwt>
<rscale>  0 0.12500020E+03</rscale>
<asrwt>0</asrwt>
<pdfrwt beam="1">  1        4 0.49940331E-02 0.12500020E+03</pdfrwt>
<pdfrwt beam="2">  1       -4 0.18513276E-01 0.12500020E+03</pdfrwt>
<totfact> 0.98748513E+03</totfact>
</mgrwt>
</event>
<event>
 5    1  0.3188180E-002  0.1249997E+03  0.7818608E-02  0.1235070E+00
          4   -1    0    0  501    0  0.00000000000E+00  0.00000000000E+00  0.44513256783E+01  0.46289523970E+01  0.12700000000E+01 0. -1.
         -4   -1    0    0    0  501 -0.00000000000E+00 -0.00000000000E+00 -0.86019911190E+03  0.86020004942E+03  0.12700000000E+01 0. -1.
         25    2    1    2    0    0  0.00000000000E+00  0.00000000000E+00 -0.85574778622E+03  0.86482900181E+03  0.12499971501E+03 0.  0.
    9000005    1    3    3    0    0  0.32472054785E+02 -0.25110506578E+02 -0.10186971238E+03  0.10983355673E+03  0.10000000000E+01 0.  0.
    9000005    1    3    3    0    0 -0.32472054785E+02  0.25110506578E+02 -0.75387807384E+03  0.75499544509E+03  0.10000000000E+01 0.  0.
<mgrwt>
<rscale>  0 0.12499972E+03</rscale>
<asrwt>0</asrwt>
<pdfrwt beam="1">  1        4 0.69855573E-03 0.12499972E+03</pdfrwt>
<pdfrwt beam="2">  1       -4 0.13235193E+00 0.12499972E+03</pdfrwt>
<totfact> 0.35528329E+03</totfact>
</mgrwt>
</event>
<event>
 5    1  0.3188180E-002  0.1249865E+03  0.7818608E-02  0.1235090E+00
          4   -1    0    0  501    0  0.00000000000E+00  0.00000000000E+00  0.12814357662E+03  0.12814986979E+03  0.12700000000E+01 0. -1.
         -4   -1    0    0    0  501 -0.00000000000E+00 -0.00000000000E+00 -0.30456506775E+02  0.30482974017E+02  0.12700000000E+01 0. -1.
         25    2    1    2    0    0  0.00000000000E+00  0.00000000000E+00  0.97687069843E+02  0.15863284381E+03  0.12498646135E+03 0.  0.
    9000005    1    3    3    0    0 -0.70966514656E+01 -0.60610261344E+02  0.31794739307E+02  0.68817669895E+02  0.10000000000E+01 0.  0.
    9000005    1    3    3    0    0  0.70966514656E+01  0.60610261344E+02  0.65892330536E+02  0.89815173916E+02  0.10000000000E+01 0.  0.
<mgrwt>
<rscale>  0 0.12498646E+03</rscale>
<asrwt>0</asrwt>
<pdfrwt beam="1">  1        4 0.19716916E-01 0.12498646E+03</pdfrwt>
<pdfrwt beam="2">  1       -4 0.46881365E-02 0.12498646E+03</pdfrwt>
<totfact> 0.97636724E+03</totfact>
</mgrwt>
</event>
<event>
 5    1  0.3188180E-002  0.1250003E+03  0.7818608E-02  0.1235069E+00
         -4   -1    0    0    0  501 -0.00000000000E+00  0.00000000000E+00  0.56370236567E+02  0.56384541060E+02  0.12700000000E+01 0.  1.
          4   -1    0    0  501    0  0.00000000000E+00 -0.00000000000E+00 -0.69267782749E+02  0.69279424268E+02  0.12700000000E+01 0.  1.
         25    2    1    2    0    0  0.00000000000E+00  0.00000000000E+00 -0.12897546182E+02  0.12566396533E+03  0.12500034194E+03 0.  0.
    9000005    1    3    3    0    0  0.22974137864E+02  0.54998220788E+02 -0.25327610268E+02  0.64769615889E+02  0.10000000000E+01 0.  0.
    9000005    1    3    3    0    0 -0.22974137864E+02 -0.54998220788E+02  0.12430064086E+02  0.60894349440E+02  0.10000000000E+01 0.  0.
<mgrwt>
<rscale>  0 0.12500034E+03</rscale>
<asrwt>0</asrwt>
<pdfrwt beam="2">  1        4 0.10658578E-01 0.12500034E+03</pdfrwt>
<pdfrwt beam="1">  1       -4 0.86743399E-02 0.12500034E+03</pdfrwt>
<totfact> 0.10438257E+04</totfact>
</mgrwt>
</event>
<event>
 5    1  0.3188180E-002  0.1250015E+03  0.7818608E-02  0.1235067E+00
         -4   -1    0    0    0  501 -0.00000000000E+00  0.00000000000E+00  0.31254014910E+03  0.31254272939E+03  0.12700000000E+01 0. -1.
          4   -1    0    0  501    0  0.00000000000E+00 -0.00000000000E+00 -0.12463803042E+02  0.12528339326E+02  0.12700000000E+01 0. -1.
         25    2    1    2    0    0  0.00000000000E+00  0.00000000000E+00  0.30007634606E+03  0.32507106872E+03  0.12500154502E+03 0.  0.
    9000005    1    3    3    0    0  0.17225939244E+02 -0.57595241589E+02  0.10564573476E+03  0.12155643179E+03  0.10000000000E+01 0.  0.
    9000005    1    3    3    0    0 -0.17225939244E+02  0.57595241589E+02  0.19443061129E+03  0.20351463693E+03  0.10000000000E+01 0.  0.
<mgrwt>
<rscale>  0 0.12500155E+03</rscale>
<asrwt>0</asrwt>
<pdfrwt beam="2">  1        4 0.19226709E-02 0.12500155E+03</pdfrwt>
<pdfrwt beam="1">  1       -4 0.48088264E-01 0.12500155E+03</pdfrwt>
<totfact> 0.72554534E+03</totfact>
</mgrwt>
</event>
<event>
 5    1  0.3188180E-002  0.1249981E+03  0.7818608E-02  0.1235072E+00
          4   -1    0    0  501    0  0.00000000000E+00  0.00000000000E+00  0.17762598309E+02  0.17807942011E+02  0.12700000000E+01 0.  1.
         -4   -1    0    0    0  501 -0.00000000000E+00 -0.00000000000E+00 -0.21958018129E+03  0.21958385395E+03  0.12700000000E+01 0.  1.
         25    2    1    2    0    0  0.00000000000E+00  0.00000000000E+00 -0.20181758298E+03  0.23739179596E+03  0.12499811194E+03 0.  0.
    9000005    1    3    3    0    0 -0.11413417438E+02 -0.60286461965E+02 -0.78404838946E+02  0.99564262484E+02  0.10000000000E+01 0.  0.
    9000005    1    3    3    0    0  0.11413417438E+02  0.60286461965E+02 -0.12341274404E+03  0.13782753348E+03  0.10000000000E+01 0.  0.
<mgrwt>
<rscale>  0 0.12499811E+03</rscale>
<asrwt>0</asrwt>
<pdfrwt beam="1">  1        4 0.27364781E-02 0.12499811E+03</pdfrwt>
<pdfrwt beam="2">  1       -4 0.33785335E-01 0.12499811E+03</pdfrwt>
<totfact> 0.84190898E+03</totfact>
</mgrwt>
</event>
<event>
 5    1  0.3188180E-002  0.1249903E+03  0.7818608E-02  0.1235084E+00
         -4   -1    0    0    0  501 -0.00000000000E+00  0.00000000000E+00  0.40051312616E+02  0.40071442977E+02  0.12700000000E+01 0. -1.
          4   -1    0    0  501    0  0.00000000000E+00 -0.00000000000E+00 -0.97467287727E+02  0.97475561434E+02  0.12700000000E+01 0. -1.
         25    2    1    2    0    0  0.00000000000E+00  0.00000000000E+00 -0.57415975111E+02  0.13754700441E+03  0.12499033652E+03 0.  0.
    9000005    1    3    3    0    0  0.37159054096E+02  0.49859218534E+02 -0.21932409812E+02  0.65945186134E+02  0.10000000000E+01 0.  0.
    9000005    1    3    3    0    0 -0.37159054096E+02 -0.49859218534E+02 -0.35483565300E+02  0.71601818277E+02  0.10000000000E+01 0.  0.
<mgrwt>
<rscale>  0 0.12499034E+03</rscale>
<asrwt>0</asrwt>
<pdfrwt beam="2">  1        4 0.14997152E-01 0.12499034E+03</pdfrwt>
<pdfrwt beam="1">  1       -4 0.61639253E-02 0.12499034E+03</pdfrwt>
<totfact> 0.10186880E+04</totfact>
</mgrwt>
</event>
<event>
 5    1  0.3188180E-002  0.1250004E+03  0.7818608E-02  0.1235069E+00
          4   -1    0    0  501    0  0.00000000000E+00  0.00000000000E+00  0.30977592619E+02  0.31003615023E+02  0.12700000000E+01 0.  1.
         -4   -1    0    0    0  501 -0.00000000000E+00 -0.00000000000E+00 -0.12601783284E+03  0.12602423217E+03  0.12700000000E+01 0.  1.
         25    2    1    2    0    0  0.00000000000E+00  0.00000000000E+00 -0.95040240218E+02  0.15702784719E+03  0.12500039013E+03 0.  0.
    9000005    1    3    3    0    0 -0.38518011034E+02 -0.41152692494E+02 -0.81416925400E+02  0.99029778426E+02  0.10000000000E+01 0.  0.
    9000005    1    3    3    0    0  0.38518011034E+02  0.41152692494E+02 -0.13623314818E+02  0.57998068762E+02  0.10000000000E+01 0.  0.
<mgrwt>
<rscale>  0 0.12500039E+03</rscale>
<asrwt>0</asrwt>
<pdfrwt beam="1">  1        4 0.47682775E-02 0.12500039E+03</pdfrwt>
<pdfrwt beam="2">  1       -4 0.19389853E-01 0.12500039E+03</pdfrwt>
<totfact> 0.97918013E+03</totfact>
</mgrwt>
</event>
<event>
 5    1  0.3188180E-002  0.1250018E+03  0.7818608E-02  0.1235066E+00
          4   -1    0    0  501    0  0.00000000000E+00  0.00000000000E+00  0.11243641630E+02  0.11315139287E+02  0.12700000000E+01 0.  1.
         -4   -1    0    0    0  501 -0.00000000000E+00 -0.00000000000E+00 -0.34625493609E+03  0.34625726514E+03  0.12700000000E+01 0.  1.
         25    2    1    2    0    0  0.00000000000E+00  0.00000000000E+00 -0.33501129446E+03  0.35757240443E+03  0.12500182797E+03 0.  0.
    9000005    1    3    3    0    0  0.57253588761E+02 -0.14156318054E+02 -0.10839629233E+03  0.12340636514E+03  0.10000000000E+01 0.  0.
    9000005    1    3    3    0    0 -0.57253588761E+02  0.14156318054E+02 -0.22661500212E+03  0.23416603929E+03  0.10000000000E+01 0.  0.
<mgrwt>
<rscale>  0 0.12500183E+03</rscale>
<asrwt>0</asrwt>
<pdfrwt beam="1">  1        4 0.17354703E-02 0.12500183E+03</pdfrwt>
<pdfrwt beam="2">  1       -4 0.53275661E-01 0.12500183E+03</pdfrwt>
<totfact> 0.68896672E+03</totfact>
</mgrwt>
</event>
<event>
 5    1  0.3188180E-002  0.1250014E+03  0.7818608E-02  0.1235067E+00
         -4   -1    0    0    0  501 -0.00000000000E+00  0.00000000000E+00  0.75822406967E+01  0.76878653723E+01  0.12700000000E+01 0.  1.
          4   -1    0    0  501    0  0.00000000000E+00 -0.00000000000E+00 -0.51152541100E+03  0.51152698755E+03  0.12700000000E+01 0.  1.
         25    2    1    2    0    0  0.00000000000E+00  0.00000000000E+00 -0.50394317030E+03  0.51921485292E+03  0.12500137842E+03 0.  0.
    9000005    1    3    3    0    0 -0.42553282838E+02  0.45481187976E+02 -0.23078548627E+03  0.23904447497E+03  0.10000000000E+01 0.  0.
    9000005    1    3    3    0    0  0.42553282838E+02 -0.45481187976E+02 -0.27315768403E+03  0.28017037795E+03  0.10000000000E+01 0.  0.
<mgrwt>
<rscale>  0 0.12500138E+03</rscale>
<asrwt>0</asrwt>
<pdfrwt beam="2">  1        4 0.78704436E-01 0.12500138E+03</pdfrwt>
<pdfrwt beam="1">  1       -4 0.11747452E-02 0.12500138E+03</pdfrwt>
<totfact> 0.54402117E+03</totfact>
</mgrwt>
</event>
<event>
 5    1  0.3188180E-002  0.1250008E+03  0.7818608E-02  0.1235068E+00
          4   -1    0    0  501    0  0.00000000000E+00  0.00000000000E+00  0.18071979311E+03  0.18072425548E+03  0.12700000000E+01 0. -1.
         -4   -1    0    0    0  501 -0.00000000000E+00 -0.00000000000E+00 -0.21591838270E+02  0.21629155783E+02  0.12700000000E+01 0. -1.
         25    2    1    2    0    0  0.00000000000E+00  0.00000000000E+00  0.15912795484E+03  0.20235341127E+03  0.12500078816E+03 0.  0.
    9000005    1    3    3    0    0  0.61140718838E+01  0.57294297360E+02  0.40400617365E+02  0.70379174963E+02  0.10000000000E+01 0.  0.
    9000005    1    3    3    0    0 -0.61140718838E+01 -0.57294297360E+02  0.11872733747E+03  0.13197423630E+03  0.10000000000E+01 0.  0.
<mgrwt>
<rscale>  0 0.12500079E+03</rscale>
<asrwt>0</asrwt>
<pdfrwt beam="1">  1        4 0.27806258E-01 0.12500079E+03</pdfrwt>
<pdfrwt beam="2">  1       -4 0.33250352E-02 0.12500079E+03</pdfrwt>
<totfact> 0.89738515E+03</totfact>
</mgrwt>
</event>
<event>
 5    1  0.3188180E-002  0.1249973E+03  0.7818608E-02  0.1235073E+00
         -4   -1    0    0    0  501 -0.00000000000E+00  0.00000000000E+00  0.21496294906E+02  0.21533777994E+02  0.12700000000E+01 0.  1.
          4   -1    0    0  501    0  0.00000000000E+00 -0.00000000000E+00 -0.18151155056E+03  0.18151599348E+03  0.12700000000E+01 0.  1.
         25    2    1    2    0    0  0.00000000000E+00  0.00000000000E+00 -0.16001525566E+03  0.20304977147E+03  0.12499731058E+03 0.  0.
    9000005    1    3    3    0    0 -0.35159472879E+02 -0.62454706045E+01 -0.16331250332E+03  0.16717406551E+03  0.10000000000E+01 0.  0.
    9000005    1    3    3    0    0  0.35159472879E+02  0.62454706045E+01  0.32972476673E+01  0.35875705963E+02  0.10000000000E+01 0.  0.
<mgrwt>
<rscale>  0 0.12499731E+03</rscale>
<asrwt>0</asrwt>
<pdfrwt beam="2">  1        4 0.27928078E-01 0.12499731E+03</pdfrwt>
<pdfrwt beam="1">  1       -4 0.33103475E-02 0.12499731E+03</pdfrwt>
<totfact> 0.89629068E+03</totfact>
</mgrwt>
</event>
<event>
 5    1  0.3188180E-002  0.1250007E+03  0.7818608E-02  0.1235068E+00
         -4   -1    0    0    0  501 -0.00000000000E+00  0.00000000000E+00  0.41708441648E+03  0.41708635002E+03  0.12700000000E+01 0.  1.
          4   -1    0    0  501    0  0.00000000000E+00 -0.00000000000E+00 -0.93207043235E+01  0.94068288539E+01  0.12700000000E+01 0.  1.
         25    2    1    2    0    0  0.00000000000E+00  0.00000000000E+00  0.40776371216E+03  0.42649317887E+03  0.12500074668E+03 0.  0.
    9000005    1    3    3    0    0  0.28865373326E+02  0.43037873219E+02  0.32304689122E+03  0.32717848681E+03  0.10000000000E+01 0.  0.
    9000005    1    3    3    0    0 -0.28865373326E+02 -0.43037873219E+02  0.84716820940E+02  0.99314692058E+02  0.10000000000E+01 0.  0.
<mgrwt>
<rscale>  0 0.12500075E+03</rscale>
<asrwt>0</asrwt>
<pdfrwt beam="2">  1        4 0.14407282E-02 0.12500075E+03</pdfrwt>
<pdfrwt beam="1">  1       -4 0.64173608E-01 0.12500075E+03</pdfrwt>
<totfact> 0.62054130E+03</totfact>
</mgrwt>
</event>
<event>
 5    1  0.3188180E-002  0.1250011E+03  0.7818608E-02  0.1235068E+00
          4   -1    0    0  501    0  0.00000000000E+00  0.00000000000E+00  0.20164742029E+03  0.20165141956E+03  0.12700000000E+01 0. -1.
         -4   -1    0    0    0  501 -0.00000000000E+00 -0.00000000000E+00 -0.19347005740E+02  0.19388644385E+02  0.12700000000E+01 0. -1.
         25    2    1    2    0    0  0.00000000000E+00  0.00000000000E+00  0.18230041455E+03  0.22104006394E+03  0.12500107489E+03 0.  0.
    9000005    1    3    3    0    0  0.13828042369E+02  0.95897893520E+01  0.19757425385E+03  0.19829211936E+03  0.10000000000E+01 0.  0.
    9000005    1    3    3    0    0 -0.13828042369E+02 -0.95897893520E+01 -0.15273839303E+02  0.22747944580E+02  0.10000000000E+01 0.  0.
<mgrwt>
<rscale>  0 0.12500107E+03</rscale>
<asrwt>0</asrwt>
<pdfrwt beam="1">  1        4 0.31026190E-01 0.12500107E+03</pdfrwt>
<pdfrwt beam="2">  1       -4 0.29799731E-02 0.12500107E+03</pdfrwt>
<totfact> 0.86701958E+03</totfact>
</mgrwt>
</event>
<event>
 5    1  0.3188180E-002  0.1250056E+03  0.7818608E-02  0.1235060E+00
         -4   -1    0    0    0  501 -0.00000000000E+00  0.00000000000E+00  0.23369725791E+02  0.23404208672E+02  0.12700000000E+01 0.  1.
          4   -1    0    0  501    0  0.00000000000E+00 -0.00000000000E+00 -0.16700497220E+03  0.16700980103E+03  0.12700000000E+01 0.  1.
         25    2    1    2    0    0  0.00000000000E+00  0.00000000000E+00 -0.14363524641E+03  0.19041400970E+03  0.12500564419E+03 0.  0.
    9000005    1    3    3    0    0  0.22070280296E+02 -0.14755982901E+02  0.14360348866E+02  0.30200263629E+02  0.10000000000E+01 0.  0.
    9000005    1    3    3    0    0 -0.22070280296E+02  0.14755982901E+02 -0.15799559528E+03  0.16021374607E+03  0.10000000000E+01 0.  0.
<mgrwt>
<rscale>  0 0.12500564E+03</rscale>
<asrwt>0</asrwt>
<pdfrwt beam="2">  1        4 0.25696096E-01 0.12500564E+03</pdfrwt>
<pdfrwt beam="1">  1       -4 0.35983665E-02 0.12500564E+03</pdfrwt>
<totfact> 0.91763727E+03</totfact>
</mgrwt>
</event>
<event>
 5    1  0.3188180E-002  0.1249951E+03  0.7818608E-02  0.1235077E+00
         -4   -1    0    0    0  501 -0.00000000000E+00  0.00000000000E+00  0.36178947783E+02  0.36201231508E+02  0.12700000000E+01 0. -1.
          4   -1    0    0  501    0  0.00000000000E+00 -0.00000000000E+00 -0.10790259696E+03  0.10791007058E+03  0.12700000000E+01 0. -1.
         25    2    1    2    0    0  0.00000000000E+00  0.00000000000E+00 -0.71723649181E+02  0.14411130208E+03  0.12499514205E+03 0.  0.
    9000005    1    3    3    0    0  0.10102746133E+02 -0.15261492298E+02  0.33025140955E+02  0.37770869220E+02  0.10000000000E+01 0.  0.
    9000005    1    3    3    0    0 -0.10102746133E+02  0.15261492298E+02 -0.10474879014E+03  0.10634043286E+03  0.10000000000E+01 0.  0.
<mgrwt>
<rscale>  0 0.12499514E+03</rscale>
<asrwt>0</asrwt>
<pdfrwt beam="2">  1        4 0.16602688E-01 0.12499514E+03</pdfrwt>
<pdfrwt beam="1">  1       -4 0.55682810E-02 0.12499514E+03</pdfrwt>
<totfact> 0.10050176E+04</totfact>
</mgrwt>
</event>
<event>
 5    1  0.3188180E-002  0.1250069E+03  0.7818608E-02  0.1235059E+00
         -4   -1    0    0    0  501 -0.00000000000E+00  0.00000000000E+00  0.28886427873E+03  0.28886707051E+03  0.12700000000E+01 0. -1.
          4   -1    0    0  501    0  0.00000000000E+00 -0.00000000000E+00 -0.13491599375E+02  0.13551241776E+02  0.12700000000E+01 0. -1.
         25    2    1    2    0    0  0.00000000000E+00  0.00000000000E+00  0.27537267936E+03  0.30241831229E+03  0.12500689210E+03 0.  0.
    9000005    1    3    3    0    0  0.44903207603E+02 -0.42596163303E+02  0.15863029723E+03  0.17028007042E+03  0.10000000000E+01 0.  0.
    9000005    1    3    3    0    0 -0.44903207603E+02  0.42596163303E+02  0.11674238212E+03  0.13213824187E+03  0.10000000000E+01 0.  0.
<mgrwt>
<rscale>  0 0.12500689E+03</rscale>
<asrwt>0</asrwt>
<pdfrwt beam="2">  1        4 0.20804334E-02 0.12500689E+03</pdfrwt>
<pdfrwt beam="1">  1       -4 0.44445459E-01 0.12500689E+03</pdfrwt>
<totfact> 0.75284971E+03</totfact>
</mgrwt>
</event>
<event>
 4    1  0.3188180E-002  0.1248205E+03  0.7818608E-02  0.1235350E+00
         -4   -1    0    0    0  501 -0.00000000000E+00  0.00000000000E+00  0.60602444641E+01  0.61918868663E+01  0.12700000000E+01 0. -1.
          4   -1    0    0  501    0  0.00000000000E+00 -0.00000000000E+00 -0.63568195897E+03  0.63568322760E+03  0.12700000000E+01 0. -1.
    9000005    1    1    2    0    0  0.51788614730E+02 -0.53465759346E+01 -0.49171139286E+03  0.49446106051E+03  0.10000000000E+01 0.  0.
    9000005    1    1    2    0    0 -0.51788614730E+02  0.53465759346E+01 -0.13791032164E+03  0.14741405396E+03  0.10000000000E+01 0.  0.
<mgrwt>
<rscale>  0 0.12482051E+03</rscale>
<asrwt>0</asrwt>
<pdfrwt beam="2">  1        4 0.97807396E-01 0.12482051E+03</pdfrwt>
<pdfrwt beam="1">  1       -4 0.94256973E-03 0.12482051E+03</pdfrwt>
<totfact> 0.46509250E+03</totfact>
</mgrwt>
</event>
<event>
 5    1  0.3188180E-002  0.1249988E+03  0.7818608E-02  0.1235071E+00
         -4   -1    0    0    0  501 -0.00000000000E+00  0.00000000000E+00  0.37846984280E+02  0.37868286456E+02  0.12700000000E+01 0.  1.
          4   -1    0    0  501    0  0.00000000000E+00 -0.00000000000E+00 -0.10315542761E+03  0.10316324513E+03  0.12700000000E+01 0.  1.
         25    2    1    2    0    0  0.00000000000E+00  0.00000000000E+00 -0.65308443331E+02  0.14103153159E+03  0.12499880052E+03 0.  0.
    9000005    1    3    3    0    0  0.13602147527E+02 -0.15731944208E+02 -0.99141976567E+02  0.10130470869E+03  0.10000000000E+01 0.  0.
    9000005    1    3    3    0    0 -0.13602147527E+02  0.15731944208E+02  0.33833533236E+02  0.39726822892E+02  0.10000000000E+01 0.  0.
<mgrwt>
<rscale>  0 0.12499880E+03</rscale>
<asrwt>0</asrwt>
<pdfrwt beam="2">  1        4 0.15872306E-01 0.12499880E+03</pdfrwt>
<pdfrwt beam="1">  1       -4 0.58248530E-02 0.12499880E+03</pdfrwt>
<totfact> 0.10112525E+04</totfact>
</mgrwt>
</event>
<event>
 5    1  0.3188180E-002  0.1249963E+03  0.7818608E-02  0.1235075E+00
          4   -1    0    0  501    0  0.00000000000E+00  0.00000000000E+00  0.52363101905E+02  0.52378500753E+02  0.12700000000E+01 0.  1.
         -4   -1    0    0    0  501 -0.00000000000E+00 -0.00000000000E+00 -0.74563116063E+02  0.74573930948E+02  0.12700000000E+01 0.  1.
         25    2    1    2    0    0  0.00000000000E+00  0.00000000000E+00 -0.22200014158E+02  0.12695243170E+03  0.12499631709E+03 0.  0.
    9000005    1    3    3    0    0 -0.12154793799E+02 -0.60152794752E+02  0.87096630966E+00  0.61382866592E+02  0.10000000000E+01 0.  0.
    9000005    1    3    3    0    0  0.12154793799E+02  0.60152794752E+02 -0.23070980468E+02  0.65569565108E+02  0.10000000000E+01 0.  0.
<mgrwt>
<rscale>  0 0.12499632E+03</rscale>
<asrwt>0</asrwt>
<pdfrwt beam="1">  1        4 0.80578783E-02 0.12499632E+03</pdfrwt>
<pdfrwt beam="2">  1       -4 0.11473265E-01 0.12499632E+03</pdfrwt>
<totfact> 0.10411045E+04</totfact>
</mgrwt>
</event>
<event>
 5    1  0.3188180E-002  0.1250000E+03  0.7818608E-02  0.1235069E+00
         -4   -1    0    0    0  501 -0.00000000000E+00  0.00000000000E+00  0.41772977957E+02  0.41792279041E+02  0.12700000000E+01 0.  1.
          4   -1    0    0  501    0  0.00000000000E+00 -0.00000000000E+00 -0.93466230533E+02  0.93474858385E+02  0.12700000000E+01 0.  1.
         25    2    1    2    0    0  0.00000000000E+00  0.00000000000E+00 -0.51693252576E+02  0.13526713743E+03  0.12500002442E+03 0.  0.
    9000005    1    3    3    0    0 -0.21706628429E+02  0.48218802664E+02 -0.61883911145E+02  0.81405461160E+02  0.10000000000E+01 0.  0.
    9000005    1    3    3    0    0  0.21706628429E+02 -0.48218802664E+02  0.10190658569E+02  0.53861676266E+02  0.10000000000E+01 0.  0.
<mgrwt>
<rscale>  0 0.12500002E+03</rscale>
<asrwt>0</asrwt>
<pdfrwt beam="2">  1        4 0.14381568E-01 0.12500002E+03</pdfrwt>
<pdfrwt beam="1">  1       -4 0.64287604E-02 0.12500002E+03</pdfrwt>
<totfact> 0.10232438E+04</totfact>
</mgrwt>
</event>
<event>
 5    1  0.3188180E-002  0.1249972E+03  0.7818608E-02  0.1235074E+00
         -4   -1    0    0    0  501 -0.00000000000E+00  0.00000000000E+00  0.11842238858E+03  0.11842919833E+03  0.12700000000E+01 0.  1.
          4   -1    0    0  501    0  0.00000000000E+00 -0.00000000000E+00 -0.32964274584E+02  0.32988729877E+02  0.12700000000E+01 0.  1.
         25    2    1    2    0    0  0.00000000000E+00  0.00000000000E+00  0.85458113996E+02  0.15141792821E+03  0.12499719891E+03 0.  0.
    9000005    1    3    3    0    0  0.10050648679E+02 -0.61471314738E+02  0.36631534552E+02  0.72267609606E+02  0.10000000000E+01 0.  0.
    9000005    1    3    3    0    0 -0.10050648679E+02  0.61471314738E+02  0.48826579443E+02  0.79150318601E+02  0.10000000000E+01 0.  0.
<mgrwt>
<rscale>  0 0.12499720E+03</rscale>
<asrwt>0</asrwt>
<pdfrwt beam="2">  1        4 0.50738319E-02 0.12499720E+03</pdfrwt>
<pdfrwt beam="1">  1       -4 0.18221234E-01 0.12499720E+03</pdfrwt>
<totfact> 0.99028045E+03</totfact>
</mgrwt>
</event>
<event>
 5    1  0.3188180E-002  0.1249997E+03  0.7818608E-02  0.1235070E+00
          4   -1    0    0  501    0  0.00000000000E+00  0.00000000000E+00  0.28982383130E+01  0.31642827495E+01  0.12700000000E+01 0. -1.
         -4   -1    0    0    0  501 -0.00000000000E+00 -0.00000000000E+00 -0.12883826131E+04  0.12883832391E+04  0.12700000000E+01 0. -1.
         25    2    1    2    0    0  0.00000000000E+00  0.00000000000E+00 -0.12854843748E+04  0.12915475218E+04  0.12499969288E+03 0.  0.
    9000005    1    3    3    0    0  0.39765571196E+02  0.25318584193E+01 -0.11401506564E+04  0.11408471546E+04  0.10000000000E+01 0.  0.
    9000005    1    3    3    0    0 -0.39765571196E+02 -0.25318584193E+01 -0.14533371845E+03  0.15070036721E+03  0.10000000000E+01 0.  0.
<mgrwt>
<rscale>  0 0.12499969E+03</rscale>
<asrwt>0</asrwt>
<pdfrwt beam="1">  1        4 0.46639695E-03 0.12499969E+03</pdfrwt>
<pdfrwt beam="2">  1       -4 0.19823279E+00 0.12499969E+03</pdfrwt>
<totfact> 0.22429108E+03</totfact>
</mgrwt>
</event>
<event>
 5    1  0.3188180E-002  0.1249514E+03  0.7818608E-02  0.1235145E+00
          4   -1    0    0  501    0  0.00000000000E+00  0.00000000000E+00  0.42855633944E+03  0.42855822122E+03  0.12700000000E+01 0. -1.
         -4   -1    0    0    0  501 -0.00000000000E+00 -0.00000000000E+00 -0.90616347331E+01  0.91501980326E+01  0.12700000000E+01 0. -1.
         25    2    1    2    0    0  0.00000000000E+00  0.00000000000E+00  0.41949470471E+03  0.43770841925E+03  0.12495140258E+03 0.  0.
    9000005    1    3    3    0    0  0.28321515586E+02  0.55206089791E+02  0.23510324909E+03  0.24315500885E+03  0.10000000000E+01 0.  0.
    9000005    1    3    3    0    0 -0.28321515586E+02 -0.55206089791E+02  0.18439145562E+03  0.19455341041E+03  0.10000000000E+01 0.  0.
<mgrwt>
<rscale>  0 0.12495140E+03</rscale>
<asrwt>0</asrwt>
<pdfrwt beam="1">  1        4 0.65938696E-01 0.12495140E+03</pdfrwt>
<pdfrwt beam="2">  1       -4 0.14010551E-02 0.12495140E+03</pdfrwt>
<totfact> 0.61108867E+03</totfact>
</mgrwt>
</event>
<event>
 5    1  0.3188180E-002  0.1249961E+03  0.7818608E-02  0.1235075E+00
          4   -1    0    0  501    0  0.00000000000E+00  0.00000000000E+00  0.59387238417E+01  0.60730009772E+01  0.12700000000E+01 0.  1.
         -4   -1    0    0    0  501 -0.00000000000E+00 -0.00000000000E+00 -0.65023092400E+03  0.65023216425E+03  0.12700000000E+01 0.  1.
         25    2    1    2    0    0  0.00000000000E+00  0.00000000000E+00 -0.64429220015E+03  0.65630516522E+03  0.12499612282E+03 0.  0.
    9000005    1    3    3    0    0 -0.30841346141E+02 -0.38645837160E+02 -0.52279327378E+03  0.52512712410E+03  0.10000000000E+01 0.  0.
    9000005    1    3    3    0    0  0.30841346141E+02  0.38645837160E+02 -0.12149892638E+03  0.13117804112E+03  0.10000000000E+01 0.  0.
<mgrwt>
<rscale>  0 0.12499612E+03</rscale>
<asrwt>0</asrwt>
<pdfrwt beam="1">  1        4 0.92407475E-03 0.12499612E+03</pdfrwt>
<pdfrwt beam="2">  1       -4 0.10004590E+00 0.12499612E+03</pdfrwt>
<totfact> 0.45499434E+03</totfact>
</mgrwt>
</event>
<event>
 5    1  0.3188180E-002  0.1249946E+03  0.7818608E-02  0.1235078E+00
          4   -1    0    0  501    0  0.00000000000E+00  0.00000000000E+00  0.99217548925E+02  0.99225676690E+02  0.12700000000E+01 0. -1.
         -4   -1    0    0    0  501 -0.00000000000E+00 -0.00000000000E+00 -0.39347184658E+02  0.39367675072E+02  0.12700000000E+01 0. -1.
         25    2    1    2    0    0  0.00000000000E+00  0.00000000000E+00  0.59870364266E+02  0.13859335176E+03  0.12499462643E+03 0.  0.
    9000005    1    3    3    0    0  0.26753540911E+02 -0.39688427568E+02 -0.14610088236E+02  0.50053750232E+02  0.10000000000E+01 0.  0.
    9000005    1    3    3    0    0 -0.26753540911E+02  0.39688427568E+02  0.74480452502E+02  0.88539601529E+02  0.10000000000E+01 0.  0.
<mgrwt>
<rscale>  0 0.12499463E+03</rscale>
<asrwt>0</asrwt>
<pdfrwt beam="1">  1        4 0.15266440E-01 0.12499463E+03</pdfrwt>
<pdfrwt beam="2">  1       -4 0.60556144E-02 0.12499463E+03</pdfrwt>
<totfact> 0.10164053E+04</totfact>
</mgrwt>
</event>
<event>
 5    1  0.3188180E-002  0.1250008E+03  0.7818608E-02  0.1235068E+00
          4   -1    0    0  501    0  0.00000000000E+00  0.00000000000E+00  0.46574478808E+02  0.46591790868E+02  0.12700000000E+01 0. -1.
         -4   -1    0    0    0  501 -0.00000000000E+00 -0.00000000000E+00 -0.83834344293E+02  0.83843963307E+02  0.12700000000E+01 0. -1.
         25    2    1    2    0    0  0.00000000000E+00  0.00000000000E+00 -0.37259865485E+02  0.13043575417E+03  0.12500075356E+03 0.  0.
    9000005    1    3    3    0    0  0.15505391016E+02 -0.58374881743E+02 -0.35366421696E+02  0.69998769650E+02  0.10000000000E+01 0.  0.
    9000005    1    3    3    0    0 -0.15505391016E+02  0.58374881743E+02 -0.18934437892E+01  0.60436984524E+02  0.10000000000E+01 0.  0.
<mgrwt>
<rscale>  0 0.12500075E+03</rscale>
<asrwt>0</asrwt>
<pdfrwt beam="1">  1        4 0.71673761E-02 0.12500075E+03</pdfrwt>
<pdfrwt beam="2">  1       -4 0.12899663E-01 0.12500075E+03</pdfrwt>
<totfact> 0.10335019E+04</totfact>
</mgrwt>
</event>
<event>
 5    1  0.3188180E-002  0.1249971E+03  0.7818608E-02  0.1235074E+00
          4   -1    0    0  501    0  0.00000000000E+00  0.00000000000E+00  0.13922463861E+02  0.13980268236E+02  0.12700000000E+01 0. -1.
         -4   -1    0    0    0  501 -0.00000000000E+00 -0.00000000000E+00 -0.27991833180E+03  0.27992121281E+03  0.12700000000E+01 0. -1.
         25    2    1    2    0    0  0.00000000000E+00  0.00000000000E+00 -0.26599586794E+03  0.29390148104E+03  0.12499711515E+03 0.  0.
    9000005    1    3    3    0    0  0.95072507138E+01 -0.54568933959E+02 -0.20101877967E+03  0.20851308388E+03  0.10000000000E+01 0.  0.
    9000005    1    3    3    0    0 -0.95072507138E+01  0.54568933959E+02 -0.64977088274E+02  0.85388397163E+02  0.10000000000E+01 0.  0.
<mgrwt>
<rscale>  0 0.12499712E+03</rscale>
<asrwt>0</asrwt>
<pdfrwt beam="1">  1        4 0.21465858E-02 0.12499712E+03</pdfrwt>
<pdfrwt beam="2">  1       -4 0.43069023E-01 0.12499712E+03</pdfrwt>
<totfact> 0.76375144E+03</totfact>
</mgrwt>
</event>
<event>
 5    1  0.3188180E-002  0.1249993E+03  0.7818608E-02  0.1235070E+00
         -4   -1    0    0    0  501 -0.00000000000E+00  0.00000000000E+00  0.23354066365E+02  0.23388572333E+02  0.12700000000E+01 0.  1.
          4   -1    0    0  501    0  0.00000000000E+00 -0.00000000000E+00 -0.16709969915E+03  0.16710452524E+03  0.12700000000E+01 0.  1.
         25    2    1    2    0    0  0.00000000000E+00  0.00000000000E+00 -0.14374563278E+03  0.19049309757E+03  0.12499925311E+03 0.  0.
    9000005    1    3    3    0    0 -0.48753431773E+02 -0.14941257351E+02 -0.12692669280E+03  0.13679007137E+03  0.10000000000E+01 0.  0.
    9000005    1    3    3    0    0  0.48753431773E+02  0.14941257351E+02 -0.16818939983E+02  0.53703026200E+02  0.10000000000E+01 0.  0.
<mgrwt>
<rscale>  0 0.12499925E+03</rscale>
<asrwt>0</asrwt>
<pdfrwt beam="2">  1        4 0.25710671E-01 0.12499925E+03</pdfrwt>
<pdfrwt beam="1">  1       -4 0.35959589E-02 0.12499925E+03</pdfrwt>
<totfact> 0.91763123E+03</totfact>
</mgrwt>
</event>
<event>
 5    1  0.3188180E-002  0.1249898E+03  0.7818608E-02  0.1235085E+00
          4   -1    0    0  501    0  0.00000000000E+00  0.00000000000E+00  0.64817740932E+03  0.64817865350E+03  0.12700000000E+01 0. -1.
         -4   -1    0    0    0  501 -0.00000000000E+00 -0.00000000000E+00 -0.59573449415E+01  0.60912115997E+01  0.12700000000E+01 0. -1.
         25    2    1    2    0    0  0.00000000000E+00  0.00000000000E+00  0.64222006438E+03  0.65426986510E+03  0.12498978073E+03 0.  0.
    9000005    1    3    3    0    0 -0.65635595176E+01 -0.62099646127E+02  0.30921362405E+03  0.31545762261E+03  0.10000000000E+01 0.  0.
    9000005    1    3    3    0    0  0.65635595176E+01  0.62099646127E+02  0.33300644032E+03  0.33881224249E+03  0.10000000000E+01 0.  0.
<mgrwt>
<rscale>  0 0.12498978E+03</rscale>
<asrwt>0</asrwt>
<pdfrwt beam="1">  1        4 0.99729973E-01 0.12498978E+03</pdfrwt>
<pdfrwt beam="2">  1       -4 0.92690795E-03 0.12498978E+03</pdfrwt>
<totfact> 0.45621834E+03</totfact>
</mgrwt>
</event>
<event>
 5    1  0.3188180E-002  0.1250017E+03  0.7818608E-02  0.1235067E+00
         -4   -1    0    0    0  501 -0.00000000000E+00  0.00000000000E+00  0.20765987035E+03  0.20766375383E+03  0.12700000000E+01 0. -1.
          4   -1    0    0  501    0  0.00000000000E+00 -0.00000000000E+00 -0.18785810162E+02  0.18828689903E+02  0.12700000000E+01 0. -1.
         25    2    1    2    0    0  0.00000000000E+00  0.00000000000E+00  0.18887406019E+03  0.22649244373E+03  0.12500166581E+03 0.  0.
    9000005    1    3    3    0    0  0.13063809495E+01  0.44140794613E+02  0.17455643263E+03  0.18005850314E+03  0.10000000000E+01 0.  0.
    9000005    1    3    3    0    0 -0.13063809495E+01 -0.44140794613E+02  0.14317627563E+02  0.46433940596E+02  0.10000000000E+01 0.  0.
<mgrwt>
<rscale>  0 0.12500167E+03</rscale>
<asrwt>0</asrwt>
<pdfrwt beam="2">  1        4 0.28937216E-02 0.12500167E+03</pdfrwt>
<pdfrwt beam="1">  1       -4 0.31951272E-01 0.12500167E+03</pdfrwt>
<totfact> 0.85847917E+03</totfact>
</mgrwt>
</event>
<event>
 5    1  0.3188180E-002  0.1250074E+03  0.7818608E-02  0.1235058E+00
         -4   -1    0    0    0  501 -0.00000000000E+00  0.00000000000E+00  0.56317817873E+02  0.56332135677E+02  0.12700000000E+01 0.  1.
          4   -1    0    0  501    0  0.00000000000E+00 -0.00000000000E+00 -0.69340109748E+02  0.69351739126E+02  0.12700000000E+01 0.  1.
         25    2    1    2    0    0  0.00000000000E+00  0.00000000000E+00 -0.13022291875E+02  0.12568387480E+03  0.12500742498E+03 0.  0.
    9000005    1    3    3    0    0  0.48130654296E+02  0.37717954275E+02  0.64625604686E+01  0.61497712522E+02  0.10000000000E+01 0.  0.
    9000005    1    3    3    0    0 -0.48130654296E+02 -0.37717954275E+02 -0.19484852344E+02  0.64186162282E+02  0.10000000000E+01 0.  0.
<mgrwt>
<rscale>  0 0.12500742E+03</rscale>
<asrwt>0</asrwt>
<pdfrwt beam="2">  1        4 0.10669705E-01 0.12500742E+03</pdfrwt>
<pdfrwt beam="1">  1       -4 0.86662756E-02 0.12500742E+03</pdfrwt>
<totfact> 0.10436151E+04</totfact>
</mgrwt>
</event>
<event>
 5    1  0.3188180E-002  0.1250010E+03  0.7818608E-02  0.1235068E+00
          4   -1    0    0  501    0  0.00000000000E+00  0.00000000000E+00  0.33348796059E+02  0.33372969580E+02  0.12700000000E+01 0. -1.
         -4   -1    0    0    0  501 -0.00000000000E+00 -0.00000000000E+00 -0.11706496033E+03  0.11707184903E+03  0.12700000000E+01 0. -1.
         25    2    1    2    0    0  0.00000000000E+00  0.00000000000E+00 -0.83716164267E+02  0.15044481861E+03  0.12500098915E+03 0.  0.
    9000005    1    3    3    0    0  0.19459958781E+02  0.32339623839E+02 -0.10180365084E+03  0.10857957723E+03  0.10000000000E+01 0.  0.
    9000005    1    3    3    0    0 -0.19459958781E+02 -0.32339623839E+02  0.18087486576E+02  0.41865241387E+02  0.10000000000E+01 0.  0.
<mgrwt>
<rscale>  0 0.12500099E+03</rscale>
<asrwt>0</asrwt>
<pdfrwt beam="1">  1        4 0.51329735E-02 0.12500099E+03</pdfrwt>
<pdfrwt beam="2">  1       -4 0.18012383E-01 0.12500099E+03</pdfrwt>
<totfact> 0.99212896E+03</totfact>
</mgrwt>
</event>
<event>
 5    1  0.3188180E-002  0.1249978E+03  0.7818608E-02  0.1235073E+00
          4   -1    0    0  501    0  0.00000000000E+00  0.00000000000E+00  0.21857835998E+02  0.21894700147E+02  0.12700000000E+01 0. -1.
         -4   -1    0    0    0  501 -0.00000000000E+00 -0.00000000000E+00 -0.17851562025E+03  0.17852013773E+03  0.12700000000E+01 0. -1.
         25    2    1    2    0    0  0.00000000000E+00  0.00000000000E+00 -0.15665778425E+03  0.20041483787E+03  0.12499778347E+03 0.  0.
    9000005    1    3    3    0    0  0.34942716326E+01 -0.61776063429E+02 -0.64294381415E+02  0.89237096707E+02  0.10000000000E+01 0.  0.
    9000005    1    3    3    0    0 -0.34942716326E+01  0.61776063429E+02 -0.92363402838E+02  0.11117774117E+03  0.10000000000E+01 0.  0.
<mgrwt>
<rscale>  0 0.12499778E+03</rscale>
<asrwt>0</asrwt>
<pdfrwt beam="1">  1        4 0.33659273E-02 0.12499778E+03</pdfrwt>
<pdfrwt beam="2">  1       -4 0.27467124E-01 0.12499778E+03</pdfrwt>
<totfact> 0.90070055E+03</totfact>
</mgrwt>
</event>
<event>
 5    1  0.3188180E-002  0.1249800E+03  0.7818608E-02  0.1235100E+00
         -4   -1    0    0    0  501 -0.00000000000E+00  0.00000000000E+00  0.10086319252E+02  0.10165959673E+02  0.12700000000E+01 0.  1.
          4   -1    0    0  501    0  0.00000000000E+00 -0.00000000000E+00 -0.38555511435E+03  0.38555720600E+03  0.12700000000E+01 0.  1.
         25    2    1    2    0    0  0.00000000000E+00  0.00000000000E+00 -0.37546879509E+03  0.39572316567E+03  0.12498002945E+03 0.  0.
    9000005    1    3    3    0    0 -0.99123101429E+01  0.56154098193E+02 -0.10685655400E+03  0.12112332463E+03  0.10000000000E+01 0.  0.
    9000005    1    3    3    0    0  0.99123101429E+01 -0.56154098193E+02 -0.26861224109E+03  0.27459984105E+03  0.10000000000E+01 0.  0.
<mgrwt>
<rscale>  0 0.12498003E+03</rscale>
<asrwt>0</asrwt>
<pdfrwt beam="2">  1        4 0.59322447E-01 0.12498003E+03</pdfrwt>
<pdfrwt beam="1">  1       -4 0.15580288E-02 0.12498003E+03</pdfrwt>
<totfact> 0.64999549E+03</totfact>
</mgrwt>
</event>
<event>
 5    1  0.3188180E-002  0.1250011E+03  0.7818608E-02  0.1235068E+00
         -4   -1    0    0    0  501 -0.00000000000E+00  0.00000000000E+00  0.33902198529E+01  0.36202887525E+01  0.12700000000E+01 0. -1.
          4   -1    0    0  501    0  0.00000000000E+00 -0.00000000000E+00 -0.11141877957E+04  0.11141885195E+04  0.12700000000E+01 0. -1.
         25    2    1    2    0    0  0.00000000000E+00  0.00000000000E+00 -0.11107975759E+04  0.11178088083E+04  0.12500110920E+03 0.  0.
    9000005    1    3    3    0    0  0.41632798106E+02  0.37378366358E+02 -0.80432629934E+03  0.80627056746E+03  0.10000000000E+01 0.  0.
    9000005    1    3    3    0    0 -0.41632798106E+02 -0.37378366358E+02 -0.30647127651E+03  0.31153824080E+03  0.10000000000E+01 0.  0.
<mgrwt>
<rscale>  0 0.12500111E+03</rscale>
<asrwt>0</asrwt>
<pdfrwt beam="2">  1        4 0.17143098E+00 0.12500111E+03</pdfrwt>
<pdfrwt beam="1">  1       -4 0.53932646E-03 0.12500111E+03</pdfrwt>
<totfact> 0.26967343E+03</totfact>
</mgrwt>
</event>
<event>
 5    1  0.3188180E-002  0.1250040E+03  0.7818608E-02  0.1235063E+00
          4   -1    0    0  501    0  0.00000000000E+00  0.00000000000E+00  0.21013620687E+03  0.21014004459E+03  0.12700000000E+01 0.  1.
         -4   -1    0    0    0  501 -0.00000000000E+00 -0.00000000000E+00 -0.18564619552E+02  0.18608009005E+02  0.12700000000E+01 0.  1.
         25    2    1    2    0    0  0.00000000000E+00  0.00000000000E+00  0.19157158732E+03  0.22874805359E+03  0.12500399575E+03 0.  0.
    9000005    1    3    3    0    0  0.15763044277E+02 -0.59407870038E+02  0.75104298871E+02  0.97053718611E+02  0.10000000000E+01 0.  0.
    9000005    1    3    3    0    0 -0.15763044277E+02  0.59407870038E+02  0.11646728845E+03  0.13169433498E+03  0.10000000000E+01 0.  0.
<mgrwt>
<rscale>  0 0.12500400E+03</rscale>
<asrwt>0</asrwt>
<pdfrwt beam="1">  1        4 0.32332278E-01 0.12500400E+03</pdfrwt>
<pdfrwt beam="2">  1       -4 0.28597283E-02 0.12500400E+03</pdfrwt>
<totfact> 0.85494584E+03</totfact>
</mgrwt>
</event>
<event>
 5    1  0.3188180E-002  0.1249906E+03  0.7818608E-02  0.1235084E+00
          4   -1    0    0  501    0  0.00000000000E+00  0.00000000000E+00  0.26884884755E+02  0.26914864449E+02  0.12700000000E+01 0. -1.
         -4   -1    0    0    0  501 -0.00000000000E+00 -0.00000000000E+00 -0.14515989297E+03  0.14516544846E+03  0.12700000000E+01 0. -1.
         25    2    1    2    0    0  0.00000000000E+00  0.00000000000E+00 -0.11827500821E+03  0.17208031291E+03  0.12499062574E+03 0.  0.
    9000005    1    3    3    0    0  0.44830295036E+02 -0.40646835897E+02 -0.37687491200E+02  0.71297037908E+02  0.10000000000E+01 0.  0.
    9000005    1    3    3    0    0 -0.44830295036E+02  0.40646835897E+02 -0.80587517011E+02  0.10078327500E+03  0.10000000000E+01 0.  0.
<mgrwt>
<rscale>  0 0.12499063E+03</rscale>
<asrwt>0</asrwt>
<pdfrwt beam="1">  1        4 0.41388697E-02 0.12499063E+03</pdfrwt>
<pdfrwt beam="2">  1       -4 0.22335024E-01 0.12499063E+03</pdfrwt>
<totfact> 0.95082311E+03</totfact>
</mgrwt>
</event>
<event>
 5    1  0.3188180E-002  0.1249959E+03  0.7818608E-02  0.1235076E+00
         -4   -1    0    0    0  501 -0.00000000000E+00  0.00000000000E+00  0.12971544526E+03  0.12972166219E+03  0.12700000000E+01 0.  1.
          4   -1    0    0  501    0  0.00000000000E+00 -0.00000000000E+00 -0.30091667708E+02  0.30118455562E+02  0.12700000000E+01 0.  1.
         25    2    1    2    0    0  0.00000000000E+00  0.00000000000E+00  0.99623777556E+02  0.15984011775E+03  0.12499586468E+03 0.  0.
    9000005    1    3    3    0    0  0.13526910881E+02  0.60999784714E+02  0.51116285984E+02  0.80733052376E+02  0.10000000000E+01 0.  0.
    9000005    1    3    3    0    0 -0.13526910881E+02 -0.60999784714E+02  0.48507491572E+02  0.79107065372E+02  0.10000000000E+01 0.  0.
<mgrwt>
<rscale>  0 0.12499586E+03</rscale>
<asrwt>0</asrwt>
<pdfrwt beam="2">  1        4 0.46320261E-02 0.12499586E+03</pdfrwt>
<pdfrwt beam="1">  1       -4 0.19958762E-01 0.12499586E+03</pdfrwt>
<totfact> 0.97382669E+03</totfact>
</mgrwt>
</event>
<event>
 5    1  0.3188180E-002  0.1250024E+03  0.7818608E-02  0.1235066E+00
          4   -1    0    0  501    0  0.00000000000E+00  0.00000000000E+00  0.23837574338E+04  0.23837577721E+04  0.12700000000E+01 0.  1.
         -4   -1    0    0    0  501 -0.00000000000E+00 -0.00000000000E+00 -0.13923125291E+01  0.18845249212E+01  0.12700000000E+01 0.  1.
         25    2    1    2    0    0  0.00000000000E+00  0.00000000000E+00  0.23823651213E+04  0.23856422970E+04  0.12500239333E+03 0.  0.
    9000005    1    3    3    0    0  0.23088866507E+02  0.56263286897E+02  0.14655963621E+04  0.14668579856E+04  0.10000000000E+01 0.  0.
    9000005    1    3    3    0    0 -0.23088866507E+02 -0.56263286897E+02  0.91676875915E+03  0.91878431145E+03  0.10000000000E+01 0.  0.
<mgrwt>
<rscale>  0 0.12500239E+03</rscale>
<asrwt>0</asrwt>
<pdfrwt beam="1">  1        4 0.36676937E+00 0.12500239E+03</pdfrwt>
<pdfrwt beam="2">  1       -4 0.25209074E-03 0.12500239E+03</pdfrwt>
<totfact> 0.56307949E+02</totfact>
</mgrwt>
</event>
<event>
 5    1  0.3188180E-002  0.1250168E+03  0.7818608E-02  0.1235043E+00
          4   -1    0    0  501    0  0.00000000000E+00  0.00000000000E+00  0.81374137679E+03  0.81374236783E+03  0.12700000000E+01 0. -1.
         -4   -1    0    0    0  501 -0.00000000000E+00 -0.00000000000E+00 -0.47166587094E+01  0.48846462902E+01  0.12700000000E+01 0. -1.
         25    2    1    2    0    0  0.00000000000E+00  0.00000000000E+00  0.80902471808E+03  0.81862701412E+03  0.12501677400E+03 0.  0.
    9000005    1    3    3    0    0  0.84814795676E+01  0.61367312785E+02  0.45867454876E+03  0.46284038745E+03  0.10000000000E+01 0.  0.
    9000005    1    3    3    0    0 -0.84814795676E+01 -0.61367312785E+02  0.35035016931E+03  0.35578662666E+03  0.10000000000E+01 0.  0.
<mgrwt>
<rscale>  0 0.12501677E+03</rscale>
<asrwt>0</asrwt>
<pdfrwt beam="1">  1        4 0.12520383E+00 0.12501677E+03</pdfrwt>
<pdfrwt beam="2">  1       -4 0.73863905E-03 0.12501677E+03</pdfrwt>
<totfact> 0.37432900E+03</totfact>
</mgrwt>
</event>
<event>
 5    1  0.3188180E-002  0.1249791E+03  0.7818608E-02  0.1235102E+00
         -4   -1    0    0    0  501 -0.00000000000E+00  0.00000000000E+00  0.34839361541E+02  0.34862501525E+02  0.12700000000E+01 0. -1.
          4   -1    0    0  501    0  0.00000000000E+00 -0.00000000000E+00 -0.11202036368E+03  0.11202756259E+03  0.12700000000E+01 0. -1.
         25    2    1    2    0    0  0.00000000000E+00  0.00000000000E+00 -0.77181002141E+02  0.14689006411E+03  0.12497913363E+03 0.  0.
    9000005    1    3    3    0    0 -0.12369222631E+02 -0.61120533065E+02 -0.34003944463E+02  0.71035100265E+02  0.10000000000E+01 0.  0.
    9000005    1    3    3    0    0  0.12369222631E+02  0.61120533065E+02 -0.43177057678E+02  0.75854963848E+02  0.10000000000E+01 0.  0.
<mgrwt>
<rscale>  0 0.12497913E+03</rscale>
<asrwt>0</asrwt>
<pdfrwt beam="2">  1        4 0.17236236E-01 0.12497913E+03</pdfrwt>
<pdfrwt beam="1">  1       -4 0.53622356E-02 0.12497913E+03</pdfrwt>
<totfact> 0.99974227E+03</totfact>
</mgrwt>
</event>
<event>
 5    1  0.3188180E-002  0.1250066E+03  0.7818608E-02  0.1235059E+00
         -4   -1    0    0    0  501 -0.00000000000E+00  0.00000000000E+00  0.27294754227E+02  0.27324284223E+02  0.12700000000E+01 0.  1.
          4   -1    0    0  501    0  0.00000000000E+00 -0.00000000000E+00 -0.14301889053E+03  0.14302452918E+03  0.12700000000E+01 0.  1.
         25    2    1    2    0    0  0.00000000000E+00  0.00000000000E+00 -0.11572413630E+03  0.17034881341E+03  0.12500656985E+03 0.  0.
    9000005    1    3    3    0    0 -0.56866815705E+02  0.18761401894E+02 -0.82232865664E+02  0.10173037464E+03  0.10000000000E+01 0.  0.
    9000005    1    3    3    0    0  0.56866815705E+02 -0.18761401894E+02 -0.33491270637E+02  0.68618438764E+02  0.10000000000E+01 0.  0.
<mgrwt>
<rscale>  0 0.12500657E+03</rscale>
<asrwt>0</asrwt>
<pdfrwt beam="2">  1        4 0.22005611E-01 0.12500657E+03</pdfrwt>
<pdfrwt beam="1">  1       -4 0.42018983E-02 0.12500657E+03</pdfrwt>
<totfact> 0.95369599E+03</totfact>
</mgrwt>
</event>
<event>
 5    1  0.3188180E-002  0.1250022E+03  0.7818608E-02  0.1235066E+00
          4   -1    0    0  501    0  0.00000000000E+00  0.00000000000E+00  0.15825902219E+03  0.15826411787E+03  0.12700000000E+01 0. -1.
         -4   -1    0    0    0  501 -0.00000000000E+00 -0.00000000000E+00 -0.24661663007E+02  0.24694341908E+02  0.12700000000E+01 0. -1.
         25    2    1    2    0    0  0.00000000000E+00  0.00000000000E+00  0.13359735919E+03  0.18295845978E+03  0.12500217447E+03 0.  0.
    9000005    1    3    3    0    0 -0.42754270872E+00  0.10908091047E+02  0.15685986499E+03  0.15724244493E+03  0.10000000000E+01 0.  0.
    9000005    1    3    3    0    0  0.42754270872E+00 -0.10908091047E+02 -0.23262505808E+02  0.25716014845E+02  0.10000000000E+01 0.  0.
<mgrwt>
<rscale>  0 0.12500217E+03</rscale>
<asrwt>0</asrwt>
<pdfrwt beam="1">  1        4 0.24350447E-01 0.12500217E+03</pdfrwt>
<pdfrwt beam="2">  1       -4 0.37970079E-02 0.12500217E+03</pdfrwt>
<totfact> 0.93082629E+03</totfact>
</mgrwt>
</event>
<event>
 5    1  0.3188180E-002  0.1250009E+03  0.7818608E-02  0.1235068E+00
         -4   -1    0    0    0  501 -0.00000000000E+00  0.00000000000E+00  0.79047947057E+02  0.79058148434E+02  0.12700000000E+01 0. -1.
          4   -1    0    0  501    0  0.00000000000E+00 -0.00000000000E+00 -0.49395376469E+02  0.49411700198E+02  0.12700000000E+01 0. -1.
         25    2    1    2    0    0  0.00000000000E+00  0.00000000000E+00  0.29652570588E+02  0.12846984863E+03  0.12500090826E+03 0.  0.
    9000005    1    3    3    0    0  0.11414201368E+02  0.55276920719E+02 -0.12741308337E+02  0.57871952578E+02  0.10000000000E+01 0.  0.
    9000005    1    3    3    0    0 -0.11414201368E+02 -0.55276920719E+02  0.42393878925E+02  0.70597896055E+02  0.10000000000E+01 0.  0.
<mgrwt>
<rscale>  0 0.12500091E+03</rscale>
<asrwt>0</asrwt>
<pdfrwt beam="2">  1        4 0.76013291E-02 0.12500091E+03</pdfrwt>
<pdfrwt beam="1">  1       -4 0.12163263E-01 0.12500091E+03</pdfrwt>
<totfact> 0.10377140E+04</totfact>
</mgrwt>
</event>
<event>
 5    1  0.3188180E-002  0.1249996E+03  0.7818608E-02  0.1235070E+00
         -4   -1    0    0    0  501 -0.00000000000E+00  0.00000000000E+00  0.58546805896E+01  0.59908417444E+01  0.12700000000E+01 0. -1.
          4   -1    0    0  501    0  0.00000000000E+00 -0.00000000000E+00 -0.65939139801E+03  0.65939262103E+03  0.12700000000E+01 0. -1.
         25    2    1    2    0    0  0.00000000000E+00  0.00000000000E+00 -0.65353671742E+03  0.66538346278E+03  0.12499964607E+03 0.  0.
    9000005    1    3    3    0    0  0.79837793150E+00 -0.56305720936E+02 -0.18252791522E+03  0.19101940072E+03  0.10000000000E+01 0.  0.
    9000005    1    3    3    0    0 -0.79837793150E+00  0.56305720936E+02 -0.47100880221E+03  0.47436406206E+03  0.10000000000E+01 0.  0.
<mgrwt>
<rscale>  0 0.12499965E+03</rscale>
<asrwt>0</asrwt>
<pdfrwt beam="2">  1        4 0.10145534E+00 0.12499965E+03</pdfrwt>
<pdfrwt beam="1">  1       -4 0.91128863E-03 0.12499965E+03</pdfrwt>
<totfact> 0.44978434E+03</totfact>
</mgrwt>
</event>
<event>
 5    1  0.3188180E-002  0.1249975E+03  0.7818608E-02  0.1235073E+00
          4   -1    0    0  501    0  0.00000000000E+00  0.00000000000E+00  0.22226207318E+02  0.22262461493E+02  0.12700000000E+01 0.  1.
         -4   -1    0    0    0  501 -0.00000000000E+00 -0.00000000000E+00 -0.17556096368E+03  0.17556555718E+03  0.12700000000E+01 0.  1.
         25    2    1    2    0    0  0.00000000000E+00  0.00000000000E+00 -0.15333475636E+03  0.19782801867E+03  0.12499750983E+03 0.  0.
    9000005    1    3    3    0    0  0.11703341706E+02  0.18783337487E+01  0.20438550273E+02  0.23648058737E+02  0.10000000000E+01 0.  0.
    9000005    1    3    3    0    0 -0.11703341706E+02 -0.18783337487E+01 -0.17377330663E+03  0.17417995993E+03  0.10000000000E+01 0.  0.
<mgrwt>
<rscale>  0 0.12499751E+03</rscale>
<asrwt>0</asrwt>
<pdfrwt beam="1">  1        4 0.34225587E-02 0.12499751E+03</pdfrwt>
<pdfrwt beam="2">  1       -4 0.27012520E-01 0.12499751E+03</pdfrwt>
<totfact> 0.90507867E+03</totfact>
</mgrwt>
</event>
<event>
 5    1  0.3188180E-002  0.1249996E+03  0.7818608E-02  0.1235070E+00
          4   -1    0    0  501    0  0.00000000000E+00  0.00000000000E+00  0.14439091857E+02  0.14494836103E+02  0.12700000000E+01 0.  1.
         -4   -1    0    0    0  501 -0.00000000000E+00 -0.00000000000E+00 -0.26995266238E+03  0.26995564974E+03  0.12700000000E+01 0.  1.
         25    2    1    2    0    0  0.00000000000E+00  0.00000000000E+00 -0.25551357052E+03  0.28445048584E+03  0.12499957669E+03 0.  0.
    9000005    1    3    3    0    0  0.61696216639E+02 -0.80251615572E+01 -0.11441052641E+03  0.13023668806E+03  0.10000000000E+01 0.  0.
    9000005    1    3    3    0    0 -0.61696216639E+02  0.80251615572E+01 -0.14110304411E+03  0.15421379777E+03  0.10000000000E+01 0.  0.
<mgrwt>
<rscale>  0 0.12499958E+03</rscale>
<asrwt>0</asrwt>
<pdfrwt beam="1">  1        4 0.22259168E-02 0.12499958E+03</pdfrwt>
<pdfrwt beam="2">  1       -4 0.41535693E-01 0.12499958E+03</pdfrwt>
<totfact> 0.77592411E+03</totfact>
</mgrwt>
</event>
<event>
 5    1  0.3188180E-002  0.1250028E+03  0.7818608E-02  0.1235065E+00
          4   -1    0    0  501    0  0.00000000000E+00  0.00000000000E+00  0.31729492054E+02  0.31754898300E+02  0.12700000000E+01 0.  1.
         -4   -1    0    0    0  501 -0.00000000000E+00 -0.00000000000E+00 -0.12303865491E+03  0.12304520918E+03  0.12700000000E+01 0.  1.
         25    2    1    2    0    0  0.00000000000E+00  0.00000000000E+00 -0.91309162854E+02  0.15480010748E+03  0.12500284018E+03 0.  0.
    9000005    1    3    3    0    0  0.65487936874E+01 -0.54629477180E+02 -0.82352248756E+02  0.99046248545E+02  0.10000000000E+01 0.  0.
    9000005    1    3    3    0    0 -0.65487936874E+01  0.54629477180E+02 -0.89569140976E+01  0.55753858932E+02  0.10000000000E+01 0.  0.
<mgrwt>
<rscale>  0 0.12500284E+03</rscale>
<asrwt>0</asrwt>
<pdfrwt beam="1">  1        4 0.48839189E-02 0.12500284E+03</pdfrwt>
<pdfrwt beam="2">  1       -4 0.18931482E-01 0.12500284E+03</pdfrwt>
<totfact> 0.98348472E+03</totfact>
</mgrwt>
</event>
<event>
 5    1  0.3188180E-002  0.1250570E+03  0.7818608E-02  0.1234980E+00
         -4   -1    0    0    0  501 -0.00000000000E+00  0.00000000000E+00  0.18086819166E+02  0.18131352061E+02  0.12700000000E+01 0. -1.
          4   -1    0    0  501    0  0.00000000000E+00 -0.00000000000E+00 -0.21585694058E+03  0.21586067659E+03  0.12700000000E+01 0. -1.
         25    2    1    2    0    0  0.00000000000E+00  0.00000000000E+00 -0.19777012141E+03  0.23399202865E+03  0.12505698120E+03 0.  0.
    9000005    1    3    3    0    0 -0.98527316106E+01 -0.53418335620E+02 -0.15680460164E+03  0.16594962488E+03  0.10000000000E+01 0.  0.
    9000005    1    3    3    0    0  0.98527316106E+01  0.53418335620E+02 -0.40965519768E+02  0.68042403767E+02  0.10000000000E+01 0.  0.
<mgrwt>
<rscale>  0 0.12505698E+03</rscale>
<asrwt>0</asrwt>
<pdfrwt beam="2">  1        4 0.33212471E-01 0.12505698E+03</pdfrwt>
<pdfrwt beam="1">  1       -4 0.27863007E-02 0.12505698E+03</pdfrwt>
<totfact> 0.84592806E+03</totfact>
</mgrwt>
</event>
<event>
 5    1  0.3188180E-002  0.1250000E+03  0.7818608E-02  0.1235069E+00
          4   -1    0    0  501    0  0.00000000000E+00  0.00000000000E+00  0.22344308498E+03  0.22344669415E+03  0.12700000000E+01 0.  1.
         -4   -1    0    0    0  501 -0.00000000000E+00 -0.00000000000E+00 -0.17455266680E+02  0.17501406654E+02  0.12700000000E+01 0.  1.
         25    2    1    2    0    0  0.00000000000E+00  0.00000000000E+00  0.20598781830E+03  0.24094810081E+03  0.12500002397E+03 0.  0.
    9000005    1    3    3    0    0  0.64621694262E+01  0.25392349908E+02 -0.63652190703E+01  0.26982347588E+02  0.10000000000E+01 0.  0.
    9000005    1    3    3    0    0 -0.64621694262E+01 -0.25392349908E+02  0.21235303738E+03  0.21396575322E+03  0.10000000000E+01 0.  0.
<mgrwt>
<rscale>  0 0.12500002E+03</rscale>
<asrwt>0</asrwt>
<pdfrwt beam="1">  1        4 0.34379685E-01 0.12500002E+03</pdfrwt>
<pdfrwt beam="2">  1       -4 0.26892526E-02 0.12500002E+03</pdfrwt>
<totfact> 0.83656323E+03</totfact>
</mgrwt>
</event>
<event>
 5    1  0.3188180E-002  0.1250007E+03  0.7818608E-02  0.1235068E+00
         -4   -1    0    0    0  501 -0.00000000000E+00  0.00000000000E+00  0.87160914128E+01  0.88081297400E+01  0.12700000000E+01 0.  1.
          4   -1    0    0  501    0  0.00000000000E+00 -0.00000000000E+00 -0.44572361771E+03  0.44572542701E+03  0.12700000000E+01 0.  1.
         25    2    1    2    0    0  0.00000000000E+00  0.00000000000E+00 -0.43700752630E+03  0.45453355675E+03  0.12500070469E+03 0.  0.
    9000005    1    3    3    0    0  0.55127976309E+02 -0.21349589619E+02 -0.29216765774E+03  0.29809032017E+03  0.10000000000E+01 0.  0.
    9000005    1    3    3    0    0 -0.55127976309E+02  0.21349589619E+02 -0.14483986856E+03  0.15644323658E+03  0.10000000000E+01 0.  0.
<mgrwt>
<rscale>  0 0.12500070E+03</rscale>
<asrwt>0</asrwt>
<pdfrwt beam="2">  1        4 0.68580066E-01 0.12500070E+03</pdfrwt>
<pdfrwt beam="1">  1       -4 0.13481565E-02 0.12500070E+03</pdfrwt>
<totfact> 0.59572139E+03</totfact>
</mgrwt>
</event>
<event>
 5    1  0.3188180E-002  0.1250170E+03  0.7818608E-02  0.1235043E+00
          4   -1    0    0  501    0  0.00000000000E+00  0.00000000000E+00  0.14906865970E+02  0.14960867390E+02  0.12700000000E+01 0.  1.
         -4   -1    0    0    0  501 -0.00000000000E+00 -0.00000000000E+00 -0.26158544525E+03  0.26158852816E+03  0.12700000000E+01 0.  1.
         25    2    1    2    0    0  0.00000000000E+00  0.00000000000E+00 -0.24667857928E+03  0.27654939555E+03  0.12501698567E+03 0.  0.
    9000005    1    3    3    0    0  0.63807362023E+01  0.55691920567E+02 -0.62195464423E+02  0.83735175439E+02  0.10000000000E+01 0.  0.
    9000005    1    3    3    0    0 -0.63807362023E+01 -0.55691920567E+02 -0.18448311486E+03  0.19281422011E+03  0.10000000000E+01 0.  0.
<mgrwt>
<rscale>  0 0.12501699E+03</rscale>
<asrwt>0</asrwt>
<pdfrwt beam="1">  1        4 0.22977553E-02 0.12501699E+03</pdfrwt>
<pdfrwt beam="2">  1       -4 0.40248302E-01 0.12501699E+03</pdfrwt>
<totfact> 0.78608177E+03</totfact>
</mgrwt>
</event>
<event>
 5    1  0.3188180E-002  0.1250027E+03  0.7818608E-02  0.1235065E+00
         -4   -1    0    0    0  501 -0.00000000000E+00  0.00000000000E+00  0.53665377839E+01  0.55147645268E+01  0.12700000000E+01 0. -1.
          4   -1    0    0  501    0  0.00000000000E+00 -0.00000000000E+00 -0.71785700254E+03  0.71785812595E+03  0.12700000000E+01 0. -1.
         25    2    1    2    0    0  0.00000000000E+00  0.00000000000E+00 -0.71249046476E+03  0.72337289048E+03  0.12500270522E+03 0.  0.
    9000005    1    3    3    0    0 -0.17091934507E+02 -0.52738555973E+02 -0.18933379515E+03  0.19728602459E+03  0.10000000000E+01 0.  0.
    9000005    1    3    3    0    0  0.17091934507E+02  0.52738555973E+02 -0.52315666960E+03  0.52608686589E+03  0.10000000000E+01 0.  0.
<mgrwt>
<rscale>  0 0.12500271E+03</rscale>
<asrwt>0</asrwt>
<pdfrwt beam="2">  1        4 0.11045095E+00 0.12500271E+03</pdfrwt>
<pdfrwt beam="1">  1       -4 0.83711024E-03 0.12500271E+03</pdfrwt>
<totfact> 0.41878756E+03</totfact>
</mgrwt>
</event>
<event>
 5    1  0.3188180E-002  0.1249972E+03  0.7818608E-02  0.1235074E+00
          4   -1    0    0  501    0  0.00000000000E+00  0.00000000000E+00  0.13811438151E+03  0.13812022039E+03  0.12700000000E+01 0.  1.
         -4   -1    0    0    0  501 -0.00000000000E+00 -0.00000000000E+00 -0.28260763131E+02  0.28289284769E+02  0.12700000000E+01 0.  1.
         25    2    1    2    0    0  0.00000000000E+00  0.00000000000E+00  0.10985361838E+03  0.16640950516E+03  0.12499722371E+03 0.  0.
    9000005    1    3    3    0    0  0.56175129505E+02 -0.21179344944E+02  0.78018981644E+02  0.98448825914E+02  0.10000000000E+01 0.  0.
    9000005    1    3    3    0    0 -0.56175129505E+02  0.21179344944E+02  0.31834636737E+02  0.67960679244E+02  0.10000000000E+01 0.  0.
<mgrwt>
<rscale>  0 0.12499722E+03</rscale>
<asrwt>0</asrwt>
<pdfrwt beam="1">  1        4 0.21251009E-01 0.12499722E+03</pdfrwt>
<pdfrwt beam="2">  1       -4 0.43504528E-02 0.12499722E+03</pdfrwt>
<totfact> 0.96127113E+03</totfact>
</mgrwt>
</event>
<event>
 5    1  0.3188180E-002  0.1249991E+03  0.7818608E-02  0.1235071E+00
         -4   -1    0    0    0  501 -0.00000000000E+00  0.00000000000E+00  0.12498817666E+03  0.12499462871E+03  0.12700000000E+01 0.  1.
          4   -1    0    0  501    0  0.00000000000E+00 -0.00000000000E+00 -0.31232356423E+02  0.31258166736E+02  0.12700000000E+01 0.  1.
         25    2    1    2    0    0  0.00000000000E+00  0.00000000000E+00  0.93755820240E+02  0.15625279544E+03  0.12499912902E+03 0.  0.
    9000005    1    3    3    0    0 -0.10503594629E+02  0.45670024985E+02 -0.48002383089E+01  0.47118138441E+02  0.10000000000E+01 0.  0.
    9000005    1    3    3    0    0  0.10503594629E+02 -0.45670024985E+02  0.98556058549E+02  0.10913465700E+03  0.10000000000E+01 0.  0.
<mgrwt>
<rscale>  0 0.12499913E+03</rscale>
<asrwt>0</asrwt>
<pdfrwt beam="2">  1        4 0.48074596E-02 0.12499913E+03</pdfrwt>
<pdfrwt beam="1">  1       -4 0.19231432E-01 0.12499913E+03</pdfrwt>
<totfact> 0.98072040E+03</totfact>
</mgrwt>
</event>
<event>
 5    1  0.3188180E-002  0.1249988E+03  0.7818608E-02  0.1235071E+00
          4   -1    0    0  501    0  0.00000000000E+00  0.00000000000E+00  0.95671837256E+02  0.95680266220E+02  0.12700000000E+01 0.  1.
         -4   -1    0    0    0  501 -0.00000000000E+00 -0.00000000000E+00 -0.40808808218E+02  0.40828565101E+02  0.12700000000E+01 0.  1.
         25    2    1    2    0    0  0.00000000000E+00  0.00000000000E+00  0.54863029038E+02  0.13650883132E+03  0.12499883629E+03 0.  0.
    9000005    1    3    3    0    0  0.24911326339E+02  0.38181106616E+02 -0.19245279125E+02  0.49494967936E+02  0.10000000000E+01 0.  0.
    9000005    1    3    3    0    0 -0.24911326339E+02 -0.38181106616E+02  0.74108308164E+02  0.87013863385E+02  0.10000000000E+01 0.  0.
<mgrwt>
<rscale>  0 0.12499884E+03</rscale>
<asrwt>0</asrwt>
<pdfrwt beam="1">  1        4 0.14720912E-01 0.12499884E+03</pdfrwt>
<pdfrwt beam="2">  1       -4 0.62804464E-02 0.12499884E+03</pdfrwt>
<totfact> 0.10206633E+04</totfact>
</mgrwt>
</event>
<event>
 5    1  0.3188180E-002  0.1249946E+03  0.7818608E-02  0.1235078E+00
          4   -1    0    0  501    0  0.00000000000E+00  0.00000000000E+00  0.67169914294E+02  0.67181919340E+02  0.12700000000E+01 0.  1.
         -4   -1    0    0    0  501 -0.00000000000E+00 -0.00000000000E+00 -0.58125618885E+02  0.58139491491E+02  0.12700000000E+01 0.  1.
         25    2    1    2    0    0  0.00000000000E+00  0.00000000000E+00  0.90442954082E+01  0.12532141083E+03  0.12499462682E+03 0.  0.
    9000005    1    3    3    0    0  0.24663742164E+02  0.55684428733E+02 -0.95093824856E+01  0.61648066767E+02  0.10000000000E+01 0.  0.
    9000005    1    3    3    0    0 -0.24663742164E+02 -0.55684428733E+02  0.18553677894E+02  0.63673344064E+02  0.10000000000E+01 0.  0.
<mgrwt>
<rscale>  0 0.12499463E+03</rscale>
<asrwt>0</asrwt>
<pdfrwt beam="1">  1        4 0.10335823E-01 0.12499463E+03</pdfrwt>
<pdfrwt beam="2">  1       -4 0.89443936E-02 0.12499463E+03</pdfrwt>
<totfact> 0.10447154E+04</totfact>
</mgrwt>
</event>
<event>
 5    1  0.3188180E-002  0.1249954E+03  0.7818608E-02  0.1235076E+00
         -4   -1    0    0    0  501 -0.00000000000E+00  0.00000000000E+00  0.11660247515E+02  0.11729205945E+02  0.12700000000E+01 0. -1.
          4   -1    0    0  501    0  0.00000000000E+00 -0.00000000000E+00 -0.33392353371E+03  0.33392594877E+03  0.12700000000E+01 0. -1.
         25    2    1    2    0    0  0.00000000000E+00  0.00000000000E+00 -0.32226328619E+03  0.34565515472E+03  0.12499544134E+03 0.  0.
    9000005    1    3    3    0    0  0.51006349983E+02 -0.15441665482E+02 -0.25137134088E+03  0.25696039342E+03  0.10000000000E+01 0.  0.
    9000005    1    3    3    0    0 -0.51006349983E+02  0.15441665482E+02 -0.70891945318E+02  0.88694761302E+02  0.10000000000E+01 0.  0.
<mgrwt>
<rscale>  0 0.12499544E+03</rscale>
<asrwt>0</asrwt>
<pdfrwt beam="2">  1        4 0.51378334E-01 0.12499544E+03</pdfrwt>
<pdfrwt beam="1">  1       -4 0.17993748E-02 0.12499544E+03</pdfrwt>
<totfact> 0.70212289E+03</totfact>
</mgrwt>
</event>
<event>
 5    1  0.3188180E-002  0.1249801E+03  0.7818608E-02  0.1235100E+00
         -4   -1    0    0    0  501 -0.00000000000E+00  0.00000000000E+00  0.20470089602E+03  0.20470483563E+03  0.12700000000E+01 0. -1.
          4   -1    0    0  501    0  0.00000000000E+00 -0.00000000000E+00 -0.19051392613E+02  0.19093675929E+02  0.12700000000E+01 0. -1.
         25    2    1    2    0    0  0.00000000000E+00  0.00000000000E+00  0.18564950340E+03  0.22379851156E+03  0.12498014107E+03 0.  0.
    9000005    1    3    3    0    0 -0.14476900903E+01 -0.61566930001E+02  0.11172684573E+03  0.12757927235E+03  0.10000000000E+01 0.  0.
    9000005    1    3    3    0    0  0.14476900903E+01  0.61566930001E+02  0.73922657673E+02  0.96219239208E+02  0.10000000000E+01 0.  0.
<mgrwt>
<rscale>  0 0.12498014E+03</rscale>
<asrwt>0</asrwt>
<pdfrwt beam="2">  1        4 0.29345391E-02 0.12498014E+03</pdfrwt>
<pdfrwt beam="1">  1       -4 0.31496001E-01 0.12498014E+03</pdfrwt>
<totfact> 0.86309097E+03</totfact>
</mgrwt>
</event>
<event>
 4    1  0.3188180E-002  0.1248521E+03  0.7818608E-02  0.1235301E+00
         -4   -1    0    0    0  501 -0.00000000000E+00  0.00000000000E+00  0.60194059103E+03  0.60194193078E+03  0.12700000000E+01 0.  1.
          4   -1    0    0  501    0  0.00000000000E+00 -0.00000000000E+00 -0.64104402055E+01  0.65350320296E+01  0.12700000000E+01 0.  1.
    9000005    1    1    2    0    0  0.30468438031E+02 -0.54448190641E+02  0.28920884945E+03  0.29586430974E+03  0.10000000000E+01 0.  0.
    9000005    1    1    2    0    0 -0.30468438031E+02  0.54448190641E+02  0.30632130138E+03  0.31261265307E+03  0.10000000000E+01 0.  0.
<mgrwt>
<rscale>  0 0.12485213E+03</rscale>
<asrwt>0</asrwt>
<pdfrwt beam="2">  1        4 0.99590824E-03 0.12485213E+03</pdfrwt>
<pdfrwt beam="1">  1       -4 0.92615967E-01 0.12485213E+03</pdfrwt>
<totfact> 0.48493875E+03</totfact>
</mgrwt>
</event>
<event>
 5    1  0.3188180E-002  0.1249987E+03  0.7818608E-02  0.1235071E+00
          4   -1    0    0  501    0  0.00000000000E+00  0.00000000000E+00  0.74206503827E+01  0.75285424953E+01  0.12700000000E+01 0. -1.
         -4   -1    0    0    0  501 -0.00000000000E+00 -0.00000000000E+00 -0.52248411544E+03  0.52248565893E+03  0.12700000000E+01 0. -1.
         25    2    1    2    0    0  0.00000000000E+00  0.00000000000E+00 -0.51506346506E+03  0.53001420142E+03  0.12499872269E+03 0.  0.
    9000005    1    3    3    0    0  0.52095915733E+02 -0.34033020086E+02 -0.28186715888E+03  0.28865606896E+03  0.10000000000E+01 0.  0.
    9000005    1    3    3    0    0 -0.52095915733E+02  0.34033020086E+02 -0.23319630617E+03  0.24135813246E+03  0.10000000000E+01 0.  0.
<mgrwt>
<rscale>  0 0.12499872E+03</rscale>
<asrwt>0</asrwt>
<pdfrwt beam="1">  1        4 0.11500571E-02 0.12499872E+03</pdfrwt>
<pdfrwt beam="2">  1       -4 0.80390561E-01 0.12499872E+03</pdfrwt>
<totfact> 0.53610099E+03</totfact>
</mgrwt>
</event>
<event>
 5    1  0.3188180E-002  0.1250002E+03  0.7818608E-02  0.1235069E+00
         -4   -1    0    0    0  501 -0.00000000000E+00  0.00000000000E+00  0.88209744252E+02  0.88218886192E+02  0.12700000000E+01 0. -1.
          4   -1    0    0  501    0  0.00000000000E+00 -0.00000000000E+00 -0.44263281878E+02  0.44281497520E+02  0.12700000000E+01 0. -1.
         25    2    1    2    0    0  0.00000000000E+00  0.00000000000E+00  0.43946462374E+02  0.13250038371E+03  0.12500024051E+03 0.  0.
    9000005    1    3    3    0    0 -0.15422828618E+02  0.58811971185E+02  0.66653542966E+01  0.61173021383E+02  0.10000000000E+01 0.  0.
    9000005    1    3    3    0    0  0.15422828618E+02 -0.58811971185E+02  0.37281108078E+02  0.71327362329E+02  0.10000000000E+01 0.  0.
<mgrwt>
<rscale>  0 0.12500024E+03</rscale>
<asrwt>0</asrwt>
<pdfrwt beam="2">  1        4 0.68118402E-02 0.12500024E+03</pdfrwt>
<pdfrwt beam="1">  1       -4 0.13572834E-01 0.12500024E+03</pdfrwt>
<totfact> 0.10290974E+04</totfact>
</mgrwt>
</event>
<event>
 5    1  0.3188180E-002  0.1250026E+03  0.7818608E-02  0.1235065E+00
         -4   -1    0    0    0  501 -0.00000000000E+00  0.00000000000E+00  0.90853204042E+02  0.90862080016E+02  0.12700000000E+01 0.  1.
          4   -1    0    0  501    0  0.00000000000E+00 -0.00000000000E+00 -0.42976634186E+02  0.42995394939E+02  0.12700000000E+01 0.  1.
         25    2    1    2    0    0  0.00000000000E+00  0.00000000000E+00  0.47876569857E+02  0.13385747495E+03  0.12500263061E+03 0.  0.
    9000005    1    3    3    0    0 -0.36426520695E+01  0.62355519654E+02  0.21814171958E+02  0.66169009692E+02  0.10000000000E+01 0.  0.
    9000005    1    3    3    0    0  0.36426520695E+01 -0.62355519654E+02  0.26062397899E+02  0.67688465263E+02  0.10000000000E+01 0.  0.
<mgrwt>
<rscale>  0 0.12500263E+03</rscale>
<asrwt>0</asrwt>
<pdfrwt beam="2">  1        4 0.66139158E-02 0.12500263E+03</pdfrwt>
<pdfrwt beam="1">  1       -4 0.13979542E-01 0.12500263E+03</pdfrwt>
<totfact> 0.10261600E+04</totfact>
</mgrwt>
</event>
<event>
 5    1  0.3188180E-002  0.1250006E+03  0.7818608E-02  0.1235068E+00
         -4   -1    0    0    0  501 -0.00000000000E+00  0.00000000000E+00  0.14490501505E+03  0.14491058031E+03  0.12700000000E+01 0. -1.
          4   -1    0    0  501    0  0.00000000000E+00 -0.00000000000E+00 -0.26936545729E+02  0.26966467990E+02  0.12700000000E+01 0. -1.
         25    2    1    2    0    0  0.00000000000E+00  0.00000000000E+00  0.11796846932E+03  0.17187704830E+03  0.12500063992E+03 0.  0.
    9000005    1    3    3    0    0 -0.52940231145E+02 -0.28504484072E+01  0.10447391777E+03  0.11716054210E+03  0.10000000000E+01 0.  0.
    9000005    1    3    3    0    0  0.52940231145E+02  0.28504484072E+01  0.13494551547E+02  0.54716506205E+02  0.10000000000E+01 0.  0.
<mgrwt>
<rscale>  0 0.12500064E+03</rscale>
<asrwt>0</asrwt>
<pdfrwt beam="2">  1        4 0.41468136E-02 0.12500064E+03</pdfrwt>
<pdfrwt beam="1">  1       -4 0.22295810E-01 0.12500064E+03</pdfrwt>
<totfact> 0.95098567E+03</totfact>
</mgrwt>
</event>
<event>
 5    1  0.3188180E-002  0.1249991E+03  0.7818608E-02  0.1235071E+00
          4   -1    0    0  501    0  0.00000000000E+00  0.00000000000E+00  0.28571271264E+02  0.28599483241E+02  0.12700000000E+01 0.  1.
         -4   -1    0    0    0  501 -0.00000000000E+00 -0.00000000000E+00 -0.13661884925E+03  0.13662475204E+03  0.12700000000E+01 0.  1.
         25    2    1    2    0    0  0.00000000000E+00  0.00000000000E+00 -0.10804757798E+03  0.16522423528E+03  0.12499907526E+03 0.  0.
    9000005    1    3    3    0    0  0.42460107609E+02  0.36314373582E+02 -0.17022782574E+02  0.58415491040E+02  0.10000000000E+01 0.  0.
    9000005    1    3    3    0    0 -0.42460107609E+02 -0.36314373582E+02 -0.91024795409E+02  0.10680874424E+03  0.10000000000E+01 0.  0.
<mgrwt>
<rscale>  0 0.12499908E+03</rscale>
<asrwt>0</asrwt>
<pdfrwt beam="1">  1        4 0.43982045E-02 0.12499908E+03</pdfrwt>
<pdfrwt beam="2">  1       -4 0.21020908E-01 0.12499908E+03</pdfrwt>
<totfact> 0.96346944E+03</totfact>
</mgrwt>
</event>
<event>
 5    1  0.3188180E-002  0.1249983E+03  0.7818608E-02  0.1235072E+00
         -4   -1    0    0    0  501 -0.00000000000E+00  0.00000000000E+00  0.39275593346E+02  0.39296121089E+02  0.12700000000E+01 0.  1.
          4   -1    0    0  501    0  0.00000000000E+00 -0.00000000000E+00 -0.99404157218E+02  0.99412269727E+02  0.12700000000E+01 0.  1.
         25    2    1    2    0    0  0.00000000000E+00  0.00000000000E+00 -0.60128563873E+02  0.13870839082E+03  0.12499829395E+03 0.  0.
    9000005    1    3    3    0    0 -0.99435187934E+01  0.58744642287E+02 -0.91463499367E+01  0.60286501645E+02  0.10000000000E+01 0.  0.
    9000005    1    3    3    0    0  0.99435187934E+01 -0.58744642287E+02 -0.50982213936E+02  0.78421889172E+02  0.10000000000E+01 0.  0.
<mgrwt>
<rscale>  0 0.12499829E+03</rscale>
<asrwt>0</asrwt>
<pdfrwt beam="2">  1        4 0.15295150E-01 0.12499829E+03</pdfrwt>
<pdfrwt beam="1">  1       -4 0.60446021E-02 0.12499829E+03</pdfrwt>
<totfact> 0.10160816E+04</totfact>
</mgrwt>
</event>
<event>
 5    1  0.3188180E-002  0.1249987E+03  0.7818608E-02  0.1235071E+00
          4   -1    0    0  501    0  0.00000000000E+00  0.00000000000E+00  0.28486782296E+02  0.28515077864E+02  0.12700000000E+01 0. -1.
         -4   -1    0    0    0  501 -0.00000000000E+00 -0.00000000000E+00 -0.13702290200E+03  0.13702878738E+03  0.12700000000E+01 0. -1.
         25    2    1    2    0    0  0.00000000000E+00  0.00000000000E+00 -0.10853611970E+03  0.16554386524E+03  0.12499872816E+03 0.  0.
    9000005    1    3    3    0    0 -0.55444145703E+02  0.26917943647E+02 -0.40598108906E+02  0.73809453525E+02  0.10000000000E+01 0.  0.
    9000005    1    3    3    0    0  0.55444145703E+02 -0.26917943647E+02 -0.67938010794E+02  0.91734411720E+02  0.10000000000E+01 0.  0.
<mgrwt>
<rscale>  0 0.12499873E+03</rscale>
<asrwt>0</asrwt>
<pdfrwt beam="1">  1        4 0.43852112E-02 0.12499873E+03</pdfrwt>
<pdfrwt beam="2">  1       -4 0.21083076E-01 0.12499873E+03</pdfrwt>
<totfact> 0.96287243E+03</totfact>
</mgrwt>
</event>
<event>
 5    1  0.3188180E-002  0.1249805E+03  0.7818608E-02  0.1235100E+00
         -4   -1    0    0    0  501 -0.00000000000E+00  0.00000000000E+00  0.11241517665E+02  0.11313028747E+02  0.12700000000E+01 0. -1.
          4   -1    0    0  501    0  0.00000000000E+00 -0.00000000000E+00 -0.34620163654E+03  0.34620396595E+03  0.12700000000E+01 0. -1.
         25    2    1    2    0    0  0.00000000000E+00  0.00000000000E+00 -0.33496011887E+03  0.35751699470E+03  0.12498047953E+03 0.  0.
    9000005    1    3    3    0    0  0.24675262696E+02  0.41539858735E+02 -0.28081119034E+03  0.28493920943E+03  0.10000000000E+01 0.  0.
    9000005    1    3    3    0    0 -0.24675262696E+02 -0.41539858735E+02 -0.54148928534E+02  0.72577785267E+02  0.10000000000E+01 0.  0.
<mgrwt>
<rscale>  0 0.12498048E+03</rscale>
<asrwt>0</asrwt>
<pdfrwt beam="2">  1        4 0.53267462E-01 0.12498048E+03</pdfrwt>
<pdfrwt beam="1">  1       -4 0.17351446E-02 0.12498048E+03</pdfrwt>
<totfact> 0.68935202E+03</totfact>
</mgrwt>
</event>
<event>
 5    1  0.3188180E-002  0.1250029E+03  0.7818608E-02  0.1235065E+00
          4   -1    0    0  501    0  0.00000000000E+00  0.00000000000E+00  0.14664835206E+01  0.19399675039E+01  0.12700000000E+01 0.  1.
         -4   -1    0    0    0  501 -0.00000000000E+00 -0.00000000000E+00 -0.22930767350E+04  0.22930770867E+04  0.12700000000E+01 0.  1.
         25    2    1    2    0    0  0.00000000000E+00  0.00000000000E+00 -0.22916102515E+04  0.22950170542E+04  0.12500293737E+03 0.  0.
    9000005    1    3    3    0    0 -0.11580175295E+02 -0.39977224137E+01 -0.22709047671E+04  0.22709380317E+04  0.10000000000E+01 0.  0.
    9000005    1    3    3    0    0  0.11580175295E+02  0.39977224137E+01 -0.20705484369E+02  0.24079022557E+02  0.10000000000E+01 0.  0.
<mgrwt>
<rscale>  0 0.12500294E+03</rscale>
<asrwt>0</asrwt>
<pdfrwt beam="1">  1        4 0.26206358E-03 0.12500294E+03</pdfrwt>
<pdfrwt beam="2">  1       -4 0.35281501E+00 0.12500294E+03</pdfrwt>
<totfact> 0.64851291E+02</totfact>
</mgrwt>
</event>
<event>
 5    1  0.3188180E-002  0.1250045E+03  0.7818608E-02  0.1235062E+00
          4   -1    0    0  501    0  0.00000000000E+00  0.00000000000E+00  0.42257004109E+02  0.42276084212E+02  0.12700000000E+01 0. -1.
         -4   -1    0    0    0  501 -0.00000000000E+00 -0.00000000000E+00 -0.92402653592E+02  0.92411380743E+02  0.12700000000E+01 0. -1.
         25    2    1    2    0    0  0.00000000000E+00  0.00000000000E+00 -0.50145649483E+02  0.13468746496E+03  0.12500450813E+03 0.  0.
    9000005    1    3    3    0    0  0.30544392470E+01 -0.47138146513E+02  0.19013594153E+02  0.50929865682E+02  0.10000000000E+01 0.  0.
    9000005    1    3    3    0    0 -0.30544392470E+01  0.47138146513E+02 -0.69159243636E+02  0.83757599274E+02  0.10000000000E+01 0.  0.
<mgrwt>
<rscale>  0 0.12500451E+03</rscale>
<asrwt>0</asrwt>
<pdfrwt beam="1">  1        4 0.65032166E-02 0.12500451E+03</pdfrwt>
<pdfrwt beam="2">  1       -4 0.14217932E-01 0.12500451E+03</pdfrwt>
<totfact> 0.10243621E+04</totfact>
</mgrwt>
</event>
<event>
 5    1  0.3188180E-002  0.1250233E+03  0.7818608E-02  0.1235033E+00
         -4   -1    0    0    0  501 -0.00000000000E+00  0.00000000000E+00  0.10417252981E+04  0.10417260723E+04  0.12700000000E+01 0. -1.
          4   -1    0    0  501    0  0.00000000000E+00 -0.00000000000E+00 -0.36428961954E+01  0.38579259571E+01  0.12700000000E+01 0. -1.
         25    2    1    2    0    0  0.00000000000E+00  0.00000000000E+00  0.10380824019E+04  0.10455839982E+04  0.12502329447E+03 0.  0.
    9000005    1    3    3    0    0 -0.45852278866E+02 -0.40895548777E+02  0.61506367608E+03  0.61812555603E+03  0.10000000000E+01 0.  0.
    9000005    1    3    3    0    0  0.45852278866E+02  0.40895548777E+02  0.42301872585E+03  0.42745844220E+03  0.10000000000E+01 0.  0.
<mgrwt>
<rscale>  0 0.12502329E+03</rscale>
<asrwt>0</asrwt>
<pdfrwt beam="2">  1        4 0.57704550E-03 0.12502329E+03</pdfrwt>
<pdfrwt beam="1">  1       -4 0.16028213E+00 0.12502329E+03</pdfrwt>
<totfact> 0.29118235E+03</totfact>
</mgrwt>
</event>
<event>
 5    1  0.3188180E-002  0.1249994E+03  0.7818608E-02  0.1235070E+00
         -4   -1    0    0    0  501 -0.00000000000E+00  0.00000000000E+00  0.64456036527E+01  0.65695286321E+01  0.12700000000E+01 0.  1.
          4   -1    0    0  501    0  0.00000000000E+00 -0.00000000000E+00 -0.60013199373E+03  0.60013333752E+03  0.12700000000E+01 0.  1.
         25    2    1    2    0    0  0.00000000000E+00  0.00000000000E+00 -0.59368639008E+03  0.60670286615E+03  0.12499935212E+03 0.  0.
    9000005    1    3    3    0    0  0.51666188689E+02  0.34451412196E+02 -0.26289726074E+03  0.27013379011E+03  0.10000000000E+01 0.  0.
    9000005    1    3    3    0    0 -0.51666188689E+02 -0.34451412196E+02 -0.33078912934E+03  0.33656907604E+03  0.10000000000E+01 0.  0.
<mgrwt>
<rscale>  0 0.12499935E+03</rscale>
<asrwt>0</asrwt>
<pdfrwt beam="2">  1        4 0.92337591E-01 0.12499935E+03</pdfrwt>
<pdfrwt beam="1">  1       -4 0.10012679E-02 0.12499935E+03</pdfrwt>
<totfact> 0.48447927E+03</totfact>
</mgrwt>
</event>
<event>
 5    1  0.3188180E-002  0.1249993E+03  0.7818608E-02  0.1235070E+00
          4   -1    0    0  501    0  0.00000000000E+00  0.00000000000E+00  0.19912275177E+03  0.19912680175E+03  0.12700000000E+01 0. -1.
         -4   -1    0    0    0  501 -0.00000000000E+00 -0.00000000000E+00 -0.19592273009E+02  0.19633391497E+02  0.12700000000E+01 0. -1.
         25    2    1    2    0    0  0.00000000000E+00  0.00000000000E+00  0.17953047876E+03  0.21876019324E+03  0.12499931737E+03 0.  0.
    9000005    1    3    3    0    0 -0.30632941137E+02 -0.21632179907E+02  0.22803041441E+01  0.37583614478E+02  0.10000000000E+01 0.  0.
    9000005    1    3    3    0    0  0.30632941137E+02  0.21632179907E+02  0.17725017462E+03  0.18117657876E+03  0.10000000000E+01 0.  0.
<mgrwt>
<rscale>  0 0.12499932E+03</rscale>
<asrwt>0</asrwt>
<pdfrwt beam="1">  1        4 0.30637745E-01 0.12499932E+03</pdfrwt>
<pdfrwt beam="2">  1       -4 0.30176702E-02 0.12499932E+03</pdfrwt>
<totfact> 0.87066240E+03</totfact>
</mgrwt>
</event>
<event>
 5    1  0.3188180E-002  0.1249986E+03  0.7818608E-02  0.1235071E+00
          4   -1    0    0  501    0  0.00000000000E+00  0.00000000000E+00  0.39975779874E+02  0.39995948251E+02  0.12700000000E+01 0.  1.
         -4   -1    0    0    0  501 -0.00000000000E+00 -0.00000000000E+00 -0.97664300026E+02  0.97672557044E+02  0.12700000000E+01 0.  1.
         25    2    1    2    0    0  0.00000000000E+00  0.00000000000E+00 -0.57688520152E+02  0.13766850530E+03  0.12499860796E+03 0.  0.
    9000005    1    3    3    0    0 -0.23131175826E+02  0.55554650903E+02 -0.10290589057E+02  0.61059534515E+02  0.10000000000E+01 0.  0.
    9000005    1    3    3    0    0  0.23131175826E+02 -0.55554650903E+02 -0.47397931095E+02  0.76608970781E+02  0.10000000000E+01 0.  0.
<mgrwt>
<rscale>  0 0.12499861E+03</rscale>
<asrwt>0</asrwt>
<pdfrwt beam="1">  1        4 0.61523066E-02 0.12499861E+03</pdfrwt>
<pdfrwt beam="2">  1       -4 0.15027463E-01 0.12499861E+03</pdfrwt>
<totfact> 0.10182446E+04</totfact>
</mgrwt>
</event>
<event>
 5    1  0.3188180E-002  0.1250196E+03  0.7818608E-02  0.1235039E+00
          4   -1    0    0  501    0  0.00000000000E+00  0.00000000000E+00  0.12952768856E+03  0.12953391449E+03  0.12700000000E+01 0. -1.
         -4   -1    0    0    0  501 -0.00000000000E+00 -0.00000000000E+00 -0.30146790410E+02  0.30173529327E+02  0.12700000000E+01 0. -1.
         25    2    1    2    0    0  0.00000000000E+00  0.00000000000E+00  0.99380898152E+02  0.15970744382E+03  0.12501961724E+03 0.  0.
    9000005    1    3    3    0    0  0.48809266131E+02 -0.31060942209E+02  0.79903087476E+02  0.98654092563E+02  0.10000000000E+01 0.  0.
    9000005    1    3    3    0    0 -0.48809266131E+02  0.31060942209E+02  0.19477810675E+02  0.61053351258E+02  0.10000000000E+01 0.  0.
<mgrwt>
<rscale>  0 0.12501962E+03</rscale>
<asrwt>0</asrwt>
<pdfrwt beam="1">  1        4 0.19929872E-01 0.12501962E+03</pdfrwt>
<pdfrwt beam="2">  1       -4 0.46405035E-02 0.12501962E+03</pdfrwt>
<totfact> 0.97356281E+03</totfact>
</mgrwt>
</event>
<event>
 5    1  0.3188180E-002  0.1249944E+03  0.7818608E-02  0.1235078E+00
         -4   -1    0    0    0  501 -0.00000000000E+00  0.00000000000E+00  0.18773138896E+03  0.18773568468E+03  0.12700000000E+01 0. -1.
          4   -1    0    0  501    0  0.00000000000E+00 -0.00000000000E+00 -0.20781867784E+02  0.20820637084E+02  0.12700000000E+01 0. -1.
         25    2    1    2    0    0  0.00000000000E+00  0.00000000000E+00  0.16694952118E+03  0.20855632176E+03  0.12499438678E+03 0.  0.
    9000005    1    3    3    0    0  0.24350008140E+00  0.56264801194E+02  0.38113200170E+02  0.67966191396E+02  0.10000000000E+01 0.  0.
    9000005    1    3    3    0    0 -0.24350008140E+00 -0.56264801194E+02  0.12883632101E+03  0.14059013036E+03  0.10000000000E+01 0.  0.
<mgrwt>
<rscale>  0 0.12499439E+03</rscale>
<asrwt>0</asrwt>
<pdfrwt beam="2">  1        4 0.32005230E-02 0.12499439E+03</pdfrwt>
<pdfrwt beam="1">  1       -4 0.28885066E-01 0.12499439E+03</pdfrwt>
<totfact> 0.88723330E+03</totfact>
</mgrwt>
</event>
<event>
 5    1  0.3188180E-002  0.1249976E+03  0.7818608E-02  0.1235073E+00
          4   -1    0    0  501    0  0.00000000000E+00  0.00000000000E+00  0.80277255511E+02  0.80287300692E+02  0.12700000000E+01 0. -1.
         -4   -1    0    0    0  501 -0.00000000000E+00 -0.00000000000E+00 -0.48636243984E+02  0.48652822414E+02  0.12700000000E+01 0. -1.
         25    2    1    2    0    0  0.00000000000E+00  0.00000000000E+00  0.31641011527E+02  0.12894012311E+03  0.12499760692E+03 0.  0.
    9000005    1    3    3    0    0  0.13799203139E+02 -0.60820627782E+02  0.19886093336E+02  0.65467728533E+02  0.10000000000E+01 0.  0.
    9000005    1    3    3    0    0 -0.13799203139E+02  0.60820627782E+02  0.11754918191E+02  0.63472394573E+02  0.10000000000E+01 0.  0.
<mgrwt>
<rscale>  0 0.12499761E+03</rscale>
<asrwt>0</asrwt>
<pdfrwt beam="1">  1        4 0.12352395E-01 0.12499761E+03</pdfrwt>
<pdfrwt beam="2">  1       -4 0.74845472E-02 0.12499761E+03</pdfrwt>
<totfact> 0.10367794E+04</totfact>
</mgrwt>
</event>
<event>
 5    1  0.3188180E-002  0.1249995E+03  0.7818608E-02  0.1235070E+00
         -4   -1    0    0    0  501 -0.00000000000E+00  0.00000000000E+00  0.37935935908E+02  0.37957188163E+02  0.12700000000E+01 0. -1.
          4   -1    0    0  501    0  0.00000000000E+00 -0.00000000000E+00 -0.10291487988E+03  0.10292271567E+03  0.12700000000E+01 0. -1.
         25    2    1    2    0    0  0.00000000000E+00  0.00000000000E+00 -0.64978943974E+02  0.14087990383E+03  0.12499953658E+03 0.  0.
    9000005    1    3    3    0    0  0.25384005556E+02  0.54101390802E+02 -0.11894690681E+02  0.60940888500E+02  0.10000000000E+01 0.  0.
    9000005    1    3    3    0    0 -0.25384005556E+02 -0.54101390802E+02 -0.53084253293E+02  0.79939015334E+02  0.10000000000E+01 0.  0.
<mgrwt>
<rscale>  0 0.12499954E+03</rscale>
<asrwt>0</asrwt>
<pdfrwt beam="2">  1        4 0.15835296E-01 0.12499954E+03</pdfrwt>
<pdfrwt beam="1">  1       -4 0.58385354E-02 0.12499954E+03</pdfrwt>
<totfact> 0.10115487E+04</totfact>
</mgrwt>
</event>
<event>
 5    1  0.3188180E-002  0.1249985E+03  0.7818608E-02  0.1235072E+00
          4   -1    0    0  501    0  0.00000000000E+00  0.00000000000E+00  0.19332610926E+03  0.19333028066E+03  0.12700000000E+01 0.  1.
         -4   -1    0    0    0  501 -0.00000000000E+00 -0.00000000000E+00 -0.20180647629E+02  0.20220569693E+02  0.12700000000E+01 0.  1.
         25    2    1    2    0    0  0.00000000000E+00  0.00000000000E+00  0.17314546163E+03  0.21355085035E+03  0.12499845921E+03 0.  0.
    9000005    1    3    3    0    0  0.10678743873E+02  0.47909437341E+02  0.15264724557E+03  0.16034815664E+03  0.10000000000E+01 0.  0.
    9000005    1    3    3    0    0 -0.10678743873E+02 -0.47909437341E+02  0.20498216056E+02  0.53202693715E+02  0.10000000000E+01 0.  0.
<mgrwt>
<rscale>  0 0.12499846E+03</rscale>
<asrwt>0</asrwt>
<pdfrwt beam="1">  1        4 0.29745869E-01 0.12499846E+03</pdfrwt>
<pdfrwt beam="2">  1       -4 0.31081070E-02 0.12499846E+03</pdfrwt>
<totfact> 0.87902272E+03</totfact>
</mgrwt>
</event>
<event>
 5    1  0.3188180E-002  0.1249990E+03  0.7818608E-02  0.1235071E+00
          4   -1    0    0  501    0  0.00000000000E+00  0.00000000000E+00  0.33133861481E+01  0.35484401878E+01  0.12700000000E+01 0.  1.
         -4   -1    0    0    0  501 -0.00000000000E+00 -0.00000000000E+00 -0.11382910946E+04  0.11382918031E+04  0.12700000000E+01 0.  1.
         25    2    1    2    0    0  0.00000000000E+00  0.00000000000E+00 -0.11349777084E+04  0.11418402432E+04  0.12499896979E+03 0.  0.
    9000005    1    3    3    0    0  0.74111666614E+01  0.67699362834E+01 -0.11309235758E+04  0.11309685635E+04  0.10000000000E+01 0.  0.
    9000005    1    3    3    0    0 -0.74111666614E+01 -0.67699362834E+01 -0.40541326721E+01  0.10871679736E+02  0.10000000000E+01 0.  0.
<mgrwt>
<rscale>  0 0.12499897E+03</rscale>
<asrwt>0</asrwt>
<pdfrwt beam="1">  1        4 0.52788820E-03 0.12499897E+03</pdfrwt>
<pdfrwt beam="2">  1       -4 0.17513954E+00 0.12499897E+03</pdfrwt>
<totfact> 0.26288369E+03</totfact>
</mgrwt>
</event>
<event>
 5    1  0.3188180E-002  0.1249978E+03  0.7818608E-02  0.1235073E+00
         -4   -1    0    0    0  501 -0.00000000000E+00  0.00000000000E+00  0.11755768705E+03  0.11756454688E+03  0.12700000000E+01 0.  1.
          4   -1    0    0  501    0  0.00000000000E+00 -0.00000000000E+00 -0.33207223059E+02  0.33231499564E+02  0.12700000000E+01 0.  1.
         25    2    1    2    0    0  0.00000000000E+00  0.00000000000E+00  0.84350463989E+02  0.15079604645E+03  0.12499778738E+03 0.  0.
    9000005    1    3    3    0    0  0.52003056371E+02  0.10983366402E+02  0.81824171462E+02  0.97576366221E+02  0.10000000000E+01 0.  0.
    9000005    1    3    3    0    0 -0.52003056371E+02 -0.10983366402E+02  0.25262925261E+01  0.53219680226E+02  0.10000000000E+01 0.  0.
<mgrwt>
<rscale>  0 0.12499779E+03</rscale>
<asrwt>0</asrwt>
<pdfrwt beam="2">  1        4 0.51111987E-02 0.12499779E+03</pdfrwt>
<pdfrwt beam="1">  1       -4 0.18088193E-01 0.12499779E+03</pdfrwt>
<totfact> 0.99150191E+03</totfact>
</mgrwt>
</event>
<event>
 5    1  0.3188180E-002  0.1250035E+03  0.7818608E-02  0.1235064E+00
          4   -1    0    0  501    0  0.00000000000E+00  0.00000000000E+00  0.12096377240E+02  0.12162863245E+02  0.12700000000E+01 0. -1.
         -4   -1    0    0    0  501 -0.00000000000E+00 -0.00000000000E+00 -0.32199239854E+03  0.32199490309E+03  0.12700000000E+01 0. -1.
         25    2    1    2    0    0  0.00000000000E+00  0.00000000000E+00 -0.30989602130E+03  0.33415776633E+03  0.12500347510E+03 0.  0.
    9000005    1    3    3    0    0  0.52858693612E+02 -0.23347891689E+02 -0.91333910252E+02  0.10808352649E+03  0.10000000000E+01 0.  0.
    9000005    1    3    3    0    0 -0.52858693612E+02  0.23347891689E+02 -0.21856211105E+03  0.22607423984E+03  0.10000000000E+01 0.  0.
<mgrwt>
<rscale>  0 0.12500348E+03</rscale>
<asrwt>0</asrwt>
<pdfrwt beam="1">  1        4 0.18662883E-02 0.12500348E+03</pdfrwt>
<pdfrwt beam="2">  1       -4 0.49542593E-01 0.12500348E+03</pdfrwt>
<totfact> 0.71497794E+03</totfact>
</mgrwt>
</event>
<event>
 5    1  0.3188180E-002  0.1249787E+03  0.7818608E-02  0.1235103E+00
         -4   -1    0    0    0  501 -0.00000000000E+00  0.00000000000E+00  0.59335005167E+03  0.59335141081E+03  0.12700000000E+01 0. -1.
          4   -1    0    0  501    0  0.00000000000E+00 -0.00000000000E+00 -0.65184856570E+01  0.66410507648E+01  0.12700000000E+01 0. -1.
         25    2    1    2    0    0  0.00000000000E+00  0.00000000000E+00  0.58683156601E+03  0.59999246158E+03  0.12497866651E+03 0.  0.
    9000005    1    3    3    0    0 -0.40135551276E+02  0.28733294448E+02  0.10951148801E+03  0.12012589518E+03  0.10000000000E+01 0.  0.
    9000005    1    3    3    0    0  0.40135551276E+02 -0.28733294448E+02  0.47732007800E+03  0.47986656640E+03  0.10000000000E+01 0.  0.
<mgrwt>
<rscale>  0 0.12497867E+03</rscale>
<asrwt>0</asrwt>
<pdfrwt beam="2">  1        4 0.10123767E-02 0.12497867E+03</pdfrwt>
<pdfrwt beam="1">  1       -4 0.91294145E-01 0.12497867E+03</pdfrwt>
<totfact> 0.48890957E+03</totfact>
</mgrwt>
</event>
<event>
 5    1  0.3188180E-002  0.1250003E+03  0.7818608E-02  0.1235069E+00
          4   -1    0    0  501    0  0.00000000000E+00  0.00000000000E+00  0.29675175988E+03  0.29675447746E+03  0.12700000000E+01 0. -1.
         -4   -1    0    0    0  501 -0.00000000000E+00 -0.00000000000E+00 -0.13130005040E+02  0.13191282438E+02  0.12700000000E+01 0. -1.
         25    2    1    2    0    0  0.00000000000E+00  0.00000000000E+00  0.28362175484E+03  0.30994575990E+03  0.12500029704E+03 0.  0.
    9000005    1    3    3    0    0 -0.24749232191E+02 -0.37994858011E+02  0.35185901856E+02  0.57403670777E+02  0.10000000000E+01 0.  0.
    9000005    1    3    3    0    0  0.24749232191E+02  0.37994858011E+02  0.24843585298E+03  0.25254208912E+03  0.10000000000E+01 0.  0.
<mgrwt>
<rscale>  0 0.12500030E+03</rscale>
<asrwt>0</asrwt>
<pdfrwt beam="1">  1        4 0.45659034E-01 0.12500030E+03</pdfrwt>
<pdfrwt beam="2">  1       -4 0.20249237E-02 0.12500030E+03</pdfrwt>
<totfact> 0.74367472E+03</totfact>
</mgrwt>
</event>
<event>
 5    1  0.3188180E-002  0.1249976E+03  0.7818608E-02  0.1235073E+00
          4   -1    0    0  501    0  0.00000000000E+00  0.00000000000E+00  0.30054039083E+02  0.30080860446E+02  0.12700000000E+01 0.  1.
         -4   -1    0    0    0  501 -0.00000000000E+00 -0.00000000000E+00 -0.12988135624E+03  0.12988756522E+03  0.12700000000E+01 0.  1.
         25    2    1    2    0    0  0.00000000000E+00  0.00000000000E+00 -0.99827317154E+02  0.15996842566E+03  0.12499761581E+03 0.  0.
    9000005    1    3    3    0    0 -0.34633825427E+02 -0.18292834205E+01 -0.11644028991E+03  0.12149975002E+03  0.10000000000E+01 0.  0.
    9000005    1    3    3    0    0  0.34633825427E+02  0.18292834205E+01  0.16612972757E+02  0.38468675638E+02  0.10000000000E+01 0.  0.
<mgrwt>
<rscale>  0 0.12499762E+03</rscale>
<asrwt>0</asrwt>
<pdfrwt beam="1">  1        4 0.46262392E-02 0.12499762E+03</pdfrwt>
<pdfrwt beam="2">  1       -4 0.19984287E-01 0.12499762E+03</pdfrwt>
<totfact> 0.97354090E+03</totfact>
</mgrwt>
</event>
<event>
 5    1  0.3188180E-002  0.1250150E+03  0.7818608E-02  0.1235046E+00
          4   -1    0    0  501    0  0.00000000000E+00  0.00000000000E+00  0.76039686544E+01  0.77092956421E+01  0.12700000000E+01 0. -1.
         -4   -1    0    0    0  501 -0.00000000000E+00 -0.00000000000E+00 -0.51019484400E+03  0.51019642467E+03  0.12700000000E+01 0. -1.
         25    2    1    2    0    0  0.00000000000E+00  0.00000000000E+00 -0.50259087535E+03  0.51790572031E+03  0.12501498770E+03 0.  0.
    9000005    1    3    3    0    0  0.17439843120E+02  0.26728304234E+01 -0.49968406557E+03  0.49999645753E+03  0.10000000000E+01 0.  0.
    9000005    1    3    3    0    0 -0.17439843120E+02 -0.26728304234E+01 -0.29068097760E+01  0.17909262788E+02  0.10000000000E+01 0.  0.
<mgrwt>
<rscale>  0 0.12501499E+03</rscale>
<asrwt>0</asrwt>
<pdfrwt beam="1">  1        4 0.11780654E-02 0.12501499E+03</pdfrwt>
<pdfrwt beam="2">  1       -4 0.78499712E-01 0.12501499E+03</pdfrwt>
<totfact> 0.54483447E+03</totfact>
</mgrwt>
</event>
<event>
 5    1  0.3188180E-002  0.1250017E+03  0.7818608E-02  0.1235067E+00
         -4   -1    0    0    0  501 -0.00000000000E+00  0.00000000000E+00  0.12079746152E+04  0.12079752828E+04  0.12700000000E+01 0. -1.
          4   -1    0    0  501    0  0.00000000000E+00 -0.00000000000E+00 -0.31084221320E+01  0.33578546947E+01  0.12700000000E+01 0. -1.
         25    2    1    2    0    0  0.00000000000E+00  0.00000000000E+00  0.12048661931E+04  0.12113331375E+04  0.12500170721E+03 0.  0.
    9000005    1    3    3    0    0  0.13112348809E+02 -0.26703091883E+02  0.11350041726E+04  0.11353944075E+04  0.10000000000E+01 0.  0.
    9000005    1    3    3    0    0 -0.13112348809E+02  0.26703091883E+02  0.69862020492E+02  0.75938730004E+02  0.10000000000E+01 0.  0.
<mgrwt>
<rscale>  0 0.12500171E+03</rscale>
<asrwt>0</asrwt>
<pdfrwt beam="2">  1        4 0.49745683E-03 0.12500171E+03</pdfrwt>
<pdfrwt beam="1">  1       -4 0.18586165E+00 0.12500171E+03</pdfrwt>
<totfact> 0.24417083E+03</totfact>
</mgrwt>
</event>
<event>
 5    1  0.3188180E-002  0.1250011E+03  0.7818608E-02  0.1235068E+00
          4   -1    0    0  501    0  0.00000000000E+00  0.00000000000E+00  0.12964856262E+03  0.12965478275E+03  0.12700000000E+01 0. -1.
         -4   -1    0    0    0  501 -0.00000000000E+00 -0.00000000000E+00 -0.30109740128E+02  0.30136511918E+02  0.12700000000E+01 0. -1.
         25    2    1    2    0    0  0.00000000000E+00  0.00000000000E+00  0.99538822492E+02  0.15979129467E+03  0.12500112267E+03 0.  0.
    9000005    1    3    3    0    0 -0.13462588537E+02  0.56173839869E+02  0.80250779200E+02  0.98883411844E+02  0.10000000000E+01 0.  0.
    9000005    1    3    3    0    0  0.13462588537E+02 -0.56173839869E+02  0.19288043292E+02  0.60907882822E+02  0.10000000000E+01 0.  0.
<mgrwt>
<rscale>  0 0.12500112E+03</rscale>
<asrwt>0</asrwt>
<pdfrwt beam="1">  1        4 0.19948471E-01 0.12500112E+03</pdfrwt>
<pdfrwt beam="2">  1       -4 0.46348055E-02 0.12500112E+03</pdfrwt>
<totfact> 0.97380579E+03</totfact>
</mgrwt>
</event>
<event>
 5    1  0.3188180E-002  0.1249955E+03  0.7818608E-02  0.1235076E+00
         -4   -1    0    0    0  501 -0.00000000000E+00  0.00000000000E+00  0.51385146907E+02  0.51400838735E+02  0.12700000000E+01 0.  1.
          4   -1    0    0  501    0  0.00000000000E+00 -0.00000000000E+00 -0.75980991111E+02  0.75991604209E+02  0.12700000000E+01 0.  1.
         25    2    1    2    0    0  0.00000000000E+00  0.00000000000E+00 -0.24595844204E+02  0.12739244294E+03  0.12499551579E+03 0.  0.
    9000005    1    3    3    0    0  0.44997958483E+02  0.41492004487E+02  0.53589038396E+00  0.61218378633E+02  0.10000000000E+01 0.  0.
    9000005    1    3    3    0    0 -0.44997958483E+02 -0.41492004487E+02 -0.25131734587E+02  0.66174064311E+02  0.10000000000E+01 0.  0.
<mgrwt>
<rscale>  0 0.12499552E+03</rscale>
<asrwt>0</asrwt>
<pdfrwt beam="2">  1        4 0.11691407E-01 0.12499552E+03</pdfrwt>
<pdfrwt beam="1">  1       -4 0.79074307E-02 0.12499552E+03</pdfrwt>
<totfact> 0.10401683E+04</totfact>
</mgrwt>
</event>
<event>
 5    1  0.3188180E-002  0.1250008E+03  0.7818608E-02  0.1235068E+00
          4   -1    0    0  501    0  0.00000000000E+00  0.00000000000E+00  0.60508204474E+02  0.60521530951E+02  0.12700000000E+01 0. -1.
         -4   -1    0    0    0  501 -0.00000000000E+00 -0.00000000000E+00 -0.64531478300E+02  0.64543974092E+02  0.12700000000E+01 0. -1.
         25    2    1    2    0    0  0.00000000000E+00  0.00000000000E+00 -0.40232738266E+01  0.12506550504E+03  0.12500077528E+03 0.  0.
    9000005    1    3    3    0    0 -0.95956632007E+01 -0.61724179694E+02 -0.38421590630E+01  0.62591639197E+02  0.10000000000E+01 0.  0.
    9000005    1    3    3    0    0  0.95956632007E+01  0.61724179694E+02 -0.18111476360E+00  0.62473865846E+02  0.10000000000E+01 0.  0.
<mgrwt>
<rscale>  0 0.12500078E+03</rscale>
<asrwt>0</asrwt>
<pdfrwt beam="1">  1        4 0.93109408E-02 0.12500078E+03</pdfrwt>
<pdfrwt beam="2">  1       -4 0.99299062E-02 0.12500078E+03</pdfrwt>
<totfact> 0.10451257E+04</totfact>
</mgrwt>
</event>
<event>
 5    1  0.3188180E-002  0.1250009E+03  0.7818608E-02  0.1235068E+00
         -4   -1    0    0    0  501 -0.00000000000E+00  0.00000000000E+00  0.39414042340E+03  0.39414246949E+03  0.12700000000E+01 0.  1.
          4   -1    0    0  501    0  0.00000000000E+00 -0.00000000000E+00 -0.98681891155E+01  0.99495756904E+01  0.12700000000E+01 0.  1.
         25    2    1    2    0    0  0.00000000000E+00  0.00000000000E+00  0.38427223429E+03  0.40409204519E+03  0.12500092375E+03 0.  0.
    9000005    1    3    3    0    0 -0.54494108352E+02  0.24046904799E+02  0.25325458476E+03  0.26016676609E+03  0.10000000000E+01 0.  0.
    9000005    1    3    3    0    0  0.54494108352E+02 -0.24046904799E+02  0.13101764953E+03  0.14392527910E+03  0.10000000000E+01 0.  0.
<mgrwt>
<rscale>  0 0.12500092E+03</rscale>
<asrwt>0</asrwt>
<pdfrwt beam="2">  1        4 0.15246011E-02 0.12500092E+03</pdfrwt>
<pdfrwt beam="1">  1       -4 0.60643397E-01 0.12500092E+03</pdfrwt>
<totfact> 0.64155434E+03</totfact>
</mgrwt>
</event>
<event>
 5    1  0.3188180E-002  0.1249972E+03  0.7818608E-02  0.1235074E+00
          4   -1    0    0  501    0  0.00000000000E+00  0.00000000000E+00  0.10072551724E+02  0.10152300145E+02  0.12700000000E+01 0.  1.
         -4   -1    0    0    0  501 -0.00000000000E+00 -0.00000000000E+00 -0.38618378919E+03  0.38618587744E+03  0.12700000000E+01 0.  1.
         25    2    1    2    0    0  0.00000000000E+00  0.00000000000E+00 -0.37611123746E+03  0.39633817758E+03  0.12499715222E+03 0.  0.
    9000005    1    3    3    0    0  0.11780892122E+02 -0.38286462300E+02 -0.34013496752E+03  0.34248713661E+03  0.10000000000E+01 0.  0.
    9000005    1    3    3    0    0 -0.11780892122E+02  0.38286462300E+02 -0.35976269945E+02  0.53851040972E+02  0.10000000000E+01 0.  0.
<mgrwt>
<rscale>  0 0.12499715E+03</rscale>
<asrwt>0</asrwt>
<pdfrwt beam="1">  1        4 0.15559188E-02 0.12499715E+03</pdfrwt>
<pdfrwt beam="2">  1       -4 0.59419174E-01 0.12499715E+03</pdfrwt>
<totfact> 0.64914585E+03</totfact>
</mgrwt>
</event>
<event>
 5    1  0.3188180E-002  0.1249930E+03  0.7818608E-02  0.1235080E+00
         -4   -1    0    0    0  501 -0.00000000000E+00  0.00000000000E+00  0.16673703196E+03  0.16674186855E+03  0.12700000000E+01 0. -1.
          4   -1    0    0  501    0  0.00000000000E+00 -0.00000000000E+00 -0.23402582426E+02  0.23437016965E+02  0.12700000000E+01 0. -1.
         25    2    1    2    0    0  0.00000000000E+00  0.00000000000E+00  0.14333444954E+03  0.19017888551E+03  0.12499297609E+03 0.  0.
    9000005    1    3    3    0    0  0.54686516763E+01 -0.62236907780E+02  0.69821118603E+02  0.93698065317E+02  0.10000000000E+01 0.  0.
    9000005    1    3    3    0    0 -0.54686516763E+01  0.62236907780E+02  0.73513330932E+02  0.96480820197E+02  0.10000000000E+01 0.  0.
<mgrwt>
<rscale>  0 0.12499298E+03</rscale>
<asrwt>0</asrwt>
<pdfrwt beam="2">  1        4 0.36034182E-02 0.12499298E+03</pdfrwt>
<pdfrwt beam="1">  1       -4 0.25654871E-01 0.12499298E+03</pdfrwt>
<totfact> 0.91830646E+03</totfact>
</mgrwt>
</event>
<event>
 5    1  0.3188180E-002  0.1249909E+03  0.7818608E-02  0.1235083E+00
          4   -1    0    0  501    0  0.00000000000E+00  0.00000000000E+00  0.76105917593E+03  0.76106023558E+03  0.12700000000E+01 0.  1.
         -4   -1    0    0    0  501 -0.00000000000E+00 -0.00000000000E+00 -0.50522543910E+01  0.52094312964E+01  0.12700000000E+01 0.  1.
         25    2    1    2    0    0  0.00000000000E+00  0.00000000000E+00  0.75600692154E+03  0.76626966687E+03  0.12499094746E+03 0.  0.
    9000005    1    3    3    0    0 -0.16289787157E+02 -0.35598320832E+02  0.67658870835E+03  0.67772109151E+03  0.10000000000E+01 0.  0.
    9000005    1    3    3    0    0  0.16289787157E+02  0.35598320832E+02  0.79418213196E+02  0.88548575364E+02  0.10000000000E+01 0.  0.
<mgrwt>
<rscale>  0 0.12499095E+03</rscale>
<asrwt>0</asrwt>
<pdfrwt beam="1">  1        4 0.11709809E+00 0.12499095E+03</pdfrwt>
<pdfrwt beam="2">  1       -4 0.78944272E-03 0.12499095E+03</pdfrwt>
<totfact> 0.39815696E+03</totfact>
</mgrwt>
</event>
<event>
 5    1  0.3188180E-002  0.1250013E+03  0.7818608E-02  0.1235067E+00
         -4   -1    0    0    0  501 -0.00000000000E+00  0.00000000000E+00  0.43825647113E+03  0.43825831126E+03  0.12700000000E+01 0. -1.
          4   -1    0    0  501    0  0.00000000000E+00 -0.00000000000E+00 -0.88662396276E+01  0.89567351828E+01  0.12700000000E+01 0. -1.
         25    2    1    2    0    0  0.00000000000E+00  0.00000000000E+00  0.42939023150E+03  0.44721504644E+03  0.12500130741E+03 0.  0.
    9000005    1    3    3    0    0  0.54536337991E+02 -0.22728857845E+02  0.28753577181E+03  0.29354494240E+03  0.10000000000E+01 0.  0.
    9000005    1    3    3    0    0 -0.54536337991E+02  0.22728857845E+02  0.14185445969E+03  0.15367010404E+03  0.10000000000E+01 0.  0.
<mgrwt>
<rscale>  0 0.12500131E+03</rscale>
<asrwt>0</asrwt>
<pdfrwt beam="2">  1        4 0.13711397E-02 0.12500131E+03</pdfrwt>
<pdfrwt beam="1">  1       -4 0.67431169E-01 0.12500131E+03</pdfrwt>
<totfact> 0.60204084E+03</totfact>
</mgrwt>
</event>
<event>
 5    1  0.3188180E-002  0.1250030E+03  0.7818608E-02  0.1235065E+00
          4   -1    0    0  501    0  0.00000000000E+00  0.00000000000E+00  0.19668380355E+02  0.19709340065E+02  0.12700000000E+01 0. -1.
         -4   -1    0    0    0  501 -0.00000000000E+00 -0.00000000000E+00 -0.19836537998E+03  0.19836944542E+03  0.12700000000E+01 0. -1.
         25    2    1    2    0    0  0.00000000000E+00  0.00000000000E+00 -0.17869699963E+03  0.21807878549E+03  0.12500295597E+03 0.  0.
    9000005    1    3    3    0    0 -0.60453828150E+02  0.12364913061E+02 -0.72088673189E+02  0.94896434154E+02  0.10000000000E+01 0.  0.
    9000005    1    3    3    0    0  0.60453828150E+02 -0.12364913061E+02 -0.10660832644E+03  0.12318235133E+03  0.10000000000E+01 0.  0.
<mgrwt>
<rscale>  0 0.12500296E+03</rscale>
<asrwt>0</asrwt>
<pdfrwt beam="1">  1        4 0.30293683E-02 0.12500296E+03</pdfrwt>
<pdfrwt beam="2">  1       -4 0.30521213E-01 0.12500296E+03</pdfrwt>
<totfact> 0.87167516E+03</totfact>
</mgrwt>
</event>
<event>
 5    1  0.3188180E-002  0.1250050E+03  0.7818608E-02  0.1235062E+00
         -4   -1    0    0    0  501 -0.00000000000E+00  0.00000000000E+00  0.50164621786E+02  0.50180695282E+02  0.12700000000E+01 0.  1.
          4   -1    0    0  501    0  0.00000000000E+00 -0.00000000000E+00 -0.77841061913E+02  0.77851421437E+02  0.12700000000E+01 0.  1.
         25    2    1    2    0    0  0.00000000000E+00  0.00000000000E+00 -0.27676440127E+02  0.12803211672E+03  0.12500495020E+03 0.  0.
    9000005    1    3    3    0    0  0.41257010855E+01  0.42587044306E+02 -0.60492165619E+02  0.74101146101E+02  0.10000000000E+01 0.  0.
    9000005    1    3    3    0    0 -0.41257010855E+01 -0.42587044306E+02  0.32815725492E+02  0.53930970618E+02  0.10000000000E+01 0.  0.
<mgrwt>
<rscale>  0 0.12500495E+03</rscale>
<asrwt>0</asrwt>
<pdfrwt beam="2">  1        4 0.11977581E-01 0.12500495E+03</pdfrwt>
<pdfrwt beam="1">  1       -4 0.77196674E-02 0.12500495E+03</pdfrwt>
<totfact> 0.10385633E+04</totfact>
</mgrwt>
</event>
<event>
 5    1  0.3188180E-002  0.1249988E+03  0.7818608E-02  0.1235071E+00
         -4   -1    0    0    0  501 -0.00000000000E+00  0.00000000000E+00  0.76188363360E+03  0.76188469209E+03  0.12700000000E+01 0. -1.
          4   -1    0    0  501    0  0.00000000000E+00 -0.00000000000E+00 -0.50472698951E+01  0.52045973325E+01  0.12700000000E+01 0. -1.
         25    2    1    2    0    0  0.00000000000E+00  0.00000000000E+00  0.75683636370E+03  0.76708928942E+03  0.12499878610E+03 0.  0.
    9000005    1    3    3    0    0 -0.56911745057E+02  0.24530608661E+02  0.42769485042E+03  0.43216268067E+03  0.10000000000E+01 0.  0.
    9000005    1    3    3    0    0  0.56911745057E+02 -0.24530608661E+02  0.32914151328E+03  0.33492660876E+03  0.10000000000E+01 0.  0.
<mgrwt>
<rscale>  0 0.12499879E+03</rscale>
<asrwt>0</asrwt>
<pdfrwt beam="2">  1        4 0.78868696E-03 0.12499879E+03</pdfrwt>
<pdfrwt beam="1">  1       -4 0.11722500E+00 0.12499879E+03</pdfrwt>
<totfact> 0.39770859E+03</totfact>
</mgrwt>
</event>
<event>
 5    1  0.3188180E-002  0.1249880E+03  0.7818608E-02  0.1235088E+00
         -4   -1    0    0    0  501 -0.00000000000E+00  0.00000000000E+00  0.11733533012E+03  0.11734220296E+03  0.12700000000E+01 0.  1.
          4   -1    0    0  501    0  0.00000000000E+00 -0.00000000000E+00 -0.33264967289E+02  0.33289201684E+02  0.12700000000E+01 0.  1.
         25    2    1    2    0    0  0.00000000000E+00  0.00000000000E+00  0.84070362832E+02  0.15063140464E+03  0.12498797605E+03 0.  0.
    9000005    1    3    3    0    0  0.40678093339E+02  0.44318431665E+02  0.21665792820E+02  0.63947144123E+02  0.10000000000E+01 0.  0.
    9000005    1    3    3    0    0 -0.40678093339E+02 -0.44318431665E+02  0.62404570012E+02  0.86684260517E+02  0.10000000000E+01 0.  0.
<mgrwt>
<rscale>  0 0.12498798E+03</rscale>
<asrwt>0</asrwt>
<pdfrwt beam="2">  1        4 0.51200802E-02 0.12498798E+03</pdfrwt>
<pdfrwt beam="1">  1       -4 0.18053982E-01 0.12498798E+03</pdfrwt>
<totfact> 0.99204827E+03</totfact>
</mgrwt>
</event>
<event>
 5    1  0.3188180E-002  0.1249831E+03  0.7818608E-02  0.1235096E+00
          4   -1    0    0  501    0  0.00000000000E+00  0.00000000000E+00  0.82954836495E+01  0.83921361392E+01  0.12700000000E+01 0.  1.
         -4   -1    0    0    0  501 -0.00000000000E+00 -0.00000000000E+00 -0.46793708610E+03  0.46793880952E+03  0.12700000000E+01 0.  1.
         25    2    1    2    0    0  0.00000000000E+00  0.00000000000E+00 -0.45964160245E+03  0.47633094565E+03  0.12498306718E+03 0.  0.
    9000005    1    3    3    0    0  0.30388549137E+02  0.16553160736E+02 -0.42810099862E+03  0.42949847039E+03  0.10000000000E+01 0.  0.
    9000005    1    3    3    0    0 -0.30388549137E+02 -0.16553160736E+02 -0.31540603830E+02  0.46832475260E+02  0.10000000000E+01 0.  0.
<mgrwt>
<rscale>  0 0.12498307E+03</rscale>
<asrwt>0</asrwt>
<pdfrwt beam="1">  1        4 0.12837960E-02 0.12498307E+03</pdfrwt>
<pdfrwt beam="2">  1       -4 0.71997868E-01 0.12498307E+03</pdfrwt>
<totfact> 0.57770259E+03</totfact>
</mgrwt>
</event>
<event>
 5    1  0.3188180E-002  0.1249916E+03  0.7818608E-02  0.1235082E+00
         -4   -1    0    0    0  501 -0.00000000000E+00  0.00000000000E+00  0.60187487743E+03  0.60187621732E+03  0.12700000000E+01 0. -1.
          4   -1    0    0  501    0  0.00000000000E+00 -0.00000000000E+00 -0.64257677890E+01  0.65500680667E+01  0.12700000000E+01 0. -1.
         25    2    1    2    0    0  0.00000000000E+00  0.00000000000E+00  0.59544910964E+03  0.60842628539E+03  0.12499161005E+03 0.  0.
    9000005    1    3    3    0    0  0.13851266768E+02 -0.24435305653E+02  0.26011334422E+02  0.38295316579E+02  0.10000000000E+01 0.  0.
    9000005    1    3    3    0    0 -0.13851266768E+02  0.24435305653E+02  0.56943777522E+03  0.57013096881E+03  0.10000000000E+01 0.  0.
<mgrwt>
<rscale>  0 0.12499161E+03</rscale>
<asrwt>0</asrwt>
<pdfrwt beam="2">  1        4 0.99824440E-03 0.12499161E+03</pdfrwt>
<pdfrwt beam="1">  1       -4 0.92605789E-01 0.12499161E+03</pdfrwt>
<totfact> 0.48348899E+03</totfact>
</mgrwt>
</event>
<event>
 4    1  0.3188180E-002  0.1250717E+03  0.7818608E-02  0.1234957E+00
          4   -1    0    0  501    0  0.00000000000E+00  0.00000000000E+00  0.56837382830E+02  0.56851569784E+02  0.12700000000E+01 0.  1.
         -4   -1    0    0    0  501 -0.00000000000E+00 -0.00000000000E+00 -0.68777004001E+02  0.68788728578E+02  0.12700000000E+01 0.  1.
    9000005    1    1    2    0    0  0.10385929997E+02  0.51054901637E+02  0.28759923717E+02  0.59519776002E+02  0.10000000000E+01 0.  0.
    9000005    1    1    2    0    0 -0.10385929997E+02 -0.51054901637E+02 -0.40699544888E+02  0.66120522360E+02  0.10000000000E+01 0.  0.
<mgrwt>
<rscale>  0 0.12507170E+03</rscale>
<asrwt>0</asrwt>
<pdfrwt beam="1">  1        4 0.87462060E-02 0.12507170E+03</pdfrwt>
<pdfrwt beam="2">  1       -4 0.10583071E-01 0.12507170E+03</pdfrwt>
<totfact> 0.10421993E+04</totfact>
</mgrwt>
</event>
<event>
 5    1  0.3188180E-002  0.1249997E+03  0.7818608E-02  0.1235070E+00
          4   -1    0    0  501    0  0.00000000000E+00  0.00000000000E+00  0.79649394481E+02  0.79659518836E+02  0.12700000000E+01 0. -1.
         -4   -1    0    0    0  501 -0.00000000000E+00 -0.00000000000E+00 -0.49021333290E+02  0.49037781531E+02  0.12700000000E+01 0. -1.
         25    2    1    2    0    0  0.00000000000E+00  0.00000000000E+00  0.30628061191E+02  0.12869730037E+03  0.12499966796E+03 0.  0.
    9000005    1    3    3    0    0 -0.47743020203E+02 -0.23850783346E+02  0.48786874109E+02  0.72314693733E+02  0.10000000000E+01 0.  0.
    9000005    1    3    3    0    0  0.47743020203E+02  0.23850783346E+02 -0.18158812918E+02  0.56382606634E+02  0.10000000000E+01 0.  0.
<mgrwt>
<rscale>  0 0.12499967E+03</rscale>
<asrwt>0</asrwt>
<pdfrwt beam="1">  1        4 0.12255797E-01 0.12499967E+03</pdfrwt>
<pdfrwt beam="2">  1       -4 0.75437877E-02 0.12499967E+03</pdfrwt>
<totfact> 0.10372534E+04</totfact>
</mgrwt>
</event>
<event>
 5    1  0.3188180E-002  0.1250015E+03  0.7818608E-02  0.1235067E+00
         -4   -1    0    0    0  501 -0.00000000000E+00  0.00000000000E+00  0.14469148810E+02  0.14524777702E+02  0.12700000000E+01 0. -1.
          4   -1    0    0  501    0  0.00000000000E+00 -0.00000000000E+00 -0.26940238618E+03  0.26940537964E+03  0.12700000000E+01 0. -1.
         25    2    1    2    0    0  0.00000000000E+00  0.00000000000E+00 -0.25493323737E+03  0.28393015735E+03  0.12500151492E+03 0.  0.
    9000005    1    3    3    0    0  0.57178377289E+02  0.24759890148E+02 -0.13834232546E+03  0.15173008272E+03  0.10000000000E+01 0.  0.
    9000005    1    3    3    0    0 -0.57178377289E+02 -0.24759890148E+02 -0.11659091191E+03  0.13220007462E+03  0.10000000000E+01 0.  0.
<mgrwt>
<rscale>  0 0.12500151E+03</rscale>
<asrwt>0</asrwt>
<pdfrwt beam="2">  1        4 0.41451027E-01 0.12500151E+03</pdfrwt>
<pdfrwt beam="1">  1       -4 0.22305325E-02 0.12500151E+03</pdfrwt>
<totfact> 0.77657252E+03</totfact>
</mgrwt>
</event>
<event>
 5    1  0.3188180E-002  0.1249892E+03  0.7818608E-02  0.1235086E+00
         -4   -1    0    0    0  501 -0.00000000000E+00  0.00000000000E+00  0.36710082566E+03  0.36710302247E+03  0.12700000000E+01 0.  1.
          4   -1    0    0  501    0  0.00000000000E+00 -0.00000000000E+00 -0.10598835103E+02  0.10674652478E+02  0.12700000000E+01 0.  1.
         25    2    1    2    0    0  0.00000000000E+00  0.00000000000E+00  0.35650199056E+03  0.37777767494E+03  0.12498920918E+03 0.  0.
    9000005    1    3    3    0    0  0.39063136735E+02 -0.34842974118E+01  0.31217042999E+02  0.50135543815E+02  0.10000000000E+01 0.  0.
    9000005    1    3    3    0    0 -0.39063136735E+02  0.34842974118E+01  0.32528494756E+03  0.32764213113E+03  0.10000000000E+01 0.  0.
<mgrwt>
<rscale>  0 0.12498921E+03</rscale>
<asrwt>0</asrwt>
<pdfrwt beam="2">  1        4 0.16365908E-02 0.12498921E+03</pdfrwt>
<pdfrwt beam="1">  1       -4 0.56483060E-01 0.12498921E+03</pdfrwt>
<totfact> 0.66788939E+03</totfact>
</mgrwt>
</event>
<event>
 5    1  0.3188180E-002  0.1250028E+03  0.7818608E-02  0.1235065E+00
         -4   -1    0    0    0  501 -0.00000000000E+00  0.00000000000E+00  0.67026047056E+01  0.68218626371E+01  0.12700000000E+01 0.  1.
          4   -1    0    0  501    0  0.00000000000E+00 -0.00000000000E+00 -0.57756289259E+03  0.57756428889E+03  0.12700000000E+01 0.  1.
         25    2    1    2    0    0  0.00000000000E+00  0.00000000000E+00 -0.57086028788E+03  0.58438615152E+03  0.12500282320E+03 0.  0.
    9000005    1    3    3    0    0 -0.40407870720E+02 -0.43258990306E+00 -0.50828731954E+03  0.50989212815E+03  0.10000000000E+01 0.  0.
    9000005    1    3    3    0    0  0.40407870720E+02  0.43258990306E+00 -0.62572968347E+02  0.74494023370E+02  0.10000000000E+01 0.  0.
<mgrwt>
<rscale>  0 0.12500282E+03</rscale>
<asrwt>0</asrwt>
<pdfrwt beam="2">  1        4 0.88865072E-01 0.12500282E+03</pdfrwt>
<pdfrwt beam="1">  1       -4 0.10404515E-02 0.12500282E+03</pdfrwt>
<totfact> 0.49865198E+03</totfact>
</mgrwt>
</event>
<event>
 5    1  0.3188180E-002  0.1250010E+03  0.7818608E-02  0.1235068E+00
         -4   -1    0    0    0  501 -0.00000000000E+00  0.00000000000E+00  0.97615218583E+03  0.97615301198E+03  0.12700000000E+01 0. -1.
          4   -1    0    0  501    0  0.00000000000E+00 -0.00000000000E+00 -0.39001358169E+01  0.41017020114E+01  0.12700000000E+01 0. -1.
         25    2    1    2    0    0  0.00000000000E+00  0.00000000000E+00  0.97225205001E+03  0.98025471399E+03  0.12500102220E+03 0.  0.
    9000005    1    3    3    0    0  0.68349720612E+01  0.61549275375E+02  0.55186952538E+03  0.55533413652E+03  0.10000000000E+01 0.  0.
    9000005    1    3    3    0    0 -0.68349720612E+01 -0.61549275375E+02  0.42038252463E+03  0.42492057747E+03  0.10000000000E+01 0.  0.
<mgrwt>
<rscale>  0 0.12500102E+03</rscale>
<asrwt>0</asrwt>
<pdfrwt beam="2">  1        4 0.61558965E-03 0.12500102E+03</pdfrwt>
<pdfrwt beam="1">  1       -4 0.15019280E+00 0.12500102E+03</pdfrwt>
<totfact> 0.31264877E+03</totfact>
</mgrwt>
</event>
<event>
 5    1  0.3188180E-002  0.1250006E+03  0.7818608E-02  0.1235068E+00
         -4   -1    0    0    0  501 -0.00000000000E+00  0.00000000000E+00  0.32963976536E+02  0.32988432049E+02  0.12700000000E+01 0.  1.
          4   -1    0    0  501    0  0.00000000000E+00 -0.00000000000E+00 -0.11842985290E+03  0.11843666222E+03  0.12700000000E+01 0.  1.
         25    2    1    2    0    0  0.00000000000E+00  0.00000000000E+00 -0.85465876363E+02  0.15142509427E+03  0.12500057261E+03 0.  0.
    9000005    1    3    3    0    0  0.11023159717E+01  0.57722910952E+02 -0.13757128628E+02  0.59358303019E+02  0.10000000000E+01 0.  0.
    9000005    1    3    3    0    0 -0.11023159717E+01 -0.57722910952E+02 -0.71708747735E+02  0.92066791249E+02  0.10000000000E+01 0.  0.
<mgrwt>
<rscale>  0 0.12500057E+03</rscale>
<asrwt>0</asrwt>
<pdfrwt beam="2">  1        4 0.18222382E-01 0.12500057E+03</pdfrwt>
<pdfrwt beam="1">  1       -4 0.50737860E-02 0.12500057E+03</pdfrwt>
<totfact> 0.99019106E+03</totfact>
</mgrwt>
</event>
<event>
 5    1  0.3188180E-002  0.1249973E+03  0.7818608E-02  0.1235074E+00
         -4   -1    0    0    0  501 -0.00000000000E+00  0.00000000000E+00  0.24693057643E+03  0.24693384231E+03  0.12700000000E+01 0.  1.
          4   -1    0    0  501    0  0.00000000000E+00 -0.00000000000E+00 -0.15789666242E+02  0.15840658447E+02  0.12700000000E+01 0.  1.
         25    2    1    2    0    0  0.00000000000E+00  0.00000000000E+00  0.23114091019E+03  0.26277450076E+03  0.12499727151E+03 0.  0.
    9000005    1    3    3    0    0 -0.66636174844E+01  0.39534644884E+02  0.14801171775E+02  0.42748878698E+02  0.10000000000E+01 0.  0.
    9000005    1    3    3    0    0  0.66636174844E+01 -0.39534644884E+02  0.21633973842E+03  0.22002562206E+03  0.10000000000E+01 0.  0.
<mgrwt>
<rscale>  0 0.12499727E+03</rscale>
<asrwt>0</asrwt>
<pdfrwt beam="2">  1        4 0.24333533E-02 0.12499727E+03</pdfrwt>
<pdfrwt beam="1">  1       -4 0.37993490E-01 0.12499727E+03</pdfrwt>
<totfact> 0.80523160E+03</totfact>
</mgrwt>
</event>
<event>
 5    1  0.3188180E-002  0.1250005E+03  0.7818608E-02  0.1235069E+00
         -4   -1    0    0    0  501 -0.00000000000E+00  0.00000000000E+00  0.54332790415E+01  0.55797330709E+01  0.12700000000E+01 0.  1.
          4   -1    0    0  501    0  0.00000000000E+00 -0.00000000000E+00 -0.70924674844E+03  0.70924788549E+03  0.12700000000E+01 0.  1.
         25    2    1    2    0    0  0.00000000000E+00  0.00000000000E+00 -0.70381346940E+03  0.71482761856E+03  0.12500049821E+03 0.  0.
    9000005    1    3    3    0    0  0.14793435596E+02 -0.65748235780E+01 -0.67379531434E+01  0.17563429459E+02  0.10000000000E+01 0.  0.
    9000005    1    3    3    0    0 -0.14793435596E+02  0.65748235780E+01 -0.69707551626E+03  0.69726418911E+03  0.10000000000E+01 0.  0.
<mgrwt>
<rscale>  0 0.12500050E+03</rscale>
<asrwt>0</asrwt>
<pdfrwt beam="2">  1        4 0.10912617E+00 0.12500050E+03</pdfrwt>
<pdfrwt beam="1">  1       -4 0.84724281E-03 0.12500050E+03</pdfrwt>
<totfact> 0.42315001E+03</totfact>
</mgrwt>
</event>
<event>
 5    1  0.3188180E-002  0.1249959E+03  0.7818608E-02  0.1235076E+00
          4   -1    0    0  501    0  0.00000000000E+00  0.00000000000E+00  0.25330126064E+02  0.25361943664E+02  0.12700000000E+01 0.  1.
         -4   -1    0    0    0  501 -0.00000000000E+00 -0.00000000000E+00 -0.15407214250E+03  0.15407737665E+03  0.12700000000E+01 0.  1.
         25    2    1    2    0    0  0.00000000000E+00  0.00000000000E+00 -0.12874201644E+03  0.17943932031E+03  0.12499585144E+03 0.  0.
    9000005    1    3    3    0    0  0.23209055439E+02  0.28491694097E+02 -0.13692804634E+03  0.14177703185E+03  0.10000000000E+01 0.  0.
    9000005    1    3    3    0    0 -0.23209055439E+02 -0.28491694097E+02  0.81860298981E+01  0.37662288464E+02  0.10000000000E+01 0.  0.
<mgrwt>
<rscale>  0 0.12499585E+03</rscale>
<asrwt>0</asrwt>
<pdfrwt beam="1">  1        4 0.38997927E-02 0.12499585E+03</pdfrwt>
<pdfrwt beam="2">  1       -4 0.23706256E-01 0.12499585E+03</pdfrwt>
<totfact> 0.93726744E+03</totfact>
</mgrwt>
</event>
<event>
 5    1  0.3188180E-002  0.1249999E+03  0.7818608E-02  0.1235069E+00
         -4   -1    0    0    0  501 -0.00000000000E+00  0.00000000000E+00  0.22483321851E+02  0.22519162095E+02  0.12700000000E+01 0.  1.
          4   -1    0    0  501    0  0.00000000000E+00 -0.00000000000E+00 -0.17356309671E+03  0.17356774309E+03  0.12700000000E+01 0.  1.
         25    2    1    2    0    0  0.00000000000E+00  0.00000000000E+00 -0.15107977486E+03  0.19608690518E+03  0.12499990405E+03 0.  0.
    9000005    1    3    3    0    0 -0.18735199530E+02  0.59374527911E+02 -0.67106522671E+02  0.91545768067E+02  0.10000000000E+01 0.  0.
    9000005    1    3    3    0    0  0.18735199530E+02 -0.59374527911E+02 -0.83973252191E+02  0.10454113712E+03  0.10000000000E+01 0.  0.
<mgrwt>
<rscale>  0 0.12499990E+03</rscale>
<asrwt>0</asrwt>
<pdfrwt beam="2">  1        4 0.26705128E-01 0.12499990E+03</pdfrwt>
<pdfrwt beam="1">  1       -4 0.34620871E-02 0.12499990E+03</pdfrwt>
<totfact> 0.90799062E+03</totfact>
</mgrwt>
</event>
<event>
 5    1  0.3188180E-002  0.1249996E+03  0.7818608E-02  0.1235070E+00
         -4   -1    0    0    0  501 -0.00000000000E+00  0.00000000000E+00  0.11450530484E+02  0.11520744263E+02  0.12700000000E+01 0. -1.
          4   -1    0    0  501    0  0.00000000000E+00 -0.00000000000E+00 -0.34002497290E+03  0.34002734463E+03  0.12700000000E+01 0. -1.
         25    2    1    2    0    0  0.00000000000E+00  0.00000000000E+00 -0.32857444241E+03  0.35154808889E+03  0.12499957838E+03 0.  0.
    9000005    1    3    3    0    0 -0.12034193116E+02 -0.59993308292E+02 -0.19999519311E+03  0.20914850253E+03  0.10000000000E+01 0.  0.
    9000005    1    3    3    0    0  0.12034193116E+02  0.59993308292E+02 -0.12857924930E+03  0.14239958636E+03  0.10000000000E+01 0.  0.
<mgrwt>
<rscale>  0 0.12499958E+03</rscale>
<asrwt>0</asrwt>
<pdfrwt beam="2">  1        4 0.52317110E-01 0.12499958E+03</pdfrwt>
<pdfrwt beam="1">  1       -4 0.17672038E-02 0.12499958E+03</pdfrwt>
<totfact> 0.69555235E+03</totfact>
</mgrwt>
</event>
<event>
 5    1  0.3188180E-002  0.1249974E+03  0.7818608E-02  0.1235073E+00
         -4   -1    0    0    0  501 -0.00000000000E+00  0.00000000000E+00  0.33583850449E+03  0.33584090579E+03  0.12700000000E+01 0. -1.
          4   -1    0    0  501    0  0.00000000000E+00 -0.00000000000E+00 -0.11593730614E+02  0.11663082335E+02  0.12700000000E+01 0. -1.
         25    2    1    2    0    0  0.00000000000E+00  0.00000000000E+00  0.32424477388E+03  0.34750398812E+03  0.12499739346E+03 0.  0.
    9000005    1    3    3    0    0  0.33789238934E+02  0.43495373269E+02  0.80049588507E+02  0.97172510432E+02  0.10000000000E+01 0.  0.
    9000005    1    3    3    0    0 -0.33789238934E+02 -0.43495373269E+02  0.24419518537E+03  0.25033147769E+03  0.10000000000E+01 0.  0.
<mgrwt>
<rscale>  0 0.12499739E+03</rscale>
<asrwt>0</asrwt>
<pdfrwt beam="2">  1        4 0.17891705E-02 0.12499739E+03</pdfrwt>
<pdfrwt beam="1">  1       -4 0.51672975E-01 0.12499739E+03</pdfrwt>
<totfact> 0.70004064E+03</totfact>
</mgrwt>
</event>
<event>
 5    1  0.3188180E-002  0.1249916E+03  0.7818608E-02  0.1235082E+00
          4   -1    0    0  501    0  0.00000000000E+00  0.00000000000E+00  0.61779894023E+02  0.61792946244E+02  0.12700000000E+01 0. -1.
         -4   -1    0    0    0  501 -0.00000000000E+00 -0.00000000000E+00 -0.63193917217E+02  0.63206677442E+02  0.12700000000E+01 0. -1.
         25    2    1    2    0    0  0.00000000000E+00  0.00000000000E+00 -0.14140231941E+01  0.12499962369E+03  0.12499162556E+03 0.  0.
    9000005    1    3    3    0    0 -0.54585368127E+02 -0.23746557488E+02 -0.19715205742E+02  0.62714836709E+02  0.10000000000E+01 0.  0.
    9000005    1    3    3    0    0  0.54585368127E+02  0.23746557488E+02  0.18301182548E+02  0.62284786976E+02  0.10000000000E+01 0.  0.
<mgrwt>
<rscale>  0 0.12499163E+03</rscale>
<asrwt>0</asrwt>
<pdfrwt beam="1">  1        4 0.95065847E-02 0.12499163E+03</pdfrwt>
<pdfrwt beam="2">  1       -4 0.97241267E-02 0.12499163E+03</pdfrwt>
<totfact> 0.10454849E+04</totfact>
</mgrwt>
</event>
<event>
 5    1  0.3188180E-002  0.1249994E+03  0.7818608E-02  0.1235070E+00
          4   -1    0    0  501    0  0.00000000000E+00  0.00000000000E+00  0.67173036128E+03  0.67173156184E+03  0.12700000000E+01 0.  1.
         -4   -1    0    0    0  501 -0.00000000000E+00 -0.00000000000E+00 -0.57445905957E+01  0.58833001888E+01  0.12700000000E+01 0.  1.
         25    2    1    2    0    0  0.00000000000E+00  0.00000000000E+00  0.66598577069E+03  0.67761486203E+03  0.12499941793E+03 0.  0.
    9000005    1    3    3    0    0  0.18848134312E+02 -0.52507048258E+02  0.48564529942E+03  0.48884005475E+03  0.10000000000E+01 0.  0.
    9000005    1    3    3    0    0 -0.18848134312E+02  0.52507048258E+02  0.18034047127E+03  0.18877480727E+03  0.10000000000E+01 0.  0.
<mgrwt>
<rscale>  0 0.12499942E+03</rscale>
<asrwt>0</asrwt>
<pdfrwt beam="1">  1        4 0.10335393E+00 0.12499942E+03</pdfrwt>
<pdfrwt beam="2">  1       -4 0.89454517E-03 0.12499942E+03</pdfrwt>
<totfact> 0.44295566E+03</totfact>
</mgrwt>
</event>
<event>
 5    1  0.3188180E-002  0.1250005E+03  0.7818608E-02  0.1235069E+00
         -4   -1    0    0    0  501 -0.00000000000E+00  0.00000000000E+00  0.88062771135E+02  0.88071928332E+02  0.12700000000E+01 0.  1.
          4   -1    0    0  501    0  0.00000000000E+00 -0.00000000000E+00 -0.44337346318E+02  0.44355531543E+02  0.12700000000E+01 0.  1.
         25    2    1    2    0    0  0.00000000000E+00  0.00000000000E+00  0.43725424818E+02  0.13242745987E+03  0.12500047741E+03 0.  0.
    9000005    1    3    3    0    0  0.34331108131E+02  0.46705375476E+02  0.46600980612E+02  0.74381909615E+02  0.10000000000E+01 0.  0.
    9000005    1    3    3    0    0 -0.34331108131E+02 -0.46705375476E+02 -0.28755557944E+01  0.58045550260E+02  0.10000000000E+01 0.  0.
<mgrwt>
<rscale>  0 0.12500048E+03</rscale>
<asrwt>0</asrwt>
<pdfrwt beam="2">  1        4 0.68232335E-02 0.12500048E+03</pdfrwt>
<pdfrwt beam="1">  1       -4 0.13550222E-01 0.12500048E+03</pdfrwt>
<totfact> 0.10292472E+04</totfact>
</mgrwt>
</event>
<event>
 5    1  0.3188180E-002  0.1249902E+03  0.7818608E-02  0.1235085E+00
          4   -1    0    0  501    0  0.00000000000E+00  0.00000000000E+00  0.26907156439E+02  0.26937111345E+02  0.12700000000E+01 0.  1.
         -4   -1    0    0    0  501 -0.00000000000E+00 -0.00000000000E+00 -0.14503881232E+03  0.14504437245E+03  0.12700000000E+01 0.  1.
         25    2    1    2    0    0  0.00000000000E+00  0.00000000000E+00 -0.11813165588E+03  0.17198148379E+03  0.12499017020E+03 0.  0.
    9000005    1    3    3    0    0 -0.60651481495E+02  0.13922607555E+02 -0.66873046845E+02  0.91353410462E+02  0.10000000000E+01 0.  0.
    9000005    1    3    3    0    0  0.60651481495E+02 -0.13922607555E+02 -0.51258609032E+02  0.80628073328E+02  0.10000000000E+01 0.  0.
<mgrwt>
<rscale>  0 0.12499017E+03</rscale>
<asrwt>0</asrwt>
<pdfrwt beam="1">  1        4 0.41422945E-02 0.12499017E+03</pdfrwt>
<pdfrwt beam="2">  1       -4 0.22316395E-01 0.12499017E+03</pdfrwt>
<totfact> 0.95101576E+03</totfact>
</mgrwt>
</event>
<event>
 5    1  0.3188180E-002  0.1250030E+03  0.7818608E-02  0.1235065E+00
          4   -1    0    0  501    0  0.00000000000E+00  0.00000000000E+00  0.98791185821E+02  0.98799348662E+02  0.12700000000E+01 0. -1.
         -4   -1    0    0    0  501 -0.00000000000E+00 -0.00000000000E+00 -0.39522375326E+02  0.39542774958E+02  0.12700000000E+01 0. -1.
         25    2    1    2    0    0  0.00000000000E+00  0.00000000000E+00  0.59268810495E+02  0.13834212362E+03  0.12500300504E+03 0.  0.
    9000005    1    3    3    0    0 -0.50639200345E+02  0.11162568454E+02  0.68234747967E+02  0.85708298176E+02  0.10000000000E+01 0.  0.
    9000005    1    3    3    0    0  0.50639200345E+02 -0.11162568454E+02 -0.89659374714E+01  0.52633825444E+02  0.10000000000E+01 0.  0.
<mgrwt>
<rscale>  0 0.12500301E+03</rscale>
<asrwt>0</asrwt>
<pdfrwt beam="1">  1        4 0.15200841E-01 0.12500301E+03</pdfrwt>
<pdfrwt beam="2">  1       -4 0.60825626E-02 0.12500301E+03</pdfrwt>
<totfact> 0.10167374E+04</totfact>
</mgrwt>
</event>
<event>
 5    1  0.3188180E-002  0.1250484E+03  0.7818608E-02  0.1234994E+00
          4   -1    0    0  501    0  0.00000000000E+00  0.00000000000E+00  0.20471383824E+02  0.20510740008E+02  0.12700000000E+01 0. -1.
         -4   -1    0    0    0  501 -0.00000000000E+00 -0.00000000000E+00 -0.19073801209E+03  0.19074224010E+03  0.12700000000E+01 0. -1.
         25    2    1    2    0    0  0.00000000000E+00  0.00000000000E+00 -0.17026662827E+03  0.21125298011E+03  0.12504837824E+03 0.  0.
    9000005    1    3    3    0    0  0.11359802433E+02 -0.56897604177E+02 -0.12445942971E+03  0.13732272979E+03  0.10000000000E+01 0.  0.
    9000005    1    3    3    0    0 -0.11359802433E+02  0.56897604177E+02 -0.45807198560E+02  0.73930250320E+02  0.10000000000E+01 0.  0.
<mgrwt>
<rscale>  0 0.12504838E+03</rscale>
<asrwt>0</asrwt>
<pdfrwt beam="1">  1        4 0.31527964E-02 0.12504838E+03</pdfrwt>
<pdfrwt beam="2">  1       -4 0.29347661E-01 0.12504838E+03</pdfrwt>
<totfact> 0.88176268E+03</totfact>
</mgrwt>
</event>
<event>
 5    1  0.3188180E-002  0.1249983E+03  0.7818608E-02  0.1235072E+00
          4   -1    0    0  501    0  0.00000000000E+00  0.00000000000E+00  0.79559192237E+02  0.79569328070E+02  0.12700000000E+01 0. -1.
         -4   -1    0    0    0  501 -0.00000000000E+00 -0.00000000000E+00 -0.49075871018E+02  0.49092300987E+02  0.12700000000E+01 0. -1.
         25    2    1    2    0    0  0.00000000000E+00  0.00000000000E+00  0.30483321219E+02  0.12866162906E+03  0.12499832766E+03 0.  0.
    9000005    1    3    3    0    0  0.59330089211E+02 -0.17199042904E+02  0.55159957422E+01  0.62026548926E+02  0.10000000000E+01 0.  0.
    9000005    1    3    3    0    0 -0.59330089211E+02  0.17199042904E+02  0.24967325477E+02  0.66635080131E+02  0.10000000000E+01 0.  0.
<mgrwt>
<rscale>  0 0.12499833E+03</rscale>
<asrwt>0</asrwt>
<pdfrwt beam="1">  1        4 0.12241919E-01 0.12499833E+03</pdfrwt>
<pdfrwt beam="2">  1       -4 0.75521775E-02 0.12499833E+03</pdfrwt>
<totfact> 0.10373615E+04</totfact>
</mgrwt>
</event>
<event>
 5    1  0.3188180E-002  0.1250017E+03  0.7818608E-02  0.1235067E+00
          4   -1    0    0  501    0  0.00000000000E+00  0.00000000000E+00  0.10194226054E+04  0.10194233965E+04  0.12700000000E+01 0. -1.
         -4   -1    0    0    0  501 -0.00000000000E+00 -0.00000000000E+00 -0.37258896729E+01  0.39363884278E+01  0.12700000000E+01 0. -1.
         25    2    1    2    0    0  0.00000000000E+00  0.00000000000E+00  0.10156967157E+04  0.10233597849E+04  0.12500172414E+03 0.  0.
    9000005    1    3    3    0    0  0.59648039976E+02  0.92950453211E+01  0.37556907201E+03  0.38039113343E+03  0.10000000000E+01 0.  0.
    9000005    1    3    3    0    0 -0.59648039976E+02 -0.92950453211E+01  0.64012764373E+03  0.64296865150E+03  0.10000000000E+01 0.  0.
<mgrwt>
<rscale>  0 0.12500172E+03</rscale>
<asrwt>0</asrwt>
<pdfrwt beam="1">  1        4 0.15685042E+00 0.12500172E+03</pdfrwt>
<pdfrwt beam="2">  1       -4 0.58946715E-03 0.12500172E+03</pdfrwt>
<totfact> 0.29840259E+03</totfact>
</mgrwt>
</event>
<event>
 5    1  0.3188180E-002  0.1249693E+03  0.7818608E-02  0.1235117E+00
         -4   -1    0    0    0  501 -0.00000000000E+00  0.00000000000E+00  0.20500503485E+02  0.20539803873E+02  0.12700000000E+01 0. -1.
          4   -1    0    0  501    0  0.00000000000E+00 -0.00000000000E+00 -0.19022686763E+03  0.19023110699E+03  0.12700000000E+01 0. -1.
         25    2    1    2    0    0  0.00000000000E+00  0.00000000000E+00 -0.16972636414E+03  0.21077091087E+03  0.12496934897E+03 0.  0.
    9000005    1    3    3    0    0 -0.19705241369E+01 -0.52987096056E+02 -0.14059234694E+03  0.15026218197E+03  0.10000000000E+01 0.  0.
    9000005    1    3    3    0    0  0.19705241369E+01  0.52987096056E+02 -0.29134017206E+02  0.60508728894E+02  0.10000000000E+01 0.  0.
<mgrwt>
<rscale>  0 0.12496935E+03</rscale>
<asrwt>0</asrwt>
<pdfrwt beam="2">  1        4 0.29269020E-01 0.12496935E+03</pdfrwt>
<pdfrwt beam="1">  1       -4 0.31572730E-02 0.12496935E+03</pdfrwt>
<totfact> 0.88410702E+03</totfact>
</mgrwt>
</event>
<event>
 5    1  0.3188180E-002  0.1249983E+03  0.7818608E-02  0.1235072E+00
          4   -1    0    0  501    0  0.00000000000E+00  0.00000000000E+00  0.38842035688E+02  0.38862792442E+02  0.12700000000E+01 0. -1.
         -4   -1    0    0    0  501 -0.00000000000E+00 -0.00000000000E+00 -0.10051327923E+03  0.10052130223E+03  0.12700000000E+01 0. -1.
         25    2    1    2    0    0  0.00000000000E+00  0.00000000000E+00 -0.61671243546E+02  0.13938409467E+03  0.12499833426E+03 0.  0.
    9000005    1    3    3    0    0  0.62218779751E+02  0.85836206953E+00 -0.24407400107E+02  0.66847846032E+02  0.10000000000E+01 0.  0.
    9000005    1    3    3    0    0 -0.62218779751E+02 -0.85836206953E+00 -0.37263843439E+02  0.72536248642E+02  0.10000000000E+01 0.  0.
<mgrwt>
<rscale>  0 0.12499833E+03</rscale>
<asrwt>0</asrwt>
<pdfrwt beam="1">  1        4 0.59779117E-02 0.12499833E+03</pdfrwt>
<pdfrwt beam="2">  1       -4 0.15465795E-01 0.12499833E+03</pdfrwt>
<totfact> 0.10146747E+04</totfact>
</mgrwt>
</event>
<event>
 5    1  0.3188180E-002  0.1250025E+03  0.7818608E-02  0.1235065E+00
         -4   -1    0    0    0  501 -0.00000000000E+00  0.00000000000E+00  0.47733088823E+03  0.47733257773E+03  0.12700000000E+01 0. -1.
          4   -1    0    0  501    0  0.00000000000E+00 -0.00000000000E+00 -0.81328646075E+01  0.82314267733E+01  0.12700000000E+01 0. -1.
         25    2    1    2    0    0  0.00000000000E+00  0.00000000000E+00  0.46919802363E+03  0.48556400450E+03  0.12500246835E+03 0.  0.
    9000005    1    3    3    0    0  0.26602699712E+02  0.29536293859E+02  0.42191210569E+03  0.42378169051E+03  0.10000000000E+01 0.  0.
    9000005    1    3    3    0    0 -0.26602699712E+02 -0.29536293859E+02  0.47285917941E+02  0.61782313994E+02  0.10000000000E+01 0.  0.
<mgrwt>
<rscale>  0 0.12500247E+03</rscale>
<asrwt>0</asrwt>
<pdfrwt beam="2">  1        4 0.12589219E-02 0.12500247E+03</pdfrwt>
<pdfrwt beam="1">  1       -4 0.73443218E-01 0.12500247E+03</pdfrwt>
<totfact> 0.56998990E+03</totfact>
</mgrwt>
</event>
<event>
 5    1  0.3188180E-002  0.1249931E+03  0.7818608E-02  0.1235080E+00
         -4   -1    0    0    0  501 -0.00000000000E+00  0.00000000000E+00  0.16310708680E+02  0.16360076945E+02  0.12700000000E+01 0. -1.
          4   -1    0    0  501    0  0.00000000000E+00 -0.00000000000E+00 -0.23905071478E+03  0.23905408831E+03  0.12700000000E+01 0. -1.
         25    2    1    2    0    0  0.00000000000E+00  0.00000000000E+00 -0.22274000610E+03  0.25541416526E+03  0.12499314179E+03 0.  0.
    9000005    1    3    3    0    0  0.26570739538E+02  0.39354671472E+02 -0.19437501595E+03  0.20009358109E+03  0.10000000000E+01 0.  0.
    9000005    1    3    3    0    0 -0.26570739538E+02 -0.39354671472E+02 -0.28364990149E+02  0.55320584165E+02  0.10000000000E+01 0.  0.
<mgrwt>
<rscale>  0 0.12499314E+03</rscale>
<asrwt>0</asrwt>
<pdfrwt beam="2">  1        4 0.36781087E-01 0.12499314E+03</pdfrwt>
<pdfrwt beam="1">  1       -4 0.25133970E-02 0.12499314E+03</pdfrwt>
<totfact> 0.81566413E+03</totfact>
</mgrwt>
</event>
<event>
 5    1  0.3188180E-002  0.1250383E+03  0.7818608E-02  0.1235009E+00
          4   -1    0    0  501    0  0.00000000000E+00  0.00000000000E+00  0.79055616550E+03  0.79055718560E+03  0.12700000000E+01 0.  1.
         -4   -1    0    0    0  501 -0.00000000000E+00 -0.00000000000E+00 -0.48615730300E+01  0.50247181340E+01  0.12700000000E+01 0.  1.
         25    2    1    2    0    0  0.00000000000E+00  0.00000000000E+00  0.78569459247E+03  0.79558190374E+03  0.12503828581E+03 0.  0.
    9000005    1    3    3    0    0  0.61702152616E+02 -0.25183294393E+01  0.33111080833E+03  0.33682171102E+03  0.10000000000E+01 0.  0.
    9000005    1    3    3    0    0 -0.61702152616E+02  0.25183294393E+01  0.45458378414E+03  0.45876019272E+03  0.10000000000E+01 0.  0.
<mgrwt>
<rscale>  0 0.12503829E+03</rscale>
<asrwt>0</asrwt>
<pdfrwt beam="1">  1        4 0.12163669E+00 0.12503829E+03</pdfrwt>
<pdfrwt beam="2">  1       -4 0.76056217E-03 0.12503829E+03</pdfrwt>
<totfact> 0.38430556E+03</totfact>
</mgrwt>
</event>
<event>
 5    1  0.3188180E-002  0.1249988E+03  0.7818608E-02  0.1235071E+00
         -4   -1    0    0    0  501 -0.00000000000E+00  0.00000000000E+00  0.51006063870E+02  0.51021872285E+02  0.12700000000E+01 0. -1.
          4   -1    0    0  501    0  0.00000000000E+00 -0.00000000000E+00 -0.76549578828E+02  0.76560113106E+02  0.12700000000E+01 0. -1.
         25    2    1    2    0    0  0.00000000000E+00  0.00000000000E+00 -0.25543514958E+02  0.12758198539E+03  0.12499876735E+03 0.  0.
    9000005    1    3    3    0    0  0.14905666529E+02  0.55157216919E+02  0.13062898322E+02  0.58618570313E+02  0.10000000000E+01 0.  0.
    9000005    1    3    3    0    0 -0.14905666529E+02 -0.55157216919E+02 -0.38606413280E+02  0.68963415079E+02  0.10000000000E+01 0.  0.
<mgrwt>
<rscale>  0 0.12499877E+03</rscale>
<asrwt>0</asrwt>
<pdfrwt beam="2">  1        4 0.11778885E-01 0.12499877E+03</pdfrwt>
<pdfrwt beam="1">  1       -4 0.78491131E-02 0.12499877E+03</pdfrwt>
<totfact> 0.10396815E+04</totfact>
</mgrwt>
</event>
<event>
 5    1  0.3188180E-002  0.1250037E+03  0.7818608E-02  0.1235064E+00
          4   -1    0    0  501    0  0.00000000000E+00  0.00000000000E+00  0.14670035855E+03  0.14670585571E+03  0.12700000000E+01 0. -1.
         -4   -1    0    0    0  501 -0.00000000000E+00 -0.00000000000E+00 -0.26607839050E+02  0.26638130544E+02  0.12700000000E+01 0. -1.
         25    2    1    2    0    0  0.00000000000E+00  0.00000000000E+00  0.12009251950E+03  0.17334398625E+03  0.12500369726E+03 0.  0.
    9000005    1    3    3    0    0  0.20394218588E+02  0.43396613169E+02  0.11562363340E+03  0.12517593533E+03  0.10000000000E+01 0.  0.
    9000005    1    3    3    0    0 -0.20394218588E+02 -0.43396613169E+02  0.44688861032E+01  0.48168050919E+02  0.10000000000E+01 0.  0.
<mgrwt>
<rscale>  0 0.12500370E+03</rscale>
<asrwt>0</asrwt>
<pdfrwt beam="1">  1        4 0.22572039E-01 0.12500370E+03</pdfrwt>
<pdfrwt beam="2">  1       -4 0.40962667E-02 0.12500370E+03</pdfrwt>
<totfact> 0.94821147E+03</totfact>
</mgrwt>
</event>
<event>
 5    1  0.3188180E-002  0.1249996E+03  0.7818608E-02  0.1235070E+00
          4   -1    0    0  501    0  0.00000000000E+00  0.00000000000E+00  0.18854978155E+03  0.18855405862E+03  0.12700000000E+01 0.  1.
         -4   -1    0    0    0  501 -0.00000000000E+00 -0.00000000000E+00 -0.20693226454E+02  0.20732161515E+02  0.12700000000E+01 0.  1.
         25    2    1    2    0    0  0.00000000000E+00  0.00000000000E+00  0.16785655510E+03  0.20928622014E+03  0.12499959540E+03 0.  0.
    9000005    1    3    3    0    0 -0.49795508972E+02  0.34020504844E+02  0.56506754659E+02  0.82649868637E+02  0.10000000000E+01 0.  0.
    9000005    1    3    3    0    0  0.49795508972E+02 -0.34020504844E+02  0.11134980044E+03  0.12663635150E+03  0.10000000000E+01 0.  0.
<mgrwt>
<rscale>  0 0.12499960E+03</rscale>
<asrwt>0</asrwt>
<pdfrwt beam="1">  1        4 0.29010983E-01 0.12499960E+03</pdfrwt>
<pdfrwt beam="2">  1       -4 0.31868973E-02 0.12499960E+03</pdfrwt>
<totfact> 0.88593384E+03</totfact>
</mgrwt>
</event>
<event>
 5    1  0.3188180E-002  0.1250025E+03  0.7818608E-02  0.1235065E+00
          4   -1    0    0  501    0  0.00000000000E+00  0.00000000000E+00  0.12264499050E+03  0.12265156580E+03  0.12700000000E+01 0.  1.
         -4   -1    0    0    0  501 -0.00000000000E+00 -0.00000000000E+00 -0.31831251341E+02  0.31856576431E+02  0.12700000000E+01 0.  1.
         25    2    1    2    0    0  0.00000000000E+00  0.00000000000E+00  0.90813739156E+02  0.15450814223E+03  0.12500252316E+03 0.  0.
    9000005    1    3    3    0    0  0.64286787491E+01 -0.22707161396E+02  0.11693147128E+03  0.11929338651E+03  0.10000000000E+01 0.  0.
    9000005    1    3    3    0    0 -0.64286787491E+01  0.22707161396E+02 -0.26117732127E+02  0.35214755722E+02  0.10000000000E+01 0.  0.
<mgrwt>
<rscale>  0 0.12500252E+03</rscale>
<asrwt>0</asrwt>
<pdfrwt beam="1">  1        4 0.18870914E-01 0.12500252E+03</pdfrwt>
<pdfrwt beam="2">  1       -4 0.48995695E-02 0.12500252E+03</pdfrwt>
<totfact> 0.98406559E+03</totfact>
</mgrwt>
</event>
<event>
 5    1  0.3188180E-002  0.1249948E+03  0.7818608E-02  0.1235077E+00
         -4   -1    0    0    0  501 -0.00000000000E+00  0.00000000000E+00  0.10703617826E+02  0.10778698185E+02  0.12700000000E+01 0. -1.
          4   -1    0    0  501    0  0.00000000000E+00 -0.00000000000E+00 -0.36356498918E+03  0.36356720734E+03  0.12700000000E+01 0. -1.
         25    2    1    2    0    0  0.00000000000E+00  0.00000000000E+00 -0.35286137135E+03  0.37434590553E+03  0.12499483827E+03 0.  0.
    9000005    1    3    3    0    0  0.13299350245E+02 -0.26364084041E+01 -0.35912158527E+03  0.35937882016E+03  0.10000000000E+01 0.  0.
    9000005    1    3    3    0    0 -0.13299350245E+02  0.26364084041E+01  0.62602139228E+01  0.14967085373E+02  0.10000000000E+01 0.  0.
<mgrwt>
<rscale>  0 0.12499484E+03</rscale>
<asrwt>0</asrwt>
<pdfrwt beam="2">  1        4 0.55939012E-01 0.12499484E+03</pdfrwt>
<pdfrwt beam="1">  1       -4 0.16526568E-02 0.12499484E+03</pdfrwt>
<totfact> 0.67134375E+03</totfact>
</mgrwt>
</event>
<event>
 5    1  0.3188180E-002  0.1250015E+03  0.7818608E-02  0.1235067E+00
          4   -1    0    0  501    0  0.00000000000E+00  0.00000000000E+00  0.19600281762E+03  0.19600693206E+03  0.12700000000E+01 0.  1.
         -4   -1    0    0    0  501 -0.00000000000E+00 -0.00000000000E+00 -0.19905464597E+02  0.19945937452E+02  0.12700000000E+01 0.  1.
         25    2    1    2    0    0  0.00000000000E+00  0.00000000000E+00  0.17609735302E+03  0.21595286951E+03  0.12500145642E+03 0.  0.
    9000005    1    3    3    0    0 -0.45544956435E+02 -0.38324248553E+02  0.12092990758E+03  0.13478921927E+03  0.10000000000E+01 0.  0.
    9000005    1    3    3    0    0  0.45544956435E+02  0.38324248553E+02  0.55167445441E+02  0.81163650240E+02  0.10000000000E+01 0.  0.
<mgrwt>
<rscale>  0 0.12500146E+03</rscale>
<asrwt>0</asrwt>
<pdfrwt beam="1">  1        4 0.30157709E-01 0.12500146E+03</pdfrwt>
<pdfrwt beam="2">  1       -4 0.30658090E-02 0.12500146E+03</pdfrwt>
<totfact> 0.87509986E+03</totfact>
</mgrwt>
</event>
<event>
 5    1  0.3188180E-002  0.1249993E+03  0.7818608E-02  0.1235070E+00
          4   -1    0    0  501    0  0.00000000000E+00  0.00000000000E+00  0.76284540320E+01  0.77334475441E+01  0.12700000000E+01 0. -1.
         -4   -1    0    0    0  501 -0.00000000000E+00 -0.00000000000E+00 -0.50845155310E+03  0.50845313919E+03  0.12700000000E+01 0. -1.
         25    2    1    2    0    0  0.00000000000E+00  0.00000000000E+00 -0.50082309907E+03  0.51618658674E+03  0.12499926305E+03 0.  0.
    9000005    1    3    3    0    0  0.14800188402E+02 -0.17348789869E+02 -0.49067627147E+03  0.49120691106E+03  0.10000000000E+01 0.  0.
    9000005    1    3    3    0    0 -0.14800188402E+02  0.17348789869E+02 -0.10146827603E+02  0.24979675679E+02  0.10000000000E+01 0.  0.
<mgrwt>
<rscale>  0 0.12499926E+03</rscale>
<asrwt>0</asrwt>
<pdfrwt beam="1">  1        4 0.11818071E-02 0.12499926E+03</pdfrwt>
<pdfrwt beam="2">  1       -4 0.78231488E-01 0.12499926E+03</pdfrwt>
<totfact> 0.54630896E+03</totfact>
</mgrwt>
</event>
<event>
 5    1  0.3188180E-002  0.1249949E+03  0.7818608E-02  0.1235077E+00
         -4   -1    0    0    0  501 -0.00000000000E+00  0.00000000000E+00  0.10883194005E+03  0.10883934984E+03  0.12700000000E+01 0. -1.
          4   -1    0    0  501    0  0.00000000000E+00 -0.00000000000E+00 -0.35869674127E+02  0.35892149866E+02  0.12700000000E+01 0. -1.
         25    2    1    2    0    0  0.00000000000E+00  0.00000000000E+00  0.72962265920E+02  0.14473149971E+03  0.12499485893E+03 0.  0.
    9000005    1    3    3    0    0  0.85427571909E+00  0.11054981362E+01  0.10881953237E+03  0.10883309487E+03  0.10000000000E+01 0.  0.
    9000005    1    3    3    0    0 -0.85427571909E+00 -0.11054981362E+01 -0.35857266449E+02  0.35898404844E+02  0.10000000000E+01 0.  0.
<mgrwt>
<rscale>  0 0.12499486E+03</rscale>
<asrwt>0</asrwt>
<pdfrwt beam="2">  1        4 0.55207103E-02 0.12499486E+03</pdfrwt>
<pdfrwt beam="1">  1       -4 0.16745674E-01 0.12499486E+03</pdfrwt>
<totfact> 0.10037609E+04</totfact>
</mgrwt>
</event>
<event>
 5    1  0.3188180E-002  0.1249960E+03  0.7818608E-02  0.1235076E+00
         -4   -1    0    0    0  501 -0.00000000000E+00  0.00000000000E+00  0.28638184345E+02  0.28666330469E+02  0.12700000000E+01 0. -1.
          4   -1    0    0  501    0  0.00000000000E+00 -0.00000000000E+00 -0.13629321133E+03  0.13629912823E+03  0.12700000000E+01 0. -1.
         25    2    1    2    0    0  0.00000000000E+00  0.00000000000E+00 -0.10765502699E+03  0.16496545870E+03  0.12499599084E+03 0.  0.
    9000005    1    3    3    0    0 -0.28459921334E+02  0.30929126931E+01  0.19481492698E+02  0.34641907988E+02  0.10000000000E+01 0.  0.
    9000005    1    3    3    0    0  0.28459921334E+02 -0.30929126931E+01 -0.12713651969E+03  0.13032355071E+03  0.10000000000E+01 0.  0.
<mgrwt>
<rscale>  0 0.12499599E+03</rscale>
<asrwt>0</asrwt>
<pdfrwt beam="2">  1        4 0.20970806E-01 0.12499599E+03</pdfrwt>
<pdfrwt beam="1">  1       -4 0.44084948E-02 0.12499599E+03</pdfrwt>
<totfact> 0.96402617E+03</totfact>
</mgrwt>
</event>
<event>
 5    1  0.3188180E-002  0.1250028E+03  0.7818608E-02  0.1235065E+00
         -4   -1    0    0    0  501 -0.00000000000E+00  0.00000000000E+00  0.13931252697E+04  0.13931258485E+04  0.12700000000E+01 0.  1.
          4   -1    0    0  501    0  0.00000000000E+00 -0.00000000000E+00 -0.26596656903E+01  0.29473244789E+01  0.12700000000E+01 0.  1.
         25    2    1    2    0    0  0.00000000000E+00  0.00000000000E+00  0.13904656040E+04  0.13960731730E+04  0.12500283435E+03 0.  0.
    9000005    1    3    3    0    0 -0.34445109595E+01 -0.72885736748E+01  0.31169957806E+01  0.87007829912E+01  0.10000000000E+01 0.  0.
    9000005    1    3    3    0    0  0.34445109595E+01  0.72885736748E+01  0.13873486082E+04  0.13873723900E+04  0.10000000000E+01 0.  0.
<mgrwt>
<rscale>  0 0.12500283E+03</rscale>
<asrwt>0</asrwt>
<pdfrwt beam="2">  1        4 0.43135051E-03 0.12500283E+03</pdfrwt>
<pdfrwt beam="1">  1       -4 0.21434961E+00 0.12500283E+03</pdfrwt>
<totfact> 0.20064041E+03</totfact>
</mgrwt>
</event>
<event>
 5    1  0.3188180E-002  0.1250013E+03  0.7818608E-02  0.1235067E+00
         -4   -1    0    0    0  501 -0.00000000000E+00  0.00000000000E+00  0.20950017698E+02  0.20988476399E+02  0.12700000000E+01 0. -1.
          4   -1    0    0  501    0  0.00000000000E+00 -0.00000000000E+00 -0.18624782867E+03  0.18625215860E+03  0.12700000000E+01 0. -1.
         25    2    1    2    0    0  0.00000000000E+00  0.00000000000E+00 -0.16529781097E+03  0.20724063500E+03  0.12500125793E+03 0.  0.
    9000005    1    3    3    0    0 -0.46799668745E+01 -0.62054308333E+02 -0.92127930354E+02  0.11118091034E+03  0.10000000000E+01 0.  0.
    9000005    1    3    3    0    0  0.46799668745E+01  0.62054308333E+02 -0.73169880617E+02  0.96059724661E+02  0.10000000000E+01 0.  0.
<mgrwt>
<rscale>  0 0.12500126E+03</rscale>
<asrwt>0</asrwt>
<pdfrwt beam="2">  1        4 0.28656802E-01 0.12500126E+03</pdfrwt>
<pdfrwt beam="1">  1       -4 0.32263712E-02 0.12500126E+03</pdfrwt>
<totfact> 0.88926012E+03</totfact>
</mgrwt>
</event>
<event>
 5    1  0.3188180E-002  0.1249932E+03  0.7818608E-02  0.1235080E+00
          4   -1    0    0  501    0  0.00000000000E+00  0.00000000000E+00  0.40839923908E+03  0.40840121374E+03  0.12700000000E+01 0. -1.
         -4   -1    0    0    0  501 -0.00000000000E+00 -0.00000000000E+00 -0.95195692995E+01  0.96039106435E+01  0.12700000000E+01 0. -1.
         25    2    1    2    0    0  0.00000000000E+00  0.00000000000E+00  0.39887966979E+03  0.41800512438E+03  0.12499317199E+03 0.  0.
    9000005    1    3    3    0    0 -0.48275465368E+01 -0.39523821024E+02  0.38382021996E+02  0.55313807014E+02  0.10000000000E+01 0.  0.
    9000005    1    3    3    0    0  0.48275465368E+01  0.39523821024E+02  0.36049764779E+03  0.36269131737E+03  0.10000000000E+01 0.  0.
<mgrwt>
<rscale>  0 0.12499317E+03</rscale>
<asrwt>0</asrwt>
<pdfrwt beam="1">  1        4 0.62837292E-01 0.12499317E+03</pdfrwt>
<pdfrwt beam="2">  1       -4 0.14711888E-02 0.12499317E+03</pdfrwt>
<totfact> 0.62847974E+03</totfact>
</mgrwt>
</event>
<event>
 4    1  0.3188180E-002  0.1252951E+03  0.7818608E-02  0.1234609E+00
          4   -1    0    0  501    0  0.00000000000E+00  0.00000000000E+00  0.31255133489E+03  0.31255391510E+03  0.12700000000E+01 0.  1.
         -4   -1    0    0    0  501 -0.00000000000E+00 -0.00000000000E+00 -0.12522283847E+02  0.12586520280E+02  0.12700000000E+01 0.  1.
    9000005    1    1    2    0    0 -0.37791850421E+02  0.46358986635E+02  0.19830783568E+03  0.20713371838E+03  0.10000000000E+01 0.  0.
    9000005    1    1    2    0    0  0.37791850421E+02 -0.46358986635E+02  0.10172121537E+03  0.11800671699E+03  0.10000000000E+01 0.  0.
<mgrwt>
<rscale>  0 0.12529514E+03</rscale>
<asrwt>0</asrwt>
<pdfrwt beam="1">  1        4 0.48089954E-01 0.12529514E+03</pdfrwt>
<pdfrwt beam="2">  1       -4 0.19316452E-02 0.12529514E+03</pdfrwt>
<totfact> 0.72076426E+03</totfact>
</mgrwt>
</event>
<event>
 5    1  0.3188180E-002  0.1249966E+03  0.7818608E-02  0.1235075E+00
          4   -1    0    0  501    0  0.00000000000E+00  0.00000000000E+00  0.11434273248E+02  0.11504586247E+02  0.12700000000E+01 0.  1.
         -4   -1    0    0    0  501 -0.00000000000E+00 -0.00000000000E+00 -0.34048947599E+03  0.34049184449E+03  0.12700000000E+01 0.  1.
         25    2    1    2    0    0  0.00000000000E+00  0.00000000000E+00 -0.32905520274E+03  0.35199643073E+03  0.12499664314E+03 0.  0.
    9000005    1    3    3    0    0 -0.40415569245E+02  0.45102209909E+02 -0.12113738531E+03  0.13543593945E+03  0.10000000000E+01 0.  0.
    9000005    1    3    3    0    0  0.40415569245E+02 -0.45102209909E+02 -0.20791781743E+03  0.21656049128E+03  0.10000000000E+01 0.  0.
<mgrwt>
<rscale>  0 0.12499664E+03</rscale>
<asrwt>0</asrwt>
<pdfrwt beam="1">  1        4 0.17647101E-02 0.12499664E+03</pdfrwt>
<pdfrwt beam="2">  1       -4 0.52388579E-01 0.12499664E+03</pdfrwt>
<totfact> 0.69510648E+03</totfact>
</mgrwt>
</event>
<event>
 5    1  0.3188180E-002  0.1249879E+03  0.7818608E-02  0.1235088E+00
          4   -1    0    0  501    0  0.00000000000E+00  0.00000000000E+00  0.13422290722E+03  0.13422891537E+03  0.12700000000E+01 0. -1.
         -4   -1    0    0    0  501 -0.00000000000E+00 -0.00000000000E+00 -0.29076536036E+02  0.29104258243E+02  0.12700000000E+01 0. -1.
         25    2    1    2    0    0  0.00000000000E+00  0.00000000000E+00  0.10514637118E+03  0.16333317361E+03  0.12498786433E+03 0.  0.
    9000005    1    3    3    0    0 -0.41661752272E+02 -0.32310148650E+02  0.96401296249E+02  0.10988110496E+03  0.10000000000E+01 0.  0.
    9000005    1    3    3    0    0  0.41661752272E+02  0.32310148650E+02  0.87450749314E+01  0.53452068657E+02  0.10000000000E+01 0.  0.
<mgrwt>
<rscale>  0 0.12498786E+03</rscale>
<asrwt>0</asrwt>
<pdfrwt beam="1">  1        4 0.20652273E-01 0.12498786E+03</pdfrwt>
<pdfrwt beam="2">  1       -4 0.44759078E-02 0.12498786E+03</pdfrwt>
<totfact> 0.96730370E+03</totfact>
</mgrwt>
</event>
<event>
 5    1  0.3188180E-002  0.1249996E+03  0.7818608E-02  0.1235070E+00
          4   -1    0    0  501    0  0.00000000000E+00  0.00000000000E+00  0.44796724607E+03  0.44796904631E+03  0.12700000000E+01 0.  1.
         -4   -1    0    0    0  501 -0.00000000000E+00 -0.00000000000E+00 -0.86718224330E+01  0.87643256620E+01  0.12700000000E+01 0.  1.
         25    2    1    2    0    0  0.00000000000E+00  0.00000000000E+00  0.43929542364E+03  0.45673337197E+03  0.12499961538E+03 0.  0.
    9000005    1    3    3    0    0  0.60139013032E+02  0.10482725574E+02  0.26848375058E+03  0.27533817888E+03  0.10000000000E+01 0.  0.
    9000005    1    3    3    0    0 -0.60139013032E+02 -0.10482725574E+02  0.17081167305E+03  0.18139519309E+03  0.10000000000E+01 0.  0.
<mgrwt>
<rscale>  0 0.12499962E+03</rscale>
<asrwt>0</asrwt>
<pdfrwt beam="1">  1        4 0.68925284E-01 0.12499962E+03</pdfrwt>
<pdfrwt beam="2">  1       -4 0.13413808E-02 0.12499962E+03</pdfrwt>
<totfact> 0.59385395E+03</totfact>
</mgrwt>
</event>
<event>
 5    1  0.3188180E-002  0.1250004E+03  0.7818608E-02  0.1235069E+00
         -4   -1    0    0    0  501 -0.00000000000E+00  0.00000000000E+00  0.15458466954E+02  0.15510548042E+02  0.12700000000E+01 0.  1.
          4   -1    0    0  501    0  0.00000000000E+00 -0.00000000000E+00 -0.25221607466E+03  0.25221927210E+03  0.12700000000E+01 0.  1.
         25    2    1    2    0    0  0.00000000000E+00  0.00000000000E+00 -0.23675760771E+03  0.26772982014E+03  0.12500036714E+03 0.  0.
    9000005    1    3    3    0    0 -0.16694698219E+02  0.56652536018E+02 -0.74638720745E+02  0.95184880209E+02  0.10000000000E+01 0.  0.
    9000005    1    3    3    0    0  0.16694698219E+02 -0.56652536018E+02 -0.16211888696E+03  0.17254493993E+03  0.10000000000E+01 0.  0.
<mgrwt>
<rscale>  0 0.12500037E+03</rscale>
<asrwt>0</asrwt>
<pdfrwt beam="2">  1        4 0.38806722E-01 0.12500037E+03</pdfrwt>
<pdfrwt beam="1">  1       -4 0.23824781E-02 0.12500037E+03</pdfrwt>
<totfact> 0.79832730E+03</totfact>
</mgrwt>
</event>
<event>
 5    1  0.3188180E-002  0.1249886E+03  0.7818608E-02  0.1235087E+00
          4   -1    0    0  501    0  0.00000000000E+00  0.00000000000E+00  0.96606859636E+01  0.97438058933E+01  0.12700000000E+01 0.  1.
         -4   -1    0    0    0  501 -0.00000000000E+00 -0.00000000000E+00 -0.40245561548E+03  0.40245761930E+03  0.12700000000E+01 0.  1.
         25    2    1    2    0    0  0.00000000000E+00  0.00000000000E+00 -0.39279492951E+03  0.41220142519E+03  0.12498863259E+03 0.  0.
    9000005    1    3    3    0    0 -0.34830890812E+02  0.51362519198E+02 -0.17233395573E+03  0.18317011664E+03  0.10000000000E+01 0.  0.
    9000005    1    3    3    0    0  0.34830890812E+02 -0.51362519198E+02 -0.22046097378E+03  0.22903130855E+03  0.10000000000E+01 0.  0.
<mgrwt>
<rscale>  0 0.12498863E+03</rscale>
<asrwt>0</asrwt>
<pdfrwt beam="1">  1        4 0.14928077E-02 0.12498863E+03</pdfrwt>
<pdfrwt beam="2">  1       -4 0.61922784E-01 0.12498863E+03</pdfrwt>
<totfact> 0.63399051E+03</totfact>
</mgrwt>
</event>
<event>
 5    1  0.3188180E-002  0.1249999E+03  0.7818608E-02  0.1235069E+00
          4   -1    0    0  501    0  0.00000000000E+00  0.00000000000E+00  0.36986339891E+02  0.37008137464E+02  0.12700000000E+01 0. -1.
         -4   -1    0    0    0  501 -0.00000000000E+00 -0.00000000000E+00 -0.10555636199E+03  0.10556400171E+03  0.12700000000E+01 0. -1.
         25    2    1    2    0    0  0.00000000000E+00  0.00000000000E+00 -0.68570022103E+02  0.14257213917E+03  0.12499986775E+03 0.  0.
    9000005    1    3    3    0    0 -0.62425833796E+02 -0.16044533981E+01 -0.37003978157E+02  0.72593755897E+02  0.10000000000E+01 0.  0.
    9000005    1    3    3    0    0  0.62425833796E+02  0.16044533981E+01 -0.31566043946E+02  0.69978383278E+02  0.10000000000E+01 0.  0.
<mgrwt>
<rscale>  0 0.12499987E+03</rscale>
<asrwt>0</asrwt>
<pdfrwt beam="1">  1        4 0.56924706E-02 0.12499987E+03</pdfrwt>
<pdfrwt beam="2">  1       -4 0.16241705E-01 0.12499987E+03</pdfrwt>
<totfact> 0.10080582E+04</totfact>
</mgrwt>
</event>
<event>
 5    1  0.3188180E-002  0.1250019E+03  0.7818608E-02  0.1235066E+00
          4   -1    0    0  501    0  0.00000000000E+00  0.00000000000E+00  0.58072447725E+03  0.58072586595E+03  0.12700000000E+01 0. -1.
         -4   -1    0    0    0  501 -0.00000000000E+00 -0.00000000000E+00 -0.66653581055E+01  0.67852707149E+01  0.12700000000E+01 0. -1.
         25    2    1    2    0    0  0.00000000000E+00  0.00000000000E+00  0.57405911914E+03  0.58751113666E+03  0.12500185369E+03 0.  0.
    9000005    1    3    3    0    0  0.89041132868E+00 -0.53544988391E+02  0.43841887270E+03  0.44167857832E+03  0.10000000000E+01 0.  0.
    9000005    1    3    3    0    0 -0.89041132868E+00  0.53544988391E+02  0.13564024645E+03  0.14583255834E+03  0.10000000000E+01 0.  0.
<mgrwt>
<rscale>  0 0.12500185E+03</rscale>
<asrwt>0</asrwt>
<pdfrwt beam="1">  1        4 0.89351552E-01 0.12500185E+03</pdfrwt>
<pdfrwt beam="2">  1       -4 0.10347707E-02 0.12500185E+03</pdfrwt>
<totfact> 0.49663536E+03</totfact>
</mgrwt>
</event>
<event>
 5    1  0.3188180E-002  0.1249994E+03  0.7818608E-02  0.1235070E+00
          4   -1    0    0  501    0  0.00000000000E+00  0.00000000000E+00  0.10684343814E+03  0.10685098583E+03  0.12700000000E+01 0.  1.
         -4   -1    0    0    0  501 -0.00000000000E+00 -0.00000000000E+00 -0.36540296749E+02  0.36562360243E+02  0.12700000000E+01 0.  1.
         25    2    1    2    0    0  0.00000000000E+00  0.00000000000E+00  0.70303141388E+02  0.14341334607E+03  0.12499942457E+03 0.  0.
    9000005    1    3    3    0    0  0.38167296631E+02 -0.43378238429E+02  0.78368697100E+01  0.58316641092E+02  0.10000000000E+01 0.  0.
    9000005    1    3    3    0    0 -0.38167296631E+02  0.43378238429E+02  0.62466271678E+02  0.85096704982E+02  0.10000000000E+01 0.  0.
<mgrwt>
<rscale>  0 0.12499942E+03</rscale>
<asrwt>0</asrwt>
<pdfrwt beam="1">  1        4 0.16439730E-01 0.12499942E+03</pdfrwt>
<pdfrwt beam="2">  1       -4 0.56238618E-02 0.12499942E+03</pdfrwt>
<totfact> 0.10063456E+04</totfact>
</mgrwt>
</event>
<event>
 5    1  0.3188180E-002  0.1250008E+03  0.7818608E-02  0.1235068E+00
         -4   -1    0    0    0  501 -0.00000000000E+00  0.00000000000E+00  0.83953394103E+02  0.83962999479E+02  0.12700000000E+01 0. -1.
          4   -1    0    0  501    0  0.00000000000E+00 -0.00000000000E+00 -0.46508465306E+02  0.46525801928E+02  0.12700000000E+01 0. -1.
         25    2    1    2    0    0  0.00000000000E+00  0.00000000000E+00  0.37444928798E+02  0.13048880141E+03  0.12500081840E+03 0.  0.
    9000005    1    3    3    0    0 -0.39215177934E+02 -0.47013158527E+02  0.56326505064E+01  0.61488161518E+02  0.10000000000E+01 0.  0.
    9000005    1    3    3    0    0  0.39215177934E+02  0.47013158527E+02  0.31812278291E+02  0.69000639890E+02  0.10000000000E+01 0.  0.
<mgrwt>
<rscale>  0 0.12500082E+03</rscale>
<asrwt>0</asrwt>
<pdfrwt beam="2">  1        4 0.71572210E-02 0.12500082E+03</pdfrwt>
<pdfrwt beam="1">  1       -4 0.12917979E-01 0.12500082E+03</pdfrwt>
<totfact> 0.10333870E+04</totfact>
</mgrwt>
</event>
<event>
 5    1  0.3188180E-002  0.1250014E+03  0.7818608E-02  0.1235067E+00
         -4   -1    0    0    0  501 -0.00000000000E+00  0.00000000000E+00  0.50674077206E+03  0.50674236350E+03  0.12700000000E+01 0. -1.
          4   -1    0    0  501    0  0.00000000000E+00 -0.00000000000E+00 -0.76548323287E+01  0.77594689238E+01  0.12700000000E+01 0. -1.
         25    2    1    2    0    0  0.00000000000E+00  0.00000000000E+00  0.49908593973E+03  0.51450183242E+03  0.12500144132E+03 0.  0.
    9000005    1    3    3    0    0  0.31495969804E+02 -0.48392770289E+02  0.34793815546E+03  0.35269791091E+03  0.10000000000E+01 0.  0.
    9000005    1    3    3    0    0 -0.31495969804E+02  0.48392770289E+02  0.15114778427E+03  0.16180392152E+03  0.10000000000E+01 0.  0.
<mgrwt>
<rscale>  0 0.12500144E+03</rscale>
<asrwt>0</asrwt>
<pdfrwt beam="2">  1        4 0.11858379E-02 0.12500144E+03</pdfrwt>
<pdfrwt beam="1">  1       -4 0.77968289E-01 0.12500144E+03</pdfrwt>
<totfact> 0.54754765E+03</totfact>
</mgrwt>
</event>
<event>
 5    1  0.3188180E-002  0.1249969E+03  0.7818608E-02  0.1235074E+00
          4   -1    0    0  501    0  0.00000000000E+00  0.00000000000E+00  0.37130257671E+03  0.37130474865E+03  0.12700000000E+01 0. -1.
         -4   -1    0    0    0  501 -0.00000000000E+00 -0.00000000000E+00 -0.10479325876E+02  0.10556001649E+02  0.12700000000E+01 0. -1.
         25    2    1    2    0    0  0.00000000000E+00  0.00000000000E+00  0.36082325084E+03  0.38186075030E+03  0.12499685707E+03 0.  0.
    9000005    1    3    3    0    0  0.55917603702E+02  0.19447801960E+02  0.11930792701E+03  0.13319300602E+03  0.10000000000E+01 0.  0.
    9000005    1    3    3    0    0 -0.55917603702E+02 -0.19447801960E+02  0.24151532382E+03  0.24866774428E+03  0.10000000000E+01 0.  0.
<mgrwt>
<rscale>  0 0.12499686E+03</rscale>
<asrwt>0</asrwt>
<pdfrwt beam="1">  1        4 0.57129544E-01 0.12499686E+03</pdfrwt>
<pdfrwt beam="2">  1       -4 0.16182690E-02 0.12499686E+03</pdfrwt>
<totfact> 0.66360670E+03</totfact>
</mgrwt>
</event>
<event>
 5    1  0.3188180E-002  0.1249996E+03  0.7818608E-02  0.1235070E+00
         -4   -1    0    0    0  501 -0.00000000000E+00  0.00000000000E+00  0.25832682063E+03  0.25832994243E+03  0.12700000000E+01 0.  1.
          4   -1    0    0  501    0  0.00000000000E+00 -0.00000000000E+00 -0.15091361118E+02  0.15144704698E+02  0.12700000000E+01 0.  1.
         25    2    1    2    0    0  0.00000000000E+00  0.00000000000E+00  0.24323545951E+03  0.27347464713E+03  0.12499957544E+03 0.  0.
    9000005    1    3    3    0    0  0.29034229466E+02 -0.52695311635E+02  0.15858069449E+03  0.16961314517E+03  0.10000000000E+01 0.  0.
    9000005    1    3    3    0    0 -0.29034229466E+02  0.52695311635E+02  0.84654765022E+02  0.10386150196E+03  0.10000000000E+01 0.  0.
<mgrwt>
<rscale>  0 0.12499958E+03</rscale>
<asrwt>0</asrwt>
<pdfrwt beam="2">  1        4 0.23260913E-02 0.12499958E+03</pdfrwt>
<pdfrwt beam="1">  1       -4 0.39746933E-01 0.12499958E+03</pdfrwt>
<totfact> 0.79052096E+03</totfact>
</mgrwt>
</event>
<event>
 5    1  0.3188180E-002  0.1249919E+03  0.7818608E-02  0.1235082E+00
         -4   -1    0    0    0  501 -0.00000000000E+00  0.00000000000E+00  0.14105188778E+03  0.14105760506E+03  0.12700000000E+01 0.  1.
          4   -1    0    0  501    0  0.00000000000E+00 -0.00000000000E+00 -0.27669272541E+02  0.27698403256E+02  0.12700000000E+01 0.  1.
         25    2    1    2    0    0  0.00000000000E+00  0.00000000000E+00  0.11338261523E+03  0.16875600831E+03  0.12499189136E+03 0.  0.
    9000005    1    3    3    0    0 -0.82320073532E+01  0.54489956449E+02  0.96464707265E+02  0.11110067978E+03  0.10000000000E+01 0.  0.
    9000005    1    3    3    0    0  0.82320073532E+01 -0.54489956449E+02  0.16917907970E+02  0.57655328539E+02  0.10000000000E+01 0.  0.
<mgrwt>
<rscale>  0 0.12499189E+03</rscale>
<asrwt>0</asrwt>
<pdfrwt beam="2">  1        4 0.42594918E-02 0.12499189E+03</pdfrwt>
<pdfrwt beam="1">  1       -4 0.21702971E-01 0.12499189E+03</pdfrwt>
<totfact> 0.95698178E+03</totfact>
</mgrwt>
</event>
<event>
 5    1  0.3188180E-002  0.1249918E+03  0.7818608E-02  0.1235082E+00
         -4   -1    0    0    0  501 -0.00000000000E+00  0.00000000000E+00  0.81877314934E+02  0.81887163834E+02  0.12700000000E+01 0. -1.
          4   -1    0    0  501    0  0.00000000000E+00 -0.00000000000E+00 -0.47681174091E+02  0.47698084476E+02  0.12700000000E+01 0. -1.
         25    2    1    2    0    0  0.00000000000E+00  0.00000000000E+00  0.34196140843E+02  0.12958524831E+03  0.12499184186E+03 0.  0.
    9000005    1    3    3    0    0 -0.18256460662E+02  0.39027884402E+02 -0.29822909889E+02  0.52410686611E+02  0.10000000000E+01 0.  0.
    9000005    1    3    3    0    0  0.18256460662E+02 -0.39027884402E+02  0.64019050732E+02  0.77174561699E+02  0.10000000000E+01 0.  0.
<mgrwt>
<rscale>  0 0.12499184E+03</rscale>
<asrwt>0</asrwt>
<pdfrwt beam="2">  1        4 0.73376237E-02 0.12499184E+03</pdfrwt>
<pdfrwt beam="1">  1       -4 0.12598568E-01 0.12499184E+03</pdfrwt>
<totfact> 0.10355295E+04</totfact>
</mgrwt>
</event>
<event>
 5    1  0.3188180E-002  0.1250118E+03  0.7818608E-02  0.1235051E+00
          4   -1    0    0  501    0  0.00000000000E+00  0.00000000000E+00  0.46161705291E+02  0.46179172094E+02  0.12700000000E+01 0. -1.
         -4   -1    0    0    0  501 -0.00000000000E+00 -0.00000000000E+00 -0.84598716766E+02  0.84608248880E+02  0.12700000000E+01 0. -1.
         25    2    1    2    0    0  0.00000000000E+00  0.00000000000E+00 -0.38437011476E+02  0.13078742097E+03  0.12501178198E+03 0.  0.
    9000005    1    3    3    0    0 -0.55763369961E+01 -0.51140629991E+02 -0.56347975143E+02  0.76305660818E+02  0.10000000000E+01 0.  0.
    9000005    1    3    3    0    0  0.55763369961E+01  0.51140629991E+02  0.17910963667E+02  0.54481760156E+02  0.10000000000E+01 0.  0.
<mgrwt>
<rscale>  0 0.12501178E+03</rscale>
<asrwt>0</asrwt>
<pdfrwt beam="1">  1        4 0.71038777E-02 0.12501178E+03</pdfrwt>
<pdfrwt beam="2">  1       -4 0.13017264E-01 0.12501178E+03</pdfrwt>
<totfact> 0.10324904E+04</totfact>
</mgrwt>
</event>
<event>
 5    1  0.3188180E-002  0.1249839E+03  0.7818608E-02  0.1235094E+00
         -4   -1    0    0    0  501 -0.00000000000E+00  0.00000000000E+00  0.41192902445E+02  0.41212475197E+02  0.12700000000E+01 0. -1.
          4   -1    0    0  501    0  0.00000000000E+00 -0.00000000000E+00 -0.94757452450E+02  0.94765962744E+02  0.12700000000E+01 0. -1.
         25    2    1    2    0    0  0.00000000000E+00  0.00000000000E+00 -0.53564550005E+02  0.13597843794E+03  0.12498389723E+03 0.  0.
    9000005    1    3    3    0    0  0.37169233399E+02 -0.49779990821E+02 -0.19512872382E+02  0.65125659967E+02  0.10000000000E+01 0.  0.
    9000005    1    3    3    0    0 -0.37169233399E+02  0.49779990821E+02 -0.34051677623E+02  0.70852777973E+02  0.10000000000E+01 0.  0.
<mgrwt>
<rscale>  0 0.12498390E+03</rscale>
<asrwt>0</asrwt>
<pdfrwt beam="2">  1        4 0.14580230E-01 0.12498390E+03</pdfrwt>
<pdfrwt beam="1">  1       -4 0.63395299E-02 0.12498390E+03</pdfrwt>
<totfact> 0.10221200E+04</totfact>
</mgrwt>
</event>
<event>
 5    1  0.3188180E-002  0.1249987E+03  0.7818608E-02  0.1235071E+00
          4   -1    0    0  501    0  0.00000000000E+00  0.00000000000E+00  0.23511396478E+02  0.23545671881E+02  0.12700000000E+01 0.  1.
         -4   -1    0    0    0  501 -0.00000000000E+00 -0.00000000000E+00 -0.16598175815E+03  0.16598661674E+03  0.12700000000E+01 0.  1.
         25    2    1    2    0    0  0.00000000000E+00  0.00000000000E+00 -0.14247036167E+03  0.18953228862E+03  0.12499873790E+03 0.  0.
    9000005    1    3    3    0    0 -0.13031258316E+02 -0.40964391701E+01 -0.16369774765E+03  0.16426973882E+03  0.10000000000E+01 0.  0.
    9000005    1    3    3    0    0  0.13031258316E+02  0.40964391701E+01  0.21227385977E+02  0.25262549804E+02  0.10000000000E+01 0.  0.
<mgrwt>
<rscale>  0 0.12499874E+03</rscale>
<asrwt>0</asrwt>
<pdfrwt beam="1">  1        4 0.36201483E-02 0.12499874E+03</pdfrwt>
<pdfrwt beam="2">  1       -4 0.25538665E-01 0.12499874E+03</pdfrwt>
<totfact> 0.91931358E+03</totfact>
</mgrwt>
</event>
<event>
 4    1  0.3188180E-002  0.1247528E+03  0.7818608E-02  0.1235456E+00
         -4   -1    0    0    0  501 -0.00000000000E+00  0.00000000000E+00  0.85339341526E+02  0.85348790923E+02  0.12700000000E+01 0. -1.
          4   -1    0    0  501    0  0.00000000000E+00 -0.00000000000E+00 -0.45571475734E+02  0.45589168676E+02  0.12700000000E+01 0. -1.
    9000005    1    1    2    0    0  0.16860701968E+02  0.17671462288E+02 -0.40348128132E+02  0.47175579424E+02  0.10000000000E+01 0.  0.
    9000005    1    1    2    0    0 -0.16860701968E+02 -0.17671462288E+02  0.80115993924E+02  0.83762380175E+02  0.10000000000E+01 0.  0.
<mgrwt>
<rscale>  0 0.12475282E+03</rscale>
<asrwt>0</asrwt>
<pdfrwt beam="2">  1        4 0.70130842E-02 0.12475282E+03</pdfrwt>
<pdfrwt beam="1">  1       -4 0.13131217E-01 0.12475282E+03</pdfrwt>
<totfact> 0.10382206E+04</totfact>
</mgrwt>
</event>
<event>
 5    1  0.3188180E-002  0.1250018E+03  0.7818608E-02  0.1235066E+00
         -4   -1    0    0    0  501 -0.00000000000E+00  0.00000000000E+00  0.33099791101E+02  0.33124146343E+02  0.12700000000E+01 0. -1.
          4   -1    0    0  501    0  0.00000000000E+00 -0.00000000000E+00 -0.11794655479E+03  0.11795339201E+03  0.12700000000E+01 0. -1.
         25    2    1    2    0    0  0.00000000000E+00  0.00000000000E+00 -0.84846763692E+02  0.15107753836E+03  0.12500179713E+03 0.  0.
    9000005    1    3    3    0    0  0.34029788325E+02 -0.42480384044E+02 -0.53140992623E+01  0.54697798612E+02  0.10000000000E+01 0.  0.
    9000005    1    3    3    0    0 -0.34029788325E+02  0.42480384044E+02 -0.79532664430E+02  0.96379739745E+02  0.10000000000E+01 0.  0.
<mgrwt>
<rscale>  0 0.12500180E+03</rscale>
<asrwt>0</asrwt>
<pdfrwt beam="2">  1        4 0.18148023E-01 0.12500180E+03</pdfrwt>
<pdfrwt beam="1">  1       -4 0.50946750E-02 0.12500180E+03</pdfrwt>
<totfact> 0.99085332E+03</totfact>
</mgrwt>
</event>
<event>
 5    1  0.3188180E-002  0.1249883E+03  0.7818608E-02  0.1235088E+00
         -4   -1    0    0    0  501 -0.00000000000E+00  0.00000000000E+00  0.83913564915E+02  0.83923174849E+02  0.12700000000E+01 0. -1.
          4   -1    0    0  501    0  0.00000000000E+00 -0.00000000000E+00 -0.46521235725E+02  0.46538567591E+02  0.12700000000E+01 0. -1.
         25    2    1    2    0    0  0.00000000000E+00  0.00000000000E+00  0.37392329189E+02  0.13046174244E+03  0.12498831929E+03 0.  0.
    9000005    1    3    3    0    0  0.20260273940E+02  0.23659631594E+01  0.80345669563E+02  0.82900561514E+02  0.10000000000E+01 0.  0.
    9000005    1    3    3    0    0 -0.20260273940E+02 -0.23659631594E+01 -0.42953340374E+02  0.47561180926E+02  0.10000000000E+01 0.  0.
<mgrwt>
<rscale>  0 0.12498832E+03</rscale>
<asrwt>0</asrwt>
<pdfrwt beam="2">  1        4 0.71591857E-02 0.12498832E+03</pdfrwt>
<pdfrwt beam="1">  1       -4 0.12911852E-01 0.12498832E+03</pdfrwt>
<totfact> 0.10337365E+04</totfact>
</mgrwt>
</event>
<event>
 5    1  0.3188180E-002  0.1250048E+03  0.7818608E-02  0.1235062E+00
          4   -1    0    0  501    0  0.00000000000E+00  0.00000000000E+00  0.61331519342E+03  0.61331650832E+03  0.12700000000E+01 0.  1.
         -4   -1    0    0    0  501 -0.00000000000E+00 -0.00000000000E+00 -0.63049278299E+01  0.64315639575E+01  0.12700000000E+01 0.  1.
         25    2    1    2    0    0  0.00000000000E+00  0.00000000000E+00  0.60701026559E+03  0.61974807228E+03  0.12500484215E+03 0.  0.
    9000005    1    3    3    0    0  0.57842419686E+02  0.17108077425E+02  0.22247580953E+03  0.23051012484E+03  0.10000000000E+01 0.  0.
    9000005    1    3    3    0    0 -0.57842419686E+02 -0.17108077425E+02  0.38453445606E+03  0.38923794744E+03  0.10000000000E+01 0.  0.
<mgrwt>
<rscale>  0 0.12500484E+03</rscale>
<asrwt>0</asrwt>
<pdfrwt beam="1">  1        4 0.94366040E-01 0.12500484E+03</pdfrwt>
<pdfrwt beam="2">  1       -4 0.97983114E-03 0.12500484E+03</pdfrwt>
<totfact> 0.47639258E+03</totfact>
</mgrwt>
</event>
<event>
 5    1  0.3188180E-002  0.1249996E+03  0.7818608E-02  0.1235070E+00
         -4   -1    0    0    0  501 -0.00000000000E+00  0.00000000000E+00  0.39914014131E+02  0.39934213703E+02  0.12700000000E+01 0. -1.
          4   -1    0    0  501    0  0.00000000000E+00 -0.00000000000E+00 -0.97816991240E+02  0.97825235371E+02  0.12700000000E+01 0. -1.
         25    2    1    2    0    0  0.00000000000E+00  0.00000000000E+00 -0.57902977109E+02  0.13775944907E+03  0.12499964420E+03 0.  0.
    9000005    1    3    3    0    0 -0.34014548635E+02  0.26062995637E+02 -0.79080427294E+02  0.89949892949E+02  0.10000000000E+01 0.  0.
    9000005    1    3    3    0    0  0.34014548635E+02 -0.26062995637E+02  0.21177450185E+02  0.47809556125E+02  0.10000000000E+01 0.  0.
<mgrwt>
<rscale>  0 0.12499964E+03</rscale>
<asrwt>0</asrwt>
<pdfrwt beam="2">  1        4 0.15050956E-01 0.12499964E+03</pdfrwt>
<pdfrwt beam="1">  1       -4 0.61428056E-02 0.12499964E+03</pdfrwt>
<totfact> 0.10180312E+04</totfact>
</mgrwt>
</event>
<event>
 5    1  0.3188180E-002  0.1250063E+03  0.7818608E-02  0.1235059E+00
          4   -1    0    0  501    0  0.00000000000E+00  0.00000000000E+00  0.13179959295E+02  0.13241005514E+02  0.12700000000E+01 0. -1.
         -4   -1    0    0    0  501 -0.00000000000E+00 -0.00000000000E+00 -0.29566084200E+03  0.29566356961E+03  0.12700000000E+01 0. -1.
         25    2    1    2    0    0  0.00000000000E+00  0.00000000000E+00 -0.28248088271E+03  0.30890457512E+03  0.12500634958E+03 0.  0.
    9000005    1    3    3    0    0  0.13432088319E+02  0.15852028481E+02  0.44071695028E+01  0.21263371008E+02  0.10000000000E+01 0.  0.
    9000005    1    3    3    0    0 -0.13432088319E+02 -0.15852028481E+02 -0.28688805221E+03  0.28764120412E+03  0.10000000000E+01 0.  0.
<mgrwt>
<rscale>  0 0.12500635E+03</rscale>
<asrwt>0</asrwt>
<pdfrwt beam="1">  1        4 0.20325920E-02 0.12500635E+03</pdfrwt>
<pdfrwt beam="2">  1       -4 0.45491184E-01 0.12500635E+03</pdfrwt>
<totfact> 0.74484779E+03</totfact>
</mgrwt>
</event>
<event>
 5    1  0.3188180E-002  0.1250003E+03  0.7818608E-02  0.1235069E+00
         -4   -1    0    0    0  501 -0.00000000000E+00  0.00000000000E+00  0.53388391079E+01  0.54878140475E+01  0.12700000000E+01 0. -1.
          4   -1    0    0  501    0  0.00000000000E+00 -0.00000000000E+00 -0.72145227659E+03  0.72145339440E+03  0.12700000000E+01 0. -1.
         25    2    1    2    0    0  0.00000000000E+00  0.00000000000E+00 -0.71611343748E+03  0.72694120845E+03  0.12500026081E+03 0.  0.
    9000005    1    3    3    0    0 -0.42071905139E+02 -0.39381008641E+02 -0.21747540731E+03  0.22498324788E+03  0.10000000000E+01 0.  0.
    9000005    1    3    3    0    0  0.42071905139E+02  0.39381008641E+02 -0.49863803017E+03  0.50195796057E+03  0.10000000000E+01 0.  0.
<mgrwt>
<rscale>  0 0.12500026E+03</rscale>
<asrwt>0</asrwt>
<pdfrwt beam="2">  1        4 0.11100413E+00 0.12500026E+03</pdfrwt>
<pdfrwt beam="1">  1       -4 0.83290603E-03 0.12500026E+03</pdfrwt>
<totfact> 0.41701842E+03</totfact>
</mgrwt>
</event>
<event>
 5    1  0.3188180E-002  0.1250066E+03  0.7818608E-02  0.1235059E+00
          4   -1    0    0  501    0  0.00000000000E+00  0.00000000000E+00  0.90768296011E+01  0.91652460745E+01  0.12700000000E+01 0. -1.
         -4   -1    0    0    0  501 -0.00000000000E+00 -0.00000000000E+00 -0.42822367582E+03  0.42822555906E+03  0.12700000000E+01 0. -1.
         25    2    1    2    0    0  0.00000000000E+00  0.00000000000E+00 -0.41914684621E+03  0.43739080513E+03  0.12500655071E+03 0.  0.
    9000005    1    3    3    0    0  0.60111194172E+02 -0.94184089320E+01 -0.15964786533E+03  0.17085228415E+03  0.10000000000E+01 0.  0.
    9000005    1    3    3    0    0 -0.60111194172E+02  0.94184089320E+01 -0.25949898088E+03  0.26653852099E+03  0.10000000000E+01 0.  0.
<mgrwt>
<rscale>  0 0.12500655E+03</rscale>
<asrwt>0</asrwt>
<pdfrwt beam="1">  1        4 0.14033818E-02 0.12500655E+03</pdfrwt>
<pdfrwt beam="2">  1       -4 0.65887496E-01 0.12500655E+03</pdfrwt>
<totfact> 0.61062916E+03</totfact>
</mgrwt>
</event>
<event>
 5    1  0.3188180E-002  0.1249598E+03  0.7818608E-02  0.1235132E+00
          4   -1    0    0  501    0  0.00000000000E+00  0.00000000000E+00  0.12660037753E+03  0.12660674741E+03  0.12700000000E+01 0. -1.
         -4   -1    0    0    0  501 -0.00000000000E+00 -0.00000000000E+00 -0.30814878108E+02  0.30841037803E+02  0.12700000000E+01 0. -1.
         25    2    1    2    0    0  0.00000000000E+00  0.00000000000E+00  0.95785499419E+02  0.15744778521E+03  0.12495976620E+03 0.  0.
    9000005    1    3    3    0    0  0.16402982194E+01  0.33629640262E+01  0.12646524846E+03  0.12652453981E+03  0.10000000000E+01 0.  0.
    9000005    1    3    3    0    0 -0.16402982194E+01 -0.33629640262E+01 -0.30679749041E+02  0.30923245407E+02  0.10000000000E+01 0.  0.
<mgrwt>
<rscale>  0 0.12495977E+03</rscale>
<asrwt>0</asrwt>
<pdfrwt beam="1">  1        4 0.19479484E-01 0.12495977E+03</pdfrwt>
<pdfrwt beam="2">  1       -4 0.47432526E-02 0.12495977E+03</pdfrwt>
<totfact> 0.97925656E+03</totfact>
</mgrwt>
</event>
<event>
 5    1  0.3188180E-002  0.1250123E+03  0.7818608E-02  0.1235050E+00
          4   -1    0    0  501    0  0.00000000000E+00  0.00000000000E+00  0.72751973437E+01  0.73852147153E+01  0.12700000000E+01 0. -1.
         -4   -1    0    0    0  501 -0.00000000000E+00 -0.00000000000E+00 -0.53289189268E+03  0.53289340602E+03  0.12700000000E+01 0. -1.
         25    2    1    2    0    0  0.00000000000E+00  0.00000000000E+00 -0.52561669533E+03  0.54027862074E+03  0.12501230984E+03 0.  0.
    9000005    1    3    3    0    0  0.39497507195E+02 -0.38824676700E+02 -0.13765420477E+03  0.14838156451E+03  0.10000000000E+01 0.  0.
    9000005    1    3    3    0    0 -0.39497507195E+02  0.38824676700E+02 -0.38796249056E+03  0.39189705622E+03  0.10000000000E+01 0.  0.
<mgrwt>
<rscale>  0 0.12501231E+03</rscale>
<asrwt>0</asrwt>
<pdfrwt beam="1">  1        4 0.11278408E-02 0.12501231E+03</pdfrwt>
<pdfrwt beam="2">  1       -4 0.81991917E-01 0.12501231E+03</pdfrwt>
<totfact> 0.52855012E+03</totfact>
</mgrwt>
</event>
<event>
 5    1  0.3188180E-002  0.1249985E+03  0.7818608E-02  0.1235072E+00
         -4   -1    0    0    0  501 -0.00000000000E+00  0.00000000000E+00  0.78221766377E+02  0.78232075488E+02  0.12700000000E+01 0.  1.
          4   -1    0    0  501    0  0.00000000000E+00 -0.00000000000E+00 -0.49915268573E+02  0.49931422338E+02  0.12700000000E+01 0.  1.
         25    2    1    2    0    0  0.00000000000E+00  0.00000000000E+00  0.28306497804E+02  0.12816349783E+03  0.12499849742E+03 0.  0.
    9000005    1    3    3    0    0  0.13606532191E+02 -0.40202544607E+02 -0.32875029226E+02  0.53694970507E+02  0.10000000000E+01 0.  0.
    9000005    1    3    3    0    0 -0.13606532191E+02  0.40202544607E+02  0.61181527031E+02  0.74468527318E+02  0.10000000000E+01 0.  0.
<mgrwt>
<rscale>  0 0.12499850E+03</rscale>
<asrwt>0</asrwt>
<pdfrwt beam="2">  1        4 0.76813077E-02 0.12499850E+03</pdfrwt>
<pdfrwt beam="1">  1       -4 0.12036153E-01 0.12499850E+03</pdfrwt>
<totfact> 0.10384310E+04</totfact>
</mgrwt>
</event>
<event>
 5    1  0.3188180E-002  0.1250018E+03  0.7818608E-02  0.1235067E+00
          4   -1    0    0  501    0  0.00000000000E+00  0.00000000000E+00  0.58185145695E+01  0.59555026484E+01  0.12700000000E+01 0.  1.
         -4   -1    0    0    0  501 -0.00000000000E+00 -0.00000000000E+00 -0.66341843927E+03  0.66341965487E+03  0.12700000000E+01 0.  1.
         25    2    1    2    0    0  0.00000000000E+00  0.00000000000E+00 -0.65759992470E+03  0.66937515751E+03  0.12500176212E+03 0.  0.
    9000005    1    3    3    0    0  0.10236315250E+02 -0.40389439476E+02 -0.79391964174E+02  0.89667011473E+02  0.10000000000E+01 0.  0.
    9000005    1    3    3    0    0 -0.10236315250E+02  0.40389439476E+02 -0.57820796053E+03  0.57970814604E+03  0.10000000000E+01 0.  0.
<mgrwt>
<rscale>  0 0.12500176E+03</rscale>
<asrwt>0</asrwt>
<pdfrwt beam="1">  1        4 0.90578767E-03 0.12500176E+03</pdfrwt>
<pdfrwt beam="2">  1       -4 0.10207495E+00 0.12500176E+03</pdfrwt>
<totfact> 0.44751662E+03</totfact>
</mgrwt>
</event>
<event>
 5    1  0.3188180E-002  0.1250004E+03  0.7818608E-02  0.1235069E+00
         -4   -1    0    0    0  501 -0.00000000000E+00  0.00000000000E+00  0.16746555535E+03  0.16747037090E+03  0.12700000000E+01 0. -1.
          4   -1    0    0  501    0  0.00000000000E+00 -0.00000000000E+00 -0.23303388195E+02  0.23337969093E+02  0.12700000000E+01 0. -1.
         25    2    1    2    0    0  0.00000000000E+00  0.00000000000E+00  0.14416216716E+03  0.19080833999E+03  0.12500036868E+03 0.  0.
    9000005    1    3    3    0    0  0.23798040988E+02 -0.41770059564E+02  0.11133585368E+02  0.49356269652E+02  0.10000000000E+01 0.  0.
    9000005    1    3    3    0    0 -0.23798040988E+02  0.41770059564E+02  0.13302858179E+03  0.14145207034E+03  0.10000000000E+01 0.  0.
<mgrwt>
<rscale>  0 0.12500037E+03</rscale>
<asrwt>0</asrwt>
<pdfrwt beam="2">  1        4 0.35881672E-02 0.12500037E+03</pdfrwt>
<pdfrwt beam="1">  1       -4 0.25766962E-01 0.12500037E+03</pdfrwt>
<totfact> 0.91706099E+03</totfact>
</mgrwt>
</event>
<event>
 5    1  0.3188180E-002  0.1250019E+03  0.7818608E-02  0.1235066E+00
         -4   -1    0    0    0  501 -0.00000000000E+00  0.00000000000E+00  0.13380910099E+03  0.13381512773E+03  0.12700000000E+01 0. -1.
          4   -1    0    0  501    0  0.00000000000E+00 -0.00000000000E+00 -0.29173116320E+02  0.29200746837E+02  0.12700000000E+01 0. -1.
         25    2    1    2    0    0  0.00000000000E+00  0.00000000000E+00  0.10463598467E+03  0.16301587456E+03  0.12500194427E+03 0.  0.
    9000005    1    3    3    0    0 -0.58727146997E+02 -0.97532386590E+01  0.27527336750E+02  0.65595409346E+02  0.10000000000E+01 0.  0.
    9000005    1    3    3    0    0  0.58727146997E+02  0.97532386590E+01  0.77108647923E+02  0.97420465218E+02  0.10000000000E+01 0.  0.
<mgrwt>
<rscale>  0 0.12500194E+03</rscale>
<asrwt>0</asrwt>
<pdfrwt beam="2">  1        4 0.44907607E-02 0.12500194E+03</pdfrwt>
<pdfrwt beam="1">  1       -4 0.20588605E-01 0.12500194E+03</pdfrwt>
<totfact> 0.96760251E+03</totfact>
</mgrwt>
</event>
<event>
 5    1  0.3188180E-002  0.1250290E+03  0.7818608E-02  0.1235024E+00
          4   -1    0    0  501    0  0.00000000000E+00  0.00000000000E+00  0.57501961775E+03  0.57502102022E+03  0.12700000000E+01 0.  1.
         -4   -1    0    0    0  501 -0.00000000000E+00 -0.00000000000E+00 -0.67356475013E+01  0.68543305480E+01  0.12700000000E+01 0.  1.
         25    2    1    2    0    0  0.00000000000E+00  0.00000000000E+00  0.56828397024E+03  0.58187535077E+03  0.12502900860E+03 0.  0.
    9000005    1    3    3    0    0  0.41044644669E+01 -0.47773234266E+02  0.97524051026E+02  0.10867874249E+03  0.10000000000E+01 0.  0.
    9000005    1    3    3    0    0 -0.41044644669E+01  0.47773234266E+02  0.47075991922E+03  0.47319660828E+03  0.10000000000E+01 0.  0.
<mgrwt>
<rscale>  0 0.12502901E+03</rscale>
<asrwt>0</asrwt>
<pdfrwt beam="1">  1        4 0.88473807E-01 0.12502901E+03</pdfrwt>
<pdfrwt beam="2">  1       -4 0.10454907E-02 0.12502901E+03</pdfrwt>
<totfact> 0.50000217E+03</totfact>
</mgrwt>
</event>
<event>
 5    1  0.3188180E-002  0.1249980E+03  0.7818608E-02  0.1235072E+00
          4   -1    0    0  501    0  0.00000000000E+00  0.00000000000E+00  0.21242194926E+03  0.21242574568E+03  0.12700000000E+01 0. -1.
         -4   -1    0    0    0  501 -0.00000000000E+00 -0.00000000000E+00 -0.18362635254E+02  0.18406500848E+02  0.12700000000E+01 0. -1.
         25    2    1    2    0    0  0.00000000000E+00  0.00000000000E+00  0.19405931401E+03  0.23083224653E+03  0.12499803472E+03 0.  0.
    9000005    1    3    3    0    0  0.19097238097E+02  0.11883083440E+02  0.20469665657E+03  0.20593113748E+03  0.10000000000E+01 0.  0.
    9000005    1    3    3    0    0 -0.19097238097E+02 -0.11883083440E+02 -0.10637342560E+02  0.24901109046E+02  0.10000000000E+01 0.  0.
<mgrwt>
<rscale>  0 0.12499803E+03</rscale>
<asrwt>0</asrwt>
<pdfrwt beam="1">  1        4 0.32683964E-01 0.12499803E+03</pdfrwt>
<pdfrwt beam="2">  1       -4 0.28286873E-02 0.12499803E+03</pdfrwt>
<totfact> 0.85185704E+03</totfact>
</mgrwt>
</event>
<event>
 5    1  0.3188180E-002  0.1250022E+03  0.7818608E-02  0.1235066E+00
         -4   -1    0    0    0  501 -0.00000000000E+00  0.00000000000E+00  0.17950524019E+02  0.17995394204E+02  0.12700000000E+01 0. -1.
          4   -1    0    0  501    0  0.00000000000E+00 -0.00000000000E+00 -0.21730148277E+03  0.21730519394E+03  0.12700000000E+01 0. -1.
         25    2    1    2    0    0  0.00000000000E+00  0.00000000000E+00 -0.19935095875E+03  0.23530058815E+03  0.12500224809E+03 0.  0.
    9000005    1    3    3    0    0  0.13240623700E+02 -0.25967102537E+02 -0.20373136644E+03  0.20580834338E+03  0.10000000000E+01 0.  0.
    9000005    1    3    3    0    0 -0.13240623700E+02  0.25967102537E+02  0.43804076915E+01  0.29492244771E+02  0.10000000000E+01 0.  0.
<mgrwt>
<rscale>  0 0.12500225E+03</rscale>
<asrwt>0</asrwt>
<pdfrwt beam="2">  1        4 0.33434733E-01 0.12500225E+03</pdfrwt>
<pdfrwt beam="1">  1       -4 0.27653563E-02 0.12500225E+03</pdfrwt>
<totfact> 0.84498041E+03</totfact>
</mgrwt>
</event>
<event>
 5    1  0.3188180E-002  0.1250004E+03  0.7818608E-02  0.1235069E+00
          4   -1    0    0  501    0  0.00000000000E+00  0.00000000000E+00  0.31726101061E+03  0.31726355251E+03  0.12700000000E+01 0.  1.
         -4   -1    0    0    0  501 -0.00000000000E+00 -0.00000000000E+00 -0.12277155506E+02  0.12342667756E+02  0.12700000000E+01 0.  1.
         25    2    1    2    0    0  0.00000000000E+00  0.00000000000E+00  0.30498385510E+03  0.32960622027E+03  0.12500043426E+03 0.  0.
    9000005    1    3    3    0    0  0.52837630146E+02 -0.30627904941E+02  0.11757061757E+03  0.13249050470E+03  0.10000000000E+01 0.  0.
    9000005    1    3    3    0    0 -0.52837630146E+02  0.30627904941E+02  0.18741323753E+03  0.19711571556E+03  0.10000000000E+01 0.  0.
<mgrwt>
<rscale>  0 0.12500043E+03</rscale>
<asrwt>0</asrwt>
<pdfrwt beam="1">  1        4 0.48814615E-01 0.12500043E+03</pdfrwt>
<pdfrwt beam="2">  1       -4 0.18940283E-02 0.12500043E+03</pdfrwt>
<totfact> 0.72027283E+03</totfact>
</mgrwt>
</event>
<event>
 5    1  0.3188180E-002  0.1250027E+03  0.7818608E-02  0.1235065E+00
         -4   -1    0    0    0  501 -0.00000000000E+00  0.00000000000E+00  0.58952647023E+02  0.58966325060E+02  0.12700000000E+01 0. -1.
          4   -1    0    0  501    0  0.00000000000E+00 -0.00000000000E+00 -0.66236205487E+02  0.66248379734E+02  0.12700000000E+01 0. -1.
         25    2    1    2    0    0  0.00000000000E+00  0.00000000000E+00 -0.72835584637E+01  0.12521470479E+03  0.12500268826E+03 0.  0.
    9000005    1    3    3    0    0  0.49578165472E+02 -0.37073045322E+02  0.49174684393E+01  0.62109473326E+02  0.10000000000E+01 0.  0.
    9000005    1    3    3    0    0 -0.49578165472E+02  0.37073045322E+02 -0.12201026903E+02  0.63105231467E+02  0.10000000000E+01 0.  0.
<mgrwt>
<rscale>  0 0.12500269E+03</rscale>
<asrwt>0</asrwt>
<pdfrwt beam="2">  1        4 0.10192174E-01 0.12500269E+03</pdfrwt>
<pdfrwt beam="1">  1       -4 0.90716266E-02 0.12500269E+03</pdfrwt>
<totfact> 0.10447566E+04</totfact>
</mgrwt>
</event>
<event>
 5    1  0.3188180E-002  0.1249975E+03  0.7818608E-02  0.1235073E+00
          4   -1    0    0  501    0  0.00000000000E+00  0.00000000000E+00  0.37860936689E+03  0.37861149692E+03  0.12700000000E+01 0. -1.
         -4   -1    0    0    0  501 -0.00000000000E+00 -0.00000000000E+00 -0.10275704826E+02  0.10353888626E+02  0.12700000000E+01 0. -1.
         25    2    1    2    0    0  0.00000000000E+00  0.00000000000E+00  0.36833366207E+03  0.38896538554E+03  0.12499753814E+03 0.  0.
    9000005    1    3    3    0    0  0.12898417712E+02 -0.60730698788E+01  0.37349646591E+03  0.37376979734E+03  0.10000000000E+01 0.  0.
    9000005    1    3    3    0    0 -0.12898417712E+02  0.60730698788E+01 -0.51628038457E+01  0.15195588201E+02  0.10000000000E+01 0.  0.
<mgrwt>
<rscale>  0 0.12499754E+03</rscale>
<asrwt>0</asrwt>
<pdfrwt beam="1">  1        4 0.58253775E-01 0.12499754E+03</pdfrwt>
<pdfrwt beam="2">  1       -4 0.15870556E-02 0.12499754E+03</pdfrwt>
<totfact> 0.65643906E+03</totfact>
</mgrwt>
</event>
<event>
 5    1  0.3188180E-002  0.1250009E+03  0.7818608E-02  0.1235068E+00
          4   -1    0    0  501    0  0.00000000000E+00  0.00000000000E+00  0.60364295619E+03  0.60364429216E+03  0.12700000000E+01 0.  1.
         -4   -1    0    0    0  501 -0.00000000000E+00 -0.00000000000E+00 -0.64075525257E+01  0.65321994282E+01  0.12700000000E+01 0.  1.
         25    2    1    2    0    0  0.00000000000E+00  0.00000000000E+00  0.59723540366E+03  0.61017649159E+03  0.12500089399E+03 0.  0.
    9000005    1    3    3    0    0  0.23222624303E+02  0.20284455650E+02  0.56394901031E+03  0.56479220573E+03  0.10000000000E+01 0.  0.
    9000005    1    3    3    0    0 -0.23222624303E+02 -0.20284455650E+02  0.33286393352E+02  0.45384285859E+02  0.10000000000E+01 0.  0.
<mgrwt>
<rscale>  0 0.12500089E+03</rscale>
<asrwt>0</asrwt>
<pdfrwt beam="1">  1        4 0.92877793E-01 0.12500089E+03</pdfrwt>
<pdfrwt beam="2">  1       -4 0.99546878E-03 0.12500089E+03</pdfrwt>
<totfact> 0.48230550E+03</totfact>
</mgrwt>
</event>
<event>
 5    1  0.3188180E-002  0.1249995E+03  0.7818608E-02  0.1235070E+00
         -4   -1    0    0    0  501 -0.00000000000E+00  0.00000000000E+00  0.59086274435E+02  0.59099921545E+02  0.12700000000E+01 0. -1.
          4   -1    0    0  501    0  0.00000000000E+00 -0.00000000000E+00 -0.66083017576E+02  0.66095220039E+02  0.12700000000E+01 0. -1.
         25    2    1    2    0    0  0.00000000000E+00  0.00000000000E+00 -0.69967431410E+01  0.12519514158E+03  0.12499947625E+03 0.  0.
    9000005    1    3    3    0    0 -0.48395507047E+02 -0.21502748139E+02  0.29730722211E+02  0.60740506444E+02  0.10000000000E+01 0.  0.
    9000005    1    3    3    0    0  0.48395507047E+02  0.21502748139E+02 -0.36727465352E+02  0.64454635140E+02  0.10000000000E+01 0.  0.
<mgrwt>
<rscale>  0 0.12499948E+03</rscale>
<asrwt>0</asrwt>
<pdfrwt beam="2">  1        4 0.10168607E-01 0.12499948E+03</pdfrwt>
<pdfrwt beam="1">  1       -4 0.90921845E-02 0.12499948E+03</pdfrwt>
<totfact> 0.10448749E+04</totfact>
</mgrwt>
</event>
<event>
 5    1  0.3188180E-002  0.1250020E+03  0.7818608E-02  0.1235066E+00
         -4   -1    0    0    0  501 -0.00000000000E+00  0.00000000000E+00  0.62551783868E+01  0.63828016302E+01  0.12700000000E+01 0. -1.
          4   -1    0    0  501    0  0.00000000000E+00 -0.00000000000E+00 -0.61806745788E+03  0.61806876267E+03  0.12700000000E+01 0. -1.
         25    2    1    2    0    0  0.00000000000E+00  0.00000000000E+00 -0.61181227949E+03  0.62445156430E+03  0.12500196326E+03 0.  0.
    9000005    1    3    3    0    0 -0.86515417418E+01 -0.44951388552E+02 -0.93381759840E+02  0.10400302677E+03  0.10000000000E+01 0.  0.
    9000005    1    3    3    0    0  0.86515417418E+01  0.44951388552E+02 -0.51843051965E+03  0.52044853753E+03  0.10000000000E+01 0.  0.
<mgrwt>
<rscale>  0 0.12500196E+03</rscale>
<asrwt>0</asrwt>
<pdfrwt beam="2">  1        4 0.95097171E-01 0.12500196E+03</pdfrwt>
<pdfrwt beam="1">  1       -4 0.97225317E-03 0.12500196E+03</pdfrwt>
<totfact> 0.47357639E+03</totfact>
</mgrwt>
</event>
<event>
 5    1  0.3188180E-002  0.1249995E+03  0.7818608E-02  0.1235070E+00
         -4   -1    0    0    0  501 -0.00000000000E+00  0.00000000000E+00  0.43157175776E+03  0.43157362639E+03  0.12700000000E+01 0.  1.
          4   -1    0    0  501    0  0.00000000000E+00 -0.00000000000E+00 -0.90047048766E+01  0.90938226238E+01  0.12700000000E+01 0.  1.
         25    2    1    2    0    0  0.00000000000E+00  0.00000000000E+00  0.42256705288E+03  0.44066744901E+03  0.12499954575E+03 0.  0.
    9000005    1    3    3    0    0 -0.33021679416E+02  0.53042065319E+02  0.20721849577E+03  0.21643566479E+03  0.10000000000E+01 0.  0.
    9000005    1    3    3    0    0  0.33021679416E+02 -0.53042065319E+02  0.21534855711E+03  0.22423178422E+03  0.10000000000E+01 0.  0.
<mgrwt>
<rscale>  0 0.12499955E+03</rscale>
<asrwt>0</asrwt>
<pdfrwt beam="2">  1        4 0.13923385E-02 0.12499955E+03</pdfrwt>
<pdfrwt beam="1">  1       -4 0.66402636E-01 0.12499955E+03</pdfrwt>
<totfact> 0.60781429E+03</totfact>
</mgrwt>
</event>
<event>
 5    1  0.3188180E-002  0.1250002E+03  0.7818608E-02  0.1235069E+00
          4   -1    0    0  501    0  0.00000000000E+00  0.00000000000E+00  0.81931806496E+01  0.82910258206E+01  0.12700000000E+01 0. -1.
         -4   -1    0    0    0  501 -0.00000000000E+00 -0.00000000000E+00 -0.47384154849E+03  0.47384325042E+03  0.12700000000E+01 0. -1.
         25    2    1    2    0    0  0.00000000000E+00  0.00000000000E+00 -0.46564836784E+03  0.48213427625E+03  0.12500023144E+03 0.  0.
    9000005    1    3    3    0    0 -0.58298996226E+02 -0.22504094475E+02 -0.23374695037E+03  0.24195835186E+03  0.10000000000E+01 0.  0.
    9000005    1    3    3    0    0  0.58298996226E+02  0.22504094475E+02 -0.23190141747E+03  0.24017592439E+03  0.10000000000E+01 0.  0.
<mgrwt>
<rscale>  0 0.12500023E+03</rscale>
<asrwt>0</asrwt>
<pdfrwt beam="1">  1        4 0.12681472E-02 0.12500023E+03</pdfrwt>
<pdfrwt beam="2">  1       -4 0.72906336E-01 0.12500023E+03</pdfrwt>
<totfact> 0.57277387E+03</totfact>
</mgrwt>
</event>
<event>
 5    1  0.3188180E-002  0.1249996E+03  0.7818608E-02  0.1235070E+00
         -4   -1    0    0    0  501 -0.00000000000E+00  0.00000000000E+00  0.26575674154E+03  0.26575977607E+03  0.12700000000E+01 0.  1.
          4   -1    0    0  501    0  0.00000000000E+00 -0.00000000000E+00 -0.14667935133E+02  0.14722812947E+02  0.12700000000E+01 0.  1.
         25    2    1    2    0    0  0.00000000000E+00  0.00000000000E+00  0.25108880641E+03  0.28048258902E+03  0.12499957614E+03 0.  0.
    9000005    1    3    3    0    0 -0.61815143991E+01 -0.11349957208E+02 -0.11647380561E+02  0.17426821937E+02  0.10000000000E+01 0.  0.
    9000005    1    3    3    0    0  0.61815143991E+01  0.11349957208E+02  0.26273618697E+03  0.26305576708E+03  0.10000000000E+01 0.  0.
<mgrwt>
<rscale>  0 0.12499958E+03</rscale>
<asrwt>0</asrwt>
<pdfrwt beam="2">  1        4 0.22610606E-02 0.12499958E+03</pdfrwt>
<pdfrwt beam="1">  1       -4 0.40890101E-01 0.12499958E+03</pdfrwt>
<totfact> 0.78114901E+03</totfact>
</mgrwt>
</event>
<event>
 5    1  0.3188180E-002  0.1250015E+03  0.7818608E-02  0.1235067E+00
         -4   -1    0    0    0  501 -0.00000000000E+00  0.00000000000E+00  0.48933230275E+01  0.50554436256E+01  0.12700000000E+01 0. -1.
          4   -1    0    0  501    0  0.00000000000E+00 -0.00000000000E+00 -0.78512979789E+03  0.78513082504E+03  0.12700000000E+01 0. -1.
         25    2    1    2    0    0  0.00000000000E+00  0.00000000000E+00 -0.78023647486E+03  0.79018626867E+03  0.12500152994E+03 0.  0.
    9000005    1    3    3    0    0 -0.35805012965E+02 -0.49242291561E+02 -0.30104610145E+03  0.30714256858E+03  0.10000000000E+01 0.  0.
    9000005    1    3    3    0    0  0.35805012965E+02  0.49242291561E+02 -0.47919037341E+03  0.48304370009E+03  0.10000000000E+01 0.  0.
<mgrwt>
<rscale>  0 0.12500153E+03</rscale>
<asrwt>0</asrwt>
<pdfrwt beam="2">  1        4 0.12080165E+00 0.12500153E+03</pdfrwt>
<pdfrwt beam="1">  1       -4 0.76536938E-03 0.12500153E+03</pdfrwt>
<totfact> 0.38705345E+03</totfact>
</mgrwt>
</event>
<event>
 5    1  0.3188180E-002  0.1250003E+03  0.7818608E-02  0.1235069E+00
          4   -1    0    0  501    0  0.00000000000E+00  0.00000000000E+00  0.64637018990E+02  0.64649494383E+02  0.12700000000E+01 0. -1.
         -4   -1    0    0    0  501 -0.00000000000E+00 -0.00000000000E+00 -0.60408979636E+02  0.60422327998E+02  0.12700000000E+01 0. -1.
         25    2    1    2    0    0  0.00000000000E+00  0.00000000000E+00  0.42280393542E+01  0.12507182238E+03  0.12500033775E+03 0.  0.
    9000005    1    3    3    0    0 -0.46504979281E+02 -0.65047400991E+01 -0.39143604857E+02  0.61141201680E+02  0.10000000000E+01 0.  0.
    9000005    1    3    3    0    0  0.46504979281E+02  0.65047400991E+01  0.43371644211E+02  0.63930620701E+02  0.10000000000E+01 0.  0.
<mgrwt>
<rscale>  0 0.12500034E+03</rscale>
<asrwt>0</asrwt>
<pdfrwt beam="1">  1        4 0.99461433E-02 0.12500034E+03</pdfrwt>
<pdfrwt beam="2">  1       -4 0.92956756E-02 0.12500034E+03</pdfrwt>
<totfact> 0.10451223E+04</totfact>
</mgrwt>
</event>
<event>
 5    1  0.3188180E-002  0.1250047E+03  0.7818608E-02  0.1235062E+00
          4   -1    0    0  501    0  0.00000000000E+00  0.00000000000E+00  0.30983271007E+02  0.31009288646E+02  0.12700000000E+01 0.  1.
         -4   -1    0    0    0  501 -0.00000000000E+00 -0.00000000000E+00 -0.12600350011E+03  0.12600990016E+03  0.12700000000E+01 0.  1.
         25    2    1    2    0    0  0.00000000000E+00  0.00000000000E+00 -0.95020229100E+02  0.15701918881E+03  0.12500472678E+03 0.  0.
    9000005    1    3    3    0    0  0.46202243663E+02 -0.32944885936E+02 -0.80398333143E+02  0.98411913918E+02  0.10000000000E+01 0.  0.
    9000005    1    3    3    0    0 -0.46202243663E+02  0.32944885936E+02 -0.14621895957E+02  0.58607274892E+02  0.10000000000E+01 0.  0.
<mgrwt>
<rscale>  0 0.12500473E+03</rscale>
<asrwt>0</asrwt>
<pdfrwt beam="1">  1        4 0.47691508E-02 0.12500473E+03</pdfrwt>
<pdfrwt beam="2">  1       -4 0.19387647E-01 0.12500473E+03</pdfrwt>
<totfact> 0.97910153E+03</totfact>
</mgrwt>
</event>
<event>
 5    1  0.3188180E-002  0.1250013E+03  0.7818608E-02  0.1235067E+00
          4   -1    0    0  501    0  0.00000000000E+00  0.00000000000E+00  0.21604423921E+03  0.21604797198E+03  0.12700000000E+01 0. -1.
         -4   -1    0    0    0  501 -0.00000000000E+00 -0.00000000000E+00 -0.18054963890E+02  0.18099575163E+02  0.12700000000E+01 0. -1.
         25    2    1    2    0    0  0.00000000000E+00  0.00000000000E+00  0.19798927532E+03  0.23414754714E+03  0.12500128276E+03 0.  0.
    9000005    1    3    3    0    0  0.87194798330E+01 -0.56628282474E+02  0.52257916691E+02  0.77554378093E+02  0.10000000000E+01 0.  0.
    9000005    1    3    3    0    0 -0.87194798330E+01  0.56628282474E+02  0.14573135863E+03  0.15659316905E+03  0.10000000000E+01 0.  0.
<mgrwt>
<rscale>  0 0.12500128E+03</rscale>
<asrwt>0</asrwt>
<pdfrwt beam="1">  1        4 0.33241294E-01 0.12500128E+03</pdfrwt>
<pdfrwt beam="2">  1       -4 0.27814055E-02 0.12500128E+03</pdfrwt>
<totfact> 0.84674356E+03</totfact>
</mgrwt>
</event>
<event>
 5    1  0.3188180E-002  0.1250025E+03  0.7818608E-02  0.1235065E+00
         -4   -1    0    0    0  501 -0.00000000000E+00  0.00000000000E+00  0.40548836929E+02  0.40568720417E+02  0.12700000000E+01 0.  1.
          4   -1    0    0  501    0  0.00000000000E+00 -0.00000000000E+00 -0.96290682964E+02  0.96299057761E+02  0.12700000000E+01 0.  1.
         25    2    1    2    0    0  0.00000000000E+00  0.00000000000E+00 -0.55741846035E+02  0.13686777818E+03  0.12500254119E+03 0.  0.
    9000005    1    3    3    0    0  0.34211022087E+02  0.41669847350E+02  0.67299098769E+01  0.54342082196E+02  0.10000000000E+01 0.  0.
    9000005    1    3    3    0    0 -0.34211022087E+02 -0.41669847350E+02 -0.62471755912E+02  0.82525695982E+02  0.10000000000E+01 0.  0.
<mgrwt>
<rscale>  0 0.12500254E+03</rscale>
<asrwt>0</asrwt>
<pdfrwt beam="2">  1        4 0.14816125E-01 0.12500254E+03</pdfrwt>
<pdfrwt beam="1">  1       -4 0.62404564E-02 0.12500254E+03</pdfrwt>
<totfact> 0.10198267E+04</totfact>
</mgrwt>
</event>
<event>
 5    1  0.3188180E-002  0.1250002E+03  0.7818608E-02  0.1235069E+00
         -4   -1    0    0    0  501 -0.00000000000E+00  0.00000000000E+00  0.14724125851E+02  0.14778795014E+02  0.12700000000E+01 0.  1.
          4   -1    0    0  501    0  0.00000000000E+00 -0.00000000000E+00 -0.26474896420E+03  0.26475201028E+03  0.12700000000E+01 0.  1.
         25    2    1    2    0    0  0.00000000000E+00  0.00000000000E+00 -0.25002483835E+03  0.27953080529E+03  0.12500020526E+03 0.  0.
    9000005    1    3    3    0    0 -0.43032155695E+02 -0.43623352911E+02 -0.97578588274E+02  0.11522735887E+03  0.10000000000E+01 0.  0.
    9000005    1    3    3    0    0  0.43032155695E+02  0.43623352911E+02 -0.15244625007E+03  0.16430344642E+03  0.10000000000E+01 0.  0.
<mgrwt>
<rscale>  0 0.12500021E+03</rscale>
<asrwt>0</asrwt>
<pdfrwt beam="2">  1        4 0.40735046E-01 0.12500021E+03</pdfrwt>
<pdfrwt beam="1">  1       -4 0.22696900E-02 0.12500021E+03</pdfrwt>
<totfact> 0.78240003E+03</totfact>
</mgrwt>
</event>
<event>
 5    1  0.3188180E-002  0.1250009E+03  0.7818608E-02  0.1235068E+00
          4   -1    0    0  501    0  0.00000000000E+00  0.00000000000E+00  0.31395975945E+02  0.31421651859E+02  0.12700000000E+01 0. -1.
         -4   -1    0    0    0  501 -0.00000000000E+00 -0.00000000000E+00 -0.12434088760E+03  0.12434737323E+03  0.12700000000E+01 0. -1.
         25    2    1    2    0    0  0.00000000000E+00  0.00000000000E+00 -0.92944911651E+02  0.15576902508E+03  0.12500093029E+03 0.  0.
    9000005    1    3    3    0    0 -0.70457779445E+01 -0.58818773284E+02 -0.71270921297E+02  0.92681364362E+02  0.10000000000E+01 0.  0.
    9000005    1    3    3    0    0  0.70457779445E+01  0.58818773284E+02 -0.21673990354E+02  0.63087660722E+02  0.10000000000E+01 0.  0.
<mgrwt>
<rscale>  0 0.12500093E+03</rscale>
<asrwt>0</asrwt>
<pdfrwt beam="1">  1        4 0.48326242E-02 0.12500093E+03</pdfrwt>
<pdfrwt beam="2">  1       -4 0.19131841E-01 0.12500093E+03</pdfrwt>
<totfact> 0.98162687E+03</totfact>
</mgrwt>
</event>
<event>
 5    1  0.3188180E-002  0.1249987E+03  0.7818608E-02  0.1235071E+00
          4   -1    0    0  501    0  0.00000000000E+00  0.00000000000E+00  0.71633149300E+03  0.71633261880E+03  0.12700000000E+01 0.  1.
         -4   -1    0    0    0  501 -0.00000000000E+00 -0.00000000000E+00 -0.53779304778E+01  0.55258516289E+01  0.12700000000E+01 0.  1.
         25    2    1    2    0    0  0.00000000000E+00  0.00000000000E+00  0.71095356252E+03  0.72185847043E+03  0.12499873309E+03 0.  0.
    9000005    1    3    3    0    0 -0.28009915119E+02  0.40861524845E+02  0.57545154390E+03  0.57758090250E+03  0.10000000000E+01 0.  0.
    9000005    1    3    3    0    0  0.28009915119E+02 -0.40861524845E+02  0.13550201862E+03  0.14427756793E+03  0.10000000000E+01 0.  0.
<mgrwt>
<rscale>  0 0.12499873E+03</rscale>
<asrwt>0</asrwt>
<pdfrwt beam="1">  1        4 0.11021641E+00 0.12499873E+03</pdfrwt>
<pdfrwt beam="2">  1       -4 0.83883833E-03 0.12499873E+03</pdfrwt>
<totfact> 0.41958759E+03</totfact>
</mgrwt>
</event>
<event>
 5    1  0.3188180E-002  0.1249921E+03  0.7818608E-02  0.1235082E+00
         -4   -1    0    0    0  501 -0.00000000000E+00  0.00000000000E+00  0.39765958993E+02  0.39786233733E+02  0.12700000000E+01 0.  1.
          4   -1    0    0  501    0  0.00000000000E+00 -0.00000000000E+00 -0.98169158154E+02  0.98177372712E+02  0.12700000000E+01 0.  1.
         25    2    1    2    0    0  0.00000000000E+00  0.00000000000E+00 -0.58403199161E+02  0.13796360645E+03  0.12499209187E+03 0.  0.
    9000005    1    3    3    0    0  0.47924638717E+02 -0.40969764642E+01 -0.73231157515E+02  0.87620537794E+02  0.10000000000E+01 0.  0.
    9000005    1    3    3    0    0 -0.47924638717E+02  0.40969764642E+01  0.14827958354E+02  0.50343068651E+02  0.10000000000E+01 0.  0.
<mgrwt>
<rscale>  0 0.12499209E+03</rscale>
<asrwt>0</asrwt>
<pdfrwt beam="2">  1        4 0.15105139E-01 0.12499209E+03</pdfrwt>
<pdfrwt beam="1">  1       -4 0.61200313E-02 0.12499209E+03</pdfrwt>
<totfact> 0.10177780E+04</totfact>
</mgrwt>
</event>
<event>
 5    1  0.3188180E-002  0.1250006E+03  0.7818608E-02  0.1235068E+00
          4   -1    0    0  501    0  0.00000000000E+00  0.00000000000E+00  0.92063610760E+02  0.92072370048E+02  0.12700000000E+01 0. -1.
         -4   -1    0    0    0  501 -0.00000000000E+00 -0.00000000000E+00 -0.42410001225E+02  0.42429012525E+02  0.12700000000E+01 0. -1.
         25    2    1    2    0    0  0.00000000000E+00  0.00000000000E+00  0.49653609536E+02  0.13450138257E+03  0.12500056390E+03 0.  0.
    9000005    1    3    3    0    0  0.47327963329E+02  0.23620059430E+02 -0.10980798776E+02  0.54031669067E+02  0.10000000000E+01 0.  0.
    9000005    1    3    3    0    0 -0.47327963329E+02 -0.23620059430E+02  0.60634408312E+02  0.80469713506E+02  0.10000000000E+01 0.  0.
<mgrwt>
<rscale>  0 0.12500056E+03</rscale>
<asrwt>0</asrwt>
<pdfrwt beam="1">  1        4 0.14165769E-01 0.12500056E+03</pdfrwt>
<pdfrwt beam="2">  1       -4 0.65267517E-02 0.12500056E+03</pdfrwt>
<totfact> 0.10248461E+04</totfact>
</mgrwt>
</event>
<event>
 5    1  0.3188180E-002  0.1250009E+03  0.7818608E-02  0.1235068E+00
          4   -1    0    0  501    0  0.00000000000E+00  0.00000000000E+00  0.52733469558E+02  0.52748760285E+02  0.12700000000E+01 0.  1.
         -4   -1    0    0    0  501 -0.00000000000E+00 -0.00000000000E+00 -0.74044892837E+02  0.74055783402E+02  0.12700000000E+01 0.  1.
         25    2    1    2    0    0  0.00000000000E+00  0.00000000000E+00 -0.21311423279E+02  0.12680454369E+03  0.12500086215E+03 0.  0.
    9000005    1    3    3    0    0  0.58613128910E+02 -0.10980303883E+02  0.83018514572E+01  0.60216166364E+02  0.10000000000E+01 0.  0.
    9000005    1    3    3    0    0 -0.58613128910E+02  0.10980303883E+02 -0.29613274736E+02  0.66588377323E+02  0.10000000000E+01 0.  0.
<mgrwt>
<rscale>  0 0.12500086E+03</rscale>
<asrwt>0</asrwt>
<pdfrwt beam="1">  1        4 0.81148554E-02 0.12500086E+03</pdfrwt>
<pdfrwt beam="2">  1       -4 0.11393536E-01 0.12500086E+03</pdfrwt>
<totfact> 0.10413192E+04</totfact>
</mgrwt>
</event>
<event>
 5    1  0.3188180E-002  0.1250036E+03  0.7818608E-02  0.1235064E+00
          4   -1    0    0  501    0  0.00000000000E+00  0.00000000000E+00  0.53359384507E+02  0.53374495923E+02  0.12700000000E+01 0. -1.
         -4   -1    0    0    0  501 -0.00000000000E+00 -0.00000000000E+00 -0.73179690146E+02  0.73190709450E+02  0.12700000000E+01 0. -1.
         25    2    1    2    0    0  0.00000000000E+00  0.00000000000E+00 -0.19820305639E+02  0.12656520537E+03  0.12500362673E+03 0.  0.
    9000005    1    3    3    0    0  0.21121596745E+02 -0.22940937326E+02  0.44924209449E+02  0.54695457298E+02  0.10000000000E+01 0.  0.
    9000005    1    3    3    0    0 -0.21121596745E+02  0.22940937326E+02 -0.64744515087E+02  0.71869748075E+02  0.10000000000E+01 0.  0.
<mgrwt>
<rscale>  0 0.12500363E+03</rscale>
<asrwt>0</asrwt>
<pdfrwt beam="1">  1        4 0.82111461E-02 0.12500363E+03</pdfrwt>
<pdfrwt beam="2">  1       -4 0.11260424E-01 0.12500363E+03</pdfrwt>
<totfact> 0.10417754E+04</totfact>
</mgrwt>
</event>
<event>
 5    1  0.3188180E-002  0.1249965E+03  0.7818608E-02  0.1235075E+00
         -4   -1    0    0    0  501 -0.00000000000E+00  0.00000000000E+00  0.34297799455E+02  0.34321304571E+02  0.12700000000E+01 0.  1.
          4   -1    0    0  501    0  0.00000000000E+00 -0.00000000000E+00 -0.11381968344E+03  0.11382676855E+03  0.12700000000E+01 0.  1.
         25    2    1    2    0    0  0.00000000000E+00  0.00000000000E+00 -0.79521883983E+02  0.14814807312E+03  0.12499648610E+03 0.  0.
    9000005    1    3    3    0    0  0.35356912845E+02 -0.50941195369E+02 -0.30586887428E+02  0.69149651872E+02  0.10000000000E+01 0.  0.
    9000005    1    3    3    0    0 -0.35356912845E+02  0.50941195369E+02 -0.48934996555E+02  0.78998421246E+02  0.10000000000E+01 0.  0.
<mgrwt>
<rscale>  0 0.12499649E+03</rscale>
<asrwt>0</asrwt>
<pdfrwt beam="2">  1        4 0.17513073E-01 0.12499649E+03</pdfrwt>
<pdfrwt beam="1">  1       -4 0.52789377E-02 0.12499649E+03</pdfrwt>
<totfact> 0.99682025E+03</totfact>
</mgrwt>
</event>
<event>
 5    1  0.3188180E-002  0.1250062E+03  0.7818608E-02  0.1235060E+00
          4   -1    0    0  501    0  0.00000000000E+00  0.00000000000E+00  0.54928632080E+01  0.56377696141E+01  0.12700000000E+01 0. -1.
         -4   -1    0    0    0  501 -0.00000000000E+00 -0.00000000000E+00 -0.70181627291E+03  0.70181742200E+03  0.12700000000E+01 0. -1.
         25    2    1    2    0    0  0.00000000000E+00  0.00000000000E+00 -0.69632340970E+03  0.70745519162E+03  0.12500622881E+03 0.  0.
    9000005    1    3    3    0    0 -0.61052322118E+02  0.54750729593E+01 -0.27924825990E+03  0.28589850143E+03  0.10000000000E+01 0.  0.
    9000005    1    3    3    0    0  0.61052322118E+02 -0.54750729593E+01 -0.41707514980E+03  0.42155669019E+03  0.10000000000E+01 0.  0.
<mgrwt>
<rscale>  0 0.12500623E+03</rscale>
<asrwt>0</asrwt>
<pdfrwt beam="1">  1        4 0.85629147E-03 0.12500623E+03</pdfrwt>
<pdfrwt beam="2">  1       -4 0.10798290E+00 0.12500623E+03</pdfrwt>
<totfact> 0.42690264E+03</totfact>
</mgrwt>
</event>
<event>
 5    1  0.3188180E-002  0.1249983E+03  0.7818608E-02  0.1235072E+00
         -4   -1    0    0    0  501 -0.00000000000E+00  0.00000000000E+00  0.35647097846E+03  0.35647324077E+03  0.12700000000E+01 0. -1.
          4   -1    0    0  501    0  0.00000000000E+00 -0.00000000000E+00 -0.10918716018E+02  0.10992327301E+02  0.12700000000E+01 0. -1.
         25    2    1    2    0    0  0.00000000000E+00  0.00000000000E+00  0.34555226244E+03  0.36746556807E+03  0.12499831054E+03 0.  0.
    9000005    1    3    3    0    0  0.59177484707E+02 -0.43987673633E+01  0.23037004939E+03  0.23789216781E+03  0.10000000000E+01 0.  0.
    9000005    1    3    3    0    0 -0.59177484707E+02  0.43987673633E+01  0.11518221305E+03  0.12957340025E+03  0.10000000000E+01 0.  0.
<mgrwt>
<rscale>  0 0.12499831E+03</rscale>
<asrwt>0</asrwt>
<pdfrwt beam="2">  1        4 0.16856388E-02 0.12499831E+03</pdfrwt>
<pdfrwt beam="1">  1       -4 0.54847530E-01 0.12499831E+03</pdfrwt>
<totfact> 0.67847452E+03</totfact>
</mgrwt>
</event>
<event>
 5    1  0.3188180E-002  0.1249949E+03  0.7818608E-02  0.1235077E+00
          4   -1    0    0  501    0  0.00000000000E+00  0.00000000000E+00  0.16699845659E+03  0.16700328561E+03  0.12700000000E+01 0. -1.
         -4   -1    0    0    0  501 -0.00000000000E+00 -0.00000000000E+00 -0.23366607270E+02  0.23401094746E+02  0.12700000000E+01 0. -1.
         25    2    1    2    0    0  0.00000000000E+00  0.00000000000E+00  0.14363184932E+03  0.19040438035E+03  0.12499487957E+03 0.  0.
    9000005    1    3    3    0    0  0.29180237936E+02 -0.54534803950E+02  0.58242425394E+02  0.84962999262E+02  0.10000000000E+01 0.  0.
    9000005    1    3    3    0    0 -0.29180237936E+02  0.54534803950E+02  0.85389423928E+02  0.10544138109E+03  0.10000000000E+01 0.  0.
<mgrwt>
<rscale>  0 0.12499488E+03</rscale>
<asrwt>0</asrwt>
<pdfrwt beam="1">  1        4 0.25695095E-01 0.12499488E+03</pdfrwt>
<pdfrwt beam="2">  1       -4 0.35978870E-02 0.12499488E+03</pdfrwt>
<totfact> 0.91787528E+03</totfact>
</mgrwt>
</event>
<event>
 5    1  0.3188180E-002  0.1250015E+03  0.7818608E-02  0.1235067E+00
          4   -1    0    0  501    0  0.00000000000E+00  0.00000000000E+00  0.73872969182E+02  0.73883885088E+02  0.12700000000E+01 0.  1.
         -4   -1    0    0    0  501 -0.00000000000E+00 -0.00000000000E+00 -0.52856763609E+02  0.52872018679E+02  0.12700000000E+01 0.  1.
         25    2    1    2    0    0  0.00000000000E+00  0.00000000000E+00  0.21016205573E+02  0.12675590377E+03  0.12500151296E+03 0.  0.
    9000005    1    3    3    0    0 -0.32100092535E+02 -0.53487732065E+02  0.67151323775E+01  0.62749075094E+02  0.10000000000E+01 0.  0.
    9000005    1    3    3    0    0  0.32100092535E+02  0.53487732065E+02  0.14301073195E+02  0.64006828673E+02  0.10000000000E+01 0.  0.
<mgrwt>
<rscale>  0 0.12500151E+03</rscale>
<asrwt>0</asrwt>
<pdfrwt beam="1">  1        4 0.11367085E-01 0.12500151E+03</pdfrwt>
<pdfrwt beam="2">  1       -4 0.81338229E-02 0.12500151E+03</pdfrwt>
<totfact> 0.10414098E+04</totfact>
</mgrwt>
</event>
<event>
 5    1  0.3188180E-002  0.1250032E+03  0.7818608E-02  0.1235064E+00
          4   -1    0    0  501    0  0.00000000000E+00  0.00000000000E+00  0.28125122419E+02  0.28153781470E+02  0.12700000000E+01 0.  1.
         -4   -1    0    0    0  501 -0.00000000000E+00 -0.00000000000E+00 -0.13879309394E+03  0.13879890427E+03  0.12700000000E+01 0.  1.
         25    2    1    2    0    0  0.00000000000E+00  0.00000000000E+00 -0.11066797152E+03  0.16695268574E+03  0.12500319738E+03 0.  0.
    9000005    1    3    3    0    0  0.40610756075E+02  0.37781365681E+02 -0.93783703889E+02  0.10896351783E+03  0.10000000000E+01 0.  0.
    9000005    1    3    3    0    0 -0.40610756075E+02 -0.37781365681E+02 -0.16884267634E+02  0.57989167913E+02  0.10000000000E+01 0.  0.
<mgrwt>
<rscale>  0 0.12500320E+03</rscale>
<asrwt>0</asrwt>
<pdfrwt beam="1">  1        4 0.43295935E-02 0.12500320E+03</pdfrwt>
<pdfrwt beam="2">  1       -4 0.21355435E-01 0.12500320E+03</pdfrwt>
<totfact> 0.96011963E+03</totfact>
</mgrwt>
</event>
<event>
 5    1  0.3188180E-002  0.1249981E+03  0.7818608E-02  0.1235072E+00
          4   -1    0    0  501    0  0.00000000000E+00  0.00000000000E+00  0.24779598108E+02  0.24812121683E+02  0.12700000000E+01 0.  1.
         -4   -1    0    0    0  501 -0.00000000000E+00 -0.00000000000E+00 -0.15749638969E+03  0.15750151004E+03  0.12700000000E+01 0.  1.
         25    2    1    2    0    0  0.00000000000E+00  0.00000000000E+00 -0.13271679158E+03  0.18231363172E+03  0.12499805416E+03 0.  0.
    9000005    1    3    3    0    0 -0.13225992835E+02 -0.54562026204E+02 -0.26330087225E+02  0.62017861002E+02  0.10000000000E+01 0.  0.
    9000005    1    3    3    0    0  0.13225992835E+02  0.54562026204E+02 -0.10638670436E+03  0.12029577072E+03  0.10000000000E+01 0.  0.
<mgrwt>
<rscale>  0 0.12499805E+03</rscale>
<asrwt>0</asrwt>
<pdfrwt beam="1">  1        4 0.38151416E-02 0.12499805E+03</pdfrwt>
<pdfrwt beam="2">  1       -4 0.24233109E-01 0.12499805E+03</pdfrwt>
<totfact> 0.93206258E+03</totfact>
</mgrwt>
</event>
<event>
 5    1  0.3188180E-002  0.1250028E+03  0.7818608E-02  0.1235065E+00
          4   -1    0    0  501    0  0.00000000000E+00  0.00000000000E+00  0.80827388542E+02  0.80837365361E+02  0.12700000000E+01 0.  1.
         -4   -1    0    0    0  501 -0.00000000000E+00 -0.00000000000E+00 -0.48309167099E+02  0.48325857735E+02  0.12700000000E+01 0.  1.
         25    2    1    2    0    0  0.00000000000E+00  0.00000000000E+00  0.32518221443E+02  0.12916322310E+03  0.12500281387E+03 0.  0.
    9000005    1    3    3    0    0  0.77744192170E+01 -0.13361432662E+02 -0.46307459207E+02  0.48829809084E+02  0.10000000000E+01 0.  0.
    9000005    1    3    3    0    0 -0.77744192170E+01  0.13361432662E+02  0.78825680650E+02  0.80333414012E+02  0.10000000000E+01 0.  0.
<mgrwt>
<rscale>  0 0.12500281E+03</rscale>
<asrwt>0</asrwt>
<pdfrwt beam="1">  1        4 0.12437034E-01 0.12500281E+03</pdfrwt>
<pdfrwt beam="2">  1       -4 0.74342309E-02 0.12500281E+03</pdfrwt>
<totfact> 0.10361783E+04</totfact>
</mgrwt>
</event>
<event>
 5    1  0.3188180E-002  0.1250025E+03  0.7818608E-02  0.1235065E+00
          4   -1    0    0  501    0  0.00000000000E+00  0.00000000000E+00  0.32074373184E+02  0.32099506463E+02  0.12700000000E+01 0.  1.
         -4   -1    0    0    0  501 -0.00000000000E+00 -0.00000000000E+00 -0.12171598897E+03  0.12172261446E+03  0.12700000000E+01 0.  1.
         25    2    1    2    0    0  0.00000000000E+00  0.00000000000E+00 -0.89641615785E+02  0.15382212092E+03  0.12500250239E+03 0.  0.
    9000005    1    3    3    0    0  0.43026683079E+02 -0.32953347277E+02 -0.83110326095E+02  0.99224718982E+02  0.10000000000E+01 0.  0.
    9000005    1    3    3    0    0 -0.43026683079E+02  0.32953347277E+02 -0.65312896906E+01  0.54597401939E+02  0.10000000000E+01 0.  0.
<mgrwt>
<rscale>  0 0.12500250E+03</rscale>
<asrwt>0</asrwt>
<pdfrwt beam="1">  1        4 0.49369620E-02 0.12500250E+03</pdfrwt>
<pdfrwt beam="2">  1       -4 0.18727980E-01 0.12500250E+03</pdfrwt>
<totfact> 0.98541652E+03</totfact>
</mgrwt>
</event>
<event>
 5    1  0.3188180E-002  0.1249970E+03  0.7818608E-02  0.1235074E+00
         -4   -1    0    0    0  501 -0.00000000000E+00  0.00000000000E+00  0.14370295434E+02  0.14426305517E+02  0.12700000000E+01 0.  1.
          4   -1    0    0  501    0  0.00000000000E+00 -0.00000000000E+00 -0.27122904798E+03  0.27123202128E+03  0.12700000000E+01 0.  1.
         25    2    1    2    0    0  0.00000000000E+00  0.00000000000E+00 -0.25685875255E+03  0.28565832680E+03  0.12499704360E+03 0.  0.
    9000005    1    3    3    0    0 -0.63306115095E+01  0.18555497192E+02 -0.26402964601E+03  0.26475845046E+03  0.10000000000E+01 0.  0.
    9000005    1    3    3    0    0  0.63306115095E+01 -0.18555497192E+02  0.71708934588E+01  0.20899876342E+02  0.10000000000E+01 0.  0.
<mgrwt>
<rscale>  0 0.12499704E+03</rscale>
<asrwt>0</asrwt>
<pdfrwt beam="2">  1        4 0.41732079E-01 0.12499704E+03</pdfrwt>
<pdfrwt beam="1">  1       -4 0.22153521E-02 0.12499704E+03</pdfrwt>
<totfact> 0.77438873E+03</totfact>
</mgrwt>
</event>
<event>
 5    1  0.3188180E-002  0.1250025E+03  0.7818608E-02  0.1235065E+00
          4   -1    0    0  501    0  0.00000000000E+00  0.00000000000E+00  0.78774557446E+02  0.78784794224E+02  0.12700000000E+01 0.  1.
         -4   -1    0    0    0  501 -0.00000000000E+00 -0.00000000000E+00 -0.49568124645E+02  0.49584391504E+02  0.12700000000E+01 0.  1.
         25    2    1    2    0    0  0.00000000000E+00  0.00000000000E+00  0.29206432801E+02  0.12836918573E+03  0.12500252848E+03 0.  0.
    9000005    1    3    3    0    0 -0.54985912039E+02 -0.10093657652E+02  0.43285275818E+02  0.70710307242E+02  0.10000000000E+01 0.  0.
    9000005    1    3    3    0    0  0.54985912039E+02  0.10093657652E+02 -0.14078843017E+02  0.57658878486E+02  0.10000000000E+01 0.  0.
<mgrwt>
<rscale>  0 0.12500253E+03</rscale>
<asrwt>0</asrwt>
<pdfrwt beam="1">  1        4 0.12121201E-01 0.12500253E+03</pdfrwt>
<pdfrwt beam="2">  1       -4 0.76279041E-02 0.12500253E+03</pdfrwt>
<totfact> 0.10378930E+04</totfact>
</mgrwt>
</event>
<event>
 5    1  0.3188180E-002  0.1250029E+03  0.7818608E-02  0.1235065E+00
         -4   -1    0    0    0  501 -0.00000000000E+00  0.00000000000E+00  0.80332977703E+02  0.80343015917E+02  0.12700000000E+01 0.  1.
          4   -1    0    0  501    0  0.00000000000E+00 -0.00000000000E+00 -0.48606647920E+02  0.48623236441E+02  0.12700000000E+01 0.  1.
         25    2    1    2    0    0  0.00000000000E+00  0.00000000000E+00  0.31726329783E+02  0.12896625236E+03  0.12500293695E+03 0.  0.
    9000005    1    3    3    0    0  0.21220065289E+01  0.43664426829E+02 -0.30210884774E+02  0.53148684281E+02  0.10000000000E+01 0.  0.
    9000005    1    3    3    0    0 -0.21220065289E+01 -0.43664426829E+02  0.61937214557E+02  0.75817568077E+02  0.10000000000E+01 0.  0.
<mgrwt>
<rscale>  0 0.12500294E+03</rscale>
<asrwt>0</asrwt>
<pdfrwt beam="2">  1        4 0.74799941E-02 0.12500294E+03</pdfrwt>
<pdfrwt beam="1">  1       -4 0.12360968E-01 0.12500294E+03</pdfrwt>
<totfact> 0.10365985E+04</totfact>
</mgrwt>
</event>
<event>
 5    1  0.3188180E-002  0.1249959E+03  0.7818608E-02  0.1235076E+00
         -4   -1    0    0    0  501 -0.00000000000E+00  0.00000000000E+00  0.10844505307E+02  0.10918616916E+02  0.12700000000E+01 0. -1.
          4   -1    0    0  501    0  0.00000000000E+00 -0.00000000000E+00 -0.35888007777E+03  0.35888232489E+03  0.12700000000E+01 0. -1.
         25    2    1    2    0    0  0.00000000000E+00  0.00000000000E+00 -0.34803557246E+03  0.36980094181E+03  0.12499590738E+03 0.  0.
    9000005    1    3    3    0    0  0.40373918141E+02 -0.42082448456E+02 -0.10759896836E+03  0.12239086455E+03  0.10000000000E+01 0.  0.
    9000005    1    3    3    0    0 -0.40373918141E+02  0.42082448456E+02 -0.24043660410E+03  0.24741007725E+03  0.10000000000E+01 0.  0.
<mgrwt>
<rscale>  0 0.12499591E+03</rscale>
<asrwt>0</asrwt>
<pdfrwt beam="2">  1        4 0.55218184E-01 0.12499591E+03</pdfrwt>
<pdfrwt beam="1">  1       -4 0.16742595E-02 0.12499591E+03</pdfrwt>
<totfact> 0.67605888E+03</totfact>
</mgrwt>
</event>
<event>
 5    1  0.3188180E-002  0.1250008E+03  0.7818608E-02  0.1235068E+00
         -4   -1    0    0    0  501 -0.00000000000E+00  0.00000000000E+00  0.15731074635E+03  0.15731587274E+03  0.12700000000E+01 0. -1.
          4   -1    0    0  501    0  0.00000000000E+00 -0.00000000000E+00 -0.24809979109E+02  0.24842462909E+02  0.12700000000E+01 0. -1.
         25    2    1    2    0    0  0.00000000000E+00  0.00000000000E+00  0.13250076724E+03  0.18215833565E+03  0.12500082371E+03 0.  0.
    9000005    1    3    3    0    0  0.12711060668E+02 -0.33286130097E+02 -0.85647459726E+01  0.36659137929E+02  0.10000000000E+01 0.  0.
    9000005    1    3    3    0    0 -0.12711060668E+02  0.33286130097E+02  0.14106551321E+03  0.14549919772E+03  0.10000000000E+01 0.  0.
<mgrwt>
<rscale>  0 0.12500082E+03</rscale>
<asrwt>0</asrwt>
<pdfrwt beam="2">  1        4 0.38198130E-02 0.12500082E+03</pdfrwt>
<pdfrwt beam="1">  1       -4 0.24204546E-01 0.12500082E+03</pdfrwt>
<totfact> 0.93228211E+03</totfact>
</mgrwt>
</event>
<event>
 5    1  0.3188180E-002  0.1250009E+03  0.7818608E-02  0.1235068E+00
         -4   -1    0    0    0  501 -0.00000000000E+00  0.00000000000E+00  0.43030982768E+01  0.44865972384E+01  0.12700000000E+01 0.  1.
          4   -1    0    0  501    0  0.00000000000E+00 -0.00000000000E+00 -0.88865407682E+03  0.88865498432E+03  0.12700000000E+01 0.  1.
         25    2    1    2    0    0  0.00000000000E+00  0.00000000000E+00 -0.88435097854E+03  0.89314158155E+03  0.12500092580E+03 0.  0.
    9000005    1    3    3    0    0 -0.12142648155E+01 -0.62365413014E+02 -0.46927850424E+03  0.47340704866E+03  0.10000000000E+01 0.  0.
    9000005    1    3    3    0    0  0.12142648155E+01  0.62365413014E+02 -0.41507247431E+03  0.41973453290E+03  0.10000000000E+01 0.  0.
<mgrwt>
<rscale>  0 0.12500093E+03</rscale>
<asrwt>0</asrwt>
<pdfrwt beam="2">  1        4 0.13673005E+00 0.12500093E+03</pdfrwt>
<pdfrwt beam="1">  1       -4 0.67620094E-03 0.12500093E+03</pdfrwt>
<totfact> 0.34423219E+03</totfact>
</mgrwt>
</event>
<event>
 5    1  0.3188180E-002  0.1250071E+03  0.7818608E-02  0.1235058E+00
          4   -1    0    0  501    0  0.00000000000E+00  0.00000000000E+00  0.12331049508E+02  0.12396276940E+02  0.12700000000E+01 0.  1.
         -4   -1    0    0    0  501 -0.00000000000E+00 -0.00000000000E+00 -0.31591526965E+03  0.31591782238E+03  0.12700000000E+01 0.  1.
         25    2    1    2    0    0  0.00000000000E+00  0.00000000000E+00 -0.30358422014E+03  0.32831409932E+03  0.12500707618E+03 0.  0.
    9000005    1    3    3    0    0  0.18600349950E+02 -0.17029704642E+02 -0.16130268611E+01  0.25290031911E+02  0.10000000000E+01 0.  0.
    9000005    1    3    3    0    0 -0.18600349950E+02  0.17029704642E+02 -0.30197119328E+03  0.30302406741E+03  0.10000000000E+01 0.  0.
<mgrwt>
<rscale>  0 0.12500708E+03</rscale>
<asrwt>0</asrwt>
<pdfrwt beam="1">  1        4 0.19022986E-02 0.12500708E+03</pdfrwt>
<pdfrwt beam="2">  1       -4 0.48607557E-01 0.12500708E+03</pdfrwt>
<totfact> 0.72166752E+03</totfact>
</mgrwt>
</event>
<event>
 5    1  0.3188180E-002  0.1249980E+03  0.7818608E-02  0.1235072E+00
          4   -1    0    0  501    0  0.00000000000E+00  0.00000000000E+00  0.14915723653E+01  0.19590018175E+01  0.12700000000E+01 0.  1.
         -4   -1    0    0    0  501 -0.00000000000E+00 -0.00000000000E+00 -0.22635768266E+04  0.22635771829E+04  0.12700000000E+01 0.  1.
         25    2    1    2    0    0  0.00000000000E+00  0.00000000000E+00 -0.22620852542E+04  0.22655361847E+04  0.12499802684E+03 0.  0.
    9000005    1    3    3    0    0 -0.78248853495E+01  0.57905396342E+02 -0.72948492560E+03  0.73182205517E+03  0.10000000000E+01 0.  0.
    9000005    1    3    3    0    0  0.78248853495E+01 -0.57905396342E+02 -0.15326003286E+04  0.15337141295E+04  0.10000000000E+01 0.  0.
<mgrwt>
<rscale>  0 0.12499803E+03</rscale>
<asrwt>0</asrwt>
<pdfrwt beam="1">  1        4 0.26545800E-03 0.12499803E+03</pdfrwt>
<pdfrwt beam="2">  1       -4 0.34827620E+00 0.12499803E+03</pdfrwt>
<totfact> 0.67817575E+02</totfact>
</mgrwt>
</event>
<event>
 5    1  0.3188180E-002  0.1249973E+03  0.7818608E-02  0.1235073E+00
          4   -1    0    0  501    0  0.00000000000E+00  0.00000000000E+00  0.11476671739E+03  0.11477374404E+03  0.12700000000E+01 0.  1.
         -4   -1    0    0    0  501 -0.00000000000E+00 -0.00000000000E+00 -0.34015060062E+02  0.34038760421E+02  0.12700000000E+01 0.  1.
         25    2    1    2    0    0  0.00000000000E+00  0.00000000000E+00  0.80751657327E+02  0.14881250446E+03  0.12499732526E+03 0.  0.
    9000005    1    3    3    0    0  0.32582559110E+02 -0.80216426444E+01  0.10313711015E+03  0.10846305084E+03  0.10000000000E+01 0.  0.
    9000005    1    3    3    0    0 -0.32582559110E+02  0.80216426444E+01 -0.22385452821E+02  0.40349453613E+02  0.10000000000E+01 0.  0.
<mgrwt>
<rscale>  0 0.12499733E+03</rscale>
<asrwt>0</asrwt>
<pdfrwt beam="1">  1        4 0.17658781E-01 0.12499733E+03</pdfrwt>
<pdfrwt beam="2">  1       -4 0.52354499E-02 0.12499733E+03</pdfrwt>
<totfact> 0.99546929E+03</totfact>
</mgrwt>
</event>
<event>
 5    1  0.3188180E-002  0.1250019E+03  0.7818608E-02  0.1235066E+00
         -4   -1    0    0    0  501 -0.00000000000E+00  0.00000000000E+00  0.16993428030E+03  0.16993902589E+03  0.12700000000E+01 0.  1.
          4   -1    0    0  501    0  0.00000000000E+00 -0.00000000000E+00 -0.22964903524E+02  0.22999993345E+02  0.12700000000E+01 0.  1.
         25    2    1    2    0    0  0.00000000000E+00  0.00000000000E+00  0.14696937677E+03  0.19293901923E+03  0.12500186972E+03 0.  0.
    9000005    1    3    3    0    0 -0.30189578065E+02 -0.51129384465E+02  0.10356262458E+03  0.11938107802E+03  0.10000000000E+01 0.  0.
    9000005    1    3    3    0    0  0.30189578065E+02  0.51129384465E+02  0.43406752197E+02  0.73557941216E+02  0.10000000000E+01 0.  0.
<mgrwt>
<rscale>  0 0.12500187E+03</rscale>
<asrwt>0</asrwt>
<pdfrwt beam="2">  1        4 0.35361263E-02 0.12500187E+03</pdfrwt>
<pdfrwt beam="1">  1       -4 0.26146800E-01 0.12500187E+03</pdfrwt>
<totfact> 0.91334610E+03</totfact>
</mgrwt>
</event>
<event>
 5    1  0.3188180E-002  0.1249979E+03  0.7818608E-02  0.1235073E+00
          4   -1    0    0  501    0  0.00000000000E+00  0.00000000000E+00  0.11824688467E+03  0.11825370452E+03  0.12700000000E+01 0.  1.
         -4   -1    0    0    0  501 -0.00000000000E+00 -0.00000000000E+00 -0.33013586562E+02  0.33038005352E+02  0.12700000000E+01 0.  1.
         25    2    1    2    0    0  0.00000000000E+00  0.00000000000E+00  0.85233298104E+02  0.15129170987E+03  0.12499786547E+03 0.  0.
    9000005    1    3    3    0    0 -0.10773062046E+02 -0.13973737988E+02 -0.29941972877E+02  0.34768462131E+02  0.10000000000E+01 0.  0.
    9000005    1    3    3    0    0  0.10773062046E+02  0.13973737988E+02  0.11517527098E+03  0.11652324774E+03  0.10000000000E+01 0.  0.
<mgrwt>
<rscale>  0 0.12499787E+03</rscale>
<asrwt>0</asrwt>
<pdfrwt beam="1">  1        4 0.18194232E-01 0.12499787E+03</pdfrwt>
<pdfrwt beam="2">  1       -4 0.50814162E-02 0.12499787E+03</pdfrwt>
<totfact> 0.99051593E+03</totfact>
</mgrwt>
</event>
<event>
 5    1  0.3188180E-002  0.1249998E+03  0.7818608E-02  0.1235070E+00
         -4   -1    0    0    0  501 -0.00000000000E+00  0.00000000000E+00  0.12812464654E+02  0.12875253415E+02  0.12700000000E+01 0. -1.
          4   -1    0    0  501    0  0.00000000000E+00 -0.00000000000E+00 -0.30406860455E+03  0.30407125674E+03  0.12700000000E+01 0. -1.
         25    2    1    2    0    0  0.00000000000E+00  0.00000000000E+00 -0.29125613990E+03  0.31694651016E+03  0.12499980508E+03 0.  0.
    9000005    1    3    3    0    0 -0.30041435093E+02 -0.44381571379E+02 -0.22712331860E+03  0.23336283670E+03  0.10000000000E+01 0.  0.
    9000005    1    3    3    0    0  0.30041435093E+02  0.44381571379E+02 -0.64132821302E+02  0.83583673457E+02  0.10000000000E+01 0.  0.
<mgrwt>
<rscale>  0 0.12499981E+03</rscale>
<asrwt>0</asrwt>
<pdfrwt beam="2">  1        4 0.46784814E-01 0.12499981E+03</pdfrwt>
<pdfrwt beam="1">  1       -4 0.19761826E-02 0.12499981E+03</pdfrwt>
<totfact> 0.73521095E+03</totfact>
</mgrwt>
</event>
<event>
 5    1  0.3188180E-002  0.1249982E+03  0.7818608E-02  0.1235072E+00
         -4   -1    0    0    0  501 -0.00000000000E+00  0.00000000000E+00  0.92163743958E+02  0.92172493730E+02  0.12700000000E+01 0.  1.
          4   -1    0    0  501    0  0.00000000000E+00 -0.00000000000E+00 -0.42362287596E+02  0.42381320300E+02  0.12700000000E+01 0.  1.
         25    2    1    2    0    0  0.00000000000E+00  0.00000000000E+00  0.49801456362E+02  0.13455381403E+03  0.12499817524E+03 0.  0.
    9000005    1    3    3    0    0  0.22269552611E+02 -0.56022689590E+02  0.71912662545E+01  0.60722228490E+02  0.10000000000E+01 0.  0.
    9000005    1    3    3    0    0 -0.22269552611E+02  0.56022689590E+02  0.42610190108E+02  0.73831585540E+02  0.10000000000E+01 0.  0.
<mgrwt>
<rscale>  0 0.12499818E+03</rscale>
<asrwt>0</asrwt>
<pdfrwt beam="2">  1        4 0.65194121E-02 0.12499818E+03</pdfrwt>
<pdfrwt beam="1">  1       -4 0.14181175E-01 0.12499818E+03</pdfrwt>
<totfact> 0.10247906E+04</totfact>
</mgrwt>
</event>
<event>
 5    1  0.3188180E-002  0.1250003E+03  0.7818608E-02  0.1235069E+00
          4   -1    0    0  501    0  0.00000000000E+00  0.00000000000E+00  0.50845532535E+03  0.50845691143E+03  0.12700000000E+01 0. -1.
         -4   -1    0    0    0  501 -0.00000000000E+00 -0.00000000000E+00 -0.76285215183E+01  0.77335141143E+01  0.12700000000E+01 0. -1.
         25    2    1    2    0    0  0.00000000000E+00  0.00000000000E+00  0.50082680384E+03  0.51619042554E+03  0.12500027193E+03 0.  0.
    9000005    1    3    3    0    0 -0.39950758609E+02  0.43447306285E+02  0.16562898389E+03  0.17583427380E+03  0.10000000000E+01 0.  0.
    9000005    1    3    3    0    0  0.39950758609E+02 -0.43447306285E+02  0.33519781994E+03  0.34035615174E+03  0.10000000000E+01 0.  0.
<mgrwt>
<rscale>  0 0.12500027E+03</rscale>
<asrwt>0</asrwt>
<pdfrwt beam="1">  1        4 0.78232080E-01 0.12500027E+03</pdfrwt>
<pdfrwt beam="2">  1       -4 0.11818173E-02 0.12500027E+03</pdfrwt>
<totfact> 0.54629391E+03</totfact>
</mgrwt>
</event>
<event>
 5    1  0.3188180E-002  0.1249966E+03  0.7818608E-02  0.1235075E+00
          4   -1    0    0  501    0  0.00000000000E+00  0.00000000000E+00  0.19516932784E+01  0.23285202711E+01  0.12700000000E+01 0. -1.
         -4   -1    0    0    0  501 -0.00000000000E+00 -0.00000000000E+00 -0.18247837020E+04  0.18247841439E+04  0.12700000000E+01 0. -1.
         25    2    1    2    0    0  0.00000000000E+00  0.00000000000E+00 -0.18228320087E+04  0.18271126642E+04  0.12499662280E+03 0.  0.
    9000005    1    3    3    0    0 -0.28311253998E+02  0.54551410165E+02 -0.10765691193E+04  0.10783225176E+04  0.10000000000E+01 0.  0.
    9000005    1    3    3    0    0  0.28311253998E+02 -0.54551410165E+02 -0.74626288943E+03  0.74879014657E+03  0.10000000000E+01 0.  0.
<mgrwt>
<rscale>  0 0.12499662E+03</rscale>
<asrwt>0</asrwt>
<pdfrwt beam="1">  1        4 0.32928265E-03 0.12499662E+03</pdfrwt>
<pdfrwt beam="2">  1       -4 0.28076373E+00 0.12499662E+03</pdfrwt>
<totfact> 0.12291434E+03</totfact>
</mgrwt>
</event>
<event>
 5    1  0.3188180E-002  0.1250169E+03  0.7818608E-02  0.1235043E+00
          4   -1    0    0  501    0  0.00000000000E+00  0.00000000000E+00  0.54183455168E+02  0.54198336819E+02  0.12700000000E+01 0. -1.
         -4   -1    0    0    0  501 -0.00000000000E+00 -0.00000000000E+00 -0.72082209183E+02  0.72093396235E+02  0.12700000000E+01 0. -1.
         25    2    1    2    0    0  0.00000000000E+00  0.00000000000E+00 -0.17898754015E+02  0.12629173305E+03  0.12501694462E+03 0.  0.
    9000005    1    3    3    0    0 -0.15608680115E+02  0.47331434162E+02 -0.47048851332E+02  0.68545532068E+02  0.10000000000E+01 0.  0.
    9000005    1    3    3    0    0  0.15608680115E+02 -0.47331434162E+02  0.29150097317E+02  0.57746200986E+02  0.10000000000E+01 0.  0.
<mgrwt>
<rscale>  0 0.12501694E+03</rscale>
<asrwt>0</asrwt>
<pdfrwt beam="1">  1        4 0.83379215E-02 0.12501694E+03</pdfrwt>
<pdfrwt beam="2">  1       -4 0.11091576E-01 0.12501694E+03</pdfrwt>
<totfact> 0.10420588E+04</totfact>
</mgrwt>
</event>
<event>
 5    1  0.3188180E-002  0.1250014E+03  0.7818608E-02  0.1235067E+00
         -4   -1    0    0    0  501 -0.00000000000E+00  0.00000000000E+00  0.36353475063E+01  0.38507988121E+01  0.12700000000E+01 0.  1.
          4   -1    0    0  501    0  0.00000000000E+00 -0.00000000000E+00 -0.10434021306E+04  0.10434029035E+04  0.12700000000E+01 0.  1.
         25    2    1    2    0    0  0.00000000000E+00  0.00000000000E+00 -0.10397667831E+04  0.10472537023E+04  0.12500141515E+03 0.  0.
    9000005    1    3    3    0    0 -0.31999242305E+01 -0.41175126218E+02 -0.91281727749E+03  0.91375161429E+03  0.10000000000E+01 0.  0.
    9000005    1    3    3    0    0  0.31999242305E+01  0.41175126218E+02 -0.12694950560E+03  0.13350208802E+03  0.10000000000E+01 0.  0.
<mgrwt>
<rscale>  0 0.12500142E+03</rscale>
<asrwt>0</asrwt>
<pdfrwt beam="2">  1        4 0.16053981E+00 0.12500142E+03</pdfrwt>
<pdfrwt beam="1">  1       -4 0.57591769E-03 0.12500142E+03</pdfrwt>
<totfact> 0.29079821E+03</totfact>
</mgrwt>
</event>
<event>
 5    1  0.3188180E-002  0.1250008E+03  0.7818608E-02  0.1235068E+00
         -4   -1    0    0    0  501 -0.00000000000E+00  0.00000000000E+00  0.86676997252E+02  0.86686300836E+02  0.12700000000E+01 0.  1.
          4   -1    0    0  501    0  0.00000000000E+00 -0.00000000000E+00 -0.45046654698E+02  0.45064553693E+02  0.12700000000E+01 0.  1.
         25    2    1    2    0    0  0.00000000000E+00  0.00000000000E+00  0.41630342554E+02  0.13175085453E+03  0.12500080899E+03 0.  0.
    9000005    1    3    3    0    0  0.47447145067E+02  0.30204187293E+02 -0.78911157229E+01  0.56804878420E+02  0.10000000000E+01 0.  0.
    9000005    1    3    3    0    0 -0.47447145067E+02 -0.30204187293E+02  0.49521458277E+02  0.74945976108E+02  0.10000000000E+01 0.  0.
<mgrwt>
<rscale>  0 0.12500081E+03</rscale>
<asrwt>0</asrwt>
<pdfrwt beam="2">  1        4 0.69323472E-02 0.12500081E+03</pdfrwt>
<pdfrwt beam="1">  1       -4 0.13337015E-01 0.12500081E+03</pdfrwt>
<totfact> 0.10306831E+04</totfact>
</mgrwt>
</event>
<event>
 5    1  0.3188180E-002  0.1250097E+03  0.7818608E-02  0.1235054E+00
          4   -1    0    0  501    0  0.00000000000E+00  0.00000000000E+00  0.60496786670E+03  0.60496919975E+03  0.12700000000E+01 0. -1.
         -4   -1    0    0    0  501 -0.00000000000E+00 -0.00000000000E+00 -0.63941668469E+01  0.65190696933E+01  0.12700000000E+01 0. -1.
         25    2    1    2    0    0  0.00000000000E+00  0.00000000000E+00  0.59857369986E+03  0.61148826944E+03  0.12500971764E+03 0.  0.
    9000005    1    3    3    0    0 -0.18522017595E+02 -0.56983603149E+02  0.21237980839E+03  0.22067256099E+03  0.10000000000E+01 0.  0.
    9000005    1    3    3    0    0  0.18522017595E+02  0.56983603149E+02  0.38619389147E+03  0.39081570845E+03  0.10000000000E+01 0.  0.
<mgrwt>
<rscale>  0 0.12500972E+03</rscale>
<asrwt>0</asrwt>
<pdfrwt beam="1">  1        4 0.93081718E-01 0.12500972E+03</pdfrwt>
<pdfrwt beam="2">  1       -4 0.99342813E-03 0.12500972E+03</pdfrwt>
<totfact> 0.48140108E+03</totfact>
</mgrwt>
</event>
<event>
 5    1  0.3188180E-002  0.1250004E+03  0.7818608E-02  0.1235069E+00
          4   -1    0    0  501    0  0.00000000000E+00  0.00000000000E+00  0.21083878750E+03  0.21084261242E+03  0.12700000000E+01 0. -1.
         -4   -1    0    0    0  501 -0.00000000000E+00 -0.00000000000E+00 -0.18501549274E+02  0.18545086291E+02  0.12700000000E+01 0. -1.
         25    2    1    2    0    0  0.00000000000E+00  0.00000000000E+00  0.19233723822E+03  0.22938769872E+03  0.12500041246E+03 0.  0.
    9000005    1    3    3    0    0 -0.34620147200E+02  0.27979841660E+00  0.19164020987E+03  0.19474496892E+03  0.10000000000E+01 0.  0.
    9000005    1    3    3    0    0  0.34620147200E+02 -0.27979841660E+00  0.69702835304E+00  0.34642729798E+02  0.10000000000E+01 0.  0.
<mgrwt>
<rscale>  0 0.12500041E+03</rscale>
<asrwt>0</asrwt>
<pdfrwt beam="1">  1        4 0.32440380E-01 0.12500041E+03</pdfrwt>
<pdfrwt beam="2">  1       -4 0.28500354E-02 0.12500041E+03</pdfrwt>
<totfact> 0.85402918E+03</totfact>
</mgrwt>
</event>
<event>
 5    1  0.3188180E-002  0.1250030E+03  0.7818608E-02  0.1235065E+00
          4   -1    0    0  501    0  0.00000000000E+00  0.00000000000E+00  0.15349237535E+03  0.15349762926E+03  0.12700000000E+01 0.  1.
         -4   -1    0    0    0  501 -0.00000000000E+00 -0.00000000000E+00 -0.25428849483E+02  0.25460543711E+02  0.12700000000E+01 0.  1.
         25    2    1    2    0    0  0.00000000000E+00  0.00000000000E+00  0.12806352586E+03  0.17895817297E+03  0.12500304403E+03 0.  0.
    9000005    1    3    3    0    0  0.50005001107E+02 -0.36672502035E+02  0.75127380971E+02  0.97419176309E+02  0.10000000000E+01 0.  0.
    9000005    1    3    3    0    0 -0.50005001107E+02  0.36672502035E+02  0.52936144893E+02  0.81538996666E+02  0.10000000000E+01 0.  0.
<mgrwt>
<rscale>  0 0.12500304E+03</rscale>
<asrwt>0</asrwt>
<pdfrwt beam="1">  1        4 0.23617055E-01 0.12500304E+03</pdfrwt>
<pdfrwt beam="2">  1       -4 0.39149727E-02 0.12500304E+03</pdfrwt>
<totfact> 0.93798468E+03</totfact>
</mgrwt>
</event>
<event>
 5    1  0.3188180E-002  0.1250006E+03  0.7818608E-02  0.1235068E+00
          4   -1    0    0  501    0  0.00000000000E+00  0.00000000000E+00  0.10886990894E+03  0.10887731615E+03  0.12700000000E+01 0.  1.
         -4   -1    0    0    0  501 -0.00000000000E+00 -0.00000000000E+00 -0.35860480864E+02  0.35882962361E+02  0.12700000000E+01 0.  1.
         25    2    1    2    0    0  0.00000000000E+00  0.00000000000E+00  0.73009428073E+02  0.14476027851E+03  0.12500064659E+03 0.  0.
    9000005    1    3    3    0    0  0.10302847348E+02  0.51042830598E+02  0.76517399284E+02  0.92560421413E+02  0.10000000000E+01 0.  0.
    9000005    1    3    3    0    0 -0.10302847348E+02 -0.51042830598E+02 -0.35079712109E+01  0.52199857097E+02  0.10000000000E+01 0.  0.
<mgrwt>
<rscale>  0 0.12500065E+03</rscale>
<asrwt>0</asrwt>
<pdfrwt beam="1">  1        4 0.16751516E-01 0.12500065E+03</pdfrwt>
<pdfrwt beam="2">  1       -4 0.55192962E-02 0.12500065E+03</pdfrwt>
<totfact> 0.10035715E+04</totfact>
</mgrwt>
</event>
<event>
 5    1  0.3188180E-002  0.1250004E+03  0.7818608E-02  0.1235069E+00
          4   -1    0    0  501    0  0.00000000000E+00  0.00000000000E+00  0.25600896507E+02  0.25632378000E+02  0.12700000000E+01 0.  1.
         -4   -1    0    0    0  501 -0.00000000000E+00 -0.00000000000E+00 -0.15245570731E+03  0.15246099696E+03  0.12700000000E+01 0.  1.
         25    2    1    2    0    0  0.00000000000E+00  0.00000000000E+00 -0.12685481081E+03  0.17809337496E+03  0.12500042871E+03 0.  0.
    9000005    1    3    3    0    0 -0.25757100613E+02 -0.56902417534E+02 -0.66263838070E+02  0.91067060944E+02  0.10000000000E+01 0.  0.
    9000005    1    3    3    0    0  0.25757100613E+02  0.56902417534E+02 -0.60590972737E+02  0.87026314011E+02  0.10000000000E+01 0.  0.
<mgrwt>
<rscale>  0 0.12500043E+03</rscale>
<asrwt>0</asrwt>
<pdfrwt beam="1">  1        4 0.39414281E-02 0.12500043E+03</pdfrwt>
<pdfrwt beam="2">  1       -4 0.23457552E-01 0.12500043E+03</pdfrwt>
<totfact> 0.93960429E+03</totfact>
</mgrwt>
</event>
<event>
 5    1  0.3188180E-002  0.1250012E+03  0.7818608E-02  0.1235067E+00
          4   -1    0    0  501    0  0.00000000000E+00  0.00000000000E+00  0.60764931905E+03  0.60765064621E+03  0.12700000000E+01 0. -1.
         -4   -1    0    0    0  501 -0.00000000000E+00 -0.00000000000E+00 -0.63645106511E+01  0.64899842703E+01  0.12700000000E+01 0. -1.
         25    2    1    2    0    0  0.00000000000E+00  0.00000000000E+00  0.60128480840E+03  0.61414063048E+03  0.12500117279E+03 0.  0.
    9000005    1    3    3    0    0 -0.60308779882E+02 -0.72867119322E+01  0.37269538253E+03  0.37761500667E+03  0.10000000000E+01 0.  0.
    9000005    1    3    3    0    0  0.60308779882E+02  0.72867119322E+01  0.22858942587E+03  0.23652562381E+03  0.10000000000E+01 0.  0.
<mgrwt>
<rscale>  0 0.12500117E+03</rscale>
<asrwt>0</asrwt>
<pdfrwt beam="1">  1        4 0.93494245E-01 0.12500117E+03</pdfrwt>
<pdfrwt beam="2">  1       -4 0.98890960E-03 0.12500117E+03</pdfrwt>
<totfact> 0.47985781E+03</totfact>
</mgrwt>
</event>
<event>
 5    1  0.3188180E-002  0.1249988E+03  0.7818608E-02  0.1235071E+00
         -4   -1    0    0    0  501 -0.00000000000E+00  0.00000000000E+00  0.12652928559E+02  0.12716505067E+02  0.12700000000E+01 0.  1.
          4   -1    0    0  501    0  0.00000000000E+00 -0.00000000000E+00 -0.30787843598E+03  0.30788105535E+03  0.12700000000E+01 0.  1.
         25    2    1    2    0    0  0.00000000000E+00  0.00000000000E+00 -0.29522550743E+03  0.32059756042E+03  0.12499878204E+03 0.  0.
    9000005    1    3    3    0    0 -0.33077040373E+02  0.50032742823E+02 -0.19261086957E+03  0.20173575050E+03  0.10000000000E+01 0.  0.
    9000005    1    3    3    0    0  0.33077040373E+02 -0.50032742823E+02 -0.10261463786E+03  0.11886180992E+03  0.10000000000E+01 0.  0.
<mgrwt>
<rscale>  0 0.12499878E+03</rscale>
<asrwt>0</asrwt>
<pdfrwt beam="2">  1        4 0.47371000E-01 0.12499878E+03</pdfrwt>
<pdfrwt beam="1">  1       -4 0.19516966E-02 0.12499878E+03</pdfrwt>
<totfact> 0.73087085E+03</totfact>
</mgrwt>
</event>
<event>
 5    1  0.3188180E-002  0.1250207E+03  0.7818608E-02  0.1235037E+00
         -4   -1    0    0    0  501 -0.00000000000E+00  0.00000000000E+00  0.12643381296E+03  0.12644019124E+03  0.12700000000E+01 0.  1.
          4   -1    0    0  501    0  0.00000000000E+00 -0.00000000000E+00 -0.30885648059E+02  0.30911747864E+02  0.12700000000E+01 0.  1.
         25    2    1    2    0    0  0.00000000000E+00  0.00000000000E+00  0.95548164904E+02  0.15735193910E+03  0.12502072197E+03 0.  0.
    9000005    1    3    3    0    0  0.52975426636E+02 -0.24103573449E+01  0.89409809271E+02  0.10395825914E+03  0.10000000000E+01 0.  0.
    9000005    1    3    3    0    0 -0.52975426636E+02  0.24103573449E+01  0.61383556330E+01  0.53393679960E+02  0.10000000000E+01 0.  0.
<mgrwt>
<rscale>  0 0.12502072E+03</rscale>
<asrwt>0</asrwt>
<pdfrwt beam="2">  1        4 0.47541365E-02 0.12502072E+03</pdfrwt>
<pdfrwt beam="1">  1       -4 0.19453854E-01 0.12502072E+03</pdfrwt>
<totfact> 0.97810174E+03</totfact>
</mgrwt>
</event>
<event>
 5    1  0.3188180E-002  0.1250049E+03  0.7818608E-02  0.1235062E+00
         -4   -1    0    0    0  501 -0.00000000000E+00  0.00000000000E+00  0.29963895697E+02  0.29990797677E+02  0.12700000000E+01 0.  1.
          4   -1    0    0  501    0  0.00000000000E+00 -0.00000000000E+00 -0.13028700846E+03  0.13029319811E+03  0.12700000000E+01 0.  1.
         25    2    1    2    0    0  0.00000000000E+00  0.00000000000E+00 -0.10032311276E+03  0.16028399579E+03  0.12500492931E+03 0.  0.
    9000005    1    3    3    0    0 -0.56100847763E+01  0.54499498051E+02 -0.88711234153E+02  0.10427056825E+03  0.10000000000E+01 0.  0.
    9000005    1    3    3    0    0  0.56100847763E+01 -0.54499498051E+02 -0.11611878610E+02  0.56013427532E+02  0.10000000000E+01 0.  0.
<mgrwt>
<rscale>  0 0.12500493E+03</rscale>
<asrwt>0</asrwt>
<pdfrwt beam="2">  1        4 0.20046700E-01 0.12500493E+03</pdfrwt>
<pdfrwt beam="1">  1       -4 0.46123757E-02 0.12500493E+03</pdfrwt>
<totfact> 0.97277283E+03</totfact>
</mgrwt>
</event>
<event>
 5    1  0.3188180E-002  0.1249998E+03  0.7818608E-02  0.1235070E+00
         -4   -1    0    0    0  501 -0.00000000000E+00  0.00000000000E+00  0.12056885886E+04  0.12056892575E+04  0.12700000000E+01 0. -1.
          4   -1    0    0  501    0  0.00000000000E+00 -0.00000000000E+00 -0.31146839798E+01  0.33636522255E+01  0.12700000000E+01 0. -1.
         25    2    1    2    0    0  0.00000000000E+00  0.00000000000E+00  0.12025739047E+04  0.12090529097E+04  0.12499976949E+03 0.  0.
    9000005    1    3    3    0    0 -0.91643333441E+01  0.53507753105E+02  0.90069094888E+03  0.90232602203E+03  0.10000000000E+01 0.  0.
    9000005    1    3    3    0    0  0.91643333441E+01 -0.53507753105E+02  0.30188295578E+03  0.30672688770E+03  0.10000000000E+01 0.  0.
<mgrwt>
<rscale>  0 0.12499977E+03</rscale>
<asrwt>0</asrwt>
<pdfrwt beam="2">  1        4 0.49838463E-03 0.12499977E+03</pdfrwt>
<pdfrwt beam="1">  1       -4 0.18550989E+00 0.12499977E+03</pdfrwt>
<totfact> 0.24477112E+03</totfact>
</mgrwt>
</event>
<event>
 5    1  0.3188180E-002  0.1250029E+03  0.7818608E-02  0.1235065E+00
         -4   -1    0    0    0  501 -0.00000000000E+00  0.00000000000E+00  0.48587829901E+02  0.48604424845E+02  0.12700000000E+01 0.  1.
          4   -1    0    0  501    0  0.00000000000E+00 -0.00000000000E+00 -0.80364038683E+02  0.80374073018E+02  0.12700000000E+01 0.  1.
         25    2    1    2    0    0  0.00000000000E+00  0.00000000000E+00 -0.31776208782E+02  0.12897849786E+03  0.12500290183E+03 0.  0.
    9000005    1    3    3    0    0  0.23372342955E+02  0.39790842002E+02 -0.59369235142E+02  0.75201619689E+02  0.10000000000E+01 0.  0.
    9000005    1    3    3    0    0 -0.23372342955E+02 -0.39790842002E+02  0.27593026361E+02  0.53776878174E+02  0.10000000000E+01 0.  0.
<mgrwt>
<rscale>  0 0.12500290E+03</rscale>
<asrwt>0</asrwt>
<pdfrwt beam="2">  1        4 0.12365747E-01 0.12500290E+03</pdfrwt>
<pdfrwt beam="1">  1       -4 0.74770991E-02 0.12500290E+03</pdfrwt>
<totfact> 0.10365730E+04</totfact>
</mgrwt>
</event>
<event>
 5    1  0.3188180E-002  0.1249933E+03  0.7818608E-02  0.1235080E+00
          4   -1    0    0  501    0  0.00000000000E+00  0.00000000000E+00  0.15984616182E+03  0.15985120690E+03  0.12700000000E+01 0. -1.
         -4   -1    0    0    0  501 -0.00000000000E+00 -0.00000000000E+00 -0.24412988975E+02  0.24446000301E+02  0.12700000000E+01 0. -1.
         25    2    1    2    0    0  0.00000000000E+00  0.00000000000E+00  0.13543317285E+03  0.18429720721E+03  0.12499326493E+03 0.  0.
    9000005    1    3    3    0    0 -0.62696328209E+01  0.61435719490E+02  0.53637787450E+02  0.81802617119E+02  0.10000000000E+01 0.  0.
    9000005    1    3    3    0    0  0.62696328209E+01 -0.61435719490E+02  0.81795385396E+02  0.10249459009E+03  0.10000000000E+01 0.  0.
<mgrwt>
<rscale>  0 0.12499326E+03</rscale>
<asrwt>0</asrwt>
<pdfrwt beam="1">  1        4 0.24594645E-01 0.12499326E+03</pdfrwt>
<pdfrwt beam="2">  1       -4 0.37587718E-02 0.12499326E+03</pdfrwt>
<totfact> 0.92863177E+03</totfact>
</mgrwt>
</event>
<event>
 5    1  0.3188180E-002  0.1249893E+03  0.7818608E-02  0.1235086E+00
         -4   -1    0    0    0  501 -0.00000000000E+00  0.00000000000E+00  0.11290693899E+03  0.11291408137E+03  0.12700000000E+01 0. -1.
          4   -1    0    0  501    0  0.00000000000E+00 -0.00000000000E+00 -0.34571253565E+02  0.34594572885E+02  0.12700000000E+01 0. -1.
         25    2    1    2    0    0  0.00000000000E+00  0.00000000000E+00  0.78335685426E+02  0.14750865426E+03  0.12498929342E+03 0.  0.
    9000005    1    3    3    0    0 -0.24732426057E+02  0.20984374282E+02  0.10219981033E+03  0.10722797254E+03  0.10000000000E+01 0.  0.
    9000005    1    3    3    0    0  0.24732426057E+02 -0.20984374282E+02 -0.23864124903E+02  0.40280681723E+02  0.10000000000E+01 0.  0.
<mgrwt>
<rscale>  0 0.12498929E+03</rscale>
<asrwt>0</asrwt>
<pdfrwt beam="2">  1        4 0.53209975E-02 0.12498929E+03</pdfrwt>
<pdfrwt beam="1">  1       -4 0.17372642E-01 0.12498929E+03</pdfrwt>
<totfact> 0.99826707E+03</totfact>
</mgrwt>
</event>
<event>
 5    1  0.3188180E-002  0.1250005E+03  0.7818608E-02  0.1235069E+00
          4   -1    0    0  501    0  0.00000000000E+00  0.00000000000E+00  0.10899871765E+04  0.10899879164E+04  0.12700000000E+01 0.  1.
         -4   -1    0    0    0  501 -0.00000000000E+00 -0.00000000000E+00 -0.34705061251E+01  0.36955801661E+01  0.12700000000E+01 0.  1.
         25    2    1    2    0    0  0.00000000000E+00  0.00000000000E+00  0.10865166704E+04  0.10936834966E+04  0.12500046238E+03 0.  0.
    9000005    1    3    3    0    0  0.87396843834E+01 -0.23958747963E+02  0.10424268804E+04  0.10427392793E+04  0.10000000000E+01 0.  0.
    9000005    1    3    3    0    0 -0.87396843834E+01  0.23958747963E+02  0.44089790030E+02  0.50944217257E+02  0.10000000000E+01 0.  0.
<mgrwt>
<rscale>  0 0.12500046E+03</rscale>
<asrwt>0</asrwt>
<pdfrwt beam="1">  1        4 0.16770808E+00 0.12500046E+03</pdfrwt>
<pdfrwt beam="2">  1       -4 0.55129310E-03 0.12500046E+03</pdfrwt>
<totfact> 0.27668640E+03</totfact>
</mgrwt>
</event>
<event>
 5    1  0.3188180E-002  0.1249950E+03  0.7818608E-02  0.1235077E+00
         -4   -1    0    0    0  501 -0.00000000000E+00  0.00000000000E+00  0.91160011571E+01  0.92040413458E+01  0.12700000000E+01 0. -1.
          4   -1    0    0  501    0  0.00000000000E+00 -0.00000000000E+00 -0.42632252538E+03  0.42632441702E+03  0.12700000000E+01 0. -1.
         25    2    1    2    0    0  0.00000000000E+00  0.00000000000E+00 -0.41720652422E+03  0.43552845837E+03  0.12499501667E+03 0.  0.
    9000005    1    3    3    0    0 -0.58904270058E+02 -0.20796874048E+02 -0.21434512046E+03  0.22326453741E+03  0.10000000000E+01 0.  0.
    9000005    1    3    3    0    0  0.58904270058E+02  0.20796874048E+02 -0.20286140377E+03  0.21226392096E+03  0.10000000000E+01 0.  0.
<mgrwt>
<rscale>  0 0.12499502E+03</rscale>
<asrwt>0</asrwt>
<pdfrwt beam="2">  1        4 0.65594983E-01 0.12499502E+03</pdfrwt>
<pdfrwt beam="1">  1       -4 0.14093799E-02 0.12499502E+03</pdfrwt>
<totfact> 0.61244782E+03</totfact>
</mgrwt>
</event>
<event>
 5    1  0.3188180E-002  0.1249959E+03  0.7818608E-02  0.1235076E+00
          4   -1    0    0  501    0  0.00000000000E+00  0.00000000000E+00  0.31343177955E+03  0.31343435251E+03  0.12700000000E+01 0.  1.
         -4   -1    0    0    0  501 -0.00000000000E+00 -0.00000000000E+00 -0.12427039824E+02  0.12491766039E+02  0.12700000000E+01 0.  1.
         25    2    1    2    0    0  0.00000000000E+00  0.00000000000E+00  0.30100473973E+03  0.32592611855E+03  0.12499592559E+03 0.  0.
    9000005    1    3    3    0    0  0.61207027997E+02 -0.75242883075E+01  0.17684711397E+03  0.18729339794E+03  0.10000000000E+01 0.  0.
    9000005    1    3    3    0    0 -0.61207027997E+02  0.75242883075E+01  0.12415762576E+03  0.13863272061E+03  0.10000000000E+01 0.  0.
<mgrwt>
<rscale>  0 0.12499593E+03</rscale>
<asrwt>0</asrwt>
<pdfrwt beam="1">  1        4 0.48225449E-01 0.12499593E+03</pdfrwt>
<pdfrwt beam="2">  1       -4 0.19170292E-02 0.12499593E+03</pdfrwt>
<totfact> 0.72463334E+03</totfact>
</mgrwt>
</event>
<event>
 5    1  0.3188180E-002  0.1249996E+03  0.7818608E-02  0.1235070E+00
         -4   -1    0    0    0  501 -0.00000000000E+00  0.00000000000E+00  0.13351032314E+03  0.13351636336E+03  0.12700000000E+01 0. -1.
          4   -1    0    0  501    0  0.00000000000E+00 -0.00000000000E+00 -0.29237364375E+02  0.29264934232E+02  0.12700000000E+01 0. -1.
         25    2    1    2    0    0  0.00000000000E+00  0.00000000000E+00  0.10427295876E+03  0.16278129759E+03  0.12499960366E+03 0.  0.
    9000005    1    3    3    0    0  0.28944992678E+02 -0.29725747087E+02 -0.87192628785E+01  0.42408232528E+02  0.10000000000E+01 0.  0.
    9000005    1    3    3    0    0 -0.28944992678E+02  0.29725747087E+02  0.11299222164E+03  0.12037306506E+03  0.10000000000E+01 0.  0.
<mgrwt>
<rscale>  0 0.12499960E+03</rscale>
<asrwt>0</asrwt>
<pdfrwt beam="2">  1        4 0.45006414E-02 0.12499960E+03</pdfrwt>
<pdfrwt beam="1">  1       -4 0.20542635E-01 0.12499960E+03</pdfrwt>
<totfact> 0.96810099E+03</totfact>
</mgrwt>
</event>
<event>
 5    1  0.3188180E-002  0.1250000E+03  0.7818608E-02  0.1235069E+00
         -4   -1    0    0    0  501 -0.00000000000E+00  0.00000000000E+00  0.12058818338E+03  0.12059487083E+03  0.12700000000E+01 0.  1.
          4   -1    0    0  501    0  0.00000000000E+00 -0.00000000000E+00 -0.32373264143E+02  0.32398165554E+02  0.12700000000E+01 0.  1.
         25    2    1    2    0    0  0.00000000000E+00  0.00000000000E+00  0.88214919240E+02  0.15299303639E+03  0.12499998883E+03 0.  0.
    9000005    1    3    3    0    0  0.27228471549E+02 -0.49782530047E+02  0.76154226128E+02  0.94974502462E+02  0.10000000000E+01 0.  0.
    9000005    1    3    3    0    0 -0.27228471549E+02  0.49782530047E+02  0.12060693112E+02  0.58018533927E+02  0.10000000000E+01 0.  0.
<mgrwt>
<rscale>  0 0.12499999E+03</rscale>
<asrwt>0</asrwt>
<pdfrwt beam="2">  1        4 0.49829322E-02 0.12499999E+03</pdfrwt>
<pdfrwt beam="1">  1       -4 0.18554458E-01 0.12499999E+03</pdfrwt>
<totfact> 0.98710417E+03</totfact>
</mgrwt>
</event>
<event>
 5    1  0.3188180E-002  0.1249871E+03  0.7818608E-02  0.1235090E+00
         -4   -1    0    0    0  501 -0.00000000000E+00  0.00000000000E+00  0.19186219879E+02  0.19228206709E+02  0.12700000000E+01 0.  1.
          4   -1    0    0  501    0  0.00000000000E+00 -0.00000000000E+00 -0.20328800939E+03  0.20329197639E+03  0.12700000000E+01 0.  1.
         25    2    1    2    0    0  0.00000000000E+00  0.00000000000E+00 -0.18410178951E+03  0.22252018310E+03  0.12498705126E+03 0.  0.
    9000005    1    3    3    0    0 -0.27859459240E+02  0.51265074973E+02 -0.13186793813E+03  0.14420267157E+03  0.10000000000E+01 0.  0.
    9000005    1    3    3    0    0  0.27859459240E+02 -0.51265074973E+02 -0.52233851380E+02  0.78317511523E+02  0.10000000000E+01 0.  0.
<mgrwt>
<rscale>  0 0.12498705E+03</rscale>
<asrwt>0</asrwt>
<pdfrwt beam="2">  1        4 0.31278612E-01 0.12498705E+03</pdfrwt>
<pdfrwt beam="1">  1       -4 0.29552612E-02 0.12498705E+03</pdfrwt>
<totfact> 0.86496138E+03</totfact>
</mgrwt>
</event>
<event>
 5    1  0.3188180E-002  0.1250026E+03  0.7818608E-02  0.1235065E+00
         -4   -1    0    0    0  501 -0.00000000000E+00  0.00000000000E+00  0.48587986680E+02  0.48604581570E+02  0.12700000000E+01 0. -1.
          4   -1    0    0  501    0  0.00000000000E+00 -0.00000000000E+00 -0.80363435267E+02  0.80373469677E+02  0.12700000000E+01 0. -1.
         25    2    1    2    0    0  0.00000000000E+00  0.00000000000E+00 -0.31775448588E+02  0.12897805125E+03  0.12500263425E+03 0.  0.
    9000005    1    3    3    0    0  0.21066669767E+02  0.53121988536E+02  0.10208203175E+02  0.58059948787E+02  0.10000000000E+01 0.  0.
    9000005    1    3    3    0    0 -0.21066669767E+02 -0.53121988536E+02 -0.41983651763E+02  0.70918102460E+02  0.10000000000E+01 0.  0.
<mgrwt>
<rscale>  0 0.12500263E+03</rscale>
<asrwt>0</asrwt>
<pdfrwt beam="2">  1        4 0.12365654E-01 0.12500263E+03</pdfrwt>
<pdfrwt beam="1">  1       -4 0.74771233E-02 0.12500263E+03</pdfrwt>
<totfact> 0.10365802E+04</totfact>
</mgrwt>
</event>
<event>
 5    1  0.3188180E-002  0.1250030E+03  0.7818608E-02  0.1235065E+00
         -4   -1    0    0    0  501 -0.00000000000E+00  0.00000000000E+00  0.43883643039E+02  0.43902016199E+02  0.12700000000E+01 0. -1.
          4   -1    0    0  501    0  0.00000000000E+00 -0.00000000000E+00 -0.88976525848E+02  0.88985589013E+02  0.12700000000E+01 0. -1.
         25    2    1    2    0    0  0.00000000000E+00  0.00000000000E+00 -0.45092882809E+02  0.13288760521E+03  0.12500299012E+03 0.  0.
    9000005    1    3    3    0    0 -0.62121179769E+02  0.53871467399E+01 -0.18115245332E+02  0.64940160450E+02  0.10000000000E+01 0.  0.
    9000005    1    3    3    0    0  0.62121179769E+02 -0.53871467399E+01 -0.26977637477E+02  0.67947444762E+02  0.10000000000E+01 0.  0.
<mgrwt>
<rscale>  0 0.12500299E+03</rscale>
<asrwt>0</asrwt>
<pdfrwt beam="2">  1        4 0.13690807E-01 0.12500299E+03</pdfrwt>
<pdfrwt beam="1">  1       -4 0.67534402E-02 0.12500299E+03</pdfrwt>
<totfact> 0.10282096E+04</totfact>
</mgrwt>
</event>
<event>
 4    1  0.3188180E-002  0.1248803E+03  0.7818608E-02  0.1235257E+00
          4   -1    0    0  501    0  0.00000000000E+00  0.00000000000E+00  0.16736143772E+03  0.16736625627E+03  0.12700000000E+01 0. -1.
         -4   -1    0    0    0  501 -0.00000000000E+00 -0.00000000000E+00 -0.23273045370E+02  0.23307671287E+02  0.12700000000E+01 0. -1.
    9000005    1    1    2    0    0 -0.23883460559E+02  0.29475563558E+02  0.14775124073E+03  0.15254723095E+03  0.10000000000E+01 0.  0.
    9000005    1    1    2    0    0  0.23883460559E+02 -0.29475563558E+02 -0.36628483740E+01  0.38126696599E+02  0.10000000000E+01 0.  0.
<mgrwt>
<rscale>  0 0.12488027E+03</rscale>
<asrwt>0</asrwt>
<pdfrwt beam="1">  1        4 0.25750947E-01 0.12488027E+03</pdfrwt>
<pdfrwt beam="2">  1       -4 0.35835029E-02 0.12488027E+03</pdfrwt>
<totfact> 0.91976618E+03</totfact>
</mgrwt>
</event>
<event>
 5    1  0.3188180E-002  0.1249993E+03  0.7818608E-02  0.1235070E+00
         -4   -1    0    0    0  501 -0.00000000000E+00  0.00000000000E+00  0.51690908685E+02  0.51706507721E+02  0.12700000000E+01 0.  1.
          4   -1    0    0  501    0  0.00000000000E+00 -0.00000000000E+00 -0.75536156164E+02  0.75546831754E+02  0.12700000000E+01 0.  1.
         25    2    1    2    0    0  0.00000000000E+00  0.00000000000E+00 -0.23845247479E+02  0.12725333947E+03  0.12499926632E+03 0.  0.
    9000005    1    3    3    0    0 -0.49836524651E+02 -0.36513429042E+02 -0.23566663882E+01  0.61834161805E+02  0.10000000000E+01 0.  0.
    9000005    1    3    3    0    0  0.49836524651E+02  0.36513429042E+02 -0.21488581090E+02  0.65419177670E+02  0.10000000000E+01 0.  0.
<mgrwt>
<rscale>  0 0.12499927E+03</rscale>
<asrwt>0</asrwt>
<pdfrwt beam="2">  1        4 0.11622968E-01 0.12499927E+03</pdfrwt>
<pdfrwt beam="1">  1       -4 0.79544686E-02 0.12499927E+03</pdfrwt>
<totfact> 0.10403819E+04</totfact>
</mgrwt>
</event>
<event>
 5    1  0.3188180E-002  0.1249947E+03  0.7818608E-02  0.1235078E+00
         -4   -1    0    0    0  501 -0.00000000000E+00  0.00000000000E+00  0.46135315592E+02  0.46152792383E+02  0.12700000000E+01 0. -1.
          4   -1    0    0  501    0  0.00000000000E+00 -0.00000000000E+00 -0.84623943152E+02  0.84633472424E+02  0.12700000000E+01 0. -1.
         25    2    1    2    0    0  0.00000000000E+00  0.00000000000E+00 -0.38488627560E+02  0.13078626481E+03  0.12499469033E+03 0.  0.
    9000005    1    3    3    0    0  0.10574903603E+02 -0.61582066233E+02 -0.18345022890E+02  0.65128483266E+02  0.10000000000E+01 0.  0.
    9000005    1    3    3    0    0 -0.10574903603E+02  0.61582066233E+02 -0.20143604671E+02  0.65657781541E+02  0.10000000000E+01 0.  0.
<mgrwt>
<rscale>  0 0.12499469E+03</rscale>
<asrwt>0</asrwt>
<pdfrwt beam="2">  1        4 0.13021146E-01 0.12499469E+03</pdfrwt>
<pdfrwt beam="1">  1       -4 0.70998183E-02 0.12499469E+03</pdfrwt>
<totfact> 0.10328911E+04</totfact>
</mgrwt>
</event>
<event>
 5    1  0.3188180E-002  0.1250041E+03  0.7818608E-02  0.1235063E+00
         -4   -1    0    0    0  501 -0.00000000000E+00  0.00000000000E+00  0.11250102928E+04  0.11250110097E+04  0.12700000000E+01 0. -1.
          4   -1    0    0  501    0  0.00000000000E+00 -0.00000000000E+00 -0.33555524418E+01  0.35878450621E+01  0.12700000000E+01 0. -1.
         25    2    1    2    0    0  0.00000000000E+00  0.00000000000E+00  0.11216547404E+04  0.11285988547E+04  0.12500407298E+03 0.  0.
    9000005    1    3    3    0    0  0.10986366702E+02  0.12407122302E+02  0.11048546148E+04  0.11049793467E+04  0.10000000000E+01 0.  0.
    9000005    1    3    3    0    0 -0.10986366702E+02 -0.12407122302E+02  0.16800125626E+02  0.23619508000E+02  0.10000000000E+01 0.  0.
<mgrwt>
<rscale>  0 0.12500407E+03</rscale>
<asrwt>0</asrwt>
<pdfrwt beam="2">  1        4 0.53416287E-03 0.12500407E+03</pdfrwt>
<pdfrwt beam="1">  1       -4 0.17309636E+00 0.12500407E+03</pdfrwt>
<totfact> 0.26658733E+03</totfact>
</mgrwt>
</event>
<event>
 5    1  0.3188180E-002  0.1250005E+03  0.7818608E-02  0.1235069E+00
         -4   -1    0    0    0  501 -0.00000000000E+00  0.00000000000E+00  0.14424077062E+02  0.14479879112E+02  0.12700000000E+01 0. -1.
          4   -1    0    0  501    0  0.00000000000E+00 -0.00000000000E+00 -0.27023639279E+03  0.27023937702E+03  0.12700000000E+01 0. -1.
         25    2    1    2    0    0  0.00000000000E+00  0.00000000000E+00 -0.25581231573E+03  0.28471925613E+03  0.12500045572E+03 0.  0.
    9000005    1    3    3    0    0 -0.34198198647E+02 -0.52059729847E+02 -0.13941862938E+03  0.15270326283E+03  0.10000000000E+01 0.  0.
    9000005    1    3    3    0    0  0.34198198647E+02  0.52059729847E+02 -0.11639368636E+03  0.13201599330E+03  0.10000000000E+01 0.  0.
<mgrwt>
<rscale>  0 0.12500046E+03</rscale>
<asrwt>0</asrwt>
<pdfrwt beam="2">  1        4 0.41579348E-01 0.12500046E+03</pdfrwt>
<pdfrwt beam="1">  1       -4 0.22236110E-02 0.12500046E+03</pdfrwt>
<totfact> 0.77555715E+03</totfact>
</mgrwt>
</event>
<event>
 5    1  0.3188180E-002  0.1249989E+03  0.7818608E-02  0.1235071E+00
         -4   -1    0    0    0  501 -0.00000000000E+00  0.00000000000E+00  0.79902903525E+01  0.80905895902E+01  0.12700000000E+01 0.  1.
          4   -1    0    0  501    0  0.00000000000E+00 -0.00000000000E+00 -0.48571607502E+03  0.48571773535E+03  0.12700000000E+01 0.  1.
         25    2    1    2    0    0  0.00000000000E+00  0.00000000000E+00 -0.47772578466E+03  0.49380832494E+03  0.12499894577E+03 0.  0.
    9000005    1    3    3    0    0  0.10573034335E+02 -0.54332610891E+02 -0.12427371020E+03  0.13604696508E+03  0.10000000000E+01 0.  0.
    9000005    1    3    3    0    0 -0.10573034335E+02  0.54332610891E+02 -0.35345207446E+03  0.35776135985E+03  0.10000000000E+01 0.  0.
<mgrwt>
<rscale>  0 0.12499895E+03</rscale>
<asrwt>0</asrwt>
<pdfrwt beam="2">  1        4 0.74733370E-01 0.12499895E+03</pdfrwt>
<pdfrwt beam="1">  1       -4 0.12371189E-02 0.12499895E+03</pdfrwt>
<totfact> 0.56349301E+03</totfact>
</mgrwt>
</event>
<event>
 5    1  0.3188180E-002  0.1249880E+03  0.7818608E-02  0.1235088E+00
         -4   -1    0    0    0  501 -0.00000000000E+00  0.00000000000E+00  0.37512935498E+02  0.37534427260E+02  0.12700000000E+01 0. -1.
          4   -1    0    0  501    0  0.00000000000E+00 -0.00000000000E+00 -0.10405556004E+03  0.10406330994E+03  0.12700000000E+01 0. -1.
         25    2    1    2    0    0  0.00000000000E+00  0.00000000000E+00 -0.66542624543E+02  0.14159773720E+03  0.12498799262E+03 0.  0.
    9000005    1    3    3    0    0 -0.64423899444E+01  0.11790649947E+02  0.35862649127E+02  0.38309964980E+02  0.10000000000E+01 0.  0.
    9000005    1    3    3    0    0  0.64423899444E+01 -0.11790649947E+02 -0.10240527367E+03  0.10328777222E+03  0.10000000000E+01 0.  0.
<mgrwt>
<rscale>  0 0.12498799E+03</rscale>
<asrwt>0</asrwt>
<pdfrwt beam="2">  1        4 0.16010797E-01 0.12498799E+03</pdfrwt>
<pdfrwt beam="1">  1       -4 0.57734702E-02 0.12498799E+03</pdfrwt>
<totfact> 0.10103311E+04</totfact>
</mgrwt>
</event>
<event>
 5    1  0.3188180E-002  0.1249985E+03  0.7818608E-02  0.1235072E+00
          4   -1    0    0  501    0  0.00000000000E+00  0.00000000000E+00  0.91607164385E+03  0.91607252418E+03  0.12700000000E+01 0. -1.
         -4   -1    0    0    0  501 -0.00000000000E+00 -0.00000000000E+00 -0.41685622262E+01  0.43577300322E+01  0.12700000000E+01 0. -1.
         25    2    1    2    0    0  0.00000000000E+00  0.00000000000E+00  0.91190308162E+03  0.92043025421E+03  0.12499849040E+03 0.  0.
    9000005    1    3    3    0    0 -0.20027068692E+02  0.33755941243E+02  0.97883343574E+02  0.10546419297E+03  0.10000000000E+01 0.  0.
    9000005    1    3    3    0    0  0.20027068692E+02 -0.33755941243E+02  0.81401973805E+03  0.81496606124E+03  0.10000000000E+01 0.  0.
<mgrwt>
<rscale>  0 0.12499849E+03</rscale>
<asrwt>0</asrwt>
<pdfrwt beam="1">  1        4 0.14094877E+00 0.12499849E+03</pdfrwt>
<pdfrwt beam="2">  1       -4 0.65593611E-03 0.12499849E+03</pdfrwt>
<totfact> 0.33390684E+03</totfact>
</mgrwt>
</event>
<event>
 5    1  0.3188180E-002  0.1250014E+03  0.7818608E-02  0.1235067E+00
         -4   -1    0    0    0  501 -0.00000000000E+00  0.00000000000E+00  0.12251665695E+04  0.12251672277E+04  0.12700000000E+01 0. -1.
          4   -1    0    0  501    0  0.00000000000E+00 -0.00000000000E+00 -0.30612646954E+01  0.33142482610E+01  0.12700000000E+01 0. -1.
         25    2    1    2    0    0  0.00000000000E+00  0.00000000000E+00  0.12221053048E+04  0.12284814760E+04  0.12500144335E+03 0.  0.
    9000005    1    3    3    0    0  0.56679604900E+02 -0.16385851978E+02  0.81348174631E+03  0.81561916685E+03  0.10000000000E+01 0.  0.
    9000005    1    3    3    0    0 -0.56679604900E+02  0.16385851978E+02  0.40862355850E+03  0.41286230915E+03  0.10000000000E+01 0.  0.
<mgrwt>
<rscale>  0 0.12500144E+03</rscale>
<asrwt>0</asrwt>
<pdfrwt beam="2">  1        4 0.49047444E-03 0.12500144E+03</pdfrwt>
<pdfrwt beam="1">  1       -4 0.18850678E+00 0.12500144E+03</pdfrwt>
<totfact> 0.23978420E+03</totfact>
</mgrwt>
</event>
<event>
 5    1  0.3188180E-002  0.1249997E+03  0.7818608E-02  0.1235070E+00
         -4   -1    0    0    0  501 -0.00000000000E+00  0.00000000000E+00  0.16922985653E+03  0.16923462188E+03  0.12700000000E+01 0.  1.
          4   -1    0    0  501    0  0.00000000000E+00 -0.00000000000E+00 -0.23059843274E+02  0.23094788846E+02  0.12700000000E+01 0.  1.
         25    2    1    2    0    0  0.00000000000E+00  0.00000000000E+00  0.14617001326E+03  0.19232941072E+03  0.12499971781E+03 0.  0.
    9000005    1    3    3    0    0 -0.52696502711E+02 -0.33846923301E+01  0.12450535686E+03  0.13524408094E+03  0.10000000000E+01 0.  0.
    9000005    1    3    3    0    0  0.52696502711E+02  0.33846923301E+01  0.21664656392E+02  0.57085329786E+02  0.10000000000E+01 0.  0.
<mgrwt>
<rscale>  0 0.12499972E+03</rscale>
<asrwt>0</asrwt>
<pdfrwt beam="2">  1        4 0.35507230E-02 0.12499972E+03</pdfrwt>
<pdfrwt beam="1">  1       -4 0.26038416E-01 0.12499972E+03</pdfrwt>
<totfact> 0.91444156E+03</totfact>
</mgrwt>
</event>
<event>
 5    1  0.3188180E-002  0.1249991E+03  0.7818608E-02  0.1235071E+00
          4   -1    0    0  501    0  0.00000000000E+00  0.00000000000E+00  0.80683701399E+01  0.81677106165E+01  0.12700000000E+01 0. -1.
         -4   -1    0    0    0  501 -0.00000000000E+00 -0.00000000000E+00 -0.48107415528E+03  0.48107583163E+03  0.12700000000E+01 0. -1.
         25    2    1    2    0    0  0.00000000000E+00  0.00000000000E+00 -0.47300578514E+03  0.48924354225E+03  0.12499908341E+03 0.  0.
    9000005    1    3    3    0    0  0.46240157282E+02 -0.10427484640E+01 -0.40098091431E+03  0.40364084668E+03  0.10000000000E+01 0.  0.
    9000005    1    3    3    0    0 -0.46240157282E+02  0.10427484640E+01 -0.72024870835E+02  0.85602695569E+02  0.10000000000E+01 0.  0.
<mgrwt>
<rscale>  0 0.12499908E+03</rscale>
<asrwt>0</asrwt>
<pdfrwt beam="1">  1        4 0.12490586E-02 0.12499908E+03</pdfrwt>
<pdfrwt beam="2">  1       -4 0.74019157E-01 0.12499908E+03</pdfrwt>
<totfact> 0.56709854E+03</totfact>
</mgrwt>
</event>
<event>
 5    1  0.3188180E-002  0.1250038E+03  0.7818608E-02  0.1235063E+00
         -4   -1    0    0    0  501 -0.00000000000E+00  0.00000000000E+00  0.47760473417E+02  0.47777355735E+02  0.12700000000E+01 0. -1.
          4   -1    0    0  501    0  0.00000000000E+00 -0.00000000000E+00 -0.81757028393E+02  0.81766891782E+02  0.12700000000E+01 0. -1.
         25    2    1    2    0    0  0.00000000000E+00  0.00000000000E+00 -0.33996554976E+02  0.12954424752E+03  0.12500378520E+03 0.  0.
    9000005    1    3    3    0    0 -0.55619657107E+02 -0.27681947857E+02 -0.24000175212E+02  0.66609645729E+02  0.10000000000E+01 0.  0.
    9000005    1    3    3    0    0  0.55619657107E+02  0.27681947857E+02 -0.99963797639E+01  0.62934601788E+02  0.10000000000E+01 0.  0.
<mgrwt>
<rscale>  0 0.12500379E+03</rscale>
<asrwt>0</asrwt>
<pdfrwt beam="2">  1        4 0.12580062E-01 0.12500379E+03</pdfrwt>
<pdfrwt beam="1">  1       -4 0.73498225E-02 0.12500379E+03</pdfrwt>
<totfact> 0.10353382E+04</totfact>
</mgrwt>
</event>
<event>
 4    1  0.3188180E-002  0.1343662E+03  0.7818608E-02  0.1221117E+00
          4   -1    0    0  501    0  0.00000000000E+00  0.00000000000E+00  0.93307262649E+01  0.94167591362E+01  0.12700000000E+01 0. -1.
         -4   -1    0    0    0  501 -0.00000000000E+00 -0.00000000000E+00 -0.48142524781E+03  0.48142692294E+03  0.12700000000E+01 0. -1.
    9000005    1    1    2    0    0 -0.56202091588E+02 -0.19711255704E+02 -0.34954786971E+03  0.35458697371E+03  0.10000000000E+01 0.  0.
    9000005    1    1    2    0    0  0.56202091588E+02  0.19711255704E+02 -0.12254665183E+03  0.13625670837E+03  0.10000000000E+01 0.  0.
<mgrwt>
<rscale>  0 0.13436623E+03</rscale>
<asrwt>0</asrwt>
<pdfrwt beam="1">  1        4 0.14422435E-02 0.13436623E+03</pdfrwt>
<pdfrwt beam="2">  1       -4 0.74072150E-01 0.13436623E+03</pdfrwt>
<totfact> 0.46343981E+03</totfact>
</mgrwt>
</event>
<event>
 5    1  0.3188180E-002  0.1249980E+03  0.7818608E-02  0.1235072E+00
         -4   -1    0    0    0  501 -0.00000000000E+00  0.00000000000E+00  0.54546322646E+01  0.56005279342E+01  0.12700000000E+01 0. -1.
          4   -1    0    0  501    0  0.00000000000E+00 -0.00000000000E+00 -0.70651410805E+03  0.70651524950E+03  0.12700000000E+01 0. -1.
         25    2    1    2    0    0  0.00000000000E+00  0.00000000000E+00 -0.70105947579E+03  0.71211577744E+03  0.12499796750E+03 0.  0.
    9000005    1    3    3    0    0  0.27597587787E+02  0.55365690484E+02 -0.30017104439E+03  0.30648106373E+03  0.10000000000E+01 0.  0.
    9000005    1    3    3    0    0 -0.27597587787E+02 -0.55365690484E+02 -0.40088843140E+03  0.40563471371E+03  0.10000000000E+01 0.  0.
<mgrwt>
<rscale>  0 0.12499797E+03</rscale>
<asrwt>0</asrwt>
<pdfrwt beam="2">  1        4 0.10870572E+00 0.12499797E+03</pdfrwt>
<pdfrwt beam="1">  1       -4 0.85048530E-03 0.12499797E+03</pdfrwt>
<totfact> 0.42456704E+03</totfact>
</mgrwt>
</event>
<event>
 5    1  0.3188180E-002  0.1250058E+03  0.7818608E-02  0.1235060E+00
          4   -1    0    0  501    0  0.00000000000E+00  0.00000000000E+00  0.58880955883E+02  0.58894650570E+02  0.12700000000E+01 0. -1.
         -4   -1    0    0    0  501 -0.00000000000E+00 -0.00000000000E+00 -0.66320157938E+02  0.66332316776E+02  0.12700000000E+01 0. -1.
         25    2    1    2    0    0  0.00000000000E+00  0.00000000000E+00 -0.74392020545E+01  0.12522696735E+03  0.12500580636E+03 0.  0.
    9000005    1    3    3    0    0  0.51330321148E+02 -0.10639494094E+02  0.30364294493E+02  0.60588704259E+02  0.10000000000E+01 0.  0.
    9000005    1    3    3    0    0 -0.51330321148E+02  0.10639494094E+02 -0.37803496547E+02  0.64638263087E+02  0.10000000000E+01 0.  0.
<mgrwt>
<rscale>  0 0.12500581E+03</rscale>
<asrwt>0</asrwt>
<pdfrwt beam="1">  1        4 0.90605974E-02 0.12500581E+03</pdfrwt>
<pdfrwt beam="2">  1       -4 0.10205090E-01 0.12500581E+03</pdfrwt>
<totfact> 0.10446564E+04</totfact>
</mgrwt>
</event>
<event>
 5    1  0.3188180E-002  0.1250029E+03  0.7818608E-02  0.1235065E+00
          4   -1    0    0  501    0  0.00000000000E+00  0.00000000000E+00  0.15069422467E+02  0.15122843432E+02  0.12700000000E+01 0.  1.
         -4   -1    0    0    0  501 -0.00000000000E+00 -0.00000000000E+00 -0.25871547661E+03  0.25871859372E+03  0.12700000000E+01 0.  1.
         25    2    1    2    0    0  0.00000000000E+00  0.00000000000E+00 -0.24364605414E+03  0.27384143715E+03  0.12500293198E+03 0.  0.
    9000005    1    3    3    0    0 -0.17561128080E+01 -0.60686673924E+02 -0.89368640797E+02  0.10804494566E+03  0.10000000000E+01 0.  0.
    9000005    1    3    3    0    0  0.17561128080E+01  0.60686673924E+02 -0.15427741335E+03  0.16579649150E+03  0.10000000000E+01 0.  0.
<mgrwt>
<rscale>  0 0.12500293E+03</rscale>
<asrwt>0</asrwt>
<pdfrwt beam="1">  1        4 0.23227220E-02 0.12500293E+03</pdfrwt>
<pdfrwt beam="2">  1       -4 0.39806727E-01 0.12500293E+03</pdfrwt>
<totfact> 0.78996687E+03</totfact>
</mgrwt>
</event>
<event>
 5    1  0.3188180E-002  0.1249978E+03  0.7818608E-02  0.1235073E+00
         -4   -1    0    0    0  501 -0.00000000000E+00  0.00000000000E+00  0.46252668892E+03  0.46252843249E+03  0.12700000000E+01 0.  1.
          4   -1    0    0  501    0  0.00000000000E+00 -0.00000000000E+00 -0.83956448492E+01  0.84911573083E+01  0.12700000000E+01 0.  1.
         25    2    1    2    0    0  0.00000000000E+00  0.00000000000E+00  0.45413104407E+03  0.47101958980E+03  0.12499779513E+03 0.  0.
    9000005    1    3    3    0    0  0.50885063240E+02  0.28808796015E+02  0.14400412041E+03  0.15542658422E+03  0.10000000000E+01 0.  0.
    9000005    1    3    3    0    0 -0.50885063240E+02 -0.28808796015E+02  0.31012692367E+03  0.31559300558E+03  0.10000000000E+01 0.  0.
<mgrwt>
<rscale>  0 0.12499780E+03</rscale>
<asrwt>0</asrwt>
<pdfrwt beam="2">  1        4 0.12991188E-02 0.12499780E+03</pdfrwt>
<pdfrwt beam="1">  1       -4 0.71165442E-01 0.12499780E+03</pdfrwt>
<totfact> 0.58187972E+03</totfact>
</mgrwt>
</event>
<event>
 5    1  0.3188180E-002  0.1249999E+03  0.7818608E-02  0.1235069E+00
         -4   -1    0    0    0  501 -0.00000000000E+00  0.00000000000E+00  0.14609953731E+03  0.14610505707E+03  0.12700000000E+01 0.  1.
          4   -1    0    0  501    0  0.00000000000E+00 -0.00000000000E+00 -0.26715777238E+02  0.26745946486E+02  0.12700000000E+01 0.  1.
         25    2    1    2    0    0  0.00000000000E+00  0.00000000000E+00  0.11938376007E+03  0.17285100356E+03  0.12499994905E+03 0.  0.
    9000005    1    3    3    0    0  0.19616439818E+02 -0.22978524809E+02  0.13533580118E+03  0.13867082027E+03  0.10000000000E+01 0.  0.
    9000005    1    3    3    0    0 -0.19616439818E+02  0.22978524809E+02 -0.15952041113E+02  0.34180183283E+02  0.10000000000E+01 0.  0.
<mgrwt>
<rscale>  0 0.12499995E+03</rscale>
<asrwt>0</asrwt>
<pdfrwt beam="2">  1        4 0.41128649E-02 0.12499995E+03</pdfrwt>
<pdfrwt beam="1">  1       -4 0.22479597E-01 0.12499995E+03</pdfrwt>
<totfact> 0.94920013E+03</totfact>
</mgrwt>
</event>
<event>
 5    1  0.3188180E-002  0.1250006E+03  0.7818608E-02  0.1235068E+00
         -4   -1    0    0    0  501 -0.00000000000E+00  0.00000000000E+00  0.60342512246E+02  0.60355875307E+02  0.12700000000E+01 0. -1.
          4   -1    0    0  501    0  0.00000000000E+00 -0.00000000000E+00 -0.64708442089E+02  0.64720903714E+02  0.12700000000E+01 0. -1.
         25    2    1    2    0    0  0.00000000000E+00  0.00000000000E+00 -0.43659298432E+01  0.12507677902E+03  0.12500055723E+03 0.  0.
    9000005    1    3    3    0    0 -0.61363763374E+01 -0.62047054215E+02  0.20377555325E+01  0.62391061049E+02  0.10000000000E+01 0.  0.
    9000005    1    3    3    0    0  0.61363763374E+01  0.62047054215E+02 -0.64036853757E+01  0.62685717972E+02  0.10000000000E+01 0.  0.
<mgrwt>
<rscale>  0 0.12500056E+03</rscale>
<asrwt>0</asrwt>
<pdfrwt beam="2">  1        4 0.99571315E-02 0.12500056E+03</pdfrwt>
<pdfrwt beam="1">  1       -4 0.92854499E-02 0.12500056E+03</pdfrwt>
<totfact> 0.10451064E+04</totfact>
</mgrwt>
</event>
<event>
 5    1  0.3188180E-002  0.1250010E+03  0.7818608E-02  0.1235068E+00
          4   -1    0    0  501    0  0.00000000000E+00  0.00000000000E+00  0.18930631244E+02  0.18973183689E+02  0.12700000000E+01 0. -1.
         -4   -1    0    0    0  501 -0.00000000000E+00 -0.00000000000E+00 -0.20607253097E+03  0.20607644436E+03  0.12700000000E+01 0. -1.
         25    2    1    2    0    0  0.00000000000E+00  0.00000000000E+00 -0.18714189973E+03  0.22504962805E+03  0.12500097781E+03 0.  0.
    9000005    1    3    3    0    0 -0.24289695795E+02  0.22536489484E+02 -0.18896454934E+03  0.19185015920E+03  0.10000000000E+01 0.  0.
    9000005    1    3    3    0    0  0.24289695795E+02 -0.22536489484E+02  0.18226496118E+01  0.33199468846E+02  0.10000000000E+01 0.  0.
<mgrwt>
<rscale>  0 0.12500098E+03</rscale>
<asrwt>0</asrwt>
<pdfrwt beam="1">  1        4 0.29159792E-02 0.12500098E+03</pdfrwt>
<pdfrwt beam="2">  1       -4 0.31707039E-01 0.12500098E+03</pdfrwt>
<totfact> 0.86073687E+03</totfact>
</mgrwt>
</event>
<event>
 5    1  0.3188180E-002  0.1249958E+03  0.7818608E-02  0.1235076E+00
          4   -1    0    0  501    0  0.00000000000E+00  0.00000000000E+00  0.54224656591E+01  0.55692040566E+01  0.12700000000E+01 0.  1.
         -4   -1    0    0    0  501 -0.00000000000E+00 -0.00000000000E+00 -0.71056990492E+03  0.71057103985E+03  0.12700000000E+01 0.  1.
         25    2    1    2    0    0  0.00000000000E+00  0.00000000000E+00 -0.70514743926E+03  0.71614024391E+03  0.12499575133E+03 0.  0.
    9000005    1    3    3    0    0 -0.28320905283E+02  0.90273892371E+01 -0.66749946423E+03  0.66816173355E+03  0.10000000000E+01 0.  0.
    9000005    1    3    3    0    0  0.28320905283E+02 -0.90273892371E+01 -0.37647975031E+02  0.47978510361E+02  0.10000000000E+01 0.  0.
<mgrwt>
<rscale>  0 0.12499575E+03</rscale>
<asrwt>0</asrwt>
<pdfrwt beam="1">  1        4 0.84560092E-03 0.12499575E+03</pdfrwt>
<pdfrwt beam="2">  1       -4 0.10932975E+00 0.12499575E+03</pdfrwt>
<totfact> 0.42252206E+03</totfact>
</mgrwt>
</event>
<event>
 5    1  0.3188180E-002  0.1250029E+03  0.7818608E-02  0.1235065E+00
         -4   -1    0    0    0  501 -0.00000000000E+00  0.00000000000E+00  0.16284908072E+03  0.16285403278E+03  0.12700000000E+01 0. -1.
          4   -1    0    0  501    0  0.00000000000E+00 -0.00000000000E+00 -0.23965931471E+02  0.23999557731E+02  0.12700000000E+01 0. -1.
         25    2    1    2    0    0  0.00000000000E+00  0.00000000000E+00  0.13888314925E+03  0.18685359051E+03  0.12500294053E+03 0.  0.
    9000005    1    3    3    0    0  0.17247724403E+02  0.40769682586E+02  0.13537845485E+03  0.14243586997E+03  0.10000000000E+01 0.  0.
    9000005    1    3    3    0    0 -0.17247724403E+02 -0.40769682586E+02  0.35046943995E+01  0.44417720542E+02  0.10000000000E+01 0.  0.
<mgrwt>
<rscale>  0 0.12500294E+03</rscale>
<asrwt>0</asrwt>
<pdfrwt beam="2">  1        4 0.36900339E-02 0.12500294E+03</pdfrwt>
<pdfrwt beam="1">  1       -4 0.25056672E-01 0.12500294E+03</pdfrwt>
<totfact> 0.92391592E+03</totfact>
</mgrwt>
</event>
<event>
 5    1  0.3188180E-002  0.1249949E+03  0.7818608E-02  0.1235077E+00
          4   -1    0    0  501    0  0.00000000000E+00  0.00000000000E+00  0.12444323992E+02  0.12508960773E+02  0.12700000000E+01 0. -1.
         -4   -1    0    0    0  501 -0.00000000000E+00 -0.00000000000E+00 -0.31299351276E+03  0.31299608932E+03  0.12700000000E+01 0. -1.
         25    2    1    2    0    0  0.00000000000E+00  0.00000000000E+00 -0.30054918877E+03  0.32550505009E+03  0.12499489097E+03 0.  0.
    9000005    1    3    3    0    0 -0.32669999472E+02 -0.46397247981E+02 -0.82122663290E+02  0.99825674612E+02  0.10000000000E+01 0.  0.
    9000005    1    3    3    0    0  0.32669999472E+02  0.46397247981E+02 -0.21842652548E+03  0.22567937548E+03  0.10000000000E+01 0.  0.
<mgrwt>
<rscale>  0 0.12499489E+03</rscale>
<asrwt>0</asrwt>
<pdfrwt beam="1">  1        4 0.19196819E-02 0.12499489E+03</pdfrwt>
<pdfrwt beam="2">  1       -4 0.48158012E-01 0.12499489E+03</pdfrwt>
<totfact> 0.72514334E+03</totfact>
</mgrwt>
</event>
<event>
 5    1  0.3188180E-002  0.1249997E+03  0.7818608E-02  0.1235070E+00
          4   -1    0    0  501    0  0.00000000000E+00  0.00000000000E+00  0.65704450741E+02  0.65716723497E+02  0.12700000000E+01 0.  1.
         -4   -1    0    0    0  501 -0.00000000000E+00 -0.00000000000E+00 -0.59426915221E+02  0.59440484122E+02  0.12700000000E+01 0.  1.
         25    2    1    2    0    0  0.00000000000E+00  0.00000000000E+00  0.62775355202E+01  0.12515720762E+03  0.12499967667E+03 0.  0.
    9000005    1    3    3    0    0  0.37989291841E+02  0.46415719076E+02 -0.14422564095E+02  0.61697776516E+02  0.10000000000E+01 0.  0.
    9000005    1    3    3    0    0 -0.37989291841E+02 -0.46415719076E+02  0.20700099615E+02  0.63459431103E+02  0.10000000000E+01 0.  0.
<mgrwt>
<rscale>  0 0.12499968E+03</rscale>
<asrwt>0</asrwt>
<pdfrwt beam="1">  1        4 0.10110365E-01 0.12499968E+03</pdfrwt>
<pdfrwt beam="2">  1       -4 0.91445902E-02 0.12499968E+03</pdfrwt>
<totfact> 0.10449525E+04</totfact>
</mgrwt>
</event>
<event>
 5    1  0.3188180E-002  0.1250019E+03  0.7818608E-02  0.1235066E+00
         -4   -1    0    0    0  501 -0.00000000000E+00  0.00000000000E+00  0.88188656518E+01  0.89098423883E+01  0.12700000000E+01 0.  1.
          4   -1    0    0  501    0  0.00000000000E+00 -0.00000000000E+00 -0.44059084764E+03  0.44059267802E+03  0.12700000000E+01 0.  1.
         25    2    1    2    0    0  0.00000000000E+00  0.00000000000E+00 -0.43177198199E+03  0.44950252041E+03  0.12500188568E+03 0.  0.
    9000005    1    3    3    0    0  0.19118681632E+02 -0.37304821508E+01 -0.42941272033E+03  0.42985546974E+03  0.10000000000E+01 0.  0.
    9000005    1    3    3    0    0 -0.19118681632E+02  0.37304821508E+01 -0.23592616606E+01  0.19647050670E+02  0.10000000000E+01 0.  0.
<mgrwt>
<rscale>  0 0.12500189E+03</rscale>
<asrwt>0</asrwt>
<pdfrwt beam="2">  1        4 0.67790329E-01 0.12500189E+03</pdfrwt>
<pdfrwt beam="1">  1       -4 0.13638879E-02 0.12500189E+03</pdfrwt>
<totfact> 0.60004430E+03</totfact>
</mgrwt>
</event>
<event>
 5    1  0.3188180E-002  0.1249997E+03  0.7818608E-02  0.1235070E+00
          4   -1    0    0  501    0  0.00000000000E+00  0.00000000000E+00  0.10502476567E+02  0.10578984547E+02  0.12700000000E+01 0.  1.
         -4   -1    0    0    0  501 -0.00000000000E+00 -0.00000000000E+00 -0.37050689059E+03  0.37050906720E+03  0.12700000000E+01 0.  1.
         25    2    1    2    0    0  0.00000000000E+00  0.00000000000E+00 -0.36000441403E+03  0.38108805175E+03  0.12499970026E+03 0.  0.
    9000005    1    3    3    0    0  0.15114282478E+02 -0.54842552391E+02 -0.10114221272E+03  0.11604694861E+03  0.10000000000E+01 0.  0.
    9000005    1    3    3    0    0 -0.15114282478E+02  0.54842552391E+02 -0.25886220130E+03  0.26504110314E+03  0.10000000000E+01 0.  0.
<mgrwt>
<rscale>  0 0.12499970E+03</rscale>
<asrwt>0</asrwt>
<pdfrwt beam="1">  1        4 0.16218186E-02 0.12499970E+03</pdfrwt>
<pdfrwt beam="2">  1       -4 0.57007103E-01 0.12499970E+03</pdfrwt>
<totfact> 0.66435099E+03</totfact>
</mgrwt>
</event>
<event>
 5    1  0.3188180E-002  0.1249966E+03  0.7818608E-02  0.1235075E+00
          4   -1    0    0  501    0  0.00000000000E+00  0.00000000000E+00  0.81489351310E+01  0.82473052429E+01  0.12700000000E+01 0. -1.
         -4   -1    0    0    0  501 -0.00000000000E+00 -0.00000000000E+00 -0.47635602722E+03  0.47635772017E+03  0.12700000000E+01 0. -1.
         25    2    1    2    0    0  0.00000000000E+00  0.00000000000E+00 -0.46820709209E+03  0.48460502542E+03  0.12499659826E+03 0.  0.
    9000005    1    3    3    0    0 -0.47972698785E+02  0.37608180251E+02 -0.28744253407E+03  0.29383663053E+03  0.10000000000E+01 0.  0.
    9000005    1    3    3    0    0  0.47972698785E+02 -0.37608180251E+02 -0.18076455802E+03  0.19076839488E+03  0.10000000000E+01 0.  0.
<mgrwt>
<rscale>  0 0.12499660E+03</rscale>
<asrwt>0</asrwt>
<pdfrwt beam="1">  1        4 0.12613799E-02 0.12499660E+03</pdfrwt>
<pdfrwt beam="2">  1       -4 0.73293218E-01 0.12499660E+03</pdfrwt>
<totfact> 0.57083210E+03</totfact>
</mgrwt>
</event>
<event>
 5    1  0.3188180E-002  0.1250002E+03  0.7818608E-02  0.1235069E+00
          4   -1    0    0  501    0  0.00000000000E+00  0.00000000000E+00  0.63140781269E+02  0.63153552230E+02  0.12700000000E+01 0.  1.
         -4   -1    0    0    0  501 -0.00000000000E+00 -0.00000000000E+00 -0.61840338034E+02  0.61853377500E+02  0.12700000000E+01 0.  1.
         25    2    1    2    0    0  0.00000000000E+00  0.00000000000E+00  0.13004432345E+01  0.12500692973E+03  0.12500016531E+03 0.  0.
    9000005    1    3    3    0    0 -0.14619251421E+02  0.17254046592E+02  0.58910010689E+02  0.63109539654E+02  0.10000000000E+01 0.  0.
    9000005    1    3    3    0    0  0.14619251421E+02 -0.17254046592E+02 -0.57609567454E+02  0.61897390076E+02  0.10000000000E+01 0.  0.
<mgrwt>
<rscale>  0 0.12500017E+03</rscale>
<asrwt>0</asrwt>
<pdfrwt beam="1">  1        4 0.97159518E-02 0.12500017E+03</pdfrwt>
<pdfrwt beam="2">  1       -4 0.95158836E-02 0.12500017E+03</pdfrwt>
<totfact> 0.10452673E+04</totfact>
</mgrwt>
</event>
<event>
 5    1  0.3188180E-002  0.1249979E+03  0.7818608E-02  0.1235073E+00
         -4   -1    0    0    0  501 -0.00000000000E+00  0.00000000000E+00  0.71305861199E+02  0.71317170032E+02  0.12700000000E+01 0.  1.
          4   -1    0    0  501    0  0.00000000000E+00 -0.00000000000E+00 -0.54756754316E+02  0.54771480200E+02  0.12700000000E+01 0.  1.
         25    2    1    2    0    0  0.00000000000E+00  0.00000000000E+00  0.16549106883E+02  0.12608865023E+03  0.12499789910E+03 0.  0.
    9000005    1    3    3    0    0 -0.46479889092E+02  0.39668918941E+02 -0.49207057455E+01  0.61312450326E+02  0.10000000000E+01 0.  0.
    9000005    1    3    3    0    0  0.46479889092E+02 -0.39668918941E+02  0.21469812628E+02  0.64776199906E+02  0.10000000000E+01 0.  0.
<mgrwt>
<rscale>  0 0.12499790E+03</rscale>
<asrwt>0</asrwt>
<pdfrwt beam="2">  1        4 0.84261187E-02 0.12499790E+03</pdfrwt>
<pdfrwt beam="1">  1       -4 0.10972135E-01 0.12499790E+03</pdfrwt>
<totfact> 0.10429510E+04</totfact>
</mgrwt>
</event>
<event>
 5    1  0.3188180E-002  0.1250003E+03  0.7818608E-02  0.1235069E+00
         -4   -1    0    0    0  501 -0.00000000000E+00  0.00000000000E+00  0.11050915702E+03  0.11051645436E+03  0.12700000000E+01 0.  1.
          4   -1    0    0  501    0  0.00000000000E+00 -0.00000000000E+00 -0.35328049778E+02  0.35350869878E+02  0.12700000000E+01 0.  1.
         25    2    1    2    0    0  0.00000000000E+00  0.00000000000E+00  0.75181107238E+02  0.14586732424E+03  0.12500030958E+03 0.  0.
    9000005    1    3    3    0    0  0.14321668060E+02 -0.56631324506E+02  0.11679002974E+02  0.59578655589E+02  0.10000000000E+01 0.  0.
    9000005    1    3    3    0    0 -0.14321668060E+02  0.56631324506E+02  0.63502104264E+02  0.86288668650E+02  0.10000000000E+01 0.  0.
<mgrwt>
<rscale>  0 0.12500031E+03</rscale>
<asrwt>0</asrwt>
<pdfrwt beam="2">  1        4 0.54374013E-02 0.12500031E+03</pdfrwt>
<pdfrwt beam="1">  1       -4 0.17003725E-01 0.12500031E+03</pdfrwt>
<totfact> 0.10013326E+04</totfact>
</mgrwt>
</event>
<event>
 5    1  0.3188180E-002  0.1249980E+03  0.7818608E-02  0.1235072E+00
          4   -1    0    0  501    0  0.00000000000E+00  0.00000000000E+00  0.10670721224E+03  0.10671476957E+03  0.12700000000E+01 0. -1.
         -4   -1    0    0    0  501 -0.00000000000E+00 -0.00000000000E+00 -0.36586160390E+02  0.36608196242E+02  0.12700000000E+01 0. -1.
         25    2    1    2    0    0  0.00000000000E+00  0.00000000000E+00  0.70121051848E+02  0.14332296581E+03  0.12499804245E+03 0.  0.
    9000005    1    3    3    0    0 -0.40902247280E+02  0.41783129969E+02  0.97753232974E+01  0.59290646211E+02  0.10000000000E+01 0.  0.
    9000005    1    3    3    0    0  0.40902247280E+02 -0.41783129969E+02  0.60345728551E+02  0.84032319597E+02  0.10000000000E+01 0.  0.
<mgrwt>
<rscale>  0 0.12499804E+03</rscale>
<asrwt>0</asrwt>
<pdfrwt beam="1">  1        4 0.16418771E-01 0.12499804E+03</pdfrwt>
<pdfrwt beam="2">  1       -4 0.56309164E-02 0.12499804E+03</pdfrwt>
<totfact> 0.10065618E+04</totfact>
</mgrwt>
</event>
<event>
 5    1  0.3188180E-002  0.1250001E+03  0.7818608E-02  0.1235069E+00
          4   -1    0    0  501    0  0.00000000000E+00  0.00000000000E+00  0.24701042346E+03  0.24701368828E+03  0.12700000000E+01 0.  1.
         -4   -1    0    0    0  501 -0.00000000000E+00 -0.00000000000E+00 -0.15785265853E+02  0.15836272227E+02  0.12700000000E+01 0.  1.
         25    2    1    2    0    0  0.00000000000E+00  0.00000000000E+00  0.23122515761E+03  0.26284996051E+03  0.12500011291E+03 0.  0.
    9000005    1    3    3    0    0  0.30002414265E+01  0.52158381627E+02  0.18771612690E+03  0.19485338725E+03  0.10000000000E+01 0.  0.
    9000005    1    3    3    0    0 -0.30002414265E+01 -0.52158381627E+02  0.43509030710E+02  0.67996573265E+02  0.10000000000E+01 0.  0.
<mgrwt>
<rscale>  0 0.12500011E+03</rscale>
<asrwt>0</asrwt>
<pdfrwt beam="1">  1        4 0.38005777E-01 0.12500011E+03</pdfrwt>
<pdfrwt beam="2">  1       -4 0.24326772E-02 0.12500011E+03</pdfrwt>
<totfact> 0.80507563E+03</totfact>
</mgrwt>
</event>
<event>
 5    1  0.3188180E-002  0.1250024E+03  0.7818608E-02  0.1235065E+00
          4   -1    0    0  501    0  0.00000000000E+00  0.00000000000E+00  0.39763263648E+03  0.39763466460E+03  0.12700000000E+01 0. -1.
         -4   -1    0    0    0  501 -0.00000000000E+00 -0.00000000000E+00 -0.97810448895E+01  0.98631505682E+01  0.12700000000E+01 0. -1.
         25    2    1    2    0    0  0.00000000000E+00  0.00000000000E+00  0.38785159159E+03  0.40749781517E+03  0.12500244906E+03 0.  0.
    9000005    1    3    3    0    0  0.27016344417E+02 -0.15895069070E+01  0.37755483656E+03  0.37852485257E+03  0.10000000000E+01 0.  0.
    9000005    1    3    3    0    0 -0.27016344417E+02  0.15895069070E+01  0.10296755022E+02  0.28972962600E+02  0.10000000000E+01 0.  0.
<mgrwt>
<rscale>  0 0.12500245E+03</rscale>
<asrwt>0</asrwt>
<pdfrwt beam="1">  1        4 0.61180720E-01 0.12500245E+03</pdfrwt>
<pdfrwt beam="2">  1       -4 0.15112481E-02 0.12500245E+03</pdfrwt>
<totfact> 0.63826586E+03</totfact>
</mgrwt>
</event>
<event>
 5    1  0.3188180E-002  0.1250076E+03  0.7818608E-02  0.1235057E+00
         -4   -1    0    0    0  501 -0.00000000000E+00  0.00000000000E+00  0.25123599915E+03  0.25123920906E+03  0.12700000000E+01 0. -1.
          4   -1    0    0  501    0  0.00000000000E+00 -0.00000000000E+00 -0.15520768256E+02  0.15572640985E+02  0.12700000000E+01 0. -1.
         25    2    1    2    0    0  0.00000000000E+00  0.00000000000E+00  0.23571523089E+03  0.26681185004E+03  0.12500757277E+03 0.  0.
    9000005    1    3    3    0    0  0.13051113671E+02  0.19020072182E+02  0.24182785096E+03  0.24292756990E+03  0.10000000000E+01 0.  0.
    9000005    1    3    3    0    0 -0.13051113671E+02 -0.19020072182E+02 -0.61126200740E+01  0.23884280145E+02  0.10000000000E+01 0.  0.
<mgrwt>
<rscale>  0 0.12500757E+03</rscale>
<asrwt>0</asrwt>
<pdfrwt beam="2">  1        4 0.23920479E-02 0.12500757E+03</pdfrwt>
<pdfrwt beam="1">  1       -4 0.38655925E-01 0.12500757E+03</pdfrwt>
<totfact> 0.79946050E+03</totfact>
</mgrwt>
</event>
<event>
 5    1  0.3188180E-002  0.1250003E+03  0.7818608E-02  0.1235069E+00
         -4   -1    0    0    0  501 -0.00000000000E+00  0.00000000000E+00  0.71910934267E+01  0.73023780148E+01  0.12700000000E+01 0. -1.
          4   -1    0    0  501    0  0.00000000000E+00 -0.00000000000E+00 -0.53892671358E+03  0.53892820998E+03  0.12700000000E+01 0. -1.
         25    2    1    2    0    0  0.00000000000E+00  0.00000000000E+00 -0.53173562015E+03  0.54623058799E+03  0.12500034208E+03 0.  0.
    9000005    1    3    3    0    0 -0.22828842827E+02  0.20286187648E+02 -0.27618296910E+02  0.41188054073E+02  0.10000000000E+01 0.  0.
    9000005    1    3    3    0    0  0.22828842827E+02 -0.20286187648E+02 -0.50411732324E+03  0.50504253392E+03  0.10000000000E+01 0.  0.
<mgrwt>
<rscale>  0 0.12500034E+03</rscale>
<asrwt>0</asrwt>
<pdfrwt beam="2">  1        4 0.82920446E-01 0.12500034E+03</pdfrwt>
<pdfrwt beam="1">  1       -4 0.11149980E-02 0.12500034E+03</pdfrwt>
<totfact> 0.52447387E+03</totfact>
</mgrwt>
</event>
<event>
 4    1  0.3188180E-002  0.1251830E+03  0.7818608E-02  0.1234784E+00
          4   -1    0    0  501    0  0.00000000000E+00  0.00000000000E+00  0.94068094867E+02  0.94076667521E+02  0.12700000000E+01 0. -1.
         -4   -1    0    0    0  501 -0.00000000000E+00 -0.00000000000E+00 -0.41627306345E+02  0.41646674940E+02  0.12700000000E+01 0. -1.
    9000005    1    1    2    0    0  0.29235390004E+02  0.44584039633E+02  0.61755887036E+02  0.81591875835E+02  0.10000000000E+01 0.  0.
    9000005    1    1    2    0    0 -0.29235390004E+02 -0.44584039633E+02 -0.93150985153E+01  0.54131466626E+02  0.10000000000E+01 0.  0.
<mgrwt>
<rscale>  0 0.12518302E+03</rscale>
<asrwt>0</asrwt>
<pdfrwt beam="1">  1        4 0.14474164E-01 0.12518302E+03</pdfrwt>
<pdfrwt beam="2">  1       -4 0.64063504E-02 0.12518302E+03</pdfrwt>
<totfact> 0.10180769E+04</totfact>
</mgrwt>
</event>
<event>
 5    1  0.3188180E-002  0.1250016E+03  0.7818608E-02  0.1235067E+00
         -4   -1    0    0    0  501 -0.00000000000E+00  0.00000000000E+00  0.38982183254E+01  0.40998787924E+01  0.12700000000E+01 0.  1.
          4   -1    0    0  501    0  0.00000000000E+00 -0.00000000000E+00 -0.97661812476E+03  0.97661895052E+03  0.12700000000E+01 0.  1.
         25    2    1    2    0    0  0.00000000000E+00  0.00000000000E+00 -0.97271990644E+03  0.98071882931E+03  0.12500162314E+03 0.  0.
    9000005    1    3    3    0    0 -0.10910239446E+02 -0.59792266696E+02 -0.60037938370E+03  0.60344888172E+03  0.10000000000E+01 0.  0.
    9000005    1    3    3    0    0  0.10910239446E+02  0.59792266696E+02 -0.37234052274E+03  0.37726994759E+03  0.10000000000E+01 0.  0.
<mgrwt>
<rscale>  0 0.12500162E+03</rscale>
<asrwt>0</asrwt>
<pdfrwt beam="2">  1        4 0.15026433E+00 0.12500162E+03</pdfrwt>
<pdfrwt beam="1">  1       -4 0.61530254E-03 0.12500162E+03</pdfrwt>
<totfact> 0.31248751E+03</totfact>
</mgrwt>
</event>
<event>
 5    1  0.3188180E-002  0.1249993E+03  0.7818608E-02  0.1235070E+00
         -4   -1    0    0    0  501 -0.00000000000E+00  0.00000000000E+00  0.29058094725E+02  0.29085834508E+02  0.12700000000E+01 0. -1.
          4   -1    0    0  501    0  0.00000000000E+00 -0.00000000000E+00 -0.13433257715E+03  0.13433858040E+03  0.12700000000E+01 0. -1.
         25    2    1    2    0    0  0.00000000000E+00  0.00000000000E+00 -0.10527448243E+03  0.16342441491E+03  0.12499929095E+03 0.  0.
    9000005    1    3    3    0    0 -0.22730564970E+02  0.48637719113E+02 -0.94451639054E+02  0.10864814045E+03  0.10000000000E+01 0.  0.
    9000005    1    3    3    0    0  0.22730564970E+02 -0.48637719113E+02 -0.10822843372E+02  0.54776274454E+02  0.10000000000E+01 0.  0.
<mgrwt>
<rscale>  0 0.12499929E+03</rscale>
<asrwt>0</asrwt>
<pdfrwt beam="2">  1        4 0.20669146E-01 0.12499929E+03</pdfrwt>
<pdfrwt beam="1">  1       -4 0.44730718E-02 0.12499929E+03</pdfrwt>
<totfact> 0.96688158E+03</totfact>
</mgrwt>
</event>
<event>
 5    1  0.3188180E-002  0.1250003E+03  0.7818608E-02  0.1235069E+00
         -4   -1    0    0    0  501 -0.00000000000E+00  0.00000000000E+00  0.13962497416E+03  0.13963074987E+03  0.12700000000E+01 0. -1.
          4   -1    0    0  501    0  0.00000000000E+00 -0.00000000000E+00 -0.27956079972E+02  0.27984912139E+02  0.12700000000E+01 0. -1.
         25    2    1    2    0    0  0.00000000000E+00  0.00000000000E+00  0.11166889419E+03  0.16761566201E+03  0.12500027289E+03 0.  0.
    9000005    1    3    3    0    0  0.94407529663E+01 -0.61582958728E+02  0.62359441101E+02  0.88154912040E+02  0.10000000000E+01 0.  0.
    9000005    1    3    3    0    0 -0.94407529663E+01  0.61582958728E+02  0.49309453090E+02  0.79460749973E+02  0.10000000000E+01 0.  0.
<mgrwt>
<rscale>  0 0.12500027E+03</rscale>
<asrwt>0</asrwt>
<pdfrwt beam="2">  1        4 0.43035975E-02 0.12500027E+03</pdfrwt>
<pdfrwt beam="1">  1       -4 0.21483427E-01 0.12500027E+03</pdfrwt>
<totfact> 0.95893720E+03</totfact>
</mgrwt>
</event>
<event>
 5    1  0.3188180E-002  0.1250008E+03  0.7818608E-02  0.1235068E+00
          4   -1    0    0  501    0  0.00000000000E+00  0.00000000000E+00  0.11284841661E+04  0.11284848808E+04  0.12700000000E+01 0.  1.
         -4   -1    0    0    0  501 -0.00000000000E+00 -0.00000000000E+00 -0.33443214900E+01  0.35773434597E+01  0.12700000000E+01 0.  1.
         25    2    1    2    0    0  0.00000000000E+00  0.00000000000E+00  0.11251398446E+04  0.11320622242E+04  0.12500083804E+03 0.  0.
    9000005    1    3    3    0    0 -0.17017969899E+02 -0.56840672002E+02  0.74023060141E+03  0.74260542454E+03  0.10000000000E+01 0.  0.
    9000005    1    3    3    0    0  0.17017969899E+02  0.56840672002E+02  0.38490924322E+03  0.38945679967E+03  0.10000000000E+01 0.  0.
<mgrwt>
<rscale>  0 0.12500084E+03</rscale>
<asrwt>0</asrwt>
<pdfrwt beam="1">  1        4 0.17363116E+00 0.12500084E+03</pdfrwt>
<pdfrwt beam="2">  1       -4 0.53249003E-03 0.12500084E+03</pdfrwt>
<totfact> 0.26562698E+03</totfact>
</mgrwt>
</event>
<event>
 5    1  0.3188180E-002  0.1249993E+03  0.7818608E-02  0.1235070E+00
         -4   -1    0    0    0  501 -0.00000000000E+00  0.00000000000E+00  0.35814550324E+03  0.35814775498E+03  0.12700000000E+01 0.  1.
          4   -1    0    0  501    0  0.00000000000E+00 -0.00000000000E+00 -0.10867500558E+02  0.10941456410E+02  0.12700000000E+01 0.  1.
         25    2    1    2    0    0  0.00000000000E+00  0.00000000000E+00  0.34727800269E+03  0.36908921139E+03  0.12499933924E+03 0.  0.
    9000005    1    3    3    0    0 -0.34976837320E+02 -0.46659711595E+02  0.23997368452E+03  0.24695926202E+03  0.10000000000E+01 0.  0.
    9000005    1    3    3    0    0  0.34976837320E+02  0.46659711595E+02  0.10730431817E+03  0.12212994937E+03  0.10000000000E+01 0.  0.
<mgrwt>
<rscale>  0 0.12499934E+03</rscale>
<asrwt>0</asrwt>
<pdfrwt beam="2">  1        4 0.16777854E-02 0.12499934E+03</pdfrwt>
<pdfrwt beam="1">  1       -4 0.55105165E-01 0.12499934E+03</pdfrwt>
<totfact> 0.67675320E+03</totfact>
</mgrwt>
</event>
<event>
 5    1  0.3188180E-002  0.1250008E+03  0.7818608E-02  0.1235068E+00
         -4   -1    0    0    0  501 -0.00000000000E+00  0.00000000000E+00  0.31676773250E+03  0.31677027836E+03  0.12700000000E+01 0.  1.
          4   -1    0    0  501    0  0.00000000000E+00 -0.00000000000E+00 -0.12296439676E+02  0.12361849728E+02  0.12700000000E+01 0.  1.
         25    2    1    2    0    0  0.00000000000E+00  0.00000000000E+00  0.30447129283E+03  0.32913212809E+03  0.12500075834E+03 0.  0.
    9000005    1    3    3    0    0 -0.40195541232E+02 -0.28063303361E+02  0.25428312139E+03  0.25896744265E+03  0.10000000000E+01 0.  0.
    9000005    1    3    3    0    0  0.40195541232E+02  0.28063303361E+02  0.50188171434E+02  0.70164685436E+02  0.10000000000E+01 0.  0.
<mgrwt>
<rscale>  0 0.12500076E+03</rscale>
<asrwt>0</asrwt>
<pdfrwt beam="2">  1        4 0.18969875E-02 0.12500076E+03</pdfrwt>
<pdfrwt beam="1">  1       -4 0.48738721E-01 0.12500076E+03</pdfrwt>
<totfact> 0.72081774E+03</totfact>
</mgrwt>
</event>
<event>
 5    1  0.3188180E-002  0.1249993E+03  0.7818608E-02  0.1235070E+00
          4   -1    0    0  501    0  0.00000000000E+00  0.00000000000E+00  0.21991389042E+02  0.22028029690E+02  0.12700000000E+01 0. -1.
         -4   -1    0    0    0  501 -0.00000000000E+00 -0.00000000000E+00 -0.17743761247E+03  0.17744215739E+03  0.12700000000E+01 0. -1.
         25    2    1    2    0    0  0.00000000000E+00  0.00000000000E+00 -0.15544622343E+03  0.19947018708E+03  0.12499930862E+03 0.  0.
    9000005    1    3    3    0    0 -0.10528042429E+02 -0.29722684659E+02 -0.16381975112E+03  0.16682981903E+03  0.10000000000E+01 0.  0.
    9000005    1    3    3    0    0  0.10528042429E+02  0.29722684659E+02  0.83735276874E+01  0.32640368053E+02  0.10000000000E+01 0.  0.
<mgrwt>
<rscale>  0 0.12499931E+03</rscale>
<asrwt>0</asrwt>
<pdfrwt beam="1">  1        4 0.33864589E-02 0.12499931E+03</pdfrwt>
<pdfrwt beam="2">  1       -4 0.27301261E-01 0.12499931E+03</pdfrwt>
<totfact> 0.90226337E+03</totfact>
</mgrwt>
</event>
<event>
 5    1  0.3188180E-002  0.1249996E+03  0.7818608E-02  0.1235070E+00
         -4   -1    0    0    0  501 -0.00000000000E+00  0.00000000000E+00  0.32287507224E+02  0.32312474723E+02  0.12700000000E+01 0.  1.
          4   -1    0    0  501    0  0.00000000000E+00 -0.00000000000E+00 -0.12090752008E+03  0.12091418987E+03  0.12700000000E+01 0.  1.
         25    2    1    2    0    0  0.00000000000E+00  0.00000000000E+00 -0.88620012857E+02  0.15322666459E+03  0.12499961625E+03 0.  0.
    9000005    1    3    3    0    0 -0.24412512492E+02  0.51811956199E+02 -0.74949952177E+02  0.94334219150E+02  0.10000000000E+01 0.  0.
    9000005    1    3    3    0    0  0.24412512492E+02 -0.51811956199E+02 -0.13670060679E+02  0.58892445443E+02  0.10000000000E+01 0.  0.
<mgrwt>
<rscale>  0 0.12499962E+03</rscale>
<asrwt>0</asrwt>
<pdfrwt beam="2">  1        4 0.18603590E-01 0.12499962E+03</pdfrwt>
<pdfrwt beam="1">  1       -4 0.49697425E-02 0.12499962E+03</pdfrwt>
<totfact> 0.98665208E+03</totfact>
</mgrwt>
</event>
<event>
 5    1  0.3188180E-002  0.1250022E+03  0.7818608E-02  0.1235066E+00
          4   -1    0    0  501    0  0.00000000000E+00  0.00000000000E+00  0.17952677832E+02  0.17997542647E+02  0.12700000000E+01 0. -1.
         -4   -1    0    0    0  501 -0.00000000000E+00 -0.00000000000E+00 -0.21727521578E+03  0.21727892740E+03  0.12700000000E+01 0. -1.
         25    2    1    2    0    0  0.00000000000E+00  0.00000000000E+00 -0.19932253795E+03  0.23527647005E+03  0.12500217288E+03 0.  0.
    9000005    1    3    3    0    0  0.78630830029E+00 -0.33087032266E+02  0.11225597646E+00  0.33111668431E+02  0.10000000000E+01 0.  0.
    9000005    1    3    3    0    0 -0.78630830029E+00  0.33087032266E+02 -0.19943479393E+03  0.20216480162E+03  0.10000000000E+01 0.  0.
<mgrwt>
<rscale>  0 0.12500217E+03</rscale>
<asrwt>0</asrwt>
<pdfrwt beam="1">  1        4 0.27656872E-02 0.12500217E+03</pdfrwt>
<pdfrwt beam="2">  1       -4 0.33430691E-01 0.12500217E+03</pdfrwt>
<totfact> 0.84501826E+03</totfact>
</mgrwt>
</event>
<event>
 5    1  0.3188180E-002  0.1250005E+03  0.7818608E-02  0.1235069E+00
         -4   -1    0    0    0  501 -0.00000000000E+00  0.00000000000E+00  0.52767449558E+02  0.52782730441E+02  0.12700000000E+01 0. -1.
          4   -1    0    0  501    0  0.00000000000E+00 -0.00000000000E+00 -0.73996734888E+02  0.74007632540E+02  0.12700000000E+01 0. -1.
         25    2    1    2    0    0  0.00000000000E+00  0.00000000000E+00 -0.21229285330E+02  0.12679036298E+03  0.12500045436E+03 0.  0.
    9000005    1    3    3    0    0 -0.59992439123E+02  0.13517913393E+02 -0.21884622155E+02  0.65282183031E+02  0.10000000000E+01 0.  0.
    9000005    1    3    3    0    0  0.59992439123E+02 -0.13517913393E+02  0.65533682408E+00  0.61508179950E+02  0.10000000000E+01 0.  0.
<mgrwt>
<rscale>  0 0.12500045E+03</rscale>
<asrwt>0</asrwt>
<pdfrwt beam="2">  1        4 0.11386127E-01 0.12500045E+03</pdfrwt>
<pdfrwt beam="1">  1       -4 0.81200829E-02 0.12500045E+03</pdfrwt>
<totfact> 0.10413597E+04</totfact>
</mgrwt>
</event>
<event>
 5    1  0.3188180E-002  0.1249967E+03  0.7818608E-02  0.1235075E+00
         -4   -1    0    0    0  501 -0.00000000000E+00  0.00000000000E+00  0.29161126527E+02  0.29188768394E+02  0.12700000000E+01 0.  1.
          4   -1    0    0  501    0  0.00000000000E+00 -0.00000000000E+00 -0.13385272858E+03  0.13385875335E+03  0.12700000000E+01 0.  1.
         25    2    1    2    0    0  0.00000000000E+00  0.00000000000E+00 -0.10469160205E+03  0.16304752175E+03  0.12499665118E+03 0.  0.
    9000005    1    3    3    0    0 -0.17446073660E+02 -0.51150711831E+02 -0.93269523546E+02  0.10780057898E+03  0.10000000000E+01 0.  0.
    9000005    1    3    3    0    0  0.17446073660E+02  0.51150711831E+02 -0.11422078509E+02  0.55246942761E+02  0.10000000000E+01 0.  0.
<mgrwt>
<rscale>  0 0.12499665E+03</rscale>
<asrwt>0</asrwt>
<pdfrwt beam="2">  1        4 0.20595317E-01 0.12499665E+03</pdfrwt>
<pdfrwt beam="1">  1       -4 0.44889170E-02 0.12499665E+03</pdfrwt>
<totfact> 0.96765725E+03</totfact>
</mgrwt>
</event>
<event>
 5    1  0.3188180E-002  0.1249985E+03  0.7818608E-02  0.1235072E+00
         -4   -1    0    0    0  501 -0.00000000000E+00  0.00000000000E+00  0.11459031184E+03  0.11459734931E+03  0.12700000000E+01 0.  1.
          4   -1    0    0  501    0  0.00000000000E+00 -0.00000000000E+00 -0.34068084202E+02  0.34091747699E+02  0.12700000000E+01 0.  1.
         25    2    1    2    0    0  0.00000000000E+00  0.00000000000E+00  0.80522227643E+02  0.14868909701E+03  0.12499847369E+03 0.  0.
    9000005    1    3    3    0    0 -0.43761809347E+02  0.25644975433E+02 -0.31589771654E+01  0.50830501267E+02  0.10000000000E+01 0.  0.
    9000005    1    3    3    0    0  0.43761809347E+02 -0.25644975433E+02  0.83681204809E+02  0.97858595742E+02  0.10000000000E+01 0.  0.
<mgrwt>
<rscale>  0 0.12499847E+03</rscale>
<asrwt>0</asrwt>
<pdfrwt beam="2">  1        4 0.52436054E-02 0.12499847E+03</pdfrwt>
<pdfrwt beam="1">  1       -4 0.17631640E-01 0.12499847E+03</pdfrwt>
<totfact> 0.99569072E+03</totfact>
</mgrwt>
</event>
<event>
 5    1  0.3188180E-002  0.1249989E+03  0.7818608E-02  0.1235071E+00
          4   -1    0    0  501    0  0.00000000000E+00  0.00000000000E+00  0.16126488975E+03  0.16126989045E+03  0.12700000000E+01 0. -1.
         -4   -1    0    0    0  501 -0.00000000000E+00 -0.00000000000E+00 -0.24200121732E+02  0.24233423032E+02  0.12700000000E+01 0. -1.
         25    2    1    2    0    0  0.00000000000E+00  0.00000000000E+00  0.13706476802E+03  0.18550331348E+03  0.12499891472E+03 0.  0.
    9000005    1    3    3    0    0 -0.23703864545E+01 -0.48313606838E+02  0.98169354328E+01  0.49367960854E+02  0.10000000000E+01 0.  0.
    9000005    1    3    3    0    0  0.23703864545E+01  0.48313606838E+02  0.12724783258E+03  0.13613535263E+03  0.10000000000E+01 0.  0.
<mgrwt>
<rscale>  0 0.12499891E+03</rscale>
<asrwt>0</asrwt>
<pdfrwt beam="1">  1        4 0.24812930E-01 0.12499891E+03</pdfrwt>
<pdfrwt beam="2">  1       -4 0.37260419E-02 0.12499891E+03</pdfrwt>
<totfact> 0.92637916E+03</totfact>
</mgrwt>
</event>
<event>
 5    1  0.3188180E-002  0.1250091E+03  0.7818608E-02  0.1235055E+00
          4   -1    0    0  501    0  0.00000000000E+00  0.00000000000E+00  0.36235909760E+02  0.36258158477E+02  0.12700000000E+01 0. -1.
         -4   -1    0    0    0  501 -0.00000000000E+00 -0.00000000000E+00 -0.10775715874E+03  0.10776464244E+03  0.12700000000E+01 0. -1.
         25    2    1    2    0    0  0.00000000000E+00  0.00000000000E+00 -0.71521248980E+02  0.14402280091E+03  0.12500911218E+03 0.  0.
    9000005    1    3    3    0    0  0.29146335473E+02 -0.21325678559E+02  0.23002337026E+02  0.42829907147E+02  0.10000000000E+01 0.  0.
    9000005    1    3    3    0    0 -0.29146335473E+02  0.21325678559E+02 -0.94523586006E+02  0.10119289377E+03  0.10000000000E+01 0.  0.
<mgrwt>
<rscale>  0 0.12500911E+03</rscale>
<asrwt>0</asrwt>
<pdfrwt beam="1">  1        4 0.55770425E-02 0.12500911E+03</pdfrwt>
<pdfrwt beam="2">  1       -4 0.16580311E-01 0.12500911E+03</pdfrwt>
<totfact> 0.10048819E+04</totfact>
</mgrwt>
</event>
<event>
 5    1  0.3188180E-002  0.1249995E+03  0.7818608E-02  0.1235070E+00
         -4   -1    0    0    0  501 -0.00000000000E+00  0.00000000000E+00  0.62856240283E+01  0.64126413767E+01  0.12700000000E+01 0. -1.
          4   -1    0    0  501    0  0.00000000000E+00 -0.00000000000E+00 -0.61510844167E+03  0.61510975274E+03  0.12700000000E+01 0. -1.
         25    2    1    2    0    0  0.00000000000E+00  0.00000000000E+00 -0.60882281765E+03  0.62152239412E+03  0.12499945242E+03 0.  0.
    9000005    1    3    3    0    0 -0.30923495798E+02 -0.51924321331E+02 -0.22535215713E+03  0.23331736425E+03  0.10000000000E+01 0.  0.
    9000005    1    3    3    0    0  0.30923495798E+02  0.51924321331E+02 -0.38347066052E+03  0.38820502987E+03  0.10000000000E+01 0.  0.
<mgrwt>
<rscale>  0 0.12499945E+03</rscale>
<asrwt>0</asrwt>
<pdfrwt beam="2">  1        4 0.94641892E-01 0.12499945E+03</pdfrwt>
<pdfrwt beam="1">  1       -4 0.97689099E-03 0.12499945E+03</pdfrwt>
<totfact> 0.47537228E+03</totfact>
</mgrwt>
</event>
<event>
 5    1  0.3188180E-002  0.1249985E+03  0.7818608E-02  0.1235072E+00
         -4   -1    0    0    0  501 -0.00000000000E+00  0.00000000000E+00  0.27489569875E+03  0.27489863239E+03  0.12700000000E+01 0.  1.
          4   -1    0    0  501    0  0.00000000000E+00 -0.00000000000E+00 -0.14178200881E+02  0.14234966815E+02  0.12700000000E+01 0.  1.
         25    2    1    2    0    0  0.00000000000E+00  0.00000000000E+00  0.26071749787E+03  0.28913359921E+03  0.12499849797E+03 0.  0.
    9000005    1    3    3    0    0 -0.26172832075E+02  0.33580888554E+02  0.24549738610E+02  0.49156717554E+02  0.10000000000E+01 0.  0.
    9000005    1    3    3    0    0  0.26172832075E+02 -0.33580888554E+02  0.23616775926E+03  0.23997688165E+03  0.10000000000E+01 0.  0.
<mgrwt>
<rscale>  0 0.12499850E+03</rscale>
<asrwt>0</asrwt>
<pdfrwt beam="2">  1        4 0.21858540E-02 0.12499850E+03</pdfrwt>
<pdfrwt beam="1">  1       -4 0.42296237E-01 0.12499850E+03</pdfrwt>
<totfact> 0.76985004E+03</totfact>
</mgrwt>
</event>
<event>
 5    1  0.3188180E-002  0.1249979E+03  0.7818608E-02  0.1235073E+00
         -4   -1    0    0    0  501 -0.00000000000E+00  0.00000000000E+00  0.62389571189E+03  0.62389700449E+03  0.12700000000E+01 0.  1.
          4   -1    0    0  501    0  0.00000000000E+00 -0.00000000000E+00 -0.61951393955E+01  0.63239743935E+01  0.12700000000E+01 0.  1.
         25    2    1    2    0    0  0.00000000000E+00  0.00000000000E+00  0.61770057249E+03  0.63022097888E+03  0.12499793985E+03 0.  0.
    9000005    1    3    3    0    0 -0.46301864063E+02  0.20297492964E+02  0.12365091919E+03  0.13359042126E+03  0.10000000000E+01 0.  0.
    9000005    1    3    3    0    0  0.46301864063E+02 -0.20297492964E+02  0.49404965330E+03  0.49663055762E+03  0.10000000000E+01 0.  0.
<mgrwt>
<rscale>  0 0.12499794E+03</rscale>
<asrwt>0</asrwt>
<pdfrwt beam="2">  1        4 0.96310783E-03 0.12499794E+03</pdfrwt>
<pdfrwt beam="1">  1       -4 0.95994001E-01 0.12499794E+03</pdfrwt>
<totfact> 0.47016010E+03</totfact>
</mgrwt>
</event>
<event>
 5    1  0.3188180E-002  0.1250034E+03  0.7818608E-02  0.1235064E+00
          4   -1    0    0  501    0  0.00000000000E+00  0.00000000000E+00  0.11798975629E+02  0.11867127955E+02  0.12700000000E+01 0. -1.
         -4   -1    0    0    0  501 -0.00000000000E+00 -0.00000000000E+00 -0.33006216496E+03  0.33006460828E+03  0.12700000000E+01 0. -1.
         25    2    1    2    0    0  0.00000000000E+00  0.00000000000E+00 -0.31826318933E+03  0.34193173623E+03  0.12500341820E+03 0.  0.
    9000005    1    3    3    0    0 -0.33311997464E+02 -0.13584317856E+02 -0.29891028978E+03  0.30106906883E+03  0.10000000000E+01 0.  0.
    9000005    1    3    3    0    0  0.33311997464E+02  0.13584317856E+02 -0.19352899547E+02  0.40862667406E+02  0.10000000000E+01 0.  0.
<mgrwt>
<rscale>  0 0.12500342E+03</rscale>
<asrwt>0</asrwt>
<pdfrwt beam="1">  1        4 0.18206577E-02 0.12500342E+03</pdfrwt>
<pdfrwt beam="2">  1       -4 0.50784218E-01 0.12500342E+03</pdfrwt>
<totfact> 0.70616038E+03</totfact>
</mgrwt>
</event>
<event>
 5    1  0.3188180E-002  0.1250050E+03  0.7818608E-02  0.1235061E+00
         -4   -1    0    0    0  501 -0.00000000000E+00  0.00000000000E+00  0.29757126102E+02  0.29784214844E+02  0.12700000000E+01 0.  1.
          4   -1    0    0  501    0  0.00000000000E+00 -0.00000000000E+00 -0.13119176743E+03  0.13119791439E+03  0.12700000000E+01 0.  1.
         25    2    1    2    0    0  0.00000000000E+00  0.00000000000E+00 -0.10143464133E+03  0.16098212924E+03  0.12500503779E+03 0.  0.
    9000005    1    3    3    0    0  0.12938312527E+02 -0.29355080929E+02 -0.11978551867E+03  0.12401085110E+03  0.10000000000E+01 0.  0.
    9000005    1    3    3    0    0 -0.12938312527E+02  0.29355080929E+02  0.18350877347E+02  0.36971278133E+02  0.10000000000E+01 0.  0.
<mgrwt>
<rscale>  0 0.12500504E+03</rscale>
<asrwt>0</asrwt>
<pdfrwt beam="2">  1        4 0.20185905E-01 0.12500504E+03</pdfrwt>
<pdfrwt beam="1">  1       -4 0.45805761E-02 0.12500504E+03</pdfrwt>
<totfact> 0.97142773E+03</totfact>
</mgrwt>
</event>
<event>
 5    1  0.3188180E-002  0.1250007E+03  0.7818608E-02  0.1235068E+00
         -4   -1    0    0    0  501 -0.00000000000E+00  0.00000000000E+00  0.10381836990E+03  0.10382613750E+03  0.12700000000E+01 0. -1.
          4   -1    0    0  501    0  0.00000000000E+00 -0.00000000000E+00 -0.37606339569E+02  0.37627777981E+02  0.12700000000E+01 0. -1.
         25    2    1    2    0    0  0.00000000000E+00  0.00000000000E+00  0.66212030329E+02  0.14145391548E+03  0.12500070898E+03 0.  0.
    9000005    1    3    3    0    0 -0.54894510498E+02  0.26427837349E+02  0.17366400545E+02  0.63359527600E+02  0.10000000000E+01 0.  0.
    9000005    1    3    3    0    0  0.54894510498E+02 -0.26427837349E+02  0.48845629785E+02  0.78094387883E+02  0.10000000000E+01 0.  0.
<mgrwt>
<rscale>  0 0.12500071E+03</rscale>
<asrwt>0</asrwt>
<pdfrwt beam="2">  1        4 0.57878374E-02 0.12500071E+03</pdfrwt>
<pdfrwt beam="1">  1       -4 0.15974303E-01 0.12500071E+03</pdfrwt>
<totfact> 0.10103380E+04</totfact>
</mgrwt>
</event>
<event>
 5    1  0.3188180E-002  0.1250005E+03  0.7818608E-02  0.1235069E+00
          4   -1    0    0  501    0  0.00000000000E+00  0.00000000000E+00  0.86194333150E+01  0.87124927933E+01  0.12700000000E+01 0. -1.
         -4   -1    0    0    0  501 -0.00000000000E+00 -0.00000000000E+00 -0.45066720532E+03  0.45066899477E+03  0.12700000000E+01 0. -1.
         25    2    1    2    0    0  0.00000000000E+00  0.00000000000E+00 -0.44204777200E+03  0.45938148756E+03  0.12500047354E+03 0.  0.
    9000005    1    3    3    0    0  0.53983589562E+02  0.16535332029E+02 -0.12257439603E+03  0.13495602139E+03  0.10000000000E+01 0.  0.
    9000005    1    3    3    0    0 -0.53983589562E+02 -0.16535332029E+02 -0.31947337598E+03  0.32442546618E+03  0.10000000000E+01 0.  0.
<mgrwt>
<rscale>  0 0.12500047E+03</rscale>
<asrwt>0</asrwt>
<pdfrwt beam="1">  1        4 0.13333631E-02 0.12500047E+03</pdfrwt>
<pdfrwt beam="2">  1       -4 0.69340694E-01 0.12500047E+03</pdfrwt>
<totfact> 0.59158998E+03</totfact>
</mgrwt>
</event>
<event>
 5    1  0.3188180E-002  0.1250032E+03  0.7818608E-02  0.1235064E+00
          4   -1    0    0  501    0  0.00000000000E+00  0.00000000000E+00  0.15660570039E+03  0.15661084986E+03  0.12700000000E+01 0.  1.
         -4   -1    0    0    0  501 -0.00000000000E+00 -0.00000000000E+00 -0.24922783440E+02  0.24955120404E+02  0.12700000000E+01 0.  1.
         25    2    1    2    0    0  0.00000000000E+00  0.00000000000E+00  0.13168291695E+03  0.18156597027E+03  0.12500324373E+03 0.  0.
    9000005    1    3    3    0    0 -0.16044001104E+02  0.74772190833E+01  0.15289559940E+03  0.15392005423E+03  0.10000000000E+01 0.  0.
    9000005    1    3    3    0    0  0.16044001104E+02 -0.74772190833E+01 -0.21212682455E+02  0.27645916038E+02  0.10000000000E+01 0.  0.
<mgrwt>
<rscale>  0 0.12500324E+03</rscale>
<asrwt>0</asrwt>
<pdfrwt beam="1">  1        4 0.24096068E-01 0.12500324E+03</pdfrwt>
<pdfrwt beam="2">  1       -4 0.38371579E-02 0.12500324E+03</pdfrwt>
<totfact> 0.93329093E+03</totfact>
</mgrwt>
</event>
<event>
 5    1  0.3188180E-002  0.1249963E+03  0.7818608E-02  0.1235075E+00
          4   -1    0    0  501    0  0.00000000000E+00  0.00000000000E+00  0.31436337140E+02  0.31461980116E+02  0.12700000000E+01 0.  1.
         -4   -1    0    0    0  501 -0.00000000000E+00 -0.00000000000E+00 -0.12417222490E+03  0.12417871934E+03  0.12700000000E+01 0.  1.
         25    2    1    2    0    0  0.00000000000E+00  0.00000000000E+00 -0.92735887761E+02  0.15564069946E+03  0.12499632974E+03 0.  0.
    9000005    1    3    3    0    0  0.33316456513E+02  0.12072503955E+02 -0.11045798937E+03  0.11600732322E+03  0.10000000000E+01 0.  0.
    9000005    1    3    3    0    0 -0.33316456513E+02 -0.12072503955E+02  0.17722101605E+02  0.39633376233E+02  0.10000000000E+01 0.  0.
<mgrwt>
<rscale>  0 0.12499633E+03</rscale>
<asrwt>0</asrwt>
<pdfrwt beam="1">  1        4 0.48388317E-02 0.12499633E+03</pdfrwt>
<pdfrwt beam="2">  1       -4 0.19105891E-01 0.12499633E+03</pdfrwt>
<totfact> 0.98197973E+03</totfact>
</mgrwt>
</event>
<event>
 5    1  0.3188180E-002  0.1250048E+03  0.7818608E-02  0.1235062E+00
         -4   -1    0    0    0  501 -0.00000000000E+00  0.00000000000E+00  0.52930493769E+02  0.52945727596E+02  0.12700000000E+01 0. -1.
          4   -1    0    0  501    0  0.00000000000E+00 -0.00000000000E+00 -0.73773982047E+02  0.73784912598E+02  0.12700000000E+01 0. -1.
         25    2    1    2    0    0  0.00000000000E+00  0.00000000000E+00 -0.20843488278E+02  0.12673064019E+03  0.12500481655E+03 0.  0.
    9000005    1    3    3    0    0 -0.73506974113E+01  0.61338675972E+02 -0.19990543772E+02  0.64939108114E+02  0.10000000000E+01 0.  0.
    9000005    1    3    3    0    0  0.73506974113E+01 -0.61338675972E+02 -0.85294450552E+00  0.61791532079E+02  0.10000000000E+01 0.  0.
<mgrwt>
<rscale>  0 0.12500482E+03</rscale>
<asrwt>0</asrwt>
<pdfrwt beam="2">  1        4 0.11351856E-01 0.12500482E+03</pdfrwt>
<pdfrwt beam="1">  1       -4 0.81451655E-02 0.12500482E+03</pdfrwt>
<totfact> 0.10413871E+04</totfact>
</mgrwt>
</event>
<event>
 5    1  0.3188180E-002  0.1250058E+03  0.7818608E-02  0.1235060E+00
          4   -1    0    0  501    0  0.00000000000E+00  0.00000000000E+00  0.85930676295E+02  0.85940060673E+02  0.12700000000E+01 0. -1.
         -4   -1    0    0    0  501 -0.00000000000E+00 -0.00000000000E+00 -0.45441626243E+02  0.45459369723E+02  0.12700000000E+01 0. -1.
         25    2    1    2    0    0  0.00000000000E+00  0.00000000000E+00  0.40489050052E+02  0.13139943040E+03  0.12500578840E+03 0.  0.
    9000005    1    3    3    0    0  0.64215762777E+01  0.17953243826E+02  0.82803709925E+02  0.84976526071E+02  0.10000000000E+01 0.  0.
    9000005    1    3    3    0    0 -0.64215762777E+01 -0.17953243826E+02 -0.42314659873E+02  0.46422904325E+02  0.10000000000E+01 0.  0.
<mgrwt>
<rscale>  0 0.12500579E+03</rscale>
<asrwt>0</asrwt>
<pdfrwt beam="1">  1        4 0.13222191E-01 0.12500579E+03</pdfrwt>
<pdfrwt beam="2">  1       -4 0.69931062E-02 0.12500579E+03</pdfrwt>
<totfact> 0.10313187E+04</totfact>
</mgrwt>
</event>
<event>
 5    1  0.3188180E-002  0.1250046E+03  0.7818608E-02  0.1235062E+00
          4   -1    0    0  501    0  0.00000000000E+00  0.00000000000E+00  0.20674817634E+03  0.20675207694E+03  0.12700000000E+01 0.  1.
         -4   -1    0    0    0  501 -0.00000000000E+00 -0.00000000000E+00 -0.18869731432E+02  0.18912420901E+02  0.12700000000E+01 0.  1.
         25    2    1    2    0    0  0.00000000000E+00  0.00000000000E+00  0.18787844491E+03  0.22566449784E+03  0.12500462202E+03 0.  0.
    9000005    1    3    3    0    0 -0.25340720423E+02 -0.48870726382E+02  0.14734040103E+03  0.15729174735E+03  0.10000000000E+01 0.  0.
    9000005    1    3    3    0    0  0.25340720423E+02  0.48870726382E+02  0.40538043880E+02  0.68372750496E+02  0.10000000000E+01 0.  0.
<mgrwt>
<rscale>  0 0.12500462E+03</rscale>
<asrwt>0</asrwt>
<pdfrwt beam="1">  1        4 0.31810995E-01 0.12500462E+03</pdfrwt>
<pdfrwt beam="2">  1       -4 0.29066195E-02 0.12500462E+03</pdfrwt>
<totfact> 0.85970925E+03</totfact>
</mgrwt>
</event>
<event>
 5    1  0.3188180E-002  0.1250048E+03  0.7818608E-02  0.1235062E+00
          4   -1    0    0  501    0  0.00000000000E+00  0.00000000000E+00  0.93925263063E+02  0.93933848753E+02  0.12700000000E+01 0. -1.
         -4   -1    0    0    0  501 -0.00000000000E+00 -0.00000000000E+00 -0.41571952580E+02  0.41591346953E+02  0.12700000000E+01 0. -1.
         25    2    1    2    0    0  0.00000000000E+00  0.00000000000E+00  0.52353310483E+02  0.13552519571E+03  0.12500483812E+03 0.  0.
    9000005    1    3    3    0    0  0.36158217437E+02  0.50764735165E+02  0.21199268762E+02  0.65839836123E+02  0.10000000000E+01 0.  0.
    9000005    1    3    3    0    0 -0.36158217437E+02 -0.50764735165E+02  0.31154041722E+02  0.69685359583E+02  0.10000000000E+01 0.  0.
<mgrwt>
<rscale>  0 0.12500484E+03</rscale>
<asrwt>0</asrwt>
<pdfrwt beam="1">  1        4 0.14452193E-01 0.12500484E+03</pdfrwt>
<pdfrwt beam="2">  1       -4 0.63978374E-02 0.12500484E+03</pdfrwt>
<totfact> 0.10225897E+04</totfact>
</mgrwt>
</event>
<event>
 5    1  0.3188180E-002  0.1250001E+03  0.7818608E-02  0.1235069E+00
          4   -1    0    0  501    0  0.00000000000E+00  0.00000000000E+00  0.13714469710E+02  0.13773147041E+02  0.12700000000E+01 0. -1.
         -4   -1    0    0    0  501 -0.00000000000E+00 -0.00000000000E+00 -0.28415937878E+03  0.28416221678E+03  0.12700000000E+01 0. -1.
         25    2    1    2    0    0  0.00000000000E+00  0.00000000000E+00 -0.27044490907E+03  0.29793536382E+03  0.12500012871E+03 0.  0.
    9000005    1    3    3    0    0  0.62021594957E+02  0.38921823338E+01 -0.15093006448E+03  0.16322595287E+03  0.10000000000E+01 0.  0.
    9000005    1    3    3    0    0 -0.62021594957E+02 -0.38921823338E+01 -0.11951484458E+03  0.13470941096E+03  0.10000000000E+01 0.  0.
<mgrwt>
<rscale>  0 0.12500013E+03</rscale>
<asrwt>0</asrwt>
<pdfrwt beam="1">  1        4 0.21146506E-02 0.12500013E+03</pdfrwt>
<pdfrwt beam="2">  1       -4 0.43721555E-01 0.12500013E+03</pdfrwt>
<totfact> 0.75858340E+03</totfact>
</mgrwt>
</event>
<event>
 5    1  0.3188180E-002  0.1250089E+03  0.7818608E-02  0.1235055E+00
         -4   -1    0    0    0  501 -0.00000000000E+00  0.00000000000E+00  0.13317417404E+02  0.13377836384E+02  0.12700000000E+01 0.  1.
          4   -1    0    0  501    0  0.00000000000E+00 -0.00000000000E+00 -0.29263468655E+03  0.29263744236E+03  0.12700000000E+01 0.  1.
         25    2    1    2    0    0  0.00000000000E+00  0.00000000000E+00 -0.27931726914E+03  0.30601527874E+03  0.12500885562E+03 0.  0.
    9000005    1    3    3    0    0  0.34312041142E+02 -0.46462272052E+00 -0.11795272258E+02  0.36299593513E+02  0.10000000000E+01 0.  0.
    9000005    1    3    3    0    0 -0.34312041142E+02  0.46462272052E+00 -0.26752199688E+03  0.26971568523E+03  0.10000000000E+01 0.  0.
<mgrwt>
<rscale>  0 0.12500886E+03</rscale>
<asrwt>0</asrwt>
<pdfrwt beam="2">  1        4 0.45025576E-01 0.12500886E+03</pdfrwt>
<pdfrwt beam="1">  1       -4 0.20536933E-02 0.12500886E+03</pdfrwt>
<totfact> 0.74835731E+03</totfact>
</mgrwt>
</event>
<event>
 5    1  0.3188180E-002  0.1250040E+03  0.7818608E-02  0.1235063E+00
          4   -1    0    0  501    0  0.00000000000E+00  0.00000000000E+00  0.14526903347E+02  0.14582311917E+02  0.12700000000E+01 0. -1.
         -4   -1    0    0    0  501 -0.00000000000E+00 -0.00000000000E+00 -0.26834605825E+03  0.26834906350E+03  0.12700000000E+01 0. -1.
         25    2    1    2    0    0  0.00000000000E+00  0.00000000000E+00 -0.25381915491E+03  0.28293137542E+03  0.12500399912E+03 0.  0.
    9000005    1    3    3    0    0  0.64544132499E+01  0.11273077194E+02  0.11448558873E+02  0.17343910173E+02  0.10000000000E+01 0.  0.
    9000005    1    3    3    0    0 -0.64544132499E+01 -0.11273077194E+02 -0.26526771378E+03  0.26558746524E+03  0.10000000000E+01 0.  0.
<mgrwt>
<rscale>  0 0.12500400E+03</rscale>
<asrwt>0</asrwt>
<pdfrwt beam="1">  1        4 0.22394018E-02 0.12500400E+03</pdfrwt>
<pdfrwt beam="2">  1       -4 0.41288499E-01 0.12500400E+03</pdfrwt>
<totfact> 0.77784113E+03</totfact>
</mgrwt>
</event>
<event>
 5    1  0.3188180E-002  0.1249994E+03  0.7818608E-02  0.1235070E+00
          4   -1    0    0  501    0  0.00000000000E+00  0.00000000000E+00  0.43599211636E+01  0.45411245912E+01  0.12700000000E+01 0.  1.
         -4   -1    0    0    0  501 -0.00000000000E+00 -0.00000000000E+00 -0.87751515893E+03  0.87751607794E+03  0.12700000000E+01 0.  1.
         25    2    1    2    0    0  0.00000000000E+00  0.00000000000E+00 -0.87315523777E+03  0.88205720254E+03  0.12499935723E+03 0.  0.
    9000005    1    3    3    0    0  0.61707261243E+02 -0.69637661712E+01 -0.48593762849E+03  0.48989045603E+03  0.10000000000E+01 0.  0.
    9000005    1    3    3    0    0 -0.61707261243E+02  0.69637661712E+01 -0.38721760928E+03  0.39216674650E+03  0.10000000000E+01 0.  0.
<mgrwt>
<rscale>  0 0.12499936E+03</rscale>
<asrwt>0</asrwt>
<pdfrwt beam="1">  1        4 0.68476722E-03 0.12499936E+03</pdfrwt>
<pdfrwt beam="2">  1       -4 0.13501620E+00 0.12499936E+03</pdfrwt>
<totfact> 0.34850715E+03</totfact>
</mgrwt>
</event>
<event>
 5    1  0.3188180E-002  0.1249960E+03  0.7818608E-02  0.1235076E+00
         -4   -1    0    0    0  501 -0.00000000000E+00  0.00000000000E+00  0.56345452375E+03  0.56345595501E+03  0.12700000000E+01 0.  1.
          4   -1    0    0  501    0  0.00000000000E+00 -0.00000000000E+00 -0.68726130382E+01  0.69889705946E+01  0.12700000000E+01 0.  1.
         25    2    1    2    0    0  0.00000000000E+00  0.00000000000E+00  0.55658191071E+03  0.57044492560E+03  0.12499595919E+03 0.  0.
    9000005    1    3    3    0    0  0.24524736720E+02 -0.51196504317E+02  0.15906960899E+03  0.16889844661E+03  0.10000000000E+01 0.  0.
    9000005    1    3    3    0    0 -0.24524736720E+02  0.51196504317E+02  0.39751230172E+03  0.40154647899E+03  0.10000000000E+01 0.  0.
<mgrwt>
<rscale>  0 0.12499596E+03</rscale>
<asrwt>0</asrwt>
<pdfrwt beam="2">  1        4 0.10663855E-02 0.12499596E+03</pdfrwt>
<pdfrwt beam="1">  1       -4 0.86694396E-01 0.12499596E+03</pdfrwt>
<totfact> 0.50792479E+03</totfact>
</mgrwt>
</event>
<event>
 5    1  0.3188180E-002  0.1249936E+03  0.7818608E-02  0.1235079E+00
         -4   -1    0    0    0  501 -0.00000000000E+00  0.00000000000E+00  0.11002772930E+02  0.11075825574E+02  0.12700000000E+01 0.  1.
          4   -1    0    0  501    0  0.00000000000E+00 -0.00000000000E+00 -0.35373877871E+03  0.35374105849E+03  0.12700000000E+01 0.  1.
         25    2    1    2    0    0  0.00000000000E+00  0.00000000000E+00 -0.34273600578E+03  0.36481688406E+03  0.12499355680E+03 0.  0.
    9000005    1    3    3    0    0  0.22378718879E+02  0.76052656060E+01 -0.34020330635E+03  0.34102483308E+03  0.10000000000E+01 0.  0.
    9000005    1    3    3    0    0 -0.22378718879E+02 -0.76052656060E+01 -0.25326994240E+01  0.23792050983E+02  0.10000000000E+01 0.  0.
<mgrwt>
<rscale>  0 0.12499356E+03</rscale>
<asrwt>0</asrwt>
<pdfrwt beam="2">  1        4 0.54427137E-01 0.12499356E+03</pdfrwt>
<pdfrwt beam="1">  1       -4 0.16985294E-02 0.12499356E+03</pdfrwt>
<totfact> 0.68134408E+03</totfact>
</mgrwt>
</event>
<event>
 5    1  0.3188180E-002  0.1249966E+03  0.7818608E-02  0.1235075E+00
          4   -1    0    0  501    0  0.00000000000E+00  0.00000000000E+00  0.46457450818E+01  0.48162067403E+01  0.12700000000E+01 0.  1.
         -4   -1    0    0    0  501 -0.00000000000E+00 -0.00000000000E+00 -0.82545942372E+03  0.82546040069E+03  0.12700000000E+01 0.  1.
         25    2    1    2    0    0  0.00000000000E+00  0.00000000000E+00 -0.82081367864E+03  0.83027660743E+03  0.12499659918E+03 0.  0.
    9000005    1    3    3    0    0 -0.54286564818E+02  0.25915702039E+02 -0.29799863513E+03  0.30401125188E+03  0.10000000000E+01 0.  0.
    9000005    1    3    3    0    0  0.54286564818E+02 -0.25915702039E+02 -0.52281504351E+03  0.52626535555E+03  0.10000000000E+01 0.  0.
<mgrwt>
<rscale>  0 0.12499660E+03</rscale>
<asrwt>0</asrwt>
<pdfrwt beam="1">  1        4 0.72791826E-03 0.12499660E+03</pdfrwt>
<pdfrwt beam="2">  1       -4 0.12700683E+00 0.12499660E+03</pdfrwt>
<totfact> 0.36951063E+03</totfact>
</mgrwt>
</event>
<event>
 5    1  0.3188180E-002  0.1249998E+03  0.7818608E-02  0.1235070E+00
          4   -1    0    0  501    0  0.00000000000E+00  0.00000000000E+00  0.11017942845E+03  0.11018674764E+03  0.12700000000E+01 0.  1.
         -4   -1    0    0    0  501 -0.00000000000E+00 -0.00000000000E+00 -0.35433524563E+02  0.35456276778E+02  0.12700000000E+01 0.  1.
         25    2    1    2    0    0  0.00000000000E+00  0.00000000000E+00  0.74745903891E+02  0.14564302441E+03  0.12499976165E+03 0.  0.
    9000005    1    3    3    0    0  0.39666994871E+02 -0.35059027797E+02  0.76062641669E+02  0.92677566702E+02  0.10000000000E+01 0.  0.
    9000005    1    3    3    0    0 -0.39666994871E+02  0.35059027797E+02 -0.13167377786E+01  0.52965457711E+02  0.10000000000E+01 0.  0.
<mgrwt>
<rscale>  0 0.12499976E+03</rscale>
<asrwt>0</asrwt>
<pdfrwt beam="1">  1        4 0.16952995E-01 0.12499976E+03</pdfrwt>
<pdfrwt beam="2">  1       -4 0.54536246E-02 0.12499976E+03</pdfrwt>
<totfact> 0.10017994E+04</totfact>
</mgrwt>
</event>
<event>
 5    1  0.3188180E-002  0.1249968E+03  0.7818608E-02  0.1235074E+00
         -4   -1    0    0    0  501 -0.00000000000E+00  0.00000000000E+00  0.71990146165E+01  0.73101786195E+01  0.12700000000E+01 0.  1.
          4   -1    0    0  501    0  0.00000000000E+00 -0.00000000000E+00 -0.53831240694E+03  0.53831390505E+03  0.12700000000E+01 0.  1.
         25    2    1    2    0    0  0.00000000000E+00  0.00000000000E+00 -0.53111339232E+03  0.54562408367E+03  0.12499682064E+03 0.  0.
    9000005    1    3    3    0    0 -0.51693763339E+02 -0.34780249532E+02 -0.28655478094E+03  0.29325168952E+03  0.10000000000E+01 0.  0.
    9000005    1    3    3    0    0  0.51693763339E+02  0.34780249532E+02 -0.24455861138E+03  0.25237239415E+03  0.10000000000E+01 0.  0.
<mgrwt>
<rscale>  0 0.12499682E+03</rscale>
<asrwt>0</asrwt>
<pdfrwt beam="2">  1        4 0.82825928E-01 0.12499682E+03</pdfrwt>
<pdfrwt beam="1">  1       -4 0.11162074E-02 0.12499682E+03</pdfrwt>
<totfact> 0.52494161E+03</totfact>
</mgrwt>
</event>
<event>
 5    1  0.3188180E-002  0.1250180E+03  0.7818608E-02  0.1235041E+00
         -4   -1    0    0    0  501 -0.00000000000E+00  0.00000000000E+00  0.29027500362E+02  0.29055269354E+02  0.12700000000E+01 0.  1.
          4   -1    0    0  501    0  0.00000000000E+00 -0.00000000000E+00 -0.13451433772E+03  0.13452033285E+03  0.12700000000E+01 0.  1.
         25    2    1    2    0    0  0.00000000000E+00  0.00000000000E+00 -0.10548683735E+03  0.16357560221E+03  0.12501801783E+03 0.  0.
    9000005    1    3    3    0    0 -0.39142098974E+02 -0.48724915510E+02 -0.53258363557E+02  0.82119879398E+02  0.10000000000E+01 0.  0.
    9000005    1    3    3    0    0  0.39142098974E+02  0.48724915510E+02 -0.52228473798E+02  0.81455722811E+02  0.10000000000E+01 0.  0.
<mgrwt>
<rscale>  0 0.12501802E+03</rscale>
<asrwt>0</asrwt>
<pdfrwt beam="2">  1        4 0.20697110E-01 0.12501802E+03</pdfrwt>
<pdfrwt beam="1">  1       -4 0.44683666E-02 0.12501802E+03</pdfrwt>
<totfact> 0.96618713E+03</totfact>
</mgrwt>
</event>
<event>
 5    1  0.3188180E-002  0.1249978E+03  0.7818608E-02  0.1235073E+00
          4   -1    0    0  501    0  0.00000000000E+00  0.00000000000E+00  0.95378451546E+03  0.95378536098E+03  0.12700000000E+01 0. -1.
         -4   -1    0    0    0  501 -0.00000000000E+00 -0.00000000000E+00 -0.39960595234E+01  0.41930170182E+01  0.12700000000E+01 0. -1.
         25    2    1    2    0    0  0.00000000000E+00  0.00000000000E+00  0.94978845593E+03  0.95797837800E+03  0.12499784675E+03 0.  0.
    9000005    1    3    3    0    0  0.27876302176E+02  0.52455706755E+02  0.32620038073E+03  0.33156655106E+03  0.10000000000E+01 0.  0.
    9000005    1    3    3    0    0 -0.27876302176E+02 -0.52455706755E+02  0.62358807521E+03  0.62641182694E+03  0.10000000000E+01 0.  0.
<mgrwt>
<rscale>  0 0.12499785E+03</rscale>
<asrwt>0</asrwt>
<pdfrwt beam="1">  1        4 0.14675160E+00 0.12499785E+03</pdfrwt>
<pdfrwt beam="2">  1       -4 0.62999270E-03 0.12499785E+03</pdfrwt>
<totfact> 0.32035823E+03</totfact>
</mgrwt>
</event>
<event>
 5    1  0.3188180E-002  0.1249987E+03  0.7818608E-02  0.1235071E+00
          4   -1    0    0  501    0  0.00000000000E+00  0.00000000000E+00  0.41980792753E+02  0.41999998335E+02  0.12700000000E+01 0. -1.
         -4   -1    0    0    0  501 -0.00000000000E+00 -0.00000000000E+00 -0.93001762876E+02  0.93010433812E+02  0.12700000000E+01 0. -1.
         25    2    1    2    0    0  0.00000000000E+00  0.00000000000E+00 -0.51020970123E+02  0.13501043215E+03  0.12499870958E+03 0.  0.
    9000005    1    3    3    0    0 -0.21009644040E+02  0.56237044023E+02 -0.67665926431E+01  0.60421825851E+02  0.10000000000E+01 0.  0.
    9000005    1    3    3    0    0  0.21009644040E+02 -0.56237044023E+02 -0.44254377480E+02  0.74588606297E+02  0.10000000000E+01 0.  0.
<mgrwt>
<rscale>  0 0.12499871E+03</rscale>
<asrwt>0</asrwt>
<pdfrwt beam="1">  1        4 0.64607279E-02 0.12499871E+03</pdfrwt>
<pdfrwt beam="2">  1       -4 0.14310108E-01 0.12499871E+03</pdfrwt>
<totfact> 0.10238149E+04</totfact>
</mgrwt>
</event>
<event>
 5    1  0.3188180E-002  0.1249997E+03  0.7818608E-02  0.1235070E+00
         -4   -1    0    0    0  501 -0.00000000000E+00  0.00000000000E+00  0.11385180935E+03  0.11385889247E+03  0.12700000000E+01 0.  1.
          4   -1    0    0  501    0  0.00000000000E+00 -0.00000000000E+00 -0.34289904633E+02  0.34313415157E+02  0.12700000000E+01 0.  1.
         25    2    1    2    0    0  0.00000000000E+00  0.00000000000E+00  0.79561904722E+02  0.14817230762E+03  0.12499974425E+03 0.  0.
    9000005    1    3    3    0    0  0.20667094004E+02 -0.23752881396E+02 -0.24206626685E+02  0.39727684613E+02  0.10000000000E+01 0.  0.
    9000005    1    3    3    0    0 -0.20667094004E+02  0.23752881396E+02  0.10376853141E+03  0.10844462301E+03  0.10000000000E+01 0.  0.
<mgrwt>
<rscale>  0 0.12499974E+03</rscale>
<asrwt>0</asrwt>
<pdfrwt beam="2">  1        4 0.52777234E-02 0.12499974E+03</pdfrwt>
<pdfrwt beam="1">  1       -4 0.17518016E-01 0.12499974E+03</pdfrwt>
<totfact> 0.99669850E+03</totfact>
</mgrwt>
</event>
<event>
 5    1  0.3188180E-002  0.1250007E+03  0.7818608E-02  0.1235068E+00
         -4   -1    0    0    0  501 -0.00000000000E+00  0.00000000000E+00  0.24278709694E+02  0.24311903348E+02  0.12700000000E+01 0. -1.
          4   -1    0    0  501    0  0.00000000000E+00 -0.00000000000E+00 -0.16074809933E+03  0.16075311611E+03  0.12700000000E+01 0. -1.
         25    2    1    2    0    0  0.00000000000E+00  0.00000000000E+00 -0.13646938964E+03  0.18506501946E+03  0.12500066847E+03 0.  0.
    9000005    1    3    3    0    0 -0.24519509182E+02  0.19231963969E+02  0.11962304155E+02  0.33394183465E+02  0.10000000000E+01 0.  0.
    9000005    1    3    3    0    0  0.24519509182E+02 -0.19231963969E+02 -0.14843169379E+03  0.15167083599E+03  0.10000000000E+01 0.  0.
<mgrwt>
<rscale>  0 0.12500067E+03</rscale>
<asrwt>0</asrwt>
<pdfrwt beam="2">  1        4 0.24733415E-01 0.12500067E+03</pdfrwt>
<pdfrwt beam="1">  1       -4 0.37381255E-02 0.12500067E+03</pdfrwt>
<totfact> 0.92711758E+03</totfact>
</mgrwt>
</event>
<event>
 5    1  0.3188180E-002  0.1250029E+03  0.7818608E-02  0.1235065E+00
          4   -1    0    0  501    0  0.00000000000E+00  0.00000000000E+00  0.15681572554E+02  0.15732915107E+02  0.12700000000E+01 0. -1.
         -4   -1    0    0    0  501 -0.00000000000E+00 -0.00000000000E+00 -0.24864942834E+03  0.24865267164E+03  0.12700000000E+01 0. -1.
         25    2    1    2    0    0  0.00000000000E+00  0.00000000000E+00 -0.23296785579E+03  0.26438558675E+03  0.12500286657E+03 0.  0.
    9000005    1    3    3    0    0 -0.47395381209E+02 -0.39601809741E+02 -0.13663831049E+03  0.14995217034E+03  0.10000000000E+01 0.  0.
    9000005    1    3    3    0    0  0.47395381209E+02  0.39601809741E+02 -0.96329545295E+02  0.11443341641E+03  0.10000000000E+01 0.  0.
<mgrwt>
<rscale>  0 0.12500287E+03</rscale>
<asrwt>0</asrwt>
<pdfrwt beam="1">  1        4 0.24167487E-02 0.12500287E+03</pdfrwt>
<pdfrwt beam="2">  1       -4 0.38257954E-01 0.12500287E+03</pdfrwt>
<totfact> 0.80289398E+03</totfact>
</mgrwt>
</event>
<event>
 5    1  0.3188180E-002  0.1249613E+03  0.7818608E-02  0.1235130E+00
          4   -1    0    0  501    0  0.00000000000E+00  0.00000000000E+00  0.12065039792E+03  0.12065708192E+03  0.12700000000E+01 0.  1.
         -4   -1    0    0    0  501 -0.00000000000E+00 -0.00000000000E+00 -0.32336515783E+02  0.32361445471E+02  0.12700000000E+01 0.  1.
         25    2    1    2    0    0  0.00000000000E+00  0.00000000000E+00  0.88313882133E+02  0.15301852739E+03  0.12496130580E+03 0.  0.
    9000005    1    3    3    0    0  0.13065956320E+02 -0.48063790319E+02 -0.20190202255E+01  0.49859037265E+02  0.10000000000E+01 0.  0.
    9000005    1    3    3    0    0 -0.13065956320E+02  0.48063790319E+02  0.90332902359E+02  0.10315949013E+03  0.10000000000E+01 0.  0.
<mgrwt>
<rscale>  0 0.12496131E+03</rscale>
<asrwt>0</asrwt>
<pdfrwt beam="1">  1        4 0.18564031E-01 0.12496131E+03</pdfrwt>
<pdfrwt beam="2">  1       -4 0.49772804E-02 0.12496131E+03</pdfrwt>
<totfact> 0.98791344E+03</totfact>
</mgrwt>
</event>
<event>
 5    1  0.3188180E-002  0.1249996E+03  0.7818608E-02  0.1235070E+00
         -4   -1    0    0    0  501 -0.00000000000E+00  0.00000000000E+00  0.33170356272E+03  0.33170599395E+03  0.12700000000E+01 0. -1.
          4   -1    0    0  501    0  0.00000000000E+00 -0.00000000000E+00 -0.11739534163E+02  0.11808029571E+02  0.12700000000E+01 0. -1.
         25    2    1    2    0    0  0.00000000000E+00  0.00000000000E+00  0.31996402856E+03  0.34351402352E+03  0.12499961913E+03 0.  0.
    9000005    1    3    3    0    0  0.15662040398E+02 -0.47817259601E+02  0.58136934307E+02  0.76894037193E+02  0.10000000000E+01 0.  0.
    9000005    1    3    3    0    0 -0.15662040398E+02  0.47817259601E+02  0.26182709425E+03  0.26661998633E+03  0.10000000000E+01 0.  0.
<mgrwt>
<rscale>  0 0.12499962E+03</rscale>
<asrwt>0</asrwt>
<pdfrwt beam="2">  1        4 0.18115381E-02 0.12499962E+03</pdfrwt>
<pdfrwt beam="1">  1       -4 0.51036773E-01 0.12499962E+03</pdfrwt>
<totfact> 0.70444628E+03</totfact>
</mgrwt>
</event>
<event>
 5    1  0.3188180E-002  0.1249922E+03  0.7818608E-02  0.1235082E+00
         -4   -1    0    0    0  501 -0.00000000000E+00  0.00000000000E+00  0.97386845365E+01  0.98211443580E+01  0.12700000000E+01 0.  1.
          4   -1    0    0  501    0  0.00000000000E+00 -0.00000000000E+00 -0.39928201401E+03  0.39928403376E+03  0.12700000000E+01 0.  1.
         25    2    1    2    0    0  0.00000000000E+00  0.00000000000E+00 -0.38954332948E+03  0.40910517812E+03  0.12499216464E+03 0.  0.
    9000005    1    3    3    0    0  0.38477862343E+02  0.22138884699E+02 -0.33871444127E+03  0.34161257124E+03  0.10000000000E+01 0.  0.
    9000005    1    3    3    0    0 -0.38477862343E+02 -0.22138884699E+02 -0.50828888203E+02  0.67492606870E+02  0.10000000000E+01 0.  0.
<mgrwt>
<rscale>  0 0.12499216E+03</rscale>
<asrwt>0</asrwt>
<pdfrwt beam="2">  1        4 0.61434488E-01 0.12499216E+03</pdfrwt>
<pdfrwt beam="1">  1       -4 0.15047579E-02 0.12499216E+03</pdfrwt>
<totfact> 0.63687778E+03</totfact>
</mgrwt>
</event>
<event>
 5    1  0.3188180E-002  0.1249983E+03  0.7818608E-02  0.1235072E+00
         -4   -1    0    0    0  501 -0.00000000000E+00  0.00000000000E+00  0.11558631975E+02  0.11628193029E+02  0.12700000000E+01 0. -1.
          4   -1    0    0  501    0  0.00000000000E+00 -0.00000000000E+00 -0.33685697908E+03  0.33685937312E+03  0.12700000000E+01 0. -1.
         25    2    1    2    0    0  0.00000000000E+00  0.00000000000E+00 -0.32529834711E+03  0.34848756615E+03  0.12499827650E+03 0.  0.
    9000005    1    3    3    0    0  0.39071465076E+02  0.18017354260E+02 -0.28899965784E+03  0.29218659564E+03  0.10000000000E+01 0.  0.
    9000005    1    3    3    0    0 -0.39071465076E+02 -0.18017354260E+02 -0.36298689266E+02  0.56300970508E+02  0.10000000000E+01 0.  0.
<mgrwt>
<rscale>  0 0.12499828E+03</rscale>
<asrwt>0</asrwt>
<pdfrwt beam="2">  1        4 0.51829678E-01 0.12499828E+03</pdfrwt>
<pdfrwt beam="1">  1       -4 0.17837863E-02 0.12499828E+03</pdfrwt>
<totfact> 0.69893932E+03</totfact>
</mgrwt>
</event>
<event>
 5    1  0.3188180E-002  0.1249997E+03  0.7818608E-02  0.1235070E+00
         -4   -1    0    0    0  501 -0.00000000000E+00  0.00000000000E+00  0.65033204871E+01  0.66261661131E+01  0.12700000000E+01 0.  1.
          4   -1    0    0  501    0  0.00000000000E+00 -0.00000000000E+00 -0.59490835733E+03  0.59490971292E+03  0.12700000000E+01 0.  1.
         25    2    1    2    0    0  0.00000000000E+00  0.00000000000E+00 -0.58840503684E+03  0.60153587903E+03  0.12499970551E+03 0.  0.
    9000005    1    3    3    0    0 -0.48633655363E+02  0.24271826764E+02 -0.44259600931E+03  0.44592216974E+03  0.10000000000E+01 0.  0.
    9000005    1    3    3    0    0  0.48633655363E+02 -0.24271826764E+02 -0.14580902753E+03  0.15561370929E+03  0.10000000000E+01 0.  0.
<mgrwt>
<rscale>  0 0.12499971E+03</rscale>
<asrwt>0</asrwt>
<pdfrwt beam="2">  1        4 0.91533874E-01 0.12499971E+03</pdfrwt>
<pdfrwt beam="1">  1       -4 0.10100653E-02 0.12499971E+03</pdfrwt>
<totfact> 0.48771136E+03</totfact>
</mgrwt>
</event>
<event>
 5    1  0.3188180E-002  0.1249992E+03  0.7818608E-02  0.1235070E+00
          4   -1    0    0  501    0  0.00000000000E+00  0.00000000000E+00  0.76052137742E+02  0.76062740913E+02  0.12700000000E+01 0.  1.
         -4   -1    0    0    0  501 -0.00000000000E+00 -0.00000000000E+00 -0.51340119627E+02  0.51355825213E+02  0.12700000000E+01 0.  1.
         25    2    1    2    0    0  0.00000000000E+00  0.00000000000E+00  0.24712018115E+02  0.12741856613E+03  0.12499922861E+03 0.  0.
    9000005    1    3    3    0    0  0.60842757957E+02 -0.10848631329E+02  0.21790840921E+02  0.65539108519E+02  0.10000000000E+01 0.  0.
    9000005    1    3    3    0    0 -0.60842757957E+02  0.10848631329E+02  0.29211771938E+01  0.61879457606E+02  0.10000000000E+01 0.  0.
<mgrwt>
<rscale>  0 0.12499923E+03</rscale>
<asrwt>0</asrwt>
<pdfrwt beam="1">  1        4 0.11702353E-01 0.12499923E+03</pdfrwt>
<pdfrwt beam="2">  1       -4 0.79005037E-02 0.12499923E+03</pdfrwt>
<totfact> 0.10400246E+04</totfact>
</mgrwt>
</event>
<event>
 5    1  0.3188180E-002  0.1250032E+03  0.7818608E-02  0.1235064E+00
         -4   -1    0    0    0  501 -0.00000000000E+00  0.00000000000E+00  0.28070245448E+02  0.28098960470E+02  0.12700000000E+01 0. -1.
          4   -1    0    0  501    0  0.00000000000E+00 -0.00000000000E+00 -0.13906428408E+03  0.13907008307E+03  0.12700000000E+01 0. -1.
         25    2    1    2    0    0  0.00000000000E+00  0.00000000000E+00 -0.11099403863E+03  0.16716904354E+03  0.12500324999E+03 0.  0.
    9000005    1    3    3    0    0 -0.59446538126E+02  0.84112821234E+01 -0.78691387111E+02  0.98984720879E+02  0.10000000000E+01 0.  0.
    9000005    1    3    3    0    0  0.59446538126E+02 -0.84112821234E+01 -0.32302651519E+02  0.68184322665E+02  0.10000000000E+01 0.  0.
<mgrwt>
<rscale>  0 0.12500325E+03</rscale>
<asrwt>0</asrwt>
<pdfrwt beam="2">  1        4 0.21397160E-01 0.12500325E+03</pdfrwt>
<pdfrwt beam="1">  1       -4 0.43211543E-02 0.12500325E+03</pdfrwt>
<totfact> 0.95971174E+03</totfact>
</mgrwt>
</event>
<event>
 5    1  0.3188180E-002  0.1250125E+03  0.7818608E-02  0.1235050E+00
         -4   -1    0    0    0  501 -0.00000000000E+00  0.00000000000E+00  0.25941877232E+02  0.25972945430E+02  0.12700000000E+01 0.  1.
          4   -1    0    0  501    0  0.00000000000E+00 -0.00000000000E+00 -0.15048322780E+03  0.15048858677E+03  0.12700000000E+01 0.  1.
         25    2    1    2    0    0  0.00000000000E+00  0.00000000000E+00 -0.12454135057E+03  0.17646153220E+03  0.12501249676E+03 0.  0.
    9000005    1    3    3    0    0 -0.24763633427E+02  0.46803686491E+02 -0.10913350297E+03  0.12130516922E+03  0.10000000000E+01 0.  0.
    9000005    1    3    3    0    0  0.24763633427E+02 -0.46803686491E+02 -0.15407847598E+02  0.55156362980E+02  0.10000000000E+01 0.  0.
<mgrwt>
<rscale>  0 0.12501250E+03</rscale>
<asrwt>0</asrwt>
<pdfrwt beam="2">  1        4 0.23154067E-01 0.12501250E+03</pdfrwt>
<pdfrwt beam="1">  1       -4 0.39938602E-02 0.12501250E+03</pdfrwt>
<totfact> 0.94231429E+03</totfact>
</mgrwt>
</event>
<event>
 5    1  0.3188180E-002  0.1250006E+03  0.7818608E-02  0.1235068E+00
         -4   -1    0    0    0  501 -0.00000000000E+00  0.00000000000E+00  0.23527714488E+02  0.23561966153E+02  0.12700000000E+01 0.  1.
          4   -1    0    0  501    0  0.00000000000E+00 -0.00000000000E+00 -0.16587185477E+03  0.16587671659E+03  0.12700000000E+01 0.  1.
         25    2    1    2    0    0  0.00000000000E+00  0.00000000000E+00 -0.14234414028E+03  0.18943868274E+03  0.12500064098E+03 0.  0.
    9000005    1    3    3    0    0 -0.47728522727E+02  0.37265571459E+02 -0.94579353778E+02  0.11230756368E+03  0.10000000000E+01 0.  0.
    9000005    1    3    3    0    0  0.47728522727E+02 -0.37265571459E+02 -0.47764786506E+02  0.77131119063E+02  0.10000000000E+01 0.  0.
<mgrwt>
<rscale>  0 0.12500064E+03</rscale>
<asrwt>0</asrwt>
<pdfrwt beam="2">  1        4 0.25521755E-01 0.12500064E+03</pdfrwt>
<pdfrwt beam="1">  1       -4 0.36226572E-02 0.12500064E+03</pdfrwt>
<totfact> 0.91943754E+03</totfact>
</mgrwt>
</event>
<event>
 5    1  0.3188180E-002  0.1249956E+03  0.7818608E-02  0.1235076E+00
         -4   -1    0    0    0  501 -0.00000000000E+00  0.00000000000E+00  0.30145328673E+02  0.30172068885E+02  0.12700000000E+01 0.  1.
          4   -1    0    0  501    0  0.00000000000E+00 -0.00000000000E+00 -0.12948411763E+03  0.12949034566E+03  0.12700000000E+01 0.  1.
         25    2    1    2    0    0  0.00000000000E+00  0.00000000000E+00 -0.99338788959E+02  0.15966241454E+03  0.12499556643E+03 0.  0.
    9000005    1    3    3    0    0  0.50721268631E+01  0.62000410244E+02 -0.42091438880E+02  0.75116353534E+02  0.10000000000E+01 0.  0.
    9000005    1    3    3    0    0 -0.50721268631E+01 -0.62000410244E+02 -0.57247350079E+02  0.84546061011E+02  0.10000000000E+01 0.  0.
<mgrwt>
<rscale>  0 0.12499557E+03</rscale>
<asrwt>0</asrwt>
<pdfrwt beam="2">  1        4 0.19923169E-01 0.12499557E+03</pdfrwt>
<pdfrwt beam="1">  1       -4 0.46402789E-02 0.12499557E+03</pdfrwt>
<totfact> 0.97417616E+03</totfact>
</mgrwt>
</event>
<event>
 5    1  0.3188180E-002  0.1250011E+03  0.7818608E-02  0.1235068E+00
          4   -1    0    0  501    0  0.00000000000E+00  0.00000000000E+00  0.45422737411E+03  0.45422914954E+03  0.12700000000E+01 0. -1.
         -4   -1    0    0    0  501 -0.00000000000E+00 -0.00000000000E+00 -0.85512281765E+01  0.86450218812E+01  0.12700000000E+01 0. -1.
         25    2    1    2    0    0  0.00000000000E+00  0.00000000000E+00  0.44567614593E+03  0.46287417142E+03  0.12500108605E+03 0.  0.
    9000005    1    3    3    0    0  0.22737110904E+02 -0.18375108101E+02  0.18311988704E+02  0.34510139674E+02  0.10000000000E+01 0.  0.
    9000005    1    3    3    0    0 -0.22737110904E+02  0.18375108101E+02  0.42736415723E+03  0.42836403175E+03  0.10000000000E+01 0.  0.
<mgrwt>
<rscale>  0 0.12500109E+03</rscale>
<asrwt>0</asrwt>
<pdfrwt beam="1">  1        4 0.69888500E-01 0.12500109E+03</pdfrwt>
<pdfrwt beam="2">  1       -4 0.13229248E-02 0.12500109E+03</pdfrwt>
<totfact> 0.58863092E+03</totfact>
</mgrwt>
</event>
<event>
 5    1  0.3188180E-002  0.1250009E+03  0.7818608E-02  0.1235068E+00
         -4   -1    0    0    0  501 -0.00000000000E+00  0.00000000000E+00  0.78061417921E+02  0.78071748205E+02  0.12700000000E+01 0. -1.
          4   -1    0    0  501    0  0.00000000000E+00 -0.00000000000E+00 -0.50019717785E+02  0.50035837829E+02  0.12700000000E+01 0. -1.
         25    2    1    2    0    0  0.00000000000E+00  0.00000000000E+00  0.28041700136E+02  0.12810758603E+03  0.12500086661E+03 0.  0.
    9000005    1    3    3    0    0  0.16469671007E+02 -0.59266072324E+02  0.27201594038E+01  0.61580164493E+02  0.10000000000E+01 0.  0.
    9000005    1    3    3    0    0 -0.16469671007E+02  0.59266072324E+02  0.25321540732E+02  0.66527421541E+02  0.10000000000E+01 0.  0.
<mgrwt>
<rscale>  0 0.12500087E+03</rscale>
<asrwt>0</asrwt>
<pdfrwt beam="2">  1        4 0.76973759E-02 0.12500087E+03</pdfrwt>
<pdfrwt beam="1">  1       -4 0.12011483E-01 0.12500087E+03</pdfrwt>
<totfact> 0.10384962E+04</totfact>
</mgrwt>
</event>
<event>
 5    1  0.3188180E-002  0.1249988E+03  0.7818608E-02  0.1235071E+00
          4   -1    0    0  501    0  0.00000000000E+00  0.00000000000E+00  0.14329878545E+01  0.19147726212E+01  0.12700000000E+01 0.  1.
         -4   -1    0    0    0  501 -0.00000000000E+00 -0.00000000000E+00 -0.23331234919E+04  0.23331238376E+04  0.12700000000E+01 0.  1.
         25    2    1    2    0    0  0.00000000000E+00  0.00000000000E+00 -0.23316905040E+04  0.23350386102E+04  0.12499881738E+03 0.  0.
    9000005    1    3    3    0    0  0.34415035092E+02 -0.45837053331E+02 -0.16308902998E+04  0.16318975458E+04  0.10000000000E+01 0.  0.
    9000005    1    3    3    0    0 -0.34415035092E+02  0.45837053331E+02 -0.70080020428E+03  0.70314106438E+03  0.10000000000E+01 0.  0.
<mgrwt>
<rscale>  0 0.12499882E+03</rscale>
<asrwt>0</asrwt>
<pdfrwt beam="1">  1        4 0.25754849E-03 0.12499882E+03</pdfrwt>
<pdfrwt beam="2">  1       -4 0.35897656E+00 0.12499882E+03</pdfrwt>
<totfact> 0.60982306E+02</totfact>
</mgrwt>
</event>
<event>
 5    1  0.3188180E-002  0.1250014E+03  0.7818608E-02  0.1235067E+00
         -4   -1    0    0    0  501 -0.00000000000E+00  0.00000000000E+00  0.13750909780E+03  0.13751496238E+03  0.12700000000E+01 0.  1.
          4   -1    0    0  501    0  0.00000000000E+00 -0.00000000000E+00 -0.28387183494E+02  0.28415578240E+02  0.12700000000E+01 0.  1.
         25    2    1    2    0    0  0.00000000000E+00  0.00000000000E+00  0.10912191431E+03  0.16593054062E+03  0.12500140851E+03 0.  0.
    9000005    1    3    3    0    0 -0.40295081293E+02 -0.26646639530E+02  0.10718480225E+03  0.11757261079E+03  0.10000000000E+01 0.  0.
    9000005    1    3    3    0    0  0.40295081293E+02  0.26646639530E+02  0.19371120628E+01  0.48357929834E+02  0.10000000000E+01 0.  0.
<mgrwt>
<rscale>  0 0.12500141E+03</rscale>
<asrwt>0</asrwt>
<pdfrwt beam="2">  1        4 0.43698943E-02 0.12500141E+03</pdfrwt>
<pdfrwt beam="1">  1       -4 0.21157881E-01 0.12500141E+03</pdfrwt>
<totfact> 0.96208408E+03</totfact>
</mgrwt>
</event>
<event>
 5    1  0.3188180E-002  0.1250045E+03  0.7818608E-02  0.1235062E+00
          4   -1    0    0  501    0  0.00000000000E+00  0.00000000000E+00  0.47309631452E+02  0.47326674594E+02  0.12700000000E+01 0. -1.
         -4   -1    0    0    0  501 -0.00000000000E+00 -0.00000000000E+00 -0.82536880376E+02  0.82546650581E+02  0.12700000000E+01 0. -1.
         25    2    1    2    0    0  0.00000000000E+00  0.00000000000E+00 -0.35227248924E+02  0.12987332518E+03  0.12500448602E+03 0.  0.
    9000005    1    3    3    0    0 -0.39486888415E+02  0.12102414211E+02  0.31115730013E+02  0.51719159319E+02  0.10000000000E+01 0.  0.
    9000005    1    3    3    0    0  0.39486888415E+02 -0.12102414211E+02 -0.66342978937E+02  0.78154165856E+02  0.10000000000E+01 0.  0.
<mgrwt>
<rscale>  0 0.12500449E+03</rscale>
<asrwt>0</asrwt>
<pdfrwt beam="1">  1        4 0.72804674E-02 0.12500449E+03</pdfrwt>
<pdfrwt beam="2">  1       -4 0.12700044E-01 0.12500449E+03</pdfrwt>
<totfact> 0.10346170E+04</totfact>
</mgrwt>
</event>
<event>
 5    1  0.3188180E-002  0.1250245E+03  0.7818608E-02  0.1235031E+00
         -4   -1    0    0    0  501 -0.00000000000E+00  0.00000000000E+00  0.19271504625E+02  0.19313306048E+02  0.12700000000E+01 0. -1.
          4   -1    0    0  501    0  0.00000000000E+00 -0.00000000000E+00 -0.20251164586E+03  0.20251562806E+03  0.12700000000E+01 0. -1.
         25    2    1    2    0    0  0.00000000000E+00  0.00000000000E+00 -0.18324014124E+03  0.22182893411E+03  0.12502450419E+03 0.  0.
    9000005    1    3    3    0    0  0.20229192346E+02 -0.23823003091E+02 -0.18766153777E+03  0.19024880671E+03  0.10000000000E+01 0.  0.
    9000005    1    3    3    0    0 -0.20229192346E+02  0.23823003091E+02  0.44213965274E+01  0.31580127398E+02  0.10000000000E+01 0.  0.
<mgrwt>
<rscale>  0 0.12502450E+03</rscale>
<asrwt>0</asrwt>
<pdfrwt beam="2">  1        4 0.31159158E-01 0.12502450E+03</pdfrwt>
<pdfrwt beam="1">  1       -4 0.29683688E-02 0.12502450E+03</pdfrwt>
<totfact> 0.86532406E+03</totfact>
</mgrwt>
</event>
<event>
 5    1  0.3188180E-002  0.1249997E+03  0.7818608E-02  0.1235070E+00
         -4   -1    0    0    0  501 -0.00000000000E+00  0.00000000000E+00  0.95938142477E+01  0.96775085544E+01  0.12700000000E+01 0.  1.
          4   -1    0    0  501    0  0.00000000000E+00 -0.00000000000E+00 -0.40530828922E+03  0.40531027893E+03  0.12700000000E+01 0.  1.
         25    2    1    2    0    0  0.00000000000E+00  0.00000000000E+00 -0.39571447497E+03  0.41498778749E+03  0.12499967225E+03 0.  0.
    9000005    1    3    3    0    0  0.38869356850E+02 -0.31373076604E+01 -0.35739489802E+02  0.52905394173E+02  0.10000000000E+01 0.  0.
    9000005    1    3    3    0    0 -0.38869356850E+02  0.31373076604E+01 -0.35997498517E+03  0.36208239331E+03  0.10000000000E+01 0.  0.
<mgrwt>
<rscale>  0 0.12499967E+03</rscale>
<asrwt>0</asrwt>
<pdfrwt beam="2">  1        4 0.62361699E-01 0.12499967E+03</pdfrwt>
<pdfrwt beam="1">  1       -4 0.14825628E-02 0.12499967E+03</pdfrwt>
<totfact> 0.63121201E+03</totfact>
</mgrwt>
</event>
<event>
 5    1  0.3188180E-002  0.1249886E+03  0.7818608E-02  0.1235087E+00
         -4   -1    0    0    0  501 -0.00000000000E+00  0.00000000000E+00  0.41265891789E+01  0.43175963511E+01  0.12700000000E+01 0. -1.
          4   -1    0    0  501    0  0.00000000000E+00 -0.00000000000E+00 -0.92483283754E+03  0.92483370953E+03  0.12700000000E+01 0. -1.
         25    2    1    2    0    0  0.00000000000E+00  0.00000000000E+00 -0.92070624836E+03  0.92915130588E+03  0.12498861332E+03 0.  0.
    9000005    1    3    3    0    0 -0.39460391822E+02 -0.45116791855E+02 -0.32906744123E+03  0.33448322575E+03  0.10000000000E+01 0.  0.
    9000005    1    3    3    0    0  0.39460391822E+02  0.45116791855E+02 -0.59163880713E+03  0.59466808014E+03  0.10000000000E+01 0.  0.
<mgrwt>
<rscale>  0 0.12498861E+03</rscale>
<asrwt>0</asrwt>
<pdfrwt beam="2">  1        4 0.14229657E+00 0.12498861E+03</pdfrwt>
<pdfrwt beam="1">  1       -4 0.64962054E-03 0.12498861E+03</pdfrwt>
<totfact> 0.33076192E+03</totfact>
</mgrwt>
</event>
<event>
 5    1  0.3188180E-002  0.1249887E+03  0.7818608E-02  0.1235087E+00
          4   -1    0    0  501    0  0.00000000000E+00  0.00000000000E+00  0.36459303127E+03  0.36459524318E+03  0.12700000000E+01 0. -1.
         -4   -1    0    0    0  501 -0.00000000000E+00 -0.00000000000E+00 -0.10672169125E+02  0.10747469183E+02  0.12700000000E+01 0. -1.
         25    2    1    2    0    0  0.00000000000E+00  0.00000000000E+00  0.35392086215E+03  0.37534271237E+03  0.12498869975E+03 0.  0.
    9000005    1    3    3    0    0  0.11842517436E+02  0.28217182565E+02  0.34056510588E+03  0.34193865817E+03  0.10000000000E+01 0.  0.
    9000005    1    3    3    0    0 -0.11842517436E+02 -0.28217182565E+02  0.13355756269E+02  0.33404054194E+02  0.10000000000E+01 0.  0.
<mgrwt>
<rscale>  0 0.12498870E+03</rscale>
<asrwt>0</asrwt>
<pdfrwt beam="1">  1        4 0.56097193E-01 0.12498870E+03</pdfrwt>
<pdfrwt beam="2">  1       -4 0.16478348E-02 0.12498870E+03</pdfrwt>
<totfact> 0.67040413E+03</totfact>
</mgrwt>
</event>
<event>
 5    1  0.3188180E-002  0.1249861E+03  0.7818608E-02  0.1235091E+00
          4   -1    0    0  501    0  0.00000000000E+00  0.00000000000E+00  0.27834834331E+03  0.27835124056E+03  0.12700000000E+01 0. -1.
         -4   -1    0    0    0  501 -0.00000000000E+00 -0.00000000000E+00 -0.13998846767E+02  0.14056337034E+02  0.12700000000E+01 0. -1.
         25    2    1    2    0    0  0.00000000000E+00  0.00000000000E+00  0.26434949654E+03  0.29240757760E+03  0.12498613969E+03 0.  0.
    9000005    1    3    3    0    0 -0.43044871390E+02  0.42072287400E+02  0.17142332304E+03  0.18168625155E+03  0.10000000000E+01 0.  0.
    9000005    1    3    3    0    0  0.43044871390E+02 -0.42072287400E+02  0.92926173505E+02  0.11072132605E+03  0.10000000000E+01 0.  0.
<mgrwt>
<rscale>  0 0.12498614E+03</rscale>
<asrwt>0</asrwt>
<pdfrwt beam="1">  1        4 0.42827463E-01 0.12498614E+03</pdfrwt>
<pdfrwt beam="2">  1       -4 0.21583141E-02 0.12498614E+03</pdfrwt>
<totfact> 0.76584771E+03</totfact>
</mgrwt>
</event>
<event>
 5    1  0.3188180E-002  0.1249961E+03  0.7818608E-02  0.1235075E+00
         -4   -1    0    0    0  501 -0.00000000000E+00  0.00000000000E+00  0.17373118922E+03  0.17373583110E+03  0.12700000000E+01 0. -1.
          4   -1    0    0  501    0  0.00000000000E+00 -0.00000000000E+00 -0.22460167261E+02  0.22496044394E+02  0.12700000000E+01 0. -1.
         25    2    1    2    0    0  0.00000000000E+00  0.00000000000E+00  0.15127102196E+03  0.19623187549E+03  0.12499610744E+03 0.  0.
    9000005    1    3    3    0    0  0.43362083578E+00  0.24662551382E+02 -0.14501820096E+02  0.28630966694E+02  0.10000000000E+01 0.  0.
    9000005    1    3    3    0    0 -0.43362083578E+00 -0.24662551382E+02  0.16577284205E+03  0.16760090880E+03  0.10000000000E+01 0.  0.
<mgrwt>
<rscale>  0 0.12499611E+03</rscale>
<asrwt>0</asrwt>
<pdfrwt beam="2">  1        4 0.34585273E-02 0.12499611E+03</pdfrwt>
<pdfrwt beam="1">  1       -4 0.26730991E-01 0.12499611E+03</pdfrwt>
<totfact> 0.90782063E+03</totfact>
</mgrwt>
</event>
<event>
 5    1  0.3188180E-002  0.1249909E+03  0.7818608E-02  0.1235083E+00
         -4   -1    0    0    0  501 -0.00000000000E+00  0.00000000000E+00  0.34015647279E+03  0.34015884360E+03  0.12700000000E+01 0. -1.
          4   -1    0    0  501    0  0.00000000000E+00 -0.00000000000E+00 -0.11444485608E+02  0.11514736247E+02  0.12700000000E+01 0. -1.
         25    2    1    2    0    0  0.00000000000E+00  0.00000000000E+00  0.32871198718E+03  0.35167357985E+03  0.12499094466E+03 0.  0.
    9000005    1    3    3    0    0  0.41868616430E+02  0.34876167167E+02  0.78306234981E+02  0.95405421832E+02  0.10000000000E+01 0.  0.
    9000005    1    3    3    0    0 -0.41868616430E+02 -0.34876167167E+02  0.25040575220E+03  0.25626815801E+03  0.10000000000E+01 0.  0.
<mgrwt>
<rscale>  0 0.12499094E+03</rscale>
<asrwt>0</asrwt>
<pdfrwt beam="2">  1        4 0.17662768E-02 0.12499094E+03</pdfrwt>
<pdfrwt beam="1">  1       -4 0.52337338E-01 0.12499094E+03</pdfrwt>
<totfact> 0.69554777E+03</totfact>
</mgrwt>
</event>
<event>
 5    1  0.3188180E-002  0.1250056E+03  0.7818608E-02  0.1235061E+00
          4   -1    0    0  501    0  0.00000000000E+00  0.00000000000E+00  0.70481807208E+01  0.71616863568E+01  0.12700000000E+01 0.  1.
         -4   -1    0    0    0  501 -0.00000000000E+00 -0.00000000000E+00 -0.54972873322E+03  0.54973020022E+03  0.12700000000E+01 0.  1.
         25    2    1    2    0    0  0.00000000000E+00  0.00000000000E+00 -0.54268055250E+03  0.55689188658E+03  0.12500556495E+03 0.  0.
    9000005    1    3    3    0    0  0.24443372823E+02 -0.53342546930E+02 -0.36716720127E+03  0.37182745929E+03  0.10000000000E+01 0.  0.
    9000005    1    3    3    0    0 -0.24443372823E+02  0.53342546930E+02 -0.17551335123E+03  0.18506442729E+03  0.10000000000E+01 0.  0.
<mgrwt>
<rscale>  0 0.12500556E+03</rscale>
<asrwt>0</asrwt>
<pdfrwt beam="1">  1        4 0.10931800E-02 0.12500556E+03</pdfrwt>
<pdfrwt beam="2">  1       -4 0.84582462E-01 0.12500556E+03</pdfrwt>
<totfact> 0.51700612E+03</totfact>
</mgrwt>
</event>
<event>
 5    1  0.3188180E-002  0.1250006E+03  0.7818608E-02  0.1235068E+00
         -4   -1    0    0    0  501 -0.00000000000E+00  0.00000000000E+00  0.15954225117E+02  0.16004693033E+02  0.12700000000E+01 0. -1.
          4   -1    0    0  501    0  0.00000000000E+00 -0.00000000000E+00 -0.24440480050E+03  0.24440810013E+03  0.12700000000E+01 0. -1.
         25    2    1    2    0    0  0.00000000000E+00  0.00000000000E+00 -0.22845057538E+03  0.26041279316E+03  0.12500062979E+03 0.  0.
    9000005    1    3    3    0    0  0.35933390214E+02  0.24084320566E+02 -0.20818212730E+03  0.21263127982E+03  0.10000000000E+01 0.  0.
    9000005    1    3    3    0    0 -0.35933390214E+02 -0.24084320566E+02 -0.20268448080E+02  0.47781513339E+02  0.10000000000E+01 0.  0.
<mgrwt>
<rscale>  0 0.12500063E+03</rscale>
<asrwt>0</asrwt>
<pdfrwt beam="2">  1        4 0.37604872E-01 0.12500063E+03</pdfrwt>
<pdfrwt beam="1">  1       -4 0.24586323E-02 0.12500063E+03</pdfrwt>
<totfact> 0.80847034E+03</totfact>
</mgrwt>
</event>
<event>
 5    1  0.3188180E-002  0.1249808E+03  0.7818608E-02  0.1235099E+00
         -4   -1    0    0    0  501 -0.00000000000E+00  0.00000000000E+00  0.10532107933E+02  0.10608402213E+02  0.12700000000E+01 0.  1.
          4   -1    0    0  501    0  0.00000000000E+00 -0.00000000000E+00 -0.36936021752E+03  0.36936240088E+03  0.12700000000E+01 0.  1.
         25    2    1    2    0    0  0.00000000000E+00  0.00000000000E+00 -0.35882810959E+03  0.37997080310E+03  0.12498079443E+03 0.  0.
    9000005    1    3    3    0    0 -0.50591729156E+02  0.36572620523E+02 -0.18744056668E+03  0.19756529470E+03  0.10000000000E+01 0.  0.
    9000005    1    3    3    0    0  0.50591729156E+02 -0.36572620523E+02 -0.17138754290E+03  0.18240550840E+03  0.10000000000E+01 0.  0.
<mgrwt>
<rscale>  0 0.12498079E+03</rscale>
<asrwt>0</asrwt>
<pdfrwt beam="2">  1        4 0.56830676E-01 0.12498079E+03</pdfrwt>
<pdfrwt beam="1">  1       -4 0.16263613E-02 0.12498079E+03</pdfrwt>
<totfact> 0.66576801E+03</totfact>
</mgrwt>
</event>
<event>
 5    1  0.3188180E-002  0.1249981E+03  0.7818608E-02  0.1235072E+00
          4   -1    0    0  501    0  0.00000000000E+00  0.00000000000E+00  0.48131502914E+02  0.48148255137E+02  0.12700000000E+01 0. -1.
         -4   -1    0    0    0  501 -0.00000000000E+00 -0.00000000000E+00 -0.81119611629E+02  0.81129552512E+02  0.12700000000E+01 0. -1.
         25    2    1    2    0    0  0.00000000000E+00  0.00000000000E+00 -0.32988108715E+02  0.12927780765E+03  0.12499814492E+03 0.  0.
    9000005    1    3    3    0    0  0.38732314727E+01 -0.48966524909E+02 -0.56448463733E+02  0.74834160258E+02  0.10000000000E+01 0.  0.
    9000005    1    3    3    0    0 -0.38732314727E+01  0.48966524909E+02  0.23460355018E+02  0.54443647391E+02  0.10000000000E+01 0.  0.
<mgrwt>
<rscale>  0 0.12499814E+03</rscale>
<asrwt>0</asrwt>
<pdfrwt beam="1">  1        4 0.74068999E-02 0.12499814E+03</pdfrwt>
<pdfrwt beam="2">  1       -4 0.12481994E-01 0.12499814E+03</pdfrwt>
<totfact> 0.10360415E+04</totfact>
</mgrwt>
</event>
<event>
 5    1  0.3188180E-002  0.1250000E+03  0.7818608E-02  0.1235069E+00
         -4   -1    0    0    0  501 -0.00000000000E+00  0.00000000000E+00  0.29346267342E+02  0.29373734984E+02  0.12700000000E+01 0. -1.
          4   -1    0    0  501    0  0.00000000000E+00 -0.00000000000E+00 -0.13301624066E+03  0.13302230331E+03  0.12700000000E+01 0. -1.
         25    2    1    2    0    0  0.00000000000E+00  0.00000000000E+00 -0.10366997332E+03  0.16239603830E+03  0.12500003955E+03 0.  0.
    9000005    1    3    3    0    0 -0.26212329721E+02  0.17313899971E+02 -0.12201885867E+03  0.12600182234E+03  0.10000000000E+01 0.  0.
    9000005    1    3    3    0    0  0.26212329721E+02 -0.17313899971E+02  0.18348885353E+02  0.36394215959E+02  0.10000000000E+01 0.  0.
<mgrwt>
<rscale>  0 0.12500004E+03</rscale>
<asrwt>0</asrwt>
<pdfrwt beam="2">  1        4 0.20466616E-01 0.12500004E+03</pdfrwt>
<pdfrwt beam="1">  1       -4 0.45173897E-02 0.12500004E+03</pdfrwt>
<totfact> 0.96882741E+03</totfact>
</mgrwt>
</event>
<event>
 5    1  0.3188180E-002  0.1250014E+03  0.7818608E-02  0.1235067E+00
         -4   -1    0    0    0  501 -0.00000000000E+00  0.00000000000E+00  0.65979124015E+02  0.65991345689E+02  0.12700000000E+01 0.  1.
          4   -1    0    0  501    0  0.00000000000E+00 -0.00000000000E+00 -0.59181143649E+02  0.59194768887E+02  0.12700000000E+01 0.  1.
         25    2    1    2    0    0  0.00000000000E+00  0.00000000000E+00  0.67979803663E+01  0.12518611458E+03  0.12500140297E+03 0.  0.
    9000005    1    3    3    0    0 -0.27970190684E+02 -0.31445553523E+02 -0.42866495948E+02  0.60080703043E+02  0.10000000000E+01 0.  0.
    9000005    1    3    3    0    0  0.27970190684E+02  0.31445553523E+02  0.49664476314E+02  0.65105411533E+02  0.10000000000E+01 0.  0.
<mgrwt>
<rscale>  0 0.12500140E+03</rscale>
<asrwt>0</asrwt>
<pdfrwt beam="2">  1        4 0.91067796E-02 0.12500140E+03</pdfrwt>
<pdfrwt beam="1">  1       -4 0.10152623E-01 0.12500140E+03</pdfrwt>
<totfact> 0.10448490E+04</totfact>
</mgrwt>
</event>
<event>
 5    1  0.3188180E-002  0.1250338E+03  0.7818608E-02  0.1235016E+00
          4   -1    0    0  501    0  0.00000000000E+00  0.00000000000E+00  0.74514424995E+02  0.74525246946E+02  0.12700000000E+01 0.  1.
         -4   -1    0    0    0  501 -0.00000000000E+00 -0.00000000000E+00 -0.52428798528E+02  0.52444178086E+02  0.12700000000E+01 0.  1.
         25    2    1    2    0    0  0.00000000000E+00  0.00000000000E+00  0.22085626467E+02  0.12696942503E+03  0.12503383541E+03 0.  0.
    9000005    1    3    3    0    0 -0.45720627056E+02 -0.40583889223E+02  0.24280613496E+02  0.65787354367E+02  0.10000000000E+01 0.  0.
    9000005    1    3    3    0    0  0.45720627056E+02  0.40583889223E+02 -0.21949870289E+01  0.61182070665E+02  0.10000000000E+01 0.  0.
<mgrwt>
<rscale>  0 0.12503384E+03</rscale>
<asrwt>0</asrwt>
<pdfrwt beam="1">  1        4 0.11465773E-01 0.12503384E+03</pdfrwt>
<pdfrwt beam="2">  1       -4 0.80679845E-02 0.12503384E+03</pdfrwt>
<totfact> 0.10401863E+04</totfact>
</mgrwt>
</event>
<event>
 5    1  0.3188180E-002  0.1250182E+03  0.7818608E-02  0.1235041E+00
         -4   -1    0    0    0  501 -0.00000000000E+00  0.00000000000E+00  0.55087466991E+01  0.56532459875E+01  0.12700000000E+01 0.  1.
          4   -1    0    0  501    0  0.00000000000E+00 -0.00000000000E+00 -0.69997855048E+03  0.69997970258E+03  0.12700000000E+01 0.  1.
         25    2    1    2    0    0  0.00000000000E+00  0.00000000000E+00 -0.69446980378E+03  0.70563294857E+03  0.12501819767E+03 0.  0.
    9000005    1    3    3    0    0  0.29585865439E+02 -0.48795729364E+02 -0.49113991573E+03  0.49444490437E+03  0.10000000000E+01 0.  0.
    9000005    1    3    3    0    0 -0.29585865439E+02  0.48795729364E+02 -0.20332988805E+03  0.21118804420E+03  0.10000000000E+01 0.  0.
<mgrwt>
<rscale>  0 0.12501820E+03</rscale>
<asrwt>0</asrwt>
<pdfrwt beam="2">  1        4 0.10770014E+00 0.12501820E+03</pdfrwt>
<pdfrwt beam="1">  1       -4 0.85870400E-03 0.12501820E+03</pdfrwt>
<totfact> 0.42773995E+03</totfact>
</mgrwt>
</event>
<event>
 5    1  0.3188180E-002  0.1250028E+03  0.7818608E-02  0.1235065E+00
          4   -1    0    0  501    0  0.00000000000E+00  0.00000000000E+00  0.75719970414E+01  0.76777626425E+01  0.12700000000E+01 0.  1.
         -4   -1    0    0    0  501 -0.00000000000E+00 -0.00000000000E+00 -0.51221945906E+03  0.51222103348E+03  0.12700000000E+01 0.  1.
         25    2    1    2    0    0  0.00000000000E+00  0.00000000000E+00 -0.50464746202E+03  0.51989879612E+03  0.12500278912E+03 0.  0.
    9000005    1    3    3    0    0 -0.44938997429E+02  0.38044727761E+02 -0.33941780831E+03  0.34448855337E+03  0.10000000000E+01 0.  0.
    9000005    1    3    3    0    0  0.44938997429E+02 -0.38044727761E+02 -0.16522965371E+03  0.17541024276E+03  0.10000000000E+01 0.  0.
<mgrwt>
<rscale>  0 0.12500279E+03</rscale>
<asrwt>0</asrwt>
<pdfrwt beam="1">  1        4 0.11731799E-02 0.12500279E+03</pdfrwt>
<pdfrwt beam="2">  1       -4 0.78811224E-01 0.12500279E+03</pdfrwt>
<totfact> 0.54349536E+03</totfact>
</mgrwt>
</event>
<event>
 5    1  0.3188180E-002  0.1250008E+03  0.7818608E-02  0.1235068E+00
         -4   -1    0    0    0  501 -0.00000000000E+00  0.00000000000E+00  0.11105028098E+03  0.11105754276E+03  0.12700000000E+01 0.  1.
          4   -1    0    0  501    0  0.00000000000E+00 -0.00000000000E+00 -0.35156059785E+02  0.35178991453E+02  0.12700000000E+01 0.  1.
         25    2    1    2    0    0  0.00000000000E+00  0.00000000000E+00  0.75894221190E+02  0.14623653422E+03  0.12500076452E+03 0.  0.
    9000005    1    3    3    0    0  0.73498256914E+01 -0.51313076545E+01  0.11030001301E+03  0.11066816672E+03  0.10000000000E+01 0.  0.
    9000005    1    3    3    0    0 -0.73498256914E+01  0.51313076545E+01 -0.34405791816E+02  0.35568367497E+02  0.10000000000E+01 0.  0.
<mgrwt>
<rscale>  0 0.12500076E+03</rscale>
<asrwt>0</asrwt>
<pdfrwt beam="2">  1        4 0.54109472E-02 0.12500076E+03</pdfrwt>
<pdfrwt beam="1">  1       -4 0.17086981E-01 0.12500076E+03</pdfrwt>
<totfact> 0.10005753E+04</totfact>
</mgrwt>
</event>
<event>
 5    1  0.3188180E-002  0.1249881E+03  0.7818608E-02  0.1235088E+00
          4   -1    0    0  501    0  0.00000000000E+00  0.00000000000E+00  0.25916694945E+03  0.25917006114E+03  0.12700000000E+01 0.  1.
         -4   -1    0    0    0  501 -0.00000000000E+00 -0.00000000000E+00 -0.15039492670E+02  0.15093019571E+02  0.12700000000E+01 0.  1.
         25    2    1    2    0    0  0.00000000000E+00  0.00000000000E+00  0.24412745678E+03  0.27426308071E+03  0.12498808857E+03 0.  0.
    9000005    1    3    3    0    0 -0.93763955982E+01  0.28252355744E+02  0.15083395002E+01  0.29822600281E+02  0.10000000000E+01 0.  0.
    9000005    1    3    3    0    0  0.93763955982E+01 -0.28252355744E+02  0.24261911728E+03  0.24444048043E+03  0.10000000000E+01 0.  0.
<mgrwt>
<rscale>  0 0.12498809E+03</rscale>
<asrwt>0</asrwt>
<pdfrwt beam="1">  1        4 0.39876196E-01 0.12498809E+03</pdfrwt>
<pdfrwt beam="2">  1       -4 0.23181249E-02 0.12498809E+03</pdfrwt>
<totfact> 0.78965893E+03</totfact>
</mgrwt>
</event>
<event>
 5    1  0.3188180E-002  0.1250019E+03  0.7818608E-02  0.1235066E+00
         -4   -1    0    0    0  501 -0.00000000000E+00  0.00000000000E+00  0.97077983585E+01  0.97905183198E+01  0.12700000000E+01 0. -1.
          4   -1    0    0  501    0  0.00000000000E+00 -0.00000000000E+00 -0.40060405904E+03  0.40060607212E+03  0.12700000000E+01 0. -1.
         25    2    1    2    0    0  0.00000000000E+00  0.00000000000E+00 -0.39089626068E+03  0.41039659044E+03  0.12500189930E+03 0.  0.
    9000005    1    3    3    0    0 -0.47353859872E+02 -0.19108838032E+02 -0.31372410453E+03  0.31785428973E+03  0.10000000000E+01 0.  0.
    9000005    1    3    3    0    0  0.47353859872E+02  0.19108838032E+02 -0.77172156149E+02  0.92542300708E+02  0.10000000000E+01 0.  0.
<mgrwt>
<rscale>  0 0.12500190E+03</rscale>
<asrwt>0</asrwt>
<pdfrwt beam="2">  1        4 0.61637899E-01 0.12500190E+03</pdfrwt>
<pdfrwt beam="1">  1       -4 0.15000257E-02 0.12500190E+03</pdfrwt>
<totfact> 0.63551378E+03</totfact>
</mgrwt>
</event>
<event>
 5    1  0.3188180E-002  0.1249967E+03  0.7818608E-02  0.1235074E+00
          4   -1    0    0  501    0  0.00000000000E+00  0.00000000000E+00  0.37409665404E+02  0.37431216460E+02  0.12700000000E+01 0.  1.
         -4   -1    0    0    0  501 -0.00000000000E+00 -0.00000000000E+00 -0.10435727244E+03  0.10436499993E+03  0.12700000000E+01 0.  1.
         25    2    1    2    0    0  0.00000000000E+00  0.00000000000E+00 -0.66947607037E+02  0.14179621639E+03  0.12499673954E+03 0.  0.
    9000005    1    3    3    0    0  0.50292771313E+02  0.33197068492E+02 -0.52239045896E+02  0.79757921982E+02  0.10000000000E+01 0.  0.
    9000005    1    3    3    0    0 -0.50292771313E+02 -0.33197068492E+02 -0.14708561141E+02  0.62038294413E+02  0.10000000000E+01 0.  0.
<mgrwt>
<rscale>  0 0.12499674E+03</rscale>
<asrwt>0</asrwt>
<pdfrwt beam="1">  1        4 0.57575854E-02 0.12499674E+03</pdfrwt>
<pdfrwt beam="2">  1       -4 0.16057217E-01 0.12499674E+03</pdfrwt>
<totfact> 0.10097235E+04</totfact>
</mgrwt>
</event>
<event>
 5    1  0.3188180E-002  0.1250046E+03  0.7818608E-02  0.1235062E+00
          4   -1    0    0  501    0  0.00000000000E+00  0.00000000000E+00  0.64508476727E+02  0.64520976974E+02  0.12700000000E+01 0.  1.
         -4   -1    0    0    0  501 -0.00000000000E+00 -0.00000000000E+00 -0.60533517935E+02  0.60546838841E+02  0.12700000000E+01 0.  1.
         25    2    1    2    0    0  0.00000000000E+00  0.00000000000E+00  0.39749587924E+01  0.12506781581E+03  0.12500463293E+03 0.  0.
    9000005    1    3    3    0    0  0.20322733366E+02 -0.27744242602E+02  0.54194147560E+02  0.64193162555E+02  0.10000000000E+01 0.  0.
    9000005    1    3    3    0    0 -0.20322733366E+02  0.27744242602E+02 -0.50219188767E+02  0.60874653260E+02  0.10000000000E+01 0.  0.
<mgrwt>
<rscale>  0 0.12500463E+03</rscale>
<asrwt>0</asrwt>
<pdfrwt beam="1">  1        4 0.99263673E-02 0.12500463E+03</pdfrwt>
<pdfrwt beam="2">  1       -4 0.93148352E-02 0.12500463E+03</pdfrwt>
<totfact> 0.10450296E+04</totfact>
</mgrwt>
</event>
<event>
 5    1  0.3188180E-002  0.1250025E+03  0.7818608E-02  0.1235065E+00
         -4   -1    0    0    0  501 -0.00000000000E+00  0.00000000000E+00  0.67705822396E+02  0.67717732437E+02  0.12700000000E+01 0.  1.
          4   -1    0    0  501    0  0.00000000000E+00 -0.00000000000E+00 -0.57672758047E+02  0.57686739557E+02  0.12700000000E+01 0.  1.
         25    2    1    2    0    0  0.00000000000E+00  0.00000000000E+00  0.10033064349E+02  0.12540447199E+03  0.12500247684E+03 0.  0.
    9000005    1    3    3    0    0 -0.31752387315E+02  0.25117955142E+02 -0.42742013797E+02  0.58881283224E+02  0.10000000000E+01 0.  0.
    9000005    1    3    3    0    0  0.31752387315E+02 -0.25117955142E+02  0.52775078146E+02  0.66523188770E+02  0.10000000000E+01 0.  0.
<mgrwt>
<rscale>  0 0.12500248E+03</rscale>
<asrwt>0</asrwt>
<pdfrwt beam="2">  1        4 0.88747236E-02 0.12500248E+03</pdfrwt>
<pdfrwt beam="1">  1       -4 0.10418272E-01 0.12500248E+03</pdfrwt>
<totfact> 0.10443484E+04</totfact>
</mgrwt>
</event>
<event>
 5    1  0.3188180E-002  0.1249788E+03  0.7818608E-02  0.1235102E+00
          4   -1    0    0  501    0  0.00000000000E+00  0.00000000000E+00  0.44661777243E+02  0.44679830421E+02  0.12700000000E+01 0. -1.
         -4   -1    0    0    0  501 -0.00000000000E+00 -0.00000000000E+00 -0.87392951680E+02  0.87402179054E+02  0.12700000000E+01 0. -1.
         25    2    1    2    0    0  0.00000000000E+00  0.00000000000E+00 -0.42731174437E+02  0.13208200947E+03  0.12497881404E+03 0.  0.
    9000005    1    3    3    0    0  0.19928120028E+02  0.23405964166E+02  0.36122331437E+02  0.47442512105E+02  0.10000000000E+01 0.  0.
    9000005    1    3    3    0    0 -0.19928120028E+02 -0.23405964166E+02 -0.78853505874E+02  0.84639497370E+02  0.10000000000E+01 0.  0.
<mgrwt>
<rscale>  0 0.12497881E+03</rscale>
<asrwt>0</asrwt>
<pdfrwt beam="1">  1        4 0.68731412E-02 0.12497881E+03</pdfrwt>
<pdfrwt beam="2">  1       -4 0.13447168E-01 0.12497881E+03</pdfrwt>
<totfact> 0.10304872E+04</totfact>
</mgrwt>
</event>
<event>
 5    1  0.3188180E-002  0.1250004E+03  0.7818608E-02  0.1235069E+00
          4   -1    0    0  501    0  0.00000000000E+00  0.00000000000E+00  0.72185963726E+01  0.73294633904E+01  0.12700000000E+01 0. -1.
         -4   -1    0    0    0  501 -0.00000000000E+00 -0.00000000000E+00 -0.53690511026E+03  0.53690661229E+03  0.12700000000E+01 0. -1.
         25    2    1    2    0    0  0.00000000000E+00  0.00000000000E+00 -0.52968651389E+03  0.54423607568E+03  0.12500041232E+03 0.  0.
    9000005    1    3    3    0    0 -0.50754412095E+02 -0.23194962824E+02 -0.14237169803E+03  0.15292062335E+03  0.10000000000E+01 0.  0.
    9000005    1    3    3    0    0  0.50754412095E+02  0.23194962824E+02 -0.38731481586E+03  0.39131545233E+03  0.10000000000E+01 0.  0.
<mgrwt>
<rscale>  0 0.12500041E+03</rscale>
<asrwt>0</asrwt>
<pdfrwt beam="1">  1        4 0.11191975E-02 0.12500041E+03</pdfrwt>
<pdfrwt beam="2">  1       -4 0.82609399E-01 0.12500041E+03</pdfrwt>
<totfact> 0.52587979E+03</totfact>
</mgrwt>
</event>
<event>
 5    1  0.3188180E-002  0.1250020E+03  0.7818608E-02  0.1235066E+00
          4   -1    0    0  501    0  0.00000000000E+00  0.00000000000E+00  0.19501741782E+02  0.19543050748E+02  0.12700000000E+01 0. -1.
         -4   -1    0    0    0  501 -0.00000000000E+00 -0.00000000000E+00 -0.20005367121E+03  0.20005770234E+03  0.12700000000E+01 0. -1.
         25    2    1    2    0    0  0.00000000000E+00  0.00000000000E+00 -0.18055192943E+03  0.21960075308E+03  0.12500196613E+03 0.  0.
    9000005    1    3    3    0    0 -0.23736481368E+02  0.57540882953E+02 -0.80494774602E+02  0.10175845172E+03  0.10000000000E+01 0.  0.
    9000005    1    3    3    0    0  0.23736481368E+02 -0.57540882953E+02 -0.10005715482E+03  0.11784230136E+03  0.10000000000E+01 0.  0.
<mgrwt>
<rscale>  0 0.12500197E+03</rscale>
<asrwt>0</asrwt>
<pdfrwt beam="1">  1        4 0.30037558E-02 0.12500197E+03</pdfrwt>
<pdfrwt beam="2">  1       -4 0.30780974E-01 0.12500197E+03</pdfrwt>
<totfact> 0.86927747E+03</totfact>
</mgrwt>
</event>
<event>
 5    1  0.3188180E-002  0.1250311E+03  0.7818608E-02  0.1235021E+00
          4   -1    0    0  501    0  0.00000000000E+00  0.00000000000E+00  0.81589795539E+01  0.82572300053E+01  0.12700000000E+01 0.  1.
         -4   -1    0    0    0  501 -0.00000000000E+00 -0.00000000000E+00 -0.47603897029E+03  0.47604066437E+03  0.12700000000E+01 0.  1.
         25    2    1    2    0    0  0.00000000000E+00  0.00000000000E+00 -0.46787999074E+03  0.48429789438E+03  0.12503105521E+03 0.  0.
    9000005    1    3    3    0    0 -0.23384378187E+02  0.78263151780E+00 -0.45845642938E+03  0.45905417904E+03  0.10000000000E+01 0.  0.
    9000005    1    3    3    0    0  0.23384378187E+02 -0.78263151780E+00 -0.94235613556E+01  0.25243715335E+02  0.10000000000E+01 0.  0.
<mgrwt>
<rscale>  0 0.12503106E+03</rscale>
<asrwt>0</asrwt>
<pdfrwt beam="1">  1        4 0.12629160E-02 0.12503106E+03</pdfrwt>
<pdfrwt beam="2">  1       -4 0.73244431E-01 0.12503106E+03</pdfrwt>
<totfact> 0.57064589E+03</totfact>
</mgrwt>
</event>
<event>
 5    1  0.3188180E-002  0.1249871E+03  0.7818608E-02  0.1235089E+00
         -4   -1    0    0    0  501 -0.00000000000E+00  0.00000000000E+00  0.38996423731E+01  0.41012328193E+01  0.12700000000E+01 0. -1.
          4   -1    0    0  501    0  0.00000000000E+00 -0.00000000000E+00 -0.97605235772E+03  0.97605318395E+03  0.12700000000E+01 0. -1.
         25    2    1    2    0    0  0.00000000000E+00  0.00000000000E+00 -0.97215271534E+03  0.98015441677E+03  0.12498711441E+03 0.  0.
    9000005    1    3    3    0    0 -0.53726729874E+02 -0.39172329661E+00 -0.23590044494E+03  0.24194366054E+03  0.10000000000E+01 0.  0.
    9000005    1    3    3    0    0  0.53726729874E+02  0.39172329661E+00 -0.73625227040E+03  0.73821075624E+03  0.10000000000E+01 0.  0.
<mgrwt>
<rscale>  0 0.12498711E+03</rscale>
<asrwt>0</asrwt>
<pdfrwt beam="2">  1        4 0.15017728E+00 0.12498711E+03</pdfrwt>
<pdfrwt beam="1">  1       -4 0.61551627E-03 0.12498711E+03</pdfrwt>
<totfact> 0.31277808E+03</totfact>
</mgrwt>
</event>
<event>
 5    1  0.3188180E-002  0.1250054E+03  0.7818608E-02  0.1235061E+00
          4   -1    0    0  501    0  0.00000000000E+00  0.00000000000E+00  0.31015533599E+02  0.31041524197E+02  0.12700000000E+01 0.  1.
         -4   -1    0    0    0  501 -0.00000000000E+00 -0.00000000000E+00 -0.12587391648E+03  0.12588032313E+03  0.12700000000E+01 0.  1.
         25    2    1    2    0    0  0.00000000000E+00  0.00000000000E+00 -0.94858382885E+02  0.15692184733E+03  0.12500541334E+03 0.  0.
    9000005    1    3    3    0    0  0.51551660561E+02  0.33130074840E+02 -0.32033579552E+02  0.69154362006E+02  0.10000000000E+01 0.  0.
    9000005    1    3    3    0    0 -0.51551660561E+02 -0.33130074840E+02 -0.62824803333E+02  0.87767485320E+02  0.10000000000E+01 0.  0.
<mgrwt>
<rscale>  0 0.12500541E+03</rscale>
<asrwt>0</asrwt>
<pdfrwt beam="1">  1        4 0.47741127E-02 0.12500541E+03</pdfrwt>
<pdfrwt beam="2">  1       -4 0.19367710E-01 0.12500541E+03</pdfrwt>
<totfact> 0.97927612E+03</totfact>
</mgrwt>
</event>
<event>
 5    1  0.3188180E-002  0.1250001E+03  0.7818608E-02  0.1235069E+00
         -4   -1    0    0    0  501 -0.00000000000E+00  0.00000000000E+00  0.24604918281E+03  0.24605246039E+03  0.12700000000E+01 0. -1.
          4   -1    0    0  501    0  0.00000000000E+00 -0.00000000000E+00 -0.15847127245E+02  0.15897935146E+02  0.12700000000E+01 0. -1.
         25    2    1    2    0    0  0.00000000000E+00  0.00000000000E+00  0.23020205557E+03  0.26195039553E+03  0.12500009333E+03 0.  0.
    9000005    1    3    3    0    0  0.43786845765E+02  0.22133106276E+02  0.19621173580E+03  0.20225530283E+03  0.10000000000E+01 0.  0.
    9000005    1    3    3    0    0 -0.43786845765E+02 -0.22133106276E+02  0.33990319768E+02  0.59695092707E+02  0.10000000000E+01 0.  0.
<mgrwt>
<rscale>  0 0.12500009E+03</rscale>
<asrwt>0</asrwt>
<pdfrwt beam="2">  1        4 0.24421802E-02 0.12500009E+03</pdfrwt>
<pdfrwt beam="1">  1       -4 0.37857878E-01 0.12500009E+03</pdfrwt>
<totfact> 0.80632961E+03</totfact>
</mgrwt>
</event>
<event>
 5    1  0.3188180E-002  0.1249999E+03  0.7818608E-02  0.1235069E+00
         -4   -1    0    0    0  501 -0.00000000000E+00  0.00000000000E+00  0.56484868001E+03  0.56485010773E+03  0.12700000000E+01 0.  1.
          4   -1    0    0  501    0  0.00000000000E+00 -0.00000000000E+00 -0.68558071694E+01  0.69724451912E+01  0.12700000000E+01 0.  1.
         25    2    1    2    0    0  0.00000000000E+00  0.00000000000E+00  0.55799287284E+03  0.57182255293E+03  0.12499994358E+03 0.  0.
    9000005    1    3    3    0    0 -0.43891530069E+02  0.18773996904E+02  0.94514402689E+02  0.10589098964E+03  0.10000000000E+01 0.  0.
    9000005    1    3    3    0    0  0.43891530069E+02 -0.18773996904E+02  0.46347847015E+03  0.46593156328E+03  0.10000000000E+01 0.  0.
<mgrwt>
<rscale>  0 0.12499994E+03</rscale>
<asrwt>0</asrwt>
<pdfrwt beam="2">  1        4 0.10638214E-02 0.12499994E+03</pdfrwt>
<pdfrwt beam="1">  1       -4 0.86908887E-01 0.12499994E+03</pdfrwt>
<totfact> 0.50696027E+03</totfact>
</mgrwt>
</event>
<event>
 5    1  0.3188180E-002  0.1250017E+03  0.7818608E-02  0.1235067E+00
          4   -1    0    0  501    0  0.00000000000E+00  0.00000000000E+00  0.10919329731E+02  0.10992936904E+02  0.12700000000E+01 0.  1.
         -4   -1    0    0    0  501 -0.00000000000E+00 -0.00000000000E+00 -0.35647057798E+03  0.35647284029E+03  0.12700000000E+01 0.  1.
         25    2    1    2    0    0  0.00000000000E+00  0.00000000000E+00 -0.34555124825E+03  0.36746577719E+03  0.12500172896E+03 0.  0.
    9000005    1    3    3    0    0 -0.61641541073E+02  0.96713235103E+01 -0.18301990167E+03  0.19336622893E+03  0.10000000000E+01 0.  0.
    9000005    1    3    3    0    0  0.61641541073E+02 -0.96713235103E+01 -0.16253134657E+03  0.17409954826E+03  0.10000000000E+01 0.  0.
<mgrwt>
<rscale>  0 0.12500173E+03</rscale>
<asrwt>0</asrwt>
<pdfrwt beam="1">  1        4 0.16857333E-02 0.12500173E+03</pdfrwt>
<pdfrwt beam="2">  1       -4 0.54847455E-01 0.12500173E+03</pdfrwt>
<totfact> 0.67842310E+03</totfact>
</mgrwt>
</event>
<event>
 5    1  0.3188180E-002  0.1249989E+03  0.7818608E-02  0.1235071E+00
          4   -1    0    0  501    0  0.00000000000E+00  0.00000000000E+00  0.22680237327E+03  0.22680592898E+03  0.12700000000E+01 0. -1.
         -4   -1    0    0    0  501 -0.00000000000E+00 -0.00000000000E+00 -0.17195723546E+02  0.17242558055E+02  0.12700000000E+01 0. -1.
         25    2    1    2    0    0  0.00000000000E+00  0.00000000000E+00  0.20960664972E+03  0.24404848703E+03  0.12499886566E+03 0.  0.
    9000005    1    3    3    0    0 -0.43689449995E+02  0.40411883585E+02  0.67590108779E+02  0.90062817969E+02  0.10000000000E+01 0.  0.
    9000005    1    3    3    0    0  0.43689449995E+02 -0.40411883585E+02  0.14201654094E+03  0.15398566906E+03  0.10000000000E+01 0.  0.
<mgrwt>
<rscale>  0 0.12499887E+03</rscale>
<asrwt>0</asrwt>
<pdfrwt beam="1">  1        4 0.34896550E-01 0.12499887E+03</pdfrwt>
<pdfrwt beam="2">  1       -4 0.26493720E-02 0.12499887E+03</pdfrwt>
<totfact> 0.83200189E+03</totfact>
</mgrwt>
</event>
<event>
 5    1  0.3188180E-002  0.1249988E+03  0.7818608E-02  0.1235071E+00
          4   -1    0    0  501    0  0.00000000000E+00  0.00000000000E+00  0.60175276882E+03  0.60175410899E+03  0.12700000000E+01 0.  1.
         -4   -1    0    0    0  501 -0.00000000000E+00 -0.00000000000E+00 -0.64278507670E+01  0.65521115286E+01  0.12700000000E+01 0.  1.
         25    2    1    2    0    0  0.00000000000E+00  0.00000000000E+00  0.59532491806E+03  0.60830622052E+03  0.12499879945E+03 0.  0.
    9000005    1    3    3    0    0  0.60351809998E+02 -0.11210380483E+02  0.35465687597E+03  0.35993126187E+03  0.10000000000E+01 0.  0.
    9000005    1    3    3    0    0 -0.60351809998E+02  0.11210380483E+02  0.24066804209E+03  0.24837495864E+03  0.10000000000E+01 0.  0.
<mgrwt>
<rscale>  0 0.12499880E+03</rscale>
<asrwt>0</asrwt>
<pdfrwt beam="1">  1        4 0.92586989E-01 0.12499880E+03</pdfrwt>
<pdfrwt beam="2">  1       -4 0.99856196E-03 0.12499880E+03</pdfrwt>
<totfact> 0.48348741E+03</totfact>
</mgrwt>
</event>
<event>
 5    1  0.3188180E-002  0.1249991E+03  0.7818608E-02  0.1235071E+00
          4   -1    0    0  501    0  0.00000000000E+00  0.00000000000E+00  0.38177208277E+03  0.38177419515E+03  0.12700000000E+01 0.  1.
         -4   -1    0    0    0  501 -0.00000000000E+00 -0.00000000000E+00 -0.10190187159E+02  0.10269022073E+02  0.12700000000E+01 0.  1.
         25    2    1    2    0    0  0.00000000000E+00  0.00000000000E+00  0.37158189561E+03  0.39204321722E+03  0.12499911609E+03 0.  0.
    9000005    1    3    3    0    0 -0.14141639062E+02 -0.34572682698E+02  0.28661156028E+02  0.47092655576E+02  0.10000000000E+01 0.  0.
    9000005    1    3    3    0    0  0.14141639062E+02  0.34572682698E+02  0.34292073958E+03  0.34495056165E+03  0.10000000000E+01 0.  0.
<mgrwt>
<rscale>  0 0.12499912E+03</rscale>
<asrwt>0</asrwt>
<pdfrwt beam="1">  1        4 0.58740390E-01 0.12499912E+03</pdfrwt>
<pdfrwt beam="2">  1       -4 0.15739479E-02 0.12499912E+03</pdfrwt>
<totfact> 0.65335359E+03</totfact>
</mgrwt>
</event>
<event>
 5    1  0.3188180E-002  0.1249979E+03  0.7818608E-02  0.1235073E+00
         -4   -1    0    0    0  501 -0.00000000000E+00  0.00000000000E+00  0.53582501778E+02  0.53597550287E+02  0.12700000000E+01 0. -1.
          4   -1    0    0  501    0  0.00000000000E+00 -0.00000000000E+00 -0.72868282265E+02  0.72879348655E+02  0.12700000000E+01 0. -1.
         25    2    1    2    0    0  0.00000000000E+00  0.00000000000E+00 -0.19285780487E+02  0.12647689894E+03  0.12499785853E+03 0.  0.
    9000005    1    3    3    0    0  0.45321281434E+02  0.13654689330E+02 -0.50925744944E+02  0.69533449430E+02  0.10000000000E+01 0.  0.
    9000005    1    3    3    0    0 -0.45321281434E+02 -0.13654689330E+02  0.31639964457E+02  0.56943449512E+02  0.10000000000E+01 0.  0.
<mgrwt>
<rscale>  0 0.12499786E+03</rscale>
<asrwt>0</asrwt>
<pdfrwt beam="2">  1        4 0.11212514E-01 0.12499786E+03</pdfrwt>
<pdfrwt beam="1">  1       -4 0.82454706E-02 0.12499786E+03</pdfrwt>
<totfact> 0.10421036E+04</totfact>
</mgrwt>
</event>
<event>
 5    1  0.3188180E-002  0.1249964E+03  0.7818608E-02  0.1235075E+00
          4   -1    0    0  501    0  0.00000000000E+00  0.00000000000E+00  0.23116635804E+02  0.23151495651E+02  0.12700000000E+01 0.  1.
         -4   -1    0    0    0  501 -0.00000000000E+00 -0.00000000000E+00 -0.16880569256E+03  0.16881046987E+03  0.12700000000E+01 0.  1.
         25    2    1    2    0    0  0.00000000000E+00  0.00000000000E+00 -0.14568905675E+03  0.19196196553E+03  0.12499637975E+03 0.  0.
    9000005    1    3    3    0    0  0.19666346615E+02  0.40988476176E+02 -0.13868827457E+03  0.14595293033E+03  0.10000000000E+01 0.  0.
    9000005    1    3    3    0    0 -0.19666346615E+02 -0.40988476176E+02 -0.70007821785E+01  0.46009035194E+02  0.10000000000E+01 0.  0.
<mgrwt>
<rscale>  0 0.12499638E+03</rscale>
<asrwt>0</asrwt>
<pdfrwt beam="1">  1        4 0.35594546E-02 0.12499638E+03</pdfrwt>
<pdfrwt beam="2">  1       -4 0.25973155E-01 0.12499638E+03</pdfrwt>
<totfact> 0.91514475E+03</totfact>
</mgrwt>
</event>
<event>
 5    1  0.3188180E-002  0.1250029E+03  0.7818608E-02  0.1235065E+00
         -4   -1    0    0    0  501 -0.00000000000E+00  0.00000000000E+00  0.38771179668E+03  0.38771387670E+03  0.12700000000E+01 0.  1.
          4   -1    0    0  501    0  0.00000000000E+00 -0.00000000000E+00 -0.10033463322E+02  0.10113519972E+02  0.12700000000E+01 0.  1.
         25    2    1    2    0    0  0.00000000000E+00  0.00000000000E+00  0.37767833336E+03  0.39782739667E+03  0.12500285618E+03 0.  0.
    9000005    1    3    3    0    0 -0.39291791679E+02  0.25773805306E+02  0.57723869469E+02  0.74439096178E+02  0.10000000000E+01 0.  0.
    9000005    1    3    3    0    0  0.39291791679E+02 -0.25773805306E+02  0.31995446389E+03  0.32338830050E+03  0.10000000000E+01 0.  0.
<mgrwt>
<rscale>  0 0.12500286E+03</rscale>
<asrwt>0</asrwt>
<pdfrwt beam="2">  1        4 0.15499279E-02 0.12500286E+03</pdfrwt>
<pdfrwt beam="1">  1       -4 0.59654290E-01 0.12500286E+03</pdfrwt>
<totfact> 0.64760556E+03</totfact>
</mgrwt>
</event>
<event>
 5    1  0.3188180E-002  0.1249967E+03  0.7818608E-02  0.1235074E+00
          4   -1    0    0  501    0  0.00000000000E+00  0.00000000000E+00  0.10931387442E+04  0.10931394820E+04  0.12700000000E+01 0. -1.
         -4   -1    0    0    0  501 -0.00000000000E+00 -0.00000000000E+00 -0.34596309033E+01  0.36853691792E+01  0.12700000000E+01 0. -1.
         25    2    1    2    0    0  0.00000000000E+00  0.00000000000E+00  0.10896791133E+04  0.10968248512E+04  0.12499673625E+03 0.  0.
    9000005    1    3    3    0    0 -0.93537869940E+01  0.26321937934E+02  0.10353444529E+04  0.10357217164E+04  0.10000000000E+01 0.  0.
    9000005    1    3    3    0    0  0.93537869940E+01 -0.26321937934E+02  0.54334660426E+02  0.61103134710E+02  0.10000000000E+01 0.  0.
<mgrwt>
<rscale>  0 0.12499674E+03</rscale>
<asrwt>0</asrwt>
<pdfrwt beam="1">  1        4 0.16819242E+00 0.12499674E+03</pdfrwt>
<pdfrwt beam="2">  1       -4 0.54967276E-03 0.12499674E+03</pdfrwt>
<totfact> 0.27578499E+03</totfact>
</mgrwt>
</event>
<event>
 5    1  0.3188180E-002  0.1250016E+03  0.7818608E-02  0.1235067E+00
          4   -1    0    0  501    0  0.00000000000E+00  0.00000000000E+00  0.66035807902E+02  0.66048019087E+02  0.12700000000E+01 0. -1.
         -4   -1    0    0    0  501 -0.00000000000E+00 -0.00000000000E+00 -0.59130567157E+02  0.59144204047E+02  0.12700000000E+01 0. -1.
         25    2    1    2    0    0  0.00000000000E+00  0.00000000000E+00  0.69052407452E+01  0.12519222313E+03  0.12500164152E+03 0.  0.
    9000005    1    3    3    0    0  0.43408154754E+02 -0.48036225436E+01  0.48219874193E+02  0.65065343740E+02  0.10000000000E+01 0.  0.
    9000005    1    3    3    0    0 -0.43408154754E+02  0.48036225436E+01 -0.41314633448E+02  0.60126879394E+02  0.10000000000E+01 0.  0.
<mgrwt>
<rscale>  0 0.12500164E+03</rscale>
<asrwt>0</asrwt>
<pdfrwt beam="1">  1        4 0.10161343E-01 0.12500164E+03</pdfrwt>
<pdfrwt beam="2">  1       -4 0.90989986E-02 0.12500164E+03</pdfrwt>
<totfact> 0.10448301E+04</totfact>
</mgrwt>
</event>
<event>
 5    1  0.3188180E-002  0.1249996E+03  0.7818608E-02  0.1235070E+00
         -4   -1    0    0    0  501 -0.00000000000E+00  0.00000000000E+00  0.25160588620E+02  0.25192620342E+02  0.12700000000E+01 0. -1.
          4   -1    0    0  501    0  0.00000000000E+00 -0.00000000000E+00 -0.15511845648E+03  0.15512365532E+03  0.12700000000E+01 0. -1.
         25    2    1    2    0    0  0.00000000000E+00  0.00000000000E+00 -0.12995786786E+03  0.18031627566E+03  0.12499964740E+03 0.  0.
    9000005    1    3    3    0    0  0.59110509084E+02 -0.19816952126E+01 -0.35868014600E+02  0.69177264122E+02  0.10000000000E+01 0.  0.
    9000005    1    3    3    0    0 -0.59110509084E+02  0.19816952126E+01 -0.94089853255E+02  0.11113901154E+03  0.10000000000E+01 0.  0.
<mgrwt>
<rscale>  0 0.12499965E+03</rscale>
<asrwt>0</asrwt>
<pdfrwt beam="2">  1        4 0.23867241E-01 0.12499965E+03</pdfrwt>
<pdfrwt beam="1">  1       -4 0.38737238E-02 0.12499965E+03</pdfrwt>
<totfact> 0.93560843E+03</totfact>
</mgrwt>
</event>
<event>
 5    1  0.3188180E-002  0.1249991E+03  0.7818608E-02  0.1235071E+00
         -4   -1    0    0    0  501 -0.00000000000E+00  0.00000000000E+00  0.14946902484E+03  0.14947442017E+03  0.12700000000E+01 0. -1.
          4   -1    0    0  501    0  0.00000000000E+00 -0.00000000000E+00 -0.26112512645E+02  0.26143378064E+02  0.12700000000E+01 0. -1.
         25    2    1    2    0    0  0.00000000000E+00  0.00000000000E+00  0.12335651219E+03  0.17561779824E+03  0.12499912783E+03 0.  0.
    9000005    1    3    3    0    0 -0.55298133028E+02 -0.28698501152E+02  0.68519090005E+02  0.92614000993E+02  0.10000000000E+01 0.  0.
    9000005    1    3    3    0    0  0.55298133028E+02  0.28698501152E+02  0.54837422189E+02  0.83003797245E+02  0.10000000000E+01 0.  0.
<mgrwt>
<rscale>  0 0.12499913E+03</rscale>
<asrwt>0</asrwt>
<pdfrwt beam="2">  1        4 0.40200990E-02 0.12499913E+03</pdfrwt>
<pdfrwt beam="1">  1       -4 0.22998024E-01 0.12499913E+03</pdfrwt>
<totfact> 0.94413661E+03</totfact>
</mgrwt>
</event>
<event>
 5    1  0.3188180E-002  0.1250059E+03  0.7818608E-02  0.1235060E+00
          4   -1    0    0  501    0  0.00000000000E+00  0.00000000000E+00  0.12260120410E+03  0.12260778175E+03  0.12700000000E+01 0. -1.
         -4   -1    0    0    0  501 -0.00000000000E+00 -0.00000000000E+00 -0.31844334507E+02  0.31869649201E+02  0.12700000000E+01 0. -1.
         25    2    1    2    0    0  0.00000000000E+00  0.00000000000E+00  0.90756869589E+02  0.15447743095E+03  0.12500586905E+03 0.  0.
    9000005    1    3    3    0    0  0.19439271001E+02 -0.20101799972E+02 -0.23687797067E+02  0.36661687755E+02  0.10000000000E+01 0.  0.
    9000005    1    3    3    0    0 -0.19439271001E+02  0.20101799972E+02  0.11444466666E+03  0.11781574320E+03  0.10000000000E+01 0.  0.
<mgrwt>
<rscale>  0 0.12500587E+03</rscale>
<asrwt>0</asrwt>
<pdfrwt beam="1">  1        4 0.18864177E-01 0.12500587E+03</pdfrwt>
<pdfrwt beam="2">  1       -4 0.49015815E-02 0.12500587E+03</pdfrwt>
<totfact> 0.98405193E+03</totfact>
</mgrwt>
</event>
<event>
 5    1  0.3188180E-002  0.1249975E+03  0.7818608E-02  0.1235073E+00
          4   -1    0    0  501    0  0.00000000000E+00  0.00000000000E+00  0.80276802912E+02  0.80286848149E+02  0.12700000000E+01 0. -1.
         -4   -1    0    0    0  501 -0.00000000000E+00 -0.00000000000E+00 -0.48636469891E+02  0.48653048244E+02  0.12700000000E+01 0. -1.
         25    2    1    2    0    0  0.00000000000E+00  0.00000000000E+00  0.31640333021E+02  0.12893989639E+03  0.12499754481E+03 0.  0.
    9000005    1    3    3    0    0 -0.73047649630E+01 -0.42265923874E+02 -0.31059057900E+02  0.52966338270E+02  0.10000000000E+01 0.  0.
    9000005    1    3    3    0    0  0.73047649630E+01  0.42265923874E+02  0.62699390921E+02  0.75973558123E+02  0.10000000000E+01 0.  0.
<mgrwt>
<rscale>  0 0.12499754E+03</rscale>
<asrwt>0</asrwt>
<pdfrwt beam="1">  1        4 0.12352325E-01 0.12499754E+03</pdfrwt>
<pdfrwt beam="2">  1       -4 0.74845819E-02 0.12499754E+03</pdfrwt>
<totfact> 0.10367813E+04</totfact>
</mgrwt>
</event>
<event>
 5    1  0.3188180E-002  0.1250017E+03  0.7818608E-02  0.1235067E+00
         -4   -1    0    0    0  501 -0.00000000000E+00  0.00000000000E+00  0.21089894211E+02  0.21128098301E+02  0.12700000000E+01 0. -1.
          4   -1    0    0  501    0  0.00000000000E+00 -0.00000000000E+00 -0.18501609603E+03  0.18502045478E+03  0.12700000000E+01 0. -1.
         25    2    1    2    0    0  0.00000000000E+00  0.00000000000E+00 -0.16392620182E+03  0.20614855309E+03  0.12500170518E+03 0.  0.
    9000005    1    3    3    0    0  0.59950753705E+02 -0.11209037744E+02 -0.59494392140E+02  0.85207500216E+02  0.10000000000E+01 0.  0.
    9000005    1    3    3    0    0 -0.59950753705E+02  0.11209037744E+02 -0.10443180968E+03  0.12094105287E+03  0.10000000000E+01 0.  0.
<mgrwt>
<rscale>  0 0.12500171E+03</rscale>
<asrwt>0</asrwt>
<pdfrwt beam="2">  1        4 0.28467288E-01 0.12500171E+03</pdfrwt>
<pdfrwt beam="1">  1       -4 0.32478733E-02 0.12500171E+03</pdfrwt>
<totfact> 0.89105363E+03</totfact>
</mgrwt>
</event>
<event>
 5    1  0.3188180E-002  0.1250052E+03  0.7818608E-02  0.1235061E+00
         -4   -1    0    0    0  501 -0.00000000000E+00  0.00000000000E+00  0.39146625332E+03  0.39146831339E+03  0.12700000000E+01 0. -1.
          4   -1    0    0  501    0  0.00000000000E+00 -0.00000000000E+00 -0.99368425418E+01  0.10017671371E+02  0.12700000000E+01 0. -1.
         25    2    1    2    0    0  0.00000000000E+00  0.00000000000E+00  0.38152941078E+03  0.40148598476E+03  0.12500521857E+03 0.  0.
    9000005    1    3    3    0    0  0.42899012658E+02  0.37125995298E+02  0.27494154047E+03  0.28073566836E+03  0.10000000000E+01 0.  0.
    9000005    1    3    3    0    0 -0.42899012658E+02 -0.37125995298E+02  0.10658787031E+03  0.12075031640E+03  0.10000000000E+01 0.  0.
<mgrwt>
<rscale>  0 0.12500522E+03</rscale>
<asrwt>0</asrwt>
<pdfrwt beam="2">  1        4 0.15351209E-02 0.12500522E+03</pdfrwt>
<pdfrwt beam="1">  1       -4 0.60231961E-01 0.12500522E+03</pdfrwt>
<totfact> 0.64401094E+03</totfact>
</mgrwt>
</event>
<event>
 5    1  0.3188180E-002  0.1250083E+03  0.7818608E-02  0.1235056E+00
          4   -1    0    0  501    0  0.00000000000E+00  0.00000000000E+00  0.93555293768E+01  0.94413362360E+01  0.12700000000E+01 0. -1.
         -4   -1    0    0    0  501 -0.00000000000E+00 -0.00000000000E+00 -0.41559633771E+03  0.41559827817E+03  0.12700000000E+01 0. -1.
         25    2    1    2    0    0  0.00000000000E+00  0.00000000000E+00 -0.40624080833E+03  0.42503961440E+03  0.12500831756E+03 0.  0.
    9000005    1    3    3    0    0  0.23082705498E+02  0.56453992823E+02 -0.15676116022E+03  0.16821095669E+03  0.10000000000E+01 0.  0.
    9000005    1    3    3    0    0 -0.23082705498E+02 -0.56453992823E+02 -0.24947964811E+03  0.25682865771E+03  0.10000000000E+01 0.  0.
<mgrwt>
<rscale>  0 0.12500832E+03</rscale>
<asrwt>0</asrwt>
<pdfrwt beam="1">  1        4 0.14460623E-02 0.12500832E+03</pdfrwt>
<pdfrwt beam="2">  1       -4 0.63944634E-01 0.12500832E+03</pdfrwt>
<totfact> 0.62176808E+03</totfact>
</mgrwt>
</event>
<event>
 5    1  0.3188180E-002  0.1250020E+03  0.7818608E-02  0.1235066E+00
          4   -1    0    0  501    0  0.00000000000E+00  0.00000000000E+00  0.10686314458E+04  0.10686322005E+04  0.12700000000E+01 0. -1.
         -4   -1    0    0    0  501 -0.00000000000E+00 -0.00000000000E+00 -0.35444098311E+01  0.37650685320E+01  0.12700000000E+01 0. -1.
         25    2    1    2    0    0  0.00000000000E+00  0.00000000000E+00  0.10650870360E+04  0.10723972690E+04  0.12500203337E+03 0.  0.
    9000005    1    3    3    0    0 -0.40008571108E+02 -0.47806898511E+02  0.57012693293E+03  0.57352585379E+03  0.10000000000E+01 0.  0.
    9000005    1    3    3    0    0  0.40008571108E+02  0.47806898511E+02  0.49496010307E+03  0.49887141524E+03  0.10000000000E+01 0.  0.
<mgrwt>
<rscale>  0 0.12500203E+03</rscale>
<asrwt>0</asrwt>
<pdfrwt beam="1">  1        4 0.16442183E+00 0.12500203E+03</pdfrwt>
<pdfrwt beam="2">  1       -4 0.56232576E-03 0.12500203E+03</pdfrwt>
<totfact> 0.28304371E+03</totfact>
</mgrwt>
</event>
<event>
 5    1  0.3188180E-002  0.1249980E+03  0.7818608E-02  0.1235072E+00
         -4   -1    0    0    0  501 -0.00000000000E+00  0.00000000000E+00  0.11648839366E+02  0.11717864932E+02  0.12700000000E+01 0.  1.
          4   -1    0    0  501    0  0.00000000000E+00 -0.00000000000E+00 -0.33426212494E+03  0.33426453756E+03  0.12700000000E+01 0.  1.
         25    2    1    2    0    0  0.00000000000E+00  0.00000000000E+00 -0.32261328557E+03  0.34598240249E+03  0.12499796320E+03 0.  0.
    9000005    1    3    3    0    0 -0.39390852074E+02 -0.31336170325E+02 -0.58799672528E+02  0.77407985939E+02  0.10000000000E+01 0.  0.
    9000005    1    3    3    0    0  0.39390852074E+02  0.31336170325E+02 -0.26381361304E+03  0.26857441655E+03  0.10000000000E+01 0.  0.
<mgrwt>
<rscale>  0 0.12499796E+03</rscale>
<asrwt>0</asrwt>
<pdfrwt beam="2">  1        4 0.51430430E-01 0.12499796E+03</pdfrwt>
<pdfrwt beam="1">  1       -4 0.17976246E-02 0.12499796E+03</pdfrwt>
<totfact> 0.70171980E+03</totfact>
</mgrwt>
</event>
<event>
 5    1  0.3188180E-002  0.1250021E+03  0.7818608E-02  0.1235066E+00
         -4   -1    0    0    0  501 -0.00000000000E+00  0.00000000000E+00  0.10115651661E+03  0.10116448859E+03  0.12700000000E+01 0. -1.
          4   -1    0    0  501    0  0.00000000000E+00 -0.00000000000E+00 -0.38597235014E+02  0.38618123346E+02  0.12700000000E+01 0. -1.
         25    2    1    2    0    0  0.00000000000E+00  0.00000000000E+00  0.62559281593E+02  0.13978261194E+03  0.12500205953E+03 0.  0.
    9000005    1    3    3    0    0  0.36838943211E+02 -0.22229779990E+02  0.81960924400E+02  0.92573559852E+02  0.10000000000E+01 0.  0.
    9000005    1    3    3    0    0 -0.36838943211E+02  0.22229779990E+02 -0.19401642806E+02  0.47209052086E+02  0.10000000000E+01 0.  0.
<mgrwt>
<rscale>  0 0.12500206E+03</rscale>
<asrwt>0</asrwt>
<pdfrwt beam="2">  1        4 0.59402561E-02 0.12500206E+03</pdfrwt>
<pdfrwt beam="1">  1       -4 0.15564761E-01 0.12500206E+03</pdfrwt>
<totfact> 0.10137623E+04</totfact>
</mgrwt>
</event>
<event>
 5    1  0.3188180E-002  0.1250009E+03  0.7818608E-02  0.1235068E+00
         -4   -1    0    0    0  501 -0.00000000000E+00  0.00000000000E+00  0.20195314056E+03  0.20195713377E+03  0.12700000000E+01 0.  1.
          4   -1    0    0  501    0  0.00000000000E+00 -0.00000000000E+00 -0.19317596778E+02  0.19359298677E+02  0.12700000000E+01 0.  1.
         25    2    1    2    0    0  0.00000000000E+00  0.00000000000E+00  0.18263554378E+03  0.22131643245E+03  0.12500088568E+03 0.  0.
    9000005    1    3    3    0    0 -0.11440973749E+02  0.12269993851E+00  0.20009154951E+03  0.20042090490E+03  0.10000000000E+01 0.  0.
    9000005    1    3    3    0    0  0.11440973749E+02 -0.12269993851E+00 -0.17456005729E+02  0.20895527550E+02  0.10000000000E+01 0.  0.
<mgrwt>
<rscale>  0 0.12500089E+03</rscale>
<asrwt>0</asrwt>
<pdfrwt beam="2">  1        4 0.29754529E-02 0.12500089E+03</pdfrwt>
<pdfrwt beam="1">  1       -4 0.31073229E-01 0.12500089E+03</pdfrwt>
<totfact> 0.86658754E+03</totfact>
</mgrwt>
</event>
<event>
 5    1  0.3188180E-002  0.1250001E+03  0.7818608E-02  0.1235069E+00
         -4   -1    0    0    0  501 -0.00000000000E+00  0.00000000000E+00  0.21422370584E+03  0.21422747033E+03  0.12700000000E+01 0.  1.
          4   -1    0    0  501    0  0.00000000000E+00 -0.00000000000E+00 -0.18208427238E+02  0.18252663435E+02  0.12700000000E+01 0.  1.
         25    2    1    2    0    0  0.00000000000E+00  0.00000000000E+00  0.19601527861E+03  0.23248013377E+03  0.12500009260E+03 0.  0.
    9000005    1    3    3    0    0 -0.33971550776E+02  0.52402787748E+02  0.93792173412E+02  0.11268580310E+03  0.10000000000E+01 0.  0.
    9000005    1    3    3    0    0  0.33971550776E+02 -0.52402787748E+02  0.10222310519E+03  0.11979433067E+03  0.10000000000E+01 0.  0.
<mgrwt>
<rscale>  0 0.12500009E+03</rscale>
<asrwt>0</asrwt>
<pdfrwt beam="2">  1        4 0.28049887E-02 0.12500009E+03</pdfrwt>
<pdfrwt beam="1">  1       -4 0.32961187E-01 0.12500009E+03</pdfrwt>
<totfact> 0.84930042E+03</totfact>
</mgrwt>
</event>
<event>
 5    1  0.3188180E-002  0.1250057E+03  0.7818608E-02  0.1235060E+00
          4   -1    0    0  501    0  0.00000000000E+00  0.00000000000E+00  0.14103112160E+03  0.14103683972E+03  0.12700000000E+01 0.  1.
         -4   -1    0    0    0  501 -0.00000000000E+00 -0.00000000000E+00 -0.27679470731E+02  0.27708590725E+02  0.12700000000E+01 0.  1.
         25    2    1    2    0    0  0.00000000000E+00  0.00000000000E+00  0.11335165087E+03  0.16874543045E+03  0.12500569404E+03 0.  0.
    9000005    1    3    3    0    0  0.28695845469E+02 -0.44305969187E+02  0.11516905272E+02  0.54038038083E+02  0.10000000000E+01 0.  0.
    9000005    1    3    3    0    0 -0.28695845469E+02  0.44305969187E+02  0.10183474560E+03  0.11470739237E+03  0.10000000000E+01 0.  0.
<mgrwt>
<rscale>  0 0.12500569E+03</rscale>
<asrwt>0</asrwt>
<pdfrwt beam="1">  1        4 0.21699776E-01 0.12500569E+03</pdfrwt>
<pdfrwt beam="2">  1       -4 0.42610599E-02 0.12500569E+03</pdfrwt>
<totfact> 0.95670498E+03</totfact>
</mgrwt>
</event>
<event>
 5    1  0.3188180E-002  0.1249992E+03  0.7818608E-02  0.1235070E+00
         -4   -1    0    0    0  501 -0.00000000000E+00  0.00000000000E+00  0.20130309044E+03  0.20130709655E+03  0.12700000000E+01 0. -1.
          4   -1    0    0  501    0  0.00000000000E+00 -0.00000000000E+00 -0.19379599260E+02  0.19421168025E+02  0.12700000000E+01 0. -1.
         25    2    1    2    0    0  0.00000000000E+00  0.00000000000E+00  0.18192349118E+03  0.22072826458E+03  0.12499924055E+03 0.  0.
    9000005    1    3    3    0    0 -0.28239600951E+02 -0.52090929292E+02  0.55899208166E+02  0.81465707202E+02  0.10000000000E+01 0.  0.
    9000005    1    3    3    0    0  0.28239600951E+02  0.52090929292E+02  0.12602428302E+03  0.13926255737E+03  0.10000000000E+01 0.  0.
<mgrwt>
<rscale>  0 0.12499924E+03</rscale>
<asrwt>0</asrwt>
<pdfrwt beam="2">  1        4 0.29849828E-02 0.12499924E+03</pdfrwt>
<pdfrwt beam="1">  1       -4 0.30973210E-01 0.12499924E+03</pdfrwt>
<totfact> 0.86754715E+03</totfact>
</mgrwt>
</event>
<event>
 5    1  0.3188180E-002  0.1249966E+03  0.7818608E-02  0.1235075E+00
         -4   -1    0    0    0  501 -0.00000000000E+00  0.00000000000E+00  0.10721201450E+03  0.10721953625E+03  0.12700000000E+01 0.  1.
          4   -1    0    0  501    0  0.00000000000E+00 -0.00000000000E+00 -0.36412952584E+02  0.36435093192E+02  0.12700000000E+01 0.  1.
         25    2    1    2    0    0  0.00000000000E+00  0.00000000000E+00  0.70799061920E+02  0.14365462944E+03  0.12499658152E+03 0.  0.
    9000005    1    3    3    0    0  0.61037568376E+02  0.11704445707E+02  0.27910960311E+02  0.68136631176E+02  0.10000000000E+01 0.  0.
    9000005    1    3    3    0    0 -0.61037568376E+02 -0.11704445707E+02  0.42888101608E+02  0.75517998266E+02  0.10000000000E+01 0.  0.
<mgrwt>
<rscale>  0 0.12499658E+03</rscale>
<asrwt>0</asrwt>
<pdfrwt beam="2">  1        4 0.56042745E-02 0.12499658E+03</pdfrwt>
<pdfrwt beam="1">  1       -4 0.16496438E-01 0.12499658E+03</pdfrwt>
<totfact> 0.10059170E+04</totfact>
</mgrwt>
</event>
<event>
 5    1  0.3188180E-002  0.1250139E+03  0.7818608E-02  0.1235048E+00
          4   -1    0    0  501    0  0.00000000000E+00  0.00000000000E+00  0.64923052376E+02  0.64935472816E+02  0.12700000000E+01 0. -1.
         -4   -1    0    0    0  501 -0.00000000000E+00 -0.00000000000E+00 -0.60155843108E+02  0.60169247627E+02  0.12700000000E+01 0. -1.
         25    2    1    2    0    0  0.00000000000E+00  0.00000000000E+00  0.47672092685E+01  0.12510472044E+03  0.12501385840E+03 0.  0.
    9000005    1    3    3    0    0 -0.60113806948E+02 -0.16030007784E+02 -0.35776757836E+01  0.62325201157E+02  0.10000000000E+01 0.  0.
    9000005    1    3    3    0    0  0.60113806948E+02  0.16030007784E+02  0.83448850521E+01  0.62779519286E+02  0.10000000000E+01 0.  0.
<mgrwt>
<rscale>  0 0.12501386E+03</rscale>
<asrwt>0</asrwt>
<pdfrwt beam="1">  1        4 0.99901484E-02 0.12501386E+03</pdfrwt>
<pdfrwt beam="2">  1       -4 0.92567317E-02 0.12501386E+03</pdfrwt>
<totfact> 0.10447316E+04</totfact>
</mgrwt>
</event>
<event>
 5    1  0.3188180E-002  0.1249579E+03  0.7818608E-02  0.1235135E+00
         -4   -1    0    0    0  501 -0.00000000000E+00  0.00000000000E+00  0.73774144496E+02  0.73785075023E+02  0.12700000000E+01 0.  1.
          4   -1    0    0  501    0  0.00000000000E+00 -0.00000000000E+00 -0.52890593120E+02  0.52905838436E+02  0.12700000000E+01 0.  1.
         25    2    1    2    0    0  0.00000000000E+00  0.00000000000E+00  0.20883551376E+02  0.12669091346E+03  0.12495785223E+03 0.  0.
    9000005    1    3    3    0    0 -0.16241058657E+02  0.13988588788E+02 -0.49050522373E+02  0.53538830279E+02  0.10000000000E+01 0.  0.
    9000005    1    3    3    0    0  0.16241058657E+02 -0.13988588788E+02  0.69934073748E+02  0.73152083180E+02  0.10000000000E+01 0.  0.
<mgrwt>
<rscale>  0 0.12495785E+03</rscale>
<asrwt>0</asrwt>
<pdfrwt beam="2">  1        4 0.81390279E-02 0.12495785E+03</pdfrwt>
<pdfrwt beam="1">  1       -4 0.11351882E-01 0.12495785E+03</pdfrwt>
<totfact> 0.10425784E+04</totfact>
</mgrwt>
</event>
<event>
 5    1  0.3188180E-002  0.1250059E+03  0.7818608E-02  0.1235060E+00
          4   -1    0    0  501    0  0.00000000000E+00  0.00000000000E+00  0.41881511373E+02  0.41900762462E+02  0.12700000000E+01 0. -1.
         -4   -1    0    0    0  501 -0.00000000000E+00 -0.00000000000E+00 -0.93232882010E+02  0.93241531454E+02  0.12700000000E+01 0. -1.
         25    2    1    2    0    0  0.00000000000E+00  0.00000000000E+00 -0.51351370638E+02  0.13514229392E+03  0.12500590521E+03 0.  0.
    9000005    1    3    3    0    0 -0.14010630675E+02  0.56106207930E+02 -0.51291175099E+02  0.77304521105E+02  0.10000000000E+01 0.  0.
    9000005    1    3    3    0    0  0.14010630675E+02 -0.56106207930E+02 -0.60195538491E-01  0.57837772811E+02  0.10000000000E+01 0.  0.
<mgrwt>
<rscale>  0 0.12500591E+03</rscale>
<asrwt>0</asrwt>
<pdfrwt beam="1">  1        4 0.64454557E-02 0.12500591E+03</pdfrwt>
<pdfrwt beam="2">  1       -4 0.14345666E-01 0.12500591E+03</pdfrwt>
<totfact> 0.10233710E+04</totfact>
</mgrwt>
</event>
<event>
 5    1  0.3188180E-002  0.1250180E+03  0.7818608E-02  0.1235041E+00
         -4   -1    0    0    0  501 -0.00000000000E+00  0.00000000000E+00  0.18065286663E+02  0.18109872507E+02  0.12700000000E+01 0.  1.
          4   -1    0    0  501    0  0.00000000000E+00 -0.00000000000E+00 -0.21597896777E+03  0.21598270167E+03  0.12700000000E+01 0.  1.
         25    2    1    2    0    0  0.00000000000E+00  0.00000000000E+00 -0.19791368111E+03  0.23409257417E+03  0.12501803116E+03 0.  0.
    9000005    1    3    3    0    0  0.55422580280E+02 -0.21519497650E+02 -0.13505357685E+03  0.14756429041E+03  0.10000000000E+01 0.  0.
    9000005    1    3    3    0    0 -0.55422580280E+02  0.21519497650E+02 -0.62860104256E+02  0.86528283763E+02  0.10000000000E+01 0.  0.
<mgrwt>
<rscale>  0 0.12501803E+03</rscale>
<asrwt>0</asrwt>
<pdfrwt beam="2">  1        4 0.33231248E-01 0.12501803E+03</pdfrwt>
<pdfrwt beam="1">  1       -4 0.27829919E-02 0.12501803E+03</pdfrwt>
<totfact> 0.84651067E+03</totfact>
</mgrwt>
</event>
<event>
 5    1  0.3188180E-002  0.1250007E+03  0.7818608E-02  0.1235068E+00
         -4   -1    0    0    0  501 -0.00000000000E+00  0.00000000000E+00  0.57029825030E+02  0.57043964123E+02  0.12700000000E+01 0. -1.
          4   -1    0    0  501    0  0.00000000000E+00 -0.00000000000E+00 -0.68467134253E+02  0.68478911884E+02  0.12700000000E+01 0. -1.
         25    2    1    2    0    0  0.00000000000E+00  0.00000000000E+00 -0.11437309224E+02  0.12552287601E+03  0.12500072143E+03 0.  0.
    9000005    1    3    3    0    0  0.36786121195E+02 -0.12637715731E+02 -0.54834773073E+02  0.67236767542E+02  0.10000000000E+01 0.  0.
    9000005    1    3    3    0    0 -0.36786121195E+02  0.12637715731E+02  0.43397463850E+02  0.58286108466E+02  0.10000000000E+01 0.  0.
<mgrwt>
<rscale>  0 0.12500072E+03</rscale>
<asrwt>0</asrwt>
<pdfrwt beam="2">  1        4 0.10535399E-01 0.12500072E+03</pdfrwt>
<pdfrwt beam="1">  1       -4 0.87758128E-02 0.12500072E+03</pdfrwt>
<totfact> 0.10441279E+04</totfact>
</mgrwt>
</event>
<event>
 5    1  0.3188180E-002  0.1250066E+03  0.7818608E-02  0.1235059E+00
         -4   -1    0    0    0  501 -0.00000000000E+00  0.00000000000E+00  0.27963556324E+03  0.27963844716E+03  0.12700000000E+01 0.  1.
          4   -1    0    0  501    0  0.00000000000E+00 -0.00000000000E+00 -0.13938715563E+02  0.13996452820E+02  0.12700000000E+01 0.  1.
         25    2    1    2    0    0  0.00000000000E+00  0.00000000000E+00  0.26569684768E+03  0.29363489998E+03  0.12500655831E+03 0.  0.
    9000005    1    3    3    0    0 -0.96097920582E+01 -0.11203722523E+02 -0.97970090205E+01  0.17744094440E+02  0.10000000000E+01 0.  0.
    9000005    1    3    3    0    0  0.96097920582E+01  0.11203722523E+02  0.27549385670E+03  0.27589080554E+03  0.10000000000E+01 0.  0.
<mgrwt>
<rscale>  0 0.12500656E+03</rscale>
<asrwt>0</asrwt>
<pdfrwt beam="2">  1        4 0.21490810E-02 0.12500656E+03</pdfrwt>
<pdfrwt beam="1">  1       -4 0.43025518E-01 0.12500656E+03</pdfrwt>
<totfact> 0.76393137E+03</totfact>
</mgrwt>
</event>
<event>
 5    1  0.3188180E-002  0.1250009E+03  0.7818608E-02  0.1235068E+00
         -4   -1    0    0    0  501 -0.00000000000E+00  0.00000000000E+00  0.39728548461E+02  0.39748842283E+02  0.12700000000E+01 0.  1.
          4   -1    0    0  501    0  0.00000000000E+00 -0.00000000000E+00 -0.98275400524E+02  0.98283606202E+02  0.12700000000E+01 0.  1.
         25    2    1    2    0    0  0.00000000000E+00  0.00000000000E+00 -0.58546852063E+02  0.13803244848E+03  0.12500089179E+03 0.  0.
    9000005    1    3    3    0    0 -0.58262730349E+02 -0.16465260687E+02 -0.12178725765E+02  0.61765458944E+02  0.10000000000E+01 0.  0.
    9000005    1    3    3    0    0  0.58262730349E+02  0.16465260687E+02 -0.46368126298E+02  0.76266989541E+02  0.10000000000E+01 0.  0.
<mgrwt>
<rscale>  0 0.12500089E+03</rscale>
<asrwt>0</asrwt>
<pdfrwt beam="2">  1        4 0.15121485E-01 0.12500089E+03</pdfrwt>
<pdfrwt beam="1">  1       -4 0.61142767E-02 0.12500089E+03</pdfrwt>
<totfact> 0.10174324E+04</totfact>
</mgrwt>
</event>
<event>
 5    1  0.3188180E-002  0.1250012E+03  0.7818608E-02  0.1235067E+00
          4   -1    0    0  501    0  0.00000000000E+00  0.00000000000E+00  0.72193751445E+01  0.73302303836E+01  0.12700000000E+01 0.  1.
         -4   -1    0    0    0  501 -0.00000000000E+00 -0.00000000000E+00 -0.53685525723E+03  0.53685675940E+03  0.12700000000E+01 0.  1.
         25    2    1    2    0    0  0.00000000000E+00  0.00000000000E+00 -0.52963588209E+03  0.54418698979E+03  0.12500124903E+03 0.  0.
    9000005    1    3    3    0    0 -0.73101939920E+00 -0.42468892820E+02 -0.65261322699E+02  0.77872854623E+02  0.10000000000E+01 0.  0.
    9000005    1    3    3    0    0  0.73101939920E+00  0.42468892820E+02 -0.46437455939E+03  0.46631413516E+03  0.10000000000E+01 0.  0.
<mgrwt>
<rscale>  0 0.12500125E+03</rscale>
<asrwt>0</asrwt>
<pdfrwt beam="1">  1        4 0.11193164E-02 0.12500125E+03</pdfrwt>
<pdfrwt beam="2">  1       -4 0.82601728E-01 0.12500125E+03</pdfrwt>
<totfact> 0.52590482E+03</totfact>
</mgrwt>
</event>
<event>
 5    1  0.3188180E-002  0.1249978E+03  0.7818608E-02  0.1235073E+00
         -4   -1    0    0    0  501 -0.00000000000E+00  0.00000000000E+00  0.14555705193E+03  0.14556259226E+03  0.12700000000E+01 0. -1.
          4   -1    0    0  501    0  0.00000000000E+00 -0.00000000000E+00 -0.26814517727E+02  0.26844576006E+02  0.12700000000E+01 0. -1.
         25    2    1    2    0    0  0.00000000000E+00  0.00000000000E+00  0.11874253420E+03  0.17240716827E+03  0.12499776895E+03 0.  0.
    9000005    1    3    3    0    0 -0.30791249609E+02  0.29075697804E+02  0.12275243715E+03  0.12985629781E+03  0.10000000000E+01 0.  0.
    9000005    1    3    3    0    0  0.30791249609E+02 -0.29075697804E+02 -0.40099029442E+01  0.42550870460E+02  0.10000000000E+01 0.  0.
<mgrwt>
<rscale>  0 0.12499777E+03</rscale>
<asrwt>0</asrwt>
<pdfrwt beam="2">  1        4 0.41280487E-02 0.12499777E+03</pdfrwt>
<pdfrwt beam="1">  1       -4 0.22396131E-01 0.12499777E+03</pdfrwt>
<totfact> 0.95006624E+03</totfact>
</mgrwt>
</event>
<event>
 5    1  0.3188180E-002  0.1250041E+03  0.7818608E-02  0.1235063E+00
          4   -1    0    0  501    0  0.00000000000E+00  0.00000000000E+00  0.84386915927E+02  0.84396471962E+02  0.12700000000E+01 0.  1.
         -4   -1    0    0    0  501 -0.00000000000E+00 -0.00000000000E+00 -0.46271889247E+02  0.46289314474E+02  0.12700000000E+01 0.  1.
         25    2    1    2    0    0  0.00000000000E+00  0.00000000000E+00  0.38115026680E+02  0.13068578644E+03  0.12500407800E+03 0.  0.
    9000005    1    3    3    0    0 -0.45270052681E+02  0.10396539743E+02 -0.24652380795E+02  0.52594729653E+02  0.10000000000E+01 0.  0.
    9000005    1    3    3    0    0  0.45270052681E+02 -0.10396539743E+02  0.62767407475E+02  0.78091056783E+02  0.10000000000E+01 0.  0.
<mgrwt>
<rscale>  0 0.12500408E+03</rscale>
<asrwt>0</asrwt>
<pdfrwt beam="1">  1        4 0.12984678E-01 0.12500408E+03</pdfrwt>
<pdfrwt beam="2">  1       -4 0.71208278E-02 0.12500408E+03</pdfrwt>
<totfact> 0.10328880E+04</totfact>
</mgrwt>
</event>
<event>
 5    1  0.3188180E-002  0.1249963E+03  0.7818608E-02  0.1235075E+00
         -4   -1    0    0    0  501 -0.00000000000E+00  0.00000000000E+00  0.49050401572E+02  0.49066840069E+02  0.12700000000E+01 0. -1.
          4   -1    0    0  501    0  0.00000000000E+00 -0.00000000000E+00 -0.79597894056E+02  0.79608024961E+02  0.12700000000E+01 0. -1.
         25    2    1    2    0    0  0.00000000000E+00  0.00000000000E+00 -0.30547492484E+02  0.12867486503E+03  0.12499628632E+03 0.  0.
    9000005    1    3    3    0    0 -0.50701582273E+02 -0.63358878197E+00 -0.52872114260E+02  0.73263308320E+02  0.10000000000E+01 0.  0.
    9000005    1    3    3    0    0  0.50701582273E+02  0.63358878197E+00  0.22324621775E+02  0.55411556711E+02  0.10000000000E+01 0.  0.
<mgrwt>
<rscale>  0 0.12499629E+03</rscale>
<asrwt>0</asrwt>
<pdfrwt beam="2">  1        4 0.12247874E-01 0.12499629E+03</pdfrwt>
<pdfrwt beam="1">  1       -4 0.75482595E-02 0.12499629E+03</pdfrwt>
<totfact> 0.10373808E+04</totfact>
</mgrwt>
</event>
<event>
 5    1  0.3188180E-002  0.1250009E+03  0.7818608E-02  0.1235068E+00
         -4   -1    0    0    0  501 -0.00000000000E+00  0.00000000000E+00  0.13754858141E+03  0.13755444430E+03  0.12700000000E+01 0. -1.
          4   -1    0    0  501    0  0.00000000000E+00 -0.00000000000E+00 -0.28378780059E+02  0.28407183205E+02  0.12700000000E+01 0. -1.
         25    2    1    2    0    0  0.00000000000E+00  0.00000000000E+00  0.10916980135E+03  0.16596162751E+03  0.12500086511E+03 0.  0.
    9000005    1    3    3    0    0 -0.56262546407E+02  0.14831178504E+02  0.24312949822E+02  0.63067880201E+02  0.10000000000E+01 0.  0.
    9000005    1    3    3    0    0  0.56262546407E+02 -0.14831178504E+02  0.84856851529E+02  0.10289374731E+03  0.10000000000E+01 0.  0.
<mgrwt>
<rscale>  0 0.12500087E+03</rscale>
<asrwt>0</asrwt>
<pdfrwt beam="2">  1        4 0.43686018E-02 0.12500087E+03</pdfrwt>
<pdfrwt beam="1">  1       -4 0.21163957E-01 0.12500087E+03</pdfrwt>
<totfact> 0.96203714E+03</totfact>
</mgrwt>
</event>
<event>
 5    1  0.3188180E-002  0.1249999E+03  0.7818608E-02  0.1235069E+00
          4   -1    0    0  501    0  0.00000000000E+00  0.00000000000E+00  0.26342899924E+02  0.26373495719E+02  0.12700000000E+01 0.  1.
         -4   -1    0    0    0  501 -0.00000000000E+00 -0.00000000000E+00 -0.14816520348E+03  0.14817064629E+03  0.12700000000E+01 0.  1.
         25    2    1    2    0    0  0.00000000000E+00  0.00000000000E+00 -0.12182230355E+03  0.17454414201E+03  0.12499993546E+03 0.  0.
    9000005    1    3    3    0    0  0.62323403661E+02 -0.45828889921E+01 -0.61177746126E+02  0.87458139338E+02  0.10000000000E+01 0.  0.
    9000005    1    3    3    0    0 -0.62323403661E+02  0.45828889921E+01 -0.60644557426E+02  0.87086002668E+02  0.10000000000E+01 0.  0.
<mgrwt>
<rscale>  0 0.12499994E+03</rscale>
<asrwt>0</asrwt>
<pdfrwt beam="1">  1        4 0.40555261E-02 0.12499994E+03</pdfrwt>
<pdfrwt beam="2">  1       -4 0.22797418E-01 0.12499994E+03</pdfrwt>
<totfact> 0.94608533E+03</totfact>
</mgrwt>
</event>
<event>
 5    1  0.3188180E-002  0.1250006E+03  0.7818608E-02  0.1235068E+00
          4   -1    0    0  501    0  0.00000000000E+00  0.00000000000E+00  0.20949013877E+02  0.20987474418E+02  0.12700000000E+01 0.  1.
         -4   -1    0    0    0  501 -0.00000000000E+00 -0.00000000000E+00 -0.18625488338E+03  0.18625921315E+03  0.12700000000E+01 0.  1.
         25    2    1    2    0    0  0.00000000000E+00  0.00000000000E+00 -0.16530586950E+03  0.20724668757E+03  0.12500063606E+03 0.  0.
    9000005    1    3    3    0    0 -0.68348060818E+01  0.36969541201E+02 -0.16541559152E+03  0.16963719954E+03  0.10000000000E+01 0.  0.
    9000005    1    3    3    0    0  0.68348060818E+01 -0.36969541201E+02  0.10972201276E+00  0.37609488028E+02  0.10000000000E+01 0.  0.
<mgrwt>
<rscale>  0 0.12500064E+03</rscale>
<asrwt>0</asrwt>
<pdfrwt beam="1">  1        4 0.32262169E-02 0.12500064E+03</pdfrwt>
<pdfrwt beam="2">  1       -4 0.28657888E-01 0.12500064E+03</pdfrwt>
<totfact> 0.88926252E+03</totfact>
</mgrwt>
</event>
<event>
 5    1  0.3188180E-002  0.1250044E+03  0.7818608E-02  0.1235062E+00
          4   -1    0    0  501    0  0.00000000000E+00  0.00000000000E+00  0.17869002914E+02  0.17914077290E+02  0.12700000000E+01 0. -1.
         -4   -1    0    0    0  501 -0.00000000000E+00 -0.00000000000E+00 -0.21829775641E+03  0.21830145065E+03  0.12700000000E+01 0. -1.
         25    2    1    2    0    0  0.00000000000E+00  0.00000000000E+00 -0.20042875350E+03  0.23621552794E+03  0.12500436156E+03 0.  0.
    9000005    1    3    3    0    0 -0.42732330442E+02 -0.33642399102E+02 -0.15838576680E+03  0.16746615839E+03  0.10000000000E+01 0.  0.
    9000005    1    3    3    0    0  0.42732330442E+02  0.33642399102E+02 -0.42042986700E+02  0.68749369546E+02  0.10000000000E+01 0.  0.
<mgrwt>
<rscale>  0 0.12500436E+03</rscale>
<asrwt>0</asrwt>
<pdfrwt beam="1">  1        4 0.27528290E-02 0.12500436E+03</pdfrwt>
<pdfrwt beam="2">  1       -4 0.33588020E-01 0.12500436E+03</pdfrwt>
<totfact> 0.84356041E+03</totfact>
</mgrwt>
</event>
<event>
 5    1  0.3188180E-002  0.1249998E+03  0.7818608E-02  0.1235070E+00
          4   -1    0    0  501    0  0.00000000000E+00  0.00000000000E+00  0.35020734063E+02  0.35043754284E+02  0.12700000000E+01 0.  1.
         -4   -1    0    0    0  501 -0.00000000000E+00 -0.00000000000E+00 -0.11147734217E+03  0.11148457614E+03  0.12700000000E+01 0.  1.
         25    2    1    2    0    0  0.00000000000E+00  0.00000000000E+00 -0.76456608108E+02  0.14652833043E+03  0.12499975477E+03 0.  0.
    9000005    1    3    3    0    0  0.49544231846E+02 -0.36379708927E+02 -0.51444921186E+02  0.80160426936E+02  0.10000000000E+01 0.  0.
    9000005    1    3    3    0    0 -0.49544231846E+02  0.36379708927E+02 -0.25011686922E+02  0.66367903489E+02  0.10000000000E+01 0.  0.
<mgrwt>
<rscale>  0 0.12499975E+03</rscale>
<asrwt>0</asrwt>
<pdfrwt beam="1">  1        4 0.53901325E-02 0.12499975E+03</pdfrwt>
<pdfrwt beam="2">  1       -4 0.17152687E-01 0.12499975E+03</pdfrwt>
<totfact> 0.10000083E+04</totfact>
</mgrwt>
</event>
<event>
 5    1  0.3188180E-002  0.1250024E+03  0.7818608E-02  0.1235066E+00
          4   -1    0    0  501    0  0.00000000000E+00  0.00000000000E+00  0.83921823439E+01  0.84877337667E+01  0.12700000000E+01 0.  1.
         -4   -1    0    0    0  501 -0.00000000000E+00 -0.00000000000E+00 -0.46274932514E+03  0.46275106787E+03  0.12700000000E+01 0.  1.
         25    2    1    2    0    0  0.00000000000E+00  0.00000000000E+00 -0.45435714279E+03  0.47123880164E+03  0.12500237982E+03 0.  0.
    9000005    1    3    3    0    0 -0.41992710733E+02  0.45932094450E+02 -0.24858836257E+03  0.25626220764E+03  0.10000000000E+01 0.  0.
    9000005    1    3    3    0    0  0.41992710733E+02 -0.45932094450E+02 -0.20576878022E+03  0.21497659400E+03  0.10000000000E+01 0.  0.
<mgrwt>
<rscale>  0 0.12500238E+03</rscale>
<asrwt>0</asrwt>
<pdfrwt beam="1">  1        4 0.12985895E-02 0.12500238E+03</pdfrwt>
<pdfrwt beam="2">  1       -4 0.71199668E-01 0.12500238E+03</pdfrwt>
<totfact> 0.58164003E+03</totfact>
</mgrwt>
</event>
<event>
 5    1  0.3188180E-002  0.1250010E+03  0.7818608E-02  0.1235068E+00
         -4   -1    0    0    0  501 -0.00000000000E+00  0.00000000000E+00  0.38356131360E+03  0.38356341613E+03  0.12700000000E+01 0. -1.
          4   -1    0    0  501    0  0.00000000000E+00 -0.00000000000E+00 -0.10142593042E+02  0.10221795029E+02  0.12700000000E+01 0. -1.
         25    2    1    2    0    0  0.00000000000E+00  0.00000000000E+00  0.37341872056E+03  0.39378521116E+03  0.12500100664E+03 0.  0.
    9000005    1    3    3    0    0 -0.47749734650E+02  0.30454262749E+02  0.10349167769E+03  0.11797892452E+03  0.10000000000E+01 0.  0.
    9000005    1    3    3    0    0  0.47749734650E+02 -0.30454262749E+02  0.26992704287E+03  0.27580628664E+03  0.10000000000E+01 0.  0.
<mgrwt>
<rscale>  0 0.12500101E+03</rscale>
<asrwt>0</asrwt>
<pdfrwt beam="2">  1        4 0.15666531E-02 0.12500101E+03</pdfrwt>
<pdfrwt beam="1">  1       -4 0.59015687E-01 0.12500101E+03</pdfrwt>
<totfact> 0.65160303E+03</totfact>
</mgrwt>
</event>
<event>
 5    1  0.3188180E-002  0.1250007E+03  0.7818608E-02  0.1235068E+00
         -4   -1    0    0    0  501 -0.00000000000E+00  0.00000000000E+00  0.18378115806E+03  0.18378554611E+03  0.12700000000E+01 0. -1.
          4   -1    0    0  501    0  0.00000000000E+00 -0.00000000000E+00 -0.21231525006E+02  0.21269474701E+02  0.12700000000E+01 0. -1.
         25    2    1    2    0    0  0.00000000000E+00  0.00000000000E+00  0.16254963305E+03  0.20505502081E+03  0.12500071341E+03 0.  0.
    9000005    1    3    3    0    0 -0.51352520677E+02 -0.78234233253E+01  0.13826667985E+03  0.14770566032E+03  0.10000000000E+01 0.  0.
    9000005    1    3    3    0    0  0.51352520677E+02  0.78234233253E+01  0.24282953201E+02  0.57349360489E+02  0.10000000000E+01 0.  0.
<mgrwt>
<rscale>  0 0.12500071E+03</rscale>
<asrwt>0</asrwt>
<pdfrwt beam="2">  1        4 0.32696451E-02 0.12500071E+03</pdfrwt>
<pdfrwt beam="1">  1       -4 0.28277282E-01 0.12500071E+03</pdfrwt>
<totfact> 0.89288456E+03</totfact>
</mgrwt>
</event>
<event>
 5    1  0.3188180E-002  0.1250047E+03  0.7818608E-02  0.1235062E+00
          4   -1    0    0  501    0  0.00000000000E+00  0.00000000000E+00  0.37801395846E+03  0.37801609185E+03  0.12700000000E+01 0. -1.
         -4   -1    0    0    0  501 -0.00000000000E+00 -0.00000000000E+00 -0.10293196165E+02  0.10371248107E+02  0.12700000000E+01 0. -1.
         25    2    1    2    0    0  0.00000000000E+00  0.00000000000E+00  0.36772076230E+03  0.38838733995E+03  0.12500466715E+03 0.  0.
    9000005    1    3    3    0    0  0.77800821904E+01  0.29002261215E+02  0.35414686943E+03  0.35541900056E+03  0.10000000000E+01 0.  0.
    9000005    1    3    3    0    0 -0.77800821904E+01 -0.29002261215E+02  0.13573892872E+02  0.32968339391E+02  0.10000000000E+01 0.  0.
<mgrwt>
<rscale>  0 0.12500467E+03</rscale>
<asrwt>0</asrwt>
<pdfrwt beam="1">  1        4 0.58162167E-01 0.12500467E+03</pdfrwt>
<pdfrwt beam="2">  1       -4 0.15897366E-02 0.12500467E+03</pdfrwt>
<totfact> 0.65691335E+03</totfact>
</mgrwt>
</event>
<event>
 5    1  0.3188180E-002  0.1249989E+03  0.7818608E-02  0.1235071E+00
         -4   -1    0    0    0  501 -0.00000000000E+00  0.00000000000E+00  0.36637875581E+03  0.36638095694E+03  0.12700000000E+01 0. -1.
          4   -1    0    0  501    0  0.00000000000E+00 -0.00000000000E+00 -0.10621537107E+02  0.10697193581E+02  0.12700000000E+01 0. -1.
         25    2    1    2    0    0  0.00000000000E+00  0.00000000000E+00  0.35575721871E+03  0.37707815053E+03  0.12499893176E+03 0.  0.
    9000005    1    3    3    0    0 -0.37263254153E+02 -0.49300601834E+02  0.20586750361E+03  0.21494540817E+03  0.10000000000E+01 0.  0.
    9000005    1    3    3    0    0  0.37263254153E+02  0.49300601834E+02  0.14988971510E+03  0.16213274236E+03  0.10000000000E+01 0.  0.
<mgrwt>
<rscale>  0 0.12499893E+03</rscale>
<asrwt>0</asrwt>
<pdfrwt beam="2">  1        4 0.16400717E-02 0.12499893E+03</pdfrwt>
<pdfrwt beam="1">  1       -4 0.56371951E-01 0.12499893E+03</pdfrwt>
<totfact> 0.66846451E+03</totfact>
</mgrwt>
</event>
<event>
 5    1  0.3188180E-002  0.1249999E+03  0.7818608E-02  0.1235069E+00
         -4   -1    0    0    0  501 -0.00000000000E+00  0.00000000000E+00  0.13720701592E+03  0.13721289341E+03  0.12700000000E+01 0.  1.
          4   -1    0    0  501    0  0.00000000000E+00 -0.00000000000E+00 -0.28449061526E+02  0.28477394574E+02  0.12700000000E+01 0.  1.
         25    2    1    2    0    0  0.00000000000E+00  0.00000000000E+00  0.10875795440E+03  0.16569028799E+03  0.12499991555E+03 0.  0.
    9000005    1    3    3    0    0 -0.66915072931E+01 -0.41758077752E+02 -0.66056268955E+01  0.42815273374E+02  0.10000000000E+01 0.  0.
    9000005    1    3    3    0    0  0.66915072931E+01  0.41758077752E+02  0.11536358129E+03  0.12287501461E+03  0.10000000000E+01 0.  0.
<mgrwt>
<rscale>  0 0.12499992E+03</rscale>
<asrwt>0</asrwt>
<pdfrwt beam="2">  1        4 0.43794103E-02 0.12499992E+03</pdfrwt>
<pdfrwt beam="1">  1       -4 0.21111403E-01 0.12499992E+03</pdfrwt>
<totfact> 0.96257005E+03</totfact>
</mgrwt>
</event>
<event>
 5    1  0.3188180E-002  0.1250046E+03  0.7818608E-02  0.1235062E+00
          4   -1    0    0  501    0  0.00000000000E+00  0.00000000000E+00  0.46305532578E+01  0.48015542768E+01  0.12700000000E+01 0. -1.
         -4   -1    0    0    0  501 -0.00000000000E+00 -0.00000000000E+00 -0.82817741966E+03  0.82817839342E+03  0.12700000000E+01 0. -1.
         25    2    1    2    0    0  0.00000000000E+00  0.00000000000E+00 -0.82354686640E+03  0.83297994770E+03  0.12500460836E+03 0.  0.
    9000005    1    3    3    0    0 -0.46156043049E+02  0.32791551928E+01 -0.69167649268E+03  0.69322327117E+03  0.10000000000E+01 0.  0.
    9000005    1    3    3    0    0  0.46156043049E+02 -0.32791551928E+01 -0.13187037372E+03  0.13975667653E+03  0.10000000000E+01 0.  0.
<mgrwt>
<rscale>  0 0.12500461E+03</rscale>
<asrwt>0</asrwt>
<pdfrwt beam="1">  1        4 0.72562230E-03 0.12500461E+03</pdfrwt>
<pdfrwt beam="2">  1       -4 0.12742502E+00 0.12500461E+03</pdfrwt>
<totfact> 0.36830423E+03</totfact>
</mgrwt>
</event>
<event>
 5    1  0.3188180E-002  0.1250013E+03  0.7818608E-02  0.1235067E+00
          4   -1    0    0  501    0  0.00000000000E+00  0.00000000000E+00  0.15292401517E+03  0.15292928861E+03  0.12700000000E+01 0.  1.
         -4   -1    0    0    0  501 -0.00000000000E+00 -0.00000000000E+00 -0.25522743191E+02  0.25554320965E+02  0.12700000000E+01 0.  1.
         25    2    1    2    0    0  0.00000000000E+00  0.00000000000E+00  0.12740127198E+03  0.17848360958E+03  0.12500125914E+03 0.  0.
    9000005    1    3    3    0    0 -0.44051382848E+02 -0.22548666907E+02  0.11819086335E+03  0.12813682877E+03  0.10000000000E+01 0.  0.
    9000005    1    3    3    0    0  0.44051382848E+02  0.22548666907E+02  0.92104086348E+01  0.50346780804E+02  0.10000000000E+01 0.  0.
<mgrwt>
<rscale>  0 0.12500126E+03</rscale>
<asrwt>0</asrwt>
<pdfrwt beam="1">  1        4 0.23529607E-01 0.12500126E+03</pdfrwt>
<pdfrwt beam="2">  1       -4 0.39294105E-02 0.12500126E+03</pdfrwt>
<totfact> 0.93888021E+03</totfact>
</mgrwt>
</event>
<event>
 5    1  0.3188180E-002  0.1250014E+03  0.7818608E-02  0.1235067E+00
          4   -1    0    0  501    0  0.00000000000E+00  0.00000000000E+00  0.18683969359E+03  0.18684400981E+03  0.12700000000E+01 0. -1.
         -4   -1    0    0    0  501 -0.00000000000E+00 -0.00000000000E+00 -0.20883578111E+02  0.20922158941E+02  0.12700000000E+01 0. -1.
         25    2    1    2    0    0  0.00000000000E+00  0.00000000000E+00  0.16595611548E+03  0.20776616875E+03  0.12500139444E+03 0.  0.
    9000005    1    3    3    0    0 -0.22693131228E+02  0.43207042752E+02  0.18102263777E+02  0.52062642097E+02  0.10000000000E+01 0.  0.
    9000005    1    3    3    0    0  0.22693131228E+02 -0.43207042752E+02  0.14785385170E+03  0.15570352665E+03  0.10000000000E+01 0.  0.
<mgrwt>
<rscale>  0 0.12500139E+03</rscale>
<asrwt>0</asrwt>
<pdfrwt beam="1">  1        4 0.28747869E-01 0.12500139E+03</pdfrwt>
<pdfrwt beam="2">  1       -4 0.32161578E-02 0.12500139E+03</pdfrwt>
<totfact> 0.88839227E+03</totfact>
</mgrwt>
</event>
<event>
 5    1  0.3188180E-002  0.1249991E+03  0.7818608E-02  0.1235071E+00
         -4   -1    0    0    0  501 -0.00000000000E+00  0.00000000000E+00  0.43071206852E+02  0.43089926429E+02  0.12700000000E+01 0.  1.
          4   -1    0    0  501    0  0.00000000000E+00 -0.00000000000E+00 -0.90648637055E+02  0.90657533057E+02  0.12700000000E+01 0.  1.
         25    2    1    2    0    0  0.00000000000E+00  0.00000000000E+00 -0.47577430203E+02  0.13374745949E+03  0.12499908421E+03 0.  0.
    9000005    1    3    3    0    0 -0.63031294993E+01 -0.59266844246E+02 -0.43889235683E+02  0.74024004736E+02  0.10000000000E+01 0.  0.
    9000005    1    3    3    0    0  0.63031294993E+01  0.59266844246E+02 -0.36881945207E+01  0.59723454749E+02  0.10000000000E+01 0.  0.
<mgrwt>
<rscale>  0 0.12499908E+03</rscale>
<asrwt>0</asrwt>
<pdfrwt beam="2">  1        4 0.13948068E-01 0.12499908E+03</pdfrwt>
<pdfrwt beam="1">  1       -4 0.66284638E-02 0.12499908E+03</pdfrwt>
<totfact> 0.10264751E+04</totfact>
</mgrwt>
</event>
<event>
 5    1  0.3188180E-002  0.1250001E+03  0.7818608E-02  0.1235069E+00
         -4   -1    0    0    0  501 -0.00000000000E+00  0.00000000000E+00  0.96839188500E+01  0.97668410601E+01  0.12700000000E+01 0. -1.
          4   -1    0    0  501    0  0.00000000000E+00 -0.00000000000E+00 -0.40157200198E+03  0.40157401021E+03  0.12700000000E+01 0. -1.
         25    2    1    2    0    0  0.00000000000E+00  0.00000000000E+00 -0.39188808313E+03  0.41134085127E+03  0.12500010489E+03 0.  0.
    9000005    1    3    3    0    0 -0.57643975823E+02  0.17069360501E+02 -0.13980217341E+03  0.15218356911E+03  0.10000000000E+01 0.  0.
    9000005    1    3    3    0    0  0.57643975823E+02 -0.17069360501E+02 -0.25208590972E+03  0.25915728216E+03  0.10000000000E+01 0.  0.
<mgrwt>
<rscale>  0 0.12500010E+03</rscale>
<asrwt>0</asrwt>
<pdfrwt beam="2">  1        4 0.61786828E-01 0.12500010E+03</pdfrwt>
<pdfrwt beam="1">  1       -4 0.14963671E-02 0.12500010E+03</pdfrwt>
<totfact> 0.63464396E+03</totfact>
</mgrwt>
</event>
<event>
 5    1  0.3188180E-002  0.1249950E+03  0.7818608E-02  0.1235077E+00
          4   -1    0    0  501    0  0.00000000000E+00  0.00000000000E+00  0.64964061616E+02  0.64976474216E+02  0.12700000000E+01 0. -1.
         -4   -1    0    0    0  501 -0.00000000000E+00 -0.00000000000E+00 -0.60099771459E+02  0.60113188482E+02  0.12700000000E+01 0. -1.
         25    2    1    2    0    0  0.00000000000E+00  0.00000000000E+00  0.48642901564E+01  0.12508966270E+03  0.12499504948E+03 0.  0.
    9000005    1    3    3    0    0  0.52606356121E+02 -0.32065493875E+02  0.12895488233E+02  0.62951713389E+02  0.10000000000E+01 0.  0.
    9000005    1    3    3    0    0 -0.52606356121E+02  0.32065493875E+02 -0.80311980769E+01  0.62137949309E+02  0.10000000000E+01 0.  0.
<mgrwt>
<rscale>  0 0.12499505E+03</rscale>
<asrwt>0</asrwt>
<pdfrwt beam="1">  1        4 0.99964578E-02 0.12499505E+03</pdfrwt>
<pdfrwt beam="2">  1       -4 0.92481057E-02 0.12499505E+03</pdfrwt>
<totfact> 0.10452085E+04</totfact>
</mgrwt>
</event>
<event>
 5    1  0.3188180E-002  0.1249991E+03  0.7818608E-02  0.1235071E+00
         -4   -1    0    0    0  501 -0.00000000000E+00  0.00000000000E+00  0.67931839519E+01  0.69108789748E+01  0.12700000000E+01 0. -1.
          4   -1    0    0  501    0  0.00000000000E+00 -0.00000000000E+00 -0.56995997254E+03  0.56996138746E+03  0.12700000000E+01 0. -1.
         25    2    1    2    0    0  0.00000000000E+00  0.00000000000E+00 -0.56316678859E+03  0.57687226644E+03  0.12499912006E+03 0.  0.
    9000005    1    3    3    0    0  0.46398907359E+02  0.37154524676E+02 -0.37057986214E+03  0.37531820037E+03  0.10000000000E+01 0.  0.
    9000005    1    3    3    0    0 -0.46398907359E+02 -0.37154524676E+02 -0.19258692645E+03  0.20155406607E+03  0.10000000000E+01 0.  0.
<mgrwt>
<rscale>  0 0.12499912E+03</rscale>
<asrwt>0</asrwt>
<pdfrwt beam="2">  1        4 0.87695275E-01 0.12499912E+03</pdfrwt>
<pdfrwt beam="1">  1       -4 0.10542680E-02 0.12499912E+03</pdfrwt>
<totfact> 0.50361806E+03</totfact>
</mgrwt>
</event>
<event>
 5    1  0.3188180E-002  0.1249841E+03  0.7818608E-02  0.1235094E+00
         -4   -1    0    0    0  501 -0.00000000000E+00  0.00000000000E+00  0.34652672128E+01  0.36906607614E+01  0.12700000000E+01 0. -1.
          4   -1    0    0  501    0  0.00000000000E+00 -0.00000000000E+00 -0.10912493907E+04  0.10912501298E+04  0.12700000000E+01 0. -1.
         25    2    1    2    0    0  0.00000000000E+00  0.00000000000E+00 -0.10877841235E+04  0.10949407905E+04  0.12498414035E+03 0.  0.
    9000005    1    3    3    0    0 -0.23527033584E+02  0.57879183261E+02 -0.55141637597E+03  0.55494552963E+03  0.10000000000E+01 0.  0.
    9000005    1    3    3    0    0  0.23527033584E+02 -0.57879183261E+02 -0.53636774757E+03  0.53999526090E+03  0.10000000000E+01 0.  0.
<mgrwt>
<rscale>  0 0.12498414E+03</rscale>
<asrwt>0</asrwt>
<pdfrwt beam="2">  1        4 0.16790165E+00 0.12498414E+03</pdfrwt>
<pdfrwt beam="1">  1       -4 0.55051371E-03 0.12498414E+03</pdfrwt>
<totfact> 0.27641538E+03</totfact>
</mgrwt>
</event>
<event>
 5    1  0.3188180E-002  0.1249975E+03  0.7818608E-02  0.1235073E+00
         -4   -1    0    0    0  501 -0.00000000000E+00  0.00000000000E+00  0.67603447967E+03  0.67603567258E+03  0.12700000000E+01 0. -1.
          4   -1    0    0  501    0  0.00000000000E+00 -0.00000000000E+00 -0.57069474561E+01  0.58465502022E+01  0.12700000000E+01 0. -1.
         25    2    1    2    0    0  0.00000000000E+00  0.00000000000E+00  0.67032753221E+03  0.68188222278E+03  0.12499746119E+03 0.  0.
    9000005    1    3    3    0    0 -0.51520622180E+02 -0.13715088438E+02  0.15733755624E+03  0.16612821784E+03  0.10000000000E+01 0.  0.
    9000005    1    3    3    0    0  0.51520622180E+02  0.13715088438E+02  0.51298997598E+03  0.51575400494E+03  0.10000000000E+01 0.  0.
<mgrwt>
<rscale>  0 0.12499746E+03</rscale>
<asrwt>0</asrwt>
<pdfrwt beam="2">  1        4 0.88882287E-03 0.12499746E+03</pdfrwt>
<pdfrwt beam="1">  1       -4 0.10401607E+00 0.12499746E+03</pdfrwt>
<totfact> 0.44062991E+03</totfact>
</mgrwt>
</event>
<event>
 5    1  0.3188180E-002  0.1249979E+03  0.7818608E-02  0.1235073E+00
          4   -1    0    0  501    0  0.00000000000E+00  0.00000000000E+00  0.79497352248E+01  0.80505397425E+01  0.12700000000E+01 0.  1.
         -4   -1    0    0    0  501 -0.00000000000E+00 -0.00000000000E+00 -0.48815493301E+03  0.48815658504E+03  0.12700000000E+01 0.  1.
         25    2    1    2    0    0  0.00000000000E+00  0.00000000000E+00 -0.48020519778E+03  0.49620712479E+03  0.12499791482E+03 0.  0.
    9000005    1    3    3    0    0 -0.81038942926E+01 -0.59789710750E+02 -0.30468074326E+03  0.31059915957E+03  0.10000000000E+01 0.  0.
    9000005    1    3    3    0    0  0.81038942926E+01  0.59789710750E+02 -0.17552445452E+03  0.18560796521E+03  0.10000000000E+01 0.  0.
<mgrwt>
<rscale>  0 0.12499791E+03</rscale>
<asrwt>0</asrwt>
<pdfrwt beam="1">  1        4 0.12309178E-02 0.12499791E+03</pdfrwt>
<pdfrwt beam="2">  1       -4 0.75108617E-01 0.12499791E+03</pdfrwt>
<totfact> 0.56162438E+03</totfact>
</mgrwt>
</event>
<event>
 5    1  0.3188180E-002  0.1249998E+03  0.7818608E-02  0.1235070E+00
          4   -1    0    0  501    0  0.00000000000E+00  0.00000000000E+00  0.16507152539E+03  0.16507641078E+03  0.12700000000E+01 0. -1.
         -4   -1    0    0    0  501 -0.00000000000E+00 -0.00000000000E+00 -0.23641635965E+02  0.23675722821E+02  0.12700000000E+01 0. -1.
         25    2    1    2    0    0  0.00000000000E+00  0.00000000000E+00  0.14142988943E+03  0.18875213360E+03  0.12499981726E+03 0.  0.
    9000005    1    3    3    0    0  0.19645605857E+02 -0.19256934508E+02  0.15544383684E+03  0.15786249006E+03  0.10000000000E+01 0.  0.
    9000005    1    3    3    0    0 -0.19645605857E+02  0.19256934508E+02 -0.14013947410E+02  0.30889643542E+02  0.10000000000E+01 0.  0.
<mgrwt>
<rscale>  0 0.12499982E+03</rscale>
<asrwt>0</asrwt>
<pdfrwt beam="1">  1        4 0.25398618E-01 0.12499982E+03</pdfrwt>
<pdfrwt beam="2">  1       -4 0.36401725E-02 0.12499982E+03</pdfrwt>
<totfact> 0.92065269E+03</totfact>
</mgrwt>
</event>
<event>
 5    1  0.3188180E-002  0.1250010E+03  0.7818608E-02  0.1235068E+00
          4   -1    0    0  501    0  0.00000000000E+00  0.00000000000E+00  0.12176997182E+03  0.12177659437E+03  0.12700000000E+01 0.  1.
         -4   -1    0    0    0  501 -0.00000000000E+00 -0.00000000000E+00 -0.32059356129E+02  0.32084501171E+02  0.12700000000E+01 0.  1.
         25    2    1    2    0    0  0.00000000000E+00  0.00000000000E+00  0.89710615692E+02  0.15386109554E+03  0.12500096861E+03 0.  0.
    9000005    1    3    3    0    0  0.56712116283E+02 -0.34503300616E+01  0.76885179523E+02  0.95605960803E+02  0.10000000000E+01 0.  0.
    9000005    1    3    3    0    0 -0.56712116283E+02  0.34503300616E+01  0.12825436169E+02  0.58255134742E+02  0.10000000000E+01 0.  0.
<mgrwt>
<rscale>  0 0.12500097E+03</rscale>
<asrwt>0</asrwt>
<pdfrwt beam="1">  1        4 0.18736285E-01 0.12500097E+03</pdfrwt>
<pdfrwt beam="2">  1       -4 0.49346523E-02 0.12500097E+03</pdfrwt>
<totfact> 0.98537392E+03</totfact>
</mgrwt>
</event>
<event>
 5    1  0.3188180E-002  0.1249850E+03  0.7818608E-02  0.1235093E+00
         -4   -1    0    0    0  501 -0.00000000000E+00  0.00000000000E+00  0.90606259915E+03  0.90606348921E+03  0.12700000000E+01 0.  1.
          4   -1    0    0  501    0  0.00000000000E+00 -0.00000000000E+00 -0.42157386815E+01  0.44028800382E+01  0.12700000000E+01 0.  1.
         25    2    1    2    0    0  0.00000000000E+00  0.00000000000E+00  0.90184686047E+03  0.91046636925E+03  0.12498499828E+03 0.  0.
    9000005    1    3    3    0    0 -0.24308032292E+02 -0.36535708445E+02  0.12689570542E+03  0.13427307429E+03  0.10000000000E+01 0.  0.
    9000005    1    3    3    0    0  0.24308032292E+02  0.36535708445E+02  0.77495115505E+03  0.77619329496E+03  0.10000000000E+01 0.  0.
<mgrwt>
<rscale>  0 0.12498500E+03</rscale>
<asrwt>0</asrwt>
<pdfrwt beam="2">  1        4 0.66303894E-03 0.12498500E+03</pdfrwt>
<pdfrwt beam="1">  1       -4 0.13940875E+00 0.12498500E+03</pdfrwt>
<totfact> 0.33773354E+03</totfact>
</mgrwt>
</event>
<event>
 5    1  0.3188180E-002  0.1250004E+03  0.7818608E-02  0.1235069E+00
          4   -1    0    0  501    0  0.00000000000E+00  0.00000000000E+00  0.24116351320E+02  0.24149768136E+02  0.12700000000E+01 0. -1.
         -4   -1    0    0    0  501 -0.00000000000E+00 -0.00000000000E+00 -0.16182808170E+03  0.16183306500E+03  0.12700000000E+01 0. -1.
         25    2    1    2    0    0  0.00000000000E+00  0.00000000000E+00 -0.13771173038E+03  0.18598283313E+03  0.12500037414E+03 0.  0.
    9000005    1    3    3    0    0 -0.74743994252E+01 -0.39150578780E+02  0.27569456363E+01  0.39965425243E+02  0.10000000000E+01 0.  0.
    9000005    1    3    3    0    0  0.74743994252E+01  0.39150578780E+02 -0.14046867601E+03  0.14601740789E+03  0.10000000000E+01 0.  0.
<mgrwt>
<rscale>  0 0.12500037E+03</rscale>
<asrwt>0</asrwt>
<pdfrwt beam="1">  1        4 0.37131619E-02 0.12500037E+03</pdfrwt>
<pdfrwt beam="2">  1       -4 0.24899581E-01 0.12500037E+03</pdfrwt>
<totfact> 0.92550249E+03</totfact>
</mgrwt>
</event>
<event>
 5    1  0.3188180E-002  0.1250000E+03  0.7818608E-02  0.1235069E+00
          4   -1    0    0  501    0  0.00000000000E+00  0.00000000000E+00  0.10867898274E+03  0.10868640296E+03  0.12700000000E+01 0.  1.
         -4   -1    0    0    0  501 -0.00000000000E+00 -0.00000000000E+00 -0.35923159360E+02  0.35945601655E+02  0.12700000000E+01 0.  1.
         25    2    1    2    0    0  0.00000000000E+00  0.00000000000E+00  0.72755823377E+02  0.14463200462E+03  0.12500002770E+03 0.  0.
    9000005    1    3    3    0    0 -0.32770991260E+02  0.51987590470E+02  0.49499368081E+02  0.78916632413E+02  0.10000000000E+01 0.  0.
    9000005    1    3    3    0    0  0.32770991260E+02 -0.51987590470E+02  0.23256455296E+02  0.65715372204E+02  0.10000000000E+01 0.  0.
<mgrwt>
<rscale>  0 0.12500003E+03</rscale>
<asrwt>0</asrwt>
<pdfrwt beam="1">  1        4 0.16722141E-01 0.12500003E+03</pdfrwt>
<pdfrwt beam="2">  1       -4 0.55289370E-02 0.12500003E+03</pdfrwt>
<totfact> 0.10038464E+04</totfact>
</mgrwt>
</event>
<event>
 5    1  0.3188180E-002  0.1250015E+03  0.7818608E-02  0.1235067E+00
          4   -1    0    0  501    0  0.00000000000E+00  0.00000000000E+00  0.20985090687E+02  0.21023485229E+02  0.12700000000E+01 0.  1.
         -4   -1    0    0    0  501 -0.00000000000E+00 -0.00000000000E+00 -0.18593771307E+03  0.18594205022E+03  0.12700000000E+01 0.  1.
         25    2    1    2    0    0  0.00000000000E+00  0.00000000000E+00 -0.16495262238E+03  0.20696553545E+03  0.12500146093E+03 0.  0.
    9000005    1    3    3    0    0  0.20743267682E+02 -0.52174416224E+02 -0.12790688884E+03  0.13969117751E+03  0.10000000000E+01 0.  0.
    9000005    1    3    3    0    0 -0.20743267682E+02  0.52174416224E+02 -0.37045733542E+02  0.67274357939E+02  0.10000000000E+01 0.  0.
<mgrwt>
<rscale>  0 0.12500146E+03</rscale>
<asrwt>0</asrwt>
<pdfrwt beam="1">  1        4 0.32317627E-02 0.12500146E+03</pdfrwt>
<pdfrwt beam="2">  1       -4 0.28609088E-01 0.12500146E+03</pdfrwt>
<totfact> 0.88970952E+03</totfact>
</mgrwt>
</event>
<event>
 5    1  0.3188180E-002  0.1249995E+03  0.7818608E-02  0.1235070E+00
         -4   -1    0    0    0  501 -0.00000000000E+00  0.00000000000E+00  0.52254624363E+02  0.52270055168E+02  0.12700000000E+01 0. -1.
          4   -1    0    0  501    0  0.00000000000E+00 -0.00000000000E+00 -0.74721651187E+02  0.74732443130E+02  0.12700000000E+01 0. -1.
         25    2    1    2    0    0  0.00000000000E+00  0.00000000000E+00 -0.22467026825E+02  0.12700249830E+03  0.12499946912E+03 0.  0.
    9000005    1    3    3    0    0  0.18721158207E+02 -0.46733167145E+02 -0.48850379586E+02  0.70155757152E+02  0.10000000000E+01 0.  0.
    9000005    1    3    3    0    0 -0.18721158207E+02  0.46733167145E+02  0.26383352761E+02  0.56846741146E+02  0.10000000000E+01 0.  0.
<mgrwt>
<rscale>  0 0.12499947E+03</rscale>
<asrwt>0</asrwt>
<pdfrwt beam="2">  1        4 0.11497656E-01 0.12499947E+03</pdfrwt>
<pdfrwt beam="1">  1       -4 0.80411901E-02 0.12499947E+03</pdfrwt>
<totfact> 0.10409216E+04</totfact>
</mgrwt>
</event>
<event>
 5    1  0.3188180E-002  0.1250010E+03  0.7818608E-02  0.1235068E+00
          4   -1    0    0  501    0  0.00000000000E+00  0.00000000000E+00  0.20346160120E+02  0.20385758059E+02  0.12700000000E+01 0.  1.
         -4   -1    0    0    0  501 -0.00000000000E+00 -0.00000000000E+00 -0.19176435118E+03  0.19176855656E+03  0.12700000000E+01 0.  1.
         25    2    1    2    0    0  0.00000000000E+00  0.00000000000E+00 -0.17141819106E+03  0.21215431462E+03  0.12500102793E+03 0.  0.
    9000005    1    3    3    0    0 -0.29268076090E+02  0.54200995932E+01 -0.17896849262E+03  0.18142965333E+03  0.10000000000E+01 0.  0.
    9000005    1    3    3    0    0  0.29268076090E+02 -0.54200995932E+01  0.75503015557E+01  0.30724661287E+02  0.10000000000E+01 0.  0.
<mgrwt>
<rscale>  0 0.12500103E+03</rscale>
<asrwt>0</asrwt>
<pdfrwt beam="1">  1        4 0.31335481E-02 0.12500103E+03</pdfrwt>
<pdfrwt beam="2">  1       -4 0.29505576E-01 0.12500103E+03</pdfrwt>
<totfact> 0.88123233E+03</totfact>
</mgrwt>
</event>
<event>
 5    1  0.3188180E-002  0.1249932E+03  0.7818608E-02  0.1235080E+00
         -4   -1    0    0    0  501 -0.00000000000E+00  0.00000000000E+00  0.14657499188E+02  0.14712415928E+02  0.12700000000E+01 0. -1.
          4   -1    0    0  501    0  0.00000000000E+00 -0.00000000000E+00 -0.26591831874E+03  0.26592135142E+03  0.12700000000E+01 0. -1.
         25    2    1    2    0    0  0.00000000000E+00  0.00000000000E+00 -0.25126081955E+03  0.28063376735E+03  0.12499324756E+03 0.  0.
    9000005    1    3    3    0    0 -0.84544104749E+01  0.20006117566E+02 -0.25718226972E+03  0.25809967387E+03  0.10000000000E+01 0.  0.
    9000005    1    3    3    0    0  0.84544104749E+01 -0.20006117566E+02  0.59214501685E+01  0.22534093472E+02  0.10000000000E+01 0.  0.
<mgrwt>
<rscale>  0 0.12499325E+03</rscale>
<asrwt>0</asrwt>
<pdfrwt beam="2">  1        4 0.40914965E-01 0.12499325E+03</pdfrwt>
<pdfrwt beam="1">  1       -4 0.22594577E-02 0.12499325E+03</pdfrwt>
<totfact> 0.78105871E+03</totfact>
</mgrwt>
</event>
<event>
 5    1  0.3188180E-002  0.1249983E+03  0.7818608E-02  0.1235072E+00
         -4   -1    0    0    0  501 -0.00000000000E+00  0.00000000000E+00  0.56516301148E+02  0.56530568681E+02  0.12700000000E+01 0. -1.
          4   -1    0    0  501    0  0.00000000000E+00 -0.00000000000E+00 -0.69086497532E+02  0.69098169594E+02  0.12700000000E+01 0. -1.
         25    2    1    2    0    0  0.00000000000E+00  0.00000000000E+00 -0.12570196384E+02  0.12562873827E+03  0.12499828016E+03 0.  0.
    9000005    1    3    3    0    0 -0.44971974306E+02  0.32678206593E+02  0.22403555270E+02  0.59943831608E+02  0.10000000000E+01 0.  0.
    9000005    1    3    3    0    0  0.44971974306E+02 -0.32678206593E+02 -0.34973751654E+02  0.65684906667E+02  0.10000000000E+01 0.  0.
<mgrwt>
<rscale>  0 0.12499828E+03</rscale>
<asrwt>0</asrwt>
<pdfrwt beam="2">  1        4 0.10630687E-01 0.12499828E+03</pdfrwt>
<pdfrwt beam="1">  1       -4 0.86968109E-02 0.12499828E+03</pdfrwt>
<totfact> 0.10439519E+04</totfact>
</mgrwt>
</event>
<event>
 5    1  0.3188180E-002  0.1250040E+03  0.7818608E-02  0.1235063E+00
         -4   -1    0    0    0  501 -0.00000000000E+00  0.00000000000E+00  0.10060437788E+02  0.10140281479E+02  0.12700000000E+01 0. -1.
          4   -1    0    0  501    0  0.00000000000E+00 -0.00000000000E+00 -0.38668729824E+03  0.38668938377E+03  0.12700000000E+01 0. -1.
         25    2    1    2    0    0  0.00000000000E+00  0.00000000000E+00 -0.37662686045E+03  0.39682966525E+03  0.12500396477E+03 0.  0.
    9000005    1    3    3    0    0  0.38556830066E+02  0.33580085054E+02 -0.74239887590E+02  0.90148833416E+02  0.10000000000E+01 0.  0.
    9000005    1    3    3    0    0 -0.38556830066E+02 -0.33580085054E+02 -0.30238697286E+03  0.30668083183E+03  0.10000000000E+01 0.  0.
<mgrwt>
<rscale>  0 0.12500396E+03</rscale>
<asrwt>0</asrwt>
<pdfrwt beam="2">  1        4 0.59496644E-01 0.12500396E+03</pdfrwt>
<pdfrwt beam="1">  1       -4 0.15540622E-02 0.12500396E+03</pdfrwt>
<totfact> 0.64856632E+03</totfact>
</mgrwt>
</event>
<event>
 5    1  0.3188180E-002  0.1250016E+03  0.7818608E-02  0.1235067E+00
          4   -1    0    0  501    0  0.00000000000E+00  0.00000000000E+00  0.39315401690E+02  0.39335908659E+02  0.12700000000E+01 0. -1.
         -4   -1    0    0    0  501 -0.00000000000E+00 -0.00000000000E+00 -0.99308766482E+02  0.99316886783E+02  0.12700000000E+01 0. -1.
         25    2    1    2    0    0  0.00000000000E+00  0.00000000000E+00 -0.59993364792E+02  0.13865279544E+03  0.12500157545E+03 0.  0.
    9000005    1    3    3    0    0 -0.50034536217E+02 -0.36509201882E+02 -0.20784786593E+02  0.65340523339E+02  0.10000000000E+01 0.  0.
    9000005    1    3    3    0    0  0.50034536217E+02  0.36509201882E+02 -0.39208578199E+02  0.73312272103E+02  0.10000000000E+01 0.  0.
<mgrwt>
<rscale>  0 0.12500158E+03</rscale>
<asrwt>0</asrwt>
<pdfrwt beam="1">  1        4 0.60507255E-02 0.12500158E+03</pdfrwt>
<pdfrwt beam="2">  1       -4 0.15280474E-01 0.12500158E+03</pdfrwt>
<totfact> 0.10161223E+04</totfact>
</mgrwt>
</event>
<event>
 5    1  0.3188180E-002  0.1250075E+03  0.7818608E-02  0.1235058E+00
         -4   -1    0    0    0  501 -0.00000000000E+00  0.00000000000E+00  0.46547566596E+02  0.46564888661E+02  0.12700000000E+01 0.  1.
          4   -1    0    0  501    0  0.00000000000E+00 -0.00000000000E+00 -0.83891859948E+02  0.83901472368E+02  0.12700000000E+01 0.  1.
         25    2    1    2    0    0  0.00000000000E+00  0.00000000000E+00 -0.37344293352E+02  0.13046636103E+03  0.12500750023E+03 0.  0.
    9000005    1    3    3    0    0  0.46185628924E+02 -0.41265735940E+02 -0.27388213771E+02  0.67728040982E+02  0.10000000000E+01 0.  0.
    9000005    1    3    3    0    0 -0.46185628924E+02  0.41265735940E+02 -0.99560795807E+01  0.62738320047E+02  0.10000000000E+01 0.  0.
<mgrwt>
<rscale>  0 0.12500750E+03</rscale>
<asrwt>0</asrwt>
<pdfrwt beam="2">  1        4 0.12908512E-01 0.12500750E+03</pdfrwt>
<pdfrwt beam="1">  1       -4 0.71632360E-02 0.12500750E+03</pdfrwt>
<totfact> 0.10332792E+04</totfact>
</mgrwt>
</event>
<event>
 5    1  0.3188180E-002  0.1250000E+03  0.7818608E-02  0.1235069E+00
         -4   -1    0    0    0  501 -0.00000000000E+00  0.00000000000E+00  0.13084699195E+02  0.13146187776E+02  0.12700000000E+01 0.  1.
          4   -1    0    0  501    0  0.00000000000E+00 -0.00000000000E+00 -0.29777295726E+03  0.29777566552E+03  0.12700000000E+01 0.  1.
         25    2    1    2    0    0  0.00000000000E+00  0.00000000000E+00 -0.28468825807E+03  0.31092185330E+03  0.12499997831E+03 0.  0.
    9000005    1    3    3    0    0  0.98635187379E+00 -0.61555431345E+02 -0.11564628022E+03  0.13101567138E+03  0.10000000000E+01 0.  0.
    9000005    1    3    3    0    0 -0.98635187379E+00  0.61555431345E+02 -0.16904197784E+03  0.17990618192E+03  0.10000000000E+01 0.  0.
<mgrwt>
<rscale>  0 0.12499998E+03</rscale>
<asrwt>0</asrwt>
<pdfrwt beam="2">  1        4 0.45816157E-01 0.12499998E+03</pdfrwt>
<pdfrwt beam="1">  1       -4 0.20179691E-02 0.12499998E+03</pdfrwt>
<totfact> 0.74248970E+03</totfact>
</mgrwt>
</event>
<event>
 5    1  0.3188180E-002  0.1249985E+03  0.7818608E-02  0.1235072E+00
          4   -1    0    0  501    0  0.00000000000E+00  0.00000000000E+00  0.10000573482E+02  0.10080891328E+02  0.12700000000E+01 0.  1.
         -4   -1    0    0    0  501 -0.00000000000E+00 -0.00000000000E+00 -0.38894954857E+03  0.38895162197E+03  0.12700000000E+01 0.  1.
         25    2    1    2    0    0  0.00000000000E+00  0.00000000000E+00 -0.37894897509E+03  0.39903251330E+03  0.12499848379E+03 0.  0.
    9000005    1    3    3    0    0  0.91683438920E+00 -0.37612287065E+02 -0.34875805999E+03  0.35078299436E+03  0.10000000000E+01 0.  0.
    9000005    1    3    3    0    0 -0.91683438920E+00  0.37612287065E+02 -0.30190915101E+02  0.48249518943E+02  0.10000000000E+01 0.  0.
<mgrwt>
<rscale>  0 0.12499848E+03</rscale>
<asrwt>0</asrwt>
<pdfrwt beam="1">  1        4 0.15448879E-02 0.12499848E+03</pdfrwt>
<pdfrwt beam="2">  1       -4 0.59844718E-01 0.12499848E+03</pdfrwt>
<totfact> 0.64649164E+03</totfact>
</mgrwt>
</event>
<event>
 5    1  0.3188180E-002  0.1249980E+03  0.7818608E-02  0.1235072E+00
         -4   -1    0    0    0  501 -0.00000000000E+00  0.00000000000E+00  0.55339770849E+03  0.55339916576E+03  0.12700000000E+01 0. -1.
          4   -1    0    0  501    0  0.00000000000E+00 -0.00000000000E+00 -0.69998379918E+01  0.71141149774E+01  0.12700000000E+01 0. -1.
         25    2    1    2    0    0  0.00000000000E+00  0.00000000000E+00  0.54639787050E+03  0.56051328073E+03  0.12499801997E+03 0.  0.
    9000005    1    3    3    0    0  0.57120035857E+02 -0.20048126475E+01  0.15989836472E+03  0.16980931897E+03  0.10000000000E+01 0.  0.
    9000005    1    3    3    0    0 -0.57120035857E+02  0.20048126475E+01  0.38649950578E+03  0.39070396176E+03  0.10000000000E+01 0.  0.
<mgrwt>
<rscale>  0 0.12499802E+03</rscale>
<asrwt>0</asrwt>
<pdfrwt beam="2">  1        4 0.10858005E-02 0.12499802E+03</pdfrwt>
<pdfrwt beam="1">  1       -4 0.85147033E-01 0.12499802E+03</pdfrwt>
<totfact> 0.51461145E+03</totfact>
</mgrwt>
</event>
<event>
 5    1  0.3188180E-002  0.1249988E+03  0.7818608E-02  0.1235071E+00
         -4   -1    0    0    0  501 -0.00000000000E+00  0.00000000000E+00  0.21417275678E+03  0.21417652217E+03  0.12700000000E+01 0. -1.
          4   -1    0    0  501    0  0.00000000000E+00 -0.00000000000E+00 -0.18212397386E+02  0.18256623964E+02  0.12700000000E+01 0. -1.
         25    2    1    2    0    0  0.00000000000E+00  0.00000000000E+00  0.19596035939E+03  0.23243314613E+03  0.12499881986E+03 0.  0.
    9000005    1    3    3    0    0  0.23323456145E+02 -0.23018657526E+02 -0.96341923480E+00  0.32798938664E+02  0.10000000000E+01 0.  0.
    9000005    1    3    3    0    0 -0.23323456145E+02  0.23018657526E+02  0.19692377863E+03  0.19963420747E+03  0.10000000000E+01 0.  0.
<mgrwt>
<rscale>  0 0.12499882E+03</rscale>
<asrwt>0</asrwt>
<pdfrwt beam="2">  1        4 0.28055992E-02 0.12499882E+03</pdfrwt>
<pdfrwt beam="1">  1       -4 0.32953344E-01 0.12499882E+03</pdfrwt>
<totfact> 0.84939617E+03</totfact>
</mgrwt>
</event>
<event>
 5    1  0.3188180E-002  0.1250029E+03  0.7818608E-02  0.1235065E+00
          4   -1    0    0  501    0  0.00000000000E+00  0.00000000000E+00  0.17258154252E+02  0.17304819796E+02  0.12700000000E+01 0.  1.
         -4   -1    0    0    0  501 -0.00000000000E+00 -0.00000000000E+00 -0.22599856516E+03  0.22600213352E+03  0.12700000000E+01 0.  1.
         25    2    1    2    0    0  0.00000000000E+00  0.00000000000E+00 -0.20874041091E+03  0.24330695332E+03  0.12500285751E+03 0.  0.
    9000005    1    3    3    0    0 -0.25125636670E+02  0.49750930246E+01 -0.21532211802E+03  0.21684248587E+03  0.10000000000E+01 0.  0.
    9000005    1    3    3    0    0  0.25125636670E+02 -0.49750930246E+01  0.65817071115E+01  0.26464467446E+02  0.10000000000E+01 0.  0.
<mgrwt>
<rscale>  0 0.12500286E+03</rscale>
<asrwt>0</asrwt>
<pdfrwt beam="1">  1        4 0.26589650E-02 0.12500286E+03</pdfrwt>
<pdfrwt beam="2">  1       -4 0.34772872E-01 0.12500286E+03</pdfrwt>
<totfact> 0.83302003E+03</totfact>
</mgrwt>
</event>
<event>
 5    1  0.3188180E-002  0.1249987E+03  0.7818608E-02  0.1235071E+00
         -4   -1    0    0    0  501 -0.00000000000E+00  0.00000000000E+00  0.18676210164E+02  0.18719340964E+02  0.12700000000E+01 0.  1.
          4   -1    0    0  501    0  0.00000000000E+00 -0.00000000000E+00 -0.20886573592E+03  0.20886959698E+03  0.12700000000E+01 0.  1.
         25    2    1    2    0    0  0.00000000000E+00  0.00000000000E+00 -0.19018952576E+03  0.22758893794E+03  0.12499867586E+03 0.  0.
    9000005    1    3    3    0    0 -0.16312847305E+02  0.27963021048E+02  0.22271335809E+01  0.32465360884E+02  0.10000000000E+01 0.  0.
    9000005    1    3    3    0    0  0.16312847305E+02 -0.27963021048E+02 -0.19241665934E+03  0.19512357706E+03  0.10000000000E+01 0.  0.
<mgrwt>
<rscale>  0 0.12499868E+03</rscale>
<asrwt>0</asrwt>
<pdfrwt beam="2">  1        4 0.32136803E-01 0.12499868E+03</pdfrwt>
<pdfrwt beam="1">  1       -4 0.28768780E-02 0.12499868E+03</pdfrwt>
<totfact> 0.85683731E+03</totfact>
</mgrwt>
</event>
<event>
 5    1  0.3188180E-002  0.1250007E+03  0.7818608E-02  0.1235068E+00
          4   -1    0    0  501    0  0.00000000000E+00  0.00000000000E+00  0.45125021214E+02  0.45142889136E+02  0.12700000000E+01 0. -1.
         -4   -1    0    0    0  501 -0.00000000000E+00 -0.00000000000E+00 -0.86526395447E+02  0.86535715223E+02  0.12700000000E+01 0. -1.
         25    2    1    2    0    0  0.00000000000E+00  0.00000000000E+00 -0.41401374234E+02  0.13167860436E+03  0.12500072423E+03 0.  0.
    9000005    1    3    3    0    0  0.41106633451E+02  0.15849705044E+02 -0.67389147928E+02  0.80518729014E+02  0.10000000000E+01 0.  0.
    9000005    1    3    3    0    0 -0.41106633451E+02 -0.15849705044E+02  0.25987773694E+02  0.51159875344E+02  0.10000000000E+01 0.  0.
<mgrwt>
<rscale>  0 0.12500072E+03</rscale>
<asrwt>0</asrwt>
<pdfrwt beam="1">  1        4 0.69444023E-02 0.12500072E+03</pdfrwt>
<pdfrwt beam="2">  1       -4 0.13313844E-01 0.12500072E+03</pdfrwt>
<totfact> 0.10308395E+04</totfact>
</mgrwt>
</event>
<event>
 5    1  0.3188180E-002  0.1250023E+03  0.7818608E-02  0.1235066E+00
         -4   -1    0    0    0  501 -0.00000000000E+00  0.00000000000E+00  0.10311928864E+03  0.10312710890E+03  0.12700000000E+01 0.  1.
          4   -1    0    0  501    0  0.00000000000E+00 -0.00000000000E+00 -0.37862386772E+02  0.37883680287E+02  0.12700000000E+01 0.  1.
         25    2    1    2    0    0  0.00000000000E+00  0.00000000000E+00  0.65256901866E+02  0.14101078918E+03  0.12500231768E+03 0.  0.
    9000005    1    3    3    0    0  0.97847491844E+01  0.60099409581E+02  0.48490290266E+02  0.77845928595E+02  0.10000000000E+01 0.  0.
    9000005    1    3    3    0    0 -0.97847491844E+01 -0.60099409581E+02  0.16766611600E+02  0.63164860589E+02  0.10000000000E+01 0.  0.
<mgrwt>
<rscale>  0 0.12500232E+03</rscale>
<asrwt>0</asrwt>
<pdfrwt beam="2">  1        4 0.58272221E-02 0.12500232E+03</pdfrwt>
<pdfrwt beam="1">  1       -4 0.15866745E-01 0.12500232E+03</pdfrwt>
<totfact> 0.10112152E+04</totfact>
</mgrwt>
</event>
<event>
 5    1  0.3188180E-002  0.1249967E+03  0.7818608E-02  0.1235074E+00
         -4   -1    0    0    0  501 -0.00000000000E+00  0.00000000000E+00  0.44301982945E+03  0.44302164979E+03  0.12700000000E+01 0.  1.
          4   -1    0    0  501    0  0.00000000000E+00 -0.00000000000E+00 -0.87692819516E+01  0.88607677966E+01  0.12700000000E+01 0.  1.
         25    2    1    2    0    0  0.00000000000E+00  0.00000000000E+00  0.43425054750E+03  0.45188241759E+03  0.12499672525E+03 0.  0.
    9000005    1    3    3    0    0 -0.14194265041E+02  0.37399106794E+02  0.43564932509E+02  0.59152968594E+02  0.10000000000E+01 0.  0.
    9000005    1    3    3    0    0  0.14194265041E+02 -0.37399106794E+02  0.39068561499E+03  0.39272944899E+03  0.10000000000E+01 0.  0.
<mgrwt>
<rscale>  0 0.12499673E+03</rscale>
<asrwt>0</asrwt>
<pdfrwt beam="2">  1        4 0.13562976E-02 0.12499673E+03</pdfrwt>
<pdfrwt beam="1">  1       -4 0.68164081E-01 0.12499673E+03</pdfrwt>
<totfact> 0.59805375E+03</totfact>
</mgrwt>
</event>
<event>
 5    1  0.3188180E-002  0.1249994E+03  0.7818608E-02  0.1235070E+00
         -4   -1    0    0    0  501 -0.00000000000E+00  0.00000000000E+00  0.21538097399E+03  0.21538471825E+03  0.12700000000E+01 0. -1.
          4   -1    0    0  501    0  0.00000000000E+00 -0.00000000000E+00 -0.18110150906E+02  0.18154626568E+02  0.12700000000E+01 0. -1.
         25    2    1    2    0    0  0.00000000000E+00  0.00000000000E+00  0.19727082309E+03  0.23353934482E+03  0.12499939175E+03 0.  0.
    9000005    1    3    3    0    0  0.18183047264E+02 -0.59332090373E+02  0.84869042939E+02  0.10514121269E+03  0.10000000000E+01 0.  0.
    9000005    1    3    3    0    0 -0.18183047264E+02  0.59332090373E+02  0.11240178015E+03  0.12839813214E+03  0.10000000000E+01 0.  0.
<mgrwt>
<rscale>  0 0.12499939E+03</rscale>
<asrwt>0</asrwt>
<pdfrwt beam="2">  1        4 0.27898864E-02 0.12499939E+03</pdfrwt>
<pdfrwt beam="1">  1       -4 0.33139242E-01 0.12499939E+03</pdfrwt>
<totfact> 0.84770224E+03</totfact>
</mgrwt>
</event>
<event>
 5    1  0.3188180E-002  0.1250019E+03  0.7818608E-02  0.1235066E+00
         -4   -1    0    0    0  501 -0.00000000000E+00  0.00000000000E+00  0.72381208008E+02  0.72392348855E+02  0.12700000000E+01 0.  1.
          4   -1    0    0  501    0  0.00000000000E+00 -0.00000000000E+00 -0.53946605878E+02  0.53961552848E+02  0.12700000000E+01 0.  1.
         25    2    1    2    0    0  0.00000000000E+00  0.00000000000E+00  0.18434602130E+02  0.12635390170E+03  0.12500189566E+03 0.  0.
    9000005    1    3    3    0    0 -0.48325841820E+02  0.28301520318E+02  0.37248183117E+02  0.67266560678E+02  0.10000000000E+01 0.  0.
    9000005    1    3    3    0    0  0.48325841820E+02 -0.28301520318E+02 -0.18813580986E+02  0.59087341025E+02  0.10000000000E+01 0.  0.
<mgrwt>
<rscale>  0 0.12500190E+03</rscale>
<asrwt>0</asrwt>
<pdfrwt beam="2">  1        4 0.83014846E-02 0.12500190E+03</pdfrwt>
<pdfrwt beam="1">  1       -4 0.11137577E-01 0.12500190E+03</pdfrwt>
<totfact> 0.10422770E+04</totfact>
</mgrwt>
</event>
<event>
 5    1  0.3188180E-002  0.1250090E+03  0.7818608E-02  0.1235055E+00
          4   -1    0    0  501    0  0.00000000000E+00  0.00000000000E+00  0.30996878909E+02  0.31022885135E+02  0.12700000000E+01 0.  1.
         -4   -1    0    0    0  501 -0.00000000000E+00 -0.00000000000E+00 -0.12595690185E+03  0.12596330427E+03  0.12700000000E+01 0.  1.
         25    2    1    2    0    0  0.00000000000E+00  0.00000000000E+00 -0.94960022942E+02  0.15698618941E+03  0.12500903051E+03 0.  0.
    9000005    1    3    3    0    0  0.10434846664E+02 -0.50900606303E+02 -0.91091802250E+02  0.10487361052E+03  0.10000000000E+01 0.  0.
    9000005    1    3    3    0    0 -0.10434846664E+02  0.50900606303E+02 -0.38682206913E+01  0.52112578887E+02  0.10000000000E+01 0.  0.
<mgrwt>
<rscale>  0 0.12500903E+03</rscale>
<asrwt>0</asrwt>
<pdfrwt beam="1">  1        4 0.47712436E-02 0.12500903E+03</pdfrwt>
<pdfrwt beam="2">  1       -4 0.19380478E-01 0.12500903E+03</pdfrwt>
<totfact> 0.97907109E+03</totfact>
</mgrwt>
</event>
<event>
 5    1  0.3188180E-002  0.1250017E+03  0.7818608E-02  0.1235067E+00
         -4   -1    0    0    0  501 -0.00000000000E+00  0.00000000000E+00  0.18519376206E+02  0.18562871413E+02  0.12700000000E+01 0. -1.
          4   -1    0    0  501    0  0.00000000000E+00 -0.00000000000E+00 -0.21064048657E+03  0.21064431509E+03  0.12700000000E+01 0. -1.
         25    2    1    2    0    0  0.00000000000E+00  0.00000000000E+00 -0.19212111036E+03  0.22920718651E+03  0.12500165319E+03 0.  0.
    9000005    1    3    3    0    0 -0.34629813494E+02  0.51778629680E+02 -0.86873549270E+02  0.10690305906E+03  0.10000000000E+01 0.  0.
    9000005    1    3    3    0    0  0.34629813494E+02 -0.51778629680E+02 -0.10524756109E+03  0.12230412744E+03  0.10000000000E+01 0.  0.
<mgrwt>
<rscale>  0 0.12500165E+03</rscale>
<asrwt>0</asrwt>
<pdfrwt beam="2">  1        4 0.32409867E-01 0.12500165E+03</pdfrwt>
<pdfrwt beam="1">  1       -4 0.28527752E-02 0.12500165E+03</pdfrwt>
<totfact> 0.85428332E+03</totfact>
</mgrwt>
</event>
<event>
 5    1  0.3188180E-002  0.1250030E+03  0.7818608E-02  0.1235065E+00
         -4   -1    0    0    0  501 -0.00000000000E+00  0.00000000000E+00  0.65603537867E+01  0.66821509866E+01  0.12700000000E+01 0.  1.
          4   -1    0    0  501    0  0.00000000000E+00 -0.00000000000E+00 -0.58986179938E+03  0.58986316656E+03  0.12700000000E+01 0.  1.
         25    2    1    2    0    0  0.00000000000E+00  0.00000000000E+00 -0.58330144559E+03  0.59654531755E+03  0.12500295780E+03 0.  0.
    9000005    1    3    3    0    0 -0.56428809924E+02 -0.24720855452E+02 -0.34172605902E+03  0.34723627503E+03  0.10000000000E+01 0.  0.
    9000005    1    3    3    0    0  0.56428809924E+02  0.24720855452E+02 -0.24157538658E+03  0.24930904252E+03  0.10000000000E+01 0.  0.
<mgrwt>
<rscale>  0 0.12500296E+03</rscale>
<asrwt>0</asrwt>
<pdfrwt beam="2">  1        4 0.90757402E-01 0.12500296E+03</pdfrwt>
<pdfrwt beam="1">  1       -4 0.10187598E-02 0.12500296E+03</pdfrwt>
<totfact> 0.49083241E+03</totfact>
</mgrwt>
</event>
<event>
 5    1  0.3188180E-002  0.1249996E+03  0.7818608E-02  0.1235070E+00
         -4   -1    0    0    0  501 -0.00000000000E+00  0.00000000000E+00  0.31230399713E+01  0.33713912057E+01  0.12700000000E+01 0.  1.
          4   -1    0    0  501    0  0.00000000000E+00 -0.00000000000E+00 -0.12026963682E+04  0.12026970387E+04  0.12700000000E+01 0.  1.
         25    2    1    2    0    0  0.00000000000E+00  0.00000000000E+00 -0.11995733282E+04  0.12060684299E+04  0.12499955160E+03 0.  0.
    9000005    1    3    3    0    0  0.31480170478E+02  0.30088838770E+02 -0.16733181073E+03  0.17290828273E+03  0.10000000000E+01 0.  0.
    9000005    1    3    3    0    0 -0.31480170478E+02 -0.30088838770E+02 -0.10322415175E+04  0.10331601472E+04  0.10000000000E+01 0.  0.
<mgrwt>
<rscale>  0 0.12499955E+03</rscale>
<asrwt>0</asrwt>
<pdfrwt beam="2">  1        4 0.18504901E+00 0.12499955E+03</pdfrwt>
<pdfrwt beam="1">  1       -4 0.49962417E-03 0.12499955E+03</pdfrwt>
<totfact> 0.24554758E+03</totfact>
</mgrwt>
</event>
<event>
 5    1  0.3188180E-002  0.1250005E+03  0.7818608E-02  0.1235069E+00
         -4   -1    0    0    0  501 -0.00000000000E+00  0.00000000000E+00  0.27975744916E+02  0.28004556837E+02  0.12700000000E+01 0. -1.
          4   -1    0    0  501    0  0.00000000000E+00 -0.00000000000E+00 -0.13952738936E+03  0.13953316911E+03  0.12700000000E+01 0. -1.
         25    2    1    2    0    0  0.00000000000E+00  0.00000000000E+00 -0.11155164444E+03  0.16753772594E+03  0.12500048095E+03 0.  0.
    9000005    1    3    3    0    0 -0.20313987410E+02 -0.56153402189E+02 -0.80468488203E+02  0.10020998082E+03  0.10000000000E+01 0.  0.
    9000005    1    3    3    0    0  0.20313987410E+02  0.56153402189E+02 -0.31083156238E+02  0.67327745125E+02  0.10000000000E+01 0.  0.
<mgrwt>
<rscale>  0 0.12500048E+03</rscale>
<asrwt>0</asrwt>
<pdfrwt beam="2">  1        4 0.21468413E-01 0.12500048E+03</pdfrwt>
<pdfrwt beam="1">  1       -4 0.43066217E-02 0.12500048E+03</pdfrwt>
<totfact> 0.95907899E+03</totfact>
</mgrwt>
</event>
<event>
 5    1  0.3188180E-002  0.1250000E+03  0.7818608E-02  0.1235069E+00
          4   -1    0    0  501    0  0.00000000000E+00  0.00000000000E+00  0.31481132439E+01  0.33946306127E+01  0.12700000000E+01 0. -1.
         -4   -1    0    0    0  501 -0.00000000000E+00 -0.00000000000E+00 -0.11938243951E+04  0.11938250707E+04  0.12700000000E+01 0. -1.
         25    2    1    2    0    0  0.00000000000E+00  0.00000000000E+00 -0.11906762819E+04  0.11972197013E+04  0.12500001936E+03 0.  0.
    9000005    1    3    3    0    0 -0.29951619478E+02  0.20722865047E+02 -0.10817066090E+04  0.10823200657E+04  0.10000000000E+01 0.  0.
    9000005    1    3    3    0    0  0.29951619478E+02 -0.20722865047E+02 -0.10896967290E+03  0.11489963559E+03  0.10000000000E+01 0.  0.
<mgrwt>
<rscale>  0 0.12500002E+03</rscale>
<asrwt>0</asrwt>
<pdfrwt beam="1">  1        4 0.50334091E-03 0.12500002E+03</pdfrwt>
<pdfrwt beam="2">  1       -4 0.18368396E+00 0.12500002E+03</pdfrwt>
<totfact> 0.24785686E+03</totfact>
</mgrwt>
</event>
<event>
 5    1  0.3188180E-002  0.1249992E+03  0.7818608E-02  0.1235071E+00
         -4   -1    0    0    0  501 -0.00000000000E+00  0.00000000000E+00  0.33443800800E+01  0.35773982332E+01  0.12700000000E+01 0. -1.
          4   -1    0    0  501    0  0.00000000000E+00 -0.00000000000E+00 -0.11284362897E+04  0.11284370043E+04  0.12700000000E+01 0. -1.
         25    2    1    2    0    0  0.00000000000E+00  0.00000000000E+00 -0.11250919096E+04  0.11320144026E+04  0.12499921035E+03 0.  0.
    9000005    1    3    3    0    0 -0.31637812843E+02 -0.23298094349E+02 -0.10026282519E+04  0.10033983077E+04  0.10000000000E+01 0.  0.
    9000005    1    3    3    0    0  0.31637812843E+02  0.23298094349E+02 -0.12246365772E+03  0.12861609488E+03  0.10000000000E+01 0.  0.
<mgrwt>
<rscale>  0 0.12499921E+03</rscale>
<asrwt>0</asrwt>
<pdfrwt beam="2">  1        4 0.17362327E+00 0.12499921E+03</pdfrwt>
<pdfrwt beam="1">  1       -4 0.53250036E-03 0.12499921E+03</pdfrwt>
<totfact> 0.26565093E+03</totfact>
</mgrwt>
</event>
<event>
 5    1  0.3188180E-002  0.1250011E+03  0.7818608E-02  0.1235068E+00
          4   -1    0    0  501    0  0.00000000000E+00  0.00000000000E+00  0.26203454676E+03  0.26203762439E+03  0.12700000000E+01 0.  1.
         -4   -1    0    0    0  501 -0.00000000000E+00 -0.00000000000E+00 -0.14877419708E+02  0.14931527623E+02  0.12700000000E+01 0.  1.
         25    2    1    2    0    0  0.00000000000E+00  0.00000000000E+00  0.24715712705E+03  0.27696915201E+03  0.12500106285E+03 0.  0.
    9000005    1    3    3    0    0 -0.54304491643E+02  0.11850956756E+02  0.18686846451E+03  0.19496216560E+03  0.10000000000E+01 0.  0.
    9000005    1    3    3    0    0  0.54304491643E+02 -0.11850956756E+02  0.60288662544E+02  0.82006986410E+02  0.10000000000E+01 0.  0.
<mgrwt>
<rscale>  0 0.12500106E+03</rscale>
<asrwt>0</asrwt>
<pdfrwt beam="1">  1        4 0.40317407E-01 0.12500106E+03</pdfrwt>
<pdfrwt beam="2">  1       -4 0.22932326E-02 0.12500106E+03</pdfrwt>
<totfact> 0.78579838E+03</totfact>
</mgrwt>
</event>
<event>
 5    1  0.3188180E-002  0.1249906E+03  0.7818608E-02  0.1235084E+00
         -4   -1    0    0    0  501 -0.00000000000E+00  0.00000000000E+00  0.17532769036E+03  0.17533228997E+03  0.12700000000E+01 0. -1.
          4   -1    0    0  501    0  0.00000000000E+00 -0.00000000000E+00 -0.22253372369E+02  0.22289582360E+02  0.12700000000E+01 0. -1.
         25    2    1    2    0    0  0.00000000000E+00  0.00000000000E+00  0.15307431799E+03  0.19762187233E+03  0.12499063003E+03 0.  0.
    9000005    1    3    3    0    0  0.55317078481E+02  0.19662386043E+02  0.11037683747E+03  0.12502253736E+03  0.10000000000E+01 0.  0.
    9000005    1    3    3    0    0 -0.55317078481E+02 -0.19662386043E+02  0.42697480521E+02  0.72599334979E+02  0.10000000000E+01 0.  0.
<mgrwt>
<rscale>  0 0.12499063E+03</rscale>
<asrwt>0</asrwt>
<pdfrwt beam="2">  1        4 0.34267350E-02 0.12499063E+03</pdfrwt>
<pdfrwt beam="1">  1       -4 0.26976630E-01 0.12499063E+03</pdfrwt>
<totfact> 0.90556777E+03</totfact>
</mgrwt>
</event>
<event>
 5    1  0.3188180E-002  0.1249978E+03  0.7818608E-02  0.1235073E+00
         -4   -1    0    0    0  501 -0.00000000000E+00  0.00000000000E+00  0.42298215301E+01  0.44163661732E+01  0.12700000000E+01 0.  1.
          4   -1    0    0  501    0  0.00000000000E+00 -0.00000000000E+00 -0.90335874494E+03  0.90335963767E+03  0.12700000000E+01 0.  1.
         25    2    1    2    0    0  0.00000000000E+00  0.00000000000E+00 -0.89912892341E+03  0.90777600384E+03  0.12499780890E+03 0.  0.
    9000005    1    3    3    0    0  0.17123189037E+02  0.56824236281E+01 -0.15059508375E+02  0.23521954289E+02  0.10000000000E+01 0.  0.
    9000005    1    3    3    0    0 -0.17123189037E+02 -0.56824236281E+01 -0.88406941504E+03  0.88425404955E+03  0.10000000000E+01 0.  0.
<mgrwt>
<rscale>  0 0.12499781E+03</rscale>
<asrwt>0</asrwt>
<pdfrwt beam="2">  1        4 0.13899254E+00 0.12499781E+03</pdfrwt>
<pdfrwt beam="1">  1       -4 0.66516075E-03 0.12499781E+03</pdfrwt>
<totfact> 0.33865567E+03</totfact>
</mgrwt>
</event>
<event>
 5    1  0.3188180E-002  0.1250028E+03  0.7818608E-02  0.1235065E+00
         -4   -1    0    0    0  501 -0.00000000000E+00  0.00000000000E+00  0.26283230318E+03  0.26283537147E+03  0.12700000000E+01 0.  1.
          4   -1    0    0  501    0  0.00000000000E+00 -0.00000000000E+00 -0.14832523475E+02  0.14886794572E+02  0.12700000000E+01 0.  1.
         25    2    1    2    0    0  0.00000000000E+00  0.00000000000E+00  0.24799977971E+03  0.27772216604E+03  0.12500284307E+03 0.  0.
    9000005    1    3    3    0    0 -0.31723337788E+02 -0.15809962023E+02  0.23835091051E+03  0.24097402682E+03  0.10000000000E+01 0.  0.
    9000005    1    3    3    0    0  0.31723337788E+02  0.15809962023E+02  0.96488691959E+01  0.36748139223E+02  0.10000000000E+01 0.  0.
<mgrwt>
<rscale>  0 0.12500284E+03</rscale>
<asrwt>0</asrwt>
<pdfrwt beam="2">  1        4 0.22863374E-02 0.12500284E+03</pdfrwt>
<pdfrwt beam="1">  1       -4 0.40440150E-01 0.12500284E+03</pdfrwt>
<totfact> 0.78476140E+03</totfact>
</mgrwt>
</event>
<event>
 5    1  0.3188180E-002  0.1250003E+03  0.7818608E-02  0.1235069E+00
         -4   -1    0    0    0  501 -0.00000000000E+00  0.00000000000E+00  0.37339642429E+03  0.37339858405E+03  0.12700000000E+01 0.  1.
          4   -1    0    0  501    0  0.00000000000E+00 -0.00000000000E+00 -0.10420713801E+02  0.10497817684E+02  0.12700000000E+01 0.  1.
         25    2    1    2    0    0  0.00000000000E+00  0.00000000000E+00  0.36297571048E+03  0.38389640173E+03  0.12500032345E+03 0.  0.
    9000005    1    3    3    0    0  0.35641275033E+02  0.42569155716E+02  0.93391136181E+02  0.10865237145E+03  0.10000000000E+01 0.  0.
    9000005    1    3    3    0    0 -0.35641275033E+02 -0.42569155716E+02  0.26958457430E+03  0.27524403028E+03  0.10000000000E+01 0.  0.
<mgrwt>
<rscale>  0 0.12500032E+03</rscale>
<asrwt>0</asrwt>
<pdfrwt beam="2">  1        4 0.16092839E-02 0.12500032E+03</pdfrwt>
<pdfrwt beam="1">  1       -4 0.57451703E-01 0.12500032E+03</pdfrwt>
<totfact> 0.66149256E+03</totfact>
</mgrwt>
</event>
<event>
 5    1  0.3188180E-002  0.1249978E+03  0.7818608E-02  0.1235073E+00
         -4   -1    0    0    0  501 -0.00000000000E+00  0.00000000000E+00  0.14724727209E+02  0.14779394148E+02  0.12700000000E+01 0.  1.
          4   -1    0    0  501    0  0.00000000000E+00 -0.00000000000E+00 -0.26472785931E+03  0.26473090563E+03  0.12700000000E+01 0.  1.
         25    2    1    2    0    0  0.00000000000E+00  0.00000000000E+00 -0.25000313210E+03  0.27951029978E+03  0.12499776646E+03 0.  0.
    9000005    1    3    3    0    0  0.45780782872E+02  0.93441938064E+01 -0.21779165482E+03  0.22274963288E+03  0.10000000000E+01 0.  0.
    9000005    1    3    3    0    0 -0.45780782872E+02 -0.93441938064E+01 -0.32211477287E+02  0.56760666903E+02  0.10000000000E+01 0.  0.
<mgrwt>
<rscale>  0 0.12499777E+03</rscale>
<asrwt>0</asrwt>
<pdfrwt beam="2">  1        4 0.40731799E-01 0.12499777E+03</pdfrwt>
<pdfrwt beam="1">  1       -4 0.22697823E-02 0.12499777E+03</pdfrwt>
<totfact> 0.78246967E+03</totfact>
</mgrwt>
</event>
<event>
 5    1  0.3188180E-002  0.1250001E+03  0.7818608E-02  0.1235069E+00
         -4   -1    0    0    0  501 -0.00000000000E+00  0.00000000000E+00  0.19193773660E+02  0.19235744002E+02  0.12700000000E+01 0. -1.
          4   -1    0    0  501    0  0.00000000000E+00 -0.00000000000E+00 -0.20325053573E+03  0.20325450346E+03  0.12700000000E+01 0. -1.
         25    2    1    2    0    0  0.00000000000E+00  0.00000000000E+00 -0.18405676207E+03  0.22249024746E+03  0.12500007420E+03 0.  0.
    9000005    1    3    3    0    0 -0.13078246539E+01  0.38095670148E+02 -0.38860904142E+01  0.38328738409E+02  0.10000000000E+01 0.  0.
    9000005    1    3    3    0    0  0.13078246539E+01 -0.38095670148E+02 -0.18017067166E+03  0.18416150905E+03  0.10000000000E+01 0.  0.
<mgrwt>
<rscale>  0 0.12500007E+03</rscale>
<asrwt>0</asrwt>
<pdfrwt beam="2">  1        4 0.31272845E-01 0.12500007E+03</pdfrwt>
<pdfrwt beam="1">  1       -4 0.29564221E-02 0.12500007E+03</pdfrwt>
<totfact> 0.86475685E+03</totfact>
</mgrwt>
</event>
<event>
 5    1  0.3188180E-002  0.1250017E+03  0.7818608E-02  0.1235067E+00
          4   -1    0    0  501    0  0.00000000000E+00  0.00000000000E+00  0.19419961380E+03  0.19420376645E+03  0.12700000000E+01 0. -1.
         -4   -1    0    0    0  501 -0.00000000000E+00 -0.00000000000E+00 -0.20090741390E+02  0.20130841751E+02  0.12700000000E+01 0. -1.
         25    2    1    2    0    0  0.00000000000E+00  0.00000000000E+00  0.17410887241E+03  0.21433460820E+03  0.12500169926E+03 0.  0.
    9000005    1    3    3    0    0 -0.56842351207E+02  0.93403092856E+01  0.45509476139E+02  0.73419389039E+02  0.10000000000E+01 0.  0.
    9000005    1    3    3    0    0  0.56842351207E+02 -0.93403092856E+01  0.12859939627E+03  0.14091521916E+03  0.10000000000E+01 0.  0.
<mgrwt>
<rscale>  0 0.12500170E+03</rscale>
<asrwt>0</asrwt>
<pdfrwt beam="1">  1        4 0.29880268E-01 0.12500170E+03</pdfrwt>
<pdfrwt beam="2">  1       -4 0.30942874E-02 0.12500170E+03</pdfrwt>
<totfact> 0.87769506E+03</totfact>
</mgrwt>
</event>
<event>
 5    1  0.3188180E-002  0.1249987E+03  0.7818608E-02  0.1235071E+00
          4   -1    0    0  501    0  0.00000000000E+00  0.00000000000E+00  0.59320581849E+01  0.60664828615E+01  0.12700000000E+01 0. -1.
         -4   -1    0    0    0  501 -0.00000000000E+00 -0.00000000000E+00 -0.65097221575E+03  0.65097345459E+03  0.12700000000E+01 0. -1.
         25    2    1    2    0    0  0.00000000000E+00  0.00000000000E+00 -0.64504015757E+03  0.65703993745E+03  0.12499869812E+03 0.  0.
    9000005    1    3    3    0    0  0.29679001937E+02 -0.35554923482E+02 -0.10199197512E+03  0.11201945692E+03  0.10000000000E+01 0.  0.
    9000005    1    3    3    0    0 -0.29679001937E+02  0.35554923482E+02 -0.54304818245E+03  0.54502048053E+03  0.10000000000E+01 0.  0.
<mgrwt>
<rscale>  0 0.12499870E+03</rscale>
<asrwt>0</asrwt>
<pdfrwt beam="1">  1        4 0.92306051E-03 0.12499870E+03</pdfrwt>
<pdfrwt beam="2">  1       -4 0.10015995E+00 0.12499870E+03</pdfrwt>
<totfact> 0.45454649E+03</totfact>
</mgrwt>
</event>
<event>
 5    1  0.3188180E-002  0.1250017E+03  0.7818608E-02  0.1235067E+00
         -4   -1    0    0    0  501 -0.00000000000E+00  0.00000000000E+00  0.39321343436E+02  0.39341847308E+02  0.12700000000E+01 0.  1.
          4   -1    0    0  501    0  0.00000000000E+00 -0.00000000000E+00 -0.99293902089E+02  0.99302023605E+02  0.12700000000E+01 0.  1.
         25    2    1    2    0    0  0.00000000000E+00  0.00000000000E+00 -0.59972558653E+02  0.13864387091E+03  0.12500166059E+03 0.  0.
    9000005    1    3    3    0    0 -0.54009838533E+01 -0.27534628529E+02  0.31947111199E+02  0.42531685939E+02  0.10000000000E+01 0.  0.
    9000005    1    3    3    0    0  0.54009838533E+01  0.27534628529E+02 -0.91919669852E+02  0.96112184975E+02  0.10000000000E+01 0.  0.
<mgrwt>
<rscale>  0 0.12500166E+03</rscale>
<asrwt>0</asrwt>
<pdfrwt beam="2">  1        4 0.15278187E-01 0.12500166E+03</pdfrwt>
<pdfrwt beam="1">  1       -4 0.60516394E-02 0.12500166E+03</pdfrwt>
<totfact> 0.10161390E+04</totfact>
</mgrwt>
</event>
<event>
 5    1  0.3188180E-002  0.1250024E+03  0.7818608E-02  0.1235066E+00
          4   -1    0    0  501    0  0.00000000000E+00  0.00000000000E+00  0.34731720447E+02  0.34754932099E+02  0.12700000000E+01 0.  1.
         -4   -1    0    0    0  501 -0.00000000000E+00 -0.00000000000E+00 -0.11240914892E+03  0.11241632293E+03  0.12700000000E+01 0.  1.
         25    2    1    2    0    0  0.00000000000E+00  0.00000000000E+00 -0.77677428471E+02  0.14717125503E+03  0.12500238163E+03 0.  0.
    9000005    1    3    3    0    0  0.50469004701E+02  0.32920427048E+02 -0.19331520992E+02  0.63289672589E+02  0.10000000000E+01 0.  0.
    9000005    1    3    3    0    0 -0.50469004701E+02 -0.32920427048E+02 -0.58345907479E+02  0.83881582437E+02  0.10000000000E+01 0.  0.
<mgrwt>
<rscale>  0 0.12500238E+03</rscale>
<asrwt>0</asrwt>
<pdfrwt beam="1">  1        4 0.53456790E-02 0.12500238E+03</pdfrwt>
<pdfrwt beam="2">  1       -4 0.17296052E-01 0.12500238E+03</pdfrwt>
<totfact> 0.99865230E+03</totfact>
</mgrwt>
</event>
<event>
 5    1  0.3188180E-002  0.1250029E+03  0.7818608E-02  0.1235065E+00
          4   -1    0    0  501    0  0.00000000000E+00  0.00000000000E+00  0.61432398438E+01  0.62731408225E+01  0.12700000000E+01 0.  1.
         -4   -1    0    0    0  501 -0.00000000000E+00 -0.00000000000E+00 -0.62910813491E+03  0.62910941680E+03  0.12700000000E+01 0.  1.
         25    2    1    2    0    0  0.00000000000E+00  0.00000000000E+00 -0.62296489506E+03  0.63538255762E+03  0.12500293616E+03 0.  0.
    9000005    1    3    3    0    0 -0.30661561997E+02 -0.39774403758E+01 -0.58753257784E+03  0.58834639579E+03  0.10000000000E+01 0.  0.
    9000005    1    3    3    0    0  0.30661561997E+02  0.39774403758E+01 -0.35432317221E+02  0.47036161829E+02  0.10000000000E+01 0.  0.
<mgrwt>
<rscale>  0 0.12500294E+03</rscale>
<asrwt>0</asrwt>
<pdfrwt beam="1">  1        4 0.95520531E-03 0.12500294E+03</pdfrwt>
<pdfrwt beam="2">  1       -4 0.96795908E-01 0.12500294E+03</pdfrwt>
<totfact> 0.46704725E+03</totfact>
</mgrwt>
</event>
<event>
 5    1  0.3188180E-002  0.1249952E+03  0.7818608E-02  0.1235077E+00
         -4   -1    0    0    0  501 -0.00000000000E+00  0.00000000000E+00  0.71753260389E+01  0.72868514301E+01  0.12700000000E+01 0. -1.
          4   -1    0    0  501    0  0.00000000000E+00 -0.00000000000E+00 -0.54004818298E+03  0.54004967627E+03  0.12700000000E+01 0. -1.
         25    2    1    2    0    0  0.00000000000E+00  0.00000000000E+00 -0.53287285694E+03  0.54733652770E+03  0.12499517147E+03 0.  0.
    9000005    1    3    3    0    0 -0.47699625331E+02  0.16136644616E+02 -0.10440064887E+03  0.11591436943E+03  0.10000000000E+01 0.  0.
    9000005    1    3    3    0    0  0.47699625331E+02 -0.16136644616E+02 -0.42847220807E+03  0.43142215827E+03  0.10000000000E+01 0.  0.
<mgrwt>
<rscale>  0 0.12499517E+03</rscale>
<asrwt>0</asrwt>
<pdfrwt beam="2">  1        4 0.83092998E-01 0.12499517E+03</pdfrwt>
<pdfrwt beam="1">  1       -4 0.11125905E-02 0.12499517E+03</pdfrwt>
<totfact> 0.52375646E+03</totfact>
</mgrwt>
</event>
<event>
 5    1  0.3188180E-002  0.1250001E+03  0.7818608E-02  0.1235069E+00
          4   -1    0    0  501    0  0.00000000000E+00  0.00000000000E+00  0.62585090768E+02  0.62597975098E+02  0.12700000000E+01 0.  1.
         -4   -1    0    0    0  501 -0.00000000000E+00 -0.00000000000E+00 -0.62389364916E+02  0.62402289658E+02  0.12700000000E+01 0.  1.
         25    2    1    2    0    0  0.00000000000E+00  0.00000000000E+00  0.19572585154E+00  0.12500026476E+03  0.12500011152E+03 0.  0.
    9000005    1    3    3    0    0 -0.75949413372E+01  0.72469826391E+01 -0.61506230959E+02  0.62403672473E+02  0.10000000000E+01 0.  0.
    9000005    1    3    3    0    0  0.75949413372E+01 -0.72469826391E+01  0.61701956811E+02  0.62596592284E+02  0.10000000000E+01 0.  0.
<mgrwt>
<rscale>  0 0.12500011E+03</rscale>
<asrwt>0</asrwt>
<pdfrwt beam="1">  1        4 0.96304609E-02 0.12500011E+03</pdfrwt>
<pdfrwt beam="2">  1       -4 0.96003491E-02 0.12500011E+03</pdfrwt>
<totfact> 0.10452830E+04</totfact>
</mgrwt>
</event>
<event>
 5    1  0.3188180E-002  0.1250005E+03  0.7818608E-02  0.1235069E+00
          4   -1    0    0  501    0  0.00000000000E+00  0.00000000000E+00  0.22849349895E+03  0.22849702834E+03  0.12700000000E+01 0.  1.
         -4   -1    0    0    0  501 -0.00000000000E+00 -0.00000000000E+00 -0.17068549888E+02  0.17115732391E+02  0.12700000000E+01 0.  1.
         25    2    1    2    0    0  0.00000000000E+00  0.00000000000E+00  0.21142494906E+03  0.24561276074E+03  0.12500047660E+03 0.  0.
    9000005    1    3    3    0    0  0.69041107028E+01 -0.61103536338E+02  0.83834902758E+02  0.10397403435E+03  0.10000000000E+01 0.  0.
    9000005    1    3    3    0    0 -0.69041107028E+01  0.61103536338E+02  0.12759004630E+03  0.14163872639E+03  0.10000000000E+01 0.  0.
<mgrwt>
<rscale>  0 0.12500048E+03</rscale>
<asrwt>0</asrwt>
<pdfrwt beam="1">  1        4 0.35156747E-01 0.12500048E+03</pdfrwt>
<pdfrwt beam="2">  1       -4 0.26298316E-02 0.12500048E+03</pdfrwt>
<totfact> 0.82967601E+03</totfact>
</mgrwt>
</event>
<event>
 5    1  0.3188180E-002  0.1249998E+03  0.7818608E-02  0.1235070E+00
         -4   -1    0    0    0  501 -0.00000000000E+00  0.00000000000E+00  0.53115454231E+02  0.53130635025E+02  0.12700000000E+01 0.  1.
          4   -1    0    0  501    0  0.00000000000E+00 -0.00000000000E+00 -0.73511236739E+02  0.73522206353E+02  0.12700000000E+01 0.  1.
         25    2    1    2    0    0  0.00000000000E+00  0.00000000000E+00 -0.20395782508E+02  0.12665284138E+03  0.12499981714E+03 0.  0.
    9000005    1    3    3    0    0  0.59223611262E+02  0.12333263188E+02 -0.26079774676E+02  0.65883990157E+02  0.10000000000E+01 0.  0.
    9000005    1    3    3    0    0 -0.59223611262E+02 -0.12333263188E+02  0.56839921681E+01  0.60768851221E+02  0.10000000000E+01 0.  0.
<mgrwt>
<rscale>  0 0.12499982E+03</rscale>
<asrwt>0</asrwt>
<pdfrwt beam="2">  1        4 0.11311433E-01 0.12499982E+03</pdfrwt>
<pdfrwt beam="1">  1       -4 0.81736199E-02 0.12499982E+03</pdfrwt>
<totfact> 0.10416740E+04</totfact>
</mgrwt>
</event>
<event>
 5    1  0.3188180E-002  0.1250042E+03  0.7818608E-02  0.1235063E+00
         -4   -1    0    0    0  501 -0.00000000000E+00  0.00000000000E+00  0.42286953600E+03  0.42287144309E+03  0.12700000000E+01 0. -1.
          4   -1    0    0  501    0  0.00000000000E+00 -0.00000000000E+00 -0.91925204089E+01  0.92798346682E+01  0.12700000000E+01 0. -1.
         25    2    1    2    0    0  0.00000000000E+00  0.00000000000E+00  0.41367701559E+03  0.43215127775E+03  0.12500421447E+03 0.  0.
    9000005    1    3    3    0    0 -0.35568670417E+02 -0.27723806050E+02  0.57270808508E+02  0.72901887796E+02  0.10000000000E+01 0.  0.
    9000005    1    3    3    0    0  0.35568670417E+02  0.27723806050E+02  0.35640620708E+03  0.35924938996E+03  0.10000000000E+01 0.  0.
<mgrwt>
<rscale>  0 0.12500421E+03</rscale>
<asrwt>0</asrwt>
<pdfrwt beam="2">  1        4 0.14210973E-02 0.12500421E+03</pdfrwt>
<pdfrwt beam="1">  1       -4 0.65063704E-01 0.12500421E+03</pdfrwt>
<totfact> 0.61535761E+03</totfact>
</mgrwt>
</event>
<event>
 5    1  0.3188180E-002  0.1250054E+03  0.7818608E-02  0.1235061E+00
         -4   -1    0    0    0  501 -0.00000000000E+00  0.00000000000E+00  0.14661192326E+02  0.14716095285E+02  0.12700000000E+01 0. -1.
          4   -1    0    0  501    0  0.00000000000E+00 -0.00000000000E+00 -0.26590315351E+03  0.26590618637E+03  0.12700000000E+01 0. -1.
         25    2    1    2    0    0  0.00000000000E+00  0.00000000000E+00 -0.25124196118E+03  0.28062228165E+03  0.12500536748E+03 0.  0.
    9000005    1    3    3    0    0 -0.22375063187E+02  0.53140640956E+02 -0.17973214771E+03  0.18875702926E+03  0.10000000000E+01 0.  0.
    9000005    1    3    3    0    0  0.22375063187E+02 -0.53140640956E+02 -0.71509813474E+02  0.91865252391E+02  0.10000000000E+01 0.  0.
<mgrwt>
<rscale>  0 0.12500537E+03</rscale>
<asrwt>0</asrwt>
<pdfrwt beam="2">  1        4 0.40912630E-01 0.12500537E+03</pdfrwt>
<pdfrwt beam="1">  1       -4 0.22600249E-02 0.12500537E+03</pdfrwt>
<totfact> 0.78086353E+03</totfact>
</mgrwt>
</event>
<event>
 5    1  0.3188180E-002  0.1249939E+03  0.7818608E-02  0.1235079E+00
         -4   -1    0    0    0  501 -0.00000000000E+00  0.00000000000E+00  0.19308334689E+02  0.19350056549E+02  0.12700000000E+01 0.  1.
          4   -1    0    0  501    0  0.00000000000E+00 -0.00000000000E+00 -0.20202707799E+03  0.20203106975E+03  0.12700000000E+01 0.  1.
         25    2    1    2    0    0  0.00000000000E+00  0.00000000000E+00 -0.18271874330E+03  0.22138112629E+03  0.12499385555E+03 0.  0.
    9000005    1    3    3    0    0  0.61050061648E+02  0.12866526214E+02 -0.97547827827E+02  0.11579825663E+03  0.10000000000E+01 0.  0.
    9000005    1    3    3    0    0 -0.61050061648E+02 -0.12866526214E+02 -0.85170915477E+02  0.10558286967E+03  0.10000000000E+01 0.  0.
<mgrwt>
<rscale>  0 0.12499386E+03</rscale>
<asrwt>0</asrwt>
<pdfrwt beam="2">  1        4 0.31084604E-01 0.12499386E+03</pdfrwt>
<pdfrwt beam="1">  1       -4 0.29740296E-02 0.12499386E+03</pdfrwt>
<totfact> 0.86662168E+03</totfact>
</mgrwt>
</event>
<event>
 5    1  0.3188180E-002  0.1250181E+03  0.7818608E-02  0.1235041E+00
         -4   -1    0    0    0  501 -0.00000000000E+00  0.00000000000E+00  0.62542628165E+02  0.62555521241E+02  0.12700000000E+01 0.  1.
          4   -1    0    0  501    0  0.00000000000E+00 -0.00000000000E+00 -0.62449669194E+02  0.62462581458E+02  0.12700000000E+01 0.  1.
         25    2    1    2    0    0  0.00000000000E+00  0.00000000000E+00  0.92958970805E-01  0.12501810270E+03  0.12501806814E+03 0.  0.
    9000005    1    3    3    0    0  0.50501299023E+02  0.35561166558E+02 -0.95139400063E+01  0.62501942565E+02  0.10000000000E+01 0.  0.
    9000005    1    3    3    0    0 -0.50501299023E+02 -0.35561166558E+02  0.96068989771E+01  0.62516160134E+02  0.10000000000E+01 0.  0.
<mgrwt>
<rscale>  0 0.12501807E+03</rscale>
<asrwt>0</asrwt>
<pdfrwt beam="2">  1        4 0.96096264E-02 0.12501807E+03</pdfrwt>
<pdfrwt beam="1">  1       -4 0.96239278E-02 0.12501807E+03</pdfrwt>
<totfact> 0.10448202E+04</totfact>
</mgrwt>
</event>
<event>
 5    1  0.3188180E-002  0.1250001E+03  0.7818608E-02  0.1235069E+00
          4   -1    0    0  501    0  0.00000000000E+00  0.00000000000E+00  0.14591457708E+03  0.14592010384E+03  0.12700000000E+01 0.  1.
         -4   -1    0    0    0  501 -0.00000000000E+00 -0.00000000000E+00 -0.26749752171E+02  0.26779883144E+02  0.12700000000E+01 0.  1.
         25    2    1    2    0    0  0.00000000000E+00  0.00000000000E+00  0.11916482491E+03  0.17269998698E+03  0.12500012003E+03 0.  0.
    9000005    1    3    3    0    0  0.37951737313E+02 -0.35447838502E+02  0.10760908959E+03  0.11948891071E+03  0.10000000000E+01 0.  0.
    9000005    1    3    3    0    0 -0.37951737313E+02  0.35447838502E+02  0.11555735316E+02  0.53211076274E+02  0.10000000000E+01 0.  0.
<mgrwt>
<rscale>  0 0.12500012E+03</rscale>
<asrwt>0</asrwt>
<pdfrwt beam="1">  1        4 0.22451139E-01 0.12500012E+03</pdfrwt>
<pdfrwt beam="2">  1       -4 0.41180894E-02 0.12500012E+03</pdfrwt>
<totfact> 0.94947523E+03</totfact>
</mgrwt>
</event>
<event>
 5    1  0.3188180E-002  0.1249965E+03  0.7818608E-02  0.1235075E+00
         -4   -1    0    0    0  501 -0.00000000000E+00  0.00000000000E+00  0.18338729917E+02  0.18382652556E+02  0.12700000000E+01 0. -1.
          4   -1    0    0  501    0  0.00000000000E+00 -0.00000000000E+00 -0.21269281938E+03  0.21269661096E+03  0.12700000000E+01 0. -1.
         25    2    1    2    0    0  0.00000000000E+00  0.00000000000E+00 -0.19435408946E+03  0.23107926352E+03  0.12499645570E+03 0.  0.
    9000005    1    3    3    0    0 -0.39749306814E+02  0.20517901126E+02 -0.17784498126E+03  0.18338710156E+03  0.10000000000E+01 0.  0.
    9000005    1    3    3    0    0  0.39749306814E+02 -0.20517901126E+02 -0.16509108202E+02  0.47692161961E+02  0.10000000000E+01 0.  0.
<mgrwt>
<rscale>  0 0.12499646E+03</rscale>
<asrwt>0</asrwt>
<pdfrwt beam="2">  1        4 0.32725641E-01 0.12499646E+03</pdfrwt>
<pdfrwt beam="1">  1       -4 0.28250135E-02 0.12499646E+03</pdfrwt>
<totfact> 0.85150884E+03</totfact>
</mgrwt>
</event>
<event>
 5    1  0.3188180E-002  0.1250021E+03  0.7818608E-02  0.1235066E+00
          4   -1    0    0  501    0  0.00000000000E+00  0.00000000000E+00  0.18187210575E+02  0.18231498252E+02  0.12700000000E+01 0. -1.
         -4   -1    0    0    0  501 -0.00000000000E+00 -0.00000000000E+00 -0.21447989890E+03  0.21448365889E+03  0.12700000000E+01 0. -1.
         25    2    1    2    0    0  0.00000000000E+00  0.00000000000E+00 -0.19629268832E+03  0.23271515714E+03  0.12500209948E+03 0.  0.
    9000005    1    3    3    0    0 -0.10571940046E+02 -0.28660805568E+02  0.33486081969E+01  0.30747696971E+02  0.10000000000E+01 0.  0.
    9000005    1    3    3    0    0  0.10571940046E+02  0.28660805568E+02 -0.19964129652E+03  0.20196746017E+03  0.10000000000E+01 0.  0.
<mgrwt>
<rscale>  0 0.12500210E+03</rscale>
<asrwt>0</asrwt>
<pdfrwt beam="1">  1        4 0.28017285E-02 0.12500210E+03</pdfrwt>
<pdfrwt beam="2">  1       -4 0.33000602E-01 0.12500210E+03</pdfrwt>
<totfact> 0.84890444E+03</totfact>
</mgrwt>
</event>
<event>
 5    1  0.3188180E-002  0.1250012E+03  0.7818608E-02  0.1235067E+00
         -4   -1    0    0    0  501 -0.00000000000E+00  0.00000000000E+00  0.17948066236E+03  0.17948515555E+03  0.12700000000E+01 0.  1.
          4   -1    0    0  501    0  0.00000000000E+00 -0.00000000000E+00 -0.21741298681E+02  0.21778360093E+02  0.12700000000E+01 0.  1.
         25    2    1    2    0    0  0.00000000000E+00  0.00000000000E+00  0.15773936368E+03  0.20126351564E+03  0.12500118349E+03 0.  0.
    9000005    1    3    3    0    0  0.29097161278E+02  0.42669483193E+02  0.13552103216E+03  0.14503199560E+03  0.10000000000E+01 0.  0.
    9000005    1    3    3    0    0 -0.29097161278E+02 -0.42669483193E+02  0.22218331524E+02  0.56231520041E+02  0.10000000000E+01 0.  0.
<mgrwt>
<rscale>  0 0.12500118E+03</rscale>
<asrwt>0</asrwt>
<pdfrwt beam="2">  1        4 0.33480117E-02 0.12500118E+03</pdfrwt>
<pdfrwt beam="1">  1       -4 0.27615606E-01 0.12500118E+03</pdfrwt>
<totfact> 0.89920460E+03</totfact>
</mgrwt>
</event>
<event>
 5    1  0.3188180E-002  0.1250001E+03  0.7818608E-02  0.1235069E+00
          4   -1    0    0  501    0  0.00000000000E+00  0.00000000000E+00  0.51760060909E+01  0.53295346001E+01  0.12700000000E+01 0. -1.
         -4   -1    0    0    0  501 -0.00000000000E+00 -0.00000000000E+00 -0.74350196889E+03  0.74350305355E+03  0.12700000000E+01 0. -1.
         25    2    1    2    0    0  0.00000000000E+00  0.00000000000E+00 -0.73832596280E+03  0.74883258815E+03  0.12500007095E+03 0.  0.
    9000005    1    3    3    0    0  0.10944725256E+01  0.42705978515E+02 -0.95930161458E+02  0.10501711455E+03  0.10000000000E+01 0.  0.
    9000005    1    3    3    0    0 -0.10944725256E+01 -0.42705978515E+02 -0.64239580134E+03  0.64381547360E+03  0.10000000000E+01 0.  0.
<mgrwt>
<rscale>  0 0.12500007E+03</rscale>
<asrwt>0</asrwt>
<pdfrwt beam="1">  1        4 0.80820254E-03 0.12500007E+03</pdfrwt>
<pdfrwt beam="2">  1       -4 0.11439673E+00 0.12500007E+03</pdfrwt>
<totfact> 0.40629996E+03</totfact>
</mgrwt>
</event>
<event>
 5    1  0.3188180E-002  0.1250004E+03  0.7818608E-02  0.1235069E+00
         -4   -1    0    0    0  501 -0.00000000000E+00  0.00000000000E+00  0.53660385356E+02  0.53675412030E+02  0.12700000000E+01 0.  1.
          4   -1    0    0  501    0  0.00000000000E+00 -0.00000000000E+00 -0.72765487046E+02  0.72776569066E+02  0.12700000000E+01 0.  1.
         25    2    1    2    0    0  0.00000000000E+00  0.00000000000E+00 -0.19105101690E+02  0.12645198110E+03  0.12500039445E+03 0.  0.
    9000005    1    3    3    0    0 -0.36885668102E+02 -0.36211977291E+02  0.25975292025E+02  0.57858237153E+02  0.10000000000E+01 0.  0.
    9000005    1    3    3    0    0  0.36885668102E+02  0.36211977291E+02 -0.45080393715E+02  0.68593743943E+02  0.10000000000E+01 0.  0.
<mgrwt>
<rscale>  0 0.12500039E+03</rscale>
<asrwt>0</asrwt>
<pdfrwt beam="2">  1        4 0.11196699E-01 0.12500039E+03</pdfrwt>
<pdfrwt beam="1">  1       -4 0.82574523E-02 0.12500039E+03</pdfrwt>
<totfact> 0.10420983E+04</totfact>
</mgrwt>
</event>
<event>
 5    1  0.3188180E-002  0.1249942E+03  0.7818608E-02  0.1235078E+00
          4   -1    0    0  501    0  0.00000000000E+00  0.00000000000E+00  0.42877100699E+03  0.42877288782E+03  0.12700000000E+01 0.  1.
         -4   -1    0    0    0  501 -0.00000000000E+00 -0.00000000000E+00 -0.90633275461E+01  0.91518744642E+01  0.12700000000E+01 0.  1.
         25    2    1    2    0    0  0.00000000000E+00  0.00000000000E+00  0.41970767944E+03  0.43792476229E+03  0.12499424484E+03 0.  0.
    9000005    1    3    3    0    0  0.29948291884E+02 -0.11494061821E+02  0.21967755865E+02  0.38892106418E+02  0.10000000000E+01 0.  0.
    9000005    1    3    3    0    0 -0.29948291884E+02  0.11494061821E+02  0.39773992358E+03  0.39903265587E+03  0.10000000000E+01 0.  0.
<mgrwt>
<rscale>  0 0.12499424E+03</rscale>
<asrwt>0</asrwt>
<pdfrwt beam="1">  1        4 0.65971712E-01 0.12499424E+03</pdfrwt>
<pdfrwt beam="2">  1       -4 0.14013144E-02 0.12499424E+03</pdfrwt>
<totfact> 0.61031919E+03</totfact>
</mgrwt>
</event>
<event>
 5    1  0.3188180E-002  0.1250465E+03  0.7818608E-02  0.1234997E+00
          4   -1    0    0  501    0  0.00000000000E+00  0.00000000000E+00  0.30052176541E+03  0.30052444890E+03  0.12700000000E+01 0.  1.
         -4   -1    0    0    0  501 -0.00000000000E+00 -0.00000000000E+00 -0.12974160581E+02  0.13036170556E+02  0.12700000000E+01 0.  1.
         25    2    1    2    0    0  0.00000000000E+00  0.00000000000E+00  0.28754760483E+03  0.31356061945E+03  0.12504653945E+03 0.  0.
    9000005    1    3    3    0    0  0.37284643451E+02 -0.33101220878E+02  0.23834286285E+03  0.24350391318E+03  0.10000000000E+01 0.  0.
    9000005    1    3    3    0    0 -0.37284643451E+02  0.33101220878E+02  0.49204741976E+02  0.70056706273E+02  0.10000000000E+01 0.  0.
<mgrwt>
<rscale>  0 0.12504654E+03</rscale>
<asrwt>0</asrwt>
<pdfrwt beam="1">  1        4 0.46239096E-01 0.12504654E+03</pdfrwt>
<pdfrwt beam="2">  1       -4 0.20010011E-02 0.12504654E+03</pdfrwt>
<totfact> 0.73852358E+03</totfact>
</mgrwt>
</event>
<event>
 5    1  0.3188180E-002  0.1249989E+03  0.7818608E-02  0.1235071E+00
          4   -1    0    0  501    0  0.00000000000E+00  0.00000000000E+00  0.15206927885E+03  0.15207458194E+03  0.12700000000E+01 0. -1.
         -4   -1    0    0    0  501 -0.00000000000E+00 -0.00000000000E+00 -0.25665385139E+02  0.25696787627E+02  0.12700000000E+01 0. -1.
         25    2    1    2    0    0  0.00000000000E+00  0.00000000000E+00  0.12640389372E+03  0.17777136956E+03  0.12499886195E+03 0.  0.
    9000005    1    3    3    0    0  0.52516605035E+02 -0.20604098434E+02  0.24970421612E+02  0.61701253084E+02  0.10000000000E+01 0.  0.
    9000005    1    3    3    0    0 -0.52516605035E+02  0.20604098434E+02  0.10143347210E+03  0.11607011648E+03  0.10000000000E+01 0.  0.
<mgrwt>
<rscale>  0 0.12499886E+03</rscale>
<asrwt>0</asrwt>
<pdfrwt beam="1">  1        4 0.23398097E-01 0.12499886E+03</pdfrwt>
<pdfrwt beam="2">  1       -4 0.39513443E-02 0.12499886E+03</pdfrwt>
<totfact> 0.94022109E+03</totfact>
</mgrwt>
</event>
<event>
 5    1  0.3188180E-002  0.1249895E+03  0.7818608E-02  0.1235086E+00
         -4   -1    0    0    0  501 -0.00000000000E+00  0.00000000000E+00  0.55357250272E+02  0.55371816456E+02  0.12700000000E+01 0. -1.
          4   -1    0    0  501    0  0.00000000000E+00 -0.00000000000E+00 -0.70522924022E+02  0.70534358384E+02  0.12700000000E+01 0. -1.
         25    2    1    2    0    0  0.00000000000E+00  0.00000000000E+00 -0.15165673750E+02  0.12590617484E+03  0.12498946837E+03 0.  0.
    9000005    1    3    3    0    0  0.28719162533E+01  0.57957724140E+02  0.15765731074E+02  0.60140701415E+02  0.10000000000E+01 0.  0.
    9000005    1    3    3    0    0 -0.28719162533E+01 -0.57957724140E+02 -0.30931404825E+02  0.65765473425E+02  0.10000000000E+01 0.  0.
<mgrwt>
<rscale>  0 0.12498947E+03</rscale>
<asrwt>0</asrwt>
<pdfrwt beam="2">  1        4 0.10851681E-01 0.12498947E+03</pdfrwt>
<pdfrwt beam="1">  1       -4 0.85185000E-02 0.12498947E+03</pdfrwt>
<totfact> 0.10435494E+04</totfact>
</mgrwt>
</event>
<event>
 5    1  0.3188180E-002  0.1250010E+03  0.7818608E-02  0.1235068E+00
          4   -1    0    0  501    0  0.00000000000E+00  0.00000000000E+00  0.63255961263E+02  0.63268708974E+02  0.12700000000E+01 0. -1.
         -4   -1    0    0    0  501 -0.00000000000E+00 -0.00000000000E+00 -0.61728588315E+02  0.61741651382E+02  0.12700000000E+01 0. -1.
         25    2    1    2    0    0  0.00000000000E+00  0.00000000000E+00  0.15273729474E+01  0.12501036036E+03  0.12500102931E+03 0.  0.
    9000005    1    3    3    0    0 -0.23607199990E+02 -0.30612998000E+02 -0.48340475651E+02  0.61905226953E+02  0.10000000000E+01 0.  0.
    9000005    1    3    3    0    0  0.23607199990E+02  0.30612998000E+02  0.49867848599E+02  0.63105133403E+02  0.10000000000E+01 0.  0.
<mgrwt>
<rscale>  0 0.12500103E+03</rscale>
<asrwt>0</asrwt>
<pdfrwt beam="1">  1        4 0.97336719E-02 0.12500103E+03</pdfrwt>
<pdfrwt beam="2">  1       -4 0.94986913E-02 0.12500103E+03</pdfrwt>
<totfact> 0.10452394E+04</totfact>
</mgrwt>
</event>
<event>
 5    1  0.3188180E-002  0.1249994E+03  0.7818608E-02  0.1235070E+00
          4   -1    0    0  501    0  0.00000000000E+00  0.00000000000E+00  0.24534763219E+03  0.24535091914E+03  0.12700000000E+01 0.  1.
         -4   -1    0    0    0  501 -0.00000000000E+00 -0.00000000000E+00 -0.15892411860E+02  0.15943075447E+02  0.12700000000E+01 0.  1.
         25    2    1    2    0    0  0.00000000000E+00  0.00000000000E+00  0.22945522034E+03  0.26129399459E+03  0.12499941388E+03 0.  0.
    9000005    1    3    3    0    0  0.29365956109E+02  0.48865414456E+02  0.61228017491E+02  0.83666350668E+02  0.10000000000E+01 0.  0.
    9000005    1    3    3    0    0 -0.29365956109E+02 -0.48865414456E+02  0.16822720284E+03  0.17762764392E+03  0.10000000000E+01 0.  0.
<mgrwt>
<rscale>  0 0.12499941E+03</rscale>
<asrwt>0</asrwt>
<pdfrwt beam="1">  1        4 0.37749938E-01 0.12499941E+03</pdfrwt>
<pdfrwt beam="2">  1       -4 0.24491366E-02 0.12499941E+03</pdfrwt>
<totfact> 0.80725862E+03</totfact>
</mgrwt>
</event>
<event>
 5    1  0.3188180E-002  0.1250010E+03  0.7818608E-02  0.1235068E+00
         -4   -1    0    0    0  501 -0.00000000000E+00  0.00000000000E+00  0.20839962612E+03  0.20840349581E+03  0.12700000000E+01 0. -1.
          4   -1    0    0  501    0  0.00000000000E+00 -0.00000000000E+00 -0.18718768888E+02  0.18761801851E+02  0.12700000000E+01 0. -1.
         25    2    1    2    0    0  0.00000000000E+00  0.00000000000E+00  0.18968085723E+03  0.22716529766E+03  0.12500097945E+03 0.  0.
    9000005    1    3    3    0    0 -0.61448162545E+02 -0.31268063354E+01  0.74961235707E+02  0.96983712327E+02  0.10000000000E+01 0.  0.
    9000005    1    3    3    0    0  0.61448162545E+02  0.31268063354E+01  0.11471962152E+03  0.13018158533E+03  0.10000000000E+01 0.  0.
<mgrwt>
<rscale>  0 0.12500098E+03</rscale>
<asrwt>0</asrwt>
<pdfrwt beam="2">  1        4 0.28834183E-02 0.12500098E+03</pdfrwt>
<pdfrwt beam="1">  1       -4 0.32065090E-01 0.12500098E+03</pdfrwt>
<totfact> 0.85744901E+03</totfact>
</mgrwt>
</event>
<event>
 5    1  0.3188180E-002  0.1249993E+03  0.7818608E-02  0.1235070E+00
          4   -1    0    0  501    0  0.00000000000E+00  0.00000000000E+00  0.86480470124E+01  0.87408018585E+01  0.12700000000E+01 0. -1.
         -4   -1    0    0    0  501 -0.00000000000E+00 -0.00000000000E+00 -0.44918373762E+03  0.44918553299E+03  0.12700000000E+01 0. -1.
         25    2    1    2    0    0  0.00000000000E+00  0.00000000000E+00 -0.44053569061E+03  0.45792633485E+03  0.12499933377E+03 0.  0.
    9000005    1    3    3    0    0  0.12580898274E+02 -0.58367890490E+02 -0.28782995296E+03  0.29395947248E+03  0.10000000000E+01 0.  0.
    9000005    1    3    3    0    0 -0.12580898274E+02  0.58367890490E+02 -0.15270573765E+03  0.16396686237E+03  0.10000000000E+01 0.  0.
<mgrwt>
<rscale>  0 0.12499933E+03</rscale>
<asrwt>0</asrwt>
<pdfrwt beam="1">  1        4 0.13377422E-02 0.12499933E+03</pdfrwt>
<pdfrwt beam="2">  1       -4 0.69112446E-01 0.12499933E+03</pdfrwt>
<totfact> 0.59284113E+03</totfact>
</mgrwt>
</event>
<event>
 5    1  0.3188180E-002  0.1249995E+03  0.7818608E-02  0.1235070E+00
         -4   -1    0    0    0  501 -0.00000000000E+00  0.00000000000E+00  0.34376711044E+03  0.34376945635E+03  0.12700000000E+01 0.  1.
          4   -1    0    0  501    0  0.00000000000E+00 -0.00000000000E+00 -0.11325099310E+02  0.11396085924E+02  0.12700000000E+01 0.  1.
         25    2    1    2    0    0  0.00000000000E+00  0.00000000000E+00  0.33244201113E+03  0.35516554228E+03  0.12499948662E+03 0.  0.
    9000005    1    3    3    0    0  0.32322800156E+02  0.51250604773E+02  0.12277271209E+03  0.13691430434E+03  0.10000000000E+01 0.  0.
    9000005    1    3    3    0    0 -0.32322800156E+02 -0.51250604773E+02  0.20966929904E+03  0.21825123794E+03  0.10000000000E+01 0.  0.
<mgrwt>
<rscale>  0 0.12499949E+03</rscale>
<asrwt>0</asrwt>
<pdfrwt beam="2">  1        4 0.17479639E-02 0.12499949E+03</pdfrwt>
<pdfrwt beam="1">  1       -4 0.52892891E-01 0.12499949E+03</pdfrwt>
<totfact> 0.69160779E+03</totfact>
</mgrwt>
</event>
<event>
 5    1  0.3188180E-002  0.1249998E+03  0.7818608E-02  0.1235070E+00
         -4   -1    0    0    0  501 -0.00000000000E+00  0.00000000000E+00  0.13291891190E+03  0.13292497899E+03  0.12700000000E+01 0.  1.
          4   -1    0    0  501    0  0.00000000000E+00 -0.00000000000E+00 -0.29367677674E+02  0.29395125310E+02  0.12700000000E+01 0.  1.
         25    2    1    2    0    0  0.00000000000E+00  0.00000000000E+00  0.10355123423E+03  0.16232010430E+03  0.12499983261E+03 0.  0.
    9000005    1    3    3    0    0 -0.13628922220E+00  0.62104059115E+02  0.60801029133E+02  0.86917765025E+02  0.10000000000E+01 0.  0.
    9000005    1    3    3    0    0  0.13628922220E+00 -0.62104059115E+02  0.42750205093E+02  0.75402339279E+02  0.10000000000E+01 0.  0.
<mgrwt>
<rscale>  0 0.12499983E+03</rscale>
<asrwt>0</asrwt>
<pdfrwt beam="2">  1        4 0.45206823E-02 0.12499983E+03</pdfrwt>
<pdfrwt beam="1">  1       -4 0.20451642E-01 0.12499983E+03</pdfrwt>
<totfact> 0.96897707E+03</totfact>
</mgrwt>
</event>
<event>
 5    1  0.3188180E-002  0.1250004E+03  0.7818608E-02  0.1235069E+00
         -4   -1    0    0    0  501 -0.00000000000E+00  0.00000000000E+00  0.22674720177E+03  0.22675075834E+03  0.12700000000E+01 0. -1.
          4   -1    0    0  501    0  0.00000000000E+00 -0.00000000000E+00 -0.17200337208E+02  0.17247159188E+02  0.12700000000E+01 0. -1.
         25    2    1    2    0    0  0.00000000000E+00  0.00000000000E+00  0.20954686456E+03  0.24399791753E+03  0.12500038125E+03 0.  0.
    9000005    1    3    3    0    0  0.41068951821E+02 -0.45160814589E+02  0.78649304956E+02  0.99563402654E+02  0.10000000000E+01 0.  0.
    9000005    1    3    3    0    0 -0.41068951821E+02  0.45160814589E+02  0.13089755960E+03  0.14443451488E+03  0.10000000000E+01 0.  0.
<mgrwt>
<rscale>  0 0.12500038E+03</rscale>
<asrwt>0</asrwt>
<pdfrwt beam="2">  1        4 0.26500812E-02 0.12500038E+03</pdfrwt>
<pdfrwt beam="1">  1       -4 0.34888057E-01 0.12500038E+03</pdfrwt>
<totfact> 0.83204823E+03</totfact>
</mgrwt>
</event>
<event>
 5    1  0.3188180E-002  0.1249941E+03  0.7818608E-02  0.1235079E+00
         -4   -1    0    0    0  501 -0.00000000000E+00  0.00000000000E+00  0.92017612857E+01  0.92889886833E+01  0.12700000000E+01 0.  1.
          4   -1    0    0  501    0  0.00000000000E+00 -0.00000000000E+00 -0.42238026449E+03  0.42238217378E+03  0.12700000000E+01 0.  1.
         25    2    1    2    0    0  0.00000000000E+00  0.00000000000E+00 -0.41317850320E+03  0.43167116247E+03  0.12499406784E+03 0.  0.
    9000005    1    3    3    0    0 -0.56920822369E+02  0.17113855236E+02 -0.27319994747E+03  0.27959269546E+03  0.10000000000E+01 0.  0.
    9000005    1    3    3    0    0  0.56920822369E+02 -0.17113855236E+02 -0.13997855574E+03  0.15207846700E+03  0.10000000000E+01 0.  0.
<mgrwt>
<rscale>  0 0.12499407E+03</rscale>
<asrwt>0</asrwt>
<pdfrwt beam="2">  1        4 0.64988421E-01 0.12499407E+03</pdfrwt>
<pdfrwt beam="1">  1       -4 0.14225126E-02 0.12499407E+03</pdfrwt>
<totfact> 0.61592864E+03</totfact>
</mgrwt>
</event>
<event>
 5    1  0.3188180E-002  0.1249909E+03  0.7818608E-02  0.1235084E+00
          4   -1    0    0  501    0  0.00000000000E+00  0.00000000000E+00  0.36494281061E+02  0.36516372358E+02  0.12700000000E+01 0.  1.
         -4   -1    0    0    0  501 -0.00000000000E+00 -0.00000000000E+00 -0.10696341180E+03  0.10697095103E+03  0.12700000000E+01 0.  1.
         25    2    1    2    0    0  0.00000000000E+00  0.00000000000E+00 -0.70469130743E+02  0.14348732339E+03  0.12499085401E+03 0.  0.
    9000005    1    3    3    0    0  0.77785092804E+00 -0.32317647071E+02 -0.96623657511E+02  0.10189291710E+03  0.10000000000E+01 0.  0.
    9000005    1    3    3    0    0 -0.77785092804E+00  0.32317647071E+02  0.26154526768E+02  0.41594406291E+02  0.10000000000E+01 0.  0.
<mgrwt>
<rscale>  0 0.12499085E+03</rscale>
<asrwt>0</asrwt>
<pdfrwt beam="1">  1        4 0.56167841E-02 0.12499085E+03</pdfrwt>
<pdfrwt beam="2">  1       -4 0.16458189E-01 0.12499085E+03</pdfrwt>
<totfact> 0.10063886E+04</totfact>
</mgrwt>
</event>
<event>
 5    1  0.3188180E-002  0.1250020E+03  0.7818608E-02  0.1235066E+00
          4   -1    0    0  501    0  0.00000000000E+00  0.00000000000E+00  0.39944648452E+03  0.39944850343E+03  0.12700000000E+01 0.  1.
         -4   -1    0    0    0  501 -0.00000000000E+00 -0.00000000000E+00 -0.97361900122E+01  0.98186707834E+01  0.12700000000E+01 0.  1.
         25    2    1    2    0    0  0.00000000000E+00  0.00000000000E+00  0.38971029451E+03  0.40926717422E+03  0.12500202497E+03 0.  0.
    9000005    1    3    3    0    0 -0.51839658917E+02 -0.22364527289E+02  0.28257704140E+03  0.28816368030E+03  0.10000000000E+01 0.  0.
    9000005    1    3    3    0    0  0.51839658917E+02  0.22364527289E+02  0.10713325311E+03  0.12110349392E+03  0.10000000000E+01 0.  0.
<mgrwt>
<rscale>  0 0.12500202E+03</rscale>
<asrwt>0</asrwt>
<pdfrwt beam="1">  1        4 0.61459792E-01 0.12500202E+03</pdfrwt>
<pdfrwt beam="2">  1       -4 0.15043757E-02 0.12500202E+03</pdfrwt>
<totfact> 0.63658507E+03</totfact>
</mgrwt>
</event>
<event>
 4    1  0.3188180E-002  0.1251308E+03  0.7818608E-02  0.1234865E+00
          4   -1    0    0  501    0  0.00000000000E+00  0.00000000000E+00  0.11757067070E+02  0.11825460925E+02  0.12700000000E+01 0. -1.
         -4   -1    0    0    0  501 -0.00000000000E+00 -0.00000000000E+00 -0.33190719676E+03  0.33190962650E+03  0.12700000000E+01 0. -1.
    9000005    1    1    2    0    0  0.45766045201E+02  0.39733118824E+02 -0.11750313598E+03  0.13221663508E+03  0.10000000000E+01 0.  0.
    9000005    1    1    2    0    0 -0.45766045201E+02 -0.39733118824E+02 -0.20264699371E+03  0.21151845235E+03  0.10000000000E+01 0.  0.
<mgrwt>
<rscale>  0 0.12513075E+03</rscale>
<asrwt>0</asrwt>
<pdfrwt beam="1">  1        4 0.18142278E-02 0.12513075E+03</pdfrwt>
<pdfrwt beam="2">  1       -4 0.51068086E-01 0.12513075E+03</pdfrwt>
<totfact> 0.70215878E+03</totfact>
</mgrwt>
</event>
<event>
 5    1  0.3188180E-002  0.1249992E+03  0.7818608E-02  0.1235071E+00
          4   -1    0    0  501    0  0.00000000000E+00  0.00000000000E+00  0.82585069970E+03  0.82585167621E+03  0.12700000000E+01 0.  1.
         -4   -1    0    0    0  501 -0.00000000000E+00 -0.00000000000E+00 -0.46436637891E+01  0.48141991428E+01  0.12700000000E+01 0.  1.
         25    2    1    2    0    0  0.00000000000E+00  0.00000000000E+00  0.82120703591E+03  0.83066587535E+03  0.12499920257E+03 0.  0.
    9000005    1    3    3    0    0 -0.30249783211E+02  0.38329927891E+02  0.66977014734E+03  0.67154842195E+03  0.10000000000E+01 0.  0.
    9000005    1    3    3    0    0  0.30249783211E+02 -0.38329927891E+02  0.15143688857E+03  0.15911745340E+03  0.10000000000E+01 0.  0.
<mgrwt>
<rscale>  0 0.12499920E+03</rscale>
<asrwt>0</asrwt>
<pdfrwt beam="1">  1        4 0.12706718E+00 0.12499920E+03</pdfrwt>
<pdfrwt beam="2">  1       -4 0.72760287E-03 0.12499920E+03</pdfrwt>
<totfact> 0.36932447E+03</totfact>
</mgrwt>
</event>
<event>
 5    1  0.3188180E-002  0.1249974E+03  0.7818608E-02  0.1235073E+00
         -4   -1    0    0    0  501 -0.00000000000E+00  0.00000000000E+00  0.30097325965E+02  0.30124108787E+02  0.12700000000E+01 0. -1.
          4   -1    0    0  501    0  0.00000000000E+00 -0.00000000000E+00 -0.12969433643E+03  0.12970055437E+03  0.12700000000E+01 0. -1.
         25    2    1    2    0    0  0.00000000000E+00  0.00000000000E+00 -0.99597010469E+02  0.15982466315E+03  0.12499743380E+03 0.  0.
    9000005    1    3    3    0    0  0.62118252242E+02 -0.33995108322E+01 -0.57347332255E+02  0.84616490428E+02  0.10000000000E+01 0.  0.
    9000005    1    3    3    0    0 -0.62118252242E+02  0.33995108322E+01 -0.42249678214E+02  0.75208172725E+02  0.10000000000E+01 0.  0.
<mgrwt>
<rscale>  0 0.12499743E+03</rscale>
<asrwt>0</asrwt>
<pdfrwt beam="2">  1        4 0.19955513E-01 0.12499743E+03</pdfrwt>
<pdfrwt beam="1">  1       -4 0.46328964E-02 0.12499743E+03</pdfrwt>
<totfact> 0.97382216E+03</totfact>
</mgrwt>
</event>
<event>
 5    1  0.3188180E-002  0.1250004E+03  0.7818608E-02  0.1235069E+00
         -4   -1    0    0    0  501 -0.00000000000E+00  0.00000000000E+00  0.15239272430E+02  0.15292100058E+02  0.12700000000E+01 0.  1.
          4   -1    0    0  501    0  0.00000000000E+00 -0.00000000000E+00 -0.25583137162E+03  0.25583452387E+03  0.12700000000E+01 0.  1.
         25    2    1    2    0    0  0.00000000000E+00  0.00000000000E+00 -0.24059209919E+03  0.27112662393E+03  0.12500035204E+03 0.  0.
    9000005    1    3    3    0    0  0.51435050447E+02  0.36880516402E+01 -0.43729619272E+02  0.67619862031E+02  0.10000000000E+01 0.  0.
    9000005    1    3    3    0    0 -0.51435050447E+02 -0.36880516402E+01 -0.19686247992E+03  0.20350676190E+03  0.10000000000E+01 0.  0.
<mgrwt>
<rscale>  0 0.12500035E+03</rscale>
<asrwt>0</asrwt>
<pdfrwt beam="2">  1        4 0.39362976E-01 0.12500035E+03</pdfrwt>
<pdfrwt beam="1">  1       -4 0.23488098E-02 0.12500035E+03</pdfrwt>
<totfact> 0.79368897E+03</totfact>
</mgrwt>
</event>
<event>
 5    1  0.3188180E-002  0.1249999E+03  0.7818608E-02  0.1235069E+00
          4   -1    0    0  501    0  0.00000000000E+00  0.00000000000E+00  0.56545338463E+02  0.56559598672E+02  0.12700000000E+01 0. -1.
         -4   -1    0    0    0  501 -0.00000000000E+00 -0.00000000000E+00 -0.69052856926E+02  0.69064534673E+02  0.12700000000E+01 0. -1.
         25    2    1    2    0    0  0.00000000000E+00  0.00000000000E+00 -0.12507518463E+02  0.12562413335E+03  0.12499993944E+03 0.  0.
    9000005    1    3    3    0    0 -0.53208910656E+02 -0.16106749018E+02  0.22430501179E+02  0.59956174997E+02  0.10000000000E+01 0.  0.
    9000005    1    3    3    0    0  0.53208910656E+02  0.16106749018E+02 -0.34938019642E+02  0.65667958348E+02  0.10000000000E+01 0.  0.
<mgrwt>
<rscale>  0 0.12499994E+03</rscale>
<asrwt>0</asrwt>
<pdfrwt beam="1">  1        4 0.87012781E-02 0.12499994E+03</pdfrwt>
<pdfrwt beam="2">  1       -4 0.10625512E-01 0.12499994E+03</pdfrwt>
<totfact> 0.10439229E+04</totfact>
</mgrwt>
</event>
<event>
 5    1  0.3188180E-002  0.1250135E+03  0.7818608E-02  0.1235048E+00
         -4   -1    0    0    0  501 -0.00000000000E+00  0.00000000000E+00  0.12217159243E+03  0.12217819321E+03  0.12700000000E+01 0.  1.
          4   -1    0    0  501    0  0.00000000000E+00 -0.00000000000E+00 -0.31960313075E+02  0.31985535979E+02  0.12700000000E+01 0.  1.
         25    2    1    2    0    0  0.00000000000E+00  0.00000000000E+00  0.90211279354E+02  0.15416372919E+03  0.12501352117E+03 0.  0.
    9000005    1    3    3    0    0  0.25588728450E+02  0.45557298866E+02  0.87391988383E+02  0.10182637250E+03  0.10000000000E+01 0.  0.
    9000005    1    3    3    0    0 -0.25588728450E+02 -0.45557298866E+02  0.28192909715E+01  0.52337356689E+02  0.10000000000E+01 0.  0.
<mgrwt>
<rscale>  0 0.12501352E+03</rscale>
<asrwt>0</asrwt>
<pdfrwt beam="2">  1        4 0.49194192E-02 0.12501352E+03</pdfrwt>
<pdfrwt beam="1">  1       -4 0.18798078E-01 0.12501352E+03</pdfrwt>
<totfact> 0.98449976E+03</totfact>
</mgrwt>
</event>
<event>
 5    1  0.3188180E-002  0.1250012E+03  0.7818608E-02  0.1235067E+00
          4   -1    0    0  501    0  0.00000000000E+00  0.00000000000E+00  0.77036522355E+02  0.77046990056E+02  0.12700000000E+01 0. -1.
         -4   -1    0    0    0  501 -0.00000000000E+00 -0.00000000000E+00 -0.50685570448E+02  0.50701478791E+02  0.12700000000E+01 0. -1.
         25    2    1    2    0    0  0.00000000000E+00  0.00000000000E+00  0.26350951908E+02  0.12774846885E+03  0.12500119450E+03 0.  0.
    9000005    1    3    3    0    0 -0.59615653108E+02  0.17659625520E+02  0.67576342299E+01  0.62550412383E+02  0.10000000000E+01 0.  0.
    9000005    1    3    3    0    0  0.59615653108E+02 -0.17659625520E+02  0.19593317678E+02  0.65198056463E+02  0.10000000000E+01 0.  0.
<mgrwt>
<rscale>  0 0.12500119E+03</rscale>
<asrwt>0</asrwt>
<pdfrwt beam="1">  1        4 0.11853802E-01 0.12500119E+03</pdfrwt>
<pdfrwt beam="2">  1       -4 0.77998091E-02 0.12500119E+03</pdfrwt>
<totfact> 0.10392643E+04</totfact>
</mgrwt>
</event>
<event>
 5    1  0.3188180E-002  0.1250002E+03  0.7818608E-02  0.1235069E+00
          4   -1    0    0  501    0  0.00000000000E+00  0.00000000000E+00  0.37359966602E+02  0.37381546310E+02  0.12700000000E+01 0.  1.
         -4   -1    0    0    0  501 -0.00000000000E+00 -0.00000000000E+00 -0.10450181558E+03  0.10450953239E+03  0.12700000000E+01 0.  1.
         25    2    1    2    0    0  0.00000000000E+00  0.00000000000E+00 -0.67141848982E+02  0.14189107870E+03  0.12500020132E+03 0.  0.
    9000005    1    3    3    0    0  0.46653484310E+02 -0.36646298864E+02 -0.55865802127E+02  0.81495316834E+02  0.10000000000E+01 0.  0.
    9000005    1    3    3    0    0 -0.46653484310E+02  0.36646298864E+02 -0.11276046855E+02  0.60395761866E+02  0.10000000000E+01 0.  0.
<mgrwt>
<rscale>  0 0.12500020E+03</rscale>
<asrwt>0</asrwt>
<pdfrwt beam="1">  1        4 0.57499408E-02 0.12500020E+03</pdfrwt>
<pdfrwt beam="2">  1       -4 0.16079456E-01 0.12500020E+03</pdfrwt>
<totfact> 0.10094496E+04</totfact>
</mgrwt>
</event>
<event>
 5    1  0.3188180E-002  0.1249843E+03  0.7818608E-02  0.1235094E+00
         -4   -1    0    0    0  501 -0.00000000000E+00  0.00000000000E+00  0.84685894444E+02  0.84695416746E+02  0.12700000000E+01 0. -1.
          4   -1    0    0  501    0  0.00000000000E+00 -0.00000000000E+00 -0.46093897653E+02  0.46111390142E+02  0.12700000000E+01 0. -1.
         25    2    1    2    0    0  0.00000000000E+00  0.00000000000E+00  0.38591996792E+02  0.13080680689E+03  0.12498431306E+03 0.  0.
    9000005    1    3    3    0    0 -0.42033926837E+02  0.44979747344E+02  0.81097169331E+01  0.62103109304E+02  0.10000000000E+01 0.  0.
    9000005    1    3    3    0    0  0.42033926837E+02 -0.44979747344E+02  0.30482279859E+02  0.68703697585E+02  0.10000000000E+01 0.  0.
<mgrwt>
<rscale>  0 0.12498431E+03</rscale>
<asrwt>0</asrwt>
<pdfrwt beam="2">  1        4 0.70934469E-02 0.12498431E+03</pdfrwt>
<pdfrwt beam="1">  1       -4 0.13030677E-01 0.12498431E+03</pdfrwt>
<totfact> 0.10330889E+04</totfact>
</mgrwt>
</event>
<event>
 5    1  0.3188180E-002  0.1250089E+03  0.7818608E-02  0.1235055E+00
         -4   -1    0    0    0  501 -0.00000000000E+00  0.00000000000E+00  0.57881755229E+03  0.57881894556E+03  0.12700000000E+01 0.  1.
          4   -1    0    0  501    0  0.00000000000E+00 -0.00000000000E+00 -0.66884804575E+01  0.68079858130E+01  0.12700000000E+01 0.  1.
         25    2    1    2    0    0  0.00000000000E+00  0.00000000000E+00  0.57212907184E+03  0.58562693138E+03  0.12500891134E+03 0.  0.
    9000005    1    3    3    0    0  0.11033600703E+02 -0.15225406848E+02  0.68538405532E+01  0.20038175777E+02  0.10000000000E+01 0.  0.
    9000005    1    3    3    0    0 -0.11033600703E+02  0.15225406848E+02  0.56527523128E+03  0.56558875560E+03  0.10000000000E+01 0.  0.
<mgrwt>
<rscale>  0 0.12500891E+03</rscale>
<asrwt>0</asrwt>
<pdfrwt beam="2">  1        4 0.10382966E-02 0.12500891E+03</pdfrwt>
<pdfrwt beam="1">  1       -4 0.89058179E-01 0.12500891E+03</pdfrwt>
<totfact> 0.49777892E+03</totfact>
</mgrwt>
</event>
<event>
 5    1  0.3188180E-002  0.1250036E+03  0.7818608E-02  0.1235064E+00
         -4   -1    0    0    0  501 -0.00000000000E+00  0.00000000000E+00  0.37520009356E+02  0.37541497068E+02  0.12700000000E+01 0.  1.
          4   -1    0    0  501    0  0.00000000000E+00 -0.00000000000E+00 -0.10406189575E+03  0.10406964517E+03  0.12700000000E+01 0.  1.
         25    2    1    2    0    0  0.00000000000E+00  0.00000000000E+00 -0.66541886392E+02  0.14161114224E+03  0.12500357180E+03 0.  0.
    9000005    1    3    3    0    0 -0.47412361025E+02  0.77417949191E+01 -0.78551298671E+02  0.92082429863E+02  0.10000000000E+01 0.  0.
    9000005    1    3    3    0    0  0.47412361025E+02 -0.77417949191E+01  0.12009412279E+02  0.49528712378E+02  0.10000000000E+01 0.  0.
<mgrwt>
<rscale>  0 0.12500357E+03</rscale>
<asrwt>0</asrwt>
<pdfrwt beam="2">  1        4 0.16011771E-01 0.12500357E+03</pdfrwt>
<pdfrwt beam="1">  1       -4 0.57745582E-02 0.12500357E+03</pdfrwt>
<totfact> 0.10099490E+04</totfact>
</mgrwt>
</event>
<event>
 5    1  0.3188180E-002  0.1249999E+03  0.7818608E-02  0.1235069E+00
         -4   -1    0    0    0  501 -0.00000000000E+00  0.00000000000E+00  0.32785690246E+03  0.32785936221E+03  0.12700000000E+01 0.  1.
          4   -1    0    0  501    0  0.00000000000E+00 -0.00000000000E+00 -0.11878117649E+02  0.11945818468E+02  0.12700000000E+01 0.  1.
         25    2    1    2    0    0  0.00000000000E+00  0.00000000000E+00  0.31597878481E+03  0.33980518068E+03  0.12499987347E+03 0.  0.
    9000005    1    3    3    0    0  0.41030441620E+02  0.38284576104E+02  0.23273603900E+03  0.23940816560E+03  0.10000000000E+01 0.  0.
    9000005    1    3    3    0    0 -0.41030441620E+02 -0.38284576104E+02  0.83242745816E+02  0.10039701508E+03  0.10000000000E+01 0.  0.
<mgrwt>
<rscale>  0 0.12499987E+03</rscale>
<asrwt>0</asrwt>
<pdfrwt beam="2">  1        4 0.18327995E-02 0.12499987E+03</pdfrwt>
<pdfrwt beam="1">  1       -4 0.50444925E-01 0.12499987E+03</pdfrwt>
<totfact> 0.70861060E+03</totfact>
</mgrwt>
</event>
<event>
 5    1  0.3188180E-002  0.1249976E+03  0.7818608E-02  0.1235073E+00
         -4   -1    0    0    0  501 -0.00000000000E+00  0.00000000000E+00  0.81985426540E+01  0.82963245868E+01  0.12700000000E+01 0. -1.
          4   -1    0    0  501    0  0.00000000000E+00 -0.00000000000E+00 -0.47351537638E+03  0.47351707949E+03  0.12700000000E+01 0. -1.
         25    2    1    2    0    0  0.00000000000E+00  0.00000000000E+00 -0.46531683373E+03  0.48181340408E+03  0.12499760237E+03 0.  0.
    9000005    1    3    3    0    0 -0.18065880096E+02  0.59713323665E+02 -0.21873750588E+03  0.22746242223E+03  0.10000000000E+01 0.  0.
    9000005    1    3    3    0    0  0.18065880096E+02 -0.59713323665E+02 -0.24657932785E+03  0.25435098185E+03  0.10000000000E+01 0.  0.
<mgrwt>
<rscale>  0 0.12499760E+03</rscale>
<asrwt>0</asrwt>
<pdfrwt beam="2">  1        4 0.72856151E-01 0.12499760E+03</pdfrwt>
<pdfrwt beam="1">  1       -4 0.12689673E-02 0.12499760E+03</pdfrwt>
<totfact> 0.57306590E+03</totfact>
</mgrwt>
</event>
<event>
 5    1  0.3188180E-002  0.1250000E+03  0.7818608E-02  0.1235069E+00
          4   -1    0    0  501    0  0.00000000000E+00  0.00000000000E+00  0.68610474933E+03  0.68610592473E+03  0.12700000000E+01 0.  1.
         -4   -1    0    0    0  501 -0.00000000000E+00 -0.00000000000E+00 -0.56213513816E+01  0.57630279676E+01  0.12700000000E+01 0.  1.
         25    2    1    2    0    0  0.00000000000E+00  0.00000000000E+00  0.68048339795E+03  0.69186895270E+03  0.12499997131E+03 0.  0.
    9000005    1    3    3    0    0  0.23488985788E+02  0.57620260849E+02  0.30824349859E+03  0.31446284572E+03  0.10000000000E+01 0.  0.
    9000005    1    3    3    0    0 -0.23488985788E+02 -0.57620260849E+02  0.37223989936E+03  0.37740610698E+03  0.10000000000E+01 0.  0.
<mgrwt>
<rscale>  0 0.12499997E+03</rscale>
<asrwt>0</asrwt>
<pdfrwt beam="1">  1        4 0.10556556E+00 0.12499997E+03</pdfrwt>
<pdfrwt beam="2">  1       -4 0.87581193E-03 0.12499997E+03</pdfrwt>
<totfact> 0.43519433E+03</totfact>
</mgrwt>
</event>
<event>
 5    1  0.3188180E-002  0.1250140E+03  0.7818608E-02  0.1235047E+00
          4   -1    0    0  501    0  0.00000000000E+00  0.00000000000E+00  0.36421788209E+02  0.36443923448E+02  0.12700000000E+01 0. -1.
         -4   -1    0    0    0  501 -0.00000000000E+00 -0.00000000000E+00 -0.10721588491E+03  0.10722340639E+03  0.12700000000E+01 0. -1.
         25    2    1    2    0    0  0.00000000000E+00  0.00000000000E+00 -0.70794096702E+02  0.14366732984E+03  0.12501398935E+03 0.  0.
    9000005    1    3    3    0    0  0.34669965393E+02 -0.71076343485E+01  0.23802321982E+02  0.42662342858E+02  0.10000000000E+01 0.  0.
    9000005    1    3    3    0    0 -0.34669965393E+02  0.71076343485E+01 -0.94596418684E+02  0.10100498698E+03  0.10000000000E+01 0.  0.
<mgrwt>
<rscale>  0 0.12501399E+03</rscale>
<asrwt>0</asrwt>
<pdfrwt beam="1">  1        4 0.56056334E-02 0.12501399E+03</pdfrwt>
<pdfrwt beam="2">  1       -4 0.16497033E-01 0.12501399E+03</pdfrwt>
<totfact> 0.10054968E+04</totfact>
</mgrwt>
</event>
<event>
 5    1  0.3188180E-002  0.1250050E+03  0.7818608E-02  0.1235061E+00
          4   -1    0    0  501    0  0.00000000000E+00  0.00000000000E+00  0.70895721041E+01  0.72024254678E+01  0.12700000000E+01 0. -1.
         -4   -1    0    0    0  501 -0.00000000000E+00 -0.00000000000E+00 -0.54656473900E+03  0.54656621449E+03  0.12700000000E+01 0. -1.
         25    2    1    2    0    0  0.00000000000E+00  0.00000000000E+00 -0.53947516690E+03  0.55376863996E+03  0.12500500350E+03 0.  0.
    9000005    1    3    3    0    0 -0.51186863181E+01 -0.27622404071E+02 -0.22437028845E+02  0.35966907285E+02  0.10000000000E+01 0.  0.
    9000005    1    3    3    0    0  0.51186863181E+01  0.27622404071E+02 -0.51703813805E+03  0.51780173267E+03  0.10000000000E+01 0.  0.
<mgrwt>
<rscale>  0 0.12500500E+03</rscale>
<asrwt>0</asrwt>
<pdfrwt beam="1">  1        4 0.10994984E-02 0.12500500E+03</pdfrwt>
<pdfrwt beam="2">  1       -4 0.84095644E-01 0.12500500E+03</pdfrwt>
<totfact> 0.51916570E+03</totfact>
</mgrwt>
</event>
<event>
 5    1  0.3188180E-002  0.1249904E+03  0.7818608E-02  0.1235084E+00
         -4   -1    0    0    0  501 -0.00000000000E+00  0.00000000000E+00  0.36676874923E+01  0.38813440380E+01  0.12700000000E+01 0.  1.
          4   -1    0    0  501    0  0.00000000000E+00 -0.00000000000E+00 -0.10345285242E+04  0.10345293037E+04  0.12700000000E+01 0.  1.
         25    2    1    2    0    0  0.00000000000E+00  0.00000000000E+00 -0.10308608367E+04  0.10384106478E+04  0.12499043462E+03 0.  0.
    9000005    1    3    3    0    0  0.32869821347E+02  0.36334558762E+02 -0.19323441258E+03  0.19935185858E+03  0.10000000000E+01 0.  0.
    9000005    1    3    3    0    0 -0.32869821347E+02 -0.36334558762E+02 -0.83762642411E+03  0.83905878917E+03  0.10000000000E+01 0.  0.
<mgrwt>
<rscale>  0 0.12499043E+03</rscale>
<asrwt>0</asrwt>
<pdfrwt beam="2">  1        4 0.15917450E+00 0.12499043E+03</pdfrwt>
<pdfrwt beam="1">  1       -4 0.58075552E-03 0.12499043E+03</pdfrwt>
<totfact> 0.29365581E+03</totfact>
</mgrwt>
</event>
<event>
 5    1  0.3188180E-002  0.1249815E+03  0.7818608E-02  0.1235098E+00
          4   -1    0    0  501    0  0.00000000000E+00  0.00000000000E+00  0.27075995133E+02  0.27105763455E+02  0.12700000000E+01 0.  1.
         -4   -1    0    0    0  501 -0.00000000000E+00 -0.00000000000E+00 -0.14411541851E+03  0.14412101426E+03  0.12700000000E+01 0.  1.
         25    2    1    2    0    0  0.00000000000E+00  0.00000000000E+00 -0.11703942338E+03  0.17122677772E+03  0.12498152977E+03 0.  0.
    9000005    1    3    3    0    0  0.12988196847E+02 -0.36141859169E+02  0.90037445801E+01  0.39458771623E+02  0.10000000000E+01 0.  0.
    9000005    1    3    3    0    0 -0.12988196847E+02  0.36141859169E+02 -0.12604316796E+03  0.13176800609E+03  0.10000000000E+01 0.  0.
<mgrwt>
<rscale>  0 0.12498153E+03</rscale>
<asrwt>0</asrwt>
<pdfrwt beam="1">  1        4 0.41682581E-02 0.12498153E+03</pdfrwt>
<pdfrwt beam="2">  1       -4 0.22174323E-01 0.12498153E+03</pdfrwt>
<totfact> 0.95259956E+03</totfact>
</mgrwt>
</event>
<event>
 5    1  0.3188180E-002  0.1249996E+03  0.7818608E-02  0.1235070E+00
          4   -1    0    0  501    0  0.00000000000E+00  0.00000000000E+00  0.36665898762E+03  0.36666118707E+03  0.12700000000E+01 0.  1.
         -4   -1    0    0    0  501 -0.00000000000E+00 -0.00000000000E+00 -0.10613468517E+02  0.10689182100E+02  0.12700000000E+01 0.  1.
         25    2    1    2    0    0  0.00000000000E+00  0.00000000000E+00  0.35604551910E+03  0.37735036917E+03  0.12499955775E+03 0.  0.
    9000005    1    3    3    0    0  0.18728699280E+02  0.44991040951E+00  0.35799712080E+03  0.35848836118E+03  0.10000000000E+01 0.  0.
    9000005    1    3    3    0    0 -0.18728699280E+02 -0.44991040951E+00 -0.19516017042E+01  0.18862007987E+02  0.10000000000E+01 0.  0.
<mgrwt>
<rscale>  0 0.12499956E+03</rscale>
<asrwt>0</asrwt>
<pdfrwt beam="1">  1        4 0.56415073E-01 0.12499956E+03</pdfrwt>
<pdfrwt beam="2">  1       -4 0.16388345E-02 0.12499956E+03</pdfrwt>
<totfact> 0.66817546E+03</totfact>
</mgrwt>
</event>
<event>
 5    1  0.3188180E-002  0.1250066E+03  0.7818608E-02  0.1235059E+00
          4   -1    0    0  501    0  0.00000000000E+00  0.00000000000E+00  0.89824763473E+01  0.90718124611E+01  0.12700000000E+01 0. -1.
         -4   -1    0    0    0  501 -0.00000000000E+00 -0.00000000000E+00 -0.43267829854E+03  0.43268016240E+03  0.12700000000E+01 0. -1.
         25    2    1    2    0    0  0.00000000000E+00  0.00000000000E+00 -0.42369582220E+03  0.44175197486E+03  0.12500663000E+03 0.  0.
    9000005    1    3    3    0    0 -0.18615962003E+01 -0.17092869477E+02 -0.42417285487E+03  0.42452236988E+03  0.10000000000E+01 0.  0.
    9000005    1    3    3    0    0  0.18615962003E+01  0.17092869477E+02  0.47703266864E+00  0.17229604973E+02  0.10000000000E+01 0.  0.
<mgrwt>
<rscale>  0 0.12500663E+03</rscale>
<asrwt>0</asrwt>
<pdfrwt beam="1">  1        4 0.13889352E-02 0.12500663E+03</pdfrwt>
<pdfrwt beam="2">  1       -4 0.66572891E-01 0.12500663E+03</pdfrwt>
<totfact> 0.60676144E+03</totfact>
</mgrwt>
</event>
<event>
 5    1  0.3188180E-002  0.1250032E+03  0.7818608E-02  0.1235064E+00
          4   -1    0    0  501    0  0.00000000000E+00  0.00000000000E+00  0.41313816862E+02  0.41333332357E+02  0.12700000000E+01 0.  1.
         -4   -1    0    0    0  501 -0.00000000000E+00 -0.00000000000E+00 -0.94509364096E+02  0.94517896728E+02  0.12700000000E+01 0.  1.
         25    2    1    2    0    0  0.00000000000E+00  0.00000000000E+00 -0.53195547234E+02  0.13585122908E+03  0.12500316075E+03 0.  0.
    9000005    1    3    3    0    0 -0.12647615220E+02  0.30579153322E+02 -0.84211598028E+02  0.90485579134E+02  0.10000000000E+01 0.  0.
    9000005    1    3    3    0    0  0.12647615220E+02 -0.30579153322E+02  0.31016050794E+02  0.45365649951E+02  0.10000000000E+01 0.  0.
<mgrwt>
<rscale>  0 0.12500316E+03</rscale>
<asrwt>0</asrwt>
<pdfrwt beam="1">  1        4 0.63581294E-02 0.12500316E+03</pdfrwt>
<pdfrwt beam="2">  1       -4 0.14542060E-01 0.12500316E+03</pdfrwt>
<totfact> 0.10219432E+04</totfact>
</mgrwt>
</event>
<event>
 5    1  0.3188180E-002  0.1250243E+03  0.7818608E-02  0.1235031E+00
         -4   -1    0    0    0  501 -0.00000000000E+00  0.00000000000E+00  0.79257372067E+01  0.80268431073E+01  0.12700000000E+01 0. -1.
          4   -1    0    0  501    0  0.00000000000E+00 -0.00000000000E+00 -0.48982125860E+03  0.48982290501E+03  0.12700000000E+01 0. -1.
         25    2    1    2    0    0  0.00000000000E+00  0.00000000000E+00 -0.48189552139E+03  0.49784974812E+03  0.12502431030E+03 0.  0.
    9000005    1    3    3    0    0 -0.13727204356E+02  0.60888638252E+02 -0.25409877183E+03  0.26165444435E+03  0.10000000000E+01 0.  0.
    9000005    1    3    3    0    0  0.13727204356E+02 -0.60888638252E+02 -0.22779674957E+03  0.23619530377E+03  0.10000000000E+01 0.  0.
<mgrwt>
<rscale>  0 0.12502431E+03</rscale>
<asrwt>0</asrwt>
<pdfrwt beam="2">  1        4 0.75364997E-01 0.12502431E+03</pdfrwt>
<pdfrwt beam="1">  1       -4 0.12272486E-02 0.12502431E+03</pdfrwt>
<totfact> 0.56001654E+03</totfact>
</mgrwt>
</event>
<event>
 5    1  0.3188180E-002  0.1249996E+03  0.7818608E-02  0.1235070E+00
          4   -1    0    0  501    0  0.00000000000E+00  0.00000000000E+00  0.29166820884E+02  0.29194457359E+02  0.12700000000E+01 0. -1.
         -4   -1    0    0    0  501 -0.00000000000E+00 -0.00000000000E+00 -0.13383303211E+03  0.13383905776E+03  0.12700000000E+01 0. -1.
         25    2    1    2    0    0  0.00000000000E+00  0.00000000000E+00 -0.10466621122E+03  0.16303351512E+03  0.12499964512E+03 0.  0.
    9000005    1    3    3    0    0 -0.22957564379E+01  0.45406343369E+02 -0.10825308593E+03  0.11741693715E+03  0.10000000000E+01 0.  0.
    9000005    1    3    3    0    0  0.22957564379E+01 -0.45406343369E+02  0.35868747085E+01  0.45616577973E+02  0.10000000000E+01 0.  0.
<mgrwt>
<rscale>  0 0.12499965E+03</rscale>
<asrwt>0</asrwt>
<pdfrwt beam="1">  1        4 0.44897927E-02 0.12499965E+03</pdfrwt>
<pdfrwt beam="2">  1       -4 0.20592286E-01 0.12499965E+03</pdfrwt>
<totfact> 0.96761886E+03</totfact>
</mgrwt>
</event>
<event>
 5    1  0.3188180E-002  0.1249960E+03  0.7818608E-02  0.1235075E+00
          4   -1    0    0  501    0  0.00000000000E+00  0.00000000000E+00  0.31534267424E+02  0.31559830829E+02  0.12700000000E+01 0.  1.
         -4   -1    0    0    0  501 -0.00000000000E+00 -0.00000000000E+00 -0.12378628676E+03  0.12379280144E+03  0.12700000000E+01 0.  1.
         25    2    1    2    0    0  0.00000000000E+00  0.00000000000E+00 -0.92252019333E+02  0.15535263227E+03  0.12499602107E+03 0.  0.
    9000005    1    3    3    0    0 -0.10347886427E+02  0.48168524832E+01 -0.12248581763E+03  0.12302055252E+03  0.10000000000E+01 0.  0.
    9000005    1    3    3    0    0  0.10347886427E+02 -0.48168524832E+01  0.30233798300E+02  0.32332079751E+02  0.10000000000E+01 0.  0.
<mgrwt>
<rscale>  0 0.12499602E+03</rscale>
<asrwt>0</asrwt>
<pdfrwt beam="1">  1        4 0.48538934E-02 0.12499602E+03</pdfrwt>
<pdfrwt beam="2">  1       -4 0.19046511E-01 0.12499602E+03</pdfrwt>
<totfact> 0.98255109E+03</totfact>
</mgrwt>
</event>
<event>
 5    1  0.3188180E-002  0.1250008E+03  0.7818608E-02  0.1235068E+00
          4   -1    0    0  501    0  0.00000000000E+00  0.00000000000E+00  0.15399475916E+03  0.15399999594E+03  0.12700000000E+01 0.  1.
         -4   -1    0    0    0  501 -0.00000000000E+00 -0.00000000000E+00 -0.25344899998E+02  0.25376699074E+02  0.12700000000E+01 0.  1.
         25    2    1    2    0    0  0.00000000000E+00  0.00000000000E+00  0.12864985916E+03  0.17937669501E+03  0.12500084980E+03 0.  0.
    9000005    1    3    3    0    0  0.24577456744E+02  0.54483465660E+02  0.90503572357E+02  0.10846380050E+03  0.10000000000E+01 0.  0.
    9000005    1    3    3    0    0 -0.24577456744E+02 -0.54483465660E+02  0.38146286804E+02  0.70912894507E+02  0.10000000000E+01 0.  0.
<mgrwt>
<rscale>  0 0.12500085E+03</rscale>
<asrwt>0</asrwt>
<pdfrwt beam="1">  1        4 0.23694350E-01 0.12500085E+03</pdfrwt>
<pdfrwt beam="2">  1       -4 0.39020643E-02 0.12500085E+03</pdfrwt>
<totfact> 0.93727534E+03</totfact>
</mgrwt>
</event>
<event>
 5    1  0.3188180E-002  0.1249661E+03  0.7818608E-02  0.1235122E+00
         -4   -1    0    0    0  501 -0.00000000000E+00  0.00000000000E+00  0.18256856875E+02  0.18300976011E+02  0.12700000000E+01 0. -1.
          4   -1    0    0  501    0  0.00000000000E+00 -0.00000000000E+00 -0.21354064460E+03  0.21354442113E+03  0.12700000000E+01 0. -1.
         25    2    1    2    0    0  0.00000000000E+00  0.00000000000E+00 -0.19528378772E+03  0.23184539714E+03  0.12496611712E+03 0.  0.
    9000005    1    3    3    0    0 -0.39069341451E+02 -0.47211499325E+02 -0.12019642820E+03  0.13492042270E+03  0.10000000000E+01 0.  0.
    9000005    1    3    3    0    0  0.39069341451E+02  0.47211499325E+02 -0.75087359521E+02  0.96924974438E+02  0.10000000000E+01 0.  0.
<mgrwt>
<rscale>  0 0.12496612E+03</rscale>
<asrwt>0</asrwt>
<pdfrwt beam="2">  1        4 0.32856089E-01 0.12496612E+03</pdfrwt>
<pdfrwt beam="1">  1       -4 0.28124316E-02 0.12496612E+03</pdfrwt>
<totfact> 0.85091340E+03</totfact>
</mgrwt>
</event>
<event>
 5    1  0.3188180E-002  0.1249990E+03  0.7818608E-02  0.1235071E+00
          4   -1    0    0  501    0  0.00000000000E+00  0.00000000000E+00  0.51005848126E+02  0.51021656608E+02  0.12700000000E+01 0.  1.
         -4   -1    0    0    0  501 -0.00000000000E+00 -0.00000000000E+00 -0.76550130640E+02  0.76560664841E+02  0.12700000000E+01 0.  1.
         25    2    1    2    0    0  0.00000000000E+00  0.00000000000E+00 -0.25544282514E+02  0.12758232145E+03  0.12499895350E+03 0.  0.
    9000005    1    3    3    0    0 -0.61517818767E+01  0.60773779903E+02 -0.26231325629E+02  0.66485932258E+02  0.10000000000E+01 0.  0.
    9000005    1    3    3    0    0  0.61517818767E+01 -0.60773779903E+02  0.68704311565E+00  0.61096389191E+02  0.10000000000E+01 0.  0.
<mgrwt>
<rscale>  0 0.12499895E+03</rscale>
<asrwt>0</asrwt>
<pdfrwt beam="1">  1        4 0.78490799E-02 0.12499895E+03</pdfrwt>
<pdfrwt beam="2">  1       -4 0.11778970E-01 0.12499895E+03</pdfrwt>
<totfact> 0.10396764E+04</totfact>
</mgrwt>
</event>
<event>
 4    1  0.3188180E-002  0.1249109E+03  0.7818608E-02  0.1235209E+00
         -4   -1    0    0    0  501 -0.00000000000E+00  0.00000000000E+00  0.42063516361E+02  0.42082684190E+02  0.12700000000E+01 0. -1.
          4   -1    0    0  501    0  0.00000000000E+00 -0.00000000000E+00 -0.92688558619E+02  0.92697258853E+02  0.12700000000E+01 0. -1.
    9000005    1    1    2    0    0  0.40283736364E+02 -0.46496462278E+02 -0.13742243396E+02  0.63044029641E+02  0.10000000000E+01 0.  0.
    9000005    1    1    2    0    0 -0.40283736364E+02  0.46496462278E+02 -0.36882798862E+02  0.71735913403E+02  0.10000000000E+01 0.  0.
<mgrwt>
<rscale>  0 0.12491092E+03</rscale>
<asrwt>0</asrwt>
<pdfrwt beam="2">  1        4 0.14261922E-01 0.12491092E+03</pdfrwt>
<pdfrwt beam="1">  1       -4 0.64734540E-02 0.12491092E+03</pdfrwt>
<totfact> 0.10263316E+04</totfact>
</mgrwt>
</event>
<event>
 5    1  0.3188180E-002  0.1250005E+03  0.7818608E-02  0.1235068E+00
          4   -1    0    0  501    0  0.00000000000E+00  0.00000000000E+00  0.65601491707E+01  0.66819501002E+01  0.12700000000E+01 0.  1.
         -4   -1    0    0    0  501 -0.00000000000E+00 -0.00000000000E+00 -0.58985682325E+03  0.58985819045E+03  0.12700000000E+01 0.  1.
         25    2    1    2    0    0  0.00000000000E+00  0.00000000000E+00 -0.58329667408E+03  0.59654014055E+03  0.12500051716E+03 0.  0.
    9000005    1    3    3    0    0  0.37598975505E+00 -0.23977940813E+02 -0.16248946040E+02  0.28984672869E+02  0.10000000000E+01 0.  0.
    9000005    1    3    3    0    0 -0.37598975505E+00  0.23977940813E+02 -0.56704772804E+03  0.56755546768E+03  0.10000000000E+01 0.  0.
<mgrwt>
<rscale>  0 0.12500052E+03</rscale>
<asrwt>0</asrwt>
<pdfrwt beam="1">  1        4 0.10187287E-02 0.12500052E+03</pdfrwt>
<pdfrwt beam="2">  1       -4 0.90756637E-01 0.12500052E+03</pdfrwt>
<totfact> 0.49086197E+03</totfact>
</mgrwt>
</event>
<event>
 5    1  0.3188180E-002  0.1249974E+03  0.7818608E-02  0.1235073E+00
         -4   -1    0    0    0  501 -0.00000000000E+00  0.00000000000E+00  0.84626685402E+02  0.84636214366E+02  0.12700000000E+01 0.  1.
          4   -1    0    0  501    0  0.00000000000E+00 -0.00000000000E+00 -0.46135789359E+02  0.46153265971E+02  0.12700000000E+01 0.  1.
         25    2    1    2    0    0  0.00000000000E+00  0.00000000000E+00  0.38490896043E+02  0.13078948034E+03  0.12499735633E+03 0.  0.
    9000005    1    3    3    0    0  0.10040036750E+02  0.22124971306E+02  0.79487334080E+02  0.83123720876E+02  0.10000000000E+01 0.  0.
    9000005    1    3    3    0    0 -0.10040036750E+02 -0.22124971306E+02 -0.40996438037E+02  0.47665759460E+02  0.10000000000E+01 0.  0.
<mgrwt>
<rscale>  0 0.12499736E+03</rscale>
<asrwt>0</asrwt>
<pdfrwt beam="2">  1        4 0.70998912E-02 0.12499736E+03</pdfrwt>
<pdfrwt beam="1">  1       -4 0.13021567E-01 0.12499736E+03</pdfrwt>
<totfact> 0.10328221E+04</totfact>
</mgrwt>
</event>
<event>
 5    1  0.3188180E-002  0.1250016E+03  0.7818608E-02  0.1235067E+00
         -4   -1    0    0    0  501 -0.00000000000E+00  0.00000000000E+00  0.44480775748E+01  0.46258290188E+01  0.12700000000E+01 0. -1.
          4   -1    0    0  501    0  0.00000000000E+00 -0.00000000000E+00 -0.86082899171E+03  0.86082992854E+03  0.12700000000E+01 0. -1.
         25    2    1    2    0    0  0.00000000000E+00  0.00000000000E+00 -0.85638091413E+03  0.86545575756E+03  0.12500159277E+03 0.  0.
    9000005    1    3    3    0    0  0.20586190958E+02 -0.48858324636E+02 -0.19914493151E+03  0.20608403842E+03  0.10000000000E+01 0.  0.
    9000005    1    3    3    0    0 -0.20586190958E+02  0.48858324636E+02 -0.65723598262E+03  0.65937171914E+03  0.10000000000E+01 0.  0.
<mgrwt>
<rscale>  0 0.12500159E+03</rscale>
<asrwt>0</asrwt>
<pdfrwt beam="2">  1        4 0.13244884E+00 0.12500159E+03</pdfrwt>
<pdfrwt beam="1">  1       -4 0.69806557E-03 0.12500159E+03</pdfrwt>
<totfact> 0.35501874E+03</totfact>
</mgrwt>
</event>
<event>
 5    1  0.3188180E-002  0.1250021E+03  0.7818608E-02  0.1235066E+00
         -4   -1    0    0    0  501 -0.00000000000E+00  0.00000000000E+00  0.48879550838E+02  0.48896046774E+02  0.12700000000E+01 0.  1.
          4   -1    0    0  501    0  0.00000000000E+00 -0.00000000000E+00 -0.79883451594E+02  0.79893546289E+02  0.12700000000E+01 0.  1.
         25    2    1    2    0    0  0.00000000000E+00  0.00000000000E+00 -0.31003900756E+02  0.12878959306E+03  0.12500206966E+03 0.  0.
    9000005    1    3    3    0    0 -0.55664143479E+02 -0.60546475149E+01  0.13091858788E+02  0.57511324035E+02  0.10000000000E+01 0.  0.
    9000005    1    3    3    0    0  0.55664143479E+02  0.60546475149E+01 -0.44095759544E+02  0.71278269028E+02  0.10000000000E+01 0.  0.
<mgrwt>
<rscale>  0 0.12500207E+03</rscale>
<asrwt>0</asrwt>
<pdfrwt beam="2">  1        4 0.12291807E-01 0.12500207E+03</pdfrwt>
<pdfrwt beam="1">  1       -4 0.75219763E-02 0.12500207E+03</pdfrwt>
<totfact> 0.10369986E+04</totfact>
</mgrwt>
</event>
<event>
 5    1  0.3188180E-002  0.1250011E+03  0.7818608E-02  0.1235068E+00
         -4   -1    0    0    0  501 -0.00000000000E+00  0.00000000000E+00  0.15490635131E+02  0.15542608429E+02  0.12700000000E+01 0.  1.
          4   -1    0    0  501    0  0.00000000000E+00 -0.00000000000E+00 -0.25169696187E+03  0.25170016590E+03  0.12700000000E+01 0.  1.
         25    2    1    2    0    0  0.00000000000E+00  0.00000000000E+00 -0.23620632674E+03  0.26724277433E+03  0.12500108656E+03 0.  0.
    9000005    1    3    3    0    0 -0.30409363515E+02 -0.12219089413E+02 -0.23186164225E+03  0.23416843656E+03  0.10000000000E+01 0.  0.
    9000005    1    3    3    0    0  0.30409363515E+02  0.12219089413E+02 -0.43446844891E+01  0.33074337768E+02  0.10000000000E+01 0.  0.
<mgrwt>
<rscale>  0 0.12500109E+03</rscale>
<asrwt>0</asrwt>
<pdfrwt beam="2">  1        4 0.38726851E-01 0.12500109E+03</pdfrwt>
<pdfrwt beam="1">  1       -4 0.23874192E-02 0.12500109E+03</pdfrwt>
<totfact> 0.79898333E+03</totfact>
</mgrwt>
</event>
<event>
 5    1  0.3188180E-002  0.1249921E+03  0.7818608E-02  0.1235082E+00
         -4   -1    0    0    0  501 -0.00000000000E+00  0.00000000000E+00  0.49053299955E+01  0.50670664457E+01  0.12700000000E+01 0.  1.
          4   -1    0    0  501    0  0.00000000000E+00 -0.00000000000E+00 -0.78315159984E+03  0.78315262959E+03  0.12700000000E+01 0.  1.
         25    2    1    2    0    0  0.00000000000E+00  0.00000000000E+00 -0.77824626984E+03  0.78821969603E+03  0.12499213051E+03 0.  0.
    9000005    1    3    3    0    0  0.23607158112E+02 -0.14642616809E+02 -0.36144390153E+02  0.45597380195E+02  0.10000000000E+01 0.  0.
    9000005    1    3    3    0    0 -0.23607158112E+02  0.14642616809E+02 -0.74210187969E+03  0.74262231584E+03  0.10000000000E+01 0.  0.
<mgrwt>
<rscale>  0 0.12499213E+03</rscale>
<asrwt>0</asrwt>
<pdfrwt beam="2">  1        4 0.12049728E+00 0.12499213E+03</pdfrwt>
<pdfrwt beam="1">  1       -4 0.76718725E-03 0.12499213E+03</pdfrwt>
<totfact> 0.38802772E+03</totfact>
</mgrwt>
</event>
<event>
 5    1  0.3188180E-002  0.1250036E+03  0.7818608E-02  0.1235064E+00
          4   -1    0    0  501    0  0.00000000000E+00  0.00000000000E+00  0.34548611464E+03  0.34548844888E+03  0.12700000000E+01 0.  1.
         -4   -1    0    0    0  501 -0.00000000000E+00 -0.00000000000E+00 -0.11269144788E+02  0.11340481659E+02  0.12700000000E+01 0.  1.
         25    2    1    2    0    0  0.00000000000E+00  0.00000000000E+00  0.33421696985E+03  0.35682893054E+03  0.12500361088E+03 0.  0.
    9000005    1    3    3    0    0 -0.79222376220E+01  0.47934009356E+02  0.27931239918E+03  0.28350810824E+03  0.10000000000E+01 0.  0.
    9000005    1    3    3    0    0  0.79222376220E+01 -0.47934009356E+02  0.54904570670E+02  0.73320822297E+02  0.10000000000E+01 0.  0.
<mgrwt>
<rscale>  0 0.12500361E+03</rscale>
<asrwt>0</asrwt>
<pdfrwt beam="1">  1        4 0.53157381E-01 0.12500361E+03</pdfrwt>
<pdfrwt beam="2">  1       -4 0.17393815E-02 0.12500361E+03</pdfrwt>
<totfact> 0.68974252E+03</totfact>
</mgrwt>
</event>
<event>
 5    1  0.3188180E-002  0.1249988E+03  0.7818608E-02  0.1235071E+00
         -4   -1    0    0    0  501 -0.00000000000E+00  0.00000000000E+00  0.51644780511E+01  0.53183393593E+01  0.12700000000E+01 0.  1.
          4   -1    0    0  501    0  0.00000000000E+00 -0.00000000000E+00 -0.74509824076E+03  0.74509932310E+03  0.12700000000E+01 0.  1.
         25    2    1    2    0    0  0.00000000000E+00  0.00000000000E+00 -0.73993376271E+03  0.75041766246E+03  0.12499877973E+03 0.  0.
    9000005    1    3    3    0    0  0.39847647681E+02  0.30816666345E+02 -0.59198489744E+03  0.59412508847E+03  0.10000000000E+01 0.  0.
    9000005    1    3    3    0    0 -0.39847647681E+02 -0.30816666345E+02 -0.14794886527E+03  0.15629257399E+03  0.10000000000E+01 0.  0.
<mgrwt>
<rscale>  0 0.12499878E+03</rscale>
<asrwt>0</asrwt>
<pdfrwt beam="2">  1        4 0.11464233E+00 0.12499878E+03</pdfrwt>
<pdfrwt beam="1">  1       -4 0.80645442E-03 0.12499878E+03</pdfrwt>
<totfact> 0.40555273E+03</totfact>
</mgrwt>
</event>
<event>
 5    1  0.3188180E-002  0.1250008E+03  0.7818608E-02  0.1235068E+00
          4   -1    0    0  501    0  0.00000000000E+00  0.00000000000E+00  0.31441973454E+02  0.31467611836E+02  0.12700000000E+01 0. -1.
         -4   -1    0    0    0  501 -0.00000000000E+00 -0.00000000000E+00 -0.12415883239E+03  0.12416532753E+03  0.12700000000E+01 0. -1.
         25    2    1    2    0    0  0.00000000000E+00  0.00000000000E+00 -0.92716858939E+02  0.15563293937E+03  0.12500078354E+03 0.  0.
    9000005    1    3    3    0    0  0.48360244849E+02  0.36722432411E+02 -0.27973351213E+02  0.66863732338E+02  0.10000000000E+01 0.  0.
    9000005    1    3    3    0    0 -0.48360244849E+02 -0.36722432411E+02 -0.64743507726E+02  0.88769207030E+02  0.10000000000E+01 0.  0.
<mgrwt>
<rscale>  0 0.12500078E+03</rscale>
<asrwt>0</asrwt>
<pdfrwt beam="1">  1        4 0.48396986E-02 0.12500078E+03</pdfrwt>
<pdfrwt beam="2">  1       -4 0.19103830E-01 0.12500078E+03</pdfrwt>
<totfact> 0.98189658E+03</totfact>
</mgrwt>
</event>
<event>
 5    1  0.3188180E-002  0.1249988E+03  0.7818608E-02  0.1235071E+00
         -4   -1    0    0    0  501 -0.00000000000E+00  0.00000000000E+00  0.39874807274E+02  0.39895026697E+02  0.12700000000E+01 0. -1.
          4   -1    0    0  501    0  0.00000000000E+00 -0.00000000000E+00 -0.97911868337E+02  0.97920104479E+02  0.12700000000E+01 0. -1.
         25    2    1    2    0    0  0.00000000000E+00  0.00000000000E+00 -0.58037061063E+02  0.13781513118E+03  0.12499883969E+03 0.  0.
    9000005    1    3    3    0    0 -0.25325786260E+02  0.30368771215E+02 -0.82369195303E+02  0.91374734198E+02  0.10000000000E+01 0.  0.
    9000005    1    3    3    0    0  0.25325786260E+02 -0.30368771215E+02  0.24332134240E+02  0.46440396978E+02  0.10000000000E+01 0.  0.
<mgrwt>
<rscale>  0 0.12499884E+03</rscale>
<asrwt>0</asrwt>
<pdfrwt beam="2">  1        4 0.15065553E-01 0.12499884E+03</pdfrwt>
<pdfrwt beam="1">  1       -4 0.61367747E-02 0.12499884E+03</pdfrwt>
<totfact> 0.10179336E+04</totfact>
</mgrwt>
</event>
<event>
 5    1  0.3188180E-002  0.1249972E+03  0.7818608E-02  0.1235074E+00
         -4   -1    0    0    0  501 -0.00000000000E+00  0.00000000000E+00  0.20740705425E+03  0.20741094247E+03  0.12700000000E+01 0. -1.
          4   -1    0    0  501    0  0.00000000000E+00 -0.00000000000E+00 -0.18807412203E+02  0.18850242805E+02  0.12700000000E+01 0. -1.
         25    2    1    2    0    0  0.00000000000E+00  0.00000000000E+00  0.18859964205E+03  0.22626118527E+03  0.12499719588E+03 0.  0.
    9000005    1    3    3    0    0 -0.60580116954E+02  0.14494888300E+02  0.85245119058E+02  0.10558306057E+03  0.10000000000E+01 0.  0.
    9000005    1    3    3    0    0  0.60580116954E+02 -0.14494888300E+02  0.10335452299E+03  0.12067812470E+03  0.10000000000E+01 0.  0.
<mgrwt>
<rscale>  0 0.12499720E+03</rscale>
<asrwt>0</asrwt>
<pdfrwt beam="2">  1        4 0.28970421E-02 0.12499720E+03</pdfrwt>
<pdfrwt beam="1">  1       -4 0.31912368E-01 0.12499720E+03</pdfrwt>
<totfact> 0.85892399E+03</totfact>
</mgrwt>
</event>
<event>
 5    1  0.3188180E-002  0.1249951E+03  0.7818608E-02  0.1235077E+00
         -4   -1    0    0    0  501 -0.00000000000E+00  0.00000000000E+00  0.26432067482E+02  0.26462560182E+02  0.12700000000E+01 0.  1.
          4   -1    0    0  501    0  0.00000000000E+00 -0.00000000000E+00 -0.14765443755E+03  0.14765989919E+03  0.12700000000E+01 0.  1.
         25    2    1    2    0    0  0.00000000000E+00  0.00000000000E+00 -0.12122237007E+03  0.17412245937E+03  0.12499507131E+03 0.  0.
    9000005    1    3    3    0    0 -0.17351779745E+02 -0.52405574830E+02 -0.19818492770E+02  0.58661752354E+02  0.10000000000E+01 0.  0.
    9000005    1    3    3    0    0  0.17351779745E+02  0.52405574830E+02 -0.10140387730E+03  0.11546070701E+03  0.10000000000E+01 0.  0.
<mgrwt>
<rscale>  0 0.12499507E+03</rscale>
<asrwt>0</asrwt>
<pdfrwt beam="2">  1        4 0.22718833E-01 0.12499507E+03</pdfrwt>
<pdfrwt beam="1">  1       -4 0.40692377E-02 0.12499507E+03</pdfrwt>
<totfact> 0.94696277E+03</totfact>
</mgrwt>
</event>
<event>
 5    1  0.3188180E-002  0.1250396E+03  0.7818608E-02  0.1235007E+00
         -4   -1    0    0    0  501 -0.00000000000E+00  0.00000000000E+00  0.39309149718E+03  0.39309354873E+03  0.12700000000E+01 0.  1.
          4   -1    0    0  501    0  0.00000000000E+00 -0.00000000000E+00 -0.99009073371E+01  0.99820271537E+01  0.12700000000E+01 0.  1.
         25    2    1    2    0    0  0.00000000000E+00  0.00000000000E+00  0.38319058984E+03  0.40307557589E+03  0.12503956067E+03 0.  0.
    9000005    1    3    3    0    0  0.46024393529E+02  0.11092162122E+02  0.60001880708E+02  0.76436290784E+02  0.10000000000E+01 0.  0.
    9000005    1    3    3    0    0 -0.46024393529E+02 -0.11092162122E+02  0.32318870914E+03  0.32663928510E+03  0.10000000000E+01 0.  0.
<mgrwt>
<rscale>  0 0.12503956E+03</rscale>
<asrwt>0</asrwt>
<pdfrwt beam="2">  1        4 0.15296141E-02 0.12503956E+03</pdfrwt>
<pdfrwt beam="1">  1       -4 0.60482019E-01 0.12503956E+03</pdfrwt>
<totfact> 0.64198673E+03</totfact>
</mgrwt>
</event>
<event>
 5    1  0.3188180E-002  0.1249997E+03  0.7818608E-02  0.1235070E+00
         -4   -1    0    0    0  501 -0.00000000000E+00  0.00000000000E+00  0.44381565333E+02  0.44399732448E+02  0.12700000000E+01 0.  1.
          4   -1    0    0  501    0  0.00000000000E+00 -0.00000000000E+00 -0.87973933325E+02  0.87983099767E+02  0.12700000000E+01 0.  1.
         25    2    1    2    0    0  0.00000000000E+00  0.00000000000E+00 -0.43592367992E+02  0.13238283221E+03  0.12499967887E+03 0.  0.
    9000005    1    3    3    0    0  0.31908909470E+01  0.62218359704E+02 -0.26976287047E+02  0.67897173226E+02  0.10000000000E+01 0.  0.
    9000005    1    3    3    0    0 -0.31908909470E+01 -0.62218359704E+02 -0.16616080945E+02  0.64485658989E+02  0.10000000000E+01 0.  0.
<mgrwt>
<rscale>  0 0.12499968E+03</rscale>
<asrwt>0</asrwt>
<pdfrwt beam="2">  1        4 0.13536554E-01 0.12499968E+03</pdfrwt>
<pdfrwt beam="1">  1       -4 0.68300357E-02 0.12499968E+03</pdfrwt>
<totfact> 0.10293608E+04</totfact>
</mgrwt>
</event>
<event>
 5    1  0.3188180E-002  0.1249979E+03  0.7818608E-02  0.1235073E+00
          4   -1    0    0  501    0  0.00000000000E+00  0.00000000000E+00  0.56727201557E+01  0.58131449290E+01  0.12700000000E+01 0. -1.
         -4   -1    0    0    0  501 -0.00000000000E+00 -0.00000000000E+00 -0.68001975947E+03  0.68002094540E+03  0.12700000000E+01 0. -1.
         25    2    1    2    0    0  0.00000000000E+00  0.00000000000E+00 -0.67434703932E+03  0.68583409032E+03  0.12499788003E+03 0.  0.
    9000005    1    3    3    0    0  0.44368747657E+01  0.55684861040E+02 -0.49086446910E+03  0.49403382135E+03  0.10000000000E+01 0.  0.
    9000005    1    3    3    0    0 -0.44368747657E+01 -0.55684861040E+02 -0.18348257022E+03  0.19180026898E+03  0.10000000000E+01 0.  0.
<mgrwt>
<rscale>  0 0.12499788E+03</rscale>
<asrwt>0</asrwt>
<pdfrwt beam="1">  1        4 0.88361985E-03 0.12499788E+03</pdfrwt>
<pdfrwt beam="2">  1       -4 0.10462925E+00 0.12499788E+03</pdfrwt>
<totfact> 0.43847173E+03</totfact>
</mgrwt>
</event>
<event>
 5    1  0.3188180E-002  0.1250049E+03  0.7818608E-02  0.1235062E+00
          4   -1    0    0  501    0  0.00000000000E+00  0.00000000000E+00  0.21865041875E+02  0.21901893895E+02  0.12700000000E+01 0.  1.
         -4   -1    0    0    0  501 -0.00000000000E+00 -0.00000000000E+00 -0.17847727701E+03  0.17848179546E+03  0.12700000000E+01 0.  1.
         25    2    1    2    0    0  0.00000000000E+00  0.00000000000E+00 -0.15661223514E+03  0.20038368935E+03  0.12500492296E+03 0.  0.
    9000005    1    3    3    0    0  0.19519392306E+02 -0.19172444967E+02 -0.16837408598E+03  0.17058552738E+03  0.10000000000E+01 0.  0.
    9000005    1    3    3    0    0 -0.19519392306E+02  0.19172444967E+02  0.11761850840E+02  0.29798161976E+02  0.10000000000E+01 0.  0.
<mgrwt>
<rscale>  0 0.12500492E+03</rscale>
<asrwt>0</asrwt>
<pdfrwt beam="1">  1        4 0.33670351E-02 0.12500492E+03</pdfrwt>
<pdfrwt beam="2">  1       -4 0.27461224E-01 0.12500492E+03</pdfrwt>
<totfact> 0.90060913E+03</totfact>
</mgrwt>
</event>
<event>
 5    1  0.3188180E-002  0.1250018E+03  0.7818608E-02  0.1235067E+00
          4   -1    0    0  501    0  0.00000000000E+00  0.00000000000E+00  0.92023699494E+02  0.92032462580E+02  0.12700000000E+01 0. -1.
         -4   -1    0    0    0  501 -0.00000000000E+00 -0.00000000000E+00 -0.42429216347E+02  0.42448219041E+02  0.12700000000E+01 0. -1.
         25    2    1    2    0    0  0.00000000000E+00  0.00000000000E+00  0.49594483147E+02  0.13448068162E+03  0.12500176387E+03 0.  0.
    9000005    1    3    3    0    0 -0.99639806546E+01  0.38311356722E+02 -0.27225791075E+02  0.48055017054E+02  0.10000000000E+01 0.  0.
    9000005    1    3    3    0    0  0.99639806546E+01 -0.38311356722E+02  0.76820274223E+02  0.86425664568E+02  0.10000000000E+01 0.  0.
<mgrwt>
<rscale>  0 0.12500176E+03</rscale>
<asrwt>0</asrwt>
<pdfrwt beam="1">  1        4 0.14159628E-01 0.12500176E+03</pdfrwt>
<pdfrwt beam="2">  1       -4 0.65297076E-02 0.12500176E+03</pdfrwt>
<totfact> 0.10248621E+04</totfact>
</mgrwt>
</event>
<event>
 5    1  0.3188180E-002  0.1250004E+03  0.7818608E-02  0.1235069E+00
         -4   -1    0    0    0  501 -0.00000000000E+00  0.00000000000E+00  0.80031536864E+01  0.81032937086E+01  0.12700000000E+01 0.  1.
          4   -1    0    0  501    0  0.00000000000E+00 -0.00000000000E+00 -0.48495654277E+03  0.48495820570E+03  0.12700000000E+01 0.  1.
         25    2    1    2    0    0  0.00000000000E+00  0.00000000000E+00 -0.47695338909E+03  0.49306149941E+03  0.12500042736E+03 0.  0.
    9000005    1    3    3    0    0  0.16004319163E+02 -0.55886262281E+02 -0.32893040433E+03  0.33402937511E+03  0.10000000000E+01 0.  0.
    9000005    1    3    3    0    0 -0.16004319163E+02  0.55886262281E+02 -0.14802298476E+03  0.15903212431E+03  0.10000000000E+01 0.  0.
<mgrwt>
<rscale>  0 0.12500043E+03</rscale>
<asrwt>0</asrwt>
<pdfrwt beam="2">  1        4 0.74616507E-01 0.12500043E+03</pdfrwt>
<pdfrwt beam="1">  1       -4 0.12390858E-02 0.12500043E+03</pdfrwt>
<totfact> 0.56406236E+03</totfact>
</mgrwt>
</event>
<event>
 5    1  0.3188180E-002  0.1250055E+03  0.7818608E-02  0.1235061E+00
         -4   -1    0    0    0  501 -0.00000000000E+00  0.00000000000E+00  0.32982318233E+03  0.32982562742E+03  0.12700000000E+01 0. -1.
          4   -1    0    0  501    0  0.00000000000E+00 -0.00000000000E+00 -0.11807965176E+02  0.11876065914E+02  0.12700000000E+01 0. -1.
         25    2    1    2    0    0  0.00000000000E+00  0.00000000000E+00  0.31801521716E+03  0.34170169334E+03  0.12500547542E+03 0.  0.
    9000005    1    3    3    0    0  0.41515115530E+02 -0.12598798054E+02  0.36050277675E+02  0.56416815315E+02  0.10000000000E+01 0.  0.
    9000005    1    3    3    0    0 -0.41515115530E+02  0.12598798054E+02  0.28196493948E+03  0.28528487802E+03  0.10000000000E+01 0.  0.
<mgrwt>
<rscale>  0 0.12500548E+03</rscale>
<asrwt>0</asrwt>
<pdfrwt beam="2">  1        4 0.18220364E-02 0.12500548E+03</pdfrwt>
<pdfrwt beam="1">  1       -4 0.50747460E-01 0.12500548E+03</pdfrwt>
<totfact> 0.70638654E+03</totfact>
</mgrwt>
</event>
<event>
 5    1  0.3188180E-002  0.1249959E+03  0.7818608E-02  0.1235076E+00
         -4   -1    0    0    0  501 -0.00000000000E+00  0.00000000000E+00  0.24812722210E+02  0.24845202424E+02  0.12700000000E+01 0.  1.
          4   -1    0    0  501    0  0.00000000000E+00 -0.00000000000E+00 -0.15728088217E+03  0.15728600954E+03  0.12700000000E+01 0.  1.
         25    2    1    2    0    0  0.00000000000E+00  0.00000000000E+00 -0.13246815996E+03  0.18213121196E+03  0.12499585980E+03 0.  0.
    9000005    1    3    3    0    0 -0.58474135103E+02  0.17047068760E+02 -0.45878248770E+02  0.76260348410E+02  0.10000000000E+01 0.  0.
    9000005    1    3    3    0    0  0.58474135103E+02 -0.17047068760E+02 -0.86589911190E+02  0.10587086355E+03  0.10000000000E+01 0.  0.
<mgrwt>
<rscale>  0 0.12499586E+03</rscale>
<asrwt>0</asrwt>
<pdfrwt beam="2">  1        4 0.24199951E-01 0.12499586E+03</pdfrwt>
<pdfrwt beam="1">  1       -4 0.38202349E-02 0.12499586E+03</pdfrwt>
<totfact> 0.93243433E+03</totfact>
</mgrwt>
</event>
<event>
 5    1  0.3188180E-002  0.1249990E+03  0.7818608E-02  0.1235071E+00
         -4   -1    0    0    0  501 -0.00000000000E+00  0.00000000000E+00  0.18743035423E+03  0.18743465685E+03  0.12700000000E+01 0. -1.
          4   -1    0    0  501    0  0.00000000000E+00 -0.00000000000E+00 -0.20816854287E+02  0.20855558549E+02  0.12700000000E+01 0. -1.
         25    2    1    2    0    0  0.00000000000E+00  0.00000000000E+00  0.16661349995E+03  0.20829021540E+03  0.12499902186E+03 0.  0.
    9000005    1    3    3    0    0  0.51259225284E+01  0.62093343973E+02  0.91355408891E+02  0.11058331330E+03  0.10000000000E+01 0.  0.
    9000005    1    3    3    0    0 -0.51259225284E+01 -0.62093343973E+02  0.75258091056E+02  0.97706902095E+02  0.10000000000E+01 0.  0.
<mgrwt>
<rscale>  0 0.12499902E+03</rscale>
<asrwt>0</asrwt>
<pdfrwt beam="2">  1        4 0.32059012E-02 0.12499902E+03</pdfrwt>
<pdfrwt beam="1">  1       -4 0.28838747E-01 0.12499902E+03</pdfrwt>
<totfact> 0.88757815E+03</totfact>
</mgrwt>
</event>
<event>
 5    1  0.3188180E-002  0.1250024E+03  0.7818608E-02  0.1235066E+00
         -4   -1    0    0    0  501 -0.00000000000E+00  0.00000000000E+00  0.10363199986E+03  0.10363978144E+03  0.12700000000E+01 0. -1.
          4   -1    0    0  501    0  0.00000000000E+00 -0.00000000000E+00 -0.37675031405E+02  0.37696430751E+02  0.12700000000E+01 0. -1.
         25    2    1    2    0    0  0.00000000000E+00  0.00000000000E+00  0.65956968460E+02  0.14133621219E+03  0.12500241272E+03 0.  0.
    9000005    1    3    3    0    0 -0.50197843675E+02  0.35420089958E+02  0.45919298592E+02  0.76707159153E+02  0.10000000000E+01 0.  0.
    9000005    1    3    3    0    0  0.50197843675E+02 -0.35420089958E+02  0.20037669868E+02  0.64629053033E+02  0.10000000000E+01 0.  0.
<mgrwt>
<rscale>  0 0.12500241E+03</rscale>
<asrwt>0</asrwt>
<pdfrwt beam="2">  1        4 0.57984035E-02 0.12500241E+03</pdfrwt>
<pdfrwt beam="1">  1       -4 0.15945629E-01 0.12500241E+03</pdfrwt>
<totfact> 0.10105418E+04</totfact>
</mgrwt>
</event>
<event>
 5    1  0.3188180E-002  0.1250006E+03  0.7818608E-02  0.1235068E+00
          4   -1    0    0  501    0  0.00000000000E+00  0.00000000000E+00  0.13048725674E+02  0.13110382974E+02  0.12700000000E+01 0. -1.
         -4   -1    0    0    0  501 -0.00000000000E+00 -0.00000000000E+00 -0.29859314360E+03  0.29859584442E+03  0.12700000000E+01 0. -1.
         25    2    1    2    0    0  0.00000000000E+00  0.00000000000E+00 -0.28554441792E+03  0.31170622739E+03  0.12500063035E+03 0.  0.
    9000005    1    3    3    0    0  0.11342611934E+02 -0.92350906363E+01 -0.29427678497E+03  0.29464176201E+03  0.10000000000E+01 0.  0.
    9000005    1    3    3    0    0 -0.11342611934E+02  0.92350906363E+01  0.87323670500E+01  0.17064465384E+02  0.10000000000E+01 0.  0.
<mgrwt>
<rscale>  0 0.12500063E+03</rscale>
<asrwt>0</asrwt>
<pdfrwt beam="1">  1        4 0.20124471E-02 0.12500063E+03</pdfrwt>
<pdfrwt beam="2">  1       -4 0.45942352E-01 0.12500063E+03</pdfrwt>
<totfact> 0.74152473E+03</totfact>
</mgrwt>
</event>
<event>
 5    1  0.3188180E-002  0.1249831E+03  0.7818608E-02  0.1235096E+00
          4   -1    0    0  501    0  0.00000000000E+00  0.00000000000E+00  0.58948159002E+03  0.58948295809E+03  0.12700000000E+01 0. -1.
         -4   -1    0    0    0  501 -0.00000000000E+00 -0.00000000000E+00 -0.65625336740E+01  0.66842911533E+01  0.12700000000E+01 0. -1.
         25    2    1    2    0    0  0.00000000000E+00  0.00000000000E+00  0.58291905635E+03  0.59616724924E+03  0.12498305010E+03 0.  0.
    9000005    1    3    3    0    0  0.59303433501E+02  0.81561892561E+01  0.20602884006E+03  0.21455140080E+03  0.10000000000E+01 0.  0.
    9000005    1    3    3    0    0 -0.59303433501E+02 -0.81561892561E+01  0.37689021628E+03  0.38161584844E+03  0.10000000000E+01 0.  0.
<mgrwt>
<rscale>  0 0.12498305E+03</rscale>
<asrwt>0</asrwt>
<pdfrwt beam="1">  1        4 0.90698942E-01 0.12498305E+03</pdfrwt>
<pdfrwt beam="2">  1       -4 0.10190918E-02 0.12498305E+03</pdfrwt>
<totfact> 0.49128702E+03</totfact>
</mgrwt>
</event>
<event>
 5    1  0.3188180E-002  0.1249989E+03  0.7818608E-02  0.1235071E+00
          4   -1    0    0  501    0  0.00000000000E+00  0.00000000000E+00  0.29925406022E+02  0.29952342573E+02  0.12700000000E+01 0.  1.
         -4   -1    0    0    0  501 -0.00000000000E+00 -0.00000000000E+00 -0.13044189266E+03  0.13044807496E+03  0.12700000000E+01 0.  1.
         25    2    1    2    0    0  0.00000000000E+00  0.00000000000E+00 -0.10051648664E+03  0.16040041754E+03  0.12499891943E+03 0.  0.
    9000005    1    3    3    0    0  0.44626655213E+02  0.41155332999E+02 -0.31230173267E+02  0.68276083016E+02  0.10000000000E+01 0.  0.
    9000005    1    3    3    0    0 -0.44626655213E+02 -0.41155332999E+02 -0.69286313376E+02  0.92124334521E+02  0.10000000000E+01 0.  0.
<mgrwt>
<rscale>  0 0.12499892E+03</rscale>
<asrwt>0</asrwt>
<pdfrwt beam="1">  1        4 0.46064563E-02 0.12499892E+03</pdfrwt>
<pdfrwt beam="2">  1       -4 0.20070531E-01 0.12499892E+03</pdfrwt>
<totfact> 0.97268006E+03</totfact>
</mgrwt>
</event>
<event>
 5    1  0.3188180E-002  0.1249980E+03  0.7818608E-02  0.1235072E+00
         -4   -1    0    0    0  501 -0.00000000000E+00  0.00000000000E+00  0.25976098047E+03  0.25976408504E+03  0.12700000000E+01 0.  1.
          4   -1    0    0  501    0  0.00000000000E+00 -0.00000000000E+00 -0.15007355445E+02  0.15060996562E+02  0.12700000000E+01 0.  1.
         25    2    1    2    0    0  0.00000000000E+00  0.00000000000E+00  0.24475362503E+03  0.27482508160E+03  0.12499795403E+03 0.  0.
    9000005    1    3    3    0    0 -0.31072060871E+02  0.24103469401E+02  0.15597473086E+02  0.42317034048E+02  0.10000000000E+01 0.  0.
    9000005    1    3    3    0    0  0.31072060871E+02 -0.24103469401E+02  0.22915615194E+03  0.23250804755E+03  0.10000000000E+01 0.  0.
<mgrwt>
<rscale>  0 0.12499795E+03</rscale>
<asrwt>0</asrwt>
<pdfrwt beam="2">  1        4 0.23131889E-02 0.12499795E+03</pdfrwt>
<pdfrwt beam="1">  1       -4 0.39967594E-01 0.12499795E+03</pdfrwt>
<totfact> 0.78872889E+03</totfact>
</mgrwt>
</event>
<event>
 5    1  0.3188180E-002  0.1249650E+03  0.7818608E-02  0.1235124E+00
          4   -1    0    0  501    0  0.00000000000E+00  0.00000000000E+00  0.22882005565E+03  0.22882358001E+03  0.12700000000E+01 0. -1.
         -4   -1    0    0    0  501 -0.00000000000E+00 -0.00000000000E+00 -0.17034425833E+02  0.17081702593E+02  0.12700000000E+01 0. -1.
         25    2    1    2    0    0  0.00000000000E+00  0.00000000000E+00  0.21178562982E+03  0.24590528260E+03  0.12496501516E+03 0.  0.
    9000005    1    3    3    0    0 -0.28361798615E+02  0.46667386173E+02  0.46179871112E+02  0.71524940047E+02  0.10000000000E+01 0.  0.
    9000005    1    3    3    0    0  0.28361798615E+02 -0.46667386173E+02  0.16560575871E+03  0.17438034255E+03  0.10000000000E+01 0.  0.
<mgrwt>
<rscale>  0 0.12496502E+03</rscale>
<asrwt>0</asrwt>
<pdfrwt beam="1">  1        4 0.35206989E-01 0.12496502E+03</pdfrwt>
<pdfrwt beam="2">  1       -4 0.26245890E-02 0.12496502E+03</pdfrwt>
<totfact> 0.82990350E+03</totfact>
</mgrwt>
</event>
<event>
 5    1  0.3188180E-002  0.1249942E+03  0.7818608E-02  0.1235078E+00
          4   -1    0    0  501    0  0.00000000000E+00  0.00000000000E+00  0.54336507508E+02  0.54351347252E+02  0.12700000000E+01 0.  1.
         -4   -1    0    0    0  501 -0.00000000000E+00 -0.00000000000E+00 -0.71853022393E+02  0.71864245122E+02  0.12700000000E+01 0.  1.
         25    2    1    2    0    0  0.00000000000E+00  0.00000000000E+00 -0.17516514885E+02  0.12621559237E+03  0.12499418972E+03 0.  0.
    9000005    1    3    3    0    0  0.47033561675E+01 -0.96416633353E+01 -0.70921196312E+02  0.71734923973E+02  0.10000000000E+01 0.  0.
    9000005    1    3    3    0    0 -0.47033561675E+01  0.96416633353E+01  0.53404681427E+02  0.54480668401E+02  0.10000000000E+01 0.  0.
<mgrwt>
<rscale>  0 0.12499419E+03</rscale>
<asrwt>0</asrwt>
<pdfrwt beam="1">  1        4 0.83614675E-02 0.12499419E+03</pdfrwt>
<pdfrwt beam="2">  1       -4 0.11056316E-01 0.12499419E+03</pdfrwt>
<totfact> 0.10427605E+04</totfact>
</mgrwt>
</event>
<event>
 5    1  0.3188180E-002  0.1250020E+03  0.7818608E-02  0.1235066E+00
          4   -1    0    0  501    0  0.00000000000E+00  0.00000000000E+00  0.26297455238E+03  0.26297761901E+03  0.12700000000E+01 0. -1.
         -4   -1    0    0    0  501 -0.00000000000E+00 -0.00000000000E+00 -0.14824274223E+02  0.14878575411E+02  0.12700000000E+01 0. -1.
         25    2    1    2    0    0  0.00000000000E+00  0.00000000000E+00  0.24815027815E+03  0.27785619442E+03  0.12500201689E+03 0.  0.
    9000005    1    3    3    0    0  0.37217666883E+02 -0.44817580963E+02  0.17435230372E+03  0.18383007399E+03  0.10000000000E+01 0.  0.
    9000005    1    3    3    0    0 -0.37217666883E+02  0.44817580963E+02  0.73797974437E+02  0.94026120427E+02  0.10000000000E+01 0.  0.
<mgrwt>
<rscale>  0 0.12500202E+03</rscale>
<asrwt>0</asrwt>
<pdfrwt beam="1">  1        4 0.40462033E-01 0.12500202E+03</pdfrwt>
<pdfrwt beam="2">  1       -4 0.22850707E-02 0.12500202E+03</pdfrwt>
<totfact> 0.78459703E+03</totfact>
</mgrwt>
</event>
<event>
 5    1  0.3188180E-002  0.1250009E+03  0.7818608E-02  0.1235068E+00
          4   -1    0    0  501    0  0.00000000000E+00  0.00000000000E+00  0.51146276860E+03  0.51146434535E+03  0.12700000000E+01 0.  1.
         -4   -1    0    0    0  501 -0.00000000000E+00 -0.00000000000E+00 -0.75831194612E+01  0.76887320647E+01  0.12700000000E+01 0.  1.
         25    2    1    2    0    0  0.00000000000E+00  0.00000000000E+00  0.50387964914E+03  0.51915307741E+03  0.12500086789E+03 0.  0.
    9000005    1    3    3    0    0 -0.22685340362E+02 -0.32130801961E+01  0.10469589638E+02  0.25210332384E+02  0.10000000000E+01 0.  0.
    9000005    1    3    3    0    0  0.22685340362E+02  0.32130801961E+01  0.49341005950E+03  0.49394274503E+03  0.10000000000E+01 0.  0.
<mgrwt>
<rscale>  0 0.12500087E+03</rscale>
<asrwt>0</asrwt>
<pdfrwt beam="1">  1        4 0.78694836E-01 0.12500087E+03</pdfrwt>
<pdfrwt beam="2">  1       -4 0.11748789E-02 0.12500087E+03</pdfrwt>
<totfact> 0.54407310E+03</totfact>
</mgrwt>
</event>
<event>
 5    1  0.3188180E-002  0.1250007E+03  0.7818608E-02  0.1235068E+00
          4   -1    0    0  501    0  0.00000000000E+00  0.00000000000E+00  0.64068086827E+02  0.64080672980E+02  0.12700000000E+01 0. -1.
         -4   -1    0    0    0  501 -0.00000000000E+00 -0.00000000000E+00 -0.60945791234E+02  0.60959022049E+02  0.12700000000E+01 0. -1.
         25    2    1    2    0    0  0.00000000000E+00  0.00000000000E+00  0.31222955924E+01  0.12503969503E+03  0.12500070641E+03 0.  0.
    9000005    1    3    3    0    0  0.32699505753E+02 -0.73121493428E+01  0.54327662021E+02  0.63837450335E+02  0.10000000000E+01 0.  0.
    9000005    1    3    3    0    0 -0.32699505753E+02  0.73121493428E+01 -0.51205366429E+02  0.61202244695E+02  0.10000000000E+01 0.  0.
<mgrwt>
<rscale>  0 0.12500071E+03</rscale>
<asrwt>0</asrwt>
<pdfrwt beam="1">  1        4 0.98586147E-02 0.12500071E+03</pdfrwt>
<pdfrwt beam="2">  1       -4 0.93782615E-02 0.12500071E+03</pdfrwt>
<totfact> 0.10451834E+04</totfact>
</mgrwt>
</event>
<event>
 5    1  0.3188180E-002  0.1250023E+03  0.7818608E-02  0.1235066E+00
          4   -1    0    0  501    0  0.00000000000E+00  0.00000000000E+00  0.11370727536E+02  0.11441431060E+02  0.12700000000E+01 0.  1.
         -4   -1    0    0    0  501 -0.00000000000E+00 -0.00000000000E+00 -0.34241153239E+03  0.34241388759E+03  0.12700000000E+01 0.  1.
         25    2    1    2    0    0  0.00000000000E+00  0.00000000000E+00 -0.33104080485E+03  0.35385531865E+03  0.12500228821E+03 0.  0.
    9000005    1    3    3    0    0  0.44143678297E+01 -0.52692244366E+02 -0.71231962015E+02  0.88718384070E+02  0.10000000000E+01 0.  0.
    9000005    1    3    3    0    0 -0.44143678297E+01  0.52692244366E+02 -0.25980884284E+03  0.26513693458E+03  0.10000000000E+01 0.  0.
<mgrwt>
<rscale>  0 0.12500229E+03</rscale>
<asrwt>0</asrwt>
<pdfrwt beam="1">  1        4 0.17549629E-02 0.12500229E+03</pdfrwt>
<pdfrwt beam="2">  1       -4 0.52684309E-01 0.12500229E+03</pdfrwt>
<totfact> 0.69298991E+03</totfact>
</mgrwt>
</event>
<event>
 5    1  0.3188180E-002  0.1249749E+03  0.7818608E-02  0.1235109E+00
          4   -1    0    0  501    0  0.00000000000E+00  0.00000000000E+00  0.83878132192E+02  0.83887746185E+02  0.12700000000E+01 0. -1.
         -4   -1    0    0    0  501 -0.00000000000E+00 -0.00000000000E+00 -0.46530894211E+02  0.46548222480E+02  0.12700000000E+01 0. -1.
         25    2    1    2    0    0  0.00000000000E+00  0.00000000000E+00  0.37347237981E+02  0.13043596867E+03  0.12497490043E+03 0.  0.
    9000005    1    3    3    0    0 -0.50130503638E+02  0.23334519448E+02  0.49032731443E+02  0.73910594272E+02  0.10000000000E+01 0.  0.
    9000005    1    3    3    0    0  0.50130503638E+02 -0.23334519448E+02 -0.11685493462E+02  0.56525374393E+02  0.10000000000E+01 0.  0.
<mgrwt>
<rscale>  0 0.12497490E+03</rscale>
<asrwt>0</asrwt>
<pdfrwt beam="1">  1        4 0.12906401E-01 0.12497490E+03</pdfrwt>
<pdfrwt beam="2">  1       -4 0.71606715E-02 0.12497490E+03</pdfrwt>
<totfact> 0.10341047E+04</totfact>
</mgrwt>
</event>
<event>
 5    1  0.3188180E-002  0.1250002E+03  0.7818608E-02  0.1235069E+00
         -4   -1    0    0    0  501 -0.00000000000E+00  0.00000000000E+00  0.20980402781E+01  0.24524830292E+01  0.12700000000E+01 0.  1.
          4   -1    0    0  501    0  0.00000000000E+00 -0.00000000000E+00 -0.17164869823E+04  0.17164874521E+04  0.12700000000E+01 0.  1.
         25    2    1    2    0    0  0.00000000000E+00  0.00000000000E+00 -0.17143889420E+04  0.17189399351E+04  0.12500022457E+03 0.  0.
    9000005    1    3    3    0    0  0.32054385009E+02 -0.35821777528E+01 -0.12114278236E+03  0.12536701844E+03  0.10000000000E+01 0.  0.
    9000005    1    3    3    0    0 -0.32054385009E+02  0.35821777528E+01 -0.15932461596E+04  0.15935729167E+04  0.10000000000E+01 0.  0.
<mgrwt>
<rscale>  0 0.12500022E+03</rscale>
<asrwt>0</asrwt>
<pdfrwt beam="2">  1        4 0.26410119E+00 0.12500022E+03</pdfrwt>
<pdfrwt beam="1">  1       -4 0.35007777E-03 0.12500022E+03</pdfrwt>
<totfact> 0.13994385E+03</totfact>
</mgrwt>
</event>
<event>
 5    1  0.3188180E-002  0.1250000E+03  0.7818608E-02  0.1235069E+00
          4   -1    0    0  501    0  0.00000000000E+00  0.00000000000E+00  0.62313927716E+01  0.63594933662E+01  0.12700000000E+01 0. -1.
         -4   -1    0    0    0  501 -0.00000000000E+00 -0.00000000000E+00 -0.62035934977E+03  0.62036064974E+03  0.12700000000E+01 0. -1.
         25    2    1    2    0    0  0.00000000000E+00  0.00000000000E+00 -0.61412795700E+03  0.62672014311E+03  0.12499996084E+03 0.  0.
    9000005    1    3    3    0    0 -0.56761890979E+02  0.70977910773E+01 -0.18092457910E+03  0.18975509013E+03  0.10000000000E+01 0.  0.
    9000005    1    3    3    0    0  0.56761890979E+02 -0.70977910773E+01 -0.43320337790E+03  0.43696505299E+03  0.10000000000E+01 0.  0.
<mgrwt>
<rscale>  0 0.12499996E+03</rscale>
<asrwt>0</asrwt>
<pdfrwt beam="1">  1        4 0.96863019E-03 0.12499996E+03</pdfrwt>
<pdfrwt beam="2">  1       -4 0.95449806E-01 0.12499996E+03</pdfrwt>
<totfact> 0.47223317E+03</totfact>
</mgrwt>
</event>
<event>
 5    1  0.3188180E-002  0.1250007E+03  0.7818608E-02  0.1235068E+00
         -4   -1    0    0    0  501 -0.00000000000E+00  0.00000000000E+00  0.90867346539E+03  0.90867435290E+03  0.12700000000E+01 0.  1.
          4   -1    0    0  501    0  0.00000000000E+00 -0.00000000000E+00 -0.42041928947E+01  0.43918262597E+01  0.12700000000E+01 0.  1.
         25    2    1    2    0    0  0.00000000000E+00  0.00000000000E+00  0.90446927250E+03  0.91306617916E+03  0.12500073049E+03 0.  0.
    9000005    1    3    3    0    0 -0.52608926187E+02  0.14621061141E+02  0.23021895672E+03  0.23660778216E+03  0.10000000000E+01 0.  0.
    9000005    1    3    3    0    0  0.52608926187E+02 -0.14621061141E+02  0.67425031578E+03  0.67645839700E+03  0.10000000000E+01 0.  0.
<mgrwt>
<rscale>  0 0.12500073E+03</rscale>
<asrwt>0</asrwt>
<pdfrwt beam="2">  1        4 0.66130083E-03 0.12500073E+03</pdfrwt>
<pdfrwt beam="1">  1       -4 0.13981035E+00 0.12500073E+03</pdfrwt>
<totfact> 0.33663998E+03</totfact>
</mgrwt>
</event>
<event>
 5    1  0.3188180E-002  0.1249987E+03  0.7818608E-02  0.1235071E+00
         -4   -1    0    0    0  501 -0.00000000000E+00  0.00000000000E+00  0.39233059317E+02  0.39253609304E+02  0.12700000000E+01 0. -1.
          4   -1    0    0  501    0  0.00000000000E+00 -0.00000000000E+00 -0.99512528301E+02  0.99520631976E+02  0.12700000000E+01 0. -1.
         25    2    1    2    0    0  0.00000000000E+00  0.00000000000E+00 -0.60279468984E+02  0.13877424128E+03  0.12499870264E+03 0.  0.
    9000005    1    3    3    0    0  0.44949300270E+02  0.42286548977E+02 -0.41050128332E+02  0.74126276415E+02  0.10000000000E+01 0.  0.
    9000005    1    3    3    0    0 -0.44949300270E+02 -0.42286548977E+02 -0.19229340652E+02  0.64647964864E+02  0.10000000000E+01 0.  0.
<mgrwt>
<rscale>  0 0.12499870E+03</rscale>
<asrwt>0</asrwt>
<pdfrwt beam="2">  1        4 0.15311824E-01 0.12499870E+03</pdfrwt>
<pdfrwt beam="1">  1       -4 0.60380594E-02 0.12499870E+03</pdfrwt>
<totfact> 0.10159351E+04</totfact>
</mgrwt>
</event>
<event>
 5    1  0.3188180E-002  0.1249989E+03  0.7818608E-02  0.1235071E+00
         -4   -1    0    0    0  501 -0.00000000000E+00  0.00000000000E+00  0.21708802609E+02  0.21745919403E+02  0.12700000000E+01 0.  1.
          4   -1    0    0  501    0  0.00000000000E+00 -0.00000000000E+00 -0.17974240626E+03  0.17974689291E+03  0.12700000000E+01 0.  1.
         25    2    1    2    0    0  0.00000000000E+00  0.00000000000E+00 -0.15803360365E+03  0.20149281231E+03  0.12499893411E+03 0.  0.
    9000005    1    3    3    0    0 -0.33001555298E+02  0.22758489679E+02 -0.15629210583E+03  0.16135449746E+03  0.10000000000E+01 0.  0.
    9000005    1    3    3    0    0  0.33001555298E+02 -0.22758489679E+02 -0.17414978237E+01  0.40138314852E+02  0.10000000000E+01 0.  0.
<mgrwt>
<rscale>  0 0.12499893E+03</rscale>
<asrwt>0</asrwt>
<pdfrwt beam="2">  1        4 0.27655877E-01 0.12499893E+03</pdfrwt>
<pdfrwt beam="1">  1       -4 0.33430162E-02 0.12499893E+03</pdfrwt>
<totfact> 0.89886485E+03</totfact>
</mgrwt>
</event>
<event>
 5    1  0.3188180E-002  0.1250128E+03  0.7818608E-02  0.1235049E+00
          4   -1    0    0  501    0  0.00000000000E+00  0.00000000000E+00  0.32137387473E+02  0.32162471509E+02  0.12700000000E+01 0. -1.
         -4   -1    0    0    0  501 -0.00000000000E+00 -0.00000000000E+00 -0.12149761313E+03  0.12150425053E+03  0.12700000000E+01 0. -1.
         25    2    1    2    0    0  0.00000000000E+00  0.00000000000E+00 -0.89360225657E+02  0.15366672204E+03  0.12501284547E+03 0.  0.
    9000005    1    3    3    0    0  0.61096172403E+02 -0.22711303315E+01 -0.60619695202E+02  0.86102542132E+02  0.10000000000E+01 0.  0.
    9000005    1    3    3    0    0 -0.61096172403E+02  0.22711303315E+01 -0.28740530455E+02  0.67564179904E+02  0.10000000000E+01 0.  0.
<mgrwt>
<rscale>  0 0.12501285E+03</rscale>
<asrwt>0</asrwt>
<pdfrwt beam="1">  1        4 0.49466536E-02 0.12501285E+03</pdfrwt>
<pdfrwt beam="2">  1       -4 0.18694380E-01 0.12501285E+03</pdfrwt>
<totfact> 0.98549268E+03</totfact>
</mgrwt>
</event>
<event>
 5    1  0.3188180E-002  0.1250004E+03  0.7818608E-02  0.1235069E+00
          4   -1    0    0  501    0  0.00000000000E+00  0.00000000000E+00  0.14895168558E+03  0.14895709965E+03  0.12700000000E+01 0.  1.
         -4   -1    0    0    0  501 -0.00000000000E+00 -0.00000000000E+00 -0.26203859249E+02  0.26234617198E+02  0.12700000000E+01 0.  1.
         25    2    1    2    0    0  0.00000000000E+00  0.00000000000E+00  0.12274782633E+03  0.17519171685E+03  0.12500043514E+03 0.  0.
    9000005    1    3    3    0    0 -0.52845270708E+02 -0.26996968705E+02  0.33916169330E+02  0.68357629402E+02  0.10000000000E+01 0.  0.
    9000005    1    3    3    0    0  0.52845270708E+02  0.26996968705E+02  0.88831657001E+02  0.10683408745E+03  0.10000000000E+01 0.  0.
<mgrwt>
<rscale>  0 0.12500044E+03</rscale>
<asrwt>0</asrwt>
<pdfrwt beam="1">  1        4 0.22918426E-01 0.12500044E+03</pdfrwt>
<pdfrwt beam="2">  1       -4 0.40341455E-02 0.12500044E+03</pdfrwt>
<totfact> 0.94488817E+03</totfact>
</mgrwt>
</event>
<event>
 5    1  0.3188180E-002  0.1250055E+03  0.7818608E-02  0.1235061E+00
          4   -1    0    0  501    0  0.00000000000E+00  0.00000000000E+00  0.36039216909E+02  0.36061586979E+02  0.12700000000E+01 0. -1.
         -4   -1    0    0    0  501 -0.00000000000E+00 -0.00000000000E+00 -0.10833868176E+03  0.10834612529E+03  0.12700000000E+01 0. -1.
         25    2    1    2    0    0  0.00000000000E+00  0.00000000000E+00 -0.72299464850E+02  0.14440771227E+03  0.12500549886E+03 0.  0.
    9000005    1    3    3    0    0  0.41542747827E+02 -0.20528930019E+02 -0.84590919321E+02  0.96456521274E+02  0.10000000000E+01 0.  0.
    9000005    1    3    3    0    0 -0.41542747827E+02  0.20528930019E+02  0.12291454471E+02  0.47951190994E+02  0.10000000000E+01 0.  0.
<mgrwt>
<rscale>  0 0.12500550E+03</rscale>
<asrwt>0</asrwt>
<pdfrwt beam="1">  1        4 0.55467883E-02 0.12500550E+03</pdfrwt>
<pdfrwt beam="2">  1       -4 0.16669783E-01 0.12500550E+03</pdfrwt>
<totfact> 0.10041793E+04</totfact>
</mgrwt>
</event>
<event>
 5    1  0.3188180E-002  0.1249994E+03  0.7818608E-02  0.1235070E+00
         -4   -1    0    0    0  501 -0.00000000000E+00  0.00000000000E+00  0.39032262891E+02  0.39052918539E+02  0.12700000000E+01 0. -1.
          4   -1    0    0  501    0  0.00000000000E+00 -0.00000000000E+00 -0.10002536286E+03  0.10003342499E+03  0.12700000000E+01 0. -1.
         25    2    1    2    0    0  0.00000000000E+00  0.00000000000E+00 -0.60993099966E+02  0.13908634353E+03  0.12499941085E+03 0.  0.
    9000005    1    3    3    0    0 -0.38027032297E+02 -0.49421855666E+02 -0.25957871987E+02  0.67552839473E+02  0.10000000000E+01 0.  0.
    9000005    1    3    3    0    0  0.38027032297E+02  0.49421855666E+02 -0.35035227979E+02  0.71533504054E+02  0.10000000000E+01 0.  0.
<mgrwt>
<rscale>  0 0.12499941E+03</rscale>
<asrwt>0</asrwt>
<pdfrwt beam="2">  1        4 0.15390726E-01 0.12499941E+03</pdfrwt>
<pdfrwt beam="1">  1       -4 0.60071726E-02 0.12499941E+03</pdfrwt>
<totfact> 0.10152692E+04</totfact>
</mgrwt>
</event>
<event>
 5    1  0.3188180E-002  0.1249989E+03  0.7818608E-02  0.1235071E+00
          4   -1    0    0  501    0  0.00000000000E+00  0.00000000000E+00  0.19892572908E+03  0.19892978306E+03  0.12700000000E+01 0.  1.
         -4   -1    0    0    0  501 -0.00000000000E+00 -0.00000000000E+00 -0.19611579655E+02  0.19652657748E+02  0.12700000000E+01 0.  1.
         25    2    1    2    0    0  0.00000000000E+00  0.00000000000E+00  0.17931414942E+03  0.21858244081E+03  0.12499887698E+03 0.  0.
    9000005    1    3    3    0    0  0.59167366421E+02 -0.14376335213E+02  0.11424593265E+03  0.12946269498E+03  0.10000000000E+01 0.  0.
    9000005    1    3    3    0    0 -0.59167366421E+02  0.14376335213E+02  0.65068216769E+02  0.89119745830E+02  0.10000000000E+01 0.  0.
<mgrwt>
<rscale>  0 0.12499888E+03</rscale>
<asrwt>0</asrwt>
<pdfrwt beam="1">  1        4 0.30607428E-01 0.12499888E+03</pdfrwt>
<pdfrwt beam="2">  1       -4 0.30206380E-02 0.12499888E+03</pdfrwt>
<totfact> 0.87095344E+03</totfact>
</mgrwt>
</event>
<event>
 5    1  0.3188180E-002  0.1249933E+03  0.7818608E-02  0.1235080E+00
          4   -1    0    0  501    0  0.00000000000E+00  0.00000000000E+00  0.52265537090E+01  0.53786395745E+01  0.12700000000E+01 0. -1.
         -4   -1    0    0    0  501 -0.00000000000E+00 -0.00000000000E+00 -0.73643633648E+03  0.73643743155E+03  0.12700000000E+01 0. -1.
         25    2    1    2    0    0  0.00000000000E+00  0.00000000000E+00 -0.73120978277E+03  0.74181607113E+03  0.12499334766E+03 0.  0.
    9000005    1    3    3    0    0 -0.20835941438E+02  0.92967570141E+01 -0.20348507281E+02  0.30588035163E+02  0.10000000000E+01 0.  0.
    9000005    1    3    3    0    0  0.20835941438E+02 -0.92967570141E+01 -0.71086127549E+03  0.71122803596E+03  0.10000000000E+01 0.  0.
<mgrwt>
<rscale>  0 0.12499335E+03</rscale>
<asrwt>0</asrwt>
<pdfrwt beam="1">  1        4 0.81586892E-03 0.12499335E+03</pdfrwt>
<pdfrwt beam="2">  1       -4 0.11330960E+00 0.12499335E+03</pdfrwt>
<totfact> 0.40974650E+03</totfact>
</mgrwt>
</event>
<event>
 5    1  0.3188180E-002  0.1249953E+03  0.7818608E-02  0.1235077E+00
         -4   -1    0    0    0  501 -0.00000000000E+00  0.00000000000E+00  0.25882525333E+02  0.25913664689E+02  0.12700000000E+01 0.  1.
          4   -1    0    0  501    0  0.00000000000E+00 -0.00000000000E+00 -0.15078634506E+03  0.15079169326E+03  0.12700000000E+01 0.  1.
         25    2    1    2    0    0  0.00000000000E+00  0.00000000000E+00 -0.12490381973E+03  0.17670535795E+03  0.12499527729E+03 0.  0.
    9000005    1    3    3    0    0 -0.59508569744E+02 -0.17277057727E+02 -0.73865985365E+02  0.96420694826E+02  0.10000000000E+01 0.  0.
    9000005    1    3    3    0    0  0.59508569744E+02  0.17277057727E+02 -0.51037834362E+02  0.80284663125E+02  0.10000000000E+01 0.  0.
<mgrwt>
<rscale>  0 0.12499528E+03</rscale>
<asrwt>0</asrwt>
<pdfrwt beam="2">  1        4 0.23200705E-01 0.12499528E+03</pdfrwt>
<pdfrwt beam="1">  1       -4 0.39847338E-02 0.12499528E+03</pdfrwt>
<totfact> 0.94223414E+03</totfact>
</mgrwt>
</event>
<event>
 5    1  0.3188180E-002  0.1250006E+03  0.7818608E-02  0.1235068E+00
         -4   -1    0    0    0  501 -0.00000000000E+00  0.00000000000E+00  0.28080189835E+03  0.28080477028E+03  0.12700000000E+01 0. -1.
          4   -1    0    0  501    0  0.00000000000E+00 -0.00000000000E+00 -0.13879244894E+02  0.13937228520E+02  0.12700000000E+01 0. -1.
         25    2    1    2    0    0  0.00000000000E+00  0.00000000000E+00  0.26692265345E+03  0.29474199880E+03  0.12500057173E+03 0.  0.
    9000005    1    3    3    0    0 -0.81907509513E+01 -0.60654352760E+02  0.16321670078E+03  0.17431790018E+03  0.10000000000E+01 0.  0.
    9000005    1    3    3    0    0  0.81907509513E+01  0.60654352760E+02  0.10370595267E+03  0.12042409862E+03  0.10000000000E+01 0.  0.
<mgrwt>
<rscale>  0 0.12500057E+03</rscale>
<asrwt>0</asrwt>
<pdfrwt beam="2">  1        4 0.21399499E-02 0.12500057E+03</pdfrwt>
<pdfrwt beam="1">  1       -4 0.43204967E-01 0.12500057E+03</pdfrwt>
<totfact> 0.76262197E+03</totfact>
</mgrwt>
</event>
<event>
 5    1  0.3188180E-002  0.1249983E+03  0.7818608E-02  0.1235072E+00
          4   -1    0    0  501    0  0.00000000000E+00  0.00000000000E+00  0.67343673621E+03  0.67343793372E+03  0.12700000000E+01 0. -1.
         -4   -1    0    0    0  501 -0.00000000000E+00 -0.00000000000E+00 -0.57295805263E+01  0.58686449039E+01  0.12700000000E+01 0. -1.
         25    2    1    2    0    0  0.00000000000E+00  0.00000000000E+00  0.66770715568E+03  0.67930657863E+03  0.12499832805E+03 0.  0.
    9000005    1    3    3    0    0 -0.40892715786E+02  0.38367152884E+02  0.18394607276E+03  0.19230551294E+03  0.10000000000E+01 0.  0.
    9000005    1    3    3    0    0  0.40892715786E+02 -0.38367152884E+02  0.48376108293E+03  0.48700106569E+03  0.10000000000E+01 0.  0.
<mgrwt>
<rscale>  0 0.12499833E+03</rscale>
<asrwt>0</asrwt>
<pdfrwt beam="1">  1        4 0.10361645E+00 0.12499833E+03</pdfrwt>
<pdfrwt beam="2">  1       -4 0.89226322E-03 0.12499833E+03</pdfrwt>
<totfact> 0.44203433E+03</totfact>
</mgrwt>
</event>
<event>
 5    1  0.3188180E-002  0.1250022E+03  0.7818608E-02  0.1235066E+00
          4   -1    0    0  501    0  0.00000000000E+00  0.00000000000E+00  0.70873719418E+02  0.70885097194E+02  0.12700000000E+01 0. -1.
         -4   -1    0    0    0  501 -0.00000000000E+00 -0.00000000000E+00 -0.55094473414E+02  0.55109109054E+02  0.12700000000E+01 0. -1.
         25    2    1    2    0    0  0.00000000000E+00  0.00000000000E+00  0.15779246004E+02  0.12599420625E+03  0.12500222159E+03 0.  0.
    9000005    1    3    3    0    0  0.33996816659E+02 -0.98385441200E+01  0.59803777094E+02  0.69498721198E+02  0.10000000000E+01 0.  0.
    9000005    1    3    3    0    0 -0.33996816659E+02  0.98385441200E+01 -0.44024531090E+02  0.56495485050E+02  0.10000000000E+01 0.  0.
<mgrwt>
<rscale>  0 0.12500222E+03</rscale>
<asrwt>0</asrwt>
<pdfrwt beam="1">  1        4 0.10905650E-01 0.12500222E+03</pdfrwt>
<pdfrwt beam="2">  1       -4 0.84780738E-02 0.12500222E+03</pdfrwt>
<totfact> 0.10430561E+04</totfact>
</mgrwt>
</event>
<event>
 5    1  0.3188180E-002  0.1249986E+03  0.7818608E-02  0.1235072E+00
         -4   -1    0    0    0  501 -0.00000000000E+00  0.00000000000E+00  0.33064716116E+02  0.33089097174E+02  0.12700000000E+01 0. -1.
          4   -1    0    0  501    0  0.00000000000E+00 -0.00000000000E+00 -0.11806550218E+03  0.11807233251E+03  0.12700000000E+01 0. -1.
         25    2    1    2    0    0  0.00000000000E+00  0.00000000000E+00 -0.85000786063E+02  0.15116142969E+03  0.12499857677E+03 0.  0.
    9000005    1    3    3    0    0 -0.24410968460E+02  0.40664587876E+02  0.67059513998E+01  0.47911103854E+02  0.10000000000E+01 0.  0.
    9000005    1    3    3    0    0  0.24410968460E+02 -0.40664587876E+02 -0.91706737463E+02  0.10325032583E+03  0.10000000000E+01 0.  0.
<mgrwt>
<rscale>  0 0.12499858E+03</rscale>
<asrwt>0</asrwt>
<pdfrwt beam="2">  1        4 0.18166324E-01 0.12499858E+03</pdfrwt>
<pdfrwt beam="1">  1       -4 0.50892803E-02 0.12499858E+03</pdfrwt>
<totfact> 0.99075860E+03</totfact>
</mgrwt>
</event>
<event>
 5    1  0.3188180E-002  0.1250141E+03  0.7818608E-02  0.1235047E+00
         -4   -1    0    0    0  501 -0.00000000000E+00  0.00000000000E+00  0.10453533208E+03  0.10454304641E+03  0.12700000000E+01 0.  1.
          4   -1    0    0  501    0  0.00000000000E+00 -0.00000000000E+00 -0.37356294647E+02  0.37377876474E+02  0.12700000000E+01 0.  1.
         25    2    1    2    0    0  0.00000000000E+00  0.00000000000E+00  0.67179037434E+02  0.14192092289E+03  0.12501410033E+03 0.  0.
    9000005    1    3    3    0    0  0.58450022835E+02 -0.17495612380E+02  0.48973150904E+02  0.78242387051E+02  0.10000000000E+01 0.  0.
    9000005    1    3    3    0    0 -0.58450022835E+02  0.17495612380E+02  0.18205886530E+02  0.63678535836E+02  0.10000000000E+01 0.  0.
<mgrwt>
<rscale>  0 0.12501410E+03</rscale>
<asrwt>0</asrwt>
<pdfrwt beam="2">  1        4 0.57493758E-02 0.12501410E+03</pdfrwt>
<pdfrwt beam="1">  1       -4 0.16084612E-01 0.12501410E+03</pdfrwt>
<totfact> 0.10090722E+04</totfact>
</mgrwt>
</event>
<event>
 5    1  0.3188180E-002  0.1250013E+03  0.7818608E-02  0.1235067E+00
         -4   -1    0    0    0  501 -0.00000000000E+00  0.00000000000E+00  0.16444044361E+02  0.16493013519E+02  0.12700000000E+01 0. -1.
          4   -1    0    0  501    0  0.00000000000E+00 -0.00000000000E+00 -0.23714897792E+03  0.23715237850E+03  0.12700000000E+01 0. -1.
         25    2    1    2    0    0  0.00000000000E+00  0.00000000000E+00 -0.22070493356E+03  0.25364539202E+03  0.12500126878E+03 0.  0.
    9000005    1    3    3    0    0  0.47539927494E+02 -0.22293056560E+02 -0.41591648468E+02  0.66991718139E+02  0.10000000000E+01 0.  0.
    9000005    1    3    3    0    0 -0.47539927494E+02  0.22293056560E+02 -0.17911328509E+03  0.18665367388E+03  0.10000000000E+01 0.  0.
<mgrwt>
<rscale>  0 0.12500127E+03</rscale>
<asrwt>0</asrwt>
<pdfrwt beam="2">  1        4 0.36488484E-01 0.12500127E+03</pdfrwt>
<pdfrwt beam="1">  1       -4 0.25338816E-02 0.12500127E+03</pdfrwt>
<totfact> 0.81803883E+03</totfact>
</mgrwt>
</event>
<event>
 5    1  0.3188180E-002  0.1250029E+03  0.7818608E-02  0.1235065E+00
          4   -1    0    0  501    0  0.00000000000E+00  0.00000000000E+00  0.17051737150E+03  0.17052210086E+03  0.12700000000E+01 0.  1.
         -4   -1    0    0    0  501 -0.00000000000E+00 -0.00000000000E+00 -0.22886642896E+02  0.22921852522E+02  0.12700000000E+01 0.  1.
         25    2    1    2    0    0  0.00000000000E+00  0.00000000000E+00  0.14763072860E+03  0.19344395338E+03  0.12500292426E+03 0.  0.
    9000005    1    3    3    0    0  0.60024991983E+02 -0.14678346134E+02  0.88247906692E+02  0.10773646803E+03  0.10000000000E+01 0.  0.
    9000005    1    3    3    0    0 -0.60024991983E+02  0.14678346134E+02  0.59382821910E+02  0.85707485355E+02  0.10000000000E+01 0.  0.
<mgrwt>
<rscale>  0 0.12500292E+03</rscale>
<asrwt>0</asrwt>
<pdfrwt beam="1">  1        4 0.26236515E-01 0.12500292E+03</pdfrwt>
<pdfrwt beam="2">  1       -4 0.35240941E-02 0.12500292E+03</pdfrwt>
<totfact> 0.91245531E+03</totfact>
</mgrwt>
</event>
<event>
 4    1  0.3188180E-002  0.1251091E+03  0.7818608E-02  0.1234899E+00
         -4   -1    0    0    0  501 -0.00000000000E+00  0.00000000000E+00  0.21338657109E+03  0.21339035035E+03  0.12700000000E+01 0. -1.
          4   -1    0    0  501    0  0.00000000000E+00 -0.00000000000E+00 -0.18312003142E+02  0.18355989733E+02  0.12700000000E+01 0. -1.
    9000005    1    1    2    0    0 -0.36287182014E+02 -0.44001253422E+02  0.14509627753E+03  0.15590638100E+03  0.10000000000E+01 0.  0.
    9000005    1    1    2    0    0  0.36287182014E+02  0.44001253422E+02  0.49978290412E+02  0.75839959083E+02  0.10000000000E+01 0.  0.
<mgrwt>
<rscale>  0 0.12510907E+03</rscale>
<asrwt>0</asrwt>
<pdfrwt beam="2">  1        4 0.28209056E-02 0.12510907E+03</pdfrwt>
<pdfrwt beam="1">  1       -4 0.32832377E-01 0.12510907E+03</pdfrwt>
<totfact> 0.84835574E+03</totfact>
</mgrwt>
</event>
<event>
 5    1  0.3188180E-002  0.1249622E+03  0.7818608E-02  0.1235128E+00
          4   -1    0    0  501    0  0.00000000000E+00  0.00000000000E+00  0.72353712466E+02  0.72364857546E+02  0.12700000000E+01 0. -1.
         -4   -1    0    0    0  501 -0.00000000000E+00 -0.00000000000E+00 -0.53932825291E+02  0.53947776079E+02  0.12700000000E+01 0. -1.
         25    2    1    2    0    0  0.00000000000E+00  0.00000000000E+00  0.18420887175E+02  0.12631263363E+03  0.12496220360E+03 0.  0.
    9000005    1    3    3    0    0 -0.11936540001E+02 -0.59861998084E+01 -0.52478357783E+02  0.54159889318E+02  0.10000000000E+01 0.  0.
    9000005    1    3    3    0    0  0.11936540001E+02  0.59861998084E+01  0.70899244959E+02  0.72152744307E+02  0.10000000000E+01 0.  0.
<mgrwt>
<rscale>  0 0.12496220E+03</rscale>
<asrwt>0</asrwt>
<pdfrwt beam="1">  1        4 0.11133348E-01 0.12496220E+03</pdfrwt>
<pdfrwt beam="2">  1       -4 0.82993651E-02 0.12496220E+03</pdfrwt>
<totfact> 0.10433015E+04</totfact>
</mgrwt>
</event>
<event>
 5    1  0.3188180E-002  0.1250015E+03  0.7818608E-02  0.1235067E+00
          4   -1    0    0  501    0  0.00000000000E+00  0.00000000000E+00  0.64689618269E+02  0.64702083520E+02  0.12700000000E+01 0. -1.
         -4   -1    0    0    0  501 -0.00000000000E+00 -0.00000000000E+00 -0.60360994417E+02  0.60374353387E+02  0.12700000000E+01 0. -1.
         25    2    1    2    0    0  0.00000000000E+00  0.00000000000E+00  0.43286238526E+01  0.12507643691E+03  0.12500151233E+03 0.  0.
    9000005    1    3    3    0    0 -0.11420079718E+02  0.31818563038E+02 -0.50426732670E+02  0.60718156612E+02  0.10000000000E+01 0.  0.
    9000005    1    3    3    0    0  0.11420079718E+02 -0.31818563038E+02  0.54755356523E+02  0.64358280295E+02  0.10000000000E+01 0.  0.
<mgrwt>
<rscale>  0 0.12500151E+03</rscale>
<asrwt>0</asrwt>
<pdfrwt beam="1">  1        4 0.99542354E-02 0.12500151E+03</pdfrwt>
<pdfrwt beam="2">  1       -4 0.92882933E-02 0.12500151E+03</pdfrwt>
<totfact> 0.10450845E+04</totfact>
</mgrwt>
</event>
<event>
 5    1  0.3188180E-002  0.1249920E+03  0.7818608E-02  0.1235082E+00
         -4   -1    0    0    0  501 -0.00000000000E+00  0.00000000000E+00  0.35828179975E+02  0.35850681728E+02  0.12700000000E+01 0.  1.
          4   -1    0    0  501    0  0.00000000000E+00 -0.00000000000E+00 -0.10895284712E+03  0.10896024870E+03  0.12700000000E+01 0.  1.
         25    2    1    2    0    0  0.00000000000E+00  0.00000000000E+00 -0.73124667147E+02  0.14481093042E+03  0.12499195424E+03 0.  0.
    9000005    1    3    3    0    0  0.55852207819E+02  0.48676709555E+01 -0.68534947192E+02  0.88550563665E+02  0.10000000000E+01 0.  0.
    9000005    1    3    3    0    0 -0.55852207819E+02 -0.48676709555E+01 -0.45897199556E+01  0.56260366760E+02  0.10000000000E+01 0.  0.
<mgrwt>
<rscale>  0 0.12499195E+03</rscale>
<asrwt>0</asrwt>
<pdfrwt beam="2">  1        4 0.16764277E-01 0.12499195E+03</pdfrwt>
<pdfrwt beam="1">  1       -4 0.55143280E-02 0.12499195E+03</pdfrwt>
<totfact> 0.10036650E+04</totfact>
</mgrwt>
</event>
<event>
 5    1  0.3188180E-002  0.1250002E+03  0.7818608E-02  0.1235069E+00
          4   -1    0    0  501    0  0.00000000000E+00  0.00000000000E+00  0.22571018415E+02  0.22606719627E+02  0.12700000000E+01 0.  1.
         -4   -1    0    0    0  501 -0.00000000000E+00 -0.00000000000E+00 -0.17289061586E+03  0.17289528031E+03  0.12700000000E+01 0.  1.
         25    2    1    2    0    0  0.00000000000E+00  0.00000000000E+00 -0.15031959745E+03  0.19550199994E+03  0.12500020241E+03 0.  0.
    9000005    1    3    3    0    0 -0.54942509031E+02 -0.28346099889E+02 -0.60903923383E+02  0.86789795258E+02  0.10000000000E+01 0.  0.
    9000005    1    3    3    0    0  0.54942509031E+02  0.28346099889E+02 -0.89415674066E+02  0.10871220468E+03  0.10000000000E+01 0.  0.
<mgrwt>
<rscale>  0 0.12500020E+03</rscale>
<asrwt>0</asrwt>
<pdfrwt beam="1">  1        4 0.34755695E-02 0.12500020E+03</pdfrwt>
<pdfrwt beam="2">  1       -4 0.26601660E-01 0.12500020E+03</pdfrwt>
<totfact> 0.90898288E+03</totfact>
</mgrwt>
</event>
<event>
 5    1  0.3188180E-002  0.1249998E+03  0.7818608E-02  0.1235070E+00
          4   -1    0    0  501    0  0.00000000000E+00  0.00000000000E+00  0.46449348629E+02  0.46466707308E+02  0.12700000000E+01 0. -1.
         -4   -1    0    0    0  501 -0.00000000000E+00 -0.00000000000E+00 -0.84058797080E+02  0.84068390412E+02  0.12700000000E+01 0. -1.
         25    2    1    2    0    0  0.00000000000E+00  0.00000000000E+00 -0.37609448451E+02  0.13053509772E+03  0.12499976450E+03 0.  0.
    9000005    1    3    3    0    0 -0.57384303842E+02  0.14738412207E+02 -0.39560908725E+02  0.71247769235E+02  0.10000000000E+01 0.  0.
    9000005    1    3    3    0    0  0.57384303842E+02 -0.14738412207E+02  0.19514602738E+01  0.59287328486E+02  0.10000000000E+01 0.  0.
<mgrwt>
<rscale>  0 0.12499976E+03</rscale>
<asrwt>0</asrwt>
<pdfrwt beam="1">  1        4 0.71481269E-02 0.12499976E+03</pdfrwt>
<pdfrwt beam="2">  1       -4 0.12934196E-01 0.12499976E+03</pdfrwt>
<totfact> 0.10333121E+04</totfact>
</mgrwt>
</event>
<event>
 5    1  0.3188180E-002  0.1250017E+03  0.7818608E-02  0.1235067E+00
          4   -1    0    0  501    0  0.00000000000E+00  0.00000000000E+00  0.16046992980E+03  0.16047495528E+03  0.12700000000E+01 0. -1.
         -4   -1    0    0    0  501 -0.00000000000E+00 -0.00000000000E+00 -0.24321272124E+02  0.24354407768E+02  0.12700000000E+01 0. -1.
         25    2    1    2    0    0  0.00000000000E+00  0.00000000000E+00  0.13614865768E+03  0.18482936304E+03  0.12500174581E+03 0.  0.
    9000005    1    3    3    0    0  0.47739895721E+02 -0.17691591496E+02  0.12165791114E+03  0.13188531911E+03  0.10000000000E+01 0.  0.
    9000005    1    3    3    0    0 -0.47739895721E+02  0.17691591496E+02  0.14490746540E+02  0.52944043937E+02  0.10000000000E+01 0.  0.
<mgrwt>
<rscale>  0 0.12500175E+03</rscale>
<asrwt>0</asrwt>
<pdfrwt beam="1">  1        4 0.24690617E-01 0.12500175E+03</pdfrwt>
<pdfrwt beam="2">  1       -4 0.37446696E-02 0.12500175E+03</pdfrwt>
<totfact> 0.92751225E+03</totfact>
</mgrwt>
</event>
<event>
 5    1  0.3188180E-002  0.1250039E+03  0.7818608E-02  0.1235063E+00
         -4   -1    0    0    0  501 -0.00000000000E+00  0.00000000000E+00  0.16724180582E+03  0.16724662781E+03  0.12700000000E+01 0. -1.
          4   -1    0    0  501    0  0.00000000000E+00 -0.00000000000E+00 -0.23335917973E+02  0.23370450737E+02  0.12700000000E+01 0. -1.
         25    2    1    2    0    0  0.00000000000E+00  0.00000000000E+00  0.14390588785E+03  0.19061707855E+03  0.12500386425E+03 0.  0.
    9000005    1    3    3    0    0 -0.35704369734E+02  0.22785589550E+02  0.18825478014E+01  0.42409068552E+02  0.10000000000E+01 0.  0.
    9000005    1    3    3    0    0  0.35704369734E+02 -0.22785589550E+02  0.14202334005E+03  0.14820801000E+03  0.10000000000E+01 0.  0.
<mgrwt>
<rscale>  0 0.12500386E+03</rscale>
<asrwt>0</asrwt>
<pdfrwt beam="2">  1        4 0.35931685E-02 0.12500386E+03</pdfrwt>
<pdfrwt beam="1">  1       -4 0.25732536E-01 0.12500386E+03</pdfrwt>
<totfact> 0.91732115E+03</totfact>
</mgrwt>
</event>
<event>
 5    1  0.3188180E-002  0.1249993E+03  0.7818608E-02  0.1235070E+00
         -4   -1    0    0    0  501 -0.00000000000E+00  0.00000000000E+00  0.71868155198E+01  0.72981653390E+01  0.12700000000E+01 0.  1.
          4   -1    0    0  501    0  0.00000000000E+00 -0.00000000000E+00 -0.53923387426E+03  0.53923536980E+03  0.12700000000E+01 0.  1.
         25    2    1    2    0    0  0.00000000000E+00  0.00000000000E+00 -0.53204705874E+03  0.54653353514E+03  0.12499932929E+03 0.  0.
    9000005    1    3    3    0    0 -0.21698727670E+02 -0.31818804901E+02 -0.50849154782E+02  0.63795827997E+02  0.10000000000E+01 0.  0.
    9000005    1    3    3    0    0  0.21698727670E+02  0.31818804901E+02 -0.48119790396E+03  0.48273770715E+03  0.10000000000E+01 0.  0.
<mgrwt>
<rscale>  0 0.12499933E+03</rscale>
<asrwt>0</asrwt>
<pdfrwt beam="2">  1        4 0.82967706E-01 0.12499933E+03</pdfrwt>
<pdfrwt beam="1">  1       -4 0.11143448E-02 0.12499933E+03</pdfrwt>
<totfact> 0.52427236E+03</totfact>
</mgrwt>
</event>
<event>
 5    1  0.3188180E-002  0.1249997E+03  0.7818608E-02  0.1235070E+00
         -4   -1    0    0    0  501 -0.00000000000E+00  0.00000000000E+00  0.17834414008E+03  0.17834866190E+03  0.12700000000E+01 0.  1.
          4   -1    0    0  501    0  0.00000000000E+00 -0.00000000000E+00 -0.21879569172E+02  0.21916396765E+02  0.12700000000E+01 0.  1.
         25    2    1    2    0    0  0.00000000000E+00  0.00000000000E+00  0.15646457091E+03  0.20026505867E+03  0.12499972709E+03 0.  0.
    9000005    1    3    3    0    0 -0.44273005409E+02  0.43510486914E+02  0.89782195226E+02  0.10915632853E+03  0.10000000000E+01 0.  0.
    9000005    1    3    3    0    0  0.44273005409E+02 -0.43510486914E+02  0.66682375687E+02  0.91108730134E+02  0.10000000000E+01 0.  0.
<mgrwt>
<rscale>  0 0.12499973E+03</rscale>
<asrwt>0</asrwt>
<pdfrwt beam="2">  1        4 0.33692683E-02 0.12499973E+03</pdfrwt>
<pdfrwt beam="1">  1       -4 0.27440741E-01 0.12499973E+03</pdfrwt>
<totfact> 0.90091371E+03</totfact>
</mgrwt>
</event>
<event>
 5    1  0.3188180E-002  0.1250010E+03  0.7818608E-02  0.1235068E+00
          4   -1    0    0  501    0  0.00000000000E+00  0.00000000000E+00  0.15844302828E+03  0.15844811804E+03  0.12700000000E+01 0. -1.
         -4   -1    0    0    0  501 -0.00000000000E+00 -0.00000000000E+00 -0.24632509366E+02  0.24665226892E+02  0.12700000000E+01 0. -1.
         25    2    1    2    0    0  0.00000000000E+00  0.00000000000E+00  0.13381051891E+03  0.18311334493E+03  0.12500096848E+03 0.  0.
    9000005    1    3    3    0    0 -0.43328919604E+02 -0.44938786118E+02  0.62654346443E+02  0.88450307518E+02  0.10000000000E+01 0.  0.
    9000005    1    3    3    0    0  0.43328919604E+02  0.44938786118E+02  0.71156172467E+02  0.94663037411E+02  0.10000000000E+01 0.  0.
<mgrwt>
<rscale>  0 0.12500097E+03</rscale>
<asrwt>0</asrwt>
<pdfrwt beam="1">  1        4 0.24378759E-01 0.12500097E+03</pdfrwt>
<pdfrwt beam="2">  1       -4 0.37925250E-02 0.12500097E+03</pdfrwt>
<totfact> 0.93057553E+03</totfact>
</mgrwt>
</event>
<event>
 5    1  0.3188180E-002  0.1250029E+03  0.7818608E-02  0.1235065E+00
         -4   -1    0    0    0  501 -0.00000000000E+00  0.00000000000E+00  0.49954159446E+01  0.51543263827E+01  0.12700000000E+01 0.  1.
          4   -1    0    0  501    0  0.00000000000E+00 -0.00000000000E+00 -0.76960026542E+03  0.76960131330E+03  0.12700000000E+01 0.  1.
         25    2    1    2    0    0  0.00000000000E+00  0.00000000000E+00 -0.76460484948E+03  0.77475563968E+03  0.12500290149E+03 0.  0.
    9000005    1    3    3    0    0 -0.44604277231E+02  0.19876854964E+02 -0.62400471554E+03  0.62591334538E+03  0.10000000000E+01 0.  0.
    9000005    1    3    3    0    0  0.44604277231E+02 -0.19876854964E+02 -0.14060013394E+03  0.14884229430E+03  0.10000000000E+01 0.  0.
<mgrwt>
<rscale>  0 0.12500290E+03</rscale>
<asrwt>0</asrwt>
<pdfrwt beam="2">  1        4 0.11841225E+00 0.12500290E+03</pdfrwt>
<pdfrwt beam="1">  1       -4 0.78083063E-03 0.12500290E+03</pdfrwt>
<totfact> 0.39414352E+03</totfact>
</mgrwt>
</event>
<event>
 5    1  0.3188180E-002  0.1250010E+03  0.7818608E-02  0.1235068E+00
          4   -1    0    0  501    0  0.00000000000E+00  0.00000000000E+00  0.36693434338E+02  0.36715405806E+02  0.12700000000E+01 0.  1.
         -4   -1    0    0    0  501 -0.00000000000E+00 -0.00000000000E+00 -0.10640043227E+03  0.10640801139E+03  0.12700000000E+01 0.  1.
         25    2    1    2    0    0  0.00000000000E+00  0.00000000000E+00 -0.69706997936E+02  0.14312341720E+03  0.12500098795E+03 0.  0.
    9000005    1    3    3    0    0 -0.31054634564E+02  0.28058684957E+02  0.18281779460E+02  0.45682639915E+02  0.10000000000E+01 0.  0.
    9000005    1    3    3    0    0  0.31054634564E+02 -0.28058684957E+02 -0.87988777396E+02  0.97440777281E+02  0.10000000000E+01 0.  0.
<mgrwt>
<rscale>  0 0.12500099E+03</rscale>
<asrwt>0</asrwt>
<pdfrwt beam="1">  1        4 0.56474169E-02 0.12500099E+03</pdfrwt>
<pdfrwt beam="2">  1       -4 0.16371570E-01 0.12500099E+03</pdfrwt>
<totfact> 0.10069033E+04</totfact>
</mgrwt>
</event>
<event>
 5    1  0.3188180E-002  0.1249965E+03  0.7818608E-02  0.1235075E+00
          4   -1    0    0  501    0  0.00000000000E+00  0.00000000000E+00  0.79359065755E+02  0.79369227145E+02  0.12700000000E+01 0. -1.
         -4   -1    0    0    0  501 -0.00000000000E+00 -0.00000000000E+00 -0.49198231021E+02  0.49214620141E+02  0.12700000000E+01 0. -1.
         25    2    1    2    0    0  0.00000000000E+00  0.00000000000E+00  0.30160834734E+02  0.12858384729E+03  0.12499651928E+03 0.  0.
    9000005    1    3    3    0    0  0.14905998837E+02 -0.42070808267E+01 -0.47197491988E+02  0.49683916717E+02  0.10000000000E+01 0.  0.
    9000005    1    3    3    0    0 -0.14905998837E+02  0.42070808267E+01  0.77358326722E+02  0.78899930568E+02  0.10000000000E+01 0.  0.
<mgrwt>
<rscale>  0 0.12499652E+03</rscale>
<asrwt>0</asrwt>
<pdfrwt beam="1">  1        4 0.12211129E-01 0.12499652E+03</pdfrwt>
<pdfrwt beam="2">  1       -4 0.75710011E-02 0.12499652E+03</pdfrwt>
<totfact> 0.10375713E+04</totfact>
</mgrwt>
</event>
<event>
 5    1  0.3188180E-002  0.1249954E+03  0.7818608E-02  0.1235076E+00
         -4   -1    0    0    0  501 -0.00000000000E+00  0.00000000000E+00  0.27073477746E+03  0.27073775619E+03  0.12700000000E+01 0. -1.
          4   -1    0    0  501    0  0.00000000000E+00 -0.00000000000E+00 -0.14396261508E+02  0.14452170958E+02  0.12700000000E+01 0. -1.
         25    2    1    2    0    0  0.00000000000E+00  0.00000000000E+00  0.25633851595E+03  0.28518992715E+03  0.12499543906E+03 0.  0.
    9000005    1    3    3    0    0  0.41438448527E+02  0.45759265476E+02  0.15027957161E+03  0.16246847397E+03  0.10000000000E+01 0.  0.
    9000005    1    3    3    0    0 -0.41438448527E+02 -0.45759265476E+02  0.10605894435E+03  0.12272145317E+03  0.10000000000E+01 0.  0.
<mgrwt>
<rscale>  0 0.12499544E+03</rscale>
<asrwt>0</asrwt>
<pdfrwt beam="2">  1        4 0.22193394E-02 0.12499544E+03</pdfrwt>
<pdfrwt beam="1">  1       -4 0.41656033E-01 0.12499544E+03</pdfrwt>
<totfact> 0.77502807E+03</totfact>
</mgrwt>
</event>
<event>
 5    1  0.3188180E-002  0.1249972E+03  0.7818608E-02  0.1235074E+00
          4   -1    0    0  501    0  0.00000000000E+00  0.00000000000E+00  0.29023625845E+02  0.29051398541E+02  0.12700000000E+01 0.  1.
         -4   -1    0    0    0  501 -0.00000000000E+00 -0.00000000000E+00 -0.13448750152E+03  0.13449349785E+03  0.12700000000E+01 0.  1.
         25    2    1    2    0    0  0.00000000000E+00  0.00000000000E+00 -0.10546387567E+03  0.16354489639E+03  0.12499721622E+03 0.  0.
    9000005    1    3    3    0    0  0.47268754736E+02 -0.35644388822E+02 -0.26557029245E+02  0.64893246421E+02  0.10000000000E+01 0.  0.
    9000005    1    3    3    0    0 -0.47268754736E+02  0.35644388822E+02 -0.78906846426E+02  0.98651649970E+02  0.10000000000E+01 0.  0.
<mgrwt>
<rscale>  0 0.12499722E+03</rscale>
<asrwt>0</asrwt>
<pdfrwt beam="1">  1        4 0.44677709E-02 0.12499722E+03</pdfrwt>
<pdfrwt beam="2">  1       -4 0.20692982E-01 0.12499722E+03</pdfrwt>
<totfact> 0.96669724E+03</totfact>
</mgrwt>
</event>
<event>
 5    1  0.3188180E-002  0.1250028E+03  0.7818608E-02  0.1235065E+00
         -4   -1    0    0    0  501 -0.00000000000E+00  0.00000000000E+00  0.52826248025E+02  0.52841511905E+02  0.12700000000E+01 0.  1.
          4   -1    0    0  501    0  0.00000000000E+00 -0.00000000000E+00 -0.73917215896E+02  0.73928125269E+02  0.12700000000E+01 0.  1.
         25    2    1    2    0    0  0.00000000000E+00  0.00000000000E+00 -0.21090967871E+02  0.12676963717E+03  0.12500284790E+03 0.  0.
    9000005    1    3    3    0    0 -0.13925186276E+02  0.25824400105E+01  0.51182280431E+02  0.53115022728E+02  0.10000000000E+01 0.  0.
    9000005    1    3    3    0    0  0.13925186276E+02 -0.25824400105E+01 -0.72273248302E+02  0.73654614447E+02  0.10000000000E+01 0.  0.
<mgrwt>
<rscale>  0 0.12500285E+03</rscale>
<asrwt>0</asrwt>
<pdfrwt beam="2">  1        4 0.11373893E-01 0.12500285E+03</pdfrwt>
<pdfrwt beam="1">  1       -4 0.81291284E-02 0.12500285E+03</pdfrwt>
<totfact> 0.10413485E+04</totfact>
</mgrwt>
</event>
<event>
 5    1  0.3188180E-002  0.1249979E+03  0.7818608E-02  0.1235073E+00
         -4   -1    0    0    0  501 -0.00000000000E+00  0.00000000000E+00  0.50642355970E+03  0.50642515214E+03  0.12700000000E+01 0.  1.
          4   -1    0    0  501    0  0.00000000000E+00 -0.00000000000E+00 -0.76592526332E+01  0.77638296542E+01  0.12700000000E+01 0.  1.
         25    2    1    2    0    0  0.00000000000E+00  0.00000000000E+00  0.49876430707E+03  0.51418898180E+03  0.12499789996E+03 0.  0.
    9000005    1    3    3    0    0 -0.33772830261E+02 -0.18442336929E+02  0.45192724826E+03  0.45356362462E+03  0.10000000000E+01 0.  0.
    9000005    1    3    3    0    0  0.33772830261E+02  0.18442336929E+02  0.46837058809E+02  0.60625357179E+02  0.10000000000E+01 0.  0.
<mgrwt>
<rscale>  0 0.12499790E+03</rscale>
<asrwt>0</asrwt>
<pdfrwt beam="2">  1        4 0.11865132E-02 0.12499790E+03</pdfrwt>
<pdfrwt beam="1">  1       -4 0.77919497E-01 0.12499790E+03</pdfrwt>
<totfact> 0.54782561E+03</totfact>
</mgrwt>
</event>
<event>
 5    1  0.3188180E-002  0.1249748E+03  0.7818608E-02  0.1235109E+00
          4   -1    0    0  501    0  0.00000000000E+00  0.00000000000E+00  0.33085410332E+02  0.33109776152E+02  0.12700000000E+01 0. -1.
         -4   -1    0    0    0  501 -0.00000000000E+00 -0.00000000000E+00 -0.11794682375E+03  0.11795366096E+03  0.12700000000E+01 0. -1.
         25    2    1    2    0    0  0.00000000000E+00  0.00000000000E+00 -0.84861413421E+02  0.15106343711E+03  0.12497480764E+03 0.  0.
    9000005    1    3    3    0    0  0.56732646725E+02  0.17915331364E+02 -0.65496114649E+02  0.88488944712E+02  0.10000000000E+01 0.  0.
    9000005    1    3    3    0    0 -0.56732646725E+02 -0.17915331364E+02 -0.19365298773E+02  0.62574492398E+02  0.10000000000E+01 0.  0.
<mgrwt>
<rscale>  0 0.12497481E+03</rscale>
<asrwt>0</asrwt>
<pdfrwt beam="1">  1        4 0.50924635E-02 0.12497481E+03</pdfrwt>
<pdfrwt beam="2">  1       -4 0.18148065E-01 0.12497481E+03</pdfrwt>
<totfact> 0.99148336E+03</totfact>
</mgrwt>
</event>
<event>
 5    1  0.3188180E-002  0.1250005E+03  0.7818608E-02  0.1235068E+00
         -4   -1    0    0    0  501 -0.00000000000E+00  0.00000000000E+00  0.59485807538E+02  0.59499363009E+02  0.12700000000E+01 0.  1.
          4   -1    0    0  501    0  0.00000000000E+00 -0.00000000000E+00 -0.65640296516E+02  0.65652581264E+02  0.12700000000E+01 0.  1.
         25    2    1    2    0    0  0.00000000000E+00  0.00000000000E+00 -0.61544889773E+01  0.12515194427E+03  0.12500052568E+03 0.  0.
    9000005    1    3    3    0    0 -0.22298651783E+02  0.15432816368E+01 -0.61506065625E+02  0.65449275766E+02  0.10000000000E+01 0.  0.
    9000005    1    3    3    0    0  0.22298651783E+02 -0.15432816368E+01  0.55351576648E+02  0.59702668508E+02  0.10000000000E+01 0.  0.
<mgrwt>
<rscale>  0 0.12500053E+03</rscale>
<asrwt>0</asrwt>
<pdfrwt beam="2">  1        4 0.10100495E-01 0.12500053E+03</pdfrwt>
<pdfrwt beam="1">  1       -4 0.91536504E-02 0.12500053E+03</pdfrwt>
<totfact> 0.10449439E+04</totfact>
</mgrwt>
</event>
<event>
 5    1  0.3188180E-002  0.1249923E+03  0.7818608E-02  0.1235081E+00
         -4   -1    0    0    0  501 -0.00000000000E+00  0.00000000000E+00  0.34379788790E+01  0.36650509918E+01  0.12700000000E+01 0.  1.
          4   -1    0    0  501    0  0.00000000000E+00 -0.00000000000E+00 -0.10995194593E+04  0.10995201927E+04  0.12700000000E+01 0.  1.
         25    2    1    2    0    0  0.00000000000E+00  0.00000000000E+00 -0.10960814804E+04  0.11031852437E+04  0.12499228097E+03 0.  0.
    9000005    1    3    3    0    0 -0.50427550660E+02 -0.11152943924E+01 -0.22248285245E+03  0.22813110568E+03  0.10000000000E+01 0.  0.
    9000005    1    3    3    0    0  0.50427550660E+02  0.11152943924E+01 -0.87359862794E+03  0.87505413804E+03  0.10000000000E+01 0.  0.
<mgrwt>
<rscale>  0 0.12499228E+03</rscale>
<asrwt>0</asrwt>
<pdfrwt beam="2">  1        4 0.16917409E+00 0.12499228E+03</pdfrwt>
<pdfrwt beam="1">  1       -4 0.54644421E-03 0.12499228E+03</pdfrwt>
<totfact> 0.27395017E+03</totfact>
</mgrwt>
</event>
<event>
 5    1  0.3188180E-002  0.1250085E+03  0.7818608E-02  0.1235056E+00
         -4   -1    0    0    0  501 -0.00000000000E+00  0.00000000000E+00  0.56199560057E+02  0.56213907982E+02  0.12700000000E+01 0. -1.
          4   -1    0    0  501    0  0.00000000000E+00 -0.00000000000E+00 -0.69487199771E+02  0.69498804536E+02  0.12700000000E+01 0. -1.
         25    2    1    2    0    0  0.00000000000E+00  0.00000000000E+00 -0.13287639713E+02  0.12571271252E+03  0.12500849859E+03 0.  0.
    9000005    1    3    3    0    0  0.40913951918E+02 -0.46123413457E+02 -0.16921985279E+02  0.63942742483E+02  0.10000000000E+01 0.  0.
    9000005    1    3    3    0    0 -0.40913951918E+02  0.46123413457E+02  0.36343455655E+01  0.61769970035E+02  0.10000000000E+01 0.  0.
<mgrwt>
<rscale>  0 0.12500850E+03</rscale>
<asrwt>0</asrwt>
<pdfrwt beam="2">  1        4 0.10692335E-01 0.12500850E+03</pdfrwt>
<pdfrwt beam="1">  1       -4 0.86480825E-02 0.12500850E+03</pdfrwt>
<totfact> 0.10435264E+04</totfact>
</mgrwt>
</event>
<event>
 5    1  0.3188180E-002  0.1250003E+03  0.7818608E-02  0.1235069E+00
         -4   -1    0    0    0  501 -0.00000000000E+00  0.00000000000E+00  0.15526762564E+03  0.15527281949E+03  0.12700000000E+01 0.  1.
          4   -1    0    0  501    0  0.00000000000E+00 -0.00000000000E+00 -0.25136661359E+02  0.25168723533E+02  0.12700000000E+01 0.  1.
         25    2    1    2    0    0  0.00000000000E+00  0.00000000000E+00  0.13013096428E+03  0.18044154302E+03  0.12500033033E+03 0.  0.
    9000005    1    3    3    0    0  0.35701921833E+02 -0.39359028595E+02  0.11253782873E+03  0.12445691323E+03  0.10000000000E+01 0.  0.
    9000005    1    3    3    0    0 -0.35701921833E+02  0.39359028595E+02  0.17593135547E+02  0.55984629791E+02  0.10000000000E+01 0.  0.
<mgrwt>
<rscale>  0 0.12500033E+03</rscale>
<asrwt>0</asrwt>
<pdfrwt beam="2">  1        4 0.38700445E-02 0.12500033E+03</pdfrwt>
<pdfrwt beam="1">  1       -4 0.23890193E-01 0.12500033E+03</pdfrwt>
<totfact> 0.93536891E+03</totfact>
</mgrwt>
</event>
<event>
 5    1  0.3188180E-002  0.1249996E+03  0.7818608E-02  0.1235070E+00
          4   -1    0    0  501    0  0.00000000000E+00  0.00000000000E+00  0.55431759033E+02  0.55446305643E+02  0.12700000000E+01 0. -1.
         -4   -1    0    0    0  501 -0.00000000000E+00 -0.00000000000E+00 -0.70439593206E+02  0.70451041093E+02  0.12700000000E+01 0. -1.
         25    2    1    2    0    0  0.00000000000E+00  0.00000000000E+00 -0.15007834173E+02  0.12589734674E+03  0.12499962731E+03 0.  0.
    9000005    1    3    3    0    0 -0.29541329728E+01  0.61685184843E+02 -0.17134901670E+02  0.64096753318E+02  0.10000000000E+01 0.  0.
    9000005    1    3    3    0    0  0.29541329728E+01 -0.61685184843E+02  0.21270674965E+01  0.61800593418E+02  0.10000000000E+01 0.  0.
<mgrwt>
<rscale>  0 0.12499963E+03</rscale>
<asrwt>0</asrwt>
<pdfrwt beam="1">  1        4 0.85299625E-02 0.12499963E+03</pdfrwt>
<pdfrwt beam="2">  1       -4 0.10838860E-01 0.12499963E+03</pdfrwt>
<totfact> 0.10433296E+04</totfact>
</mgrwt>
</event>
<event>
 5    1  0.3188180E-002  0.1249970E+03  0.7818608E-02  0.1235074E+00
         -4   -1    0    0    0  501 -0.00000000000E+00  0.00000000000E+00  0.17275109419E+03  0.17275576241E+03  0.12700000000E+01 0.  1.
          4   -1    0    0  501    0  0.00000000000E+00 -0.00000000000E+00 -0.22588115136E+02  0.22623789369E+02  0.12700000000E+01 0.  1.
         25    2    1    2    0    0  0.00000000000E+00  0.00000000000E+00  0.15016297905E+03  0.19537955177E+03  0.12499699586E+03 0.  0.
    9000005    1    3    3    0    0 -0.60872567073E+02  0.12802726011E+02  0.65744424505E+02  0.90513582234E+02  0.10000000000E+01 0.  0.
    9000005    1    3    3    0    0  0.60872567073E+02 -0.12802726011E+02  0.84418554550E+02  0.10486596954E+03  0.10000000000E+01 0.  0.
<mgrwt>
<rscale>  0 0.12499700E+03</rscale>
<asrwt>0</asrwt>
<pdfrwt beam="2">  1        4 0.34781980E-02 0.12499700E+03</pdfrwt>
<pdfrwt beam="1">  1       -4 0.26580194E-01 0.12499700E+03</pdfrwt>
<totfact> 0.90925740E+03</totfact>
</mgrwt>
</event>
<event>
 5    1  0.3188180E-002  0.1249977E+03  0.7818608E-02  0.1235073E+00
          4   -1    0    0  501    0  0.00000000000E+00  0.00000000000E+00  0.13001239151E+03  0.13001859424E+03  0.12700000000E+01 0.  1.
         -4   -1    0    0    0  501 -0.00000000000E+00 -0.00000000000E+00 -0.30023776972E+02  0.30050625345E+02  0.12700000000E+01 0.  1.
         25    2    1    2    0    0  0.00000000000E+00  0.00000000000E+00  0.99988614543E+02  0.16006921958E+03  0.12499772806E+03 0.  0.
    9000005    1    3    3    0    0  0.28083153109E+01  0.47845913992E+02 -0.13565105104E+01  0.47957879867E+02  0.10000000000E+01 0.  0.
    9000005    1    3    3    0    0 -0.28083153109E+01 -0.47845913992E+02  0.10134512505E+03  0.11211133972E+03  0.10000000000E+01 0.  0.
<mgrwt>
<rscale>  0 0.12499773E+03</rscale>
<asrwt>0</asrwt>
<pdfrwt beam="1">  1        4 0.20004449E-01 0.12499773E+03</pdfrwt>
<pdfrwt beam="2">  1       -4 0.46215850E-02 0.12499773E+03</pdfrwt>
<totfact> 0.97334412E+03</totfact>
</mgrwt>
</event>
<event>
 5    1  0.3188180E-002  0.1250562E+03  0.7818608E-02  0.1234981E+00
          4   -1    0    0  501    0  0.00000000000E+00  0.00000000000E+00  0.77506160345E+02  0.77516564626E+02  0.12700000000E+01 0. -1.
         -4   -1    0    0    0  501 -0.00000000000E+00 -0.00000000000E+00 -0.50422798312E+02  0.50438789534E+02  0.12700000000E+01 0. -1.
         25    2    1    2    0    0  0.00000000000E+00  0.00000000000E+00  0.27083362033E+02  0.12795535416E+03  0.12505624398E+03 0.  0.
    9000005    1    3    3    0    0  0.61049490656E+02  0.19045227408E+01 -0.11305291542E+00  0.61087480691E+02  0.10000000000E+01 0.  0.
    9000005    1    3    3    0    0 -0.61049490656E+02 -0.19045227408E+01  0.27196414948E+02  0.66867873469E+02  0.10000000000E+01 0.  0.
<mgrwt>
<rscale>  0 0.12505624E+03</rscale>
<asrwt>0</asrwt>
<pdfrwt beam="1">  1        4 0.11926055E-01 0.12505624E+03</pdfrwt>
<pdfrwt beam="2">  1       -4 0.77593841E-02 0.12505624E+03</pdfrwt>
<totfact> 0.10375273E+04</totfact>
</mgrwt>
</event>
<event>
 5    1  0.3188180E-002  0.1249986E+03  0.7818608E-02  0.1235072E+00
         -4   -1    0    0    0  501 -0.00000000000E+00  0.00000000000E+00  0.23673389297E+03  0.23673729951E+03  0.12700000000E+01 0.  1.
          4   -1    0    0  501    0  0.00000000000E+00 -0.00000000000E+00 -0.16472251257E+02  0.16521136809E+02  0.12700000000E+01 0.  1.
         25    2    1    2    0    0  0.00000000000E+00  0.00000000000E+00  0.22026164171E+03  0.25325843632E+03  0.12499857902E+03 0.  0.
    9000005    1    3    3    0    0  0.44498257065E+02 -0.31191222271E+02  0.17265053670E+03  0.18100330121E+03  0.10000000000E+01 0.  0.
    9000005    1    3    3    0    0 -0.44498257065E+02  0.31191222271E+02  0.47611105013E+02  0.72255135106E+02  0.10000000000E+01 0.  0.
<mgrwt>
<rscale>  0 0.12499858E+03</rscale>
<asrwt>0</asrwt>
<pdfrwt beam="2">  1        4 0.25382151E-02 0.12499858E+03</pdfrwt>
<pdfrwt beam="1">  1       -4 0.36424620E-01 0.12499858E+03</pdfrwt>
<totfact> 0.81864143E+03</totfact>
</mgrwt>
</event>
<event>
 5    1  0.3188180E-002  0.1250009E+03  0.7818608E-02  0.1235068E+00
         -4   -1    0    0    0  501 -0.00000000000E+00  0.00000000000E+00  0.48121553833E+02  0.48138309518E+02  0.12700000000E+01 0. -1.
          4   -1    0    0  501    0  0.00000000000E+00 -0.00000000000E+00 -0.81140005706E+02  0.81149944091E+02  0.12700000000E+01 0. -1.
         25    2    1    2    0    0  0.00000000000E+00  0.00000000000E+00 -0.33018451873E+02  0.12928825361E+03  0.12500093742E+03 0.  0.
    9000005    1    3    3    0    0  0.30679867943E+02 -0.52473557201E+02 -0.15001329018E+01  0.60811009702E+02  0.10000000000E+01 0.  0.
    9000005    1    3    3    0    0 -0.30679867943E+02  0.52473557201E+02 -0.31518318971E+02  0.68477243907E+02  0.10000000000E+01 0.  0.
<mgrwt>
<rscale>  0 0.12500094E+03</rscale>
<asrwt>0</asrwt>
<pdfrwt beam="2">  1        4 0.12485131E-01 0.12500094E+03</pdfrwt>
<pdfrwt beam="1">  1       -4 0.74053694E-02 0.12500094E+03</pdfrwt>
<totfact> 0.10359538E+04</totfact>
</mgrwt>
</event>
<event>
 5    1  0.3188180E-002  0.1250024E+03  0.7818608E-02  0.1235065E+00
         -4   -1    0    0    0  501 -0.00000000000E+00  0.00000000000E+00  0.43242471407E+03  0.43242657901E+03  0.12700000000E+01 0. -1.
          4   -1    0    0  501    0  0.00000000000E+00 -0.00000000000E+00 -0.89871867793E+01  0.90764765304E+01  0.12700000000E+01 0. -1.
         25    2    1    2    0    0  0.00000000000E+00  0.00000000000E+00  0.42343752729E+03  0.44150305554E+03  0.12500243413E+03 0.  0.
    9000005    1    3    3    0    0  0.42287070158E+01  0.37785858543E+02  0.38688913302E+03  0.38875423383E+03  0.10000000000E+01 0.  0.
    9000005    1    3    3    0    0 -0.42287070158E+01 -0.37785858543E+02  0.36548394266E+02  0.52748821714E+02  0.10000000000E+01 0.  0.
<mgrwt>
<rscale>  0 0.12500243E+03</rscale>
<asrwt>0</asrwt>
<pdfrwt beam="2">  1        4 0.13896565E-02 0.12500243E+03</pdfrwt>
<pdfrwt beam="1">  1       -4 0.66533870E-01 0.12500243E+03</pdfrwt>
<totfact> 0.60703725E+03</totfact>
</mgrwt>
</event>
<event>
 5    1  0.3188180E-002  0.1249965E+03  0.7818608E-02  0.1235075E+00
          4   -1    0    0  501    0  0.00000000000E+00  0.00000000000E+00  0.13983318122E+02  0.14040871971E+02  0.12700000000E+01 0. -1.
         -4   -1    0    0    0  501 -0.00000000000E+00 -0.00000000000E+00 -0.27870251359E+03  0.27870540717E+03  0.12700000000E+01 0. -1.
         25    2    1    2    0    0  0.00000000000E+00  0.00000000000E+00 -0.26471919547E+03  0.29274627914E+03  0.12499652594E+03 0.  0.
    9000005    1    3    3    0    0 -0.13373166957E+02 -0.13025869438E+02 -0.27203050266E+03  0.27267216441E+03  0.10000000000E+01 0.  0.
    9000005    1    3    3    0    0  0.13373166957E+02  0.13025869438E+02  0.73113071881E+01  0.20074114722E+02  0.10000000000E+01 0.  0.
<mgrwt>
<rscale>  0 0.12499653E+03</rscale>
<asrwt>0</asrwt>
<pdfrwt beam="1">  1        4 0.21559297E-02 0.12499653E+03</pdfrwt>
<pdfrwt beam="2">  1       -4 0.42881955E-01 0.12499653E+03</pdfrwt>
<totfact> 0.76523741E+03</totfact>
</mgrwt>
</event>
<event>
 5    1  0.3188180E-002  0.1250027E+03  0.7818608E-02  0.1235065E+00
         -4   -1    0    0    0  501 -0.00000000000E+00  0.00000000000E+00  0.10844922918E+02  0.10919031693E+02  0.12700000000E+01 0. -1.
          4   -1    0    0  501    0  0.00000000000E+00 -0.00000000000E+00 -0.35890557783E+03  0.35890782480E+03  0.12700000000E+01 0. -1.
         25    2    1    2    0    0  0.00000000000E+00  0.00000000000E+00 -0.34806065491E+03  0.36982685649E+03  0.12500273709E+03 0.  0.
    9000005    1    3    3    0    0 -0.14120363285E+02  0.58665467286E+02 -0.22213742136E+03  0.23018917368E+03  0.10000000000E+01 0.  0.
    9000005    1    3    3    0    0  0.14120363285E+02 -0.58665467286E+02 -0.12592323355E+03  0.13963768281E+03  0.10000000000E+01 0.  0.
<mgrwt>
<rscale>  0 0.12500274E+03</rscale>
<asrwt>0</asrwt>
<pdfrwt beam="2">  1        4 0.55222107E-01 0.12500274E+03</pdfrwt>
<pdfrwt beam="1">  1       -4 0.16743235E-02 0.12500274E+03</pdfrwt>
<totfact> 0.67592969E+03</totfact>
</mgrwt>
</event>
<event>
 5    1  0.3188180E-002  0.1249976E+03  0.7818608E-02  0.1235073E+00
          4   -1    0    0  501    0  0.00000000000E+00  0.00000000000E+00  0.46044896878E+02  0.46062407976E+02  0.12700000000E+01 0.  1.
         -4   -1    0    0    0  501 -0.00000000000E+00 -0.00000000000E+00 -0.84794059014E+02  0.84803569171E+02  0.12700000000E+01 0.  1.
         25    2    1    2    0    0  0.00000000000E+00  0.00000000000E+00 -0.38749162136E+02  0.13086597715E+03  0.12499762561E+03 0.  0.
    9000005    1    3    3    0    0 -0.31637920574E+02 -0.39303970063E+02  0.19225594514E+02  0.54003551414E+02  0.10000000000E+01 0.  0.
    9000005    1    3    3    0    0  0.31637920574E+02  0.39303970063E+02 -0.57974756650E+02  0.76862425733E+02  0.10000000000E+01 0.  0.
<mgrwt>
<rscale>  0 0.12499763E+03</rscale>
<asrwt>0</asrwt>
<pdfrwt beam="1">  1        4 0.70859089E-02 0.12499763E+03</pdfrwt>
<pdfrwt beam="2">  1       -4 0.13047318E-01 0.12499763E+03</pdfrwt>
<totfact> 0.10326516E+04</totfact>
</mgrwt>
</event>
<event>
 5    1  0.3188180E-002  0.1249978E+03  0.7818608E-02  0.1235073E+00
         -4   -1    0    0    0  501 -0.00000000000E+00  0.00000000000E+00  0.15305420846E+02  0.15358020942E+02  0.12700000000E+01 0.  1.
          4   -1    0    0  501    0  0.00000000000E+00 -0.00000000000E+00 -0.25471893715E+03  0.25472210317E+03  0.12700000000E+01 0.  1.
         25    2    1    2    0    0  0.00000000000E+00  0.00000000000E+00 -0.23941351631E+03  0.27008012411E+03  0.12499776658E+03 0.  0.
    9000005    1    3    3    0    0 -0.49933744546E+02 -0.18704519358E+02 -0.49298019684E+02  0.72625977677E+02  0.10000000000E+01 0.  0.
    9000005    1    3    3    0    0  0.49933744546E+02  0.18704519358E+02 -0.19011549662E+03  0.19745414644E+03  0.10000000000E+01 0.  0.
<mgrwt>
<rscale>  0 0.12499777E+03</rscale>
<asrwt>0</asrwt>
<pdfrwt beam="2">  1        4 0.39191815E-01 0.12499777E+03</pdfrwt>
<pdfrwt beam="1">  1       -4 0.23589700E-02 0.12499777E+03</pdfrwt>
<totfact> 0.79515896E+03</totfact>
</mgrwt>
</event>
<event>
 5    1  0.3188180E-002  0.1250065E+03  0.7818608E-02  0.1235059E+00
         -4   -1    0    0    0  501 -0.00000000000E+00  0.00000000000E+00  0.21018396211E+03  0.21018779895E+03  0.12700000000E+01 0.  1.
          4   -1    0    0  501    0  0.00000000000E+00 -0.00000000000E+00 -0.18561130582E+02  0.18604528171E+02  0.12700000000E+01 0.  1.
         25    2    1    2    0    0  0.00000000000E+00  0.00000000000E+00  0.19162283152E+03  0.22879232712E+03  0.12500647738E+03 0.  0.
    9000005    1    3    3    0    0  0.21275936397E+02 -0.28415571648E+02  0.16730862181E+01  0.35551503473E+02  0.10000000000E+01 0.  0.
    9000005    1    3    3    0    0 -0.21275936397E+02  0.28415571648E+02  0.18994974531E+03  0.19324082365E+03  0.10000000000E+01 0.  0.
<mgrwt>
<rscale>  0 0.12500648E+03</rscale>
<asrwt>0</asrwt>
<pdfrwt beam="2">  1        4 0.28591919E-02 0.12500648E+03</pdfrwt>
<pdfrwt beam="1">  1       -4 0.32339628E-01 0.12500648E+03</pdfrwt>
<totfact> 0.85483025E+03</totfact>
</mgrwt>
</event>
<event>
 5    1  0.3188180E-002  0.1249911E+03  0.7818608E-02  0.1235083E+00
          4   -1    0    0  501    0  0.00000000000E+00  0.00000000000E+00  0.99099472033E+03  0.99099553410E+03  0.12700000000E+01 0.  1.
         -4   -1    0    0    0  501 -0.00000000000E+00 -0.00000000000E+00 -0.38380400574E+01  0.40427034868E+01  0.12700000000E+01 0.  1.
         25    2    1    2    0    0  0.00000000000E+00  0.00000000000E+00  0.98715668027E+03  0.99503823759E+03  0.12499113116E+03 0.  0.
    9000005    1    3    3    0    0  0.38468250078E+02  0.18256366473E+02  0.85766043485E+03  0.85871737067E+03  0.10000000000E+01 0.  0.
    9000005    1    3    3    0    0 -0.38468250078E+02 -0.18256366473E+02  0.12949624542E+03  0.13632086692E+03  0.10000000000E+01 0.  0.
<mgrwt>
<rscale>  0 0.12499113E+03</rscale>
<asrwt>0</asrwt>
<pdfrwt beam="1">  1        4 0.15247647E+00 0.12499113E+03</pdfrwt>
<pdfrwt beam="2">  1       -4 0.60627388E-03 0.12499113E+03</pdfrwt>
<totfact> 0.30774843E+03</totfact>
</mgrwt>
</event>
<event>
 5    1  0.3188180E-002  0.1250001E+03  0.7818608E-02  0.1235069E+00
          4   -1    0    0  501    0  0.00000000000E+00  0.00000000000E+00  0.14346266149E+02  0.14402369681E+02  0.12700000000E+01 0.  1.
         -4   -1    0    0    0  501 -0.00000000000E+00 -0.00000000000E+00 -0.27169504912E+03  0.27169801732E+03  0.12700000000E+01 0.  1.
         25    2    1    2    0    0  0.00000000000E+00  0.00000000000E+00 -0.25734878297E+03  0.28610038700E+03  0.12500014138E+03 0.  0.
    9000005    1    3    3    0    0 -0.37815683803E+02  0.41092168208E+02 -0.64479081738E+02  0.85306179209E+02  0.10000000000E+01 0.  0.
    9000005    1    3    3    0    0  0.37815683803E+02 -0.41092168208E+02 -0.19286970123E+03  0.20079420779E+03  0.10000000000E+01 0.  0.
<mgrwt>
<rscale>  0 0.12500014E+03</rscale>
<asrwt>0</asrwt>
<pdfrwt beam="1">  1        4 0.22116620E-02 0.12500014E+03</pdfrwt>
<pdfrwt beam="2">  1       -4 0.41803779E-01 0.12500014E+03</pdfrwt>
<totfact> 0.77375888E+03</totfact>
</mgrwt>
</event>
<event>
 5    1  0.3188180E-002  0.1250186E+03  0.7818608E-02  0.1235040E+00
          4   -1    0    0  501    0  0.00000000000E+00  0.00000000000E+00  0.99554705083E+02  0.99562805325E+02  0.12700000000E+01 0.  1.
         -4   -1    0    0    0  501 -0.00000000000E+00 -0.00000000000E+00 -0.39228946639E+02  0.39249498780E+02  0.12700000000E+01 0.  1.
         25    2    1    2    0    0  0.00000000000E+00  0.00000000000E+00  0.60325758444E+02  0.13881230410E+03  0.12501863317E+03 0.  0.
    9000005    1    3    3    0    0  0.10871093343E+02 -0.16876602769E+02  0.95883092439E+02  0.97967177193E+02  0.10000000000E+01 0.  0.
    9000005    1    3    3    0    0 -0.10871093343E+02  0.16876602769E+02 -0.35557333996E+02  0.40845126911E+02  0.10000000000E+01 0.  0.
<mgrwt>
<rscale>  0 0.12501863E+03</rscale>
<asrwt>0</asrwt>
<pdfrwt beam="1">  1        4 0.15318312E-01 0.12501863E+03</pdfrwt>
<pdfrwt beam="2">  1       -4 0.60374267E-02 0.12501863E+03</pdfrwt>
<totfact> 0.10153997E+04</totfact>
</mgrwt>
</event>
<event>
 5    1  0.3188180E-002  0.1250009E+03  0.7818608E-02  0.1235068E+00
          4   -1    0    0  501    0  0.00000000000E+00  0.00000000000E+00  0.74963001973E+01  0.76031188764E+01  0.12700000000E+01 0.  1.
         -4   -1    0    0    0  501 -0.00000000000E+00 -0.00000000000E+00 -0.51730414160E+03  0.51730570054E+03  0.12700000000E+01 0.  1.
         25    2    1    2    0    0  0.00000000000E+00  0.00000000000E+00 -0.50980784140E+03  0.52490881942E+03  0.12500093420E+03 0.  0.
    9000005    1    3    3    0    0 -0.22234802388E+02  0.14922461698E+01 -0.50007243343E+03  0.50056972732E+03  0.10000000000E+01 0.  0.
    9000005    1    3    3    0    0  0.22234802388E+02 -0.14922461698E+01 -0.97354079751E+01  0.24339092101E+02  0.10000000000E+01 0.  0.
<mgrwt>
<rscale>  0 0.12500093E+03</rscale>
<asrwt>0</asrwt>
<pdfrwt beam="1">  1        4 0.11616141E-02 0.12500093E+03</pdfrwt>
<pdfrwt beam="2">  1       -4 0.79593561E-01 0.12500093E+03</pdfrwt>
<totfact> 0.53981152E+03</totfact>
</mgrwt>
</event>
<event>
 5    1  0.3188180E-002  0.1250231E+03  0.7818608E-02  0.1235033E+00
          4   -1    0    0  501    0  0.00000000000E+00  0.00000000000E+00  0.25182625229E+02  0.25214628957E+02  0.12700000000E+01 0.  1.
         -4   -1    0    0    0  501 -0.00000000000E+00 -0.00000000000E+00 -0.15504104706E+03  0.15504624850E+03  0.12700000000E+01 0.  1.
         25    2    1    2    0    0  0.00000000000E+00  0.00000000000E+00 -0.12985842183E+03  0.18026087745E+03  0.12502309475E+03 0.  0.
    9000005    1    3    3    0    0  0.50080747286E+02 -0.37097040574E+02 -0.71756484653E+02  0.95048749375E+02  0.10000000000E+01 0.  0.
    9000005    1    3    3    0    0 -0.50080747286E+02  0.37097040574E+02 -0.58101937178E+02  0.85212128080E+02  0.10000000000E+01 0.  0.
<mgrwt>
<rscale>  0 0.12502309E+03</rscale>
<asrwt>0</asrwt>
<pdfrwt beam="1">  1        4 0.38771120E-02 0.12502309E+03</pdfrwt>
<pdfrwt beam="2">  1       -4 0.23855330E-01 0.12502309E+03</pdfrwt>
<totfact> 0.93521630E+03</totfact>
</mgrwt>
</event>
<event>
 5    1  0.3188180E-002  0.1250012E+03  0.7818608E-02  0.1235067E+00
          4   -1    0    0  501    0  0.00000000000E+00  0.00000000000E+00  0.12548995762E+02  0.12613096156E+02  0.12700000000E+01 0. -1.
         -4   -1    0    0    0  501 -0.00000000000E+00 -0.00000000000E+00 -0.31042738669E+03  0.31042998455E+03  0.12700000000E+01 0. -1.
         25    2    1    2    0    0  0.00000000000E+00  0.00000000000E+00 -0.29787839093E+03  0.32304308071E+03  0.12500118483E+03 0.  0.
    9000005    1    3    3    0    0 -0.61647115616E+02  0.41953043760E+01 -0.12478490974E+03  0.13924884611E+03  0.10000000000E+01 0.  0.
    9000005    1    3    3    0    0  0.61647115616E+02 -0.41953043760E+01 -0.17309348119E+03  0.18379423460E+03  0.10000000000E+01 0.  0.
<mgrwt>
<rscale>  0 0.12500118E+03</rscale>
<asrwt>0</asrwt>
<pdfrwt beam="1">  1        4 0.19357456E-02 0.12500118E+03</pdfrwt>
<pdfrwt beam="2">  1       -4 0.47763184E-01 0.12500118E+03</pdfrwt>
<totfact> 0.72793738E+03</totfact>
</mgrwt>
</event>
<event>
 5    1  0.3188180E-002  0.1249995E+03  0.7818608E-02  0.1235070E+00
         -4   -1    0    0    0  501 -0.00000000000E+00  0.00000000000E+00  0.28585948674E+02  0.28614146179E+02  0.12700000000E+01 0. -1.
          4   -1    0    0  501    0  0.00000000000E+00 -0.00000000000E+00 -0.13654960504E+03  0.13655551082E+03  0.12700000000E+01 0. -1.
         25    2    1    2    0    0  0.00000000000E+00  0.00000000000E+00 -0.10796365637E+03  0.16516965700E+03  0.12499945799E+03 0.  0.
    9000005    1    3    3    0    0 -0.25395066031E+02 -0.30868428679E+02 -0.11745467698E+03  0.12407405213E+03  0.10000000000E+01 0.  0.
    9000005    1    3    3    0    0  0.25395066031E+02  0.30868428679E+02  0.94910206111E+01  0.41095604875E+02  0.10000000000E+01 0.  0.
<mgrwt>
<rscale>  0 0.12499946E+03</rscale>
<asrwt>0</asrwt>
<pdfrwt beam="2">  1        4 0.21010254E-01 0.12499946E+03</pdfrwt>
<pdfrwt beam="1">  1       -4 0.44004617E-02 0.12499946E+03</pdfrwt>
<totfact> 0.96356445E+03</totfact>
</mgrwt>
</event>
<event>
 5    1  0.3188180E-002  0.1250042E+03  0.7818608E-02  0.1235063E+00
          4   -1    0    0  501    0  0.00000000000E+00  0.00000000000E+00  0.41518617694E+01  0.43417572655E+01  0.12700000000E+01 0.  1.
         -4   -1    0    0    0  501 -0.00000000000E+00 -0.00000000000E+00 -0.91967936580E+03  0.91968024268E+03  0.12700000000E+01 0.  1.
         25    2    1    2    0    0  0.00000000000E+00  0.00000000000E+00 -0.91552750403E+03  0.92402199995E+03  0.12500418293E+03 0.  0.
    9000005    1    3    3    0    0 -0.18769335725E+02 -0.59545539725E+02 -0.43744983293E+03  0.44188382590E+03  0.10000000000E+01 0.  0.
    9000005    1    3    3    0    0  0.18769335725E+02  0.59545539725E+02 -0.47807767110E+03  0.48213817404E+03  0.10000000000E+01 0.  0.
<mgrwt>
<rscale>  0 0.12500418E+03</rscale>
<asrwt>0</asrwt>
<pdfrwt beam="1">  1        4 0.65342350E-03 0.12500418E+03</pdfrwt>
<pdfrwt beam="2">  1       -4 0.14150365E+00 0.12500418E+03</pdfrwt>
<totfact> 0.33253608E+03</totfact>
</mgrwt>
</event>
<event>
 5    1  0.3188180E-002  0.1249979E+03  0.7818608E-02  0.1235073E+00
         -4   -1    0    0    0  501 -0.00000000000E+00  0.00000000000E+00  0.18978492689E+02  0.19020938062E+02  0.12700000000E+01 0. -1.
          4   -1    0    0  501    0  0.00000000000E+00 -0.00000000000E+00 -0.20554393847E+03  0.20554786193E+03  0.12700000000E+01 0. -1.
         25    2    1    2    0    0  0.00000000000E+00  0.00000000000E+00 -0.18656544578E+03  0.22456879999E+03  0.12499792146E+03 0.  0.
    9000005    1    3    3    0    0 -0.96989214783E-01 -0.49485819479E+02 -0.24723365742E+02  0.55327213468E+02  0.10000000000E+01 0.  0.
    9000005    1    3    3    0    0  0.96989214783E-01  0.49485819479E+02 -0.16184208004E+03  0.16924158652E+03  0.10000000000E+01 0.  0.
<mgrwt>
<rscale>  0 0.12499792E+03</rscale>
<asrwt>0</asrwt>
<pdfrwt beam="2">  1        4 0.31625710E-01 0.12499792E+03</pdfrwt>
<pdfrwt beam="1">  1       -4 0.29233351E-02 0.12499792E+03</pdfrwt>
<totfact> 0.86154519E+03</totfact>
</mgrwt>
</event>
<event>
 5    1  0.3188180E-002  0.1249992E+03  0.7818608E-02  0.1235071E+00
         -4   -1    0    0    0  501 -0.00000000000E+00  0.00000000000E+00  0.60650797222E+01  0.61966194039E+01  0.12700000000E+01 0. -1.
          4   -1    0    0  501    0  0.00000000000E+00 -0.00000000000E+00 -0.63700598850E+03  0.63700725450E+03  0.12700000000E+01 0. -1.
         25    2    1    2    0    0  0.00000000000E+00  0.00000000000E+00 -0.63094090878E+03  0.64320387390E+03  0.12499917214E+03 0.  0.
    9000005    1    3    3    0    0 -0.51000121866E+02  0.89774994304E+01 -0.13547583071E+03  0.14503899005E+03  0.10000000000E+01 0.  0.
    9000005    1    3    3    0    0  0.51000121866E+02 -0.89774994304E+01 -0.49546507806E+03  0.49816488386E+03  0.10000000000E+01 0.  0.
<mgrwt>
<rscale>  0 0.12499917E+03</rscale>
<asrwt>0</asrwt>
<pdfrwt beam="2">  1        4 0.98011085E-01 0.12499917E+03</pdfrwt>
<pdfrwt beam="1">  1       -4 0.94330551E-03 0.12499917E+03</pdfrwt>
<totfact> 0.46250049E+03</totfact>
</mgrwt>
</event>
<event>
 5    1  0.3188180E-002  0.1249986E+03  0.7818608E-02  0.1235071E+00
          4   -1    0    0  501    0  0.00000000000E+00  0.00000000000E+00  0.45477457697E+02  0.45495187203E+02  0.12700000000E+01 0. -1.
         -4   -1    0    0    0  501 -0.00000000000E+00 -0.00000000000E+00 -0.85853146956E+02  0.85862539808E+02  0.12700000000E+01 0. -1.
         25    2    1    2    0    0  0.00000000000E+00  0.00000000000E+00 -0.40375689259E+02  0.13135772701E+03  0.12499862464E+03 0.  0.
    9000005    1    3    3    0    0 -0.12313941581E+02 -0.29148680959E+02 -0.76817004436E+02  0.83085082472E+02  0.10000000000E+01 0.  0.
    9000005    1    3    3    0    0  0.12313941581E+02  0.29148680959E+02  0.36441315177E+02  0.48272644539E+02  0.10000000000E+01 0.  0.
<mgrwt>
<rscale>  0 0.12499862E+03</rscale>
<asrwt>0</asrwt>
<pdfrwt beam="1">  1        4 0.69986183E-02 0.12499862E+03</pdfrwt>
<pdfrwt beam="2">  1       -4 0.13210263E-01 0.12499862E+03</pdfrwt>
<totfact> 0.10315746E+04</totfact>
</mgrwt>
</event>
<event>
 5    1  0.3188180E-002  0.1249999E+03  0.7818608E-02  0.1235070E+00
         -4   -1    0    0    0  501 -0.00000000000E+00  0.00000000000E+00  0.12562503766E+02  0.12626535585E+02  0.12700000000E+01 0. -1.
          4   -1    0    0  501    0  0.00000000000E+00 -0.00000000000E+00 -0.31008871059E+03  0.31009131129E+03  0.12700000000E+01 0. -1.
         25    2    1    2    0    0  0.00000000000E+00  0.00000000000E+00 -0.29752620682E+03  0.32271784687E+03  0.12499985977E+03 0.  0.
    9000005    1    3    3    0    0 -0.51882526872E+02  0.14274030848E+02 -0.23079994328E+03  0.23699189515E+03  0.10000000000E+01 0.  0.
    9000005    1    3    3    0    0  0.51882526872E+02 -0.14274030848E+02 -0.66726263548E+02  0.85725951721E+02  0.10000000000E+01 0.  0.
<mgrwt>
<rscale>  0 0.12499986E+03</rscale>
<asrwt>0</asrwt>
<pdfrwt beam="2">  1        4 0.47711075E-01 0.12499986E+03</pdfrwt>
<pdfrwt beam="1">  1       -4 0.19378187E-02 0.12499986E+03</pdfrwt>
<totfact> 0.72834264E+03</totfact>
</mgrwt>
</event>
<event>
 5    1  0.3188180E-002  0.1250063E+03  0.7818608E-02  0.1235059E+00
         -4   -1    0    0    0  501 -0.00000000000E+00  0.00000000000E+00  0.88770892365E+01  0.89674753032E+01  0.12700000000E+01 0. -1.
          4   -1    0    0  501    0  0.00000000000E+00 -0.00000000000E+00 -0.43776102127E+03  0.43776286348E+03  0.12700000000E+01 0. -1.
         25    2    1    2    0    0  0.00000000000E+00  0.00000000000E+00 -0.42888393203E+03  0.44673033878E+03  0.12500627358E+03 0.  0.
    9000005    1    3    3    0    0 -0.37746590978E+02 -0.11445790826E+02 -0.41208442365E+02  0.57052142644E+02  0.10000000000E+01 0.  0.
    9000005    1    3    3    0    0  0.37746590978E+02  0.11445790826E+02 -0.38767548967E+03  0.38967819614E+03  0.10000000000E+01 0.  0.
<mgrwt>
<rscale>  0 0.12500627E+03</rscale>
<asrwt>0</asrwt>
<pdfrwt beam="2">  1        4 0.67354927E-01 0.12500627E+03</pdfrwt>
<pdfrwt beam="1">  1       -4 0.13728009E-02 0.12500627E+03</pdfrwt>
<totfact> 0.60239777E+03</totfact>
</mgrwt>
</event>
<event>
 5    1  0.3188180E-002  0.1250035E+03  0.7818608E-02  0.1235064E+00
         -4   -1    0    0    0  501 -0.00000000000E+00  0.00000000000E+00  0.10730331338E+03  0.10731082873E+03  0.12700000000E+01 0.  1.
          4   -1    0    0  501    0  0.00000000000E+00 -0.00000000000E+00 -0.36385975308E+02  0.36408132322E+02  0.12700000000E+01 0.  1.
         25    2    1    2    0    0  0.00000000000E+00  0.00000000000E+00  0.70917338076E+02  0.14371896105E+03  0.12500348366E+03 0.  0.
    9000005    1    3    3    0    0  0.33616958462E+02  0.46994404003E+02  0.62832956087E+02  0.85367173284E+02  0.10000000000E+01 0.  0.
    9000005    1    3    3    0    0 -0.33616958462E+02 -0.46994404003E+02  0.80843819889E+01  0.58351787770E+02  0.10000000000E+01 0.  0.
<mgrwt>
<rscale>  0 0.12500348E+03</rscale>
<asrwt>0</asrwt>
<pdfrwt beam="2">  1        4 0.56001249E-02 0.12500348E+03</pdfrwt>
<pdfrwt beam="1">  1       -4 0.16510484E-01 0.12500348E+03</pdfrwt>
<totfact> 0.10056292E+04</totfact>
</mgrwt>
</event>
<event>
 5    1  0.3188180E-002  0.1249611E+03  0.7818608E-02  0.1235130E+00
         -4   -1    0    0    0  501 -0.00000000000E+00  0.00000000000E+00  0.66330431471E+02  0.66342588426E+02  0.12700000000E+01 0.  1.
          4   -1    0    0  501    0  0.00000000000E+00 -0.00000000000E+00 -0.58829695724E+02  0.58843402341E+02  0.12700000000E+01 0.  1.
         25    2    1    2    0    0  0.00000000000E+00  0.00000000000E+00  0.75007357464E+01  0.12518599077E+03  0.12496107893E+03 0.  0.
    9000005    1    3    3    0    0 -0.65388496858E+01  0.29785461743E+02  0.58372695630E+02  0.65865786882E+02  0.10000000000E+01 0.  0.
    9000005    1    3    3    0    0  0.65388496858E+01 -0.29785461743E+02 -0.50871959884E+02  0.59320203885E+02  0.10000000000E+01 0.  0.
<mgrwt>
<rscale>  0 0.12496108E+03</rscale>
<asrwt>0</asrwt>
<pdfrwt beam="2">  1        4 0.90527120E-02 0.12496108E+03</pdfrwt>
<pdfrwt beam="1">  1       -4 0.10206671E-01 0.12496108E+03</pdfrwt>
<totfact> 0.10458020E+04</totfact>
</mgrwt>
</event>
<event>
 5    1  0.3188180E-002  0.1250011E+03  0.7818608E-02  0.1235068E+00
          4   -1    0    0  501    0  0.00000000000E+00  0.00000000000E+00  0.10682233930E+02  0.10757463536E+02  0.12700000000E+01 0. -1.
         -4   -1    0    0    0  501 -0.00000000000E+00 -0.00000000000E+00 -0.36432428250E+03  0.36432649604E+03  0.12700000000E+01 0. -1.
         25    2    1    2    0    0  0.00000000000E+00  0.00000000000E+00 -0.35364204857E+03  0.37508395958E+03  0.12500111286E+03 0.  0.
    9000005    1    3    3    0    0  0.58888490033E+02 -0.10162781033E+02 -0.23167484775E+03  0.23926004986E+03  0.10000000000E+01 0.  0.
    9000005    1    3    3    0    0 -0.58888490033E+02  0.10162781033E+02 -0.12196720082E+03  0.13582390972E+03  0.10000000000E+01 0.  0.
<mgrwt>
<rscale>  0 0.12500111E+03</rscale>
<asrwt>0</asrwt>
<pdfrwt beam="1">  1        4 0.16493780E-02 0.12500111E+03</pdfrwt>
<pdfrwt beam="2">  1       -4 0.56055838E-01 0.12500111E+03</pdfrwt>
<totfact> 0.67048748E+03</totfact>
</mgrwt>
</event>
<event>
 5    1  0.3188180E-002  0.1250009E+03  0.7818608E-02  0.1235068E+00
          4   -1    0    0  501    0  0.00000000000E+00  0.00000000000E+00  0.18610357237E+02  0.18653640301E+02  0.12700000000E+01 0.  1.
         -4   -1    0    0    0  501 -0.00000000000E+00 -0.00000000000E+00 -0.20961073751E+03  0.20961458484E+03  0.12700000000E+01 0.  1.
         25    2    1    2    0    0  0.00000000000E+00  0.00000000000E+00 -0.19100038027E+03  0.22826822514E+03  0.12500094938E+03 0.  0.
    9000005    1    3    3    0    0 -0.20125266309E+01  0.19315564897E+02 -0.20396947591E+03  0.20489433475E+03  0.10000000000E+01 0.  0.
    9000005    1    3    3    0    0  0.20125266309E+01 -0.19315564897E+02  0.12969095633E+02  0.23373890396E+02  0.10000000000E+01 0.  0.
<mgrwt>
<rscale>  0 0.12500095E+03</rscale>
<asrwt>0</asrwt>
<pdfrwt beam="1">  1        4 0.28667574E-02 0.12500095E+03</pdfrwt>
<pdfrwt beam="2">  1       -4 0.32251430E-01 0.12500095E+03</pdfrwt>
<totfact> 0.85574411E+03</totfact>
</mgrwt>
</event>
<event>
 5    1  0.3188180E-002  0.1249998E+03  0.7818608E-02  0.1235070E+00
          4   -1    0    0  501    0  0.00000000000E+00  0.00000000000E+00  0.10452324804E+03  0.10453096327E+03  0.12700000000E+01 0. -1.
         -4   -1    0    0    0  501 -0.00000000000E+00 -0.00000000000E+00 -0.37352088182E+02  0.37373672439E+02  0.12700000000E+01 0. -1.
         25    2    1    2    0    0  0.00000000000E+00  0.00000000000E+00  0.67171159862E+02  0.14190463571E+03  0.12499984367E+03 0.  0.
    9000005    1    3    3    0    0  0.12038213779E+02  0.45914166894E+02  0.79730070626E+02  0.92795007810E+02  0.10000000000E+01 0.  0.
    9000005    1    3    3    0    0 -0.12038213779E+02 -0.45914166894E+02 -0.12558910764E+02  0.49109627896E+02  0.10000000000E+01 0.  0.
<mgrwt>
<rscale>  0 0.12499984E+03</rscale>
<asrwt>0</asrwt>
<pdfrwt beam="1">  1        4 0.16082753E-01 0.12499984E+03</pdfrwt>
<pdfrwt beam="2">  1       -4 0.57487291E-02 0.12499984E+03</pdfrwt>
<totfact> 0.10094298E+04</totfact>
</mgrwt>
</event>
<event>
 5    1  0.3188180E-002  0.1250047E+03  0.7818608E-02  0.1235062E+00
          4   -1    0    0  501    0  0.00000000000E+00  0.00000000000E+00  0.58971381172E+02  0.58985054864E+02  0.12700000000E+01 0. -1.
         -4   -1    0    0    0  501 -0.00000000000E+00 -0.00000000000E+00 -0.66217292948E+02  0.66229470671E+02  0.12700000000E+01 0. -1.
         25    2    1    2    0    0  0.00000000000E+00  0.00000000000E+00 -0.72459117766E+01  0.12521452554E+03  0.12500469658E+03 0.  0.
    9000005    1    3    3    0    0  0.18601125108E+02  0.32022277434E+02  0.46801541607E+02  0.59689298908E+02  0.10000000000E+01 0.  0.
    9000005    1    3    3    0    0 -0.18601125108E+02 -0.32022277434E+02 -0.54047453384E+02  0.65525226627E+02  0.10000000000E+01 0.  0.
<mgrwt>
<rscale>  0 0.12500470E+03</rscale>
<asrwt>0</asrwt>
<pdfrwt beam="1">  1        4 0.90745087E-02 0.12500470E+03</pdfrwt>
<pdfrwt beam="2">  1       -4 0.10189264E-01 0.12500470E+03</pdfrwt>
<totfact> 0.10447096E+04</totfact>
</mgrwt>
</event>
<event>
 5    1  0.3188180E-002  0.1249984E+03  0.7818608E-02  0.1235072E+00
         -4   -1    0    0    0  501 -0.00000000000E+00  0.00000000000E+00  0.36967099980E+01  0.39087804759E+01  0.12700000000E+01 0. -1.
          4   -1    0    0  501    0  0.00000000000E+00 -0.00000000000E+00 -0.10269790893E+04  0.10269798746E+04  0.12700000000E+01 0. -1.
         25    2    1    2    0    0  0.00000000000E+00  0.00000000000E+00 -0.10232823794E+04  0.10308886551E+04  0.12499836519E+03 0.  0.
    9000005    1    3    3    0    0  0.20665994509E+02 -0.58893915146E+02 -0.53715597198E+03  0.54077085240E+03  0.10000000000E+01 0.  0.
    9000005    1    3    3    0    0 -0.20665994509E+02  0.58893915146E+02 -0.48612640737E+03  0.49011780269E+03  0.10000000000E+01 0.  0.
<mgrwt>
<rscale>  0 0.12499837E+03</rscale>
<asrwt>0</asrwt>
<pdfrwt beam="2">  1        4 0.15801294E+00 0.12499837E+03</pdfrwt>
<pdfrwt beam="1">  1       -4 0.58509895E-03 0.12499837E+03</pdfrwt>
<totfact> 0.29600180E+03</totfact>
</mgrwt>
</event>
<event>
 5    1  0.3188180E-002  0.1249819E+03  0.7818608E-02  0.1235098E+00
          4   -1    0    0  501    0  0.00000000000E+00  0.00000000000E+00  0.67498025831E+03  0.67498145308E+03  0.12700000000E+01 0.  1.
         -4   -1    0    0    0  501 -0.00000000000E+00 -0.00000000000E+00 -0.57146197971E+01  0.58540395818E+01  0.12700000000E+01 0.  1.
         25    2    1    2    0    0  0.00000000000E+00  0.00000000000E+00  0.66926563851E+03  0.68083549266E+03  0.12498189141E+03 0.  0.
    9000005    1    3    3    0    0  0.59767640075E+02  0.26915970413E+01  0.23647201406E+03  0.24392504776E+03  0.10000000000E+01 0.  0.
    9000005    1    3    3    0    0 -0.59767640075E+02 -0.26915970413E+01  0.43279362445E+03  0.43691044490E+03  0.10000000000E+01 0.  0.
<mgrwt>
<rscale>  0 0.12498189E+03</rscale>
<asrwt>0</asrwt>
<pdfrwt beam="1">  1        4 0.10385395E+00 0.12498189E+03</pdfrwt>
<pdfrwt beam="2">  1       -4 0.88998860E-03 0.12498189E+03</pdfrwt>
<totfact> 0.44135340E+03</totfact>
</mgrwt>
</event>
<event>
 5    1  0.3188180E-002  0.1249964E+03  0.7818608E-02  0.1235075E+00
         -4   -1    0    0    0  501 -0.00000000000E+00  0.00000000000E+00  0.16661224003E+03  0.16661708024E+03  0.12700000000E+01 0.  1.
          4   -1    0    0  501    0  0.00000000000E+00 -0.00000000000E+00 -0.23421419166E+02  0.23455826052E+02  0.12700000000E+01 0.  1.
         25    2    1    2    0    0  0.00000000000E+00  0.00000000000E+00  0.14319082087E+03  0.19007290630E+03  0.12499639406E+03 0.  0.
    9000005    1    3    3    0    0 -0.62281760186E+02 -0.46847873705E+01  0.74659293775E+02  0.97344619941E+02  0.10000000000E+01 0.  0.
    9000005    1    3    3    0    0  0.62281760186E+02  0.46847873705E+01  0.68531527093E+02  0.92728286355E+02  0.10000000000E+01 0.  0.
<mgrwt>
<rscale>  0 0.12499639E+03</rscale>
<asrwt>0</asrwt>
<pdfrwt beam="2">  1        4 0.36063141E-02 0.12499639E+03</pdfrwt>
<pdfrwt beam="1">  1       -4 0.25635672E-01 0.12499639E+03</pdfrwt>
<totfact> 0.91842047E+03</totfact>
</mgrwt>
</event>
<event>
 5    1  0.3188180E-002  0.1250035E+03  0.7818608E-02  0.1235064E+00
          4   -1    0    0  501    0  0.00000000000E+00  0.00000000000E+00  0.41651304379E+02  0.41670661819E+02  0.12700000000E+01 0. -1.
         -4   -1    0    0    0  501 -0.00000000000E+00 -0.00000000000E+00 -0.93744406182E+02  0.93753008434E+02  0.12700000000E+01 0. -1.
         25    2    1    2    0    0  0.00000000000E+00  0.00000000000E+00 -0.52093101804E+02  0.13542367025E+03  0.12500351679E+03 0.  0.
    9000005    1    3    3    0    0 -0.54428046214E+02  0.15472326778E+02 -0.54784464076E+02  0.78766379977E+02  0.10000000000E+01 0.  0.
    9000005    1    3    3    0    0  0.54428046214E+02 -0.15472326778E+02  0.26913622722E+01  0.56657290277E+02  0.10000000000E+01 0.  0.
<mgrwt>
<rscale>  0 0.12500352E+03</rscale>
<asrwt>0</asrwt>
<pdfrwt beam="1">  1        4 0.64100437E-02 0.12500352E+03</pdfrwt>
<pdfrwt beam="2">  1       -4 0.14424367E-01 0.12500352E+03</pdfrwt>
<totfact> 0.10228338E+04</totfact>
</mgrwt>
</event>
<event>
 5    1  0.3188180E-002  0.1250059E+03  0.7818608E-02  0.1235060E+00
         -4   -1    0    0    0  501 -0.00000000000E+00  0.00000000000E+00  0.33906933344E+02  0.33930709229E+02  0.12700000000E+01 0. -1.
          4   -1    0    0  501    0  0.00000000000E+00 -0.00000000000E+00 -0.11514832601E+03  0.11515532938E+03  0.12700000000E+01 0. -1.
         25    2    1    2    0    0  0.00000000000E+00  0.00000000000E+00 -0.81241392669E+02  0.14908603860E+03  0.12500593195E+03 0.  0.
    9000005    1    3    3    0    0  0.44372684110E+01 -0.11189491801E+02 -0.11375855458E+03  0.11439800181E+03  0.10000000000E+01 0.  0.
    9000005    1    3    3    0    0 -0.44372684110E+01  0.11189491801E+02  0.32517161913E+02  0.34688036793E+02  0.10000000000E+01 0.  0.
<mgrwt>
<rscale>  0 0.12500593E+03</rscale>
<asrwt>0</asrwt>
<pdfrwt beam="2">  1        4 0.17717494E-01 0.12500593E+03</pdfrwt>
<pdfrwt beam="1">  1       -4 0.52188190E-02 0.12500593E+03</pdfrwt>
<totfact> 0.99472913E+03</totfact>
</mgrwt>
</event>
<event>
 5    1  0.3188180E-002  0.1249983E+03  0.7818608E-02  0.1235072E+00
          4   -1    0    0  501    0  0.00000000000E+00  0.00000000000E+00  0.23548559814E+02  0.23582781204E+02  0.12700000000E+01 0.  1.
         -4   -1    0    0    0  501 -0.00000000000E+00 -0.00000000000E+00 -0.16571908428E+03  0.16572395058E+03  0.12700000000E+01 0.  1.
         25    2    1    2    0    0  0.00000000000E+00  0.00000000000E+00 -0.14217052447E+03  0.18930673178E+03  0.12499832267E+03 0.  0.
    9000005    1    3    3    0    0 -0.56396137555E+02 -0.10460462352E+02 -0.10864909358E+03  0.12286403518E+03  0.10000000000E+01 0.  0.
    9000005    1    3    3    0    0  0.56396137555E+02  0.10460462352E+02 -0.33521430886E+02  0.66442696606E+02  0.10000000000E+01 0.  0.
<mgrwt>
<rscale>  0 0.12499832E+03</rscale>
<asrwt>0</asrwt>
<pdfrwt beam="1">  1        4 0.36258622E-02 0.12499832E+03</pdfrwt>
<pdfrwt beam="2">  1       -4 0.25498250E-01 0.12499832E+03</pdfrwt>
<totfact> 0.91971537E+03</totfact>
</mgrwt>
</event>
<event>
 5    1  0.3188180E-002  0.1249989E+03  0.7818608E-02  0.1235071E+00
         -4   -1    0    0    0  501 -0.00000000000E+00  0.00000000000E+00  0.42331083461E+02  0.42350130188E+02  0.12700000000E+01 0.  1.
          4   -1    0    0  501    0  0.00000000000E+00 -0.00000000000E+00 -0.92232677263E+02  0.92241420496E+02  0.12700000000E+01 0.  1.
         25    2    1    2    0    0  0.00000000000E+00  0.00000000000E+00 -0.49901593802E+02  0.13459155068E+03  0.12499886580E+03 0.  0.
    9000005    1    3    3    0    0  0.98353483854E+01 -0.58218043552E+02 -0.46993906265E+02  0.75468549071E+02  0.10000000000E+01 0.  0.
    9000005    1    3    3    0    0 -0.98353483854E+01  0.58218043552E+02 -0.29076875376E+01  0.59123001613E+02  0.10000000000E+01 0.  0.
<mgrwt>
<rscale>  0 0.12499887E+03</rscale>
<asrwt>0</asrwt>
<pdfrwt beam="2">  1        4 0.14191780E-01 0.12499887E+03</pdfrwt>
<pdfrwt beam="1">  1       -4 0.65146121E-02 0.12499887E+03</pdfrwt>
<totfact> 0.10246949E+04</totfact>
</mgrwt>
</event>
<event>
 5    1  0.3188180E-002  0.1249981E+03  0.7818608E-02  0.1235072E+00
          4   -1    0    0  501    0  0.00000000000E+00  0.00000000000E+00  0.32719179735E+02  0.32743818082E+02  0.12700000000E+01 0. -1.
         -4   -1    0    0    0  501 -0.00000000000E+00 -0.00000000000E+00 -0.11931064518E+03  0.11931740423E+03  0.12700000000E+01 0. -1.
         25    2    1    2    0    0  0.00000000000E+00  0.00000000000E+00 -0.86591465442E+02  0.15206122231E+03  0.12499813376E+03 0.  0.
    9000005    1    3    3    0    0 -0.37258879704E+02  0.32305576114E+02 -0.89989025270E+02  0.10262016875E+03  0.10000000000E+01 0.  0.
    9000005    1    3    3    0    0  0.37258879704E+02 -0.32305576114E+02  0.33975598272E+01  0.49441053566E+02  0.10000000000E+01 0.  0.
<mgrwt>
<rscale>  0 0.12499813E+03</rscale>
<asrwt>0</asrwt>
<pdfrwt beam="1">  1        4 0.50361352E-02 0.12499813E+03</pdfrwt>
<pdfrwt beam="2">  1       -4 0.18357899E-01 0.12499813E+03</pdfrwt>
<totfact> 0.98898553E+03</totfact>
</mgrwt>
</event>
<event>
 5    1  0.3188180E-002  0.1249985E+03  0.7818608E-02  0.1235072E+00
         -4   -1    0    0    0  501 -0.00000000000E+00  0.00000000000E+00  0.73140203344E+02  0.73151228597E+02  0.12700000000E+01 0. -1.
          4   -1    0    0  501    0  0.00000000000E+00 -0.00000000000E+00 -0.53383781054E+02  0.53398885566E+02  0.12700000000E+01 0. -1.
         25    2    1    2    0    0  0.00000000000E+00  0.00000000000E+00  0.19756422290E+02  0.12655011416E+03  0.12499846068E+03 0.  0.
    9000005    1    3    3    0    0 -0.46292161933E+02 -0.39726166081E+02 -0.38556256654E+01  0.61130993589E+02  0.10000000000E+01 0.  0.
    9000005    1    3    3    0    0  0.46292161933E+02  0.39726166081E+02  0.23612047955E+02  0.65419120573E+02  0.10000000000E+01 0.  0.
<mgrwt>
<rscale>  0 0.12499846E+03</rscale>
<asrwt>0</asrwt>
<pdfrwt beam="2">  1        4 0.82148994E-02 0.12499846E+03</pdfrwt>
<pdfrwt beam="1">  1       -4 0.11254349E-01 0.12499846E+03</pdfrwt>
<totfact> 0.10419297E+04</totfact>
</mgrwt>
</event>
<event>
 5    1  0.3188180E-002  0.1250001E+03  0.7818608E-02  0.1235069E+00
         -4   -1    0    0    0  501 -0.00000000000E+00  0.00000000000E+00  0.19410609005E+04  0.19410613160E+04  0.12700000000E+01 0. -1.
          4   -1    0    0  501    0  0.00000000000E+00 -0.00000000000E+00 -0.18116084623E+01  0.22124251898E+01  0.12700000000E+01 0. -1.
         25    2    1    2    0    0  0.00000000000E+00  0.00000000000E+00  0.19392492921E+04  0.19432737412E+04  0.12500006563E+03 0.  0.
    9000005    1    3    3    0    0  0.19293011011E+02  0.27176211327E+02  0.14780822193E+03  0.15152239836E+03  0.10000000000E+01 0.  0.
    9000005    1    3    3    0    0 -0.19293011011E+02 -0.27176211327E+02  0.17914410701E+04  0.17917513428E+04  0.10000000000E+01 0.  0.
<mgrwt>
<rscale>  0 0.12500007E+03</rscale>
<asrwt>0</asrwt>
<pdfrwt beam="2">  1        4 0.30957406E-03 0.12500007E+03</pdfrwt>
<pdfrwt beam="1">  1       -4 0.29865460E+00 0.12500007E+03</pdfrwt>
<totfact> 0.10619959E+03</totfact>
</mgrwt>
</event>
<event>
 5    1  0.3188180E-002  0.1250044E+03  0.7818608E-02  0.1235062E+00
         -4   -1    0    0    0  501 -0.00000000000E+00  0.00000000000E+00  0.24277517395E+02  0.24310712677E+02  0.12700000000E+01 0.  1.
          4   -1    0    0  501    0  0.00000000000E+00 -0.00000000000E+00 -0.16076570484E+03  0.16077072107E+03  0.12700000000E+01 0.  1.
         25    2    1    2    0    0  0.00000000000E+00  0.00000000000E+00 -0.13648818745E+03  0.18508143375E+03  0.12500444714E+03 0.  0.
    9000005    1    3    3    0    0 -0.16597293073E+02  0.60241567552E+02 -0.66755114167E+02  0.91442669831E+02  0.10000000000E+01 0.  0.
    9000005    1    3    3    0    0  0.16597293073E+02 -0.60241567552E+02 -0.69733073278E+02  0.93638763914E+02  0.10000000000E+01 0.  0.
<mgrwt>
<rscale>  0 0.12500445E+03</rscale>
<asrwt>0</asrwt>
<pdfrwt beam="2">  1        4 0.24736124E-01 0.12500445E+03</pdfrwt>
<pdfrwt beam="1">  1       -4 0.37379421E-02 0.12500445E+03</pdfrwt>
<totfact> 0.92701004E+03</totfact>
</mgrwt>
</event>
<event>
 5    1  0.3188180E-002  0.1250021E+03  0.7818608E-02  0.1235066E+00
          4   -1    0    0  501    0  0.00000000000E+00  0.00000000000E+00  0.17828321977E+04  0.17828326500E+04  0.12700000000E+01 0.  1.
         -4   -1    0    0    0  501 -0.00000000000E+00 -0.00000000000E+00 -0.20065907345E+01  0.23747223787E+01  0.12700000000E+01 0.  1.
         25    2    1    2    0    0  0.00000000000E+00  0.00000000000E+00  0.17808256069E+04  0.17852073724E+04  0.12500208047E+03 0.  0.
    9000005    1    3    3    0    0 -0.71311695317E+01 -0.62015489442E+02  0.93230759228E+03  0.93439564486E+03  0.10000000000E+01 0.  0.
    9000005    1    3    3    0    0  0.71311695317E+01  0.62015489442E+02  0.84851801467E+03  0.85081172754E+03  0.10000000000E+01 0.  0.
<mgrwt>
<rscale>  0 0.12500208E+03</rscale>
<asrwt>0</asrwt>
<pdfrwt beam="1">  1        4 0.27430971E+00 0.12500208E+03</pdfrwt>
<pdfrwt beam="2">  1       -4 0.33705952E-03 0.12500208E+03</pdfrwt>
<totfact> 0.12932235E+03</totfact>
</mgrwt>
</event>
<event>
 5    1  0.3188180E-002  0.1250016E+03  0.7818608E-02  0.1235067E+00
          4   -1    0    0  501    0  0.00000000000E+00  0.00000000000E+00  0.15865131873E+02  0.15915882299E+02  0.12700000000E+01 0.  1.
         -4   -1    0    0    0  501 -0.00000000000E+00 -0.00000000000E+00 -0.24577668847E+03  0.24577996968E+03  0.12700000000E+01 0.  1.
         25    2    1    2    0    0  0.00000000000E+00  0.00000000000E+00 -0.22991155660E+03  0.26169585198E+03  0.12500158033E+03 0.  0.
    9000005    1    3    3    0    0  0.48533770189E+02 -0.33755542115E+02 -0.72544903290E+02  0.93588067966E+02  0.10000000000E+01 0.  0.
    9000005    1    3    3    0    0 -0.48533770189E+02  0.33755542115E+02 -0.15736665331E+03  0.16810778401E+03  0.10000000000E+01 0.  0.
<mgrwt>
<rscale>  0 0.12500158E+03</rscale>
<asrwt>0</asrwt>
<pdfrwt beam="1">  1        4 0.24449460E-02 0.12500158E+03</pdfrwt>
<pdfrwt beam="2">  1       -4 0.37815952E-01 0.12500158E+03</pdfrwt>
<totfact> 0.80665823E+03</totfact>
</mgrwt>
</event>
<event>
 5    1  0.3188180E-002  0.1250343E+03  0.7818608E-02  0.1235016E+00
         -4   -1    0    0    0  501 -0.00000000000E+00  0.00000000000E+00  0.23260003154E+02  0.23294648456E+02  0.12700000000E+01 0. -1.
          4   -1    0    0  501    0  0.00000000000E+00 -0.00000000000E+00 -0.16786858889E+03  0.16787339288E+03  0.12700000000E+01 0. -1.
         25    2    1    2    0    0  0.00000000000E+00  0.00000000000E+00 -0.14460858574E+03  0.19116804134E+03  0.12503430313E+03 0.  0.
    9000005    1    3    3    0    0 -0.11838978082E+02  0.32956374221E+02  0.68625722482E+01  0.35698443967E+02  0.10000000000E+01 0.  0.
    9000005    1    3    3    0    0  0.11838978082E+02 -0.32956374221E+02 -0.15147115799E+03  0.15546959737E+03  0.10000000000E+01 0.  0.
<mgrwt>
<rscale>  0 0.12503430E+03</rscale>
<asrwt>0</asrwt>
<pdfrwt beam="2">  1        4 0.25828971E-01 0.12503430E+03</pdfrwt>
<pdfrwt beam="1">  1       -4 0.35814967E-02 0.12503430E+03</pdfrwt>
<totfact> 0.91574101E+03</totfact>
</mgrwt>
</event>
<event>
 4    1  0.3188180E-002  0.1240376E+03  0.7818608E-02  0.1236581E+00
         -4   -1    0    0    0  501 -0.00000000000E+00  0.00000000000E+00  0.10087851583E+02  0.10167480001E+02  0.12700000000E+01 0.  1.
          4   -1    0    0  501    0  0.00000000000E+00 -0.00000000000E+00 -0.37970390285E+03  0.37970602674E+03  0.12700000000E+01 0.  1.
    9000005    1    1    2    0    0  0.42937282592E+02  0.49357604035E+01 -0.32457777699E+03  0.32744420178E+03  0.10000000000E+01 0.  0.
    9000005    1    1    2    0    0 -0.42937282592E+02 -0.49357604035E+01 -0.45038274284E+02  0.62429304958E+02  0.10000000000E+01 0.  0.
<mgrwt>
<rscale>  0 0.12403760E+03</rscale>
<asrwt>0</asrwt>
<pdfrwt beam="2">  1        4 0.58422263E-01 0.12403760E+03</pdfrwt>
<pdfrwt beam="1">  1       -4 0.15582661E-02 0.12403760E+03</pdfrwt>
<totfact> 0.66962897E+03</totfact>
</mgrwt>
</event>
<event>
 5    1  0.3188180E-002  0.1250075E+03  0.7818608E-02  0.1235058E+00
         -4   -1    0    0    0  501 -0.00000000000E+00  0.00000000000E+00  0.28315078194E+01  0.31032783522E+01  0.12700000000E+01 0. -1.
          4   -1    0    0  501    0  0.00000000000E+00 -0.00000000000E+00 -0.13162772833E+04  0.13162778960E+04  0.12700000000E+01 0. -1.
         25    2    1    2    0    0  0.00000000000E+00  0.00000000000E+00 -0.13134457755E+04  0.13193811743E+04  0.12500751194E+03 0.  0.
    9000005    1    3    3    0    0 -0.28227105837E+02  0.27744777016E+02 -0.11671876257E+04  0.11678589366E+04  0.10000000000E+01 0.  0.
    9000005    1    3    3    0    0  0.28227105837E+02 -0.27744777016E+02 -0.14625814979E+03  0.15152223776E+03  0.10000000000E+01 0.  0.
<mgrwt>
<rscale>  0 0.12500751E+03</rscale>
<asrwt>0</asrwt>
<pdfrwt beam="2">  1        4 0.20252468E+00 0.12500751E+03</pdfrwt>
<pdfrwt beam="1">  1       -4 0.45657019E-03 0.12500751E+03</pdfrwt>
<totfact> 0.21772161E+03</totfact>
</mgrwt>
</event>
<event>
 5    1  0.3188180E-002  0.1249987E+03  0.7818608E-02  0.1235071E+00
         -4   -1    0    0    0  501 -0.00000000000E+00  0.00000000000E+00  0.30779977230E+03  0.30780239234E+03  0.12700000000E+01 0. -1.
          4   -1    0    0  501    0  0.00000000000E+00 -0.00000000000E+00 -0.12656169180E+02  0.12719729490E+02  0.12700000000E+01 0. -1.
         25    2    1    2    0    0  0.00000000000E+00  0.00000000000E+00  0.29514360312E+03  0.32052212183E+03  0.12499873646E+03 0.  0.
    9000005    1    3    3    0    0  0.34223828870E+02 -0.51953706170E+02  0.16267950141E+03  0.17417255303E+03  0.10000000000E+01 0.  0.
    9000005    1    3    3    0    0 -0.34223828870E+02  0.51953706170E+02  0.13246410171E+03  0.14634956881E+03  0.10000000000E+01 0.  0.
<mgrwt>
<rscale>  0 0.12499874E+03</rscale>
<asrwt>0</asrwt>
<pdfrwt beam="2">  1        4 0.19521940E-02 0.12499874E+03</pdfrwt>
<pdfrwt beam="1">  1       -4 0.47358896E-01 0.12499874E+03</pdfrwt>
<totfact> 0.73096119E+03</totfact>
</mgrwt>
</event>
<event>
 5    1  0.3188180E-002  0.1250010E+03  0.7818608E-02  0.1235068E+00
          4   -1    0    0  501    0  0.00000000000E+00  0.00000000000E+00  0.98635671007E+03  0.98635752767E+03  0.12700000000E+01 0.  1.
         -4   -1    0    0    0  501 -0.00000000000E+00 -0.00000000000E+00 -0.38576889490E+01  0.40613623363E+01  0.12700000000E+01 0.  1.
         25    2    1    2    0    0  0.00000000000E+00  0.00000000000E+00  0.98249902112E+03  0.99041889001E+03  0.12500100474E+03 0.  0.
    9000005    1    3    3    0    0 -0.92732371596E+01  0.53374560409E+02  0.24441956406E+03  0.25035327024E+03  0.10000000000E+01 0.  0.
    9000005    1    3    3    0    0  0.92732371596E+01 -0.53374560409E+02  0.73807945706E+03  0.74006561977E+03  0.10000000000E+01 0.  0.
<mgrwt>
<rscale>  0 0.12500100E+03</rscale>
<asrwt>0</asrwt>
<pdfrwt beam="1">  1        4 0.15176307E+00 0.12500100E+03</pdfrwt>
<pdfrwt beam="2">  1       -4 0.60922007E-03 0.12500100E+03</pdfrwt>
<totfact> 0.30922245E+03</totfact>
</mgrwt>
</event>
<event>
 5    1  0.3188180E-002  0.1249987E+03  0.7818608E-02  0.1235071E+00
          4   -1    0    0  501    0  0.00000000000E+00  0.00000000000E+00  0.23310105647E+02  0.23344676594E+02  0.12700000000E+01 0. -1.
         -4   -1    0    0    0  501 -0.00000000000E+00 -0.00000000000E+00 -0.16741280758E+03  0.16741762465E+03  0.12700000000E+01 0. -1.
         25    2    1    2    0    0  0.00000000000E+00  0.00000000000E+00 -0.14410270193E+03  0.19076230124E+03  0.12499866747E+03 0.  0.
    9000005    1    3    3    0    0  0.31020790332E+02  0.25441348187E+02 -0.14517143885E+03  0.15061639449E+03  0.10000000000E+01 0.  0.
    9000005    1    3    3    0    0 -0.31020790332E+02 -0.25441348187E+02  0.10687369170E+01  0.40145906753E+02  0.10000000000E+01 0.  0.
<mgrwt>
<rscale>  0 0.12499867E+03</rscale>
<asrwt>0</asrwt>
<pdfrwt beam="1">  1        4 0.35892001E-02 0.12499867E+03</pdfrwt>
<pdfrwt beam="2">  1       -4 0.25758846E-01 0.12499867E+03</pdfrwt>
<totfact> 0.91717583E+03</totfact>
</mgrwt>
</event>
<event>
 5    1  0.3188180E-002  0.1249989E+03  0.7818608E-02  0.1235071E+00
         -4   -1    0    0    0  501 -0.00000000000E+00  0.00000000000E+00  0.72881024669E+02  0.72892089124E+02  0.12700000000E+01 0.  1.
          4   -1    0    0  501    0  0.00000000000E+00 -0.00000000000E+00 -0.53574036529E+02  0.53589087415E+02  0.12700000000E+01 0.  1.
         25    2    1    2    0    0  0.00000000000E+00  0.00000000000E+00  0.19306988140E+02  0.12648117654E+03  0.12499891291E+03 0.  0.
    9000005    1    3    3    0    0 -0.41932340630E+02 -0.32130901203E+02  0.43432983662E+02  0.68396930287E+02  0.10000000000E+01 0.  0.
    9000005    1    3    3    0    0  0.41932340630E+02  0.32130901203E+02 -0.24125995522E+02  0.58084246253E+02  0.10000000000E+01 0.  0.
<mgrwt>
<rscale>  0 0.12499891E+03</rscale>
<asrwt>0</asrwt>
<pdfrwt beam="2">  1        4 0.82441683E-02 0.12499891E+03</pdfrwt>
<pdfrwt beam="1">  1       -4 0.11214474E-01 0.12499891E+03</pdfrwt>
<totfact> 0.10420694E+04</totfact>
</mgrwt>
</event>
<event>
 5    1  0.3188180E-002  0.1249959E+03  0.7818608E-02  0.1235076E+00
         -4   -1    0    0    0  501 -0.00000000000E+00  0.00000000000E+00  0.61371387982E+02  0.61384527064E+02  0.12700000000E+01 0. -1.
          4   -1    0    0  501    0  0.00000000000E+00 -0.00000000000E+00 -0.63618862108E+02  0.63631537117E+02  0.12700000000E+01 0. -1.
         25    2    1    2    0    0  0.00000000000E+00  0.00000000000E+00 -0.22474741254E+01  0.12501606418E+03  0.12499586059E+03 0.  0.
    9000005    1    3    3    0    0  0.57346343805E+02  0.22201092391E+02 -0.12238572486E+02  0.62707848852E+02  0.10000000000E+01 0.  0.
    9000005    1    3    3    0    0 -0.57346343805E+02 -0.22201092391E+02  0.99910983603E+01  0.62308215330E+02  0.10000000000E+01 0.  0.
<mgrwt>
<rscale>  0 0.12499586E+03</rscale>
<asrwt>0</asrwt>
<pdfrwt beam="2">  1        4 0.97895030E-02 0.12499586E+03</pdfrwt>
<pdfrwt beam="1">  1       -4 0.94437376E-02 0.12499586E+03</pdfrwt>
<totfact> 0.10453492E+04</totfact>
</mgrwt>
</event>
<event>
 5    1  0.3188180E-002  0.1250014E+03  0.7818608E-02  0.1235067E+00
          4   -1    0    0  501    0  0.00000000000E+00  0.00000000000E+00  0.11910109865E+03  0.11910786960E+03  0.12700000000E+01 0. -1.
         -4   -1    0    0    0  501 -0.00000000000E+00 -0.00000000000E+00 -0.32778489382E+02  0.32803083181E+02  0.12700000000E+01 0. -1.
         25    2    1    2    0    0  0.00000000000E+00  0.00000000000E+00  0.86322609268E+02  0.15191095278E+03  0.12500137880E+03 0.  0.
    9000005    1    3    3    0    0  0.21248579979E+02  0.36891496991E+02 -0.12434687957E+02  0.44363342592E+02  0.10000000000E+01 0.  0.
    9000005    1    3    3    0    0 -0.21248579979E+02 -0.36891496991E+02  0.98757297225E+02  0.10754761019E+03  0.10000000000E+01 0.  0.
<mgrwt>
<rscale>  0 0.12500138E+03</rscale>
<asrwt>0</asrwt>
<pdfrwt beam="1">  1        4 0.18325659E-01 0.12500138E+03</pdfrwt>
<pdfrwt beam="2">  1       -4 0.50452571E-02 0.12500138E+03</pdfrwt>
<totfact> 0.98921064E+03</totfact>
</mgrwt>
</event>
<event>
 5    1  0.3188180E-002  0.1250037E+03  0.7818608E-02  0.1235063E+00
          4   -1    0    0  501    0  0.00000000000E+00  0.00000000000E+00  0.14667764370E+02  0.14722642820E+02  0.12700000000E+01 0. -1.
         -4   -1    0    0    0  501 -0.00000000000E+00 -0.00000000000E+00 -0.26577738721E+03  0.26578042150E+03  0.12700000000E+01 0. -1.
         25    2    1    2    0    0  0.00000000000E+00  0.00000000000E+00 -0.25110962284E+03  0.28050306432E+03  0.12500370558E+03 0.  0.
    9000005    1    3    3    0    0 -0.28799059295E+02 -0.46610561478E+02 -0.58103384585E+02  0.79868226209E+02  0.10000000000E+01 0.  0.
    9000005    1    3    3    0    0  0.28799059295E+02  0.46610561478E+02 -0.19300623825E+03  0.20063483811E+03  0.10000000000E+01 0.  0.
<mgrwt>
<rscale>  0 0.12500371E+03</rscale>
<asrwt>0</asrwt>
<pdfrwt beam="1">  1        4 0.22610342E-02 0.12500371E+03</pdfrwt>
<pdfrwt beam="2">  1       -4 0.40893280E-01 0.12500371E+03</pdfrwt>
<totfact> 0.78105018E+03</totfact>
</mgrwt>
</event>
<event>
 5    1  0.3188180E-002  0.1249994E+03  0.7818608E-02  0.1235070E+00
          4   -1    0    0  501    0  0.00000000000E+00  0.00000000000E+00  0.15583090625E+02  0.15634756583E+02  0.12700000000E+01 0.  1.
         -4   -1    0    0    0  501 -0.00000000000E+00 -0.00000000000E+00 -0.25020165283E+03  0.25020487601E+03  0.12700000000E+01 0.  1.
         25    2    1    2    0    0  0.00000000000E+00  0.00000000000E+00 -0.23461856220E+03  0.26583963259E+03  0.12499936210E+03 0.  0.
    9000005    1    3    3    0    0 -0.59930284989E+02 -0.16744503113E+02 -0.10505654321E+03  0.12210607976E+03  0.10000000000E+01 0.  0.
    9000005    1    3    3    0    0  0.59930284989E+02  0.16744503113E+02 -0.12956201899E+03  0.14373355283E+03  0.10000000000E+01 0.  0.
<mgrwt>
<rscale>  0 0.12499936E+03</rscale>
<asrwt>0</asrwt>
<pdfrwt beam="1">  1        4 0.24016210E-02 0.12499936E+03</pdfrwt>
<pdfrwt beam="2">  1       -4 0.38496781E-01 0.12499936E+03</pdfrwt>
<totfact> 0.80094611E+03</totfact>
</mgrwt>
</event>
<event>
 5    1  0.3188180E-002  0.1250060E+03  0.7818608E-02  0.1235060E+00
         -4   -1    0    0    0  501 -0.00000000000E+00  0.00000000000E+00  0.17328843406E+02  0.17375319099E+02  0.12700000000E+01 0.  1.
          4   -1    0    0  501    0  0.00000000000E+00 -0.00000000000E+00 -0.22509052210E+03  0.22509410485E+03  0.12700000000E+01 0.  1.
         25    2    1    2    0    0  0.00000000000E+00  0.00000000000E+00 -0.20776167869E+03  0.24246942395E+03  0.12500602552E+03 0.  0.
    9000005    1    3    3    0    0 -0.19916214096E+02 -0.14368408195E+02  0.75867869086E+01  0.25722870633E+02  0.10000000000E+01 0.  0.
    9000005    1    3    3    0    0  0.19916214096E+02  0.14368408195E+02 -0.21534846560E+03  0.21674655331E+03  0.10000000000E+01 0.  0.
<mgrwt>
<rscale>  0 0.12500603E+03</rscale>
<asrwt>0</asrwt>
<pdfrwt beam="2">  1        4 0.34633160E-01 0.12500603E+03</pdfrwt>
<pdfrwt beam="1">  1       -4 0.26698267E-02 0.12500603E+03</pdfrwt>
<totfact> 0.83419756E+03</totfact>
</mgrwt>
</event>
<event>
 4    1  0.3188180E-002  0.1250812E+03  0.7818608E-02  0.1234942E+00
         -4   -1    0    0    0  501 -0.00000000000E+00  0.00000000000E+00  0.13934490283E+01  0.18853647378E+01  0.12700000000E+01 0.  1.
          4   -1    0    0  501    0  0.00000000000E+00 -0.00000000000E+00 -0.23853275277E+04  0.23853278658E+04  0.12700000000E+01 0.  1.
    9000005    1    1    2    0    0  0.23015627584E+02  0.53219305244E+02 -0.16388711256E+04  0.16398968198E+04  0.10000000000E+01 0.  0.
    9000005    1    1    2    0    0 -0.23015627584E+02 -0.53219305244E+02 -0.74506295314E+03  0.74731641070E+03  0.10000000000E+01 0.  0.
<mgrwt>
<rscale>  0 0.12508124E+03</rscale>
<asrwt>0</asrwt>
<pdfrwt beam="2">  1        4 0.36700855E+00 0.12508124E+03</pdfrwt>
<pdfrwt beam="1">  1       -4 0.25224436E-03 0.12508124E+03</pdfrwt>
<totfact> 0.56070563E+02</totfact>
</mgrwt>
</event>
<event>
 5    1  0.3188180E-002  0.1249972E+03  0.7818608E-02  0.1235074E+00
         -4   -1    0    0    0  501 -0.00000000000E+00  0.00000000000E+00  0.89785048297E+02  0.89794029856E+02  0.12700000000E+01 0.  1.
          4   -1    0    0  501    0  0.00000000000E+00 -0.00000000000E+00 -0.43484288548E+02  0.43502830374E+02  0.12700000000E+01 0.  1.
         25    2    1    2    0    0  0.00000000000E+00  0.00000000000E+00  0.46300759749E+02  0.13329686023E+03  0.12499717034E+03 0.  0.
    9000005    1    3    3    0    0  0.25264806573E+02 -0.39619792991E+02  0.67080773998E+02  0.81907683938E+02  0.10000000000E+01 0.  0.
    9000005    1    3    3    0    0 -0.25264806573E+02  0.39619792991E+02 -0.20780014249E+02  0.51389176292E+02  0.10000000000E+01 0.  0.
<mgrwt>
<rscale>  0 0.12499717E+03</rscale>
<asrwt>0</asrwt>
<pdfrwt beam="2">  1        4 0.66920079E-02 0.12499717E+03</pdfrwt>
<pdfrwt beam="1">  1       -4 0.13815201E-01 0.12499717E+03</pdfrwt>
<totfact> 0.10274751E+04</totfact>
</mgrwt>
</event>
<event>
 5    1  0.3188180E-002  0.1249974E+03  0.7818608E-02  0.1235073E+00
          4   -1    0    0  501    0  0.00000000000E+00  0.00000000000E+00  0.30334858974E+02  0.30361432262E+02  0.12700000000E+01 0.  1.
         -4   -1    0    0    0  501 -0.00000000000E+00 -0.00000000000E+00 -0.12867952529E+03  0.12868579225E+03  0.12700000000E+01 0.  1.
         25    2    1    2    0    0  0.00000000000E+00  0.00000000000E+00 -0.98344666312E+02  0.15904722452E+03  0.12499738491E+03 0.  0.
    9000005    1    3    3    0    0  0.11408493658E+00 -0.61349785137E+02 -0.64296154030E+02  0.88875219126E+02  0.10000000000E+01 0.  0.
    9000005    1    3    3    0    0 -0.11408493658E+00  0.61349785137E+02 -0.34048512283E+02  0.70172005389E+02  0.10000000000E+01 0.  0.
<mgrwt>
<rscale>  0 0.12499738E+03</rscale>
<asrwt>0</asrwt>
<pdfrwt beam="1">  1        4 0.46694276E-02 0.12499738E+03</pdfrwt>
<pdfrwt beam="2">  1       -4 0.19799376E-01 0.12499738E+03</pdfrwt>
<totfact> 0.97532521E+03</totfact>
</mgrwt>
</event>
<event>
 5    1  0.3188180E-002  0.1250081E+03  0.7818608E-02  0.1235057E+00
         -4   -1    0    0    0  501 -0.00000000000E+00  0.00000000000E+00  0.68956525983E+01  0.70116278250E+01  0.12700000000E+01 0.  1.
          4   -1    0    0  501    0  0.00000000000E+00 -0.00000000000E+00 -0.56171199413E+03  0.56171342982E+03  0.12700000000E+01 0.  1.
         25    2    1    2    0    0  0.00000000000E+00  0.00000000000E+00 -0.55481634153E+03  0.56872505765E+03  0.12500807323E+03 0.  0.
    9000005    1    3    3    0    0  0.19224120482E+02  0.10064583089E+02 -0.10770908037E+02  0.24246135796E+02  0.10000000000E+01 0.  0.
    9000005    1    3    3    0    0 -0.19224120482E+02 -0.10064583089E+02 -0.54404543349E+03  0.54447892185E+03  0.10000000000E+01 0.  0.
<mgrwt>
<rscale>  0 0.12500807E+03</rscale>
<asrwt>0</asrwt>
<pdfrwt beam="2">  1        4 0.86426226E-01 0.12500807E+03</pdfrwt>
<pdfrwt beam="1">  1       -4 0.10699017E-02 0.12500807E+03</pdfrwt>
<totfact> 0.50894217E+03</totfact>
</mgrwt>
</event>
<event>
 5    1  0.3188180E-002  0.1250080E+03  0.7818608E-02  0.1235057E+00
         -4   -1    0    0    0  501 -0.00000000000E+00  0.00000000000E+00  0.12277543958E+02  0.12343054146E+02  0.12700000000E+01 0.  1.
          4   -1    0    0  501    0  0.00000000000E+00 -0.00000000000E+00 -0.31728927656E+03  0.31729181823E+03  0.12700000000E+01 0.  1.
         25    2    1    2    0    0  0.00000000000E+00  0.00000000000E+00 -0.30501173260E+03  0.32963487238E+03  0.12500796801E+03 0.  0.
    9000005    1    3    3    0    0  0.31888792760E+02 -0.20292242862E+02 -0.28374558079E+03  0.28625377700E+03  0.10000000000E+01 0.  0.
    9000005    1    3    3    0    0 -0.31888792760E+02  0.20292242862E+02 -0.21266151805E+02  0.43381095383E+02  0.10000000000E+01 0.  0.
<mgrwt>
<rscale>  0 0.12500797E+03</rscale>
<asrwt>0</asrwt>
<pdfrwt beam="2">  1        4 0.48818963E-01 0.12500797E+03</pdfrwt>
<pdfrwt beam="1">  1       -4 0.18940879E-02 0.12500797E+03</pdfrwt>
<totfact> 0.72011941E+03</totfact>
</mgrwt>
</event>
<event>
 5    1  0.3188180E-002  0.1249987E+03  0.7818608E-02  0.1235071E+00
         -4   -1    0    0    0  501 -0.00000000000E+00  0.00000000000E+00  0.19534180939E+02  0.19575421451E+02  0.12700000000E+01 0.  1.
          4   -1    0    0  501    0  0.00000000000E+00 -0.00000000000E+00 -0.19971186434E+03  0.19971590237E+03  0.12700000000E+01 0.  1.
         25    2    1    2    0    0  0.00000000000E+00  0.00000000000E+00 -0.18017768340E+03  0.21929132382E+03  0.12499874842E+03 0.  0.
    9000005    1    3    3    0    0 -0.73161286221E+01 -0.34917459109E+02 -0.18009933366E+03  0.18360153778E+03  0.10000000000E+01 0.  0.
    9000005    1    3    3    0    0  0.73161286221E+01  0.34917459109E+02 -0.78349734302E-01  0.35689786036E+02  0.10000000000E+01 0.  0.
<mgrwt>
<rscale>  0 0.12499875E+03</rscale>
<asrwt>0</asrwt>
<pdfrwt beam="2">  1        4 0.30728384E-01 0.12499875E+03</pdfrwt>
<pdfrwt beam="1">  1       -4 0.30087417E-02 0.12499875E+03</pdfrwt>
<totfact> 0.86983045E+03</totfact>
</mgrwt>
</event>
<event>
 5    1  0.3188180E-002  0.1250009E+03  0.7818608E-02  0.1235068E+00
         -4   -1    0    0    0  501 -0.00000000000E+00  0.00000000000E+00  0.12858650133E+03  0.12859277283E+03  0.12700000000E+01 0.  1.
          4   -1    0    0  501    0  0.00000000000E+00 -0.00000000000E+00 -0.30358528687E+02  0.30385081274E+02  0.12700000000E+01 0.  1.
         25    2    1    2    0    0  0.00000000000E+00  0.00000000000E+00  0.98227972641E+02  0.15897785410E+03  0.12500089394E+03 0.  0.
    9000005    1    3    3    0    0 -0.50995772492E+02  0.30413776006E+02  0.73897693993E+02  0.94802087321E+02  0.10000000000E+01 0.  0.
    9000005    1    3    3    0    0  0.50995772492E+02 -0.30413776006E+02  0.24330278647E+02  0.64175766782E+02  0.10000000000E+01 0.  0.
<mgrwt>
<rscale>  0 0.12500089E+03</rscale>
<asrwt>0</asrwt>
<pdfrwt beam="2">  1        4 0.46730678E-02 0.12500089E+03</pdfrwt>
<pdfrwt beam="1">  1       -4 0.19785064E-01 0.12500089E+03</pdfrwt>
<totfact> 0.97538249E+03</totfact>
</mgrwt>
</event>
<event>
 5    1  0.3188180E-002  0.1249946E+03  0.7818608E-02  0.1235078E+00
         -4   -1    0    0    0  501 -0.00000000000E+00  0.00000000000E+00  0.15870471138E+01  0.20326383204E+01  0.12700000000E+01 0. -1.
          4   -1    0    0  501    0  0.00000000000E+00 -0.00000000000E+00 -0.21577061691E+04  0.21577065428E+04  0.12700000000E+01 0. -1.
         25    2    1    2    0    0  0.00000000000E+00  0.00000000000E+00 -0.21561191220E+04  0.21597391812E+04  0.12499464990E+03 0.  0.
    9000005    1    3    3    0    0  0.29158790265E+02  0.35702618341E+02 -0.34907165155E+03  0.35210357840E+03  0.10000000000E+01 0.  0.
    9000005    1    3    3    0    0 -0.29158790265E+02 -0.35702618341E+02 -0.18070474704E+04  0.18076356028E+04  0.10000000000E+01 0.  0.
<mgrwt>
<rscale>  0 0.12499465E+03</rscale>
<asrwt>0</asrwt>
<pdfrwt beam="2">  1        4 0.33198704E+00 0.12499465E+03</pdfrwt>
<pdfrwt beam="1">  1       -4 0.27846782E-03 0.12499465E+03</pdfrwt>
<totfact> 0.79187843E+02</totfact>
</mgrwt>
</event>
<event>
 5    1  0.3188180E-002  0.1250013E+03  0.7818608E-02  0.1235067E+00
         -4   -1    0    0    0  501 -0.00000000000E+00  0.00000000000E+00  0.53789535821E+03  0.53789685747E+03  0.12700000000E+01 0. -1.
          4   -1    0    0  501    0  0.00000000000E+00 -0.00000000000E+00 -0.72052098275E+01  0.73162797007E+01  0.12700000000E+01 0. -1.
         25    2    1    2    0    0  0.00000000000E+00  0.00000000000E+00  0.53069014838E+03  0.54521313717E+03  0.12500132544E+03 0.  0.
    9000005    1    3    3    0    0  0.38721809158E+02  0.46523603146E+02  0.33312765046E+03  0.33858360217E+03  0.10000000000E+01 0.  0.
    9000005    1    3    3    0    0 -0.38721809158E+02 -0.46523603146E+02  0.19756249792E+03  0.20662953501E+03  0.10000000000E+01 0.  0.
<mgrwt>
<rscale>  0 0.12500133E+03</rscale>
<asrwt>0</asrwt>
<pdfrwt beam="2">  1        4 0.11171531E-02 0.12500133E+03</pdfrwt>
<pdfrwt beam="1">  1       -4 0.82761782E-01 0.12500133E+03</pdfrwt>
<totfact> 0.52517932E+03</totfact>
</mgrwt>
</event>
<event>
 5    1  0.3188180E-002  0.1250008E+03  0.7818608E-02  0.1235068E+00
         -4   -1    0    0    0  501 -0.00000000000E+00  0.00000000000E+00  0.32954480354E+03  0.32954725069E+03  0.12700000000E+01 0. -1.
          4   -1    0    0  501    0  0.00000000000E+00 -0.00000000000E+00 -0.11817115649E+02  0.11885163956E+02  0.12700000000E+01 0. -1.
         25    2    1    2    0    0  0.00000000000E+00  0.00000000000E+00  0.31772768789E+03  0.34143241465E+03  0.12500084048E+03 0.  0.
    9000005    1    3    3    0    0 -0.41200408987E+01 -0.26966991854E+02  0.31243567478E+03  0.31362596235E+03  0.10000000000E+01 0.  0.
    9000005    1    3    3    0    0  0.41200408987E+01  0.26966991854E+02  0.52920131131E+01  0.27806452299E+02  0.10000000000E+01 0.  0.
<mgrwt>
<rscale>  0 0.12500084E+03</rscale>
<asrwt>0</asrwt>
<pdfrwt beam="2">  1        4 0.18234406E-02 0.12500084E+03</pdfrwt>
<pdfrwt beam="1">  1       -4 0.50704621E-01 0.12500084E+03</pdfrwt>
<totfact> 0.70676178E+03</totfact>
</mgrwt>
</event>
<event>
 5    1  0.3188180E-002  0.1249986E+03  0.7818608E-02  0.1235071E+00
         -4   -1    0    0    0  501 -0.00000000000E+00  0.00000000000E+00  0.33173225897E+02  0.33197527264E+02  0.12700000000E+01 0.  1.
          4   -1    0    0  501    0  0.00000000000E+00 -0.00000000000E+00 -0.11767960236E+03  0.11768645509E+03  0.12700000000E+01 0.  1.
         25    2    1    2    0    0  0.00000000000E+00  0.00000000000E+00 -0.84506376464E+02  0.15088398235E+03  0.12499859386E+03 0.  0.
    9000005    1    3    3    0    0 -0.34415143207E+02 -0.42764390461E+02 -0.78303779362E+02  0.95633033184E+02  0.10000000000E+01 0.  0.
    9000005    1    3    3    0    0  0.34415143207E+02  0.42764390461E+02 -0.62025971015E+01  0.55250949171E+02  0.10000000000E+01 0.  0.
<mgrwt>
<rscale>  0 0.12499859E+03</rscale>
<asrwt>0</asrwt>
<pdfrwt beam="2">  1        4 0.18106951E-01 0.12499859E+03</pdfrwt>
<pdfrwt beam="1">  1       -4 0.51059697E-02 0.12499859E+03</pdfrwt>
<totfact> 0.99130918E+03</totfact>
</mgrwt>
</event>
<event>
 5    1  0.3188180E-002  0.1249991E+03  0.7818608E-02  0.1235071E+00
          4   -1    0    0  501    0  0.00000000000E+00  0.00000000000E+00  0.15178990872E+02  0.15232027570E+02  0.12700000000E+01 0.  1.
         -4   -1    0    0    0  501 -0.00000000000E+00 -0.00000000000E+00 -0.25683860047E+03  0.25684174036E+03  0.12700000000E+01 0.  1.
         25    2    1    2    0    0  0.00000000000E+00  0.00000000000E+00 -0.24165960960E+03  0.27207376793E+03  0.12499907314E+03 0.  0.
    9000005    1    3    3    0    0  0.46598212012E+01  0.10228330474E+02 -0.25463107761E+03  0.25488098863E+03  0.10000000000E+01 0.  0.
    9000005    1    3    3    0    0 -0.46598212012E+01 -0.10228330474E+02  0.12971468011E+02  0.17192779306E+02  0.10000000000E+01 0.  0.
<mgrwt>
<rscale>  0 0.12499907E+03</rscale>
<asrwt>0</asrwt>
<pdfrwt beam="1">  1        4 0.23395508E-02 0.12499907E+03</pdfrwt>
<pdfrwt beam="2">  1       -4 0.39517949E-01 0.12499907E+03</pdfrwt>
<totfact> 0.79242577E+03</totfact>
</mgrwt>
</event>
<event>
 5    1  0.3188180E-002  0.1249991E+03  0.7818608E-02  0.1235071E+00
          4   -1    0    0  501    0  0.00000000000E+00  0.00000000000E+00  0.21727741334E+02  0.21764825832E+02  0.12700000000E+01 0. -1.
         -4   -1    0    0    0  501 -0.00000000000E+00 -0.00000000000E+00 -0.17958656351E+03  0.17959105405E+03  0.12700000000E+01 0. -1.
         25    2    1    2    0    0  0.00000000000E+00  0.00000000000E+00 -0.15785882218E+03  0.20135587988E+03  0.12499913049E+03 0.  0.
    9000005    1    3    3    0    0 -0.25792753562E+02  0.14046572945E+02  0.99254961989E+01  0.31017540564E+02  0.10000000000E+01 0.  0.
    9000005    1    3    3    0    0  0.25792753562E+02 -0.14046572945E+02 -0.16778431838E+03  0.17033833932E+03  0.10000000000E+01 0.  0.
<mgrwt>
<rscale>  0 0.12499913E+03</rscale>
<asrwt>0</asrwt>
<pdfrwt beam="1">  1        4 0.33459276E-02 0.12499913E+03</pdfrwt>
<pdfrwt beam="2">  1       -4 0.27631899E-01 0.12499913E+03</pdfrwt>
<totfact> 0.89909079E+03</totfact>
</mgrwt>
</event>
<event>
 5    1  0.3188180E-002  0.1250026E+03  0.7818608E-02  0.1235065E+00
         -4   -1    0    0    0  501 -0.00000000000E+00  0.00000000000E+00  0.23722480156E+02  0.23756451013E+02  0.12700000000E+01 0. -1.
          4   -1    0    0  501    0  0.00000000000E+00 -0.00000000000E+00 -0.16451716726E+03  0.16452206911E+03  0.12700000000E+01 0. -1.
         25    2    1    2    0    0  0.00000000000E+00  0.00000000000E+00 -0.14079468711E+03  0.18827852012E+03  0.12500262886E+03 0.  0.
    9000005    1    3    3    0    0 -0.58443237903E+01 -0.31878629091E+02  0.10082206030E+02  0.33956648711E+02  0.10000000000E+01 0.  0.
    9000005    1    3    3    0    0  0.58443237903E+01  0.31878629091E+02 -0.15087689314E+03  0.15432187141E+03  0.10000000000E+01 0.  0.
<mgrwt>
<rscale>  0 0.12500263E+03</rscale>
<asrwt>0</asrwt>
<pdfrwt beam="2">  1        4 0.25313323E-01 0.12500263E+03</pdfrwt>
<pdfrwt beam="1">  1       -4 0.36526026E-02 0.12500263E+03</pdfrwt>
<totfact> 0.92142285E+03</totfact>
</mgrwt>
</event>
<event>
 5    1  0.3188180E-002  0.1249992E+03  0.7818608E-02  0.1235071E+00
         -4   -1    0    0    0  501 -0.00000000000E+00  0.00000000000E+00  0.36105029185E+01  0.38273530442E+01  0.12700000000E+01 0.  1.
          4   -1    0    0  501    0  0.00000000000E+00 -0.00000000000E+00 -0.10501388777E+04  0.10501396456E+04  0.12700000000E+01 0.  1.
         25    2    1    2    0    0  0.00000000000E+00  0.00000000000E+00 -0.10465283748E+04  0.10539669987E+04  0.12499918042E+03 0.  0.
    9000005    1    3    3    0    0 -0.21606662821E+02  0.58332597984E+02 -0.47291367654E+03  0.47698834925E+03  0.10000000000E+01 0.  0.
    9000005    1    3    3    0    0  0.21606662821E+02 -0.58332597984E+02 -0.57361469823E+03  0.57697864943E+03  0.10000000000E+01 0.  0.
<mgrwt>
<rscale>  0 0.12499918E+03</rscale>
<asrwt>0</asrwt>
<pdfrwt beam="2">  1        4 0.16157633E+00 0.12499918E+03</pdfrwt>
<pdfrwt beam="1">  1       -4 0.57220268E-03 0.12499918E+03</pdfrwt>
<totfact> 0.28871788E+03</totfact>
</mgrwt>
</event>
<event>
 5    1  0.3188180E-002  0.1249975E+03  0.7818608E-02  0.1235073E+00
          4   -1    0    0  501    0  0.00000000000E+00  0.00000000000E+00  0.45759412325E+02  0.45777032629E+02  0.12700000000E+01 0. -1.
         -4   -1    0    0    0  501 -0.00000000000E+00 -0.00000000000E+00 -0.85322743814E+02  0.85332195049E+02  0.12700000000E+01 0. -1.
         25    2    1    2    0    0  0.00000000000E+00  0.00000000000E+00 -0.39563331489E+02  0.13110922768E+03  0.12499748951E+03 0.  0.
    9000005    1    3    3    0    0  0.95257435102E+01 -0.53291502853E+02  0.12959467284E+02  0.55674696748E+02  0.10000000000E+01 0.  0.
    9000005    1    3    3    0    0 -0.95257435102E+01  0.53291502853E+02 -0.52522798773E+02  0.75434530930E+02  0.10000000000E+01 0.  0.
<mgrwt>
<rscale>  0 0.12499749E+03</rscale>
<asrwt>0</asrwt>
<pdfrwt beam="1">  1        4 0.70419920E-02 0.12499749E+03</pdfrwt>
<pdfrwt beam="2">  1       -4 0.13128658E-01 0.12499749E+03</pdfrwt>
<totfact> 0.10321333E+04</totfact>
</mgrwt>
</event>
<event>
 5    1  0.3188180E-002  0.1250060E+03  0.7818608E-02  0.1235060E+00
         -4   -1    0    0    0  501 -0.00000000000E+00  0.00000000000E+00  0.10424624103E+04  0.10424631839E+04  0.12700000000E+01 0.  1.
          4   -1    0    0  501    0  0.00000000000E+00 -0.00000000000E+00 -0.36391034710E+01  0.38543448306E+01  0.12700000000E+01 0.  1.
         25    2    1    2    0    0  0.00000000000E+00  0.00000000000E+00  0.10388233068E+04  0.10463175287E+04  0.12500603233E+03 0.  0.
    9000005    1    3    3    0    0  0.30499095945E+02 -0.30370757160E+02  0.89866744156E+03  0.89969814286E+03  0.10000000000E+01 0.  0.
    9000005    1    3    3    0    0 -0.30499095945E+02  0.30370757160E+02  0.14015586524E+03  0.14661938584E+03  0.10000000000E+01 0.  0.
<mgrwt>
<rscale>  0 0.12500603E+03</rscale>
<asrwt>0</asrwt>
<pdfrwt beam="2">  1        4 0.57647791E-03 0.12500603E+03</pdfrwt>
<pdfrwt beam="1">  1       -4 0.16039564E+00 0.12500603E+03</pdfrwt>
<totfact> 0.29106157E+03</totfact>
</mgrwt>
</event>
<event>
 5    1  0.3188180E-002  0.1250119E+03  0.7818608E-02  0.1235051E+00
         -4   -1    0    0    0  501 -0.00000000000E+00  0.00000000000E+00  0.35869802257E+02  0.35892277916E+02  0.12700000000E+01 0.  1.
          4   -1    0    0  501    0  0.00000000000E+00 -0.00000000000E+00 -0.10886121344E+03  0.10886862124E+03  0.12700000000E+01 0.  1.
         25    2    1    2    0    0  0.00000000000E+00  0.00000000000E+00 -0.72991411181E+02  0.14476089916E+03  0.12501188671E+03 0.  0.
    9000005    1    3    3    0    0 -0.51777623073E+02 -0.28373107280E+02 -0.12763178352E+02  0.60414023119E+02  0.10000000000E+01 0.  0.
    9000005    1    3    3    0    0  0.51777623073E+02  0.28373107280E+02 -0.60228232829E+02  0.84346876039E+02  0.10000000000E+01 0.  0.
<mgrwt>
<rscale>  0 0.12501189E+03</rscale>
<asrwt>0</asrwt>
<pdfrwt beam="2">  1        4 0.16750178E-01 0.12501189E+03</pdfrwt>
<pdfrwt beam="1">  1       -4 0.55207299E-02 0.12501189E+03</pdfrwt>
<totfact> 0.10033163E+04</totfact>
</mgrwt>
</event>
<event>
 5    1  0.3188180E-002  0.1249949E+03  0.7818608E-02  0.1235077E+00
         -4   -1    0    0    0  501 -0.00000000000E+00  0.00000000000E+00  0.32753039067E+03  0.32753285287E+03  0.12700000000E+01 0. -1.
          4   -1    0    0  501    0  0.00000000000E+00 -0.00000000000E+00 -0.11889067737E+02  0.11956706556E+02  0.12700000000E+01 0. -1.
         25    2    1    2    0    0  0.00000000000E+00  0.00000000000E+00  0.31564132293E+03  0.33948955943E+03  0.12499486477E+03 0.  0.
    9000005    1    3    3    0    0  0.11720205416E+02  0.45931919363E+02  0.26840752596E+03  0.27256321180E+03  0.10000000000E+01 0.  0.
    9000005    1    3    3    0    0 -0.11720205416E+02 -0.45931919363E+02  0.47233796969E+02  0.66926347633E+02  0.10000000000E+01 0.  0.
<mgrwt>
<rscale>  0 0.12499486E+03</rscale>
<asrwt>0</asrwt>
<pdfrwt beam="2">  1        4 0.18344799E-02 0.12499486E+03</pdfrwt>
<pdfrwt beam="1">  1       -4 0.50394678E-01 0.12499486E+03</pdfrwt>
<totfact> 0.70904587E+03</totfact>
</mgrwt>
</event>
<event>
 5    1  0.3188180E-002  0.1250011E+03  0.7818608E-02  0.1235068E+00
          4   -1    0    0  501    0  0.00000000000E+00  0.00000000000E+00  0.46213139817E+02  0.46230587188E+02  0.12700000000E+01 0.  1.
         -4   -1    0    0    0  501 -0.00000000000E+00 -0.00000000000E+00 -0.84490139683E+02  0.84499684045E+02  0.12700000000E+01 0.  1.
         25    2    1    2    0    0  0.00000000000E+00  0.00000000000E+00 -0.38276999866E+02  0.13073027123E+03  0.12500110039E+03 0.  0.
    9000005    1    3    3    0    0 -0.13373288835E+01  0.24944709098E+02 -0.79046490625E+02  0.82905817893E+02  0.10000000000E+01 0.  0.
    9000005    1    3    3    0    0  0.13373288835E+01 -0.24944709098E+02  0.40769490758E+02  0.47824453339E+02  0.10000000000E+01 0.  0.
<mgrwt>
<rscale>  0 0.12500110E+03</rscale>
<asrwt>0</asrwt>
<pdfrwt beam="1">  1        4 0.71117901E-02 0.12500110E+03</pdfrwt>
<pdfrwt beam="2">  1       -4 0.13000559E-01 0.12500110E+03</pdfrwt>
<totfact> 0.10328619E+04</totfact>
</mgrwt>
</event>
<event>
 5    1  0.3188180E-002  0.1250015E+03  0.7818608E-02  0.1235067E+00
          4   -1    0    0  501    0  0.00000000000E+00  0.00000000000E+00  0.37782344628E+02  0.37803683228E+02  0.12700000000E+01 0.  1.
         -4   -1    0    0    0  501 -0.00000000000E+00 -0.00000000000E+00 -0.10333621461E+03  0.10334401845E+03  0.12700000000E+01 0.  1.
         25    2    1    2    0    0  0.00000000000E+00  0.00000000000E+00 -0.65553869980E+02  0.14114770168E+03  0.12500145527E+03 0.  0.
    9000005    1    3    3    0    0 -0.42650226352E+02 -0.27242198931E+00 -0.84351943410E+02  0.94527066910E+02  0.10000000000E+01 0.  0.
    9000005    1    3    3    0    0  0.42650226352E+02  0.27242198931E+00  0.18798073429E+02  0.46620634769E+02  0.10000000000E+01 0.  0.
<mgrwt>
<rscale>  0 0.12500146E+03</rscale>
<asrwt>0</asrwt>
<pdfrwt beam="1">  1        4 0.58149102E-02 0.12500146E+03</pdfrwt>
<pdfrwt beam="2">  1       -4 0.15900121E-01 0.12500146E+03</pdfrwt>
<totfact> 0.10109523E+04</totfact>
</mgrwt>
</event>
<event>
 5    1  0.3188180E-002  0.1250001E+03  0.7818608E-02  0.1235069E+00
          4   -1    0    0  501    0  0.00000000000E+00  0.00000000000E+00  0.53283530043E+02  0.53298662965E+02  0.12700000000E+01 0.  1.
         -4   -1    0    0    0  501 -0.00000000000E+00 -0.00000000000E+00 -0.73279741703E+02  0.73290745965E+02  0.12700000000E+01 0.  1.
         25    2    1    2    0    0  0.00000000000E+00  0.00000000000E+00 -0.19996211660E+02  0.12658940893E+03  0.12500011989E+03 0.  0.
    9000005    1    3    3    0    0  0.59183982250E+02 -0.19500115625E+02 -0.52201514530E+01  0.62539973182E+02  0.10000000000E+01 0.  0.
    9000005    1    3    3    0    0 -0.59183982250E+02  0.19500115625E+02 -0.14776060207E+02  0.64049435748E+02  0.10000000000E+01 0.  0.
<mgrwt>
<rscale>  0 0.12500012E+03</rscale>
<asrwt>0</asrwt>
<pdfrwt beam="1">  1        4 0.81994767E-02 0.12500012E+03</pdfrwt>
<pdfrwt beam="2">  1       -4 0.11275817E-01 0.12500012E+03</pdfrwt>
<totfact> 0.10418051E+04</totfact>
</mgrwt>
</event>
<event>
 5    1  0.3188180E-002  0.1250000E+03  0.7818608E-02  0.1235069E+00
          4   -1    0    0  501    0  0.00000000000E+00  0.00000000000E+00  0.28397426430E+03  0.28397710415E+03  0.12700000000E+01 0. -1.
         -4   -1    0    0    0  501 -0.00000000000E+00 -0.00000000000E+00 -0.13723423260E+02  0.13782062471E+02  0.12700000000E+01 0. -1.
         25    2    1    2    0    0  0.00000000000E+00  0.00000000000E+00  0.27025084104E+03  0.29775916663E+03  0.12500001691E+03 0.  0.
    9000005    1    3    3    0    0  0.14266849226E+02  0.16405052756E+02  0.27468689487E+03  0.27554774352E+03  0.10000000000E+01 0.  0.
    9000005    1    3    3    0    0 -0.14266849226E+02 -0.16405052756E+02 -0.44360538360E+01  0.22211423106E+02  0.10000000000E+01 0.  0.
<mgrwt>
<rscale>  0 0.12500002E+03</rscale>
<asrwt>0</asrwt>
<pdfrwt beam="1">  1        4 0.43693077E-01 0.12500002E+03</pdfrwt>
<pdfrwt beam="2">  1       -4 0.21160250E-02 0.12500002E+03</pdfrwt>
<totfact> 0.75880757E+03</totfact>
</mgrwt>
</event>
<event>
 5    1  0.3188180E-002  0.1250002E+03  0.7818608E-02  0.1235069E+00
         -4   -1    0    0    0  501 -0.00000000000E+00  0.00000000000E+00  0.19708895551E+02  0.19749771235E+02  0.12700000000E+01 0. -1.
          4   -1    0    0  501    0  0.00000000000E+00 -0.00000000000E+00 -0.19794980070E+03  0.19795387467E+03  0.12700000000E+01 0. -1.
         25    2    1    2    0    0  0.00000000000E+00  0.00000000000E+00 -0.17824090515E+03  0.21770364590E+03  0.12500022869E+03 0.  0.
    9000005    1    3    3    0    0  0.21696832805E+02 -0.83597050819E+01  0.11903268724E+02  0.26140486398E+02  0.10000000000E+01 0.  0.
    9000005    1    3    3    0    0 -0.21696832805E+02  0.83597050819E+01 -0.19014417387E+03  0.19156315951E+03  0.10000000000E+01 0.  0.
<mgrwt>
<rscale>  0 0.12500023E+03</rscale>
<asrwt>0</asrwt>
<pdfrwt beam="2">  1        4 0.30457272E-01 0.12500023E+03</pdfrwt>
<pdfrwt beam="1">  1       -4 0.30355956E-02 0.12500023E+03</pdfrwt>
<totfact> 0.87232582E+03</totfact>
</mgrwt>
</event>
<event>
 5    1  0.3188180E-002  0.1249685E+03  0.7818608E-02  0.1235118E+00
         -4   -1    0    0    0  501 -0.00000000000E+00  0.00000000000E+00  0.26675121397E+02  0.26705336574E+02  0.12700000000E+01 0. -1.
          4   -1    0    0  501    0  0.00000000000E+00 -0.00000000000E+00 -0.14624837623E+03  0.14625389038E+03  0.12700000000E+01 0. -1.
         25    2    1    2    0    0  0.00000000000E+00  0.00000000000E+00 -0.11957325484E+03  0.17295922695E+03  0.12496851970E+03 0.  0.
    9000005    1    3    3    0    0 -0.39717958568E+02  0.48009948768E+02 -0.53472797546E+02  0.82114624099E+02  0.10000000000E+01 0.  0.
    9000005    1    3    3    0    0  0.39717958568E+02 -0.48009948768E+02 -0.66100457289E+02  0.90844602852E+02  0.10000000000E+01 0.  0.
<mgrwt>
<rscale>  0 0.12496852E+03</rscale>
<asrwt>0</asrwt>
<pdfrwt beam="2">  1        4 0.22502498E-01 0.12496852E+03</pdfrwt>
<pdfrwt beam="1">  1       -4 0.41066133E-02 0.12496852E+03</pdfrwt>
<totfact> 0.94967003E+03</totfact>
</mgrwt>
</event>
<event>
 5    1  0.3188180E-002  0.1250021E+03  0.7818608E-02  0.1235066E+00
         -4   -1    0    0    0  501 -0.00000000000E+00  0.00000000000E+00  0.49282852903E+02  0.49299213891E+02  0.12700000000E+01 0.  1.
          4   -1    0    0  501    0  0.00000000000E+00 -0.00000000000E+00 -0.79229905459E+02  0.79240083412E+02  0.12700000000E+01 0.  1.
         25    2    1    2    0    0  0.00000000000E+00  0.00000000000E+00 -0.29947052556E+02  0.12853929730E+03  0.12500209996E+03 0.  0.
    9000005    1    3    3    0    0  0.56593246957E+02 -0.21913816439E+02  0.36052813432E+00  0.60697124583E+02  0.10000000000E+01 0.  0.
    9000005    1    3    3    0    0 -0.56593246957E+02  0.21913816439E+02 -0.30307580690E+02  0.67842172720E+02  0.10000000000E+01 0.  0.
<mgrwt>
<rscale>  0 0.12500210E+03</rscale>
<asrwt>0</asrwt>
<pdfrwt beam="2">  1        4 0.12191258E-01 0.12500210E+03</pdfrwt>
<pdfrwt beam="1">  1       -4 0.75840188E-02 0.12500210E+03</pdfrwt>
<totfact> 0.10375365E+04</totfact>
</mgrwt>
</event>
<event>
 5    1  0.3188180E-002  0.1249990E+03  0.7818608E-02  0.1235071E+00
          4   -1    0    0  501    0  0.00000000000E+00  0.00000000000E+00  0.30470104064E+02  0.30496559506E+02  0.12700000000E+01 0.  1.
         -4   -1    0    0    0  501 -0.00000000000E+00 -0.00000000000E+00 -0.12811224128E+03  0.12811853600E+03  0.12700000000E+01 0.  1.
         25    2    1    2    0    0  0.00000000000E+00  0.00000000000E+00 -0.97642137220E+02  0.15861509551E+03  0.12499904624E+03 0.  0.
    9000005    1    3    3    0    0  0.42212694635E+02  0.73916437878E+01 -0.10653498277E+03  0.11483575462E+03  0.10000000000E+01 0.  0.
    9000005    1    3    3    0    0 -0.42212694635E+02 -0.73916437878E+01  0.88928455479E+01  0.43779340884E+02  0.10000000000E+01 0.  0.
<mgrwt>
<rscale>  0 0.12499905E+03</rscale>
<asrwt>0</asrwt>
<pdfrwt beam="1">  1        4 0.46902276E-02 0.12499905E+03</pdfrwt>
<pdfrwt beam="2">  1       -4 0.19712095E-01 0.12499905E+03</pdfrwt>
<totfact> 0.97612543E+03</totfact>
</mgrwt>
</event>
<event>
 5    1  0.3188180E-002  0.1249976E+03  0.7818608E-02  0.1235073E+00
         -4   -1    0    0    0  501 -0.00000000000E+00  0.00000000000E+00  0.62998215447E+01  0.64265582932E+01  0.12700000000E+01 0.  1.
          4   -1    0    0  501    0  0.00000000000E+00 -0.00000000000E+00 -0.61373108380E+03  0.61373239781E+03  0.12700000000E+01 0.  1.
         25    2    1    2    0    0  0.00000000000E+00  0.00000000000E+00 -0.60743126225E+03  0.62015895610E+03  0.12499756986E+03 0.  0.
    9000005    1    3    3    0    0 -0.16699012675E+02 -0.58342829741E+02 -0.22973377827E+03  0.23761597523E+03  0.10000000000E+01 0.  0.
    9000005    1    3    3    0    0  0.16699012675E+02  0.58342829741E+02 -0.37769748399E+03  0.38254298087E+03  0.10000000000E+01 0.  0.
<mgrwt>
<rscale>  0 0.12499757E+03</rscale>
<asrwt>0</asrwt>
<pdfrwt beam="2">  1        4 0.94429970E-01 0.12499757E+03</pdfrwt>
<pdfrwt beam="1">  1       -4 0.97905385E-03 0.12499757E+03</pdfrwt>
<totfact> 0.47621906E+03</totfact>
</mgrwt>
</event>
<event>
 5    1  0.3188180E-002  0.1249952E+03  0.7818608E-02  0.1235077E+00
         -4   -1    0    0    0  501 -0.00000000000E+00  0.00000000000E+00  0.45913543713E+01  0.47637626896E+01  0.12700000000E+01 0.  1.
          4   -1    0    0  501    0  0.00000000000E+00 -0.00000000000E+00 -0.83486778964E+03  0.83486875560E+03  0.12700000000E+01 0.  1.
         25    2    1    2    0    0  0.00000000000E+00  0.00000000000E+00 -0.83027643527E+03  0.83963251829E+03  0.12499522714E+03 0.  0.
    9000005    1    3    3    0    0  0.47860035535E+02 -0.26890945218E+02 -0.21460119632E+03  0.22151383568E+03  0.10000000000E+01 0.  0.
    9000005    1    3    3    0    0 -0.47860035535E+02  0.26890945218E+02 -0.61567523896E+03  0.61811868262E+03  0.10000000000E+01 0.  0.
<mgrwt>
<rscale>  0 0.12499523E+03</rscale>
<asrwt>0</asrwt>
<pdfrwt beam="2">  1        4 0.12845442E+00 0.12499523E+03</pdfrwt>
<pdfrwt beam="1">  1       -4 0.71969936E-03 0.12499523E+03</pdfrwt>
<totfact> 0.36559209E+03</totfact>
</mgrwt>
</event>
<event>
 5    1  0.3188180E-002  0.1250002E+03  0.7818608E-02  0.1235069E+00
         -4   -1    0    0    0  501 -0.00000000000E+00  0.00000000000E+00  0.14496853982E+02  0.14552376967E+02  0.12700000000E+01 0. -1.
          4   -1    0    0  501    0  0.00000000000E+00 -0.00000000000E+00 -0.26888380380E+03  0.26888680304E+03  0.12700000000E+01 0. -1.
         25    2    1    2    0    0  0.00000000000E+00  0.00000000000E+00 -0.25438694982E+03  0.28343918000E+03  0.12500019409E+03 0.  0.
    9000005    1    3    3    0    0 -0.18258949861E+02 -0.55612687046E+02 -0.17682563206E+03  0.18626450108E+03  0.10000000000E+01 0.  0.
    9000005    1    3    3    0    0  0.18258949861E+02  0.55612687046E+02 -0.77561317765E+02  0.97174678924E+02  0.10000000000E+01 0.  0.
<mgrwt>
<rscale>  0 0.12500019E+03</rscale>
<asrwt>0</asrwt>
<pdfrwt beam="2">  1        4 0.41371237E-01 0.12500019E+03</pdfrwt>
<pdfrwt beam="1">  1       -4 0.22347871E-02 0.12500019E+03</pdfrwt>
<totfact> 0.77723960E+03</totfact>
</mgrwt>
</event>
<event>
 5    1  0.3188180E-002  0.1249985E+03  0.7818608E-02  0.1235072E+00
         -4   -1    0    0    0  501 -0.00000000000E+00  0.00000000000E+00  0.74496981036E+01  0.75571755196E+01  0.12700000000E+01 0.  1.
          4   -1    0    0  501    0  0.00000000000E+00 -0.00000000000E+00 -0.52047437812E+03  0.52047592757E+03  0.12700000000E+01 0.  1.
         25    2    1    2    0    0  0.00000000000E+00  0.00000000000E+00 -0.51302468001E+03  0.52803310309E+03  0.12499854260E+03 0.  0.
    9000005    1    3    3    0    0 -0.51112592451E+02 -0.26461279294E+02 -0.35933447928E+03  0.36391615024E+03  0.10000000000E+01 0.  0.
    9000005    1    3    3    0    0  0.51112592451E+02  0.26461279294E+02 -0.15369020074E+03  0.16411695285E+03  0.10000000000E+01 0.  0.
<mgrwt>
<rscale>  0 0.12499854E+03</rscale>
<asrwt>0</asrwt>
<pdfrwt beam="2">  1        4 0.80081340E-01 0.12499854E+03</pdfrwt>
<pdfrwt beam="1">  1       -4 0.11544945E-02 0.12499854E+03</pdfrwt>
<totfact> 0.53754838E+03</totfact>
</mgrwt>
</event>
<event>
 5    1  0.3188180E-002  0.1249984E+03  0.7818608E-02  0.1235072E+00
         -4   -1    0    0    0  501 -0.00000000000E+00  0.00000000000E+00  0.69253963998E+02  0.69265607840E+02  0.12700000000E+01 0.  1.
          4   -1    0    0  501    0  0.00000000000E+00 -0.00000000000E+00 -0.56379705917E+02  0.56394008008E+02  0.12700000000E+01 0.  1.
         25    2    1    2    0    0  0.00000000000E+00  0.00000000000E+00  0.12874258082E+02  0.12565961585E+03  0.12499837013E+03 0.  0.
    9000005    1    3    3    0    0 -0.55386194177E+02 -0.12436264362E+02  0.32706897602E+02  0.65521235699E+02  0.10000000000E+01 0.  0.
    9000005    1    3    3    0    0  0.55386194177E+02  0.12436264362E+02 -0.19832639520E+02  0.60138380150E+02  0.10000000000E+01 0.  0.
<mgrwt>
<rscale>  0 0.12499837E+03</rscale>
<asrwt>0</asrwt>
<pdfrwt beam="2">  1        4 0.86757968E-02 0.12499837E+03</pdfrwt>
<pdfrwt beam="1">  1       -4 0.10656452E-01 0.12499837E+03</pdfrwt>
<totfact> 0.10438817E+04</totfact>
</mgrwt>
</event>
<event>
 5    1  0.3188180E-002  0.1249994E+03  0.7818608E-02  0.1235070E+00
         -4   -1    0    0    0  501 -0.00000000000E+00  0.00000000000E+00  0.95744132491E+02  0.95752555091E+02  0.12700000000E+01 0. -1.
          4   -1    0    0  501    0  0.00000000000E+00 -0.00000000000E+00 -0.40778321130E+02  0.40798092776E+02  0.12700000000E+01 0. -1.
         25    2    1    2    0    0  0.00000000000E+00  0.00000000000E+00  0.54965811361E+02  0.13655064787E+03  0.12499935606E+03 0.  0.
    9000005    1    3    3    0    0 -0.54816671847E+01  0.56530902425E+02 -0.99149299437E+00  0.56813507746E+02  0.10000000000E+01 0.  0.
    9000005    1    3    3    0    0  0.54816671847E+01 -0.56530902425E+02  0.55957304356E+02  0.79737140122E+02  0.10000000000E+01 0.  0.
<mgrwt>
<rscale>  0 0.12499936E+03</rscale>
<asrwt>0</asrwt>
<pdfrwt beam="2">  1        4 0.62757567E-02 0.12499936E+03</pdfrwt>
<pdfrwt beam="1">  1       -4 0.14732035E-01 0.12499936E+03</pdfrwt>
<totfact> 0.10205638E+04</totfact>
</mgrwt>
</event>
<event>
 5    1  0.3188180E-002  0.1249982E+03  0.7818608E-02  0.1235072E+00
          4   -1    0    0  501    0  0.00000000000E+00  0.00000000000E+00  0.38792157370E+02  0.38812940798E+02  0.12700000000E+01 0. -1.
         -4   -1    0    0    0  501 -0.00000000000E+00 -0.00000000000E+00 -0.10064228448E+03  0.10065029720E+03  0.12700000000E+01 0. -1.
         25    2    1    2    0    0  0.00000000000E+00  0.00000000000E+00 -0.61850127115E+02  0.13946323800E+03  0.12499822610E+03 0.  0.
    9000005    1    3    3    0    0 -0.62002964714E+02 -0.19426496427E+01 -0.39348401439E+02  0.73467259489E+02  0.10000000000E+01 0.  0.
    9000005    1    3    3    0    0  0.62002964714E+02  0.19426496427E+01 -0.22501725676E+02  0.65995978509E+02  0.10000000000E+01 0.  0.
<mgrwt>
<rscale>  0 0.12499823E+03</rscale>
<asrwt>0</asrwt>
<pdfrwt beam="1">  1        4 0.59702393E-02 0.12499823E+03</pdfrwt>
<pdfrwt beam="2">  1       -4 0.15485643E-01 0.12499823E+03</pdfrwt>
<totfact> 0.10145128E+04</totfact>
</mgrwt>
</event>
<event>
 5    1  0.3188180E-002  0.1249969E+03  0.7818608E-02  0.1235074E+00
         -4   -1    0    0    0  501 -0.00000000000E+00  0.00000000000E+00  0.75560041956E+01  0.76619905641E+01  0.12700000000E+01 0.  1.
          4   -1    0    0  501    0  0.00000000000E+00 -0.00000000000E+00 -0.51324047066E+03  0.51324204195E+03  0.12700000000E+01 0.  1.
         25    2    1    2    0    0  0.00000000000E+00  0.00000000000E+00 -0.50568446647E+03  0.52090403252E+03  0.12499692582E+03 0.  0.
    9000005    1    3    3    0    0 -0.10500405930E+02  0.57281181859E+02 -0.15839296320E+03  0.16876232728E+03  0.10000000000E+01 0.  0.
    9000005    1    3    3    0    0  0.10500405930E+02 -0.57281181859E+02 -0.34729150327E+03  0.35214170523E+03  0.10000000000E+01 0.  0.
<mgrwt>
<rscale>  0 0.12499693E+03</rscale>
<asrwt>0</asrwt>
<pdfrwt beam="2">  1        4 0.78968319E-01 0.12499693E+03</pdfrwt>
<pdfrwt beam="1">  1       -4 0.11707363E-02 0.12499693E+03</pdfrwt>
<totfact> 0.54281859E+03</totfact>
</mgrwt>
</event>
<event>
 5    1  0.3188180E-002  0.1249936E+03  0.7818608E-02  0.1235079E+00
         -4   -1    0    0    0  501 -0.00000000000E+00  0.00000000000E+00  0.12567988426E+02  0.12631992443E+02  0.12700000000E+01 0. -1.
          4   -1    0    0  501    0  0.00000000000E+00 -0.00000000000E+00 -0.30992323974E+03  0.30992584182E+03  0.12700000000E+01 0. -1.
         25    2    1    2    0    0  0.00000000000E+00  0.00000000000E+00 -0.29735525131E+03  0.32255783427E+03  0.12499364369E+03 0.  0.
    9000005    1    3    3    0    0  0.52857351494E+02 -0.32382920365E+02 -0.16904627841E+03  0.18005609510E+03  0.10000000000E+01 0.  0.
    9000005    1    3    3    0    0 -0.52857351494E+02  0.32382920365E+02 -0.12830897290E+03  0.14250173917E+03  0.10000000000E+01 0.  0.
<mgrwt>
<rscale>  0 0.12499364E+03</rscale>
<asrwt>0</asrwt>
<pdfrwt beam="2">  1        4 0.47685616E-01 0.12499364E+03</pdfrwt>
<pdfrwt beam="1">  1       -4 0.19386605E-02 0.12499364E+03</pdfrwt>
<totfact> 0.72863201E+03</totfact>
</mgrwt>
</event>
<event>
 5    1  0.3188180E-002  0.1249979E+03  0.7818608E-02  0.1235073E+00
         -4   -1    0    0    0  501 -0.00000000000E+00  0.00000000000E+00  0.35229218449E+02  0.35252102526E+02  0.12700000000E+01 0. -1.
          4   -1    0    0  501    0  0.00000000000E+00 -0.00000000000E+00 -0.11081473026E+03  0.11082200748E+03  0.12700000000E+01 0. -1.
         25    2    1    2    0    0  0.00000000000E+00  0.00000000000E+00 -0.75585511807E+02  0.14607411001E+03  0.12499790406E+03 0.  0.
    9000005    1    3    3    0    0  0.26883208463E+02 -0.40171357382E+02 -0.84077395726E+02  0.96986871912E+02  0.10000000000E+01 0.  0.
    9000005    1    3    3    0    0 -0.26883208463E+02  0.40171357382E+02  0.84918839195E+01  0.49087238094E+02  0.10000000000E+01 0.  0.
<mgrwt>
<rscale>  0 0.12499790E+03</rscale>
<asrwt>0</asrwt>
<pdfrwt beam="2">  1        4 0.17050740E-01 0.12499790E+03</pdfrwt>
<pdfrwt beam="1">  1       -4 0.54221999E-02 0.12499790E+03</pdfrwt>
<totfact> 0.10009683E+04</totfact>
</mgrwt>
</event>
<event>
 5    1  0.3188180E-002  0.1250018E+03  0.7818608E-02  0.1235066E+00
         -4   -1    0    0    0  501 -0.00000000000E+00  0.00000000000E+00  0.27052081197E+04  0.27052084178E+04  0.12700000000E+01 0. -1.
          4   -1    0    0  501    0  0.00000000000E+00 -0.00000000000E+00 -0.11644210480E+01  0.17230137483E+01  0.12700000000E+01 0. -1.
         25    2    1    2    0    0  0.00000000000E+00  0.00000000000E+00  0.27040436987E+04  0.27069314316E+04  0.12500180375E+03 0.  0.
    9000005    1    3    3    0    0  0.29277451473E+02 -0.44187636300E+02  0.20688188458E+04  0.20694980390E+04  0.10000000000E+01 0.  0.
    9000005    1    3    3    0    0 -0.29277451473E+02  0.44187636300E+02  0.63522485284E+03  0.63743339262E+03  0.10000000000E+01 0.  0.
<mgrwt>
<rscale>  0 0.12500180E+03</rscale>
<asrwt>0</asrwt>
<pdfrwt beam="2">  1        4 0.22213420E-03 0.12500180E+03</pdfrwt>
<pdfrwt beam="1">  1       -4 0.41622718E+00 0.12500180E+03</pdfrwt>
<totfact> 0.32400002E+02</totfact>
</mgrwt>
</event>
<event>
 5    1  0.3188180E-002  0.1250541E+03  0.7818608E-02  0.1234985E+00
          4   -1    0    0  501    0  0.00000000000E+00  0.00000000000E+00  0.12749598618E+02  0.12812695459E+02  0.12700000000E+01 0.  1.
         -4   -1    0    0    0  501 -0.00000000000E+00 -0.00000000000E+00 -0.30582634712E+03  0.30582898406E+03  0.12700000000E+01 0.  1.
         25    2    1    2    0    0  0.00000000000E+00  0.00000000000E+00 -0.29307674850E+03  0.31864167952E+03  0.12505414593E+03 0.  0.
    9000005    1    3    3    0    0 -0.42092719058E+02 -0.62087196874E+01 -0.29820543386E+02  0.51967393678E+02  0.10000000000E+01 0.  0.
    9000005    1    3    3    0    0  0.42092719058E+02  0.62087196874E+01 -0.26325620512E+03  0.26667428584E+03  0.10000000000E+01 0.  0.
<mgrwt>
<rscale>  0 0.12505415E+03</rscale>
<asrwt>0</asrwt>
<pdfrwt beam="1">  1        4 0.19665334E-02 0.12505415E+03</pdfrwt>
<pdfrwt beam="2">  1       -4 0.47055258E-01 0.12505415E+03</pdfrwt>
<totfact> 0.73230035E+03</totfact>
</mgrwt>
</event>
<event>
 5    1  0.3188180E-002  0.1249980E+03  0.7818608E-02  0.1235072E+00
         -4   -1    0    0    0  501 -0.00000000000E+00  0.00000000000E+00  0.22323004194E+03  0.22323365455E+03  0.12700000000E+01 0.  1.
          4   -1    0    0  501    0  0.00000000000E+00 -0.00000000000E+00 -0.17471402123E+02  0.17517499598E+02  0.12700000000E+01 0.  1.
         25    2    1    2    0    0  0.00000000000E+00  0.00000000000E+00  0.20575863982E+03  0.24075115415E+03  0.12499800144E+03 0.  0.
    9000005    1    3    3    0    0  0.32115714724E+02 -0.53173811365E+02  0.11597805518E+03  0.13157044740E+03  0.10000000000E+01 0.  0.
    9000005    1    3    3    0    0 -0.32115714724E+02  0.53173811365E+02  0.89780584641E+02  0.10918070675E+03  0.10000000000E+01 0.  0.
<mgrwt>
<rscale>  0 0.12499800E+03</rscale>
<asrwt>0</asrwt>
<pdfrwt beam="2">  1        4 0.26917321E-02 0.12499800E+03</pdfrwt>
<pdfrwt beam="1">  1       -4 0.34346904E-01 0.12499800E+03</pdfrwt>
<totfact> 0.83689354E+03</totfact>
</mgrwt>
</event>
<event>
 5    1  0.3188180E-002  0.1250017E+03  0.7818608E-02  0.1235067E+00
         -4   -1    0    0    0  501 -0.00000000000E+00  0.00000000000E+00  0.46624714407E+02  0.46642007820E+02  0.12700000000E+01 0. -1.
          4   -1    0    0  501    0  0.00000000000E+00 -0.00000000000E+00 -0.83745242334E+02  0.83754871582E+02  0.12700000000E+01 0. -1.
         25    2    1    2    0    0  0.00000000000E+00  0.00000000000E+00 -0.37120527927E+02  0.13039687940E+03  0.12500165025E+03 0.  0.
    9000005    1    3    3    0    0  0.61175177673E+02  0.29401698766E+01 -0.31518417160E+02  0.68887281718E+02  0.10000000000E+01 0.  0.
    9000005    1    3    3    0    0 -0.61175177673E+02 -0.29401698766E+01 -0.56021107670E+01  0.61509597684E+02  0.10000000000E+01 0.  0.
<mgrwt>
<rscale>  0 0.12500165E+03</rscale>
<asrwt>0</asrwt>
<pdfrwt beam="2">  1        4 0.12885954E-01 0.12500165E+03</pdfrwt>
<pdfrwt beam="1">  1       -4 0.71751040E-02 0.12500165E+03</pdfrwt>
<totfact> 0.10335640E+04</totfact>
</mgrwt>
</event>
<event>
 5    1  0.3188180E-002  0.1249998E+03  0.7818608E-02  0.1235070E+00
          4   -1    0    0  501    0  0.00000000000E+00  0.00000000000E+00  0.64168726633E+03  0.64168852310E+03  0.12700000000E+01 0. -1.
         -4   -1    0    0    0  501 -0.00000000000E+00 -0.00000000000E+00 -0.60199352812E+01  0.61524402305E+01  0.12700000000E+01 0. -1.
         25    2    1    2    0    0  0.00000000000E+00  0.00000000000E+00  0.63566733105E+03  0.64784096333E+03  0.12499983199E+03 0.  0.
    9000005    1    3    3    0    0  0.52233838706E+02  0.34023989768E+02  0.34056320053E+03  0.34622290413E+03  0.10000000000E+01 0.  0.
    9000005    1    3    3    0    0 -0.52233838706E+02 -0.34023989768E+02  0.29510413052E+03  0.30161805920E+03  0.10000000000E+01 0.  0.
<mgrwt>
<rscale>  0 0.12499983E+03</rscale>
<asrwt>0</asrwt>
<pdfrwt beam="1">  1        4 0.98731390E-01 0.12499983E+03</pdfrwt>
<pdfrwt beam="2">  1       -4 0.93643341E-03 0.12499983E+03</pdfrwt>
<totfact> 0.45980624E+03</totfact>
</mgrwt>
</event>
<event>
 5    1  0.3188180E-002  0.1250013E+03  0.7818608E-02  0.1235067E+00
         -4   -1    0    0    0  501 -0.00000000000E+00  0.00000000000E+00  0.28689011543E+02  0.28717107850E+02  0.12700000000E+01 0. -1.
          4   -1    0    0  501    0  0.00000000000E+00 -0.00000000000E+00 -0.13606352384E+03  0.13606945072E+03  0.12700000000E+01 0. -1.
         25    2    1    2    0    0  0.00000000000E+00  0.00000000000E+00 -0.10737451229E+03  0.16478655857E+03  0.12500129597E+03 0.  0.
    9000005    1    3    3    0    0  0.18540654300E+02 -0.57780816966E+02 -0.73371252398E+02  0.95219322354E+02  0.10000000000E+01 0.  0.
    9000005    1    3    3    0    0 -0.18540654300E+02  0.57780816966E+02 -0.34003259897E+02  0.69567236216E+02  0.10000000000E+01 0.  0.
<mgrwt>
<rscale>  0 0.12500130E+03</rscale>
<asrwt>0</asrwt>
<pdfrwt beam="2">  1        4 0.20935467E-01 0.12500130E+03</pdfrwt>
<pdfrwt beam="1">  1       -4 0.44163113E-02 0.12500130E+03</pdfrwt>
<totfact> 0.96425023E+03</totfact>
</mgrwt>
</event>
<event>
 5    1  0.3188180E-002  0.1249962E+03  0.7818608E-02  0.1235075E+00
         -4   -1    0    0    0  501 -0.00000000000E+00  0.00000000000E+00  0.12654267425E+03  0.12654904704E+03  0.12700000000E+01 0.  1.
          4   -1    0    0  501    0  0.00000000000E+00 -0.00000000000E+00 -0.30846946170E+02  0.30873078694E+02  0.12700000000E+01 0.  1.
         25    2    1    2    0    0  0.00000000000E+00  0.00000000000E+00  0.95695728081E+02  0.15742212573E+03  0.12499621313E+03 0.  0.
    9000005    1    3    3    0    0  0.35709657846E+02 -0.51111604759E+02  0.53106962172E+02  0.81908029128E+02  0.10000000000E+01 0.  0.
    9000005    1    3    3    0    0 -0.35709657846E+02  0.51111604759E+02  0.42588765909E+02  0.75514096605E+02  0.10000000000E+01 0.  0.
<mgrwt>
<rscale>  0 0.12499621E+03</rscale>
<asrwt>0</asrwt>
<pdfrwt beam="2">  1        4 0.47481845E-02 0.12499621E+03</pdfrwt>
<pdfrwt beam="1">  1       -4 0.19470604E-01 0.12499621E+03</pdfrwt>
<totfact> 0.97850424E+03</totfact>
</mgrwt>
</event>
<event>
 5    1  0.3188180E-002  0.1250015E+03  0.7818608E-02  0.1235067E+00
          4   -1    0    0  501    0  0.00000000000E+00  0.00000000000E+00  0.23773102484E+02  0.23807001107E+02  0.12700000000E+01 0.  1.
         -4   -1    0    0    0  501 -0.00000000000E+00 -0.00000000000E+00 -0.16416429550E+03  0.16416920788E+03  0.12700000000E+01 0.  1.
         25    2    1    2    0    0  0.00000000000E+00  0.00000000000E+00 -0.14039119301E+03  0.18797620899E+03  0.12500147227E+03 0.  0.
    9000005    1    3    3    0    0  0.46041533253E+00  0.61139969455E+02 -0.50760333570E+02  0.79472758298E+02  0.10000000000E+01 0.  0.
    9000005    1    3    3    0    0 -0.46041533253E+00 -0.61139969455E+02 -0.89630859442E+02  0.10850345069E+03  0.10000000000E+01 0.  0.
<mgrwt>
<rscale>  0 0.12500147E+03</rscale>
<asrwt>0</asrwt>
<pdfrwt beam="1">  1        4 0.36603859E-02 0.12500147E+03</pdfrwt>
<pdfrwt beam="2">  1       -4 0.25259030E-01 0.12500147E+03</pdfrwt>
<totfact> 0.92197603E+03</totfact>
</mgrwt>
</event>
<event>
 5    1  0.3188180E-002  0.1250001E+03  0.7818608E-02  0.1235069E+00
         -4   -1    0    0    0  501 -0.00000000000E+00  0.00000000000E+00  0.12397294676E+02  0.12462175383E+02  0.12700000000E+01 0.  1.
          4   -1    0    0  501    0  0.00000000000E+00 -0.00000000000E+00 -0.31420082629E+03  0.31420339295E+03  0.12700000000E+01 0.  1.
         25    2    1    2    0    0  0.00000000000E+00  0.00000000000E+00 -0.30180353161E+03  0.32666556833E+03  0.12500008736E+03 0.  0.
    9000005    1    3    3    0    0 -0.49012609765E+02 -0.21665556293E+02 -0.23492012030E+03  0.24095662508E+03  0.10000000000E+01 0.  0.
    9000005    1    3    3    0    0  0.49012609765E+02  0.21665556293E+02 -0.66883411313E+02  0.85708943257E+02  0.10000000000E+01 0.  0.
<mgrwt>
<rscale>  0 0.12500009E+03</rscale>
<asrwt>0</asrwt>
<pdfrwt beam="2">  1        4 0.48343771E-01 0.12500009E+03</pdfrwt>
<pdfrwt beam="1">  1       -4 0.19124646E-02 0.12500009E+03</pdfrwt>
<totfact> 0.72370158E+03</totfact>
</mgrwt>
</event>
<event>
 5    1  0.3188180E-002  0.1249967E+03  0.7818608E-02  0.1235074E+00
         -4   -1    0    0    0  501 -0.00000000000E+00  0.00000000000E+00  0.21774780606E+03  0.21775150962E+03  0.12700000000E+01 0. -1.
          4   -1    0    0  501    0  0.00000000000E+00 -0.00000000000E+00 -0.17912050038E+02  0.17957016360E+02  0.12700000000E+01 0. -1.
         25    2    1    2    0    0  0.00000000000E+00  0.00000000000E+00  0.19983575602E+03  0.23570852598E+03  0.12499671930E+03 0.  0.
    9000005    1    3    3    0    0 -0.43799593946E+02  0.34238435328E+01  0.18371926221E+03  0.18890181164E+03  0.10000000000E+01 0.  0.
    9000005    1    3    3    0    0  0.43799593946E+02 -0.34238435328E+01  0.16116493804E+02  0.46806714335E+02  0.10000000000E+01 0.  0.
<mgrwt>
<rscale>  0 0.12499672E+03</rscale>
<asrwt>0</asrwt>
<pdfrwt beam="2">  1        4 0.27594438E-02 0.12499672E+03</pdfrwt>
<pdfrwt beam="1">  1       -4 0.33503407E-01 0.12499672E+03</pdfrwt>
<totfact> 0.84446863E+03</totfact>
</mgrwt>
</event>
<event>
 5    1  0.3188180E-002  0.1249931E+03  0.7818608E-02  0.1235080E+00
         -4   -1    0    0    0  501 -0.00000000000E+00  0.00000000000E+00  0.44527599577E+01  0.46303316556E+01  0.12700000000E+01 0. -1.
          4   -1    0    0  501    0  0.00000000000E+00 -0.00000000000E+00 -0.85984110748E+03  0.85984204538E+03  0.12700000000E+01 0. -1.
         25    2    1    2    0    0  0.00000000000E+00  0.00000000000E+00 -0.85538834752E+03  0.86447237704E+03  0.12499306217E+03 0.  0.
    9000005    1    3    3    0    0  0.42363115254E+02  0.43499376930E+02 -0.52980706662E+03  0.53327606093E+03  0.10000000000E+01 0.  0.
    9000005    1    3    3    0    0 -0.42363115254E+02 -0.43499376930E+02 -0.32558128090E+03  0.33119631611E+03  0.10000000000E+01 0.  0.
<mgrwt>
<rscale>  0 0.12499306E+03</rscale>
<asrwt>0</asrwt>
<pdfrwt beam="2">  1        4 0.13229685E+00 0.12499306E+03</pdfrwt>
<pdfrwt beam="1">  1       -4 0.69877219E-03 0.12499306E+03</pdfrwt>
<totfact> 0.35547729E+03</totfact>
</mgrwt>
</event>
<event>
 5    1  0.3188180E-002  0.1250027E+03  0.7818608E-02  0.1235065E+00
         -4   -1    0    0    0  501 -0.00000000000E+00  0.00000000000E+00  0.72487611713E+03  0.72487722966E+03  0.12700000000E+01 0.  1.
          4   -1    0    0  501    0  0.00000000000E+00 -0.00000000000E+00 -0.53131340631E+01  0.54628100436E+01  0.12700000000E+01 0.  1.
         25    2    1    2    0    0  0.00000000000E+00  0.00000000000E+00  0.71956298307E+03  0.73034003971E+03  0.12500274797E+03 0.  0.
    9000005    1    3    3    0    0  0.32143763439E+02 -0.17190433639E+02  0.63205104531E+02  0.72969978591E+02  0.10000000000E+01 0.  0.
    9000005    1    3    3    0    0 -0.32143763439E+02  0.17190433639E+02  0.65635787854E+03  0.65737006112E+03  0.10000000000E+01 0.  0.
<mgrwt>
<rscale>  0 0.12500275E+03</rscale>
<asrwt>0</asrwt>
<pdfrwt beam="2">  1        4 0.82900423E-03 0.12500275E+03</pdfrwt>
<pdfrwt beam="1">  1       -4 0.11153102E+00 0.12500275E+03</pdfrwt>
<totfact> 0.41530083E+03</totfact>
</mgrwt>
</event>
<event>
 5    1  0.3188180E-002  0.1250043E+03  0.7818608E-02  0.1235062E+00
         -4   -1    0    0    0  501 -0.00000000000E+00  0.00000000000E+00  0.25198699116E+03  0.25199019150E+03  0.12700000000E+01 0. -1.
          4   -1    0    0  501    0  0.00000000000E+00 -0.00000000000E+00 -0.15473555915E+02  0.15525586387E+02  0.12700000000E+01 0. -1.
         25    2    1    2    0    0  0.00000000000E+00  0.00000000000E+00  0.23651343524E+03  0.26751577789E+03  0.12500434540E+03 0.  0.
    9000005    1    3    3    0    0 -0.28761026891E+02  0.53749755882E+02  0.14770002532E+03  0.15978901841E+03  0.10000000000E+01 0.  0.
    9000005    1    3    3    0    0  0.28761026891E+02 -0.53749755882E+02  0.88813409922E+02  0.10772675948E+03  0.10000000000E+01 0.  0.
<mgrwt>
<rscale>  0 0.12500435E+03</rscale>
<asrwt>0</asrwt>
<pdfrwt beam="2">  1        4 0.23847956E-02 0.12500435E+03</pdfrwt>
<pdfrwt beam="1">  1       -4 0.38771478E-01 0.12500435E+03</pdfrwt>
<totfact> 0.79855041E+03</totfact>
</mgrwt>
</event>
<event>
 5    1  0.3188180E-002  0.1249907E+03  0.7818608E-02  0.1235084E+00
         -4   -1    0    0    0  501 -0.00000000000E+00  0.00000000000E+00  0.53213198094E+03  0.53213349644E+03  0.12700000000E+01 0. -1.
          4   -1    0    0  501    0  0.00000000000E+00 -0.00000000000E+00 -0.72831828002E+01  0.73930813401E+01  0.12700000000E+01 0. -1.
         25    2    1    2    0    0  0.00000000000E+00  0.00000000000E+00  0.52484879814E+03  0.53952657778E+03  0.12499066856E+03 0.  0.
    9000005    1    3    3    0    0 -0.38426400334E+02  0.36584316357E+02  0.40491362410E+03  0.40837610535E+03  0.10000000000E+01 0.  0.
    9000005    1    3    3    0    0  0.38426400334E+02 -0.36584316357E+02  0.11993517404E+03  0.13115047243E+03  0.10000000000E+01 0.  0.
<mgrwt>
<rscale>  0 0.12499067E+03</rscale>
<asrwt>0</asrwt>
<pdfrwt beam="2">  1        4 0.11290601E-02 0.12499067E+03</pdfrwt>
<pdfrwt beam="1">  1       -4 0.81875022E-01 0.12499067E+03</pdfrwt>
<totfact> 0.52933770E+03</totfact>
</mgrwt>
</event>
<event>
 5    1  0.3188180E-002  0.1249989E+03  0.7818608E-02  0.1235071E+00
          4   -1    0    0  501    0  0.00000000000E+00  0.00000000000E+00  0.13819383420E+03  0.13819966972E+03  0.12700000000E+01 0. -1.
         -4   -1    0    0    0  501 -0.00000000000E+00 -0.00000000000E+00 -0.28245262027E+02  0.28273799303E+02  0.12700000000E+01 0. -1.
         25    2    1    2    0    0  0.00000000000E+00  0.00000000000E+00  0.10994857217E+03  0.16647346902E+03  0.12499890946E+03 0.  0.
    9000005    1    3    3    0    0 -0.10520613192E+02 -0.61567907391E+02  0.52347121843E+02  0.81501605430E+02  0.10000000000E+01 0.  0.
    9000005    1    3    3    0    0  0.10520613192E+02  0.61567907391E+02  0.57601450328E+02  0.84971863592E+02  0.10000000000E+01 0.  0.
<mgrwt>
<rscale>  0 0.12499891E+03</rscale>
<asrwt>0</asrwt>
<pdfrwt beam="1">  1        4 0.21263234E-01 0.12499891E+03</pdfrwt>
<pdfrwt beam="2">  1       -4 0.43480690E-02 0.12499891E+03</pdfrwt>
<totfact> 0.96111421E+03</totfact>
</mgrwt>
</event>
<event>
 5    1  0.3188180E-002  0.1250005E+03  0.7818608E-02  0.1235069E+00
          4   -1    0    0  501    0  0.00000000000E+00  0.00000000000E+00  0.25714017166E+01  0.28679272634E+01  0.12700000000E+01 0. -1.
         -4   -1    0    0    0  501 -0.00000000000E+00 -0.00000000000E+00 -0.14360130058E+04  0.14360135674E+04  0.12700000000E+01 0. -1.
         25    2    1    2    0    0  0.00000000000E+00  0.00000000000E+00 -0.14334416041E+04  0.14388814947E+04  0.12500049335E+03 0.  0.
    9000005    1    3    3    0    0 -0.32016696277E+02  0.46533166212E+02 -0.10244925784E+04  0.10260489499E+04  0.10000000000E+01 0.  0.
    9000005    1    3    3    0    0  0.32016696277E+02 -0.46533166212E+02 -0.40894902569E+03  0.41283254476E+03  0.10000000000E+01 0.  0.
<mgrwt>
<rscale>  0 0.12500049E+03</rscale>
<asrwt>0</asrwt>
<pdfrwt beam="1">  1        4 0.41845427E-03 0.12500049E+03</pdfrwt>
<pdfrwt beam="2">  1       -4 0.22094733E+00 0.12500049E+03</pdfrwt>
<totfact> 0.19161497E+03</totfact>
</mgrwt>
</event>
<event>
 5    1  0.3188180E-002  0.1249996E+03  0.7818608E-02  0.1235070E+00
         -4   -1    0    0    0  501 -0.00000000000E+00  0.00000000000E+00  0.22367805000E+03  0.22368165538E+03  0.12700000000E+01 0.  1.
          4   -1    0    0  501    0  0.00000000000E+00 -0.00000000000E+00 -0.17436751076E+02  0.17482939915E+02  0.12700000000E+01 0.  1.
         25    2    1    2    0    0  0.00000000000E+00  0.00000000000E+00  0.20624129893E+03  0.24116459529E+03  0.12499955456E+03 0.  0.
    9000005    1    3    3    0    0  0.52412673664E+02 -0.79818324844E+01  0.16694669225E+03  0.17516562466E+03  0.10000000000E+01 0.  0.
    9000005    1    3    3    0    0 -0.52412673664E+02  0.79818324844E+01  0.39294606678E+02  0.65998970632E+02  0.10000000000E+01 0.  0.
<mgrwt>
<rscale>  0 0.12499955E+03</rscale>
<asrwt>0</asrwt>
<pdfrwt beam="2">  1        4 0.26864074E-02 0.12499955E+03</pdfrwt>
<pdfrwt beam="1">  1       -4 0.34415838E-01 0.12499955E+03</pdfrwt>
<totfact> 0.83625056E+03</totfact>
</mgrwt>
</event>
<event>
 5    1  0.3188180E-002  0.1250003E+03  0.7818608E-02  0.1235069E+00
          4   -1    0    0  501    0  0.00000000000E+00  0.00000000000E+00  0.57286721493E+02  0.57300797197E+02  0.12700000000E+01 0. -1.
         -4   -1    0    0    0  501 -0.00000000000E+00 -0.00000000000E+00 -0.68159684422E+02  0.68171515169E+02  0.12700000000E+01 0. -1.
         25    2    1    2    0    0  0.00000000000E+00  0.00000000000E+00 -0.10872962929E+02  0.12547231237E+03  0.12500031939E+03 0.  0.
    9000005    1    3    3    0    0 -0.47006272491E+02 -0.27587484724E+02 -0.36123325219E+02  0.65395363687E+02  0.10000000000E+01 0.  0.
    9000005    1    3    3    0    0  0.47006272491E+02  0.27587484724E+02  0.25250362290E+02  0.60076948679E+02  0.10000000000E+01 0.  0.
<mgrwt>
<rscale>  0 0.12500032E+03</rscale>
<asrwt>0</asrwt>
<pdfrwt beam="1">  1        4 0.88153346E-02 0.12500032E+03</pdfrwt>
<pdfrwt beam="2">  1       -4 0.10488098E-01 0.12500032E+03</pdfrwt>
<totfact> 0.10442491E+04</totfact>
</mgrwt>
</event>
<event>
 5    1  0.3188180E-002  0.1249990E+03  0.7818608E-02  0.1235071E+00
          4   -1    0    0  501    0  0.00000000000E+00  0.00000000000E+00  0.37424244251E+03  0.37424459739E+03  0.12700000000E+01 0.  1.
         -4   -1    0    0    0  501 -0.00000000000E+00 -0.00000000000E+00 -0.10396766655E+02  0.10474046824E+02  0.12700000000E+01 0.  1.
         25    2    1    2    0    0  0.00000000000E+00  0.00000000000E+00  0.36384567585E+03  0.38471864421E+03  0.12499903747E+03 0.  0.
    9000005    1    3    3    0    0  0.58459211421E+02 -0.22079722160E+02  0.18328650763E+03  0.19364900571E+03  0.10000000000E+01 0.  0.
    9000005    1    3    3    0    0 -0.58459211421E+02  0.22079722160E+02  0.18055916822E+03  0.19106963850E+03  0.10000000000E+01 0.  0.
<mgrwt>
<rscale>  0 0.12499904E+03</rscale>
<asrwt>0</asrwt>
<pdfrwt beam="1">  1        4 0.57581879E-01 0.12499904E+03</pdfrwt>
<pdfrwt beam="2">  1       -4 0.16056127E-02 0.12499904E+03</pdfrwt>
<totfact> 0.66068073E+03</totfact>
</mgrwt>
</event>
<event>
 5    1  0.3188180E-002  0.1250017E+03  0.7818608E-02  0.1235067E+00
         -4   -1    0    0    0  501 -0.00000000000E+00  0.00000000000E+00  0.15691172017E+02  0.15742483262E+02  0.12700000000E+01 0.  1.
          4   -1    0    0  501    0  0.00000000000E+00 -0.00000000000E+00 -0.24849302231E+03  0.24849626765E+03  0.12700000000E+01 0.  1.
         25    2    1    2    0    0  0.00000000000E+00  0.00000000000E+00 -0.23280185029E+03  0.26423875091E+03  0.12500166393E+03 0.  0.
    9000005    1    3    3    0    0  0.42164560715E+02  0.36531626217E+02 -0.17592628097E+03  0.18456290589E+03  0.10000000000E+01 0.  0.
    9000005    1    3    3    0    0 -0.42164560715E+02 -0.36531626217E+02 -0.56875569320E+02  0.79675845021E+02  0.10000000000E+01 0.  0.
<mgrwt>
<rscale>  0 0.12500166E+03</rscale>
<asrwt>0</asrwt>
<pdfrwt beam="2">  1        4 0.38233889E-01 0.12500166E+03</pdfrwt>
<pdfrwt beam="1">  1       -4 0.24182233E-02 0.12500166E+03</pdfrwt>
<totfact> 0.80311896E+03</totfact>
</mgrwt>
</event>
<event>
 5    1  0.3188180E-002  0.1250022E+03  0.7818608E-02  0.1235066E+00
          4   -1    0    0  501    0  0.00000000000E+00  0.00000000000E+00  0.74117445070E+03  0.74117553877E+03  0.12700000000E+01 0.  1.
         -4   -1    0    0    0  501 -0.00000000000E+00 -0.00000000000E+00 -0.51929229501E+01  0.53459656532E+01  0.12700000000E+01 0.  1.
         25    2    1    2    0    0  0.00000000000E+00  0.00000000000E+00  0.73598152775E+03  0.74652150443E+03  0.12500218949E+03 0.  0.
    9000005    1    3    3    0    0 -0.20773726711E+01  0.16427659517E+02  0.72786436438E+03  0.72805337470E+03  0.10000000000E+01 0.  0.
    9000005    1    3    3    0    0  0.20773726711E+01 -0.16427659517E+02  0.81171633723E+01  0.18468129727E+02  0.10000000000E+01 0.  0.
<mgrwt>
<rscale>  0 0.12500219E+03</rscale>
<asrwt>0</asrwt>
<pdfrwt beam="1">  1        4 0.11403869E+00 0.12500219E+03</pdfrwt>
<pdfrwt beam="2">  1       -4 0.81076746E-03 0.12500219E+03</pdfrwt>
<totfact> 0.40739116E+03</totfact>
</mgrwt>
</event>
<event>
 5    1  0.3188180E-002  0.1250050E+03  0.7818608E-02  0.1235061E+00
         -4   -1    0    0    0  501 -0.00000000000E+00  0.00000000000E+00  0.24880606171E+03  0.24880930297E+03  0.12700000000E+01 0. -1.
          4   -1    0    0  501    0  0.00000000000E+00 -0.00000000000E+00 -0.15672202755E+02  0.15723575903E+02  0.12700000000E+01 0. -1.
         25    2    1    2    0    0  0.00000000000E+00  0.00000000000E+00  0.23313385896E+03  0.26453287888E+03  0.12500499115E+03 0.  0.
    9000005    1    3    3    0    0  0.20968299672E+02 -0.58863315929E+02  0.11868564593E+03  0.13413367252E+03  0.10000000000E+01 0.  0.
    9000005    1    3    3    0    0 -0.20968299672E+02  0.58863315929E+02  0.11444821303E+03  0.13039920636E+03  0.10000000000E+01 0.  0.
<mgrwt>
<rscale>  0 0.12500499E+03</rscale>
<asrwt>0</asrwt>
<pdfrwt beam="2">  1        4 0.24153092E-02 0.12500499E+03</pdfrwt>
<pdfrwt beam="1">  1       -4 0.38282056E-01 0.12500499E+03</pdfrwt>
<totfact> 0.80265198E+03</totfact>
</mgrwt>
</event>
<event>
 5    1  0.3188180E-002  0.1249921E+03  0.7818608E-02  0.1235082E+00
          4   -1    0    0  501    0  0.00000000000E+00  0.00000000000E+00  0.25542948903E+03  0.25543264625E+03  0.12700000000E+01 0. -1.
         -4   -1    0    0    0  501 -0.00000000000E+00 -0.00000000000E+00 -0.15261297302E+02  0.15314048953E+02  0.12700000000E+01 0. -1.
         25    2    1    2    0    0  0.00000000000E+00  0.00000000000E+00  0.24016819173E+03  0.27074669520E+03  0.12499205031E+03 0.  0.
    9000005    1    3    3    0    0  0.29797317049E+02 -0.17048193899E+02  0.69842041789E+01  0.35047112956E+02  0.10000000000E+01 0.  0.
    9000005    1    3    3    0    0 -0.29797317049E+02  0.17048193899E+02  0.23318398755E+03  0.23569958224E+03  0.10000000000E+01 0.  0.
<mgrwt>
<rscale>  0 0.12499205E+03</rscale>
<asrwt>0</asrwt>
<pdfrwt beam="1">  1        4 0.39301146E-01 0.12499205E+03</pdfrwt>
<pdfrwt beam="2">  1       -4 0.23521925E-02 0.12499205E+03</pdfrwt>
<totfact> 0.79435219E+03</totfact>
</mgrwt>
</event>
<event>
 5    1  0.3188180E-002  0.1249968E+03  0.7818608E-02  0.1235074E+00
          4   -1    0    0  501    0  0.00000000000E+00  0.00000000000E+00  0.12136801202E+04  0.12136807847E+04  0.12700000000E+01 0. -1.
         -4   -1    0    0    0  501 -0.00000000000E+00 -0.00000000000E+00 -0.30923734232E+01  0.33430036477E+01  0.12700000000E+01 0. -1.
         25    2    1    2    0    0  0.00000000000E+00  0.00000000000E+00  0.12105877468E+04  0.12170237884E+04  0.12499683467E+03 0.  0.
    9000005    1    3    3    0    0 -0.26835857744E+02 -0.55861636105E+02  0.52717965947E+03  0.53081077514E+03  0.10000000000E+01 0.  0.
    9000005    1    3    3    0    0  0.26835857744E+02  0.55861636105E+02  0.68340808735E+03  0.68621301321E+03  0.10000000000E+01 0.  0.
<mgrwt>
<rscale>  0 0.12499683E+03</rscale>
<asrwt>0</asrwt>
<pdfrwt beam="1">  1        4 0.18673943E+00 0.12499683E+03</pdfrwt>
<pdfrwt beam="2">  1       -4 0.49507990E-03 0.12499683E+03</pdfrwt>
<totfact> 0.24273118E+03</totfact>
</mgrwt>
</event>
<event>
 5    1  0.3188180E-002  0.1249998E+03  0.7818608E-02  0.1235070E+00
          4   -1    0    0  501    0  0.00000000000E+00  0.00000000000E+00  0.27633332093E+01  0.30412021350E+01  0.12700000000E+01 0. -1.
         -4   -1    0    0    0  501 -0.00000000000E+00 -0.00000000000E+00 -0.13456476798E+04  0.13456482791E+04  0.12700000000E+01 0. -1.
         25    2    1    2    0    0  0.00000000000E+00  0.00000000000E+00 -0.13428843466E+04  0.13486894813E+04  0.12499979393E+03 0.  0.
    9000005    1    3    3    0    0 -0.56201102677E+02 -0.14991143012E+02 -0.91793964476E+03  0.91978121841E+03  0.10000000000E+01 0.  0.
    9000005    1    3    3    0    0  0.56201102677E+02  0.14991143012E+02 -0.42494470185E+03  0.42890826285E+03  0.10000000000E+01 0.  0.
<mgrwt>
<rscale>  0 0.12499979E+03</rscale>
<asrwt>0</asrwt>
<pdfrwt beam="1">  1        4 0.44654989E-03 0.12499979E+03</pdfrwt>
<pdfrwt beam="2">  1       -4 0.20704364E+00 0.12499979E+03</pdfrwt>
<totfact> 0.21107831E+03</totfact>
</mgrwt>
</event>
<event>
 5    1  0.3188180E-002  0.1250007E+03  0.7818608E-02  0.1235068E+00
         -4   -1    0    0    0  501 -0.00000000000E+00  0.00000000000E+00  0.40201011111E+02  0.40221066549E+02  0.12700000000E+01 0. -1.
          4   -1    0    0  501    0  0.00000000000E+00 -0.00000000000E+00 -0.97120551773E+02  0.97128855016E+02  0.12700000000E+01 0. -1.
         25    2    1    2    0    0  0.00000000000E+00  0.00000000000E+00 -0.56919540662E+02  0.13734992157E+03  0.12500066738E+03 0.  0.
    9000005    1    3    3    0    0 -0.18611297525E+01  0.22329748875E+02  0.35640590255E+02  0.42110962498E+02  0.10000000000E+01 0.  0.
    9000005    1    3    3    0    0  0.18611297525E+01 -0.22329748875E+02 -0.92560130917E+02  0.95238959067E+02  0.10000000000E+01 0.  0.
<mgrwt>
<rscale>  0 0.12500067E+03</rscale>
<asrwt>0</asrwt>
<pdfrwt beam="2">  1        4 0.14943805E-01 0.12500067E+03</pdfrwt>
<pdfrwt beam="1">  1       -4 0.61869524E-02 0.12500067E+03</pdfrwt>
<totfact> 0.10188621E+04</totfact>
</mgrwt>
</event>
<event>
 5    1  0.3188180E-002  0.1250031E+03  0.7818608E-02  0.1235064E+00
          4   -1    0    0  501    0  0.00000000000E+00  0.00000000000E+00  0.19108646122E+03  0.19109068152E+03  0.12700000000E+01 0. -1.
         -4   -1    0    0    0  501 -0.00000000000E+00 -0.00000000000E+00 -0.20419149820E+02  0.20458606486E+02  0.12700000000E+01 0. -1.
         25    2    1    2    0    0  0.00000000000E+00  0.00000000000E+00  0.17066731140E+03  0.21154928800E+03  0.12500308025E+03 0.  0.
    9000005    1    3    3    0    0 -0.91804965797E+01  0.46646303569E+00 -0.19277055868E+02  0.21379990368E+02  0.10000000000E+01 0.  0.
    9000005    1    3    3    0    0  0.91804965797E+01 -0.46646303569E+00  0.18994436727E+03  0.19016929764E+03  0.10000000000E+01 0.  0.
<mgrwt>
<rscale>  0 0.12500308E+03</rscale>
<asrwt>0</asrwt>
<pdfrwt beam="1">  1        4 0.29401275E-01 0.12500308E+03</pdfrwt>
<pdfrwt beam="2">  1       -4 0.31447676E-02 0.12500308E+03</pdfrwt>
<totfact> 0.88217412E+03</totfact>
</mgrwt>
</event>
<event>
 5    1  0.3188180E-002  0.1249861E+03  0.7818608E-02  0.1235091E+00
          4   -1    0    0  501    0  0.00000000000E+00  0.00000000000E+00  0.88932211708E+02  0.88941279389E+02  0.12700000000E+01 0.  1.
         -4   -1    0    0    0  501 -0.00000000000E+00 -0.00000000000E+00 -0.43893624657E+02  0.43911993641E+02  0.12700000000E+01 0.  1.
         25    2    1    2    0    0  0.00000000000E+00  0.00000000000E+00  0.45038587051E+02  0.13285327303E+03  0.12498607055E+03 0.  0.
    9000005    1    3    3    0    0  0.48928397443E+02  0.17963803006E+02 -0.14112887116E+02  0.54007961242E+02  0.10000000000E+01 0.  0.
    9000005    1    3    3    0    0 -0.48928397443E+02 -0.17963803006E+02  0.59151474168E+02  0.78845311788E+02  0.10000000000E+01 0.  0.
<mgrwt>
<rscale>  0 0.12498607E+03</rscale>
<asrwt>0</asrwt>
<pdfrwt beam="1">  1        4 0.13683989E-01 0.12498607E+03</pdfrwt>
<pdfrwt beam="2">  1       -4 0.67549759E-02 0.12498607E+03</pdfrwt>
<totfact> 0.10286751E+04</totfact>
</mgrwt>
</event>
<event>
 4    1  0.3188180E-002  0.1249366E+03  0.7818608E-02  0.1235168E+00
         -4   -1    0    0    0  501 -0.00000000000E+00  0.00000000000E+00  0.37206977466E+02  0.37228645854E+02  0.12700000000E+01 0. -1.
          4   -1    0    0  501    0  0.00000000000E+00 -0.00000000000E+00 -0.10482450184E+03  0.10483219489E+03  0.12700000000E+01 0. -1.
    9000005    1    1    2    0    0 -0.42817392225E+02  0.32156140736E+02 -0.70370998433E+02  0.88433160547E+02  0.10000000000E+01 0.  0.
    9000005    1    1    2    0    0  0.42817392225E+02 -0.32156140736E+02  0.27534740608E+01  0.53627680198E+02  0.10000000000E+01 0.  0.
<mgrwt>
<rscale>  0 0.12493660E+03</rscale>
<asrwt>0</asrwt>
<pdfrwt beam="2">  1        4 0.16129105E-01 0.12493660E+03</pdfrwt>
<pdfrwt beam="1">  1       -4 0.57264090E-02 0.12493660E+03</pdfrwt>
<totfact> 0.10105476E+04</totfact>
</mgrwt>
</event>
<event>
 5    1  0.3188180E-002  0.1250188E+03  0.7818608E-02  0.1235040E+00
          4   -1    0    0  501    0  0.00000000000E+00  0.00000000000E+00  0.67140263115E+02  0.67152273462E+02  0.12700000000E+01 0.  1.
         -4   -1    0    0    0  501 -0.00000000000E+00 -0.00000000000E+00 -0.58173827975E+02  0.58187689087E+02  0.12700000000E+01 0.  1.
         25    2    1    2    0    0  0.00000000000E+00  0.00000000000E+00  0.89664351396E+01  0.12533996255E+03  0.12501883559E+03 0.  0.
    9000005    1    3    3    0    0  0.46056756345E+02 -0.34895853654E+02  0.28366285852E+02  0.64378502470E+02  0.10000000000E+01 0.  0.
    9000005    1    3    3    0    0 -0.46056756345E+02  0.34895853654E+02 -0.19399850713E+02  0.60961460079E+02  0.10000000000E+01 0.  0.
<mgrwt>
<rscale>  0 0.12501884E+03</rscale>
<asrwt>0</asrwt>
<pdfrwt beam="1">  1        4 0.10331261E-01 0.12501884E+03</pdfrwt>
<pdfrwt beam="2">  1       -4 0.89518098E-02 0.12501884E+03</pdfrwt>
<totfact> 0.10441038E+04</totfact>
</mgrwt>
</event>
<event>
 5    1  0.3188180E-002  0.1249902E+03  0.7818608E-02  0.1235085E+00
         -4   -1    0    0    0  501 -0.00000000000E+00  0.00000000000E+00  0.48841801801E+02  0.48858310483E+02  0.12700000000E+01 0.  1.
          4   -1    0    0  501    0  0.00000000000E+00 -0.00000000000E+00 -0.79929996344E+02  0.79940085161E+02  0.12700000000E+01 0.  1.
         25    2    1    2    0    0  0.00000000000E+00  0.00000000000E+00 -0.31088194542E+02  0.12879839564E+03  0.12499020314E+03 0.  0.
    9000005    1    3    3    0    0 -0.61585193359E+02  0.69285054852E+01 -0.23781236021E+02  0.66387404046E+02  0.10000000000E+01 0.  0.
    9000005    1    3    3    0    0  0.61585193359E+02 -0.69285054852E+01 -0.73069585215E+01  0.62410991597E+02  0.10000000000E+01 0.  0.
<mgrwt>
<rscale>  0 0.12499020E+03</rscale>
<asrwt>0</asrwt>
<pdfrwt beam="2">  1        4 0.12298968E-01 0.12499020E+03</pdfrwt>
<pdfrwt beam="1">  1       -4 0.75161693E-02 0.12499020E+03</pdfrwt>
<totfact> 0.10372575E+04</totfact>
</mgrwt>
</event>
<event>
 5    1  0.3188180E-002  0.1250018E+03  0.7818608E-02  0.1235066E+00
         -4   -1    0    0    0  501 -0.00000000000E+00  0.00000000000E+00  0.23081938351E+02  0.23116850522E+02  0.12700000000E+01 0.  1.
          4   -1    0    0  501    0  0.00000000000E+00 -0.00000000000E+00 -0.16907369176E+03  0.16907846150E+03  0.12700000000E+01 0.  1.
         25    2    1    2    0    0  0.00000000000E+00  0.00000000000E+00 -0.14599175341E+03  0.19219531203E+03  0.12500178360E+03 0.  0.
    9000005    1    3    3    0    0 -0.38644778611E+02  0.48465620399E+02 -0.85202263990E+02  0.10536964014E+03  0.10000000000E+01 0.  0.
    9000005    1    3    3    0    0  0.38644778611E+02 -0.48465620399E+02 -0.60789489416E+02  0.86825671884E+02  0.10000000000E+01 0.  0.
<mgrwt>
<rscale>  0 0.12500178E+03</rscale>
<asrwt>0</asrwt>
<pdfrwt beam="2">  1        4 0.26014389E-01 0.12500178E+03</pdfrwt>
<pdfrwt beam="1">  1       -4 0.35541200E-02 0.12500178E+03</pdfrwt>
<totfact> 0.91463082E+03</totfact>
</mgrwt>
</event>
<event>
 5    1  0.3188180E-002  0.1250056E+03  0.7818608E-02  0.1235061E+00
         -4   -1    0    0    0  501 -0.00000000000E+00  0.00000000000E+00  0.20074718763E+02  0.20114851066E+02  0.12700000000E+01 0. -1.
          4   -1    0    0  501    0  0.00000000000E+00 -0.00000000000E+00 -0.19436647262E+03  0.19437062170E+03  0.12700000000E+01 0. -1.
         25    2    1    2    0    0  0.00000000000E+00  0.00000000000E+00 -0.17429175386E+03  0.21448547277E+03  0.12500561013E+03 0.  0.
    9000005    1    3    3    0    0  0.35066561381E+02 -0.13033600977E+02 -0.12515862184E+01  0.37444691874E+02  0.10000000000E+01 0.  0.
    9000005    1    3    3    0    0 -0.35066561381E+02  0.13033600977E+02 -0.17304016764E+03  0.17704078089E+03  0.10000000000E+01 0.  0.
<mgrwt>
<rscale>  0 0.12500561E+03</rscale>
<asrwt>0</asrwt>
<pdfrwt beam="2">  1        4 0.29905939E-01 0.12500561E+03</pdfrwt>
<pdfrwt beam="1">  1       -4 0.30918247E-02 0.12500561E+03</pdfrwt>
<totfact> 0.87737544E+03</totfact>
</mgrwt>
</event>
<event>
 5    1  0.3188180E-002  0.1249999E+03  0.7818608E-02  0.1235069E+00
          4   -1    0    0  501    0  0.00000000000E+00  0.00000000000E+00  0.30672175994E+03  0.30672438919E+03  0.12700000000E+01 0.  1.
         -4   -1    0    0    0  501 -0.00000000000E+00 -0.00000000000E+00 -0.12701118825E+02  0.12764455312E+02  0.12700000000E+01 0.  1.
         25    2    1    2    0    0  0.00000000000E+00  0.00000000000E+00  0.29402064112E+03  0.31948884450E+03  0.12499993742E+03 0.  0.
    9000005    1    3    3    0    0 -0.18233067112E+02  0.17084772879E+02  0.29341103181E+03  0.29447473200E+03  0.10000000000E+01 0.  0.
    9000005    1    3    3    0    0  0.18233067112E+02 -0.17084772879E+02  0.60960931192E+00  0.25014112500E+02  0.10000000000E+01 0.  0.
<mgrwt>
<rscale>  0 0.12499994E+03</rscale>
<asrwt>0</asrwt>
<pdfrwt beam="1">  1        4 0.47193037E-01 0.12499994E+03</pdfrwt>
<pdfrwt beam="2">  1       -4 0.19590926E-02 0.12499994E+03</pdfrwt>
<totfact> 0.73217062E+03</totfact>
</mgrwt>
</event>
<event>
 5    1  0.3188180E-002  0.1250248E+03  0.7818608E-02  0.1235031E+00
          4   -1    0    0  501    0  0.00000000000E+00  0.00000000000E+00  0.48646599555E+03  0.48646765332E+03  0.12700000000E+01 0.  1.
         -4   -1    0    0    0  501 -0.00000000000E+00 -0.00000000000E+00 -0.79811559382E+01  0.80815685427E+01  0.12700000000E+01 0.  1.
         25    2    1    2    0    0  0.00000000000E+00  0.00000000000E+00  0.47848483961E+03  0.49454922186E+03  0.12502476197E+03 0.  0.
    9000005    1    3    3    0    0 -0.29605078608E+02 -0.18083920907E+02  0.44490786204E+03  0.44625944761E+03  0.10000000000E+01 0.  0.
    9000005    1    3    3    0    0  0.29605078608E+02  0.18083920907E+02  0.33576977576E+02  0.48289774258E+02  0.10000000000E+01 0.  0.
<mgrwt>
<rscale>  0 0.12502476E+03</rscale>
<asrwt>0</asrwt>
<pdfrwt beam="1">  1        4 0.74848781E-01 0.12502476E+03</pdfrwt>
<pdfrwt beam="2">  1       -4 0.12357216E-02 0.12502476E+03</pdfrwt>
<totfact> 0.56259126E+03</totfact>
</mgrwt>
</event>
<event>
 5    1  0.3188180E-002  0.1249884E+03  0.7818608E-02  0.1235087E+00
         -4   -1    0    0    0  501 -0.00000000000E+00  0.00000000000E+00  0.55237378182E+02  0.55251975969E+02  0.12700000000E+01 0. -1.
          4   -1    0    0  501    0  0.00000000000E+00 -0.00000000000E+00 -0.70674784855E+02  0.70686194651E+02  0.12700000000E+01 0. -1.
         25    2    1    2    0    0  0.00000000000E+00  0.00000000000E+00 -0.15437406673E+02  0.12593817062E+03  0.12498843664E+03 0.  0.
    9000005    1    3    3    0    0  0.30943127350E+02  0.37250080861E+02  0.32071639551E+02  0.58091614867E+02  0.10000000000E+01 0.  0.
    9000005    1    3    3    0    0 -0.30943127350E+02 -0.37250080861E+02 -0.47509046224E+02  0.67846555753E+02  0.10000000000E+01 0.  0.
<mgrwt>
<rscale>  0 0.12498844E+03</rscale>
<asrwt>0</asrwt>
<pdfrwt beam="2">  1        4 0.10875044E-01 0.12498844E+03</pdfrwt>
<pdfrwt beam="1">  1       -4 0.85000587E-02 0.12498844E+03</pdfrwt>
<totfact> 0.10435035E+04</totfact>
</mgrwt>
</event>
<event>
 5    1  0.3188180E-002  0.1250019E+03  0.7818608E-02  0.1235066E+00
          4   -1    0    0  501    0  0.00000000000E+00  0.00000000000E+00  0.26241154585E+03  0.26241461906E+03  0.12700000000E+01 0.  1.
         -4   -1    0    0    0  501 -0.00000000000E+00 -0.00000000000E+00 -0.14856178475E+02  0.14910363473E+02  0.12700000000E+01 0.  1.
         25    2    1    2    0    0  0.00000000000E+00  0.00000000000E+00  0.24755536738E+03  0.27732498253E+03  0.12500194406E+03 0.  0.
    9000005    1    3    3    0    0  0.50737980503E+02 -0.36460536775E+02  0.12663446668E+03  0.14121261118E+03  0.10000000000E+01 0.  0.
    9000005    1    3    3    0    0 -0.50737980503E+02  0.36460536775E+02  0.12092090070E+03  0.13611237135E+03  0.10000000000E+01 0.  0.
<mgrwt>
<rscale>  0 0.12500194E+03</rscale>
<asrwt>0</asrwt>
<pdfrwt beam="1">  1        4 0.40375412E-01 0.12500194E+03</pdfrwt>
<pdfrwt beam="2">  1       -4 0.22899704E-02 0.12500194E+03</pdfrwt>
<totfact> 0.78530739E+03</totfact>
</mgrwt>
</event>
<event>
 5    1  0.3188180E-002  0.1249980E+03  0.7818608E-02  0.1235072E+00
          4   -1    0    0  501    0  0.00000000000E+00  0.00000000000E+00  0.17257449549E+02  0.17304116994E+02  0.12700000000E+01 0. -1.
         -4   -1    0    0    0  501 -0.00000000000E+00 -0.00000000000E+00 -0.22599024092E+03  0.22599380941E+03  0.12700000000E+01 0. -1.
         25    2    1    2    0    0  0.00000000000E+00  0.00000000000E+00 -0.20873279137E+03  0.24329792640E+03  0.12499801118E+03 0.  0.
    9000005    1    3    3    0    0  0.10196438359E+02 -0.61525920168E+02 -0.96649288064E+02  0.11502821867E+03  0.10000000000E+01 0.  0.
    9000005    1    3    3    0    0 -0.10196438359E+02  0.61525920168E+02 -0.11208350331E+03  0.12826970773E+03  0.10000000000E+01 0.  0.
<mgrwt>
<rscale>  0 0.12499801E+03</rscale>
<asrwt>0</asrwt>
<pdfrwt beam="1">  1        4 0.26588567E-02 0.12499801E+03</pdfrwt>
<pdfrwt beam="2">  1       -4 0.34771592E-01 0.12499801E+03</pdfrwt>
<totfact> 0.83312332E+03</totfact>
</mgrwt>
</event>
<event>
 5    1  0.3188180E-002  0.1250015E+03  0.7818608E-02  0.1235067E+00
         -4   -1    0    0    0  501 -0.00000000000E+00  0.00000000000E+00  0.16970149531E+02  0.17017604859E+02  0.12700000000E+01 0.  1.
          4   -1    0    0  501    0  0.00000000000E+00 -0.00000000000E+00 -0.22981865657E+03  0.22982216561E+03  0.12700000000E+01 0.  1.
         25    2    1    2    0    0  0.00000000000E+00  0.00000000000E+00 -0.21284850704E+03  0.24683977047E+03  0.12500154134E+03 0.  0.
    9000005    1    3    3    0    0 -0.81633930262E+01 -0.24595746192E+02 -0.21871741181E+03  0.22024962644E+03  0.10000000000E+01 0.  0.
    9000005    1    3    3    0    0  0.81633930262E+01  0.24595746192E+02  0.58689047748E+01  0.26590144033E+02  0.10000000000E+01 0.  0.
<mgrwt>
<rscale>  0 0.12500154E+03</rscale>
<asrwt>0</asrwt>
<pdfrwt beam="2">  1        4 0.35360635E-01 0.12500154E+03</pdfrwt>
<pdfrwt beam="1">  1       -4 0.26147127E-02 0.12500154E+03</pdfrwt>
<totfact> 0.82786293E+03</totfact>
</mgrwt>
</event>
<event>
 5    1  0.3188180E-002  0.1250021E+03  0.7818608E-02  0.1235066E+00
          4   -1    0    0  501    0  0.00000000000E+00  0.00000000000E+00  0.43887522991E+01  0.45688123996E+01  0.12700000000E+01 0. -1.
         -4   -1    0    0    0  501 -0.00000000000E+00 -0.00000000000E+00 -0.87201701234E+03  0.87201793714E+03  0.12700000000E+01 0. -1.
         25    2    1    2    0    0  0.00000000000E+00  0.00000000000E+00 -0.86762826004E+03  0.87658674954E+03  0.12500212744E+03 0.  0.
    9000005    1    3    3    0    0 -0.16267559361E+02 -0.56211840616E+02 -0.28001980596E+03  0.28607078886E+03  0.10000000000E+01 0.  0.
    9000005    1    3    3    0    0  0.16267559361E+02  0.56211840616E+02 -0.58760845408E+03  0.59051596068E+03  0.10000000000E+01 0.  0.
<mgrwt>
<rscale>  0 0.12500213E+03</rscale>
<asrwt>0</asrwt>
<pdfrwt beam="1">  1        4 0.68911527E-03 0.12500213E+03</pdfrwt>
<pdfrwt beam="2">  1       -4 0.13417025E+00 0.12500213E+03</pdfrwt>
<totfact> 0.35061782E+03</totfact>
</mgrwt>
</event>
<event>
 5    1  0.3188180E-002  0.1250030E+03  0.7818608E-02  0.1235065E+00
          4   -1    0    0  501    0  0.00000000000E+00  0.00000000000E+00  0.28677150810E+03  0.28677432025E+03  0.12700000000E+01 0.  1.
         -4   -1    0    0    0  501 -0.00000000000E+00 -0.00000000000E+00 -0.13589640281E+02  0.13648854273E+02  0.12700000000E+01 0.  1.
         25    2    1    2    0    0  0.00000000000E+00  0.00000000000E+00  0.27318186782E+03  0.30042317453E+03  0.12500300352E+03 0.  0.
    9000005    1    3    3    0    0  0.57045418911E+02  0.20160441562E+02  0.17419471802E+03  0.18440559376E+03  0.10000000000E+01 0.  0.
    9000005    1    3    3    0    0 -0.57045418911E+02 -0.20160441562E+02  0.98987149795E+02  0.11601758077E+03  0.10000000000E+01 0.  0.
<mgrwt>
<rscale>  0 0.12500300E+03</rscale>
<asrwt>0</asrwt>
<pdfrwt beam="1">  1        4 0.44123462E-01 0.12500300E+03</pdfrwt>
<pdfrwt beam="2">  1       -4 0.20954853E-02 0.12500300E+03</pdfrwt>
<totfact> 0.75540751E+03</totfact>
</mgrwt>
</event>
<event>
 5    1  0.3188180E-002  0.1249933E+03  0.7818608E-02  0.1235080E+00
         -4   -1    0    0    0  501 -0.00000000000E+00  0.00000000000E+00  0.33365729639E+03  0.33365971338E+03  0.12700000000E+01 0.  1.
          4   -1    0    0  501    0  0.00000000000E+00 -0.00000000000E+00 -0.11669212873E+02  0.11738118635E+02  0.12700000000E+01 0.  1.
         25    2    1    2    0    0  0.00000000000E+00  0.00000000000E+00  0.32198808351E+03  0.34539783201E+03  0.12499334556E+03 0.  0.
    9000005    1    3    3    0    0  0.48970125796E+02  0.17175429227E+02  0.64801365005E+02  0.83025812228E+02  0.10000000000E+01 0.  0.
    9000005    1    3    3    0    0 -0.48970125796E+02 -0.17175429227E+02  0.25718671851E+03  0.26237201979E+03  0.10000000000E+01 0.  0.
<mgrwt>
<rscale>  0 0.12499335E+03</rscale>
<asrwt>0</asrwt>
<pdfrwt beam="2">  1        4 0.18007498E-02 0.12499335E+03</pdfrwt>
<pdfrwt beam="1">  1       -4 0.51337379E-01 0.12499335E+03</pdfrwt>
<totfact> 0.70244179E+03</totfact>
</mgrwt>
</event>
<event>
 5    1  0.3188180E-002  0.1249939E+03  0.7818608E-02  0.1235079E+00
         -4   -1    0    0    0  501 -0.00000000000E+00  0.00000000000E+00  0.17940450627E+02  0.17985345943E+02  0.12700000000E+01 0.  1.
          4   -1    0    0  501    0  0.00000000000E+00 -0.00000000000E+00 -0.21739398028E+03  0.21739768987E+03  0.12700000000E+01 0.  1.
         25    2    1    2    0    0  0.00000000000E+00  0.00000000000E+00 -0.19945352965E+03  0.23538303581E+03  0.12499385208E+03 0.  0.
    9000005    1    3    3    0    0  0.57045010847E+02 -0.16870197635E+02 -0.63693506690E+02  0.87158474202E+02  0.10000000000E+01 0.  0.
    9000005    1    3    3    0    0 -0.57045010847E+02  0.16870197635E+02 -0.13576002296E+03  0.14822456161E+03  0.10000000000E+01 0.  0.
<mgrwt>
<rscale>  0 0.12499385E+03</rscale>
<asrwt>0</asrwt>
<pdfrwt beam="2">  1        4 0.33448965E-01 0.12499385E+03</pdfrwt>
<pdfrwt beam="1">  1       -4 0.27638083E-02 0.12499385E+03</pdfrwt>
<totfact> 0.84501409E+03</totfact>
</mgrwt>
</event>
<event>
 5    1  0.3188180E-002  0.1250070E+03  0.7818608E-02  0.1235058E+00
          4   -1    0    0  501    0  0.00000000000E+00  0.00000000000E+00  0.32901786464E+03  0.32902031572E+03  0.12700000000E+01 0.  1.
         -4   -1    0    0    0  501 -0.00000000000E+00 -0.00000000000E+00 -0.11837320185E+02  0.11905253007E+02  0.12700000000E+01 0.  1.
         25    2    1    2    0    0  0.00000000000E+00  0.00000000000E+00  0.31718054446E+03  0.34092556872E+03  0.12500698231E+03 0.  0.
    9000005    1    3    3    0    0 -0.35301791450E+02 -0.57146674853E+01  0.29836859972E+03  0.30050573239E+03  0.10000000000E+01 0.  0.
    9000005    1    3    3    0    0  0.35301791450E+02  0.57146674853E+01  0.18811944741E+02  0.40419836330E+02  0.10000000000E+01 0.  0.
<mgrwt>
<rscale>  0 0.12500698E+03</rscale>
<asrwt>0</asrwt>
<pdfrwt beam="1">  1        4 0.50623537E-01 0.12500698E+03</pdfrwt>
<pdfrwt beam="2">  1       -4 0.18265407E-02 0.12500698E+03</pdfrwt>
<totfact> 0.70723599E+03</totfact>
</mgrwt>
</event>
<event>
 5    1  0.3188180E-002  0.1249803E+03  0.7818608E-02  0.1235100E+00
         -4   -1    0    0    0  501 -0.00000000000E+00  0.00000000000E+00  0.76069101237E+01  0.77121969393E+01  0.12700000000E+01 0.  1.
          4   -1    0    0  501    0  0.00000000000E+00 -0.00000000000E+00 -0.50971708786E+03  0.50971867001E+03  0.12700000000E+01 0.  1.
         25    2    1    2    0    0  0.00000000000E+00  0.00000000000E+00 -0.50211017773E+03  0.51743086695E+03  0.12498028439E+03 0.  0.
    9000005    1    3    3    0    0  0.31056239876E+02 -0.25243219520E+01 -0.47527716931E+03  0.47629848825E+03  0.10000000000E+01 0.  0.
    9000005    1    3    3    0    0 -0.31056239876E+02  0.25243219520E+01 -0.26833008422E+02  0.41132378700E+02  0.10000000000E+01 0.  0.
<mgrwt>
<rscale>  0 0.12498028E+03</rscale>
<asrwt>0</asrwt>
<pdfrwt beam="2">  1        4 0.78426208E-01 0.12498028E+03</pdfrwt>
<pdfrwt beam="1">  1       -4 0.11785150E-02 0.12498028E+03</pdfrwt>
<totfact> 0.54560510E+03</totfact>
</mgrwt>
</event>
<event>
 5    1  0.3188180E-002  0.1250030E+03  0.7818608E-02  0.1235065E+00
         -4   -1    0    0    0  501 -0.00000000000E+00  0.00000000000E+00  0.83190804618E+02  0.83200498033E+02  0.12700000000E+01 0.  1.
          4   -1    0    0  501    0  0.00000000000E+00 -0.00000000000E+00 -0.46936548317E+02  0.46953726880E+02  0.12700000000E+01 0.  1.
         25    2    1    2    0    0  0.00000000000E+00  0.00000000000E+00  0.36254256301E+02  0.13015422491E+03  0.12500300462E+03 0.  0.
    9000005    1    3    3    0    0 -0.17496733370E+02 -0.46522009859E+02  0.57569632458E+02  0.76063760499E+02  0.10000000000E+01 0.  0.
    9000005    1    3    3    0    0  0.17496733370E+02  0.46522009859E+02 -0.21315376157E+02  0.54090464415E+02  0.10000000000E+01 0.  0.
<mgrwt>
<rscale>  0 0.12500300E+03</rscale>
<asrwt>0</asrwt>
<pdfrwt beam="2">  1        4 0.72230745E-02 0.12500300E+03</pdfrwt>
<pdfrwt beam="1">  1       -4 0.12800652E-01 0.12500300E+03</pdfrwt>
<totfact> 0.10340508E+04</totfact>
</mgrwt>
</event>
<event>
 5    1  0.3188180E-002  0.1249788E+03  0.7818608E-02  0.1235102E+00
         -4   -1    0    0    0  501 -0.00000000000E+00  0.00000000000E+00  0.10234193302E+03  0.10234981267E+03  0.12700000000E+01 0. -1.
          4   -1    0    0  501    0  0.00000000000E+00 -0.00000000000E+00 -0.38135766656E+02  0.38156907611E+02  0.12700000000E+01 0. -1.
         25    2    1    2    0    0  0.00000000000E+00  0.00000000000E+00  0.64206166365E+02  0.14050672029E+03  0.12497882479E+03 0.  0.
    9000005    1    3    3    0    0  0.20187013239E+02  0.58970721628E+02  0.27220037616E+02  0.68021996153E+02  0.10000000000E+01 0.  0.
    9000005    1    3    3    0    0 -0.20187013239E+02 -0.58970721628E+02  0.36986128748E+02  0.72484724133E+02  0.10000000000E+01 0.  0.
<mgrwt>
<rscale>  0 0.12497882E+03</rscale>
<asrwt>0</asrwt>
<pdfrwt beam="2">  1        4 0.58692734E-02 0.12497882E+03</pdfrwt>
<pdfrwt beam="1">  1       -4 0.15747145E-01 0.12497882E+03</pdfrwt>
<totfact> 0.10127925E+04</totfact>
</mgrwt>
</event>
<event>
 5    1  0.3188180E-002  0.1250011E+03  0.7818608E-02  0.1235068E+00
         -4   -1    0    0    0  501 -0.00000000000E+00  0.00000000000E+00  0.23471124549E+02  0.23505458676E+02  0.12700000000E+01 0.  1.
          4   -1    0    0  501    0  0.00000000000E+00 -0.00000000000E+00 -0.16627235990E+03  0.16627721000E+03  0.12700000000E+01 0.  1.
         25    2    1    2    0    0  0.00000000000E+00  0.00000000000E+00 -0.14280123535E+03  0.18978266868E+03  0.12500107405E+03 0.  0.
    9000005    1    3    3    0    0 -0.36798570934E+02 -0.32822413512E+02 -0.13113495706E+02  0.51033414751E+02  0.10000000000E+01 0.  0.
    9000005    1    3    3    0    0  0.36798570934E+02  0.32822413512E+02 -0.12968773964E+03  0.13874925393E+03  0.10000000000E+01 0.  0.
<mgrwt>
<rscale>  0 0.12500107E+03</rscale>
<asrwt>0</asrwt>
<pdfrwt beam="2">  1        4 0.25583376E-01 0.12500107E+03</pdfrwt>
<pdfrwt beam="1">  1       -4 0.36139565E-02 0.12500107E+03</pdfrwt>
<totfact> 0.91882933E+03</totfact>
</mgrwt>
</event>
<event>
 5    1  0.3188180E-002  0.1249968E+03  0.7818608E-02  0.1235074E+00
         -4   -1    0    0    0  501 -0.00000000000E+00  0.00000000000E+00  0.87006687812E+03  0.87006780500E+03  0.12700000000E+01 0.  1.
          4   -1    0    0  501    0  0.00000000000E+00 -0.00000000000E+00 -0.43986027644E+01  0.45782754700E+01  0.12700000000E+01 0.  1.
         25    2    1    2    0    0  0.00000000000E+00  0.00000000000E+00  0.86566827535E+03  0.87464608047E+03  0.12499681247E+03 0.  0.
    9000005    1    3    3    0    0 -0.45947283329E+02  0.38433107051E+02  0.30829035846E+03  0.31405764070E+03  0.10000000000E+01 0.  0.
    9000005    1    3    3    0    0  0.45947283329E+02 -0.38433107051E+02  0.55737791689E+03  0.56058843977E+03  0.10000000000E+01 0.  0.
<mgrwt>
<rscale>  0 0.12499681E+03</rscale>
<asrwt>0</asrwt>
<pdfrwt beam="2">  1        4 0.69060040E-03 0.12499681E+03</pdfrwt>
<pdfrwt beam="1">  1       -4 0.13387033E+00 0.12499681E+03</pdfrwt>
<totfact> 0.35141906E+03</totfact>
</mgrwt>
</event>
<event>
 5    1  0.3188180E-002  0.1249947E+03  0.7818608E-02  0.1235078E+00
         -4   -1    0    0    0  501 -0.00000000000E+00  0.00000000000E+00  0.16753988881E+02  0.16802054738E+02  0.12700000000E+01 0.  1.
          4   -1    0    0  501    0  0.00000000000E+00 -0.00000000000E+00 -0.23274980284E+03  0.23275326769E+03  0.12700000000E+01 0.  1.
         25    2    1    2    0    0  0.00000000000E+00  0.00000000000E+00 -0.21599581396E+03  0.24955532243E+03  0.12499466911E+03 0.  0.
    9000005    1    3    3    0    0 -0.80377618088E+01  0.42642450481E+02 -0.19777358338E+03  0.20248055334E+03  0.10000000000E+01 0.  0.
    9000005    1    3    3    0    0  0.80377618088E+01 -0.42642450481E+02 -0.18222230580E+02  0.47074769093E+02  0.10000000000E+01 0.  0.
<mgrwt>
<rscale>  0 0.12499467E+03</rscale>
<asrwt>0</asrwt>
<pdfrwt beam="2">  1        4 0.35811624E-01 0.12499467E+03</pdfrwt>
<pdfrwt beam="1">  1       -4 0.25815008E-02 0.12499467E+03</pdfrwt>
<totfact> 0.82404327E+03</totfact>
</mgrwt>
</event>
<event>
 5    1  0.3188180E-002  0.1250097E+03  0.7818608E-02  0.1235054E+00
          4   -1    0    0  501    0  0.00000000000E+00  0.00000000000E+00  0.29286426414E+03  0.29286701780E+03  0.12700000000E+01 0.  1.
         -4   -1    0    0    0  501 -0.00000000000E+00 -0.00000000000E+00 -0.13307117987E+02  0.13367583519E+02  0.12700000000E+01 0.  1.
         25    2    1    2    0    0  0.00000000000E+00  0.00000000000E+00  0.27955714616E+03  0.30623460131E+03  0.12500973192E+03 0.  0.
    9000005    1    3    3    0    0  0.42456965228E+02 -0.15510034125E+02  0.24550468662E+03  0.24963314325E+03  0.10000000000E+01 0.  0.
    9000005    1    3    3    0    0 -0.42456965228E+02  0.15510034125E+02  0.34052459538E+02  0.56601458069E+02  0.10000000000E+01 0.  0.
<mgrwt>
<rscale>  0 0.12500973E+03</rscale>
<asrwt>0</asrwt>
<pdfrwt beam="1">  1        4 0.45060902E-01 0.12500973E+03</pdfrwt>
<pdfrwt beam="2">  1       -4 0.20521120E-02 0.12500973E+03</pdfrwt>
<totfact> 0.74807222E+03</totfact>
</mgrwt>
</event>
<event>
 5    1  0.3188180E-002  0.1250009E+03  0.7818608E-02  0.1235068E+00
         -4   -1    0    0    0  501 -0.00000000000E+00  0.00000000000E+00  0.24067931822E+02  0.24101415772E+02  0.12700000000E+01 0.  1.
          4   -1    0    0  501    0  0.00000000000E+00 -0.00000000000E+00 -0.16215450637E+03  0.16215947964E+03  0.12700000000E+01 0.  1.
         25    2    1    2    0    0  0.00000000000E+00  0.00000000000E+00 -0.13808657455E+03  0.18626089541E+03  0.12500087635E+03 0.  0.
    9000005    1    3    3    0    0  0.43926317349E+02  0.14912473130E+02 -0.13143822033E+03  0.13938762131E+03  0.10000000000E+01 0.  0.
    9000005    1    3    3    0    0 -0.43926317349E+02 -0.14912473130E+02 -0.66483542137E+01  0.46873274096E+02  0.10000000000E+01 0.  0.
<mgrwt>
<rscale>  0 0.12500088E+03</rscale>
<asrwt>0</asrwt>
<pdfrwt beam="2">  1        4 0.24949805E-01 0.12500088E+03</pdfrwt>
<pdfrwt beam="1">  1       -4 0.37057171E-02 0.12500088E+03</pdfrwt>
<totfact> 0.92500191E+03</totfact>
</mgrwt>
</event>
<event>
 5    1  0.3188180E-002  0.1250008E+03  0.7818608E-02  0.1235068E+00
         -4   -1    0    0    0  501 -0.00000000000E+00  0.00000000000E+00  0.35392539565E+02  0.35415318111E+02  0.12700000000E+01 0.  1.
          4   -1    0    0  501    0  0.00000000000E+00 -0.00000000000E+00 -0.11030870474E+03  0.11031601534E+03  0.12700000000E+01 0.  1.
         25    2    1    2    0    0  0.00000000000E+00  0.00000000000E+00 -0.74916165170E+02  0.14573133345E+03  0.12500075898E+03 0.  0.
    9000005    1    3    3    0    0 -0.43108494406E+02  0.23359180946E+01 -0.90134330809E+02  0.99944966825E+02  0.10000000000E+01 0.  0.
    9000005    1    3    3    0    0  0.43108494406E+02 -0.23359180946E+01  0.15218165639E+02  0.45786366625E+02  0.10000000000E+01 0.  0.
<mgrwt>
<rscale>  0 0.12500076E+03</rscale>
<asrwt>0</asrwt>
<pdfrwt beam="2">  1        4 0.16972884E-01 0.12500076E+03</pdfrwt>
<pdfrwt beam="1">  1       -4 0.54473207E-02 0.12500076E+03</pdfrwt>
<totfact> 0.10015979E+04</totfact>
</mgrwt>
</event>
<event>
 5    1  0.3188180E-002  0.1250047E+03  0.7818608E-02  0.1235062E+00
         -4   -1    0    0    0  501 -0.00000000000E+00  0.00000000000E+00  0.59565701827E+03  0.59565837215E+03  0.12700000000E+01 0. -1.
          4   -1    0    0  501    0  0.00000000000E+00 -0.00000000000E+00 -0.64955258574E+01  0.66185161603E+01  0.12700000000E+01 0. -1.
         25    2    1    2    0    0  0.00000000000E+00  0.00000000000E+00  0.58916149241E+03  0.60227688831E+03  0.12500474412E+03 0.  0.
    9000005    1    3    3    0    0 -0.14337332917E+02  0.20405202791E+02  0.57066766146E+03  0.57121319247E+03  0.10000000000E+01 0.  0.
    9000005    1    3    3    0    0  0.14337332917E+02 -0.20405202791E+02  0.18493830957E+02  0.31063695846E+02  0.10000000000E+01 0.  0.
<mgrwt>
<rscale>  0 0.12500474E+03</rscale>
<asrwt>0</asrwt>
<pdfrwt beam="2">  1        4 0.10088766E-02 0.12500474E+03</pdfrwt>
<pdfrwt beam="1">  1       -4 0.91649104E-01 0.12500474E+03</pdfrwt>
<totfact> 0.48719134E+03</totfact>
</mgrwt>
</event>
<event>
 5    1  0.3188180E-002  0.1249988E+03  0.7818608E-02  0.1235071E+00
          4   -1    0    0  501    0  0.00000000000E+00  0.00000000000E+00  0.22025478808E+02  0.22062062839E+02  0.12700000000E+01 0.  1.
         -4   -1    0    0    0  501 -0.00000000000E+00 -0.00000000000E+00 -0.17716208709E+03  0.17716663907E+03  0.12700000000E+01 0.  1.
         25    2    1    2    0    0  0.00000000000E+00  0.00000000000E+00 -0.15513660828E+03  0.19922870191E+03  0.12499883375E+03 0.  0.
    9000005    1    3    3    0    0  0.81300626607E+01 -0.32834114118E+02  0.61806049565E+01  0.34400244860E+02  0.10000000000E+01 0.  0.
    9000005    1    3    3    0    0 -0.81300626607E+01  0.32834114118E+02 -0.16131721324E+03  0.16482845705E+03  0.10000000000E+01 0.  0.
<mgrwt>
<rscale>  0 0.12499883E+03</rscale>
<asrwt>0</asrwt>
<pdfrwt beam="1">  1        4 0.33916996E-02 0.12499883E+03</pdfrwt>
<pdfrwt beam="2">  1       -4 0.27258869E-01 0.12499883E+03</pdfrwt>
<totfact> 0.90268111E+03</totfact>
</mgrwt>
</event>
<event>
 5    1  0.3188180E-002  0.1250005E+03  0.7818608E-02  0.1235069E+00
         -4   -1    0    0    0  501 -0.00000000000E+00  0.00000000000E+00  0.45616667763E+02  0.45634343183E+02  0.12700000000E+01 0. -1.
          4   -1    0    0  501    0  0.00000000000E+00 -0.00000000000E+00 -0.85593744041E+02  0.85603165356E+02  0.12700000000E+01 0. -1.
         25    2    1    2    0    0  0.00000000000E+00  0.00000000000E+00 -0.39977076279E+02  0.13123750854E+03  0.12500046808E+03 0.  0.
    9000005    1    3    3    0    0  0.37833685091E+01  0.22210421437E+02 -0.81186429712E+02  0.84260625841E+02  0.10000000000E+01 0.  0.
    9000005    1    3    3    0    0 -0.37833685091E+01 -0.22210421437E+02  0.41209353434E+02  0.46976882699E+02  0.10000000000E+01 0.  0.
<mgrwt>
<rscale>  0 0.12500047E+03</rscale>
<asrwt>0</asrwt>
<pdfrwt beam="2">  1        4 0.13170353E-01 0.12500047E+03</pdfrwt>
<pdfrwt beam="1">  1       -4 0.70200333E-02 0.12500047E+03</pdfrwt>
<totfact> 0.10317891E+04</totfact>
</mgrwt>
</event>
<event>
 5    1  0.3188180E-002  0.1249965E+03  0.7818608E-02  0.1235075E+00
          4   -1    0    0  501    0  0.00000000000E+00  0.00000000000E+00  0.16391950927E+04  0.16391955846E+04  0.12700000000E+01 0. -1.
         -4   -1    0    0    0  501 -0.00000000000E+00 -0.00000000000E+00 -0.22131521404E+01  0.25516548349E+01  0.12700000000E+01 0. -1.
         25    2    1    2    0    0  0.00000000000E+00  0.00000000000E+00  0.16369819405E+04  0.16417472395E+04  0.12499649888E+03 0.  0.
    9000005    1    3    3    0    0  0.34597116909E+02  0.50330480319E+02  0.99219905479E+03  0.99407750306E+03  0.10000000000E+01 0.  0.
    9000005    1    3    3    0    0 -0.34597116909E+02 -0.50330480319E+02  0.64478288573E+03  0.64766973643E+03  0.10000000000E+01 0.  0.
<mgrwt>
<rscale>  0 0.12499650E+03</rscale>
<asrwt>0</asrwt>
<pdfrwt beam="1">  1        4 0.25220946E+00 0.12499650E+03</pdfrwt>
<pdfrwt beam="2">  1       -4 0.36656216E-03 0.12499650E+03</pdfrwt>
<totfact> 0.15304562E+03</totfact>
</mgrwt>
</event>
<event>
 5    1  0.3188180E-002  0.1250008E+03  0.7818608E-02  0.1235068E+00
          4   -1    0    0  501    0  0.00000000000E+00  0.00000000000E+00  0.61717421760E+01  0.63010555851E+01  0.12700000000E+01 0.  1.
         -4   -1    0    0    0  501 -0.00000000000E+00 -0.00000000000E+00 -0.62624068158E+03  0.62624196934E+03  0.12700000000E+01 0.  1.
         25    2    1    2    0    0  0.00000000000E+00  0.00000000000E+00 -0.62006893940E+03  0.63254302493E+03  0.12500075508E+03 0.  0.
    9000005    1    3    3    0    0 -0.22982067050E+01  0.59306694048E+01  0.45543908495E+01  0.78865118816E+01  0.10000000000E+01 0.  0.
    9000005    1    3    3    0    0  0.22982067050E+01 -0.59306694048E+01 -0.62462333025E+03  0.62465651304E+03  0.10000000000E+01 0.  0.
<mgrwt>
<rscale>  0 0.12500076E+03</rscale>
<asrwt>0</asrwt>
<pdfrwt beam="1">  1        4 0.95954554E-03 0.12500076E+03</pdfrwt>
<pdfrwt beam="2">  1       -4 0.96354716E-01 0.12500076E+03</pdfrwt>
<totfact> 0.46875034E+03</totfact>
</mgrwt>
</event>
<event>
 5    1  0.3188180E-002  0.1249986E+03  0.7818608E-02  0.1235071E+00
         -4   -1    0    0    0  501 -0.00000000000E+00  0.00000000000E+00  0.37977795912E+02  0.37999024755E+02  0.12700000000E+01 0. -1.
          4   -1    0    0  501    0  0.00000000000E+00 -0.00000000000E+00 -0.10279997634E+03  0.10280782088E+03  0.12700000000E+01 0. -1.
         25    2    1    2    0    0  0.00000000000E+00  0.00000000000E+00 -0.64822180424E+02  0.14080684564E+03  0.12499861081E+03 0.  0.
    9000005    1    3    3    0    0 -0.43812031226E+02 -0.17641466639E+01 -0.82568073918E+02  0.93493813294E+02  0.10000000000E+01 0.  0.
    9000005    1    3    3    0    0  0.43812031226E+02  0.17641466639E+01  0.17745893494E+02  0.47313032344E+02  0.10000000000E+01 0.  0.
<mgrwt>
<rscale>  0 0.12499861E+03</rscale>
<asrwt>0</asrwt>
<pdfrwt beam="2">  1        4 0.15817617E-01 0.12499861E+03</pdfrwt>
<pdfrwt beam="1">  1       -4 0.58449743E-02 0.12499861E+03</pdfrwt>
<totfact> 0.10117207E+04</totfact>
</mgrwt>
</event>
<event>
 5    1  0.3188180E-002  0.1250010E+03  0.7818608E-02  0.1235068E+00
          4   -1    0    0  501    0  0.00000000000E+00  0.00000000000E+00  0.23697316627E+03  0.23697656938E+03  0.12700000000E+01 0. -1.
         -4   -1    0    0    0  501 -0.00000000000E+00 -0.00000000000E+00 -0.16456203866E+02  0.16505136948E+02  0.12700000000E+01 0. -1.
         25    2    1    2    0    0  0.00000000000E+00  0.00000000000E+00  0.22051696241E+03  0.25348170632E+03  0.12500097892E+03 0.  0.
    9000005    1    3    3    0    0 -0.13699749773E+02 -0.27674286977E+02  0.85812946046E-01  0.30895900496E+02  0.10000000000E+01 0.  0.
    9000005    1    3    3    0    0  0.13699749773E+02  0.27674286977E+02  0.22043114946E+03  0.22258580583E+03  0.10000000000E+01 0.  0.
<mgrwt>
<rscale>  0 0.12500098E+03</rscale>
<asrwt>0</asrwt>
<pdfrwt beam="1">  1        4 0.36461436E-01 0.12500098E+03</pdfrwt>
<pdfrwt beam="2">  1       -4 0.25357496E-02 0.12500098E+03</pdfrwt>
<totfact> 0.81827818E+03</totfact>
</mgrwt>
</event>
<event>
 5    1  0.3188180E-002  0.1249984E+03  0.7818608E-02  0.1235072E+00
          4   -1    0    0  501    0  0.00000000000E+00  0.00000000000E+00  0.38271843405E+02  0.38292909234E+02  0.12700000000E+01 0.  1.
         -4   -1    0    0    0  501 -0.00000000000E+00 -0.00000000000E+00 -0.10201017249E+03  0.10201807776E+03  0.12700000000E+01 0.  1.
         25    2    1    2    0    0  0.00000000000E+00  0.00000000000E+00 -0.63738329081E+02  0.14031098700E+03  0.12499839390E+03 0.  0.
    9000005    1    3    3    0    0  0.36907379286E+02 -0.50370416844E+02 -0.29162075996E+02  0.68925758721E+02  0.10000000000E+01 0.  0.
    9000005    1    3    3    0    0 -0.36907379286E+02  0.50370416844E+02 -0.34576253085E+02  0.71385228278E+02  0.10000000000E+01 0.  0.
<mgrwt>
<rscale>  0 0.12499839E+03</rscale>
<asrwt>0</asrwt>
<pdfrwt beam="1">  1        4 0.58902045E-02 0.12499839E+03</pdfrwt>
<pdfrwt beam="2">  1       -4 0.15696101E-01 0.12499839E+03</pdfrwt>
<totfact> 0.10127511E+04</totfact>
</mgrwt>
</event>
<event>
 5    1  0.3188180E-002  0.1249980E+03  0.7818608E-02  0.1235072E+00
         -4   -1    0    0    0  501 -0.00000000000E+00  0.00000000000E+00  0.44408925793E+01  0.46189205342E+01  0.12700000000E+01 0. -1.
          4   -1    0    0  501    0  0.00000000000E+00 -0.00000000000E+00 -0.86211888146E+03  0.86211981688E+03  0.12700000000E+01 0. -1.
         25    2    1    2    0    0  0.00000000000E+00  0.00000000000E+00 -0.85767798888E+03  0.86673873742E+03  0.12499802533E+03 0.  0.
    9000005    1    3    3    0    0  0.49785890928E+02 -0.37732851230E+02 -0.41739557926E+03  0.42204558117E+03  0.10000000000E+01 0.  0.
    9000005    1    3    3    0    0 -0.49785890928E+02  0.37732851230E+02 -0.44028240961E+03  0.44469315624E+03  0.10000000000E+01 0.  0.
<mgrwt>
<rscale>  0 0.12499803E+03</rscale>
<asrwt>0</asrwt>
<pdfrwt beam="2">  1        4 0.13264731E+00 0.12499803E+03</pdfrwt>
<pdfrwt beam="1">  1       -4 0.69698134E-03 0.12499803E+03</pdfrwt>
<totfact> 0.35453543E+03</totfact>
</mgrwt>
</event>
<event>
 5    1  0.3188180E-002  0.1249987E+03  0.7818608E-02  0.1235071E+00
         -4   -1    0    0    0  501 -0.00000000000E+00  0.00000000000E+00  0.37442646658E+03  0.37442862040E+03  0.12700000000E+01 0.  1.
          4   -1    0    0  501    0  0.00000000000E+00 -0.00000000000E+00 -0.10391561934E+02  0.10468880524E+02  0.12700000000E+01 0.  1.
         25    2    1    2    0    0  0.00000000000E+00  0.00000000000E+00  0.36403490465E+03  0.38489750093E+03  0.12499869767E+03 0.  0.
    9000005    1    3    3    0    0 -0.20516641461E+02  0.16574463923E+02  0.75719161351E+01  0.27458684330E+02  0.10000000000E+01 0.  0.
    9000005    1    3    3    0    0  0.20516641461E+02 -0.16574463923E+02  0.35646298851E+03  0.35743881660E+03  0.10000000000E+01 0.  0.
<mgrwt>
<rscale>  0 0.12499870E+03</rscale>
<asrwt>0</asrwt>
<pdfrwt beam="2">  1        4 0.16048154E-02 0.12499870E+03</pdfrwt>
<pdfrwt beam="1">  1       -4 0.57610173E-01 0.12499870E+03</pdfrwt>
<totfact> 0.66050537E+03</totfact>
</mgrwt>
</event>
<event>
 5    1  0.3188180E-002  0.1250018E+03  0.7818608E-02  0.1235067E+00
          4   -1    0    0  501    0  0.00000000000E+00  0.00000000000E+00  0.13360414792E+03  0.13361018390E+03  0.12700000000E+01 0.  1.
         -4   -1    0    0    0  501 -0.00000000000E+00 -0.00000000000E+00 -0.29217818465E+02  0.29245406748E+02  0.12700000000E+01 0.  1.
         25    2    1    2    0    0  0.00000000000E+00  0.00000000000E+00  0.10438632945E+03  0.16285559064E+03  0.12500175050E+03 0.  0.
    9000005    1    3    3    0    0  0.49694697480E+01  0.57027821574E+02  0.19531657105E+02  0.60492592045E+02  0.10000000000E+01 0.  0.
    9000005    1    3    3    0    0 -0.49694697480E+01 -0.57027821574E+02  0.84854672347E+02  0.10236299860E+03  0.10000000000E+01 0.  0.
<mgrwt>
<rscale>  0 0.12500175E+03</rscale>
<asrwt>0</asrwt>
<pdfrwt beam="1">  1        4 0.20557070E-01 0.12500175E+03</pdfrwt>
<pdfrwt beam="2">  1       -4 0.44976356E-02 0.12500175E+03</pdfrwt>
<totfact> 0.96791251E+03</totfact>
</mgrwt>
</event>
<event>
 5    1  0.3188180E-002  0.1250153E+03  0.7818608E-02  0.1235045E+00
          4   -1    0    0  501    0  0.00000000000E+00  0.00000000000E+00  0.49895589449E+01  0.51486501594E+01  0.12700000000E+01 0.  1.
         -4   -1    0    0    0  501 -0.00000000000E+00 -0.00000000000E+00 -0.77062869836E+03  0.77062974485E+03  0.12700000000E+01 0.  1.
         25    2    1    2    0    0  0.00000000000E+00  0.00000000000E+00 -0.76563913942E+03  0.77577839500E+03  0.12501530445E+03 0.  0.
    9000005    1    3    3    0    0  0.19074477838E+02 -0.59449248564E+02 -0.36509567804E+03  0.37039695326E+03  0.10000000000E+01 0.  0.
    9000005    1    3    3    0    0 -0.19074477838E+02  0.59449248564E+02 -0.40054346137E+03  0.40538144174E+03  0.10000000000E+01 0.  0.
<mgrwt>
<rscale>  0 0.12501530E+03</rscale>
<asrwt>0</asrwt>
<pdfrwt beam="1">  1        4 0.77994335E-03 0.12501530E+03</pdfrwt>
<pdfrwt beam="2">  1       -4 0.11857049E+00 0.12501530E+03</pdfrwt>
<totfact> 0.39356026E+03</totfact>
</mgrwt>
</event>
<event>
 5    1  0.3188180E-002  0.1250017E+03  0.7818608E-02  0.1235067E+00
         -4   -1    0    0    0  501 -0.00000000000E+00  0.00000000000E+00  0.14626535529E+02  0.14681568090E+02  0.12700000000E+01 0.  1.
          4   -1    0    0  501    0  0.00000000000E+00 -0.00000000000E+00 -0.26651509520E+03  0.26651812109E+03  0.12700000000E+01 0.  1.
         25    2    1    2    0    0  0.00000000000E+00  0.00000000000E+00 -0.25188855967E+03  0.28119968918E+03  0.12500167480E+03 0.  0.
    9000005    1    3    3    0    0  0.37895825851E+02 -0.43713242159E+02 -0.17910329987E+03  0.18821778125E+03  0.10000000000E+01 0.  0.
    9000005    1    3    3    0    0 -0.37895825851E+02  0.43713242159E+02 -0.72785259808E+02  0.92981907930E+02  0.10000000000E+01 0.  0.
<mgrwt>
<rscale>  0 0.12500167E+03</rscale>
<asrwt>0</asrwt>
<pdfrwt beam="2">  1        4 0.41006785E-01 0.12500167E+03</pdfrwt>
<pdfrwt beam="1">  1       -4 0.22547025E-02 0.12500167E+03</pdfrwt>
<totfact> 0.78016401E+03</totfact>
</mgrwt>
</event>
<event>
 5    1  0.3188180E-002  0.1249976E+03  0.7818608E-02  0.1235073E+00
         -4   -1    0    0    0  501 -0.00000000000E+00  0.00000000000E+00  0.23576627075E+03  0.23576969127E+03  0.12700000000E+01 0. -1.
          4   -1    0    0  501    0  0.00000000000E+00 -0.00000000000E+00 -0.16539790752E+02  0.16588477269E+02  0.12700000000E+01 0. -1.
         25    2    1    2    0    0  0.00000000000E+00  0.00000000000E+00  0.21922648000E+03  0.25235816854E+03  0.12499758277E+03 0.  0.
    9000005    1    3    3    0    0 -0.28638870329E+02  0.51906376057E+02  0.14951621775E+03  0.16084326576E+03  0.10000000000E+01 0.  0.
    9000005    1    3    3    0    0  0.28638870329E+02 -0.51906376057E+02  0.69710262247E+02  0.91514902785E+02  0.10000000000E+01 0.  0.
<mgrwt>
<rscale>  0 0.12499758E+03</rscale>
<asrwt>0</asrwt>
<pdfrwt beam="2">  1        4 0.25485916E-02 0.12499758E+03</pdfrwt>
<pdfrwt beam="1">  1       -4 0.36275740E-01 0.12499758E+03</pdfrwt>
<totfact> 0.81995005E+03</totfact>
</mgrwt>
</event>
<event>
 5    1  0.3188180E-002  0.1250000E+03  0.7818608E-02  0.1235069E+00
         -4   -1    0    0    0  501 -0.00000000000E+00  0.00000000000E+00  0.10792892334E+03  0.10793639513E+03  0.12700000000E+01 0.  1.
          4   -1    0    0  501    0  0.00000000000E+00 -0.00000000000E+00 -0.36172939823E+02  0.36195227247E+02  0.12700000000E+01 0.  1.
         25    2    1    2    0    0  0.00000000000E+00  0.00000000000E+00  0.71755983518E+02  0.14413162238E+03  0.12500001359E+03 0.  0.
    9000005    1    3    3    0    0 -0.56132373566E+02 -0.13692834864E+02  0.84238599532E+01  0.58397761132E+02  0.10000000000E+01 0.  0.
    9000005    1    3    3    0    0  0.56132373566E+02  0.13692834864E+02  0.63332123565E+02  0.85733861245E+02  0.10000000000E+01 0.  0.
<mgrwt>
<rscale>  0 0.12500001E+03</rscale>
<asrwt>0</asrwt>
<pdfrwt beam="2">  1        4 0.55673570E-02 0.12500001E+03</pdfrwt>
<pdfrwt beam="1">  1       -4 0.16606738E-01 0.12500001E+03</pdfrwt>
<totfact> 0.10048659E+04</totfact>
</mgrwt>
</event>
<event>
 5    1  0.3188180E-002  0.1249993E+03  0.7818608E-02  0.1235070E+00
          4   -1    0    0  501    0  0.00000000000E+00  0.00000000000E+00  0.17024709070E+03  0.17025182757E+03  0.12700000000E+01 0. -1.
         -4   -1    0    0    0  501 -0.00000000000E+00 -0.00000000000E+00 -0.22921714493E+02  0.22956870329E+02  0.12700000000E+01 0. -1.
         25    2    1    2    0    0  0.00000000000E+00  0.00000000000E+00  0.14732537621E+03  0.19320869790E+03  0.12499933788E+03 0.  0.
    9000005    1    3    3    0    0 -0.28698496386E+02 -0.46689647904E+02  0.12007632381E+03  0.13199564559E+03  0.10000000000E+01 0.  0.
    9000005    1    3    3    0    0  0.28698496386E+02  0.46689647904E+02  0.27249052399E+02  0.61213052308E+02  0.10000000000E+01 0.  0.
<mgrwt>
<rscale>  0 0.12499934E+03</rscale>
<asrwt>0</asrwt>
<pdfrwt beam="1">  1        4 0.26194928E-01 0.12499934E+03</pdfrwt>
<pdfrwt beam="2">  1       -4 0.35294864E-02 0.12499934E+03</pdfrwt>
<totfact> 0.91293344E+03</totfact>
</mgrwt>
</event>
<event>
 4    1  0.3188180E-002  0.1248747E+03  0.7818608E-02  0.1235265E+00
          4   -1    0    0  501    0  0.00000000000E+00  0.00000000000E+00  0.63034043330E+01  0.64300704651E+01  0.12700000000E+01 0.  1.
         -4   -1    0    0    0  501 -0.00000000000E+00 -0.00000000000E+00 -0.61218348119E+03  0.61218479852E+03  0.12700000000E+01 0.  1.
    9000005    1    1    2    0    0  0.22997815377E+02 -0.52392306311E+02 -0.17923478554E+03  0.18814877523E+03  0.10000000000E+01 0.  0.
    9000005    1    1    2    0    0 -0.22997815377E+02  0.52392306311E+02 -0.42664529131E+03  0.43046609376E+03  0.10000000000E+01 0.  0.
<mgrwt>
<rscale>  0 0.12487469E+03</rscale>
<asrwt>0</asrwt>
<pdfrwt beam="1">  1        4 0.97959988E-03 0.12487469E+03</pdfrwt>
<pdfrwt beam="2">  1       -4 0.94191872E-01 0.12487469E+03</pdfrwt>
<totfact> 0.47844580E+03</totfact>
</mgrwt>
</event>
<event>
 5    1  0.3188180E-002  0.1250004E+03  0.7818608E-02  0.1235069E+00
         -4   -1    0    0    0  501 -0.00000000000E+00  0.00000000000E+00  0.10705456401E+03  0.10706209682E+03  0.12700000000E+01 0.  1.
          4   -1    0    0  501    0  0.00000000000E+00 -0.00000000000E+00 -0.36468753651E+02  0.36490860402E+02  0.12700000000E+01 0.  1.
         25    2    1    2    0    0  0.00000000000E+00  0.00000000000E+00  0.70585810357E+02  0.14355295722E+03  0.12500037961E+03 0.  0.
    9000005    1    3    3    0    0  0.36129298852E+02 -0.48572180885E+02  0.53109737690E+02  0.80537117089E+02  0.10000000000E+01 0.  0.
    9000005    1    3    3    0    0 -0.36129298852E+02  0.48572180885E+02  0.17476072667E+02  0.63015840130E+02  0.10000000000E+01 0.  0.
<mgrwt>
<rscale>  0 0.12500038E+03</rscale>
<asrwt>0</asrwt>
<pdfrwt beam="2">  1        4 0.56128575E-02 0.12500038E+03</pdfrwt>
<pdfrwt beam="1">  1       -4 0.16472213E-01 0.12500038E+03</pdfrwt>
<totfact> 0.10060386E+04</totfact>
</mgrwt>
</event>
<event>
 5    1  0.3188180E-002  0.1249994E+03  0.7818608E-02  0.1235070E+00
         -4   -1    0    0    0  501 -0.00000000000E+00  0.00000000000E+00  0.10766982569E+03  0.10767731546E+03  0.12700000000E+01 0. -1.
          4   -1    0    0  501    0  0.00000000000E+00 -0.00000000000E+00 -0.36259705240E+02  0.36281939365E+02  0.12700000000E+01 0. -1.
         25    2    1    2    0    0  0.00000000000E+00  0.00000000000E+00  0.71410120450E+02  0.14395925482E+03  0.12499944698E+03 0.  0.
    9000005    1    3    3    0    0  0.29466476389E+02 -0.51364728185E+02  0.58698497935E+02  0.83385383564E+02  0.10000000000E+01 0.  0.
    9000005    1    3    3    0    0 -0.29466476389E+02  0.51364728185E+02  0.12711622515E+02  0.60573871259E+02  0.10000000000E+01 0.  0.
<mgrwt>
<rscale>  0 0.12499945E+03</rscale>
<asrwt>0</asrwt>
<pdfrwt beam="2">  1        4 0.55807029E-02 0.12499945E+03</pdfrwt>
<pdfrwt beam="1">  1       -4 0.16566874E-01 0.12499945E+03</pdfrwt>
<totfact> 0.10052302E+04</totfact>
</mgrwt>
</event>
<event>
 5    1  0.3188180E-002  0.1249945E+03  0.7818608E-02  0.1235078E+00
          4   -1    0    0  501    0  0.00000000000E+00  0.00000000000E+00  0.29050657410E+03  0.29050935010E+03  0.12700000000E+01 0.  1.
         -4   -1    0    0    0  501 -0.00000000000E+00 -0.00000000000E+00 -0.13412310390E+02  0.13472303812E+02  0.12700000000E+01 0.  1.
         25    2    1    2    0    0  0.00000000000E+00  0.00000000000E+00  0.27709426371E+03  0.30398165391E+03  0.12499445961E+03 0.  0.
    9000005    1    3    3    0    0 -0.42623428080E+01  0.62171972646E+02  0.12730158408E+03  0.14173995576E+03  0.10000000000E+01 0.  0.
    9000005    1    3    3    0    0  0.42623428080E+01 -0.62171972646E+02  0.14979267963E+03  0.16224169815E+03  0.10000000000E+01 0.  0.
<mgrwt>
<rscale>  0 0.12499446E+03</rscale>
<asrwt>0</asrwt>
<pdfrwt beam="1">  1        4 0.44698148E-01 0.12499446E+03</pdfrwt>
<pdfrwt beam="2">  1       -4 0.20682608E-02 0.12499446E+03</pdfrwt>
<totfact> 0.75111320E+03</totfact>
</mgrwt>
</event>
<event>
 5    1  0.3188180E-002  0.1249894E+03  0.7818608E-02  0.1235086E+00
          4   -1    0    0  501    0  0.00000000000E+00  0.00000000000E+00  0.85278645103E+02  0.85288101225E+02  0.12700000000E+01 0.  1.
         -4   -1    0    0    0  501 -0.00000000000E+00 -0.00000000000E+00 -0.45777154848E+02  0.45794768325E+02  0.12700000000E+01 0.  1.
         25    2    1    2    0    0  0.00000000000E+00  0.00000000000E+00  0.39501490255E+02  0.13108286955E+03  0.12498940338E+03 0.  0.
    9000005    1    3    3    0    0  0.27285442648E+02  0.19343223966E+01  0.78671102797E+02  0.83296935111E+02  0.10000000000E+01 0.  0.
    9000005    1    3    3    0    0 -0.27285442648E+02 -0.19343223966E+01 -0.39169612541E+02  0.47785934440E+02  0.10000000000E+01 0.  0.
<mgrwt>
<rscale>  0 0.12498940E+03</rscale>
<asrwt>0</asrwt>
<pdfrwt beam="1">  1        4 0.13121874E-01 0.12498940E+03</pdfrwt>
<pdfrwt beam="2">  1       -4 0.70447216E-02 0.12498940E+03</pdfrwt>
<totfact> 0.10323781E+04</totfact>
</mgrwt>
</event>
<event>
 5    1  0.3188180E-002  0.1249994E+03  0.7818608E-02  0.1235070E+00
         -4   -1    0    0    0  501 -0.00000000000E+00  0.00000000000E+00  0.86462566425E+02  0.86471893080E+02  0.12700000000E+01 0.  1.
          4   -1    0    0  501    0  0.00000000000E+00 -0.00000000000E+00 -0.45157409394E+02  0.45175264506E+02  0.12700000000E+01 0.  1.
         25    2    1    2    0    0  0.00000000000E+00  0.00000000000E+00  0.41305157030E+02  0.13164715759E+03  0.12499943241E+03 0.  0.
    9000005    1    3    3    0    0 -0.38901503866E+02 -0.28751630905E+02  0.62319623326E+02  0.78896886720E+02  0.10000000000E+01 0.  0.
    9000005    1    3    3    0    0  0.38901503866E+02  0.28751630905E+02 -0.21014466295E+02  0.52750270866E+02  0.10000000000E+01 0.  0.
<mgrwt>
<rscale>  0 0.12499943E+03</rscale>
<asrwt>0</asrwt>
<pdfrwt beam="2">  1        4 0.69493847E-02 0.12499943E+03</pdfrwt>
<pdfrwt beam="1">  1       -4 0.13304024E-01 0.12499943E+03</pdfrwt>
<totfact> 0.10309367E+04</totfact>
</mgrwt>
</event>
<event>
 5    1  0.3188180E-002  0.1250040E+03  0.7818608E-02  0.1235063E+00
         -4   -1    0    0    0  501 -0.00000000000E+00  0.00000000000E+00  0.15719975624E+02  0.15771193158E+02  0.12700000000E+01 0. -1.
          4   -1    0    0  501    0  0.00000000000E+00 -0.00000000000E+00 -0.24804851230E+03  0.24805176346E+03  0.12700000000E+01 0. -1.
         25    2    1    2    0    0  0.00000000000E+00  0.00000000000E+00 -0.23232853668E+03  0.26382295662E+03  0.12500401387E+03 0.  0.
    9000005    1    3    3    0    0 -0.42804994853E+02 -0.26323489075E+02 -0.37753356757E+02  0.62861034098E+02  0.10000000000E+01 0.  0.
    9000005    1    3    3    0    0  0.42804994853E+02  0.26323489075E+02 -0.19457517992E+03  0.20096192252E+03  0.10000000000E+01 0.  0.
<mgrwt>
<rscale>  0 0.12500401E+03</rscale>
<asrwt>0</asrwt>
<pdfrwt beam="2">  1        4 0.38165497E-01 0.12500401E+03</pdfrwt>
<pdfrwt beam="1">  1       -4 0.24226479E-02 0.12500401E+03</pdfrwt>
<totfact> 0.80365361E+03</totfact>
</mgrwt>
</event>
<event>
 5    1  0.3188180E-002  0.1250043E+03  0.7818608E-02  0.1235063E+00
          4   -1    0    0  501    0  0.00000000000E+00  0.00000000000E+00  0.37403632834E+02  0.37425187364E+02  0.12700000000E+01 0.  1.
         -4   -1    0    0    0  501 -0.00000000000E+00 -0.00000000000E+00 -0.10438677742E+03  0.10439450273E+03  0.12700000000E+01 0.  1.
         25    2    1    2    0    0  0.00000000000E+00  0.00000000000E+00 -0.66983144585E+02  0.14181969009E+03  0.12500433128E+03 0.  0.
    9000005    1    3    3    0    0 -0.10770712329E+02  0.79281506661E+01 -0.10274976840E+03  0.10362132369E+03  0.10000000000E+01 0.  0.
    9000005    1    3    3    0    0  0.10770712329E+02 -0.79281506661E+01  0.35766623812E+02  0.38198366405E+02  0.10000000000E+01 0.  0.
<mgrwt>
<rscale>  0 0.12500433E+03</rscale>
<asrwt>0</asrwt>
<pdfrwt beam="1">  1        4 0.57566574E-02 0.12500433E+03</pdfrwt>
<pdfrwt beam="2">  1       -4 0.16061756E-01 0.12500433E+03</pdfrwt>
<totfact> 0.10095025E+04</totfact>
</mgrwt>
</event>
<event>
 5    1  0.3188180E-002  0.1249974E+03  0.7818608E-02  0.1235073E+00
         -4   -1    0    0    0  501 -0.00000000000E+00  0.00000000000E+00  0.77042732326E+03  0.77042837002E+03  0.12700000000E+01 0. -1.
          4   -1    0    0  501    0  0.00000000000E+00 -0.00000000000E+00 -0.49894260791E+01  0.51485213993E+01  0.12700000000E+01 0. -1.
         25    2    1    2    0    0  0.00000000000E+00  0.00000000000E+00  0.76543789718E+03  0.77557689142E+03  0.12499736020E+03 0.  0.
    9000005    1    3    3    0    0  0.11328773035E+02 -0.36962050890E+02  0.78082295498E+02  0.87134259478E+02  0.10000000000E+01 0.  0.
    9000005    1    3    3    0    0 -0.11328773035E+02  0.36962050890E+02  0.68735560168E+03  0.68844263194E+03  0.10000000000E+01 0.  0.
<mgrwt>
<rscale>  0 0.12499736E+03</rscale>
<asrwt>0</asrwt>
<pdfrwt beam="2">  1        4 0.77992253E-03 0.12499736E+03</pdfrwt>
<pdfrwt beam="1">  1       -4 0.11853961E+00 0.12499736E+03</pdfrwt>
<totfact> 0.39380813E+03</totfact>
</mgrwt>
</event>
<event>
 5    1  0.3188180E-002  0.1250053E+03  0.7818608E-02  0.1235061E+00
         -4   -1    0    0    0  501 -0.00000000000E+00  0.00000000000E+00  0.29888074587E+03  0.29888344409E+03  0.12700000000E+01 0.  1.
          4   -1    0    0  501    0  0.00000000000E+00 -0.00000000000E+00 -0.13037096740E+02  0.13098808778E+02  0.12700000000E+01 0.  1.
         25    2    1    2    0    0  0.00000000000E+00  0.00000000000E+00  0.28584364913E+03  0.31198225286E+03  0.12500533731E+03 0.  0.
    9000005    1    3    3    0    0  0.56311272642E+02 -0.20424397777E+02  0.18739021457E+03  0.19673385059E+03  0.10000000000E+01 0.  0.
    9000005    1    3    3    0    0 -0.56311272642E+02  0.20424397777E+02  0.98453434558E+02  0.11524840228E+03  0.10000000000E+01 0.  0.
<mgrwt>
<rscale>  0 0.12500534E+03</rscale>
<asrwt>0</asrwt>
<pdfrwt beam="2">  1        4 0.20106617E-02 0.12500534E+03</pdfrwt>
<pdfrwt beam="1">  1       -4 0.45986611E-01 0.12500534E+03</pdfrwt>
<totfact> 0.74111196E+03</totfact>
</mgrwt>
</event>
<event>
 5    1  0.3188180E-002  0.1249982E+03  0.7818608E-02  0.1235072E+00
          4   -1    0    0  501    0  0.00000000000E+00  0.00000000000E+00  0.41225887928E+01  0.43137730996E+01  0.12700000000E+01 0.  1.
         -4   -1    0    0    0  501 -0.00000000000E+00 -0.00000000000E+00 -0.92583196648E+03  0.92583283753E+03  0.12700000000E+01 0.  1.
         25    2    1    2    0    0  0.00000000000E+00  0.00000000000E+00 -0.92170937769E+03  0.93014661063E+03  0.12499816141E+03 0.  0.
    9000005    1    3    3    0    0 -0.49831850126E+02  0.25846985730E+02 -0.66516567985E+03  0.66753101921E+03  0.10000000000E+01 0.  0.
    9000005    1    3    3    0    0  0.49831850126E+02 -0.25846985730E+02 -0.25654369783E+03  0.26261559142E+03  0.10000000000E+01 0.  0.
<mgrwt>
<rscale>  0 0.12499816E+03</rscale>
<asrwt>0</asrwt>
<pdfrwt beam="1">  1        4 0.64901866E-03 0.12499816E+03</pdfrwt>
<pdfrwt beam="2">  1       -4 0.14245030E+00 0.12499816E+03</pdfrwt>
<totfact> 0.33032860E+03</totfact>
</mgrwt>
</event>
<event>
 5    1  0.3188180E-002  0.1250043E+03  0.7818608E-02  0.1235063E+00
          4   -1    0    0  501    0  0.00000000000E+00  0.00000000000E+00  0.14138625291E+03  0.14139195667E+03  0.12700000000E+01 0. -1.
         -4   -1    0    0    0  501 -0.00000000000E+00 -0.00000000000E+00 -0.27609247893E+02  0.27638441874E+02  0.12700000000E+01 0. -1.
         25    2    1    2    0    0  0.00000000000E+00  0.00000000000E+00  0.11377700501E+03  0.16903039854E+03  0.12500427498E+03 0.  0.
    9000005    1    3    3    0    0 -0.32911710825E+02 -0.33686711282E+01  0.12858030293E+03  0.13277207145E+03  0.10000000000E+01 0.  0.
    9000005    1    3    3    0    0  0.32911710825E+02  0.33686711282E+01 -0.14803297918E+02  0.36258327097E+02  0.10000000000E+01 0.  0.
<mgrwt>
<rscale>  0 0.12500427E+03</rscale>
<asrwt>0</asrwt>
<pdfrwt beam="1">  1        4 0.21754415E-01 0.12500427E+03</pdfrwt>
<pdfrwt beam="2">  1       -4 0.42502611E-02 0.12500427E+03</pdfrwt>
<totfact> 0.95620317E+03</totfact>
</mgrwt>
</event>
<event>
 5    1  0.3188180E-002  0.1249988E+03  0.7818608E-02  0.1235071E+00
         -4   -1    0    0    0  501 -0.00000000000E+00  0.00000000000E+00  0.34667451100E+02  0.34690705755E+02  0.12700000000E+01 0.  1.
          4   -1    0    0  501    0  0.00000000000E+00 -0.00000000000E+00 -0.11261092560E+03  0.11261808675E+03  0.12700000000E+01 0.  1.
         25    2    1    2    0    0  0.00000000000E+00  0.00000000000E+00 -0.77943474498E+02  0.14730879251E+03  0.12499878053E+03 0.  0.
    9000005    1    3    3    0    0  0.24267109258E+02  0.26076819183E+02  0.21537087533E+02  0.41638194364E+02  0.10000000000E+01 0.  0.
    9000005    1    3    3    0    0 -0.24267109258E+02 -0.26076819183E+02 -0.99480562031E+02  0.10567059815E+03  0.10000000000E+01 0.  0.
<mgrwt>
<rscale>  0 0.12499878E+03</rscale>
<asrwt>0</asrwt>
<pdfrwt beam="2">  1        4 0.17327097E-01 0.12499878E+03</pdfrwt>
<pdfrwt beam="1">  1       -4 0.53357938E-02 0.12499878E+03</pdfrwt>
<totfact> 0.99845622E+03</totfact>
</mgrwt>
</event>
<event>
 5    1  0.3188180E-002  0.1250059E+03  0.7818608E-02  0.1235060E+00
         -4   -1    0    0    0  501 -0.00000000000E+00  0.00000000000E+00  0.34404977568E+03  0.34405211966E+03  0.12700000000E+01 0. -1.
          4   -1    0    0  501    0  0.00000000000E+00 -0.00000000000E+00 -0.11316912185E+02  0.11387949833E+02  0.12700000000E+01 0. -1.
         25    2    1    2    0    0  0.00000000000E+00  0.00000000000E+00  0.33273286349E+03  0.35544006950E+03  0.12500593808E+03 0.  0.
    9000005    1    3    3    0    0  0.44486584211E+02 -0.20060613317E+02  0.27737275293E+03  0.28163474298E+03  0.10000000000E+01 0.  0.
    9000005    1    3    3    0    0 -0.44486584211E+02  0.20060613317E+02  0.55360110561E+02  0.73805326520E+02  0.10000000000E+01 0.  0.
<mgrwt>
<rscale>  0 0.12500594E+03</rscale>
<asrwt>0</asrwt>
<pdfrwt beam="2">  1        4 0.17467083E-02 0.12500594E+03</pdfrwt>
<pdfrwt beam="1">  1       -4 0.52936376E-01 0.12500594E+03</pdfrwt>
<totfact> 0.69121118E+03</totfact>
</mgrwt>
</event>
<event>
 5    1  0.3188180E-002  0.1249893E+03  0.7818608E-02  0.1235086E+00
          4   -1    0    0  501    0  0.00000000000E+00  0.00000000000E+00  0.22058180889E+03  0.22058546487E+03  0.12700000000E+01 0. -1.
         -4   -1    0    0    0  501 -0.00000000000E+00 -0.00000000000E+00 -0.17679240027E+02  0.17724796979E+02  0.12700000000E+01 0. -1.
         25    2    1    2    0    0  0.00000000000E+00  0.00000000000E+00  0.20290256886E+03  0.23831026185E+03  0.12498931335E+03 0.  0.
    9000005    1    3    3    0    0 -0.40572399858E+02 -0.32195638712E+02  0.34803105723E+02  0.62409413956E+02  0.10000000000E+01 0.  0.
    9000005    1    3    3    0    0  0.40572399858E+02  0.32195638712E+02  0.16809946314E+03  0.17590084790E+03  0.10000000000E+01 0.  0.
<mgrwt>
<rscale>  0 0.12498931E+03</rscale>
<asrwt>0</asrwt>
<pdfrwt beam="1">  1        4 0.33939445E-01 0.12498931E+03</pdfrwt>
<pdfrwt beam="2">  1       -4 0.27236690E-02 0.12498931E+03</pdfrwt>
<totfact> 0.84069702E+03</totfact>
</mgrwt>
</event>
<event>
 5    1  0.3188180E-002  0.1249926E+03  0.7818608E-02  0.1235081E+00
          4   -1    0    0  501    0  0.00000000000E+00  0.00000000000E+00  0.28314474715E+01  0.31032232894E+01  0.12700000000E+01 0. -1.
         -4   -1    0    0    0  501 -0.00000000000E+00 -0.00000000000E+00 -0.13159886500E+04  0.13159892628E+04  0.12700000000E+01 0. -1.
         25    2    1    2    0    0  0.00000000000E+00  0.00000000000E+00 -0.13131572025E+04  0.13190924861E+04  0.12499259309E+03 0.  0.
    9000005    1    3    3    0    0  0.14223852979E+01  0.40850821195E+02 -0.15777445398E+03  0.16298647521E+03  0.10000000000E+01 0.  0.
    9000005    1    3    3    0    0 -0.14223852979E+01 -0.40850821195E+02 -0.11553827485E+04  0.11561060109E+04  0.10000000000E+01 0.  0.
<mgrwt>
<rscale>  0 0.12499259E+03</rscale>
<asrwt>0</asrwt>
<pdfrwt beam="1">  1        4 0.45656133E-03 0.12499259E+03</pdfrwt>
<pdfrwt beam="2">  1       -4 0.20248028E+00 0.12499259E+03</pdfrwt>
<totfact> 0.21785933E+03</totfact>
</mgrwt>
</event>
<event>
 5    1  0.3188180E-002  0.1249979E+03  0.7818608E-02  0.1235073E+00
          4   -1    0    0  501    0  0.00000000000E+00  0.00000000000E+00  0.86764220267E+02  0.86773514500E+02  0.12700000000E+01 0.  1.
         -4   -1    0    0    0  501 -0.00000000000E+00 -0.00000000000E+00 -0.44999260082E+02  0.45017177920E+02  0.12700000000E+01 0.  1.
         25    2    1    2    0    0  0.00000000000E+00  0.00000000000E+00  0.41764960186E+02  0.13179069242E+03  0.12499789882E+03 0.  0.
    9000005    1    3    3    0    0  0.16830159930E+02 -0.60108292943E+02  0.17744588490E+02  0.64900936700E+02  0.10000000000E+01 0.  0.
    9000005    1    3    3    0    0 -0.16830159930E+02  0.60108292943E+02  0.24020371696E+02  0.66889755720E+02  0.10000000000E+01 0.  0.
<mgrwt>
<rscale>  0 0.12499790E+03</rscale>
<asrwt>0</asrwt>
<pdfrwt beam="1">  1        4 0.13350435E-01 0.12499790E+03</pdfrwt>
<pdfrwt beam="2">  1       -4 0.69250564E-02 0.12499790E+03</pdfrwt>
<totfact> 0.10306656E+04</totfact>
</mgrwt>
</event>
<event>
 5    1  0.3188180E-002  0.1250006E+03  0.7818608E-02  0.1235068E+00
         -4   -1    0    0    0  501 -0.00000000000E+00  0.00000000000E+00  0.23534562191E+03  0.23534904854E+03  0.12700000000E+01 0.  1.
          4   -1    0    0  501    0  0.00000000000E+00 -0.00000000000E+00 -0.16570249796E+02  0.16618847081E+02  0.12700000000E+01 0.  1.
         25    2    1    2    0    0  0.00000000000E+00  0.00000000000E+00  0.21877537211E+03  0.25196789562E+03  0.12500062793E+03 0.  0.
    9000005    1    3    3    0    0 -0.59168897262E+02  0.13097211363E+01  0.68941437635E+02  0.90865810929E+02  0.10000000000E+01 0.  0.
    9000005    1    3    3    0    0  0.59168897262E+02 -0.13097211363E+01  0.14983393448E+03  0.16110208470E+03  0.10000000000E+01 0.  0.
<mgrwt>
<rscale>  0 0.12500063E+03</rscale>
<asrwt>0</asrwt>
<pdfrwt beam="2">  1        4 0.25532710E-02 0.12500063E+03</pdfrwt>
<pdfrwt beam="1">  1       -4 0.36211021E-01 0.12500063E+03</pdfrwt>
<totfact> 0.82045486E+03</totfact>
</mgrwt>
</event>
<event>
 5    1  0.3188180E-002  0.1250032E+03  0.7818608E-02  0.1235064E+00
         -4   -1    0    0    0  501 -0.00000000000E+00  0.00000000000E+00  0.11543762613E+03  0.11544461195E+03  0.12700000000E+01 0.  1.
          4   -1    0    0  501    0  0.00000000000E+00 -0.00000000000E+00 -0.33820442279E+02  0.33844278925E+02  0.12700000000E+01 0.  1.
         25    2    1    2    0    0  0.00000000000E+00  0.00000000000E+00  0.81617183855E+02  0.14928889087E+03  0.12500323291E+03 0.  0.
    9000005    1    3    3    0    0  0.22564642813E+02  0.58230777777E+02  0.38016561508E+02  0.73118024691E+02  0.10000000000E+01 0.  0.
    9000005    1    3    3    0    0 -0.22564642813E+02 -0.58230777777E+02  0.43600622347E+02  0.76170866181E+02  0.10000000000E+01 0.  0.
<mgrwt>
<rscale>  0 0.12500323E+03</rscale>
<asrwt>0</asrwt>
<pdfrwt beam="2">  1        4 0.52055160E-02 0.12500323E+03</pdfrwt>
<pdfrwt beam="1">  1       -4 0.17762006E-01 0.12500323E+03</pdfrwt>
<totfact> 0.99438400E+03</totfact>
</mgrwt>
</event>
<event>
 5    1  0.3188180E-002  0.1249991E+03  0.7818608E-02  0.1235071E+00
          4   -1    0    0  501    0  0.00000000000E+00  0.00000000000E+00  0.49230791605E+02  0.49247169888E+02  0.12700000000E+01 0. -1.
         -4   -1    0    0    0  501 -0.00000000000E+00 -0.00000000000E+00 -0.79309865218E+02  0.79320032911E+02  0.12700000000E+01 0. -1.
         25    2    1    2    0    0  0.00000000000E+00  0.00000000000E+00 -0.30079073614E+02  0.12856720280E+03  0.12499909986E+03 0.  0.
    9000005    1    3    3    0    0  0.27385252296E+02 -0.10892541335E+02  0.41638747014E+02  0.51023374575E+02  0.10000000000E+01 0.  0.
    9000005    1    3    3    0    0 -0.27385252296E+02  0.10892541335E+02 -0.71717820628E+02  0.77543828224E+02  0.10000000000E+01 0.  0.
<mgrwt>
<rscale>  0 0.12499910E+03</rscale>
<asrwt>0</asrwt>
<pdfrwt beam="1">  1        4 0.75760099E-02 0.12499910E+03</pdfrwt>
<pdfrwt beam="2">  1       -4 0.12203560E-01 0.12499910E+03</pdfrwt>
<totfact> 0.10375467E+04</totfact>
</mgrwt>
</event>
<event>
 5    1  0.3188180E-002  0.1249716E+03  0.7818608E-02  0.1235114E+00
          4   -1    0    0  501    0  0.00000000000E+00  0.00000000000E+00  0.22077365956E+02  0.22113864148E+02  0.12700000000E+01 0.  1.
         -4   -1    0    0    0  501 -0.00000000000E+00 -0.00000000000E+00 -0.17666944970E+03  0.17667401438E+03  0.12700000000E+01 0.  1.
         25    2    1    2    0    0  0.00000000000E+00  0.00000000000E+00 -0.15459208374E+03  0.19878787853E+03  0.12497162995E+03 0.  0.
    9000005    1    3    3    0    0  0.89215770445E+01 -0.57008466391E+02 -0.39189185650E+02  0.69759243468E+02  0.10000000000E+01 0.  0.
    9000005    1    3    3    0    0 -0.89215770445E+01  0.57008466391E+02 -0.11540289809E+03  0.12902863506E+03  0.10000000000E+01 0.  0.
<mgrwt>
<rscale>  0 0.12497163E+03</rscale>
<asrwt>0</asrwt>
<pdfrwt beam="1">  1        4 0.33996766E-02 0.12497163E+03</pdfrwt>
<pdfrwt beam="2">  1       -4 0.27183073E-01 0.12497163E+03</pdfrwt>
<totfact> 0.90397722E+03</totfact>
</mgrwt>
</event>
<event>
 5    1  0.3188180E-002  0.1249963E+03  0.7818608E-02  0.1235075E+00
          4   -1    0    0  501    0  0.00000000000E+00  0.00000000000E+00  0.28785128271E+01  0.31462256906E+01  0.12700000000E+01 0.  1.
         -4   -1    0    0    0  501 -0.00000000000E+00 -0.00000000000E+00 -0.12963918884E+04  0.12963925105E+04  0.12700000000E+01 0.  1.
         25    2    1    2    0    0  0.00000000000E+00  0.00000000000E+00 -0.12935133756E+04  0.12995387362E+04  0.12499629596E+03 0.  0.
    9000005    1    3    3    0    0 -0.29425361601E+01 -0.44125641521E+02 -0.11057750526E+04  0.11066594769E+04  0.10000000000E+01 0.  0.
    9000005    1    3    3    0    0  0.29425361601E+01  0.44125641521E+02 -0.18773832295E+03  0.19287925929E+03  0.10000000000E+01 0.  0.
<mgrwt>
<rscale>  0 0.12499630E+03</rscale>
<asrwt>0</asrwt>
<pdfrwt beam="1">  1        4 0.46349031E-03 0.12499630E+03</pdfrwt>
<pdfrwt beam="2">  1       -4 0.19946510E+00 0.12499630E+03</pdfrwt>
<totfact> 0.22241269E+03</totfact>
</mgrwt>
</event>
<event>
 5    1  0.3188180E-002  0.1250023E+03  0.7818608E-02  0.1235066E+00
         -4   -1    0    0    0  501 -0.00000000000E+00  0.00000000000E+00  0.96204877255E+02  0.96213259520E+02  0.12700000000E+01 0. -1.
          4   -1    0    0  501    0  0.00000000000E+00 -0.00000000000E+00 -0.40584876253E+02  0.40604742093E+02  0.12700000000E+01 0. -1.
         25    2    1    2    0    0  0.00000000000E+00  0.00000000000E+00  0.55620001002E+02  0.13681800161E+03  0.12500232419E+03 0.  0.
    9000005    1    3    3    0    0  0.83521680468E+01 -0.19041967951E+02  0.92313020405E+02  0.94631120626E+02  0.10000000000E+01 0.  0.
    9000005    1    3    3    0    0 -0.83521680468E+01  0.19041967951E+02 -0.36693019403E+02  0.42186880988E+02  0.10000000000E+01 0.  0.
<mgrwt>
<rscale>  0 0.12500232E+03</rscale>
<asrwt>0</asrwt>
<pdfrwt beam="2">  1        4 0.62460001E-02 0.12500232E+03</pdfrwt>
<pdfrwt beam="1">  1       -4 0.14802923E-01 0.12500232E+03</pdfrwt>
<totfact> 0.10199358E+04</totfact>
</mgrwt>
</event>
<event>
 5    1  0.3188180E-002  0.1250009E+03  0.7818608E-02  0.1235068E+00
         -4   -1    0    0    0  501 -0.00000000000E+00  0.00000000000E+00  0.10000821025E+04  0.10000829089E+04  0.12700000000E+01 0.  1.
          4   -1    0    0  501    0  0.00000000000E+00 -0.00000000000E+00 -0.38019264775E+01  0.40084342255E+01  0.12700000000E+01 0.  1.
         25    2    1    2    0    0  0.00000000000E+00  0.00000000000E+00  0.99628017606E+03  0.10040913431E+04  0.12500094468E+03 0.  0.
    9000005    1    3    3    0    0 -0.57606964647E+02 -0.23789053794E+02  0.46148119035E+03  0.46567195589E+03  0.10000000000E+01 0.  0.
    9000005    1    3    3    0    0  0.57606964647E+02  0.23789053794E+02  0.53479898571E+03  0.53841938725E+03  0.10000000000E+01 0.  0.
<mgrwt>
<rscale>  0 0.12500094E+03</rscale>
<asrwt>0</asrwt>
<pdfrwt beam="2">  1        4 0.60085831E-03 0.12500094E+03</pdfrwt>
<pdfrwt beam="1">  1       -4 0.15387491E+00 0.12500094E+03</pdfrwt>
<totfact> 0.30469108E+03</totfact>
</mgrwt>
</event>
<event>
 5    1  0.3188180E-002  0.1250023E+03  0.7818608E-02  0.1235066E+00
          4   -1    0    0  501    0  0.00000000000E+00  0.00000000000E+00  0.28563647704E+02  0.28591867203E+02  0.12700000000E+01 0.  1.
         -4   -1    0    0    0  501 -0.00000000000E+00 -0.00000000000E+00 -0.13666225880E+03  0.13666815972E+03  0.12700000000E+01 0.  1.
         25    2    1    2    0    0  0.00000000000E+00  0.00000000000E+00 -0.10809861110E+03  0.16526002692E+03  0.12500226709E+03 0.  0.
    9000005    1    3    3    0    0 -0.11968086802E+01  0.19175065836E+02  0.24568880331E+02  0.31204893552E+02  0.10000000000E+01 0.  0.
    9000005    1    3    3    0    0  0.11968086802E+01 -0.19175065836E+02 -0.13266749143E+03  0.13405513337E+03  0.10000000000E+01 0.  0.
<mgrwt>
<rscale>  0 0.12500227E+03</rscale>
<asrwt>0</asrwt>
<pdfrwt beam="1">  1        4 0.43970321E-02 0.12500227E+03</pdfrwt>
<pdfrwt beam="2">  1       -4 0.21027587E-01 0.12500227E+03</pdfrwt>
<totfact> 0.96333264E+03</totfact>
</mgrwt>
</event>
<event>
 5    1  0.3188180E-002  0.1249966E+03  0.7818608E-02  0.1235075E+00
         -4   -1    0    0    0  501 -0.00000000000E+00  0.00000000000E+00  0.19413699093E+02  0.19455195000E+02  0.12700000000E+01 0. -1.
          4   -1    0    0  501    0  0.00000000000E+00 -0.00000000000E+00 -0.20094164788E+03  0.20094566120E+03  0.12700000000E+01 0. -1.
         25    2    1    2    0    0  0.00000000000E+00  0.00000000000E+00 -0.18152794879E+03  0.22040085620E+03  0.12499656483E+03 0.  0.
    9000005    1    3    3    0    0  0.81428608470E+01 -0.11888324060E+02  0.16452922666E+02  0.21893768428E+02  0.10000000000E+01 0.  0.
    9000005    1    3    3    0    0 -0.81428608470E+01  0.11888324060E+02 -0.19798087145E+03  0.19850708777E+03  0.10000000000E+01 0.  0.
<mgrwt>
<rscale>  0 0.12499656E+03</rscale>
<asrwt>0</asrwt>
<pdfrwt beam="2">  1        4 0.30917599E-01 0.12499656E+03</pdfrwt>
<pdfrwt beam="1">  1       -4 0.29902238E-02 0.12499656E+03</pdfrwt>
<totfact> 0.86811620E+03</totfact>
</mgrwt>
</event>
<event>
 5    1  0.3188180E-002  0.1249975E+03  0.7818608E-02  0.1235073E+00
         -4   -1    0    0    0  501 -0.00000000000E+00  0.00000000000E+00  0.43250062216E+03  0.43250248678E+03  0.12700000000E+01 0. -1.
          4   -1    0    0  501    0  0.00000000000E+00 -0.00000000000E+00 -0.89848773150E+01  0.90741897912E+01  0.12700000000E+01 0. -1.
         25    2    1    2    0    0  0.00000000000E+00  0.00000000000E+00  0.42351574485E+03  0.44157667657E+03  0.12499750061E+03 0.  0.
    9000005    1    3    3    0    0 -0.17911994519E+02  0.10703492070E+01  0.42322106404E+03  0.42360247195E+03  0.10000000000E+01 0.  0.
    9000005    1    3    3    0    0  0.17911994519E+02 -0.10703492070E+01  0.29468080981E+00  0.17974204623E+02  0.10000000000E+01 0.  0.
<mgrwt>
<rscale>  0 0.12499750E+03</rscale>
<asrwt>0</asrwt>
<pdfrwt beam="2">  1        4 0.13893025E-02 0.12499750E+03</pdfrwt>
<pdfrwt beam="1">  1       -4 0.66545569E-01 0.12499750E+03</pdfrwt>
<totfact> 0.60703816E+03</totfact>
</mgrwt>
</event>
<event>
 5    1  0.3188180E-002  0.1249583E+03  0.7818608E-02  0.1235134E+00
          4   -1    0    0  501    0  0.00000000000E+00  0.00000000000E+00  0.13229257475E+02  0.13290077251E+02  0.12700000000E+01 0. -1.
         -4   -1    0    0    0  501 -0.00000000000E+00 -0.00000000000E+00 -0.29433786610E+03  0.29434060597E+03  0.12700000000E+01 0. -1.
         25    2    1    2    0    0  0.00000000000E+00  0.00000000000E+00 -0.28110860863E+03  0.30763068322E+03  0.12495834271E+03 0.  0.
    9000005    1    3    3    0    0  0.21271253201E+02  0.35664617280E+02 -0.25545293073E+03  0.25880809678E+03  0.10000000000E+01 0.  0.
    9000005    1    3    3    0    0 -0.21271253201E+02 -0.35664617280E+02 -0.25655677896E+02  0.48822586441E+02  0.10000000000E+01 0.  0.
<mgrwt>
<rscale>  0 0.12495834E+03</rscale>
<asrwt>0</asrwt>
<pdfrwt beam="1">  1        4 0.20401598E-02 0.12495834E+03</pdfrwt>
<pdfrwt beam="2">  1       -4 0.45287633E-01 0.12495834E+03</pdfrwt>
<totfact> 0.74720567E+03</totfact>
</mgrwt>
</event>
<event>
 5    1  0.3188180E-002  0.1250151E+03  0.7818608E-02  0.1235046E+00
         -4   -1    0    0    0  501 -0.00000000000E+00  0.00000000000E+00  0.19408518615E+02  0.19450025574E+02  0.12700000000E+01 0. -1.
          4   -1    0    0  501    0  0.00000000000E+00 -0.00000000000E+00 -0.20105471939E+03  0.20105873045E+03  0.12700000000E+01 0. -1.
         25    2    1    2    0    0  0.00000000000E+00  0.00000000000E+00 -0.18164620078E+03  0.22050875603E+03  0.12501507599E+03 0.  0.
    9000005    1    3    3    0    0  0.36656811611E+02  0.94588444496E+01 -0.17853844468E+03  0.18251073340E+03  0.10000000000E+01 0.  0.
    9000005    1    3    3    0    0 -0.36656811611E+02 -0.94588444496E+01 -0.31077561001E+01  0.37998022630E+02  0.10000000000E+01 0.  0.
<mgrwt>
<rscale>  0 0.12501508E+03</rscale>
<asrwt>0</asrwt>
<pdfrwt beam="2">  1        4 0.30934995E-01 0.12501508E+03</pdfrwt>
<pdfrwt beam="1">  1       -4 0.29894275E-02 0.12501508E+03</pdfrwt>
<totfact> 0.86758693E+03</totfact>
</mgrwt>
</event>
<event>
 5    1  0.3188180E-002  0.1250013E+03  0.7818608E-02  0.1235067E+00
         -4   -1    0    0    0  501 -0.00000000000E+00  0.00000000000E+00  0.29040138684E+03  0.29040416384E+03  0.12700000000E+01 0. -1.
          4   -1    0    0  501    0  0.00000000000E+00 -0.00000000000E+00 -0.13418673359E+02  0.13478638459E+02  0.12700000000E+01 0. -1.
         25    2    1    2    0    0  0.00000000000E+00  0.00000000000E+00  0.27698271348E+03  0.30388280230E+03  0.12500133587E+03 0.  0.
    9000005    1    3    3    0    0 -0.62483494115E+02 -0.10111595187E+01  0.13763525981E+03  0.15116108700E+03  0.10000000000E+01 0.  0.
    9000005    1    3    3    0    0  0.62483494115E+02  0.10111595187E+01  0.13934745367E+03  0.15272171530E+03  0.10000000000E+01 0.  0.
<mgrwt>
<rscale>  0 0.12500134E+03</rscale>
<asrwt>0</asrwt>
<pdfrwt beam="2">  1        4 0.20692375E-02 0.12500134E+03</pdfrwt>
<pdfrwt beam="1">  1       -4 0.44681964E-01 0.12500134E+03</pdfrwt>
<totfact> 0.75112124E+03</totfact>
</mgrwt>
</event>
<event>
 5    1  0.3188180E-002  0.1250034E+03  0.7818608E-02  0.1235064E+00
         -4   -1    0    0    0  501 -0.00000000000E+00  0.00000000000E+00  0.37103447174E+02  0.37125175988E+02  0.12700000000E+01 0. -1.
          4   -1    0    0  501    0  0.00000000000E+00 -0.00000000000E+00 -0.10522937712E+03  0.10523704057E+03  0.12700000000E+01 0. -1.
         25    2    1    2    0    0  0.00000000000E+00  0.00000000000E+00 -0.68125929945E+02  0.14236221656E+03  0.12500343345E+03 0.  0.
    9000005    1    3    3    0    0 -0.33281978716E+00 -0.37179560540E+02 -0.91268013687E+02  0.98555978070E+02  0.10000000000E+01 0.  0.
    9000005    1    3    3    0    0  0.33281978716E+00  0.37179560540E+02  0.23142083742E+02  0.43806238493E+02  0.10000000000E+01 0.  0.
<mgrwt>
<rscale>  0 0.12500343E+03</rscale>
<asrwt>0</asrwt>
<pdfrwt beam="2">  1        4 0.16191396E-01 0.12500343E+03</pdfrwt>
<pdfrwt beam="1">  1       -4 0.57104836E-02 0.12500343E+03</pdfrwt>
<totfact> 0.10084080E+04</totfact>
</mgrwt>
</event>
<event>
 5    1  0.3188180E-002  0.1250005E+03  0.7818608E-02  0.1235069E+00
          4   -1    0    0  501    0  0.00000000000E+00  0.00000000000E+00  0.27531677053E+02  0.27560953201E+02  0.12700000000E+01 0.  1.
         -4   -1    0    0    0  501 -0.00000000000E+00 -0.00000000000E+00 -0.14177556356E+03  0.14178125166E+03  0.12700000000E+01 0.  1.
         25    2    1    2    0    0  0.00000000000E+00  0.00000000000E+00 -0.11424388651E+03  0.16934220486E+03  0.12500046697E+03 0.  0.
    9000005    1    3    3    0    0  0.47514249247E+02  0.25672431460E+02 -0.99717492433E+02  0.11340747734E+03  0.10000000000E+01 0.  0.
    9000005    1    3    3    0    0 -0.47514249247E+02 -0.25672431460E+02 -0.14526394072E+02  0.55934727526E+02  0.10000000000E+01 0.  0.
<mgrwt>
<rscale>  0 0.12500047E+03</rscale>
<asrwt>0</asrwt>
<pdfrwt beam="1">  1        4 0.42383323E-02 0.12500047E+03</pdfrwt>
<pdfrwt beam="2">  1       -4 0.21814314E-01 0.12500047E+03</pdfrwt>
<totfact> 0.95570307E+03</totfact>
</mgrwt>
</event>
<event>
 5    1  0.3188180E-002  0.1249998E+03  0.7818608E-02  0.1235070E+00
         -4   -1    0    0    0  501 -0.00000000000E+00  0.00000000000E+00  0.48911215105E+02  0.48927700365E+02  0.12700000000E+01 0. -1.
          4   -1    0    0  501    0  0.00000000000E+00 -0.00000000000E+00 -0.79828841943E+02  0.79838943542E+02  0.12700000000E+01 0. -1.
         25    2    1    2    0    0  0.00000000000E+00  0.00000000000E+00 -0.30917626838E+02  0.12876664391E+03  0.12499979573E+03 0.  0.
    9000005    1    3    3    0    0  0.54986381426E+02 -0.20336274573E+02  0.68304820067E+01  0.59031531322E+02  0.10000000000E+01 0.  0.
    9000005    1    3    3    0    0 -0.54986381426E+02  0.20336274573E+02 -0.37748108845E+02  0.69735112585E+02  0.10000000000E+01 0.  0.
<mgrwt>
<rscale>  0 0.12499980E+03</rscale>
<asrwt>0</asrwt>
<pdfrwt beam="2">  1        4 0.12283405E-01 0.12499980E+03</pdfrwt>
<pdfrwt beam="1">  1       -4 0.75268475E-02 0.12499980E+03</pdfrwt>
<totfact> 0.10371012E+04</totfact>
</mgrwt>
</event>
<event>
 5    1  0.3188180E-002  0.1250015E+03  0.7818608E-02  0.1235067E+00
          4   -1    0    0  501    0  0.00000000000E+00  0.00000000000E+00  0.52958095104E+02  0.52973320993E+02  0.12700000000E+01 0.  1.
         -4   -1    0    0    0  501 -0.00000000000E+00 -0.00000000000E+00 -0.73731644062E+02  0.73742580888E+02  0.12700000000E+01 0.  1.
         25    2    1    2    0    0  0.00000000000E+00  0.00000000000E+00 -0.20773548957E+02  0.12671590188E+03  0.12500151780E+03 0.  0.
    9000005    1    3    3    0    0  0.24060428088E+02  0.15375700468E+02 -0.66737183795E+02  0.72595923202E+02  0.10000000000E+01 0.  0.
    9000005    1    3    3    0    0 -0.24060428088E+02 -0.15375700468E+02  0.45963634838E+02  0.54119978679E+02  0.10000000000E+01 0.  0.
<mgrwt>
<rscale>  0 0.12500152E+03</rscale>
<asrwt>0</asrwt>
<pdfrwt beam="1">  1        4 0.81494117E-02 0.12500152E+03</pdfrwt>
<pdfrwt beam="2">  1       -4 0.11345342E-01 0.12500152E+03</pdfrwt>
<totfact> 0.10414967E+04</totfact>
</mgrwt>
</event>
<event>
 5    1  0.3188180E-002  0.1250011E+03  0.7818608E-02  0.1235067E+00
         -4   -1    0    0    0  501 -0.00000000000E+00  0.00000000000E+00  0.55600165670E+02  0.55614668232E+02  0.12700000000E+01 0.  1.
          4   -1    0    0  501    0  0.00000000000E+00 -0.00000000000E+00 -0.70227970084E+02  0.70239452461E+02  0.12700000000E+01 0.  1.
         25    2    1    2    0    0  0.00000000000E+00  0.00000000000E+00 -0.14627804414E+02  0.12585412069E+03  0.12500114813E+03 0.  0.
    9000005    1    3    3    0    0 -0.25951236837E+02 -0.53010211783E+02 -0.27991142450E+02  0.65330339829E+02  0.10000000000E+01 0.  0.
    9000005    1    3    3    0    0  0.25951236837E+02  0.53010211783E+02  0.13363338036E+02  0.60523780864E+02  0.10000000000E+01 0.  0.
<mgrwt>
<rscale>  0 0.12500115E+03</rscale>
<asrwt>0</asrwt>
<pdfrwt beam="2">  1        4 0.10806302E-01 0.12500115E+03</pdfrwt>
<pdfrwt beam="1">  1       -4 0.85558704E-02 0.12500115E+03</pdfrwt>
<totfact> 0.10433886E+04</totfact>
</mgrwt>
</event>
<event>
 5    1  0.3188180E-002  0.1250012E+03  0.7818608E-02  0.1235067E+00
          4   -1    0    0  501    0  0.00000000000E+00  0.00000000000E+00  0.50835670053E+03  0.50835828691E+03  0.12700000000E+01 0. -1.
         -4   -1    0    0    0  501 -0.00000000000E+00 -0.00000000000E+00 -0.76301306402E+01  0.77351013947E+01  0.12700000000E+01 0. -1.
         25    2    1    2    0    0  0.00000000000E+00  0.00000000000E+00  0.50072656989E+03  0.51609338831E+03  0.12500115064E+03 0.  0.
    9000005    1    3    3    0    0 -0.30345588877E+02 -0.53708765560E+02  0.29161643501E+03  0.29807152066E+03  0.10000000000E+01 0.  0.
    9000005    1    3    3    0    0  0.30345588877E+02  0.53708765560E+02  0.20911013488E+03  0.21802186765E+03  0.10000000000E+01 0.  0.
<mgrwt>
<rscale>  0 0.12500115E+03</rscale>
<asrwt>0</asrwt>
<pdfrwt beam="1">  1        4 0.78216916E-01 0.12500115E+03</pdfrwt>
<pdfrwt beam="2">  1       -4 0.11820630E-02 0.12500115E+03</pdfrwt>
<totfact> 0.54635604E+03</totfact>
</mgrwt>
</event>
<event>
 5    1  0.3188180E-002  0.1250034E+03  0.7818608E-02  0.1235064E+00
         -4   -1    0    0    0  501 -0.00000000000E+00  0.00000000000E+00  0.14541851466E+03  0.14542406027E+03  0.12700000000E+01 0. -1.
          4   -1    0    0  501    0  0.00000000000E+00 -0.00000000000E+00 -0.26842534028E+02  0.26872560969E+02  0.12700000000E+01 0. -1.
         25    2    1    2    0    0  0.00000000000E+00  0.00000000000E+00  0.11857598063E+03  0.17229662124E+03  0.12500344999E+03 0.  0.
    9000005    1    3    3    0    0  0.21793829983E+02 -0.54306860700E+02  0.89525387984E+02  0.10695794144E+03  0.10000000000E+01 0.  0.
    9000005    1    3    3    0    0 -0.21793829983E+02  0.54306860700E+02  0.29050592649E+02  0.65338679797E+02  0.10000000000E+01 0.  0.
<mgrwt>
<rscale>  0 0.12500345E+03</rscale>
<asrwt>0</asrwt>
<pdfrwt beam="2">  1        4 0.41323570E-02 0.12500345E+03</pdfrwt>
<pdfrwt beam="1">  1       -4 0.22374816E-01 0.12500345E+03</pdfrwt>
<totfact> 0.95014947E+03</totfact>
</mgrwt>
</event>
<event>
 5    1  0.3188180E-002  0.1249991E+03  0.7818608E-02  0.1235071E+00
          4   -1    0    0  501    0  0.00000000000E+00  0.00000000000E+00  0.67484385141E+02  0.67496334255E+02  0.12700000000E+01 0. -1.
         -4   -1    0    0    0  501 -0.00000000000E+00 -0.00000000000E+00 -0.57858901687E+02  0.57872838226E+02  0.12700000000E+01 0. -1.
         25    2    1    2    0    0  0.00000000000E+00  0.00000000000E+00  0.96254834542E+01  0.12536917248E+03  0.12499911790E+03 0.  0.
    9000005    1    3    3    0    0  0.35580495970E+02 -0.91741969417E+01 -0.45884476703E+02  0.58792200038E+02  0.10000000000E+01 0.  0.
    9000005    1    3    3    0    0 -0.35580495970E+02  0.91741969417E+01  0.55509960157E+02  0.66576972443E+02  0.10000000000E+01 0.  0.
<mgrwt>
<rscale>  0 0.12499912E+03</rscale>
<asrwt>0</asrwt>
<pdfrwt beam="1">  1        4 0.10384204E-01 0.12499912E+03</pdfrwt>
<pdfrwt beam="2">  1       -4 0.89033607E-02 0.12499912E+03</pdfrwt>
<totfact> 0.10445057E+04</totfact>
</mgrwt>
</event>
<event>
 5    1  0.3188180E-002  0.1250017E+03  0.7818608E-02  0.1235067E+00
         -4   -1    0    0    0  501 -0.00000000000E+00  0.00000000000E+00  0.99154229708E+02  0.99162362664E+02  0.12700000000E+01 0.  1.
          4   -1    0    0  501    0  0.00000000000E+00 -0.00000000000E+00 -0.39376772948E+02  0.39397247973E+02  0.12700000000E+01 0.  1.
         25    2    1    2    0    0  0.00000000000E+00  0.00000000000E+00  0.59777456760E+02  0.13855961064E+03  0.12500168544E+03 0.  0.
    9000005    1    3    3    0    0  0.51929300327E+02  0.20297002064E+02 -0.13992629886E+01  0.55781524380E+02  0.10000000000E+01 0.  0.
    9000005    1    3    3    0    0 -0.51929300327E+02 -0.20297002064E+02  0.61176719748E+02  0.82778086257E+02  0.10000000000E+01 0.  0.
<mgrwt>
<rscale>  0 0.12500169E+03</rscale>
<asrwt>0</asrwt>
<pdfrwt beam="2">  1        4 0.60601658E-02 0.12500169E+03</pdfrwt>
<pdfrwt beam="1">  1       -4 0.15256697E-01 0.12500169E+03</pdfrwt>
<totfact> 0.10163140E+04</totfact>
</mgrwt>
</event>
<event>
 5    1  0.3188180E-002  0.1250005E+03  0.7818608E-02  0.1235068E+00
          4   -1    0    0  501    0  0.00000000000E+00  0.00000000000E+00  0.16501148036E+02  0.16549948233E+02  0.12700000000E+01 0. -1.
         -4   -1    0    0    0  501 -0.00000000000E+00 -0.00000000000E+00 -0.23632786161E+03  0.23633127401E+03  0.12700000000E+01 0. -1.
         25    2    1    2    0    0  0.00000000000E+00  0.00000000000E+00 -0.21982671358E+03  0.25288122224E+03  0.12500051424E+03 0.  0.
    9000005    1    3    3    0    0 -0.21120099276E+02  0.46483996363E+02 -0.18281198272E+03  0.18981054116E+03  0.10000000000E+01 0.  0.
    9000005    1    3    3    0    0  0.21120099276E+02 -0.46483996363E+02 -0.37014730861E+02  0.63070681081E+02  0.10000000000E+01 0.  0.
<mgrwt>
<rscale>  0 0.12500051E+03</rscale>
<asrwt>0</asrwt>
<pdfrwt beam="1">  1        4 0.25426547E-02 0.12500051E+03</pdfrwt>
<pdfrwt beam="2">  1       -4 0.36362146E-01 0.12500051E+03</pdfrwt>
<totfact> 0.81914640E+03</totfact>
</mgrwt>
</event>
<event>
 5    1  0.3188180E-002  0.1250007E+03  0.7818608E-02  0.1235068E+00
          4   -1    0    0  501    0  0.00000000000E+00  0.00000000000E+00  0.27059977144E+02  0.27089763067E+02  0.12700000000E+01 0. -1.
         -4   -1    0    0    0  501 -0.00000000000E+00 -0.00000000000E+00 -0.14424481480E+03  0.14425040553E+03  0.12700000000E+01 0. -1.
         25    2    1    2    0    0  0.00000000000E+00  0.00000000000E+00 -0.11718483765E+03  0.17134016860E+03  0.12500066880E+03 0.  0.
    9000005    1    3    3    0    0  0.50562984743E+02  0.23600068849E+02 -0.97160743583E+02  0.11204815380E+03  0.10000000000E+01 0.  0.
    9000005    1    3    3    0    0 -0.50562984743E+02 -0.23600068849E+02 -0.20024094071E+02  0.59292014801E+02  0.10000000000E+01 0.  0.
<mgrwt>
<rscale>  0 0.12500067E+03</rscale>
<asrwt>0</asrwt>
<pdfrwt beam="1">  1        4 0.41657948E-02 0.12500067E+03</pdfrwt>
<pdfrwt beam="2">  1       -4 0.22194231E-01 0.12500067E+03</pdfrwt>
<totfact> 0.95198007E+03</totfact>
</mgrwt>
</event>
<event>
 5    1  0.3188180E-002  0.1249983E+03  0.7818608E-02  0.1235072E+00
         -4   -1    0    0    0  501 -0.00000000000E+00  0.00000000000E+00  0.36647162813E+02  0.36669162007E+02  0.12700000000E+01 0. -1.
          4   -1    0    0  501    0  0.00000000000E+00 -0.00000000000E+00 -0.10653015488E+03  0.10653772476E+03  0.12700000000E+01 0. -1.
         25    2    1    2    0    0  0.00000000000E+00  0.00000000000E+00 -0.69882992063E+02  0.14320688677E+03  0.12499831934E+03 0.  0.
    9000005    1    3    3    0    0 -0.36429564998E+02  0.47707995345E+02 -0.15032559888E+02  0.61888156238E+02  0.10000000000E+01 0.  0.
    9000005    1    3    3    0    0  0.36429564998E+02 -0.47707995345E+02 -0.54850432175E+02  0.81318730533E+02  0.10000000000E+01 0.  0.
<mgrwt>
<rscale>  0 0.12499832E+03</rscale>
<asrwt>0</asrwt>
<pdfrwt beam="2">  1        4 0.16391529E-01 0.12499832E+03</pdfrwt>
<pdfrwt beam="1">  1       -4 0.56402996E-02 0.12499832E+03</pdfrwt>
<totfact> 0.10067929E+04</totfact>
</mgrwt>
</event>
<event>
 5    1  0.3188180E-002  0.1250056E+03  0.7818608E-02  0.1235061E+00
          4   -1    0    0  501    0  0.00000000000E+00  0.00000000000E+00  0.10178740872E+02  0.10257663756E+02  0.12700000000E+01 0. -1.
         -4   -1    0    0    0  501 -0.00000000000E+00 -0.00000000000E+00 -0.38223786135E+03  0.38223997115E+03  0.12700000000E+01 0. -1.
         25    2    1    2    0    0  0.00000000000E+00  0.00000000000E+00 -0.37205912047E+03  0.39249763491E+03  0.12500561700E+03 0.  0.
    9000005    1    3    3    0    0  0.44259778940E+02 -0.43930831183E+02 -0.17317725127E+03  0.18406576629E+03  0.10000000000E+01 0.  0.
    9000005    1    3    3    0    0 -0.44259778940E+02  0.43930831183E+02 -0.19888186920E+03  0.20843186862E+03  0.10000000000E+01 0.  0.
<mgrwt>
<rscale>  0 0.12500562E+03</rscale>
<asrwt>0</asrwt>
<pdfrwt beam="1">  1        4 0.15721937E-02 0.12500562E+03</pdfrwt>
<pdfrwt beam="2">  1       -4 0.58812047E-01 0.12500562E+03</pdfrwt>
<totfact> 0.65280966E+03</totfact>
</mgrwt>
</event>
<event>
 5    1  0.3188180E-002  0.1249981E+03  0.7818608E-02  0.1235072E+00
         -4   -1    0    0    0  501 -0.00000000000E+00  0.00000000000E+00  0.18536917661E+02  0.18580371804E+02  0.12700000000E+01 0.  1.
          4   -1    0    0  501    0  0.00000000000E+00 -0.00000000000E+00 -0.21042953936E+03  0.21043337172E+03  0.12700000000E+01 0.  1.
         25    2    1    2    0    0  0.00000000000E+00  0.00000000000E+00 -0.19189262170E+03  0.22901374352E+03  0.12499806583E+03 0.  0.
    9000005    1    3    3    0    0  0.19705113258E+02  0.68148729293E+01 -0.20387768733E+03  0.20494351752E+03  0.10000000000E+01 0.  0.
    9000005    1    3    3    0    0 -0.19705113258E+02 -0.68148729293E+01  0.11985065637E+02  0.24070226004E+02  0.10000000000E+01 0.  0.
<mgrwt>
<rscale>  0 0.12499807E+03</rscale>
<asrwt>0</asrwt>
<pdfrwt beam="2">  1        4 0.32377411E-01 0.12499807E+03</pdfrwt>
<pdfrwt beam="1">  1       -4 0.28554711E-02 0.12499807E+03</pdfrwt>
<totfact> 0.85464957E+03</totfact>
</mgrwt>
</event>
<event>
 5    1  0.3188180E-002  0.1250073E+03  0.7818608E-02  0.1235058E+00
          4   -1    0    0  501    0  0.00000000000E+00  0.00000000000E+00  0.48730431042E+02  0.48746977440E+02  0.12700000000E+01 0. -1.
         -4   -1    0    0    0  501 -0.00000000000E+00 -0.00000000000E+00 -0.80134503284E+02  0.80144566358E+02  0.12700000000E+01 0. -1.
         25    2    1    2    0    0  0.00000000000E+00  0.00000000000E+00 -0.31404072242E+02  0.12889154380E+03  0.12500725703E+03 0.  0.
    9000005    1    3    3    0    0 -0.31633424396E+01 -0.25396815034E+02  0.43084457048E+02  0.50122603567E+02  0.10000000000E+01 0.  0.
    9000005    1    3    3    0    0  0.31633424396E+01  0.25396815034E+02 -0.74488529290E+02  0.78768940231E+02  0.10000000000E+01 0.  0.
<mgrwt>
<rscale>  0 0.12500726E+03</rscale>
<asrwt>0</asrwt>
<pdfrwt beam="1">  1        4 0.74990363E-02 0.12500726E+03</pdfrwt>
<pdfrwt beam="2">  1       -4 0.12330432E-01 0.12500726E+03</pdfrwt>
<totfact> 0.10366580E+04</totfact>
</mgrwt>
</event>
<event>
 5    1  0.3188180E-002  0.1250014E+03  0.7818608E-02  0.1235067E+00
         -4   -1    0    0    0  501 -0.00000000000E+00  0.00000000000E+00  0.21709170092E+03  0.21709541568E+03  0.12700000000E+01 0. -1.
          4   -1    0    0  501    0  0.00000000000E+00 -0.00000000000E+00 -0.17967665544E+02  0.18012493029E+02  0.12700000000E+01 0. -1.
         25    2    1    2    0    0  0.00000000000E+00  0.00000000000E+00  0.19912403538E+03  0.23510790871E+03  0.12500138908E+03 0.  0.
    9000005    1    3    3    0    0 -0.47497290299E+02  0.18669330037E+02  0.16739762564E+03  0.17500714711E+03  0.10000000000E+01 0.  0.
    9000005    1    3    3    0    0  0.47497290299E+02 -0.18669330037E+02  0.31726409736E+02  0.60100761597E+02  0.10000000000E+01 0.  0.
<mgrwt>
<rscale>  0 0.12500139E+03</rscale>
<asrwt>0</asrwt>
<pdfrwt beam="2">  1        4 0.27679901E-02 0.12500139E+03</pdfrwt>
<pdfrwt beam="1">  1       -4 0.33402459E-01 0.12500139E+03</pdfrwt>
<totfact> 0.84528774E+03</totfact>
</mgrwt>
</event>
<event>
 5    1  0.3188180E-002  0.1249996E+03  0.7818608E-02  0.1235070E+00
          4   -1    0    0  501    0  0.00000000000E+00  0.00000000000E+00  0.17824693546E+03  0.17825145974E+03  0.12700000000E+01 0. -1.
         -4   -1    0    0    0  501 -0.00000000000E+00 -0.00000000000E+00 -0.21891462756E+02  0.21928270374E+02  0.12700000000E+01 0. -1.
         25    2    1    2    0    0  0.00000000000E+00  0.00000000000E+00  0.15635547270E+03  0.20017973011E+03  0.12499956202E+03 0.  0.
    9000005    1    3    3    0    0  0.45386672717E+02  0.38509837301E+02  0.10865842640E+03  0.12389758374E+03  0.10000000000E+01 0.  0.
    9000005    1    3    3    0    0 -0.45386672717E+02 -0.38509837301E+02  0.47697046298E+02  0.76282146370E+02  0.10000000000E+01 0.  0.
<mgrwt>
<rscale>  0 0.12499956E+03</rscale>
<asrwt>0</asrwt>
<pdfrwt beam="1">  1        4 0.27425783E-01 0.12499956E+03</pdfrwt>
<pdfrwt beam="2">  1       -4 0.33710969E-02 0.12499956E+03</pdfrwt>
<totfact> 0.90106086E+03</totfact>
</mgrwt>
</event>
<event>
 5    1  0.3188180E-002  0.1249993E+03  0.7818608E-02  0.1235070E+00
          4   -1    0    0  501    0  0.00000000000E+00  0.00000000000E+00  0.12816063688E+03  0.12816692922E+03  0.12700000000E+01 0. -1.
         -4   -1    0    0    0  501 -0.00000000000E+00 -0.00000000000E+00 -0.30458710841E+02  0.30485176170E+02  0.12700000000E+01 0. -1.
         25    2    1    2    0    0  0.00000000000E+00  0.00000000000E+00  0.97701926041E+02  0.15865210539E+03  0.12499929677E+03 0.  0.
    9000005    1    3    3    0    0  0.35131997067E+02 -0.30298945665E+02 -0.42888051375E+01  0.46601257234E+02  0.10000000000E+01 0.  0.
    9000005    1    3    3    0    0 -0.35131997067E+02  0.30298945665E+02  0.10199073118E+03  0.11205084816E+03  0.10000000000E+01 0.  0.
<mgrwt>
<rscale>  0 0.12499930E+03</rscale>
<asrwt>0</asrwt>
<pdfrwt beam="1">  1        4 0.19719541E-01 0.12499930E+03</pdfrwt>
<pdfrwt beam="2">  1       -4 0.46884754E-02 0.12499930E+03</pdfrwt>
<totfact> 0.97604822E+03</totfact>
</mgrwt>
</event>
<event>
 5    1  0.3188180E-002  0.1249983E+03  0.7818608E-02  0.1235072E+00
         -4   -1    0    0    0  501 -0.00000000000E+00  0.00000000000E+00  0.17893728394E+03  0.17894179077E+03  0.12700000000E+01 0. -1.
          4   -1    0    0  501    0  0.00000000000E+00 -0.00000000000E+00 -0.21806415183E+02  0.21843366113E+02  0.12700000000E+01 0. -1.
         25    2    1    2    0    0  0.00000000000E+00  0.00000000000E+00  0.15713086876E+03  0.20078515688E+03  0.12499827722E+03 0.  0.
    9000005    1    3    3    0    0  0.76384452288E+01 -0.28956449631E+02  0.16666821773E+03  0.16934023923E+03  0.10000000000E+01 0.  0.
    9000005    1    3    3    0    0 -0.76384452288E+01  0.28956449631E+02 -0.95373489739E+01  0.31444917653E+02  0.10000000000E+01 0.  0.
<mgrwt>
<rscale>  0 0.12499828E+03</rscale>
<asrwt>0</asrwt>
<pdfrwt beam="2">  1        4 0.33580223E-02 0.12499828E+03</pdfrwt>
<pdfrwt beam="1">  1       -4 0.27532001E-01 0.12499828E+03</pdfrwt>
<totfact> 0.90006722E+03</totfact>
</mgrwt>
</event>
<event>
 5    1  0.3188180E-002  0.1249993E+03  0.7818608E-02  0.1235070E+00
          4   -1    0    0  501    0  0.00000000000E+00  0.00000000000E+00  0.32568966270E+03  0.32569213882E+03  0.12700000000E+01 0.  1.
         -4   -1    0    0    0  501 -0.00000000000E+00 -0.00000000000E+00 -0.11957495638E+02  0.12024749558E+02  0.12700000000E+01 0.  1.
         25    2    1    2    0    0  0.00000000000E+00  0.00000000000E+00  0.31373216706E+03  0.33771688837E+03  0.12499929619E+03 0.  0.
    9000005    1    3    3    0    0  0.10397398734E+02 -0.61547688569E+02  0.14876887741E+03  0.16133630327E+03  0.10000000000E+01 0.  0.
    9000005    1    3    3    0    0 -0.10397398734E+02  0.61547688569E+02  0.16496328965E+03  0.17638058510E+03  0.10000000000E+01 0.  0.
<mgrwt>
<rscale>  0 0.12499930E+03</rscale>
<asrwt>0</asrwt>
<pdfrwt beam="1">  1        4 0.50111455E-01 0.12499930E+03</pdfrwt>
<pdfrwt beam="2">  1       -4 0.18449790E-02 0.12499930E+03</pdfrwt>
<totfact> 0.71098442E+03</totfact>
</mgrwt>
</event>
<event>
 5    1  0.3188180E-002  0.1249559E+03  0.7818608E-02  0.1235138E+00
          4   -1    0    0  501    0  0.00000000000E+00  0.00000000000E+00  0.10655368944E+02  0.10730786892E+02  0.12700000000E+01 0.  1.
         -4   -1    0    0    0  501 -0.00000000000E+00 -0.00000000000E+00 -0.36497217210E+03  0.36497438171E+03  0.12700000000E+01 0.  1.
         25    2    1    2    0    0  0.00000000000E+00  0.00000000000E+00 -0.35431680315E+03  0.37570516860E+03  0.12495589909E+03 0.  0.
    9000005    1    3    3    0    0  0.62441438378E+02 -0.14334982808E+01 -0.18084824561E+03  0.19133237072E+03  0.10000000000E+01 0.  0.
    9000005    1    3    3    0    0 -0.62441438378E+02  0.14334982808E+01 -0.17346855754E+03  0.18437279788E+03  0.10000000000E+01 0.  0.
<mgrwt>
<rscale>  0 0.12495590E+03</rscale>
<asrwt>0</asrwt>
<pdfrwt beam="1">  1        4 0.16452592E-02 0.12495590E+03</pdfrwt>
<pdfrwt beam="2">  1       -4 0.56155527E-01 0.12495590E+03</pdfrwt>
<totfact> 0.67051602E+03</totfact>
</mgrwt>
</event>
<event>
 5    1  0.3188180E-002  0.1250237E+03  0.7818608E-02  0.1235032E+00
          4   -1    0    0  501    0  0.00000000000E+00  0.00000000000E+00  0.14784920510E+03  0.14785465954E+03  0.12700000000E+01 0.  1.
         -4   -1    0    0    0  501 -0.00000000000E+00 -0.00000000000E+00 -0.26409297463E+02  0.26439816424E+02  0.12700000000E+01 0.  1.
         25    2    1    2    0    0  0.00000000000E+00  0.00000000000E+00  0.12143990764E+03  0.17429447597E+03  0.12502365051E+03 0.  0.
    9000005    1    3    3    0    0  0.70858309178E+01 -0.24566481236E+02 -0.18792282090E+02  0.31746982002E+02  0.10000000000E+01 0.  0.
    9000005    1    3    3    0    0 -0.70858309178E+01  0.24566481236E+02  0.14023218973E+03  0.14254749397E+03  0.10000000000E+01 0.  0.
<mgrwt>
<rscale>  0 0.12502365E+03</rscale>
<asrwt>0</asrwt>
<pdfrwt beam="1">  1        4 0.22748799E-01 0.12502365E+03</pdfrwt>
<pdfrwt beam="2">  1       -4 0.40657361E-02 0.12502365E+03</pdfrwt>
<totfact> 0.94604009E+03</totfact>
</mgrwt>
</event>
<event>
 5    1  0.3188180E-002  0.1249987E+03  0.7818608E-02  0.1235071E+00
          4   -1    0    0  501    0  0.00000000000E+00  0.00000000000E+00  0.49022151531E+03  0.49022316038E+03  0.12700000000E+01 0. -1.
         -4   -1    0    0    0  501 -0.00000000000E+00 -0.00000000000E+00 -0.79158997191E+01  0.80171296836E+01  0.12700000000E+01 0. -1.
         25    2    1    2    0    0  0.00000000000E+00  0.00000000000E+00  0.48230561559E+03  0.49824029007E+03  0.12499871924E+03 0.  0.
    9000005    1    3    3    0    0  0.25729549549E+02 -0.38945582973E+02  0.40676954356E+03  0.40944014180E+03  0.10000000000E+01 0.  0.
    9000005    1    3    3    0    0 -0.25729549549E+02  0.38945582973E+02  0.75536072037E+02  0.88800148265E+02  0.10000000000E+01 0.  0.
<mgrwt>
<rscale>  0 0.12499872E+03</rscale>
<asrwt>0</asrwt>
<pdfrwt beam="1">  1        4 0.75426626E-01 0.12499872E+03</pdfrwt>
<pdfrwt beam="2">  1       -4 0.12257439E-02 0.12499872E+03</pdfrwt>
<totfact> 0.56002724E+03</totfact>
</mgrwt>
</event>
<event>
 5    1  0.3188180E-002  0.1250009E+03  0.7818608E-02  0.1235068E+00
         -4   -1    0    0    0  501 -0.00000000000E+00  0.00000000000E+00  0.10262534973E+03  0.10263320762E+03  0.12700000000E+01 0.  1.
          4   -1    0    0  501    0  0.00000000000E+00 -0.00000000000E+00 -0.38043829456E+02  0.38065021473E+02  0.12700000000E+01 0.  1.
         25    2    1    2    0    0  0.00000000000E+00  0.00000000000E+00  0.64581520269E+02  0.14069822909E+03  0.12500087563E+03 0.  0.
    9000005    1    3    3    0    0 -0.48168232802E+02 -0.21362608557E+02  0.70106913392E+02  0.87707006567E+02  0.10000000000E+01 0.  0.
    9000005    1    3    3    0    0  0.48168232802E+02  0.21362608557E+02 -0.55253931227E+01  0.52991222525E+02  0.10000000000E+01 0.  0.
<mgrwt>
<rscale>  0 0.12500088E+03</rscale>
<asrwt>0</asrwt>
<pdfrwt beam="2">  1        4 0.58551316E-02 0.12500088E+03</pdfrwt>
<pdfrwt beam="1">  1       -4 0.15790750E-01 0.12500088E+03</pdfrwt>
<totfact> 0.10118936E+04</totfact>
</mgrwt>
</event>
<event>
 5    1  0.3188180E-002  0.1250013E+03  0.7818608E-02  0.1235067E+00
          4   -1    0    0  501    0  0.00000000000E+00  0.00000000000E+00  0.50304709133E+03  0.50304869446E+03  0.12700000000E+01 0. -1.
         -4   -1    0    0    0  501 -0.00000000000E+00 -0.00000000000E+00 -0.77117832904E+01  0.78156574591E+01  0.12700000000E+01 0. -1.
         25    2    1    2    0    0  0.00000000000E+00  0.00000000000E+00  0.49533530804E+03  0.51086435192E+03  0.12500127467E+03 0.  0.
    9000005    1    3    3    0    0  0.30493191392E+01  0.54415631156E+02  0.37263314199E+03  0.37659901456E+03  0.10000000000E+01 0.  0.
    9000005    1    3    3    0    0 -0.30493191392E+01 -0.54415631156E+02  0.12270216605E+03  0.13426533736E+03  0.10000000000E+01 0.  0.
<mgrwt>
<rscale>  0 0.12500127E+03</rscale>
<asrwt>0</asrwt>
<pdfrwt beam="1">  1        4 0.77399999E-01 0.12500127E+03</pdfrwt>
<pdfrwt beam="2">  1       -4 0.11945414E-02 0.12500127E+03</pdfrwt>
<totfact> 0.55029615E+03</totfact>
</mgrwt>
</event>
<event>
 4    1  0.3188180E-002  0.1251532E+03  0.7818608E-02  0.1234830E+00
         -4   -1    0    0    0  501 -0.00000000000E+00  0.00000000000E+00  0.94659106018E+02  0.94667625153E+02  0.12700000000E+01 0.  1.
          4   -1    0    0  501    0  0.00000000000E+00 -0.00000000000E+00 -0.41347582049E+02  0.41367081614E+02  0.12700000000E+01 0.  1.
    9000005    1    1    2    0    0  0.48542469799E+02 -0.44857373373E+01 -0.15976030029E+02  0.51310103772E+02  0.10000000000E+01 0.  0.
    9000005    1    1    2    0    0 -0.48542469799E+02  0.44857373373E+01  0.69287553998E+02  0.84724602995E+02  0.10000000000E+01 0.  0.
<mgrwt>
<rscale>  0 0.12515320E+03</rscale>
<asrwt>0</asrwt>
<pdfrwt beam="2">  1        4 0.63633218E-02 0.12515320E+03</pdfrwt>
<pdfrwt beam="1">  1       -4 0.14565095E-01 0.12515320E+03</pdfrwt>
<totfact> 0.10181095E+04</totfact>
</mgrwt>
</event>
<event>
 5    1  0.3188180E-002  0.1250000E+03  0.7818608E-02  0.1235069E+00
         -4   -1    0    0    0  501 -0.00000000000E+00  0.00000000000E+00  0.50334787905E+02  0.50350807078E+02  0.12700000000E+01 0.  1.
          4   -1    0    0  501    0  0.00000000000E+00 -0.00000000000E+00 -0.77571761554E+02  0.77582157038E+02  0.12700000000E+01 0.  1.
         25    2    1    2    0    0  0.00000000000E+00  0.00000000000E+00 -0.27236973650E+02  0.12793296412E+03  0.12499996230E+03 0.  0.
    9000005    1    3    3    0    0  0.35947206578E+02  0.39007153708E+02 -0.47431358126E+02  0.71165254407E+02  0.10000000000E+01 0.  0.
    9000005    1    3    3    0    0 -0.35947206578E+02 -0.39007153708E+02  0.20194384476E+02  0.56767709709E+02  0.10000000000E+01 0.  0.
<mgrwt>
<rscale>  0 0.12499996E+03</rscale>
<asrwt>0</asrwt>
<pdfrwt beam="2">  1        4 0.11936149E-01 0.12499996E+03</pdfrwt>
<pdfrwt beam="1">  1       -4 0.77458455E-02 0.12499996E+03</pdfrwt>
<totfact> 0.10388944E+04</totfact>
</mgrwt>
</event>
<event>
 5    1  0.3188180E-002  0.1250083E+03  0.7818608E-02  0.1235056E+00
         -4   -1    0    0    0  501 -0.00000000000E+00  0.00000000000E+00  0.20862868635E+01  0.24424358490E+01  0.12700000000E+01 0. -1.
          4   -1    0    0  501    0  0.00000000000E+00 -0.00000000000E+00 -0.17249734431E+04  0.17249739106E+04  0.12700000000E+01 0. -1.
         25    2    1    2    0    0  0.00000000000E+00  0.00000000000E+00 -0.17228871563E+04  0.17274163465E+04  0.12500832334E+03 0.  0.
    9000005    1    3    3    0    0  0.12765913219E+02 -0.25729414786E+02 -0.16284336989E+04  0.16286872882E+04  0.10000000000E+01 0.  0.
    9000005    1    3    3    0    0 -0.12765913219E+02  0.25729414786E+02 -0.94453457413E+02  0.98729058249E+02  0.10000000000E+01 0.  0.
<mgrwt>
<rscale>  0 0.12500832E+03</rscale>
<asrwt>0</asrwt>
<pdfrwt beam="2">  1        4 0.26540691E+00 0.12500832E+03</pdfrwt>
<pdfrwt beam="1">  1       -4 0.34840063E-03 0.12500832E+03</pdfrwt>
<totfact> 0.13853125E+03</totfact>
</mgrwt>
</event>
<event>
 5    1  0.3188180E-002  0.1249988E+03  0.7818608E-02  0.1235071E+00
          4   -1    0    0  501    0  0.00000000000E+00  0.00000000000E+00  0.39903785945E+02  0.39923990692E+02  0.12700000000E+01 0.  1.
         -4   -1    0    0    0  501 -0.00000000000E+00 -0.00000000000E+00 -0.97840783023E+02  0.97849025149E+02  0.12700000000E+01 0.  1.
         25    2    1    2    0    0  0.00000000000E+00  0.00000000000E+00 -0.57936997078E+02  0.13777301584E+03  0.12499883305E+03 0.  0.
    9000005    1    3    3    0    0 -0.51961150729E+02 -0.66561630905E+01  0.85856344294E+01  0.53094056265E+02  0.10000000000E+01 0.  0.
    9000005    1    3    3    0    0  0.51961150729E+02  0.66561630905E+01 -0.66522631507E+02  0.84678959575E+02  0.10000000000E+01 0.  0.
<mgrwt>
<rscale>  0 0.12499883E+03</rscale>
<asrwt>0</asrwt>
<pdfrwt beam="1">  1        4 0.61412322E-02 0.12499883E+03</pdfrwt>
<pdfrwt beam="2">  1       -4 0.15054616E-01 0.12499883E+03</pdfrwt>
<totfact> 0.10180215E+04</totfact>
</mgrwt>
</event>
<event>
 5    1  0.3188180E-002  0.1250196E+03  0.7818608E-02  0.1235039E+00
          4   -1    0    0  501    0  0.00000000000E+00  0.00000000000E+00  0.37360270483E+02  0.37381850015E+02  0.12700000000E+01 0.  1.
         -4   -1    0    0    0  501 -0.00000000000E+00 -0.00000000000E+00 -0.10453346089E+03  0.10454117536E+03  0.12700000000E+01 0.  1.
         25    2    1    2    0    0  0.00000000000E+00  0.00000000000E+00 -0.67173190407E+02  0.14192302537E+03  0.12501962895E+03 0.  0.
    9000005    1    3    3    0    0  0.36028627947E+02  0.30553623138E+02  0.12872198328E+02  0.48972230992E+02  0.10000000000E+01 0.  0.
    9000005    1    3    3    0    0 -0.36028627947E+02 -0.30553623138E+02 -0.80045388735E+02  0.92950794383E+02  0.10000000000E+01 0.  0.
<mgrwt>
<rscale>  0 0.12501963E+03</rscale>
<asrwt>0</asrwt>
<pdfrwt beam="1">  1        4 0.57499873E-02 0.12501963E+03</pdfrwt>
<pdfrwt beam="2">  1       -4 0.16084324E-01 0.12501963E+03</pdfrwt>
<totfact> 0.10089423E+04</totfact>
</mgrwt>
</event>
<event>
 5    1  0.3188180E-002  0.1250020E+03  0.7818608E-02  0.1235066E+00
         -4   -1    0    0    0  501 -0.00000000000E+00  0.00000000000E+00  0.49647579330E+02  0.49663820164E+02  0.12700000000E+01 0.  1.
          4   -1    0    0  501    0  0.00000000000E+00 -0.00000000000E+00 -0.78647899715E+02  0.78658152976E+02  0.12700000000E+01 0.  1.
         25    2    1    2    0    0  0.00000000000E+00  0.00000000000E+00 -0.29000320386E+02  0.12832197314E+03  0.12500204082E+03 0.  0.
    9000005    1    3    3    0    0  0.21179289022E+02 -0.33971418806E+02  0.34761389818E+02  0.53028047308E+02  0.10000000000E+01 0.  0.
    9000005    1    3    3    0    0 -0.21179289022E+02  0.33971418806E+02 -0.63761710203E+02  0.75293925832E+02  0.10000000000E+01 0.  0.
<mgrwt>
<rscale>  0 0.12500204E+03</rscale>
<asrwt>0</asrwt>
<pdfrwt beam="2">  1        4 0.12101715E-01 0.12500204E+03</pdfrwt>
<pdfrwt beam="1">  1       -4 0.76401271E-02 0.12500204E+03</pdfrwt>
<totfact> 0.10380062E+04</totfact>
</mgrwt>
</event>
<event>
 5    1  0.3188180E-002  0.1249941E+03  0.7818608E-02  0.1235079E+00
          4   -1    0    0  501    0  0.00000000000E+00  0.00000000000E+00  0.24262791593E+03  0.24263123972E+03  0.12700000000E+01 0. -1.
         -4   -1    0    0    0  501 -0.00000000000E+00 -0.00000000000E+00 -0.16069739619E+02  0.16119845887E+02  0.12700000000E+01 0. -1.
         25    2    1    2    0    0  0.00000000000E+00  0.00000000000E+00  0.22655817631E+03  0.25875108561E+03  0.12499406806E+03 0.  0.
    9000005    1    3    3    0    0 -0.42590745985E+02  0.45676170312E+02  0.10884157622E+03  0.12549013065E+03  0.10000000000E+01 0.  0.
    9000005    1    3    3    0    0  0.42590745985E+02 -0.45676170312E+02  0.11771660009E+03  0.13326095495E+03  0.10000000000E+01 0.  0.
<mgrwt>
<rscale>  0 0.12499407E+03</rscale>
<asrwt>0</asrwt>
<pdfrwt beam="1">  1        4 0.37331482E-01 0.12499407E+03</pdfrwt>
<pdfrwt beam="2">  1       -4 0.24763776E-02 0.12499407E+03</pdfrwt>
<totfact> 0.81092355E+03</totfact>
</mgrwt>
</event>
<event>
 5    1  0.3188180E-002  0.1249994E+03  0.7818608E-02  0.1235070E+00
          4   -1    0    0  501    0  0.00000000000E+00  0.00000000000E+00  0.25759350378E+02  0.25790638454E+02  0.12700000000E+01 0. -1.
         -4   -1    0    0    0  501 -0.00000000000E+00 -0.00000000000E+00 -0.15151662909E+03  0.15152195152E+03  0.12700000000E+01 0. -1.
         25    2    1    2    0    0  0.00000000000E+00  0.00000000000E+00 -0.12575727871E+03  0.17731258997E+03  0.12499944565E+03 0.  0.
    9000005    1    3    3    0    0 -0.59115338778E+01 -0.29885530636E+02  0.14519400386E+02  0.33762466761E+02  0.10000000000E+01 0.  0.
    9000005    1    3    3    0    0  0.59115338778E+01  0.29885530636E+02 -0.14027667910E+03  0.14355012321E+03  0.10000000000E+01 0.  0.
<mgrwt>
<rscale>  0 0.12499945E+03</rscale>
<asrwt>0</asrwt>
<pdfrwt beam="1">  1        4 0.39657933E-02 0.12499945E+03</pdfrwt>
<pdfrwt beam="2">  1       -4 0.23313066E-01 0.12499945E+03</pdfrwt>
<totfact> 0.94104165E+03</totfact>
</mgrwt>
</event>
<event>
 5    1  0.3188180E-002  0.1250008E+03  0.7818608E-02  0.1235068E+00
          4   -1    0    0  501    0  0.00000000000E+00  0.00000000000E+00  0.21332007175E+03  0.21332385219E+03  0.12700000000E+01 0. -1.
         -4   -1    0    0    0  501 -0.00000000000E+00 -0.00000000000E+00 -0.18285947113E+02  0.18329996230E+02  0.12700000000E+01 0. -1.
         25    2    1    2    0    0  0.00000000000E+00  0.00000000000E+00  0.19503412464E+03  0.23165384842E+03  0.12500078285E+03 0.  0.
    9000005    1    3    3    0    0  0.18308387633E+02 -0.54904804385E+02  0.14119820211E+03  0.15260297140E+03  0.10000000000E+01 0.  0.
    9000005    1    3    3    0    0 -0.18308387633E+02  0.54904804385E+02  0.53835922532E+02  0.79050877016E+02  0.10000000000E+01 0.  0.
<mgrwt>
<rscale>  0 0.12500078E+03</rscale>
<asrwt>0</asrwt>
<pdfrwt beam="1">  1        4 0.32822153E-01 0.12500078E+03</pdfrwt>
<pdfrwt beam="2">  1       -4 0.28169018E-02 0.12500078E+03</pdfrwt>
<totfact> 0.85054805E+03</totfact>
</mgrwt>
</event>
<event>
 5    1  0.3188180E-002  0.1250023E+03  0.7818608E-02  0.1235066E+00
         -4   -1    0    0    0  501 -0.00000000000E+00  0.00000000000E+00  0.11275054506E+02  0.11346354221E+02  0.12700000000E+01 0. -1.
          4   -1    0    0  501    0  0.00000000000E+00 -0.00000000000E+00 -0.34529868768E+03  0.34530102319E+03  0.12700000000E+01 0. -1.
         25    2    1    2    0    0  0.00000000000E+00  0.00000000000E+00 -0.33402363317E+03  0.35664737741E+03  0.12500225715E+03 0.  0.
    9000005    1    3    3    0    0  0.47849729312E+02  0.22066432053E+02 -0.26287295428E+03  0.26810392409E+03  0.10000000000E+01 0.  0.
    9000005    1    3    3    0    0 -0.47849729312E+02 -0.22066432053E+02 -0.71150678889E+02  0.88543453316E+02  0.10000000000E+01 0.  0.
<mgrwt>
<rscale>  0 0.12500226E+03</rscale>
<asrwt>0</asrwt>
<pdfrwt beam="2">  1        4 0.53128531E-01 0.12500226E+03</pdfrwt>
<pdfrwt beam="1">  1       -4 0.17402883E-02 0.12500226E+03</pdfrwt>
<totfact> 0.68995959E+03</totfact>
</mgrwt>
</event>
<event>
 5    1  0.3188180E-002  0.1250046E+03  0.7818608E-02  0.1235062E+00
          4   -1    0    0  501    0  0.00000000000E+00  0.00000000000E+00  0.53475262968E+01  0.54962657773E+01  0.12700000000E+01 0.  1.
         -4   -1    0    0    0  501 -0.00000000000E+00 -0.00000000000E+00 -0.72036161258E+03  0.72036273208E+03  0.12700000000E+01 0.  1.
         25    2    1    2    0    0  0.00000000000E+00  0.00000000000E+00 -0.71501408628E+03  0.72585899786E+03  0.12500456470E+03 0.  0.
    9000005    1    3    3    0    0 -0.57494005453E+02 -0.21315987342E+02 -0.42757380240E+03  0.43194940500E+03  0.10000000000E+01 0.  0.
    9000005    1    3    3    0    0  0.57494005453E+02  0.21315987342E+02 -0.28744028388E+03  0.29390959286E+03  0.10000000000E+01 0.  0.
<mgrwt>
<rscale>  0 0.12500456E+03</rscale>
<asrwt>0</asrwt>
<pdfrwt beam="1">  1        4 0.83422454E-03 0.12500456E+03</pdfrwt>
<pdfrwt beam="2">  1       -4 0.11083632E+00 0.12500456E+03</pdfrwt>
<totfact> 0.41752112E+03</totfact>
</mgrwt>
</event>
<event>
 5    1  0.3188180E-002  0.1250007E+03  0.7818608E-02  0.1235068E+00
          4   -1    0    0  501    0  0.00000000000E+00  0.00000000000E+00  0.27700773567E+03  0.27701064695E+03  0.12700000000E+01 0.  1.
         -4   -1    0    0    0  501 -0.00000000000E+00 -0.00000000000E+00 -0.14070163912E+02  0.14127363962E+02  0.12700000000E+01 0.  1.
         25    2    1    2    0    0  0.00000000000E+00  0.00000000000E+00  0.26293757176E+03  0.29113801091E+03  0.12500069901E+03 0.  0.
    9000005    1    3    3    0    0  0.61762423235E+02 -0.89868890679E+01  0.12412841993E+03  0.13893964781E+03  0.10000000000E+01 0.  0.
    9000005    1    3    3    0    0 -0.61762423235E+02  0.89868890679E+01  0.13880915183E+03  0.15219836310E+03  0.10000000000E+01 0.  0.
<mgrwt>
<rscale>  0 0.12500070E+03</rscale>
<asrwt>0</asrwt>
<pdfrwt beam="1">  1        4 0.42621193E-01 0.12500070E+03</pdfrwt>
<pdfrwt beam="2">  1       -4 0.21692648E-02 0.12500070E+03</pdfrwt>
<totfact> 0.76722901E+03</totfact>
</mgrwt>
</event>
<event>
 5    1  0.3188180E-002  0.1250159E+03  0.7818608E-02  0.1235044E+00
          4   -1    0    0  501    0  0.00000000000E+00  0.00000000000E+00  0.60958873573E+02  0.60972101549E+02  0.12700000000E+01 0. -1.
         -4   -1    0    0    0  501 -0.00000000000E+00 -0.00000000000E+00 -0.64069895682E+02  0.64082481481E+02  0.12700000000E+01 0. -1.
         25    2    1    2    0    0  0.00000000000E+00  0.00000000000E+00 -0.31110221096E+01  0.12505458303E+03  0.12501588010E+03 0.  0.
    9000005    1    3    3    0    0 -0.89347533321E+01  0.61235071024E+02  0.72038447204E+01  0.62309382272E+02  0.10000000000E+01 0.  0.
    9000005    1    3    3    0    0  0.89347533321E+01 -0.61235071024E+02 -0.10314866830E+02  0.62745200758E+02  0.10000000000E+01 0.  0.
<mgrwt>
<rscale>  0 0.12501588E+03</rscale>
<asrwt>0</asrwt>
<pdfrwt beam="1">  1        4 0.93802740E-02 0.12501588E+03</pdfrwt>
<pdfrwt beam="2">  1       -4 0.98588927E-02 0.12501588E+03</pdfrwt>
<totfact> 0.10447927E+04</totfact>
</mgrwt>
</event>
<event>
 5    1  0.3188180E-002  0.1249922E+03  0.7818608E-02  0.1235081E+00
          4   -1    0    0  501    0  0.00000000000E+00  0.00000000000E+00  0.68528537250E+03  0.68528654931E+03  0.12700000000E+01 0.  1.
         -4   -1    0    0    0  501 -0.00000000000E+00 -0.00000000000E+00 -0.56275284176E+01  0.57690533097E+01  0.12700000000E+01 0.  1.
         25    2    1    2    0    0  0.00000000000E+00  0.00000000000E+00  0.67965784408E+03  0.69105560262E+03  0.12499224331E+03 0.  0.
    9000005    1    3    3    0    0  0.18449191257E+02 -0.41890171119E+02  0.10463723969E+03  0.11421519612E+03  0.10000000000E+01 0.  0.
    9000005    1    3    3    0    0 -0.18449191257E+02  0.41890171119E+02  0.57502060439E+03  0.57684040650E+03  0.10000000000E+01 0.  0.
<mgrwt>
<rscale>  0 0.12499224E+03</rscale>
<asrwt>0</asrwt>
<pdfrwt beam="1">  1        4 0.10543946E+00 0.12499224E+03</pdfrwt>
<pdfrwt beam="2">  1       -4 0.87675092E-03 0.12499224E+03</pdfrwt>
<totfact> 0.43570481E+03</totfact>
</mgrwt>
</event>
<event>
 5    1  0.3188180E-002  0.1250084E+03  0.7818608E-02  0.1235056E+00
         -4   -1    0    0    0  501 -0.00000000000E+00  0.00000000000E+00  0.22212849888E+03  0.22213212940E+03  0.12700000000E+01 0.  1.
          4   -1    0    0  501    0  0.00000000000E+00 -0.00000000000E+00 -0.17561200233E+02  0.17607062606E+02  0.12700000000E+01 0.  1.
         25    2    1    2    0    0  0.00000000000E+00  0.00000000000E+00  0.20456729864E+03  0.23973919201E+03  0.12500840176E+03 0.  0.
    9000005    1    3    3    0    0 -0.59313118960E+02 -0.82859302807E+01  0.68027033409E+02  0.90638733419E+02  0.10000000000E+01 0.  0.
    9000005    1    3    3    0    0  0.59313118960E+02  0.82859302807E+01  0.13654026524E+03  0.14910045859E+03  0.10000000000E+01 0.  0.
<mgrwt>
<rscale>  0 0.12500840E+03</rscale>
<asrwt>0</asrwt>
<pdfrwt beam="2">  1        4 0.27055303E-02 0.12500840E+03</pdfrwt>
<pdfrwt beam="1">  1       -4 0.34177422E-01 0.12500840E+03</pdfrwt>
<totfact> 0.83820524E+03</totfact>
</mgrwt>
</event>
<event>
 5    1  0.3188180E-002  0.1249988E+03  0.7818608E-02  0.1235071E+00
          4   -1    0    0  501    0  0.00000000000E+00  0.00000000000E+00  0.71644509851E+01  0.72761430661E+01  0.12700000000E+01 0.  1.
         -4   -1    0    0    0  501 -0.00000000000E+00 -0.00000000000E+00 -0.54088640241E+03  0.54088789339E+03  0.12700000000E+01 0.  1.
         25    2    1    2    0    0  0.00000000000E+00  0.00000000000E+00 -0.53372195142E+03  0.54816403645E+03  0.12499875770E+03 0.  0.
    9000005    1    3    3    0    0 -0.28332527405E+02  0.21472040272E+02 -0.49224402467E+03  0.49352706151E+03  0.10000000000E+01 0.  0.
    9000005    1    3    3    0    0  0.28332527405E+02 -0.21472040272E+02 -0.41477926754E+02  0.54636974939E+02  0.10000000000E+01 0.  0.
<mgrwt>
<rscale>  0 0.12499876E+03</rscale>
<asrwt>0</asrwt>
<pdfrwt beam="1">  1        4 0.11109300E-02 0.12499876E+03</pdfrwt>
<pdfrwt beam="2">  1       -4 0.83221967E-01 0.12499876E+03</pdfrwt>
<totfact> 0.52313577E+03</totfact>
</mgrwt>
</event>
<event>
 5    1  0.3188180E-002  0.1249896E+03  0.7818608E-02  0.1235086E+00
         -4   -1    0    0    0  501 -0.00000000000E+00  0.00000000000E+00  0.96043537545E+01  0.96879570108E+01  0.12700000000E+01 0.  1.
          4   -1    0    0  501    0  0.00000000000E+00 -0.00000000000E+00 -0.40480196105E+03  0.40480395325E+03  0.12700000000E+01 0.  1.
         25    2    1    2    0    0  0.00000000000E+00  0.00000000000E+00 -0.39519760729E+03  0.41449191026E+03  0.12498957902E+03 0.  0.
    9000005    1    3    3    0    0 -0.56316610729E+02  0.24045712103E+02 -0.15633337501E+03  0.16790140278E+03  0.10000000000E+01 0.  0.
    9000005    1    3    3    0    0  0.56316610729E+02 -0.24045712103E+02 -0.23886423228E+03  0.24659050748E+03  0.10000000000E+01 0.  0.
<mgrwt>
<rscale>  0 0.12498958E+03</rscale>
<asrwt>0</asrwt>
<pdfrwt beam="2">  1        4 0.62283796E-01 0.12498958E+03</pdfrwt>
<pdfrwt beam="1">  1       -4 0.14841775E-02 0.12498958E+03</pdfrwt>
<totfact> 0.63181844E+03</totfact>
</mgrwt>
</event>
<event>
 5    1  0.3188180E-002  0.1249996E+03  0.7818608E-02  0.1235070E+00
          4   -1    0    0  501    0  0.00000000000E+00  0.00000000000E+00  0.13927731508E+03  0.13928310521E+03  0.12700000000E+01 0.  1.
         -4   -1    0    0    0  501 -0.00000000000E+00 -0.00000000000E+00 -0.28025623602E+02  0.28054384297E+02  0.12700000000E+01 0.  1.
         25    2    1    2    0    0  0.00000000000E+00  0.00000000000E+00  0.11125169148E+03  0.16733748951E+03  0.12499958615E+03 0.  0.
    9000005    1    3    3    0    0  0.41162670169E+02 -0.18390838116E+02 -0.23051954333E+01  0.45154205430E+02  0.10000000000E+01 0.  0.
    9000005    1    3    3    0    0 -0.41162670169E+02  0.18390838116E+02  0.11355688692E+03  0.12218328408E+03  0.10000000000E+01 0.  0.
<mgrwt>
<rscale>  0 0.12499959E+03</rscale>
<asrwt>0</asrwt>
<pdfrwt beam="1">  1        4 0.21429937E-01 0.12499959E+03</pdfrwt>
<pdfrwt beam="2">  1       -4 0.43142922E-02 0.12499959E+03</pdfrwt>
<totfact> 0.95947423E+03</totfact>
</mgrwt>
</event>
<event>
 5    1  0.3188180E-002  0.1249988E+03  0.7818608E-02  0.1235071E+00
          4   -1    0    0  501    0  0.00000000000E+00  0.00000000000E+00  0.88513552970E+02  0.88522663535E+02  0.12700000000E+01 0.  1.
         -4   -1    0    0    0  501 -0.00000000000E+00 -0.00000000000E+00 -0.44110266907E+02  0.44128545712E+02  0.12700000000E+01 0.  1.
         25    2    1    2    0    0  0.00000000000E+00  0.00000000000E+00  0.44403286062E+02  0.13265120925E+03  0.12499876600E+03 0.  0.
    9000005    1    3    3    0    0  0.55650891169E+02 -0.15591911581E+02 -0.30242425761E+01  0.57881563886E+02  0.10000000000E+01 0.  0.
    9000005    1    3    3    0    0 -0.55650891169E+02  0.15591911581E+02  0.47427528639E+02  0.74769645361E+02  0.10000000000E+01 0.  0.
<mgrwt>
<rscale>  0 0.12499877E+03</rscale>
<asrwt>0</asrwt>
<pdfrwt beam="1">  1        4 0.13619577E-01 0.12499877E+03</pdfrwt>
<pdfrwt beam="2">  1       -4 0.67883018E-02 0.12499877E+03</pdfrwt>
<totfact> 0.10288105E+04</totfact>
</mgrwt>
</event>
<event>
 5    1  0.3188180E-002  0.1250025E+03  0.7818608E-02  0.1235065E+00
          4   -1    0    0  501    0  0.00000000000E+00  0.00000000000E+00  0.10036531938E+04  0.10036539974E+04  0.12700000000E+01 0.  1.
         -4   -1    0    0    0  501 -0.00000000000E+00 -0.00000000000E+00 -0.37877622107E+01  0.39950021983E+01  0.12700000000E+01 0.  1.
         25    2    1    2    0    0  0.00000000000E+00  0.00000000000E+00  0.99986543163E+03  0.10076489996E+04  0.12500249970E+03 0.  0.
    9000005    1    3    3    0    0 -0.60208148543E+02 -0.39229327438E+01  0.63115572054E+03  0.63403387459E+03  0.10000000000E+01 0.  0.
    9000005    1    3    3    0    0  0.60208148543E+02  0.39229327438E+01  0.36870971109E+03  0.37361512497E+03  0.10000000000E+01 0.  0.
<mgrwt>
<rscale>  0 0.12500250E+03</rscale>
<asrwt>0</asrwt>
<pdfrwt beam="1">  1        4 0.15442413E+00 0.12500250E+03</pdfrwt>
<pdfrwt beam="2">  1       -4 0.59873620E-03 0.12500250E+03</pdfrwt>
<totfact> 0.30351607E+03</totfact>
</mgrwt>
</event>
<event>
 5    1  0.3188180E-002  0.1250003E+03  0.7818608E-02  0.1235069E+00
         -4   -1    0    0    0  501 -0.00000000000E+00  0.00000000000E+00  0.50599044905E+02  0.50614980444E+02  0.12700000000E+01 0. -1.
          4   -1    0    0  501    0  0.00000000000E+00 -0.00000000000E+00 -0.77167144592E+02  0.77177594575E+02  0.12700000000E+01 0. -1.
         25    2    1    2    0    0  0.00000000000E+00  0.00000000000E+00 -0.26568099686E+02  0.12779257502E+03  0.12500031324E+03 0.  0.
    9000005    1    3    3    0    0 -0.20228334534E+02 -0.15904731187E+02  0.44936495520E+02  0.51792225495E+02  0.10000000000E+01 0.  0.
    9000005    1    3    3    0    0  0.20228334534E+02  0.15904731187E+02 -0.71504595206E+02  0.76000349524E+02  0.10000000000E+01 0.  0.
<mgrwt>
<rscale>  0 0.12500031E+03</rscale>
<asrwt>0</asrwt>
<pdfrwt beam="2">  1        4 0.11873898E-01 0.12500031E+03</pdfrwt>
<pdfrwt beam="1">  1       -4 0.77864980E-02 0.12500031E+03</pdfrwt>
<totfact> 0.10391896E+04</totfact>
</mgrwt>
</event>
<event>
 5    1  0.3188180E-002  0.1250011E+03  0.7818608E-02  0.1235067E+00
         -4   -1    0    0    0  501 -0.00000000000E+00  0.00000000000E+00  0.18848770934E+01  0.22728091995E+01  0.12700000000E+01 0. -1.
          4   -1    0    0  501    0  0.00000000000E+00 -0.00000000000E+00 -0.18786962584E+04  0.18786966877E+04  0.12700000000E+01 0. -1.
         25    2    1    2    0    0  0.00000000000E+00  0.00000000000E+00 -0.18768113813E+04  0.18809694969E+04  0.12500114846E+03 0.  0.
    9000005    1    3    3    0    0  0.54323707974E+02 -0.22983843288E+02 -0.12489848309E+04  0.12503773151E+04  0.10000000000E+01 0.  0.
    9000005    1    3    3    0    0 -0.54323707974E+02  0.22983843288E+02 -0.62782655043E+03  0.63059218179E+03  0.10000000000E+01 0.  0.
<mgrwt>
<rscale>  0 0.12500115E+03</rscale>
<asrwt>0</asrwt>
<pdfrwt beam="2">  1        4 0.28905871E+00 0.12500115E+03</pdfrwt>
<pdfrwt beam="1">  1       -4 0.31985655E-03 0.12500115E+03</pdfrwt>
<totfact> 0.11495792E+03</totfact>
</mgrwt>
</event>
<event>
 5    1  0.3188180E-002  0.1249676E+03  0.7818608E-02  0.1235120E+00
         -4   -1    0    0    0  501 -0.00000000000E+00  0.00000000000E+00  0.55615038181E+02  0.55629536865E+02  0.12700000000E+01 0. -1.
          4   -1    0    0  501    0  0.00000000000E+00 -0.00000000000E+00 -0.70171523704E+02  0.70183015317E+02  0.12700000000E+01 0. -1.
         25    2    1    2    0    0  0.00000000000E+00  0.00000000000E+00 -0.14556485523E+02  0.12581255218E+03  0.12496762387E+03 0.  0.
    9000005    1    3    3    0    0 -0.99054080667E+00  0.57824199827E+02 -0.31072921205E+02  0.65659315325E+02  0.10000000000E+01 0.  0.
    9000005    1    3    3    0    0  0.99054080667E+00 -0.57824199827E+02  0.16516435682E+02  0.60153236857E+02  0.10000000000E+01 0.  0.
<mgrwt>
<rscale>  0 0.12496762E+03</rscale>
<asrwt>0</asrwt>
<pdfrwt beam="2">  1        4 0.10797618E-01 0.12496762E+03</pdfrwt>
<pdfrwt beam="1">  1       -4 0.85581590E-02 0.12496762E+03</pdfrwt>
<totfact> 0.10442696E+04</totfact>
</mgrwt>
</event>
<event>
 5    1  0.3188180E-002  0.1250005E+03  0.7818608E-02  0.1235069E+00
         -4   -1    0    0    0  501 -0.00000000000E+00  0.00000000000E+00  0.37458507639E+03  0.37458722930E+03  0.12700000000E+01 0. -1.
          4   -1    0    0  501    0  0.00000000000E+00 -0.00000000000E+00 -0.10387430228E+02  0.10464779345E+02  0.12700000000E+01 0. -1.
         25    2    1    2    0    0  0.00000000000E+00  0.00000000000E+00  0.36419764616E+03  0.38505200865E+03  0.12500049556E+03 0.  0.
    9000005    1    3    3    0    0 -0.59559302987E+02 -0.61080133194E+01  0.12693786566E+03  0.14035255657E+03  0.10000000000E+01 0.  0.
    9000005    1    3    3    0    0  0.59559302987E+02  0.61080133194E+01  0.23725978051E+03  0.24469945207E+03  0.10000000000E+01 0.  0.
<mgrwt>
<rscale>  0 0.12500050E+03</rscale>
<asrwt>0</asrwt>
<pdfrwt beam="2">  1        4 0.16041819E-02 0.12500050E+03</pdfrwt>
<pdfrwt beam="1">  1       -4 0.57634583E-01 0.12500050E+03</pdfrwt>
<totfact> 0.66032328E+03</totfact>
</mgrwt>
</event>
<event>
 5    1  0.3188180E-002  0.1250037E+03  0.7818608E-02  0.1235064E+00
         -4   -1    0    0    0  501 -0.00000000000E+00  0.00000000000E+00  0.21586079967E+03  0.21586453561E+03  0.12700000000E+01 0.  1.
          4   -1    0    0  501    0  0.00000000000E+00 -0.00000000000E+00 -0.18071036411E+02  0.18115608104E+02  0.12700000000E+01 0.  1.
         25    2    1    2    0    0  0.00000000000E+00  0.00000000000E+00  0.19778976326E+03  0.23398014372E+03  0.12500366876E+03 0.  0.
    9000005    1    3    3    0    0  0.16624032510E+02  0.54693072584E+02  0.51623898049E+02  0.77030626996E+02  0.10000000000E+01 0.  0.
    9000005    1    3    3    0    0 -0.16624032510E+02 -0.54693072584E+02  0.14616586521E+03  0.15694951672E+03  0.10000000000E+01 0.  0.
<mgrwt>
<rscale>  0 0.12500367E+03</rscale>
<asrwt>0</asrwt>
<pdfrwt beam="2">  1        4 0.27838752E-02 0.12500367E+03</pdfrwt>
<pdfrwt beam="1">  1       -4 0.33213073E-01 0.12500367E+03</pdfrwt>
<totfact> 0.84695232E+03</totfact>
</mgrwt>
</event>
<event>
 5    1  0.3188180E-002  0.1249987E+03  0.7818608E-02  0.1235071E+00
         -4   -1    0    0    0  501 -0.00000000000E+00  0.00000000000E+00  0.10736414282E+03  0.10737165391E+03  0.12700000000E+01 0.  1.
          4   -1    0    0  501    0  0.00000000000E+00 -0.00000000000E+00 -0.36362587699E+02  0.36384758954E+02  0.12700000000E+01 0.  1.
         25    2    1    2    0    0  0.00000000000E+00  0.00000000000E+00  0.71001555124E+02  0.14375641287E+03  0.12499874163E+03 0.  0.
    9000005    1    3    3    0    0  0.29450467215E+02 -0.55115854669E+02  0.35833894091E+02  0.72042733296E+02  0.10000000000E+01 0.  0.
    9000005    1    3    3    0    0 -0.29450467215E+02  0.55115854669E+02  0.35167661033E+02  0.71713679571E+02  0.10000000000E+01 0.  0.
<mgrwt>
<rscale>  0 0.12499874E+03</rscale>
<asrwt>0</asrwt>
<pdfrwt beam="2">  1        4 0.55965276E-02 0.12499874E+03</pdfrwt>
<pdfrwt beam="1">  1       -4 0.16519843E-01 0.12499874E+03</pdfrwt>
<totfact> 0.10056602E+04</totfact>
</mgrwt>
</event>
<event>
 5    1  0.3188180E-002  0.1250028E+03  0.7818608E-02  0.1235065E+00
         -4   -1    0    0    0  501 -0.00000000000E+00  0.00000000000E+00  0.98534638583E+01  0.99349710622E+01  0.12700000000E+01 0.  1.
          4   -1    0    0  501    0  0.00000000000E+00 -0.00000000000E+00 -0.39473672020E+03  0.39473876320E+03  0.12700000000E+01 0.  1.
         25    2    1    2    0    0  0.00000000000E+00  0.00000000000E+00 -0.38488325634E+03  0.40467373426E+03  0.12500284073E+03 0.  0.
    9000005    1    3    3    0    0 -0.51063659590E+02  0.93331631918E+00 -0.75850629258E+02  0.91447724788E+02  0.10000000000E+01 0.  0.
    9000005    1    3    3    0    0  0.51063659590E+02 -0.93331631918E+00 -0.30903262708E+03  0.31322600947E+03  0.10000000000E+01 0.  0.
<mgrwt>
<rscale>  0 0.12500284E+03</rscale>
<asrwt>0</asrwt>
<pdfrwt beam="2">  1        4 0.60735141E-01 0.12500284E+03</pdfrwt>
<pdfrwt beam="1">  1       -4 0.15223448E-02 0.12500284E+03</pdfrwt>
<totfact> 0.64096738E+03</totfact>
</mgrwt>
</event>
<event>
 5    1  0.3188180E-002  0.1250016E+03  0.7818608E-02  0.1235067E+00
          4   -1    0    0  501    0  0.00000000000E+00  0.00000000000E+00  0.36492486300E+02  0.36514578682E+02  0.12700000000E+01 0. -1.
         -4   -1    0    0    0  501 -0.00000000000E+00 -0.00000000000E+00 -0.10698709519E+03  0.10699463275E+03  0.12700000000E+01 0. -1.
         25    2    1    2    0    0  0.00000000000E+00  0.00000000000E+00 -0.70494608887E+02  0.14350921143E+03  0.12500161552E+03 0.  0.
    9000005    1    3    3    0    0  0.68686820288E+01 -0.56935949072E+02 -0.67423675576E+01  0.57752407827E+02  0.10000000000E+01 0.  0.
    9000005    1    3    3    0    0 -0.68686820288E+01  0.56935949072E+02 -0.63752241329E+02  0.85756803602E+02  0.10000000000E+01 0.  0.
<mgrwt>
<rscale>  0 0.12500162E+03</rscale>
<asrwt>0</asrwt>
<pdfrwt beam="1">  1        4 0.56165079E-02 0.12500162E+03</pdfrwt>
<pdfrwt beam="2">  1       -4 0.16461832E-01 0.12500162E+03</pdfrwt>
<totfact> 0.10061000E+04</totfact>
</mgrwt>
</event>
<event>
 5    1  0.3188180E-002  0.1249969E+03  0.7818608E-02  0.1235074E+00
         -4   -1    0    0    0  501 -0.00000000000E+00  0.00000000000E+00  0.32280499839E+02  0.32305472754E+02  0.12700000000E+01 0. -1.
          4   -1    0    0  501    0  0.00000000000E+00 -0.00000000000E+00 -0.12092850414E+03  0.12093517277E+03  0.12700000000E+01 0. -1.
         25    2    1    2    0    0  0.00000000000E+00  0.00000000000E+00 -0.88648004302E+02  0.15324064553E+03  0.12499690706E+03 0.  0.
    9000005    1    3    3    0    0  0.90631589110E+01  0.43250316275E+02 -0.98493009026E+02  0.10795648908E+03  0.10000000000E+01 0.  0.
    9000005    1    3    3    0    0 -0.90631589110E+01 -0.43250316275E+02  0.98450047231E+01  0.45284156449E+02  0.10000000000E+01 0.  0.
<mgrwt>
<rscale>  0 0.12499691E+03</rscale>
<asrwt>0</asrwt>
<pdfrwt beam="2">  1        4 0.18606819E-01 0.12499691E+03</pdfrwt>
<pdfrwt beam="1">  1       -4 0.49686648E-02 0.12499691E+03</pdfrwt>
<totfact> 0.98668468E+03</totfact>
</mgrwt>
</event>
<event>
 5    1  0.3188180E-002  0.1249986E+03  0.7818608E-02  0.1235071E+00
          4   -1    0    0  501    0  0.00000000000E+00  0.00000000000E+00  0.10675795796E+02  0.10751070452E+02  0.12700000000E+01 0.  1.
         -4   -1    0    0    0  501 -0.00000000000E+00 -0.00000000000E+00 -0.36452804205E+03  0.36453025436E+03  0.12700000000E+01 0.  1.
         25    2    1    2    0    0  0.00000000000E+00  0.00000000000E+00 -0.35385224626E+03  0.37528132481E+03  0.12499864228E+03 0.  0.
    9000005    1    3    3    0    0  0.54490811542E+02 -0.29777964896E+02 -0.19798268448E+03  0.20749486521E+03  0.10000000000E+01 0.  0.
    9000005    1    3    3    0    0 -0.54490811542E+02  0.29777964896E+02 -0.15586956178E+03  0.16778645960E+03  0.10000000000E+01 0.  0.
<mgrwt>
<rscale>  0 0.12499864E+03</rscale>
<asrwt>0</asrwt>
<pdfrwt beam="1">  1        4 0.16483909E-02 0.12499864E+03</pdfrwt>
<pdfrwt beam="2">  1       -4 0.56087188E-01 0.12499864E+03</pdfrwt>
<totfact> 0.67032023E+03</totfact>
</mgrwt>
</event>
<event>
 5    1  0.3188180E-002  0.1250021E+03  0.7818608E-02  0.1235066E+00
         -4   -1    0    0    0  501 -0.00000000000E+00  0.00000000000E+00  0.45784451016E+03  0.45784627156E+03  0.12700000000E+01 0. -1.
          4   -1    0    0  501    0  0.00000000000E+00 -0.00000000000E+00 -0.84830597184E+01  0.85775988590E+01  0.12700000000E+01 0. -1.
         25    2    1    2    0    0  0.00000000000E+00  0.00000000000E+00  0.44936145044E+03  0.46642387042E+03  0.12500205501E+03 0.  0.
    9000005    1    3    3    0    0  0.32656007467E+02 -0.39860059745E+02  0.92750953360E+02  0.10610833396E+03  0.10000000000E+01 0.  0.
    9000005    1    3    3    0    0 -0.32656007467E+02  0.39860059745E+02  0.35661049708E+03  0.36031553646E+03  0.10000000000E+01 0.  0.
<mgrwt>
<rscale>  0 0.12500206E+03</rscale>
<asrwt>0</asrwt>
<pdfrwt beam="2">  1        4 0.13124934E-02 0.12500206E+03</pdfrwt>
<pdfrwt beam="1">  1       -4 0.70445047E-01 0.12500206E+03</pdfrwt>
<totfact> 0.58564277E+03</totfact>
</mgrwt>
</event>
<event>
 5    1  0.3188180E-002  0.1249860E+03  0.7818608E-02  0.1235091E+00
          4   -1    0    0  501    0  0.00000000000E+00  0.00000000000E+00  0.15314113966E+03  0.15314640563E+03  0.12700000000E+01 0. -1.
         -4   -1    0    0    0  501 -0.00000000000E+00 -0.00000000000E+00 -0.25480285229E+02  0.25511915556E+02  0.12700000000E+01 0. -1.
         25    2    1    2    0    0  0.00000000000E+00  0.00000000000E+00  0.12766085443E+03  0.17865832119E+03  0.12498600711E+03 0.  0.
    9000005    1    3    3    0    0  0.11563015092E+02 -0.35776231995E+02 -0.75083197589E+01  0.38353838913E+02  0.10000000000E+01 0.  0.
    9000005    1    3    3    0    0 -0.11563015092E+02  0.35776231995E+02  0.13516917419E+03  0.14030448227E+03  0.10000000000E+01 0.  0.
<mgrwt>
<rscale>  0 0.12498601E+03</rscale>
<asrwt>0</asrwt>
<pdfrwt beam="1">  1        4 0.23563014E-01 0.12498601E+03</pdfrwt>
<pdfrwt beam="2">  1       -4 0.39228820E-02 0.12498601E+03</pdfrwt>
<totfact> 0.93888526E+03</totfact>
</mgrwt>
</event>
<event>
 5    1  0.3188180E-002  0.1249981E+03  0.7818608E-02  0.1235072E+00
         -4   -1    0    0    0  501 -0.00000000000E+00  0.00000000000E+00  0.16624468371E+03  0.16624953462E+03  0.12700000000E+01 0. -1.
          4   -1    0    0  501    0  0.00000000000E+00 -0.00000000000E+00 -0.23473903156E+02  0.23508233225E+02  0.12700000000E+01 0. -1.
         25    2    1    2    0    0  0.00000000000E+00  0.00000000000E+00  0.14277078055E+03  0.18975776784E+03  0.12499805870E+03 0.  0.
    9000005    1    3    3    0    0 -0.27113338075E+02 -0.50590130851E+02  0.10889882821E+03  0.12310340867E+03  0.10000000000E+01 0.  0.
    9000005    1    3    3    0    0  0.27113338075E+02  0.50590130851E+02  0.33871952339E+02  0.66654359170E+02  0.10000000000E+01 0.  0.
<mgrwt>
<rscale>  0 0.12499806E+03</rscale>
<asrwt>0</asrwt>
<pdfrwt beam="2">  1        4 0.36143838E-02 0.12499806E+03</pdfrwt>
<pdfrwt beam="1">  1       -4 0.25579118E-01 0.12499806E+03</pdfrwt>
<totfact> 0.91893476E+03</totfact>
</mgrwt>
</event>
<event>
 5    1  0.3188180E-002  0.1250081E+03  0.7818608E-02  0.1235057E+00
         -4   -1    0    0    0  501 -0.00000000000E+00  0.00000000000E+00  0.31775545189E+03  0.31775798984E+03  0.12700000000E+01 0. -1.
          4   -1    0    0  501    0  0.00000000000E+00 -0.00000000000E+00 -0.12259465190E+02  0.12325071470E+02  0.12700000000E+01 0. -1.
         25    2    1    2    0    0  0.00000000000E+00  0.00000000000E+00  0.30549598670E+03  0.33008306131E+03  0.12500811763E+03 0.  0.
    9000005    1    3    3    0    0 -0.61980895334E+02  0.44381117746E+01  0.13514773655E+03  0.14875227365E+03  0.10000000000E+01 0.  0.
    9000005    1    3    3    0    0  0.61980895334E+02 -0.44381117746E+01  0.17034825015E+03  0.18133078766E+03  0.10000000000E+01 0.  0.
<mgrwt>
<rscale>  0 0.12500812E+03</rscale>
<asrwt>0</asrwt>
<pdfrwt beam="2">  1        4 0.18913137E-02 0.12500812E+03</pdfrwt>
<pdfrwt beam="1">  1       -4 0.48890689E-01 0.12500812E+03</pdfrwt>
<totfact> 0.71959774E+03</totfact>
</mgrwt>
</event>
<event>
 5    1  0.3188180E-002  0.1249825E+03  0.7818608E-02  0.1235097E+00
         -4   -1    0    0    0  501 -0.00000000000E+00  0.00000000000E+00  0.60477327526E+03  0.60477460874E+03  0.12700000000E+01 0. -1.
          4   -1    0    0  501    0  0.00000000000E+00 -0.00000000000E+00 -0.63934252570E+01  0.65183423135E+01  0.12700000000E+01 0. -1.
         25    2    1    2    0    0  0.00000000000E+00  0.00000000000E+00  0.59837985001E+03  0.61129295105E+03  0.12498250722E+03 0.  0.
    9000005    1    3    3    0    0  0.83067525260E+01  0.43856679401E+02  0.85336955172E+02  0.96310987865E+02  0.10000000000E+01 0.  0.
    9000005    1    3    3    0    0 -0.83067525260E+01 -0.43856679401E+02  0.51304289484E+03  0.51498196319E+03  0.10000000000E+01 0.  0.
<mgrwt>
<rscale>  0 0.12498251E+03</rscale>
<asrwt>0</asrwt>
<pdfrwt beam="2">  1        4 0.99331553E-03 0.12498251E+03</pdfrwt>
<pdfrwt beam="1">  1       -4 0.93051748E-01 0.12498251E+03</pdfrwt>
<totfact> 0.48180914E+03</totfact>
</mgrwt>
</event>
<event>
 5    1  0.3188180E-002  0.1250032E+03  0.7818608E-02  0.1235064E+00
          4   -1    0    0  501    0  0.00000000000E+00  0.00000000000E+00  0.23555950121E+01  0.26761404786E+01  0.12700000000E+01 0.  1.
         -4   -1    0    0    0  501 -0.00000000000E+00 -0.00000000000E+00 -0.15524032389E+04  0.15524037584E+04  0.12700000000E+01 0.  1.
         25    2    1    2    0    0  0.00000000000E+00  0.00000000000E+00 -0.15500476439E+04  0.15550798989E+04  0.12500317407E+03 0.  0.
    9000005    1    3    3    0    0 -0.87263584735E+01  0.28683090991E+02 -0.92892484905E+02  0.97615996603E+02  0.10000000000E+01 0.  0.
    9000005    1    3    3    0    0  0.87263584735E+01 -0.28683090991E+02 -0.14571551590E+04  0.14574639023E+04  0.10000000000E+01 0.  0.
<mgrwt>
<rscale>  0 0.12500317E+03</rscale>
<asrwt>0</asrwt>
<pdfrwt beam="1">  1        4 0.38709778E-03 0.12500317E+03</pdfrwt>
<pdfrwt beam="2">  1       -4 0.23885520E+00 0.12500317E+03</pdfrwt>
<totfact> 0.16871684E+03</totfact>
</mgrwt>
</event>
<event>
 5    1  0.3188180E-002  0.1249909E+03  0.7818608E-02  0.1235083E+00
          4   -1    0    0  501    0  0.00000000000E+00  0.00000000000E+00  0.40820928984E+03  0.40821126542E+03  0.12700000000E+01 0.  1.
         -4   -1    0    0    0  501 -0.00000000000E+00 -0.00000000000E+00 -0.95236954800E+01  0.96080006034E+01  0.12700000000E+01 0.  1.
         25    2    1    2    0    0  0.00000000000E+00  0.00000000000E+00  0.39868559436E+03  0.41781926602E+03  0.12499094330E+03 0.  0.
    9000005    1    3    3    0    0  0.71991532638E+01 -0.68509511066E+01  0.40556706965E+03  0.40569004342E+03  0.10000000000E+01 0.  0.
    9000005    1    3    3    0    0 -0.71991532638E+01  0.68509511066E+01 -0.68814752925E+01  0.12129222604E+02  0.10000000000E+01 0.  0.
<mgrwt>
<rscale>  0 0.12499094E+03</rscale>
<asrwt>0</asrwt>
<pdfrwt beam="1">  1        4 0.62808074E-01 0.12499094E+03</pdfrwt>
<pdfrwt beam="2">  1       -4 0.14718207E-02 0.12499094E+03</pdfrwt>
<totfact> 0.62868390E+03</totfact>
</mgrwt>
</event>
<event>
 5    1  0.3188180E-002  0.1249974E+03  0.7818608E-02  0.1235073E+00
         -4   -1    0    0    0  501 -0.00000000000E+00  0.00000000000E+00  0.87655766054E+01  0.88571007235E+01  0.12700000000E+01 0.  1.
          4   -1    0    0  501    0  0.00000000000E+00 -0.00000000000E+00 -0.44320993288E+03  0.44321175245E+03  0.12700000000E+01 0.  1.
         25    2    1    2    0    0  0.00000000000E+00  0.00000000000E+00 -0.43444435628E+03  0.45206885317E+03  0.12499739719E+03 0.  0.
    9000005    1    3    3    0    0  0.19222343531E+02 -0.44430390389E+02 -0.74306893962E+02  0.88690882120E+02  0.10000000000E+01 0.  0.
    9000005    1    3    3    0    0 -0.19222343531E+02  0.44430390389E+02 -0.36013746232E+03  0.36337797105E+03  0.10000000000E+01 0.  0.
<mgrwt>
<rscale>  0 0.12499740E+03</rscale>
<asrwt>0</asrwt>
<pdfrwt beam="2">  1        4 0.68193306E-01 0.12499740E+03</pdfrwt>
<pdfrwt beam="1">  1       -4 0.13557309E-02 0.12499740E+03</pdfrwt>
<totfact> 0.59788423E+03</totfact>
</mgrwt>
</event>
<event>
 5    1  0.3188180E-002  0.1250024E+03  0.7818608E-02  0.1235066E+00
         -4   -1    0    0    0  501 -0.00000000000E+00  0.00000000000E+00  0.41844445703E+02  0.41863713837E+02  0.12700000000E+01 0. -1.
          4   -1    0    0  501    0  0.00000000000E+00 -0.00000000000E+00 -0.93310228506E+02  0.93318870781E+02  0.12700000000E+01 0. -1.
         25    2    1    2    0    0  0.00000000000E+00  0.00000000000E+00 -0.51465782802E+02  0.13518258462E+03  0.12500241751E+03 0.  0.
    9000005    1    3    3    0    0  0.27249264139E+01  0.15077493459E+02  0.39787054388E+02  0.42646989692E+02  0.10000000000E+01 0.  0.
    9000005    1    3    3    0    0 -0.27249264139E+01 -0.15077493459E+02 -0.91252837190E+02  0.92535594925E+02  0.10000000000E+01 0.  0.
<mgrwt>
<rscale>  0 0.12500242E+03</rscale>
<asrwt>0</asrwt>
<pdfrwt beam="2">  1        4 0.14357567E-01 0.12500242E+03</pdfrwt>
<pdfrwt beam="1">  1       -4 0.64397540E-02 0.12500242E+03</pdfrwt>
<totfact> 0.10233666E+04</totfact>
</mgrwt>
</event>
<event>
 5    1  0.3188180E-002  0.1249990E+03  0.7818608E-02  0.1235071E+00
          4   -1    0    0  501    0  0.00000000000E+00  0.00000000000E+00  0.15279297416E+04  0.15279302694E+04  0.12700000000E+01 0.  1.
         -4   -1    0    0    0  501 -0.00000000000E+00 -0.00000000000E+00 -0.23982386724E+01  0.27137517812E+01  0.12700000000E+01 0.  1.
         25    2    1    2    0    0  0.00000000000E+00  0.00000000000E+00  0.15255315029E+04  0.15306440212E+04  0.12499901268E+03 0.  0.
    9000005    1    3    3    0    0 -0.10108045091E+02  0.17417917765E+02  0.14871663449E+04  0.14873030269E+04  0.10000000000E+01 0.  0.
    9000005    1    3    3    0    0  0.10108045091E+02 -0.17417917765E+02  0.38365158017E+02  0.43340994272E+02  0.10000000000E+01 0.  0.
<mgrwt>
<rscale>  0 0.12499901E+03</rscale>
<asrwt>0</asrwt>
<pdfrwt beam="1">  1        4 0.23508986E+00 0.12499901E+03</pdfrwt>
<pdfrwt beam="2">  1       -4 0.39327157E-03 0.12499901E+03</pdfrwt>
<totfact> 0.17336268E+03</totfact>
</mgrwt>
</event>
<event>
 5    1  0.3188180E-002  0.1249953E+03  0.7818608E-02  0.1235077E+00
         -4   -1    0    0    0  501 -0.00000000000E+00  0.00000000000E+00  0.33913151504E+03  0.33913389302E+03  0.12700000000E+01 0.  1.
          4   -1    0    0  501    0  0.00000000000E+00 -0.00000000000E+00 -0.11480086237E+02  0.11550120346E+02  0.12700000000E+01 0.  1.
         25    2    1    2    0    0  0.00000000000E+00  0.00000000000E+00  0.32765142880E+03  0.35068401336E+03  0.12499527364E+03 0.  0.
    9000005    1    3    3    0    0  0.34508507725E+02  0.13308477403E+02  0.30513892887E+03  0.30737390681E+03  0.10000000000E+01 0.  0.
    9000005    1    3    3    0    0 -0.34508507725E+02 -0.13308477403E+02  0.22512499929E+02  0.43310106548E+02  0.10000000000E+01 0.  0.
<mgrwt>
<rscale>  0 0.12499527E+03</rscale>
<asrwt>0</asrwt>
<pdfrwt beam="2">  1        4 0.17717376E-02 0.12499527E+03</pdfrwt>
<pdfrwt beam="1">  1       -4 0.52179639E-01 0.12499527E+03</pdfrwt>
<totfact> 0.69656662E+03</totfact>
</mgrwt>
</event>
<event>
 5    1  0.3188180E-002  0.1249971E+03  0.7818608E-02  0.1235074E+00
         -4   -1    0    0    0  501 -0.00000000000E+00  0.00000000000E+00  0.46207666432E+02  0.46225115869E+02  0.12700000000E+01 0.  1.
          4   -1    0    0  501    0  0.00000000000E+00 -0.00000000000E+00 -0.84494706688E+02  0.84504250534E+02  0.12700000000E+01 0.  1.
         25    2    1    2    0    0  0.00000000000E+00  0.00000000000E+00 -0.38287040256E+02  0.13072936640E+03  0.12499707912E+03 0.  0.
    9000005    1    3    3    0    0  0.39146912831E+02 -0.29508689488E+02 -0.59674098241E+02  0.77234976147E+02  0.10000000000E+01 0.  0.
    9000005    1    3    3    0    0 -0.39146912831E+02  0.29508689488E+02  0.21387057985E+02  0.53494390255E+02  0.10000000000E+01 0.  0.
<mgrwt>
<rscale>  0 0.12499708E+03</rscale>
<asrwt>0</asrwt>
<pdfrwt beam="2">  1        4 0.13001262E-01 0.12499708E+03</pdfrwt>
<pdfrwt beam="1">  1       -4 0.71109482E-02 0.12499708E+03</pdfrwt>
<totfact> 0.10329575E+04</totfact>
</mgrwt>
</event>
<event>
 5    1  0.3188180E-002  0.1250006E+03  0.7818608E-02  0.1235068E+00
         -4   -1    0    0    0  501 -0.00000000000E+00  0.00000000000E+00  0.16876509293E+02  0.16924227188E+02  0.12700000000E+01 0.  1.
          4   -1    0    0  501    0  0.00000000000E+00 -0.00000000000E+00 -0.23108682405E+03  0.23109031384E+03  0.12700000000E+01 0.  1.
         25    2    1    2    0    0  0.00000000000E+00  0.00000000000E+00 -0.21421031476E+03  0.24801454103E+03  0.12500061445E+03 0.  0.
    9000005    1    3    3    0    0  0.38505246503E+02 -0.32608686124E+02 -0.18025677432E+03  0.18718836798E+03  0.10000000000E+01 0.  0.
    9000005    1    3    3    0    0 -0.38505246503E+02  0.32608686124E+02 -0.33953540436E+02  0.60826173044E+02  0.10000000000E+01 0.  0.
<mgrwt>
<rscale>  0 0.12500061E+03</rscale>
<asrwt>0</asrwt>
<pdfrwt beam="2">  1        4 0.35555756E-01 0.12500061E+03</pdfrwt>
<pdfrwt beam="1">  1       -4 0.26003253E-02 0.12500061E+03</pdfrwt>
<totfact> 0.82616908E+03</totfact>
</mgrwt>
</event>
<event>
 5    1  0.3188180E-002  0.1249877E+03  0.7818608E-02  0.1235089E+00
          4   -1    0    0  501    0  0.00000000000E+00  0.00000000000E+00  0.57186652541E+03  0.57186793562E+03  0.12700000000E+01 0.  1.
         -4   -1    0    0    0  501 -0.00000000000E+00 -0.00000000000E+00 -0.67688827267E+01  0.68869930571E+01  0.12700000000E+01 0.  1.
         25    2    1    2    0    0  0.00000000000E+00  0.00000000000E+00  0.56509764268E+03  0.57875492867E+03  0.12498768618E+03 0.  0.
    9000005    1    3    3    0    0  0.46314829218E+02 -0.41810673574E+02  0.29810383653E+03  0.30456541692E+03  0.10000000000E+01 0.  0.
    9000005    1    3    3    0    0 -0.46314829218E+02  0.41810673574E+02  0.26699380615E+03  0.27418951175E+03  0.10000000000E+01 0.  0.
<mgrwt>
<rscale>  0 0.12498769E+03</rscale>
<asrwt>0</asrwt>
<pdfrwt beam="1">  1        4 0.87988667E-01 0.12498769E+03</pdfrwt>
<pdfrwt beam="2">  1       -4 0.10505604E-02 0.12498769E+03</pdfrwt>
<totfact> 0.50250291E+03</totfact>
</mgrwt>
</event>
<event>
 5    1  0.3188180E-002  0.1250053E+03  0.7818608E-02  0.1235061E+00
          4   -1    0    0  501    0  0.00000000000E+00  0.00000000000E+00  0.43391111999E+03  0.43391297854E+03  0.12700000000E+01 0. -1.
         -4   -1    0    0    0  501 -0.00000000000E+00 -0.00000000000E+00 -0.89565076061E+01  0.90461001817E+01  0.12700000000E+01 0. -1.
         25    2    1    2    0    0  0.00000000000E+00  0.00000000000E+00  0.42495461238E+03  0.44295907872E+03  0.12500529125E+03 0.  0.
    9000005    1    3    3    0    0  0.32242672714E+02 -0.53350924658E+02  0.22819298073E+03  0.23655643631E+03  0.10000000000E+01 0.  0.
    9000005    1    3    3    0    0 -0.32242672714E+02  0.53350924658E+02  0.19676163165E+03  0.20640264241E+03  0.10000000000E+01 0.  0.
<mgrwt>
<rscale>  0 0.12500529E+03</rscale>
<asrwt>0</asrwt>
<pdfrwt beam="1">  1        4 0.66762580E-01 0.12500529E+03</pdfrwt>
<pdfrwt beam="2">  1       -4 0.13849592E-02 0.12500529E+03</pdfrwt>
<totfact> 0.60571583E+03</totfact>
</mgrwt>
</event>
<event>
 4    1  0.3188180E-002  0.1276094E+03  0.7818608E-02  0.1231047E+00
         -4   -1    0    0    0  501 -0.00000000000E+00  0.00000000000E+00  0.84335468687E+01  0.85286348724E+01  0.12700000000E+01 0. -1.
          4   -1    0    0  501    0  0.00000000000E+00 -0.00000000000E+00 -0.47991766495E+03  0.47991934534E+03  0.12700000000E+01 0. -1.
    9000005    1    1    2    0    0 -0.42130912725E+02 -0.47380516228E+02 -0.26283809569E+03  0.27037897787E+03  0.10000000000E+01 0.  0.
    9000005    1    1    2    0    0  0.42130912725E+02  0.47380516228E+02 -0.20864602239E+03  0.21806900234E+03  0.10000000000E+01 0.  0.
<mgrwt>
<rscale>  0 0.12760939E+03</rscale>
<asrwt>0</asrwt>
<pdfrwt beam="2">  1        4 0.73840909E-01 0.12760939E+03</pdfrwt>
<pdfrwt beam="1">  1       -4 0.13049128E-02 0.12760939E+03</pdfrwt>
<totfact> 0.53633232E+03</totfact>
</mgrwt>
</event>
<event>
 5    1  0.3188180E-002  0.1250025E+03  0.7818608E-02  0.1235065E+00
          4   -1    0    0  501    0  0.00000000000E+00  0.00000000000E+00  0.50676778011E+03  0.50676937147E+03  0.12700000000E+01 0.  1.
         -4   -1    0    0    0  501 -0.00000000000E+00 -0.00000000000E+00 -0.76545453901E+01  0.77591858548E+01  0.12700000000E+01 0.  1.
         25    2    1    2    0    0  0.00000000000E+00  0.00000000000E+00  0.49911323472E+03  0.51452855732E+03  0.12500246089E+03 0.  0.
    9000005    1    3    3    0    0 -0.48078460357E+01 -0.18556567641E+02  0.49438755118E+03  0.49476005533E+03  0.10000000000E+01 0.  0.
    9000005    1    3    3    0    0  0.48078460357E+01  0.18556567641E+02  0.47256835378E+01  0.19768501993E+02  0.10000000000E+01 0.  0.
<mgrwt>
<rscale>  0 0.12500246E+03</rscale>
<asrwt>0</asrwt>
<pdfrwt beam="1">  1        4 0.77972453E-01 0.12500246E+03</pdfrwt>
<pdfrwt beam="2">  1       -4 0.11857939E-02 0.12500246E+03</pdfrwt>
<totfact> 0.54751524E+03</totfact>
</mgrwt>
</event>
<event>
 5    1  0.3188180E-002  0.1250441E+03  0.7818608E-02  0.1235000E+00
          4   -1    0    0  501    0  0.00000000000E+00  0.00000000000E+00  0.37731105625E+01  0.39811133263E+01  0.12700000000E+01 0.  1.
         -4   -1    0    0    0  501 -0.00000000000E+00 -0.00000000000E+00 -0.10080178969E+04  0.10080186969E+04  0.12700000000E+01 0.  1.
         25    2    1    2    0    0  0.00000000000E+00  0.00000000000E+00 -0.10042447863E+04  0.10119998102E+04  0.12504409255E+03 0.  0.
    9000005    1    3    3    0    0  0.23255617558E+01 -0.61697039942E+02 -0.42279583780E+03  0.42728123460E+03  0.10000000000E+01 0.  0.
    9000005    1    3    3    0    0 -0.23255617558E+01  0.61697039942E+02 -0.58144894850E+03  0.58471857563E+03  0.10000000000E+01 0.  0.
<mgrwt>
<rscale>  0 0.12504409E+03</rscale>
<asrwt>0</asrwt>
<pdfrwt beam="1">  1        4 0.59654110E-03 0.12504409E+03</pdfrwt>
<pdfrwt beam="2">  1       -4 0.15509553E+00 0.12504409E+03</pdfrwt>
<totfact> 0.30182518E+03</totfact>
</mgrwt>
</event>
<event>
 5    1  0.3188180E-002  0.1250025E+03  0.7818608E-02  0.1235065E+00
          4   -1    0    0  501    0  0.00000000000E+00  0.00000000000E+00  0.30605391120E+01  0.33135780746E+01  0.12700000000E+01 0.  1.
         -4   -1    0    0    0  501 -0.00000000000E+00 -0.00000000000E+00 -0.12254559872E+04  0.12254566452E+04  0.12700000000E+01 0.  1.
         25    2    1    2    0    0  0.00000000000E+00  0.00000000000E+00 -0.12223954480E+04  0.12287702233E+04  0.12500252117E+03 0.  0.
    9000005    1    3    3    0    0  0.84623033535E+01 -0.38249722830E+02 -0.13257280272E+03  0.13824326347E+03  0.10000000000E+01 0.  0.
    9000005    1    3    3    0    0 -0.84623033535E+01  0.38249722830E+02 -0.10898226453E+04  0.10905269598E+04  0.10000000000E+01 0.  0.
<mgrwt>
<rscale>  0 0.12500252E+03</rscale>
<asrwt>0</asrwt>
<pdfrwt beam="1">  1        4 0.49036830E-03 0.12500252E+03</pdfrwt>
<pdfrwt beam="2">  1       -4 0.18855083E+00 0.12500252E+03</pdfrwt>
<totfact> 0.23970617E+03</totfact>
</mgrwt>
</event>
<event>
 5    1  0.3188180E-002  0.1250088E+03  0.7818608E-02  0.1235055E+00
          4   -1    0    0  501    0  0.00000000000E+00  0.00000000000E+00  0.72203758124E+01  0.73312159205E+01  0.12700000000E+01 0.  1.
         -4   -1    0    0    0  501 -0.00000000000E+00 -0.00000000000E+00 -0.53684711866E+03  0.53684862086E+03  0.12700000000E+01 0.  1.
         25    2    1    2    0    0  0.00000000000E+00  0.00000000000E+00 -0.52962674285E+03  0.54417983678E+03  0.12500883174E+03 0.  0.
    9000005    1    3    3    0    0  0.48388701121E+02  0.38790337310E+02 -0.29843277491E+03  0.30481023245E+03  0.10000000000E+01 0.  0.
    9000005    1    3    3    0    0 -0.48388701121E+02 -0.38790337310E+02 -0.23119396794E+03  0.23936960433E+03  0.10000000000E+01 0.  0.
<mgrwt>
<rscale>  0 0.12500883E+03</rscale>
<asrwt>0</asrwt>
<pdfrwt beam="1">  1        4 0.11194692E-02 0.12500883E+03</pdfrwt>
<pdfrwt beam="2">  1       -4 0.82600475E-01 0.12500883E+03</pdfrwt>
<totfact> 0.52582232E+03</totfact>
</mgrwt>
</event>
