<event>
 5    1  0.3286491E-002  0.1249939E+03  0.7818608E-02  0.1235079E+00
         -4   -1    0    0    0  501 -0.00000000000E+00  0.00000000000E+00  0.94262025824E+02  0.94270580843E+02  0.12700000000E+01 0. -1.
          4   -1    0    0  501    0  0.00000000000E+00 -0.00000000000E+00 -0.41416113882E+02  0.41435581196E+02  0.12700000000E+01 0. -1.
         25    2    1    2    0    0  0.00000000000E+00  0.00000000000E+00  0.52845911942E+02  0.13570616204E+03  0.12499388788E+03 0.  0.
    9000005    1    3    3    0    0 -0.22218871193E+02  0.44141080860E+02  0.67946704209E+02  0.84023019878E+02  0.10000000000E+01 0.  0.
    9000005    1    3    3    0    0  0.22218871193E+02 -0.44141080860E+02 -0.15100792267E+02  0.51683142161E+02  0.10000000000E+01 0.  0.
<mgrwt>
<rscale>  0 0.12499389E+03</rscale>
<asrwt>0</asrwt>
<pdfrwt beam="2">  1        4 0.63738655E-02 0.12499389E+03</pdfrwt>
<pdfrwt beam="1">  1       -4 0.14504005E-01 0.12499389E+03</pdfrwt>
<totfact> 0.10224617E+04</totfact>
</mgrwt>
</event>
<event>
 5    1  0.3286491E-002  0.1249963E+03  0.7818608E-02  0.1235075E+00
         -4   -1    0    0    0  501 -0.00000000000E+00  0.00000000000E+00  0.28345493595E+02  0.28373930062E+02  0.12700000000E+01 0. -1.
          4   -1    0    0  501    0  0.00000000000E+00 -0.00000000000E+00 -0.13769980881E+03  0.13770566526E+03  0.12700000000E+01 0. -1.
         25    2    1    2    0    0  0.00000000000E+00  0.00000000000E+00 -0.10935431521E+03  0.16607959532E+03  0.12499626286E+03 0.  0.
    9000005    1    3    3    0    0  0.49941224287E+01 -0.49456670575E+02 -0.10499371527E+03  0.11617049440E+03  0.10000000000E+01 0.  0.
    9000005    1    3    3    0    0 -0.49941224287E+01  0.49456670575E+02 -0.43605999420E+01  0.49909100924E+02  0.10000000000E+01 0.  0.
<mgrwt>
<rscale>  0 0.12499626E+03</rscale>
<asrwt>0</asrwt>
<pdfrwt beam="2">  1        4 0.21187223E-01 0.12499626E+03</pdfrwt>
<pdfrwt beam="1">  1       -4 0.43634832E-02 0.12499626E+03</pdfrwt>
<totfact> 0.96191399E+03</totfact>
</mgrwt>
</event>
<event>
 5    1  0.3286491E-002  0.1250027E+03  0.7818608E-02  0.1235065E+00
         -4   -1    0    0    0  501 -0.00000000000E+00  0.00000000000E+00  0.82996259987E+02  0.83005976121E+02  0.12700000000E+01 0. -1.
          4   -1    0    0  501    0  0.00000000000E+00 -0.00000000000E+00 -0.47046396734E+02  0.47063535202E+02  0.12700000000E+01 0. -1.
         25    2    1    2    0    0  0.00000000000E+00  0.00000000000E+00  0.35949863253E+02  0.13006951132E+03  0.12500274040E+03 0.  0.
    9000005    1    3    3    0    0  0.59678356767E+02 -0.17079937763E+02  0.10457790776E+02  0.62957095933E+02  0.10000000000E+01 0.  0.
    9000005    1    3    3    0    0 -0.59678356767E+02  0.17079937763E+02  0.25492072477E+02  0.67112415391E+02  0.10000000000E+01 0.  0.
<mgrwt>
<rscale>  0 0.12500274E+03</rscale>
<asrwt>0</asrwt>
<pdfrwt beam="2">  1        4 0.72399729E-02 0.12500274E+03</pdfrwt>
<pdfrwt beam="1">  1       -4 0.12770721E-01 0.12500274E+03</pdfrwt>
<totfact> 0.10342381E+04</totfact>
</mgrwt>
</event>
<event>
 5    1  0.3286491E-002  0.1250208E+03  0.7818608E-02  0.1235037E+00
         -4   -1    0    0    0  501 -0.00000000000E+00  0.00000000000E+00  0.35285101112E+01  0.37501044792E+01  0.12700000000E+01 0.  1.
          4   -1    0    0  501    0  0.00000000000E+00 -0.00000000000E+00 -0.10734845615E+04  0.10734853128E+04  0.12700000000E+01 0.  1.
         25    2    1    2    0    0  0.00000000000E+00  0.00000000000E+00 -0.10699560514E+04  0.10772354173E+04  0.12502076715E+03 0.  0.
    9000005    1    3    3    0    0  0.22491022264E+02 -0.49331064152E+02 -0.26701495151E+03  0.27246538184E+03  0.10000000000E+01 0.  0.
    9000005    1    3    3    0    0 -0.22491022264E+02  0.49331064152E+02 -0.80294109992E+03  0.80477003542E+03  0.10000000000E+01 0.  0.
<mgrwt>
<rscale>  0 0.12502077E+03</rscale>
<asrwt>0</asrwt>
<pdfrwt beam="2">  1        4 0.16516832E+00 0.12502077E+03</pdfrwt>
<pdfrwt beam="1">  1       -4 0.55995207E-03 0.12502077E+03</pdfrwt>
<totfact> 0.28146678E+03</totfact>
</mgrwt>
</event>
<event>
 5    1  0.3286491E-002  0.1250011E+03  0.7818608E-02  0.1235068E+00
         -4   -1    0    0    0  501 -0.00000000000E+00  0.00000000000E+00  0.46030234688E+02  0.46047751361E+02  0.12700000000E+01 0.  1.
          4   -1    0    0  501    0  0.00000000000E+00 -0.00000000000E+00 -0.84825831589E+02  0.84835338183E+02  0.12700000000E+01 0.  1.
         25    2    1    2    0    0  0.00000000000E+00  0.00000000000E+00 -0.38795596901E+02  0.13088308954E+03  0.12500113915E+03 0.  0.
    9000005    1    3    3    0    0 -0.95650882941E+01  0.54400711058E+02 -0.50003221550E+02  0.74513424582E+02  0.10000000000E+01 0.  0.
    9000005    1    3    3    0    0  0.95650882941E+01 -0.54400711058E+02  0.11207624649E+02  0.56369664962E+02  0.10000000000E+01 0.  0.
<mgrwt>
<rscale>  0 0.12500114E+03</rscale>
<asrwt>0</asrwt>
<pdfrwt beam="2">  1        4 0.13052207E-01 0.12500114E+03</pdfrwt>
<pdfrwt beam="1">  1       -4 0.70836533E-02 0.12500114E+03</pdfrwt>
<totfact> 0.10325331E+04</totfact>
</mgrwt>
</event>
<event>
 5    1  0.3286491E-002  0.1249973E+03  0.7818608E-02  0.1235073E+00
          4   -1    0    0  501    0  0.00000000000E+00  0.00000000000E+00  0.19688893221E+03  0.19689302813E+03  0.12700000000E+01 0.  1.
         -4   -1    0    0    0  501 -0.00000000000E+00 -0.00000000000E+00 -0.19814380221E+02  0.19855038744E+02  0.12700000000E+01 0.  1.
         25    2    1    2    0    0  0.00000000000E+00  0.00000000000E+00  0.17707455199E+03  0.21674806688E+03  0.12499731010E+03 0.  0.
    9000005    1    3    3    0    0  0.52470911882E+02 -0.16314037860E+02  0.14014409273E+03  0.15053475064E+03  0.10000000000E+01 0.  0.
    9000005    1    3    3    0    0 -0.52470911882E+02  0.16314037860E+02  0.36930459261E+02  0.66213316231E+02  0.10000000000E+01 0.  0.
<mgrwt>
<rscale>  0 0.12499731E+03</rscale>
<asrwt>0</asrwt>
<pdfrwt beam="1">  1        4 0.30294048E-01 0.12499731E+03</pdfrwt>
<pdfrwt beam="2">  1       -4 0.30518088E-02 0.12499731E+03</pdfrwt>
<totfact> 0.87390807E+03</totfact>
</mgrwt>
</event>
<event>
 5    1  0.3286491E-002  0.1250097E+03  0.7818608E-02  0.1235054E+00
          4   -1    0    0  501    0  0.00000000000E+00  0.00000000000E+00  0.27293219333E+02  0.27322750988E+02  0.12700000000E+01 0.  1.
         -4   -1    0    0    0  501 -0.00000000000E+00 -0.00000000000E+00 -0.14303407130E+03  0.14303970935E+03  0.12700000000E+01 0.  1.
         25    2    1    2    0    0  0.00000000000E+00  0.00000000000E+00 -0.11574085196E+03  0.17036246034E+03  0.12500969194E+03 0.  0.
    9000005    1    3    3    0    0  0.33368784578E+02 -0.33779468862E+02 -0.11324964427E+03  0.12280476468E+03  0.10000000000E+01 0.  0.
    9000005    1    3    3    0    0 -0.33368784578E+02  0.33779468862E+02 -0.24912076941E+01  0.47557695661E+02  0.10000000000E+01 0.  0.
<mgrwt>
<rscale>  0 0.12500969E+03</rscale>
<asrwt>0</asrwt>
<pdfrwt beam="1">  1        4 0.42016622E-02 0.12500969E+03</pdfrwt>
<pdfrwt beam="2">  1       -4 0.22007947E-01 0.12500969E+03</pdfrwt>
<totfact> 0.95360377E+03</totfact>
</mgrwt>
</event>
<event>
 5    1  0.3286491E-002  0.1250006E+03  0.7818608E-02  0.1235068E+00
          4   -1    0    0  501    0  0.00000000000E+00  0.00000000000E+00  0.62268575433E+03  0.62268704944E+03  0.12700000000E+01 0. -1.
         -4   -1    0    0    0  501 -0.00000000000E+00 -0.00000000000E+00 -0.62076971044E+01  0.63362767727E+01  0.12700000000E+01 0. -1.
         25    2    1    2    0    0  0.00000000000E+00  0.00000000000E+00  0.61647805723E+03  0.62902332622E+03  0.12500059954E+03 0.  0.
    9000005    1    3    3    0    0 -0.93141625434E+01 -0.56072514454E+02  0.43892100074E+03  0.44258730822E+03  0.10000000000E+01 0.  0.
    9000005    1    3    3    0    0  0.93141625434E+01  0.56072514454E+02  0.17755705648E+03  0.18643601800E+03  0.10000000000E+01 0.  0.
<mgrwt>
<rscale>  0 0.12500060E+03</rscale>
<asrwt>0</asrwt>
<pdfrwt beam="1">  1        4 0.95807796E-01 0.12500060E+03</pdfrwt>
<pdfrwt beam="2">  1       -4 0.96502072E-03 0.12500060E+03</pdfrwt>
<totfact> 0.47084751E+03</totfact>
</mgrwt>
</event>
<event>
 5    1  0.3286491E-002  0.1249987E+03  0.7818608E-02  0.1235071E+00
          4   -1    0    0  501    0  0.00000000000E+00  0.00000000000E+00  0.15784710303E+03  0.15785221201E+03  0.12700000000E+01 0. -1.
         -4   -1    0    0    0  501 -0.00000000000E+00 -0.00000000000E+00 -0.24724731422E+02  0.24757327074E+02  0.12700000000E+01 0. -1.
         25    2    1    2    0    0  0.00000000000E+00  0.00000000000E+00  0.13312237161E+03  0.18260953908E+03  0.12499871175E+03 0.  0.
    9000005    1    3    3    0    0  0.16003984870E+02  0.28792665290E+02  0.14414021748E+03  0.14785989112E+03  0.10000000000E+01 0.  0.
    9000005    1    3    3    0    0 -0.16003984870E+02 -0.28792665290E+02 -0.11017845867E+02  0.34749647966E+02  0.10000000000E+01 0.  0.
<mgrwt>
<rscale>  0 0.12499871E+03</rscale>
<asrwt>0</asrwt>
<pdfrwt beam="1">  1        4 0.24287069E-01 0.12499871E+03</pdfrwt>
<pdfrwt beam="2">  1       -4 0.38067053E-02 0.12499871E+03</pdfrwt>
<totfact> 0.93152066E+03</totfact>
</mgrwt>
</event>
<event>
 5    1  0.3286491E-002  0.1249992E+03  0.7818608E-02  0.1235071E+00
         -4   -1    0    0    0  501 -0.00000000000E+00  0.00000000000E+00  0.94137290482E+02  0.94145856836E+02  0.12700000000E+01 0. -1.
          4   -1    0    0  501    0  0.00000000000E+00 -0.00000000000E+00 -0.41474512663E+02  0.41493952579E+02  0.12700000000E+01 0. -1.
         25    2    1    2    0    0  0.00000000000E+00  0.00000000000E+00  0.52662777819E+02  0.13563980942E+03  0.12499915892E+03 0.  0.
    9000005    1    3    3    0    0  0.32602956657E+01  0.39601602995E+02  0.78668670527E+02  0.88140094225E+02  0.10000000000E+01 0.  0.
    9000005    1    3    3    0    0 -0.32602956657E+01 -0.39601602995E+02 -0.26005892708E+02  0.47499715190E+02  0.10000000000E+01 0.  0.
<mgrwt>
<rscale>  0 0.12499916E+03</rscale>
<asrwt>0</asrwt>
<pdfrwt beam="2">  1        4 0.63828487E-02 0.12499916E+03</pdfrwt>
<pdfrwt beam="1">  1       -4 0.14484814E-01 0.12499916E+03</pdfrwt>
<totfact> 0.10224797E+04</totfact>
</mgrwt>
</event>
<event>
 5    1  0.3286491E-002  0.1249714E+03  0.7818608E-02  0.1235114E+00
          4   -1    0    0  501    0  0.00000000000E+00  0.00000000000E+00  0.30405538451E+02  0.30432050021E+02  0.12700000000E+01 0. -1.
         -4   -1    0    0    0  501 -0.00000000000E+00 -0.00000000000E+00 -0.12832731196E+03  0.12833359612E+03  0.12700000000E+01 0. -1.
         25    2    1    2    0    0  0.00000000000E+00  0.00000000000E+00 -0.97921773506E+02  0.15876564614E+03  0.12497142341E+03 0.  0.
    9000005    1    3    3    0    0 -0.27937142639E+02 -0.52506206345E+02 -0.73267975380E+02  0.94374688661E+02  0.10000000000E+01 0.  0.
    9000005    1    3    3    0    0  0.27937142639E+02  0.52506206345E+02 -0.24653798126E+02  0.64390957483E+02  0.10000000000E+01 0.  0.
<mgrwt>
<rscale>  0 0.12497142E+03</rscale>
<asrwt>0</asrwt>
<pdfrwt beam="1">  1        4 0.46802980E-02 0.12497142E+03</pdfrwt>
<pdfrwt beam="2">  1       -4 0.19745186E-01 0.12497142E+03</pdfrwt>
<totfact> 0.97644002E+03</totfact>
</mgrwt>
</event>
<event>
 5    1  0.3286491E-002  0.1249942E+03  0.7818608E-02  0.1235078E+00
         -4   -1    0    0    0  501 -0.00000000000E+00  0.00000000000E+00  0.12504141805E+03  0.12504786735E+03  0.12700000000E+01 0.  1.
          4   -1    0    0  501    0  0.00000000000E+00 -0.00000000000E+00 -0.31216600092E+02  0.31242423423E+02  0.12700000000E+01 0.  1.
         25    2    1    2    0    0  0.00000000000E+00  0.00000000000E+00  0.93824817957E+02  0.15629029077E+03  0.12499423396E+03 0.  0.
    9000005    1    3    3    0    0  0.12166928807E+02 -0.59427957112E+02  0.28149483619E+02  0.66881310328E+02  0.10000000000E+01 0.  0.
    9000005    1    3    3    0    0 -0.12166928807E+02  0.59427957112E+02  0.65675334338E+02  0.89408980441E+02  0.10000000000E+01 0.  0.
<mgrwt>
<rscale>  0 0.12499423E+03</rscale>
<asrwt>0</asrwt>
<pdfrwt beam="2">  1        4 0.48050363E-02 0.12499423E+03</pdfrwt>
<pdfrwt beam="1">  1       -4 0.19239624E-01 0.12499423E+03</pdfrwt>
<totfact> 0.98075508E+03</totfact>
</mgrwt>
</event>
<event>
 5    1  0.3286491E-002  0.1249984E+03  0.7818608E-02  0.1235072E+00
          4   -1    0    0  501    0  0.00000000000E+00  0.00000000000E+00  0.12847384551E+03  0.12848012251E+03  0.12700000000E+01 0.  1.
         -4   -1    0    0    0  501 -0.00000000000E+00 -0.00000000000E+00 -0.30383943418E+02  0.30410473814E+02  0.12700000000E+01 0.  1.
         25    2    1    2    0    0  0.00000000000E+00  0.00000000000E+00  0.98089902094E+02  0.15889059633E+03  0.12499837082E+03 0.  0.
    9000005    1    3    3    0    0 -0.97481389971E+01 -0.48205372214E+02  0.38140459612E-01  0.49191316092E+02  0.10000000000E+01 0.  0.
    9000005    1    3    3    0    0  0.97481389971E+01  0.48205372214E+02  0.98051761634E+02  0.10969928023E+03  0.10000000000E+01 0.  0.
<mgrwt>
<rscale>  0 0.12499837E+03</rscale>
<asrwt>0</asrwt>
<pdfrwt beam="1">  1        4 0.19767731E-01 0.12499837E+03</pdfrwt>
<pdfrwt beam="2">  1       -4 0.46769765E-02 0.12499837E+03</pdfrwt>
<totfact> 0.97560669E+03</totfact>
</mgrwt>
</event>
<event>
 5    1  0.3286491E-002  0.1249990E+03  0.7818608E-02  0.1235071E+00
         -4   -1    0    0    0  501 -0.00000000000E+00  0.00000000000E+00  0.83611918536E+01  0.84570934258E+01  0.12700000000E+01 0.  1.
          4   -1    0    0  501    0  0.00000000000E+00 -0.00000000000E+00 -0.46442015799E+03  0.46442189445E+03  0.12700000000E+01 0.  1.
         25    2    1    2    0    0  0.00000000000E+00  0.00000000000E+00 -0.45605896613E+03  0.47287898788E+03  0.12499902633E+03 0.  0.
    9000005    1    3    3    0    0  0.56655150594E+02  0.16123549369E+02 -0.14908992562E+03  0.16030776916E+03  0.10000000000E+01 0.  0.
    9000005    1    3    3    0    0 -0.56655150594E+02 -0.16123549369E+02 -0.30696904052E+03  0.31257121871E+03  0.10000000000E+01 0.  0.
<mgrwt>
<rscale>  0 0.12499903E+03</rscale>
<asrwt>0</asrwt>
<pdfrwt beam="2">  1        4 0.71456745E-01 0.12499903E+03</pdfrwt>
<pdfrwt beam="1">  1       -4 0.12938482E-02 0.12499903E+03</pdfrwt>
<totfact> 0.58033040E+03</totfact>
</mgrwt>
</event>
<event>
 5    1  0.3286491E-002  0.1249978E+03  0.7818608E-02  0.1235073E+00
          4   -1    0    0  501    0  0.00000000000E+00  0.00000000000E+00  0.10109657087E+04  0.10109665064E+04  0.12700000000E+01 0. -1.
         -4   -1    0    0    0  501 -0.00000000000E+00 -0.00000000000E+00 -0.37585595436E+01  0.39673252757E+01  0.12700000000E+01 0. -1.
         25    2    1    2    0    0  0.00000000000E+00  0.00000000000E+00  0.10072071492E+04  0.10149338317E+04  0.12499776547E+03 0.  0.
    9000005    1    3    3    0    0 -0.37356987237E+02 -0.48237473597E+02  0.61335723229E+03  0.61638501990E+03  0.10000000000E+01 0.  0.
    9000005    1    3    3    0    0  0.37356987237E+02  0.48237473597E+02  0.39384991690E+03  0.39854881182E+03  0.10000000000E+01 0.  0.
<mgrwt>
<rscale>  0 0.12499777E+03</rscale>
<asrwt>0</asrwt>
<pdfrwt beam="1">  1        4 0.15554941E+00 0.12499777E+03</pdfrwt>
<pdfrwt beam="2">  1       -4 0.59435979E-03 0.12499777E+03</pdfrwt>
<totfact> 0.30116836E+03</totfact>
</mgrwt>
</event>
<event>
 5    1  0.3286491E-002  0.1250016E+03  0.7818608E-02  0.1235067E+00
          4   -1    0    0  501    0  0.00000000000E+00  0.00000000000E+00  0.30206594424E+03  0.30206861401E+03  0.12700000000E+01 0. -1.
         -4   -1    0    0    0  501 -0.00000000000E+00 -0.00000000000E+00 -0.12898196619E+02  0.12960570050E+02  0.12700000000E+01 0. -1.
         25    2    1    2    0    0  0.00000000000E+00  0.00000000000E+00  0.28916774762E+03  0.31502918406E+03  0.12500160217E+03 0.  0.
    9000005    1    3    3    0    0  0.58764923955E+02  0.69444879509E+01  0.19522724804E+03  0.20400054063E+03  0.10000000000E+01 0.  0.
    9000005    1    3    3    0    0 -0.58764923955E+02 -0.69444879509E+01  0.93940499584E+02  0.11102864343E+03  0.10000000000E+01 0.  0.
<mgrwt>
<rscale>  0 0.12500160E+03</rscale>
<asrwt>0</asrwt>
<pdfrwt beam="1">  1        4 0.46476686E-01 0.12500160E+03</pdfrwt>
<pdfrwt beam="2">  1       -4 0.19893413E-02 0.12500160E+03</pdfrwt>
<totfact> 0.73748643E+03</totfact>
</mgrwt>
</event>
<event>
 5    1  0.3286491E-002  0.1250010E+03  0.7818608E-02  0.1235068E+00
         -4   -1    0    0    0  501 -0.00000000000E+00  0.00000000000E+00  0.17404574244E+03  0.17405037593E+03  0.12700000000E+01 0.  1.
          4   -1    0    0  501    0  0.00000000000E+00 -0.00000000000E+00 -0.22421277248E+02  0.22457216511E+02  0.12700000000E+01 0.  1.
         25    2    1    2    0    0  0.00000000000E+00  0.00000000000E+00  0.15162446520E+03  0.19650759244E+03  0.12500102177E+03 0.  0.
    9000005    1    3    3    0    0  0.50656236957E+01  0.58130516611E+02  0.11098173564E+03  0.12539044282E+03  0.10000000000E+01 0.  0.
    9000005    1    3    3    0    0 -0.50656236957E+01 -0.58130516611E+02  0.40642729553E+02  0.71117149622E+02  0.10000000000E+01 0.  0.
<mgrwt>
<rscale>  0 0.12500102E+03</rscale>
<asrwt>0</asrwt>
<pdfrwt beam="2">  1        4 0.34525482E-02 0.12500102E+03</pdfrwt>
<pdfrwt beam="1">  1       -4 0.26779389E-01 0.12500102E+03</pdfrwt>
<totfact> 0.90725106E+03</totfact>
</mgrwt>
</event>
<event>
 5    1  0.3286491E-002  0.1250097E+03  0.7818608E-02  0.1235054E+00
          4   -1    0    0  501    0  0.00000000000E+00  0.00000000000E+00  0.19318340573E+03  0.19318758022E+03  0.12700000000E+01 0.  1.
         -4   -1    0    0    0  501 -0.00000000000E+00 -0.00000000000E+00 -0.20199215473E+02  0.20239100912E+02  0.12700000000E+01 0.  1.
         25    2    1    2    0    0  0.00000000000E+00  0.00000000000E+00  0.17298419026E+03  0.21342668113E+03  0.12500967218E+03 0.  0.
    9000005    1    3    3    0    0  0.49616688271E+02 -0.37918848419E+02  0.90743093421E+02  0.11015881183E+03  0.10000000000E+01 0.  0.
    9000005    1    3    3    0    0 -0.49616688271E+02  0.37918848419E+02  0.82241096837E+02  0.10326786930E+03  0.10000000000E+01 0.  0.
<mgrwt>
<rscale>  0 0.12500967E+03</rscale>
<asrwt>0</asrwt>
<pdfrwt beam="1">  1        4 0.29723913E-01 0.12500967E+03</pdfrwt>
<pdfrwt beam="2">  1       -4 0.31109609E-02 0.12500967E+03</pdfrwt>
<totfact> 0.87900296E+03</totfact>
</mgrwt>
</event>
<event>
 5    1  0.3286491E-002  0.1249899E+03  0.7818608E-02  0.1235085E+00
         -4   -1    0    0    0  501 -0.00000000000E+00  0.00000000000E+00  0.30448901843E+02  0.30475375690E+02  0.12700000000E+01 0.  1.
          4   -1    0    0  501    0  0.00000000000E+00 -0.00000000000E+00 -0.12818263846E+03  0.12818892972E+03  0.12700000000E+01 0.  1.
         25    2    1    2    0    0  0.00000000000E+00  0.00000000000E+00 -0.97733736616E+02  0.15866430541E+03  0.12498991374E+03 0.  0.
    9000005    1    3    3    0    0 -0.39493724026E+02 -0.88823904649E+01  0.11560155433E+02  0.42110429723E+02  0.10000000000E+01 0.  0.
    9000005    1    3    3    0    0  0.39493724026E+02  0.88823904649E+01 -0.10929389205E+03  0.11655387568E+03  0.10000000000E+01 0.  0.
<mgrwt>
<rscale>  0 0.12498991E+03</rscale>
<asrwt>0</asrwt>
<pdfrwt beam="2">  1        4 0.19722926E-01 0.12498991E+03</pdfrwt>
<pdfrwt beam="1">  1       -4 0.46869669E-02 0.12498991E+03</pdfrwt>
<totfact> 0.97623050E+03</totfact>
</mgrwt>
</event>
<event>
 5    1  0.3286491E-002  0.1250016E+03  0.7818608E-02  0.1235067E+00
         -4   -1    0    0    0  501 -0.00000000000E+00  0.00000000000E+00  0.97277174474E+02  0.97285464349E+02  0.12700000000E+01 0. -1.
          4   -1    0    0  501    0  0.00000000000E+00 -0.00000000000E+00 -0.40136875311E+02  0.40156962780E+02  0.12700000000E+01 0. -1.
         25    2    1    2    0    0  0.00000000000E+00  0.00000000000E+00  0.57140299163E+02  0.13744242713E+03  0.12500162794E+03 0.  0.
    9000005    1    3    3    0    0  0.50295471587E+02 -0.23736440948E+01  0.69268668161E+02  0.85641211092E+02  0.10000000000E+01 0.  0.
    9000005    1    3    3    0    0 -0.50295471587E+02  0.23736440948E+01 -0.12128368998E+02  0.51801216038E+02  0.10000000000E+01 0.  0.
<mgrwt>
<rscale>  0 0.12500163E+03</rscale>
<asrwt>0</asrwt>
<pdfrwt beam="2">  1        4 0.61770867E-02 0.12500163E+03</pdfrwt>
<pdfrwt beam="1">  1       -4 0.14967902E-01 0.12500163E+03</pdfrwt>
<totfact> 0.10186469E+04</totfact>
</mgrwt>
</event>
<event>
 5    1  0.3286491E-002  0.1249859E+03  0.7818608E-02  0.1235091E+00
         -4   -1    0    0    0  501 -0.00000000000E+00  0.00000000000E+00  0.41181889635E+01  0.43095684632E+01  0.12700000000E+01 0.  1.
          4   -1    0    0  501    0  0.00000000000E+00 -0.00000000000E+00 -0.92659468608E+03  0.92659555642E+03  0.12700000000E+01 0.  1.
         25    2    1    2    0    0  0.00000000000E+00  0.00000000000E+00 -0.92247649712E+03  0.93090512488E+03  0.12498585438E+03 0.  0.
    9000005    1    3    3    0    0 -0.30955168135E+02  0.44290685418E+02 -0.69493233347E+03  0.69703072770E+03  0.10000000000E+01 0.  0.
    9000005    1    3    3    0    0  0.30955168135E+02 -0.44290685418E+02 -0.22754416365E+03  0.23387439718E+03  0.10000000000E+01 0.  0.
<mgrwt>
<rscale>  0 0.12498585E+03</rscale>
<asrwt>0</asrwt>
<pdfrwt beam="2">  1        4 0.14256765E+00 0.12498585E+03</pdfrwt>
<pdfrwt beam="1">  1       -4 0.64835672E-03 0.12498585E+03</pdfrwt>
<totfact> 0.33013990E+03</totfact>
</mgrwt>
</event>
<event>
 5    1  0.3286491E-002  0.1249940E+03  0.7818608E-02  0.1235079E+00
         -4   -1    0    0    0  501 -0.00000000000E+00  0.00000000000E+00  0.10691051956E+02  0.10766219946E+02  0.12700000000E+01 0.  1.
          4   -1    0    0  501    0  0.00000000000E+00 -0.00000000000E+00 -0.36398440778E+03  0.36398662339E+03  0.12700000000E+01 0.  1.
         25    2    1    2    0    0  0.00000000000E+00  0.00000000000E+00 -0.35329335582E+03  0.37475284333E+03  0.12499399313E+03 0.  0.
    9000005    1    3    3    0    0 -0.41319677785E+02 -0.39313337227E+02 -0.10008942160E+03  0.11520306668E+03  0.10000000000E+01 0.  0.
    9000005    1    3    3    0    0  0.41319677785E+02  0.39313337227E+02 -0.25320393422E+03  0.25954977665E+03  0.10000000000E+01 0.  0.
<mgrwt>
<rscale>  0 0.12499399E+03</rscale>
<asrwt>0</asrwt>
<pdfrwt beam="2">  1        4 0.56003544E-01 0.12499399E+03</pdfrwt>
<pdfrwt beam="1">  1       -4 0.16507301E-02 0.12499399E+03</pdfrwt>
<totfact> 0.67093527E+03</totfact>
</mgrwt>
</event>
<event>
 5    1  0.3286491E-002  0.1250023E+03  0.7818608E-02  0.1235066E+00
          4   -1    0    0  501    0  0.00000000000E+00  0.00000000000E+00  0.73288850177E+02  0.73299853071E+02  0.12700000000E+01 0. -1.
         -4   -1    0    0    0  501 -0.00000000000E+00 -0.00000000000E+00 -0.53278726879E+02  0.53293861164E+02  0.12700000000E+01 0. -1.
         25    2    1    2    0    0  0.00000000000E+00  0.00000000000E+00  0.20010123298E+02  0.12659371424E+03  0.12500225378E+03 0.  0.
    9000005    1    3    3    0    0 -0.50921611850E+02 -0.22240487038E+02 -0.18955181065E+02  0.58719236254E+02  0.10000000000E+01 0.  0.
    9000005    1    3    3    0    0  0.50921611850E+02  0.22240487038E+02  0.38965304363E+02  0.67874477981E+02  0.10000000000E+01 0.  0.
<mgrwt>
<rscale>  0 0.12500225E+03</rscale>
<asrwt>0</asrwt>
<pdfrwt beam="1">  1        4 0.11277218E-01 0.12500225E+03</pdfrwt>
<pdfrwt beam="2">  1       -4 0.81987378E-02 0.12500225E+03</pdfrwt>
<totfact> 0.10417455E+04</totfact>
</mgrwt>
</event>
<event>
 5    1  0.3286491E-002  0.1249991E+03  0.7818608E-02  0.1235071E+00
          4   -1    0    0  501    0  0.00000000000E+00  0.00000000000E+00  0.74112392485E+02  0.74123273132E+02  0.12700000000E+01 0.  1.
         -4   -1    0    0    0  501 -0.00000000000E+00 -0.00000000000E+00 -0.52683943269E+02  0.52699248366E+02  0.12700000000E+01 0.  1.
         25    2    1    2    0    0  0.00000000000E+00  0.00000000000E+00  0.21428449216E+02  0.12682252150E+03  0.12499909409E+03 0.  0.
    9000005    1    3    3    0    0  0.30921245407E+02 -0.27149447002E+02 -0.37003515744E+02  0.55348677197E+02  0.10000000000E+01 0.  0.
    9000005    1    3    3    0    0 -0.30921245407E+02  0.27149447002E+02  0.58431964960E+02  0.71473844301E+02  0.10000000000E+01 0.  0.
<mgrwt>
<rscale>  0 0.12499909E+03</rscale>
<asrwt>0</asrwt>
<pdfrwt beam="1">  1        4 0.11403921E-01 0.12499909E+03</pdfrwt>
<pdfrwt beam="2">  1       -4 0.81072363E-02 0.12499909E+03</pdfrwt>
<totfact> 0.10413217E+04</totfact>
</mgrwt>
</event>
<event>
 5    1  0.3286491E-002  0.1249988E+03  0.7818608E-02  0.1235071E+00
         -4   -1    0    0    0  501 -0.00000000000E+00  0.00000000000E+00  0.64948156626E+02  0.64960572266E+02  0.12700000000E+01 0.  1.
          4   -1    0    0  501    0  0.00000000000E+00 -0.00000000000E+00 -0.60118109635E+02  0.60131522565E+02  0.12700000000E+01 0.  1.
         25    2    1    2    0    0  0.00000000000E+00  0.00000000000E+00  0.48300469916E+01  0.12509209483E+03  0.12499881134E+03 0.  0.
    9000005    1    3    3    0    0  0.95824585860E+00 -0.26666266528E+02  0.58965314781E+02  0.64729563206E+02  0.10000000000E+01 0.  0.
    9000005    1    3    3    0    0 -0.95824585860E+00  0.26666266528E+02 -0.54135267789E+02  0.60362531626E+02  0.10000000000E+01 0.  0.
<mgrwt>
<rscale>  0 0.12499881E+03</rscale>
<asrwt>0</asrwt>
<pdfrwt beam="2">  1        4 0.92509267E-02 0.12499881E+03</pdfrwt>
<pdfrwt beam="1">  1       -4 0.99940109E-02 0.12499881E+03</pdfrwt>
<totfact> 0.10451143E+04</totfact>
</mgrwt>
</event>
<event>
 5    1  0.3286491E-002  0.1249962E+03  0.7818608E-02  0.1235075E+00
          4   -1    0    0  501    0  0.00000000000E+00  0.00000000000E+00  0.18128731695E+02  0.18173161884E+02  0.12700000000E+01 0.  1.
         -4   -1    0    0    0  501 -0.00000000000E+00 -0.00000000000E+00 -0.21514972750E+03  0.21515347579E+03  0.12700000000E+01 0.  1.
         25    2    1    2    0    0  0.00000000000E+00  0.00000000000E+00 -0.19702099581E+03  0.23332663767E+03  0.12499618818E+03 0.  0.
    9000005    1    3    3    0    0  0.15640363750E+02 -0.44576011567E+01 -0.21113925686E+03  0.21176703467E+03  0.10000000000E+01 0.  0.
    9000005    1    3    3    0    0 -0.15640363750E+02  0.44576011567E+01  0.14118261055E+02  0.21559603000E+02  0.10000000000E+01 0.  0.
<mgrwt>
<rscale>  0 0.12499619E+03</rscale>
<asrwt>0</asrwt>
<pdfrwt beam="1">  1        4 0.27927418E-02 0.12499619E+03</pdfrwt>
<pdfrwt beam="2">  1       -4 0.33103662E-01 0.12499619E+03</pdfrwt>
<totfact> 0.84808604E+03</totfact>
</mgrwt>
</event>
<event>
 5    1  0.3286491E-002  0.1249916E+03  0.7818608E-02  0.1235082E+00
         -4   -1    0    0    0  501 -0.00000000000E+00  0.00000000000E+00  0.41030702563E+01  0.42951234590E+01  0.12700000000E+01 0. -1.
          4   -1    0    0  501    0  0.00000000000E+00 -0.00000000000E+00 -0.92994258034E+03  0.92994344754E+03  0.12700000000E+01 0. -1.
         25    2    1    2    0    0  0.00000000000E+00  0.00000000000E+00 -0.92583951008E+03  0.93423857100E+03  0.12499163619E+03 0.  0.
    9000005    1    3    3    0    0 -0.52800219110E+02 -0.11580527593E+02 -0.69723448277E+03  0.69932745958E+03  0.10000000000E+01 0.  0.
    9000005    1    3    3    0    0  0.52800219110E+02  0.11580527593E+02 -0.22860502731E+03  0.23491111143E+03  0.10000000000E+01 0.  0.
<mgrwt>
<rscale>  0 0.12499164E+03</rscale>
<asrwt>0</asrwt>
<pdfrwt beam="2">  1        4 0.14308277E+00 0.12499164E+03</pdfrwt>
<pdfrwt beam="1">  1       -4 0.64608235E-03 0.12499164E+03</pdfrwt>
<totfact> 0.32888298E+03</totfact>
</mgrwt>
</event>
<event>
 5    1  0.3286491E-002  0.1250000E+03  0.7818608E-02  0.1235069E+00
         -4   -1    0    0    0  501 -0.00000000000E+00  0.00000000000E+00  0.60133902580E+02  0.60147311989E+02  0.12700000000E+01 0. -1.
          4   -1    0    0  501    0  0.00000000000E+00 -0.00000000000E+00 -0.64932336612E+02  0.64944755276E+02  0.12700000000E+01 0. -1.
         25    2    1    2    0    0  0.00000000000E+00  0.00000000000E+00 -0.47984340313E+01  0.12509206727E+03  0.12500000129E+03 0.  0.
    9000005    1    3    3    0    0  0.10819128663E+02  0.56142084048E+02  0.22843614251E+02  0.61577738334E+02  0.10000000000E+01 0.  0.
    9000005    1    3    3    0    0 -0.10819128663E+02 -0.56142084048E+02 -0.27642048282E+02  0.63514328931E+02  0.10000000000E+01 0.  0.
<mgrwt>
<rscale>  0 0.12500000E+03</rscale>
<asrwt>0</asrwt>
<pdfrwt beam="2">  1        4 0.99915770E-02 0.12500000E+03</pdfrwt>
<pdfrwt beam="1">  1       -4 0.92533564E-02 0.12500000E+03</pdfrwt>
<totfact> 0.10450863E+04</totfact>
</mgrwt>
</event>
<event>
 5    1  0.3286491E-002  0.1250030E+03  0.7818608E-02  0.1235065E+00
          4   -1    0    0  501    0  0.00000000000E+00  0.00000000000E+00  0.37806510297E+02  0.37827835265E+02  0.12700000000E+01 0.  1.
         -4   -1    0    0    0  501 -0.00000000000E+00 -0.00000000000E+00 -0.10327281717E+03  0.10328062580E+03  0.12700000000E+01 0.  1.
         25    2    1    2    0    0  0.00000000000E+00  0.00000000000E+00 -0.65466306870E+02  0.14110846106E+03  0.12500304176E+03 0.  0.
    9000005    1    3    3    0    0  0.25482296844E+02  0.41987318300E+02 -0.76353119412E+02  0.90791415863E+02  0.10000000000E+01 0.  0.
    9000005    1    3    3    0    0 -0.25482296844E+02 -0.41987318300E+02  0.10886812542E+02  0.50317045201E+02  0.10000000000E+01 0.  0.
<mgrwt>
<rscale>  0 0.12500304E+03</rscale>
<asrwt>0</asrwt>
<pdfrwt beam="1">  1        4 0.58186273E-02 0.12500304E+03</pdfrwt>
<pdfrwt beam="2">  1       -4 0.15890367E-01 0.12500304E+03</pdfrwt>
<totfact> 0.10109971E+04</totfact>
</mgrwt>
</event>
<event>
 5    1  0.3286491E-002  0.1250109E+03  0.7818608E-02  0.1235052E+00
         -4   -1    0    0    0  501 -0.00000000000E+00  0.00000000000E+00  0.15360149118E+02  0.15412562438E+02  0.12700000000E+01 0. -1.
          4   -1    0    0  501    0  0.00000000000E+00 -0.00000000000E+00 -0.25386788781E+03  0.25387106445E+03  0.12700000000E+01 0. -1.
         25    2    1    2    0    0  0.00000000000E+00  0.00000000000E+00 -0.23850773870E+03  0.26928362688E+03  0.12501092068E+03 0.  0.
    9000005    1    3    3    0    0  0.80124655952E+01  0.46410112310E+02 -0.20775053685E+03  0.21302437347E+03  0.10000000000E+01 0.  0.
    9000005    1    3    3    0    0 -0.80124655952E+01 -0.46410112310E+02 -0.30757201844E+02  0.56259253416E+02  0.10000000000E+01 0.  0.
<mgrwt>
<rscale>  0 0.12501092E+03</rscale>
<asrwt>0</asrwt>
<pdfrwt beam="2">  1        4 0.39060871E-01 0.12501092E+03</pdfrwt>
<pdfrwt beam="1">  1       -4 0.23673762E-02 0.12501092E+03</pdfrwt>
<totfact> 0.79601296E+03</totfact>
</mgrwt>
</event>
<event>
 5    1  0.3286491E-002  0.1250156E+03  0.7818608E-02  0.1235045E+00
         -4   -1    0    0    0  501 -0.00000000000E+00  0.00000000000E+00  0.91191663971E+03  0.91191752405E+03  0.12700000000E+01 0.  1.
          4   -1    0    0  501    0  0.00000000000E+00 -0.00000000000E+00 -0.41896120475E+01  0.43778703851E+01  0.12700000000E+01 0.  1.
         25    2    1    2    0    0  0.00000000000E+00  0.00000000000E+00  0.90772702766E+03  0.91629539444E+03  0.12501557153E+03 0.  0.
    9000005    1    3    3    0    0  0.58407981055E+02 -0.12289268765E+02  0.31798078591E+03  0.32353562182E+03  0.10000000000E+01 0.  0.
    9000005    1    3    3    0    0 -0.58407981055E+02  0.12289268765E+02  0.58974624175E+03  0.59275977262E+03  0.10000000000E+01 0.  0.
<mgrwt>
<rscale>  0 0.12501557E+03</rscale>
<asrwt>0</asrwt>
<pdfrwt beam="2">  1        4 0.65910389E-03 0.12501557E+03</pdfrwt>
<pdfrwt beam="1">  1       -4 0.14030968E+00 0.12501557E+03</pdfrwt>
<totfact> 0.33532130E+03</totfact>
</mgrwt>
</event>
<event>
 5    1  0.3286491E-002  0.1249908E+03  0.7818608E-02  0.1235084E+00
         -4   -1    0    0    0  501 -0.00000000000E+00  0.00000000000E+00  0.25488430241E+03  0.25488746638E+03  0.12700000000E+01 0. -1.
          4   -1    0    0  501    0  0.00000000000E+00 -0.00000000000E+00 -0.15293754401E+02  0.15346394485E+02  0.12700000000E+01 0. -1.
         25    2    1    2    0    0  0.00000000000E+00  0.00000000000E+00  0.23959054801E+03  0.27023386086E+03  0.12499083511E+03 0.  0.
    9000005    1    3    3    0    0  0.29425844141E+02 -0.53128931557E+02  0.88011710460E+02  0.10693748103E+03  0.10000000000E+01 0.  0.
    9000005    1    3    3    0    0 -0.29425844141E+02  0.53128931557E+02  0.15157883755E+03  0.16329637983E+03  0.10000000000E+01 0.  0.
<mgrwt>
<rscale>  0 0.12499084E+03</rscale>
<asrwt>0</asrwt>
<pdfrwt beam="2">  1        4 0.23571779E-02 0.12499084E+03</pdfrwt>
<pdfrwt beam="1">  1       -4 0.39217262E-01 0.12499084E+03</pdfrwt>
<totfact> 0.79507200E+03</totfact>
</mgrwt>
</event>
<event>
 5    1  0.3286491E-002  0.1249999E+03  0.7818608E-02  0.1235069E+00
         -4   -1    0    0    0  501 -0.00000000000E+00  0.00000000000E+00  0.45630068074E+02  0.45647738306E+02  0.12700000000E+01 0. -1.
          4   -1    0    0  501    0  0.00000000000E+00 -0.00000000000E+00 -0.85567853087E+02  0.85577277252E+02  0.12700000000E+01 0. -1.
         25    2    1    2    0    0  0.00000000000E+00  0.00000000000E+00 -0.39937785013E+02  0.13122501556E+03  0.12499991215E+03 0.  0.
    9000005    1    3    3    0    0  0.15441397126E+02  0.47133407439E+02 -0.59878583404E+02  0.77758855396E+02  0.10000000000E+01 0.  0.
    9000005    1    3    3    0    0 -0.15441397126E+02 -0.47133407439E+02  0.19940798391E+02  0.53466160162E+02  0.10000000000E+01 0.  0.
<mgrwt>
<rscale>  0 0.12499991E+03</rscale>
<asrwt>0</asrwt>
<pdfrwt beam="2">  1        4 0.13166369E-01 0.12499991E+03</pdfrwt>
<pdfrwt beam="1">  1       -4 0.70220947E-02 0.12499991E+03</pdfrwt>
<totfact> 0.10318288E+04</totfact>
</mgrwt>
</event>
<event>
 5    1  0.3286491E-002  0.1249962E+03  0.7818608E-02  0.1235075E+00
         -4   -1    0    0    0  501 -0.00000000000E+00  0.00000000000E+00  0.27175423336E+03  0.27175720091E+03  0.12700000000E+01 0.  1.
          4   -1    0    0  501    0  0.00000000000E+00 -0.00000000000E+00 -0.14342213924E+02  0.14398333245E+02  0.12700000000E+01 0.  1.
         25    2    1    2    0    0  0.00000000000E+00  0.00000000000E+00  0.25741201944E+03  0.28615553416E+03  0.12499616786E+03 0.  0.
    9000005    1    3    3    0    0  0.59931217656E+02 -0.41219210778E+01  0.16811078531E+03  0.17852444433E+03  0.10000000000E+01 0.  0.
    9000005    1    3    3    0    0 -0.59931217656E+02  0.41219210778E+01  0.89301234122E+02  0.10763108983E+03  0.10000000000E+01 0.  0.
<mgrwt>
<rscale>  0 0.12499617E+03</rscale>
<asrwt>0</asrwt>
<pdfrwt beam="2">  1        4 0.22110395E-02 0.12499617E+03</pdfrwt>
<pdfrwt beam="1">  1       -4 0.41812891E-01 0.12499617E+03</pdfrwt>
<totfact> 0.77375527E+03</totfact>
</mgrwt>
</event>
<event>
 5    1  0.3286491E-002  0.1250043E+03  0.7818608E-02  0.1235063E+00
          4   -1    0    0  501    0  0.00000000000E+00  0.00000000000E+00  0.14639872381E+03  0.14640423229E+03  0.12700000000E+01 0. -1.
         -4   -1    0    0    0  501 -0.00000000000E+00 -0.00000000000E+00 -0.26662967582E+02  0.26693196517E+02  0.12700000000E+01 0. -1.
         25    2    1    2    0    0  0.00000000000E+00  0.00000000000E+00  0.11973575623E+03  0.17309742881E+03  0.12500427409E+03 0.  0.
    9000005    1    3    3    0    0 -0.19901461326E+02 -0.45362305479E+02  0.71077646721E+01  0.50053244049E+02  0.10000000000E+01 0.  0.
    9000005    1    3    3    0    0  0.19901461326E+02  0.45362305479E+02  0.11262799156E+03  0.12304418476E+03  0.10000000000E+01 0.  0.
<mgrwt>
<rscale>  0 0.12500427E+03</rscale>
<asrwt>0</asrwt>
<pdfrwt beam="1">  1        4 0.22525630E-01 0.12500427E+03</pdfrwt>
<pdfrwt beam="2">  1       -4 0.41047440E-02 0.12500427E+03</pdfrwt>
<totfact> 0.94865353E+03</totfact>
</mgrwt>
</event>
<event>
 5    1  0.3286491E-002  0.1250000E+03  0.7818608E-02  0.1235069E+00
         -4   -1    0    0    0  501 -0.00000000000E+00  0.00000000000E+00  0.52291960984E+02  0.52307380775E+02  0.12700000000E+01 0. -1.
          4   -1    0    0  501    0  0.00000000000E+00 -0.00000000000E+00 -0.74668999216E+02  0.74679798767E+02  0.12700000000E+01 0. -1.
         25    2    1    2    0    0  0.00000000000E+00  0.00000000000E+00 -0.22377038232E+02  0.12698717954E+03  0.12500004771E+03 0.  0.
    9000005    1    3    3    0    0  0.24726515539E+02 -0.55427044260E+02  0.39376105871E+01  0.60828139732E+02  0.10000000000E+01 0.  0.
    9000005    1    3    3    0    0 -0.24726515539E+02  0.55427044260E+02 -0.26314648819E+02  0.66159039810E+02  0.10000000000E+01 0.  0.
<mgrwt>
<rscale>  0 0.12500005E+03</rscale>
<asrwt>0</asrwt>
<pdfrwt beam="2">  1        4 0.11489555E-01 0.12500005E+03</pdfrwt>
<pdfrwt beam="1">  1       -4 0.80469340E-02 0.12500005E+03</pdfrwt>
<totfact> 0.10409413E+04</totfact>
</mgrwt>
</event>
<event>
 5    1  0.3286491E-002  0.1249924E+03  0.7818608E-02  0.1235081E+00
         -4   -1    0    0    0  501 -0.00000000000E+00  0.00000000000E+00  0.78135501161E+01  0.79160890228E+01  0.12700000000E+01 0. -1.
          4   -1    0    0  501    0  0.00000000000E+00 -0.00000000000E+00 -0.49650974308E+03  0.49651136732E+03  0.12700000000E+01 0. -1.
         25    2    1    2    0    0  0.00000000000E+00  0.00000000000E+00 -0.48869619297E+03  0.50442745634E+03  0.12499235853E+03 0.  0.
    9000005    1    3    3    0    0  0.52573597044E+02 -0.17061688785E+02 -0.36198538901E+03  0.36618234009E+03  0.10000000000E+01 0.  0.
    9000005    1    3    3    0    0 -0.52573597044E+02  0.17061688785E+02 -0.12671080395E+03  0.13824511626E+03  0.10000000000E+01 0.  0.
<mgrwt>
<rscale>  0 0.12499236E+03</rscale>
<asrwt>0</asrwt>
<pdfrwt beam="2">  1        4 0.76394102E-01 0.12499236E+03</pdfrwt>
<pdfrwt beam="1">  1       -4 0.12100976E-02 0.12499236E+03</pdfrwt>
<totfact> 0.55531819E+03</totfact>
</mgrwt>
</event>
<event>
 5    1  0.3286491E-002  0.1250067E+03  0.7818608E-02  0.1235059E+00
          4   -1    0    0  501    0  0.00000000000E+00  0.00000000000E+00  0.14178017435E+03  0.14178586226E+03  0.12700000000E+01 0.  1.
         -4   -1    0    0    0  501 -0.00000000000E+00 -0.00000000000E+00 -0.27533523310E+02  0.27562797497E+02  0.12700000000E+01 0.  1.
         25    2    1    2    0    0  0.00000000000E+00  0.00000000000E+00  0.11424665104E+03  0.16934865976E+03  0.12500668498E+03 0.  0.
    9000005    1    3    3    0    0  0.22100194297E+02  0.56534495620E+02  0.36979454337E+02  0.71084793212E+02  0.10000000000E+01 0.  0.
    9000005    1    3    3    0    0 -0.22100194297E+02 -0.56534495620E+02  0.77267196700E+02  0.98263866548E+02  0.10000000000E+01 0.  0.
<mgrwt>
<rscale>  0 0.12500668E+03</rscale>
<asrwt>0</asrwt>
<pdfrwt beam="1">  1        4 0.21815024E-01 0.12500668E+03</pdfrwt>
<pdfrwt beam="2">  1       -4 0.42386161E-02 0.12500668E+03</pdfrwt>
<totfact> 0.95555760E+03</totfact>
</mgrwt>
</event>
<event>
 5    1  0.3286491E-002  0.1250182E+03  0.7818608E-02  0.1235041E+00
          4   -1    0    0  501    0  0.00000000000E+00  0.00000000000E+00  0.39506634456E+03  0.39506838586E+03  0.12700000000E+01 0. -1.
         -4   -1    0    0    0  501 -0.00000000000E+00 -0.00000000000E+00 -0.98476206103E+01  0.99291757807E+01  0.12700000000E+01 0. -1.
         25    2    1    2    0    0  0.00000000000E+00  0.00000000000E+00  0.38521872395E+03  0.40499756164E+03  0.12501823728E+03 0.  0.
    9000005    1    3    3    0    0  0.41793885651E+02 -0.32707218913E+02  0.85661492423E+02  0.10077391692E+03  0.10000000000E+01 0.  0.
    9000005    1    3    3    0    0 -0.41793885651E+02  0.32707218913E+02  0.29955723153E+03  0.30422364472E+03  0.10000000000E+01 0.  0.
<mgrwt>
<rscale>  0 0.12501824E+03</rscale>
<asrwt>0</asrwt>
<pdfrwt beam="1">  1        4 0.60785859E-01 0.12501824E+03</pdfrwt>
<pdfrwt beam="2">  1       -4 0.15214493E-02 0.12501824E+03</pdfrwt>
<totfact> 0.64043838E+03</totfact>
</mgrwt>
</event>
<event>
 5    1  0.3286491E-002  0.1249992E+03  0.7818608E-02  0.1235071E+00
          4   -1    0    0  501    0  0.00000000000E+00  0.00000000000E+00  0.35599032974E+02  0.35621679476E+02  0.12700000000E+01 0. -1.
         -4   -1    0    0    0  501 -0.00000000000E+00 -0.00000000000E+00 -0.10966643554E+03  0.10967378896E+03  0.12700000000E+01 0. -1.
         25    2    1    2    0    0  0.00000000000E+00  0.00000000000E+00 -0.74067402569E+02  0.14529546844E+03  0.12499917210E+03 0.  0.
    9000005    1    3    3    0    0 -0.20568897440E+02 -0.30892286252E+02 -0.95474350305E+02  0.10243907681E+03  0.10000000000E+01 0.  0.
    9000005    1    3    3    0    0  0.20568897440E+02  0.30892286252E+02  0.21406947736E+02  0.42856391625E+02  0.10000000000E+01 0.  0.
<mgrwt>
<rscale>  0 0.12499917E+03</rscale>
<asrwt>0</asrwt>
<pdfrwt beam="1">  1        4 0.54790820E-02 0.12499917E+03</pdfrwt>
<pdfrwt beam="2">  1       -4 0.16874067E-01 0.12499917E+03</pdfrwt>
<totfact> 0.10025176E+04</totfact>
</mgrwt>
</event>
<event>
 5    1  0.3286491E-002  0.1249932E+03  0.7818608E-02  0.1235080E+00
          4   -1    0    0  501    0  0.00000000000E+00  0.00000000000E+00  0.11113079423E+03  0.11113805075E+03  0.12700000000E+01 0. -1.
         -4   -1    0    0    0  501 -0.00000000000E+00 -0.00000000000E+00 -0.35126301307E+02  0.35149252389E+02  0.12700000000E+01 0. -1.
         25    2    1    2    0    0  0.00000000000E+00  0.00000000000E+00  0.76004492919E+02  0.14628730314E+03  0.12499316828E+03 0.  0.
    9000005    1    3    3    0    0  0.73877145319E+01  0.61747389388E+02  0.45169663359E+02  0.76867528322E+02  0.10000000000E+01 0.  0.
    9000005    1    3    3    0    0 -0.73877145319E+01 -0.61747389388E+02  0.30834829559E+02  0.69419774821E+02  0.10000000000E+01 0.  0.
<mgrwt>
<rscale>  0 0.12499317E+03</rscale>
<asrwt>0</asrwt>
<pdfrwt beam="1">  1        4 0.17099369E-01 0.12499317E+03</pdfrwt>
<pdfrwt beam="2">  1       -4 0.54063699E-02 0.12499317E+03</pdfrwt>
<totfact> 0.10006438E+04</totfact>
</mgrwt>
</event>
<event>
 5    1  0.3286491E-002  0.1249999E+03  0.7818608E-02  0.1235069E+00
         -4   -1    0    0    0  501 -0.00000000000E+00  0.00000000000E+00  0.15944228982E+04  0.15944234040E+04  0.12700000000E+01 0. -1.
          4   -1    0    0  501    0  0.00000000000E+00 -0.00000000000E+00 -0.22848175362E+01  0.26140564596E+01  0.12700000000E+01 0. -1.
         25    2    1    2    0    0  0.00000000000E+00  0.00000000000E+00  0.15921380806E+04  0.15970374604E+04  0.12499992877E+03 0.  0.
    9000005    1    3    3    0    0  0.16320235557E+02  0.57470778319E+02  0.56187368829E+03  0.56504184097E+03  0.10000000000E+01 0.  0.
    9000005    1    3    3    0    0 -0.16320235557E+02 -0.57470778319E+02  0.10302643923E+04  0.10319956195E+04  0.10000000000E+01 0.  0.
<mgrwt>
<rscale>  0 0.12499993E+03</rscale>
<asrwt>0</asrwt>
<pdfrwt beam="2">  1        4 0.37687494E-03 0.12499993E+03</pdfrwt>
<pdfrwt beam="1">  1       -4 0.24532147E+00 0.12499993E+03</pdfrwt>
<totfact> 0.16099686E+03</totfact>
</mgrwt>
</event>
<event>
 5    1  0.3286491E-002  0.1249942E+03  0.7818608E-02  0.1235078E+00
          4   -1    0    0  501    0  0.00000000000E+00  0.00000000000E+00  0.95415715988E+02  0.95424167576E+02  0.12700000000E+01 0. -1.
         -4   -1    0    0    0  501 -0.00000000000E+00 -0.00000000000E+00 -0.40915352534E+02  0.40935057994E+02  0.12700000000E+01 0. -1.
         25    2    1    2    0    0  0.00000000000E+00  0.00000000000E+00  0.54500363454E+02  0.13635922557E+03  0.12499419499E+03 0.  0.
    9000005    1    3    3    0    0 -0.46378916852E+02  0.10288650247E+02 -0.17036876784E+02  0.50478861149E+02  0.10000000000E+01 0.  0.
    9000005    1    3    3    0    0  0.46378916852E+02 -0.10288650247E+02  0.71537240238E+02  0.85880364421E+02  0.10000000000E+01 0.  0.
<mgrwt>
<rscale>  0 0.12499419E+03</rscale>
<asrwt>0</asrwt>
<pdfrwt beam="1">  1        4 0.14681507E-01 0.12499419E+03</pdfrwt>
<pdfrwt beam="2">  1       -4 0.62968356E-02 0.12499419E+03</pdfrwt>
<totfact> 0.10210837E+04</totfact>
</mgrwt>
</event>
<event>
 5    1  0.3286491E-002  0.1249964E+03  0.7818608E-02  0.1235075E+00
          4   -1    0    0  501    0  0.00000000000E+00  0.00000000000E+00  0.34480889297E+02  0.34504269688E+02  0.12700000000E+01 0. -1.
         -4   -1    0    0    0  501 -0.00000000000E+00 -0.00000000000E+00 -0.11321545927E+03  0.11322258219E+03  0.12700000000E+01 0. -1.
         25    2    1    2    0    0  0.00000000000E+00  0.00000000000E+00 -0.78734569973E+02  0.14772685188E+03  0.12499636098E+03 0.  0.
    9000005    1    3    3    0    0 -0.22161773300E+02  0.34995710807E+02 -0.94664424969E+02  0.10333536338E+03  0.10000000000E+01 0.  0.
    9000005    1    3    3    0    0  0.22161773300E+02 -0.34995710807E+02  0.15929854996E+02  0.44391488496E+02  0.10000000000E+01 0.  0.
<mgrwt>
<rscale>  0 0.12499636E+03</rscale>
<asrwt>0</asrwt>
<pdfrwt beam="1">  1        4 0.53070987E-02 0.12499636E+03</pdfrwt>
<pdfrwt beam="2">  1       -4 0.17420109E-01 0.12499636E+03</pdfrwt>
<totfact> 0.99766933E+03</totfact>
</mgrwt>
</event>
<event>
 5    1  0.3286491E-002  0.1250024E+03  0.7818608E-02  0.1235066E+00
         -4   -1    0    0    0  501 -0.00000000000E+00  0.00000000000E+00  0.29467499569E+02  0.29494854312E+02  0.12700000000E+01 0.  1.
          4   -1    0    0  501    0  0.00000000000E+00 -0.00000000000E+00 -0.13247446200E+03  0.13248054944E+03  0.12700000000E+01 0.  1.
         25    2    1    2    0    0  0.00000000000E+00  0.00000000000E+00 -0.10300696243E+03  0.16197540376E+03  0.12500238843E+03 0.  0.
    9000005    1    3    3    0    0  0.58486996931E+02 -0.20881979594E+02 -0.60538077335E+02  0.86733181017E+02  0.10000000000E+01 0.  0.
    9000005    1    3    3    0    0 -0.58486996931E+02  0.20881979594E+02 -0.42468885091E+02  0.75242222739E+02  0.10000000000E+01 0.  0.
<mgrwt>
<rscale>  0 0.12500239E+03</rscale>
<asrwt>0</asrwt>
<pdfrwt beam="2">  1        4 0.20383259E-01 0.12500239E+03</pdfrwt>
<pdfrwt beam="1">  1       -4 0.45360340E-02 0.12500239E+03</pdfrwt>
<totfact> 0.96958085E+03</totfact>
</mgrwt>
</event>
<event>
 5    1  0.3286491E-002  0.1249998E+03  0.7818608E-02  0.1235070E+00
         -4   -1    0    0    0  501 -0.00000000000E+00  0.00000000000E+00  0.11046528527E+03  0.11047258551E+03  0.12700000000E+01 0. -1.
          4   -1    0    0  501    0  0.00000000000E+00 -0.00000000000E+00 -0.35341810195E+02  0.35364621416E+02  0.12700000000E+01 0. -1.
         25    2    1    2    0    0  0.00000000000E+00  0.00000000000E+00  0.75123475071E+02  0.14583720692E+03  0.12499981767E+03 0.  0.
    9000005    1    3    3    0    0 -0.60231032960E+02  0.15614785756E+02  0.44328567504E+02  0.76404324240E+02  0.10000000000E+01 0.  0.
    9000005    1    3    3    0    0  0.60231032960E+02 -0.15614785756E+02  0.30794907567E+02  0.69432882684E+02  0.10000000000E+01 0.  0.
<mgrwt>
<rscale>  0 0.12499982E+03</rscale>
<asrwt>0</asrwt>
<pdfrwt beam="2">  1        4 0.54395180E-02 0.12499982E+03</pdfrwt>
<pdfrwt beam="1">  1       -4 0.16996975E-01 0.12499982E+03</pdfrwt>
<totfact> 0.10014047E+04</totfact>
</mgrwt>
</event>
<event>
 5    1  0.3286491E-002  0.1249974E+03  0.7818608E-02  0.1235073E+00
          4   -1    0    0  501    0  0.00000000000E+00  0.00000000000E+00  0.59237717992E+03  0.59237854129E+03  0.12700000000E+01 0. -1.
         -4   -1    0    0    0  501 -0.00000000000E+00 -0.00000000000E+00 -0.65313877634E+01  0.66537152115E+01  0.12700000000E+01 0. -1.
         25    2    1    2    0    0  0.00000000000E+00  0.00000000000E+00  0.58584579215E+03  0.59903225651E+03  0.12499740858E+03 0.  0.
    9000005    1    3    3    0    0  0.19964669827E+02 -0.14123368582E+02  0.17329823550E+02  0.29989670983E+02  0.10000000000E+01 0.  0.
    9000005    1    3    3    0    0 -0.19964669827E+02  0.14123368582E+02  0.56851596860E+03  0.56904258552E+03  0.10000000000E+01 0.  0.
<mgrwt>
<rscale>  0 0.12499741E+03</rscale>
<asrwt>0</asrwt>
<pdfrwt beam="1">  1        4 0.91144488E-01 0.12499741E+03</pdfrwt>
<pdfrwt beam="2">  1       -4 0.10143432E-02 0.12499741E+03</pdfrwt>
<totfact> 0.48931525E+03</totfact>
</mgrwt>
</event>
<event>
 5    1  0.3286491E-002  0.1249997E+03  0.7818608E-02  0.1235070E+00
          4   -1    0    0  501    0  0.00000000000E+00  0.00000000000E+00  0.18303809080E+03  0.18304249666E+03  0.12700000000E+01 0. -1.
         -4   -1    0    0    0  501 -0.00000000000E+00 -0.00000000000E+00 -0.21317514243E+02  0.21355311131E+02  0.12700000000E+01 0. -1.
         25    2    1    2    0    0  0.00000000000E+00  0.00000000000E+00  0.16172057656E+03  0.20439780780E+03  0.12499967579E+03 0.  0.
    9000005    1    3    3    0    0  0.56922755728E+02 -0.69667053370E+01  0.12146084582E+03  0.13432226982E+03  0.10000000000E+01 0.  0.
    9000005    1    3    3    0    0 -0.56922755728E+02  0.69667053370E+01  0.40259730744E+02  0.70075537975E+02  0.10000000000E+01 0.  0.
<mgrwt>
<rscale>  0 0.12499968E+03</rscale>
<asrwt>0</asrwt>
<pdfrwt beam="1">  1        4 0.28162952E-01 0.12499968E+03</pdfrwt>
<pdfrwt beam="2">  1       -4 0.32828640E-02 0.12499968E+03</pdfrwt>
<totfact> 0.89399693E+03</totfact>
</mgrwt>
</event>
<event>
 5    1  0.3286491E-002  0.1250015E+03  0.7818608E-02  0.1235067E+00
         -4   -1    0    0    0  501 -0.00000000000E+00  0.00000000000E+00  0.51751987647E+01  0.53287505340E+01  0.12700000000E+01 0.  1.
          4   -1    0    0  501    0  0.00000000000E+00 -0.00000000000E+00 -0.74363106259E+03  0.74363214707E+03  0.12700000000E+01 0.  1.
         25    2    1    2    0    0  0.00000000000E+00  0.00000000000E+00 -0.73845586383E+03  0.74896089760E+03  0.12500145325E+03 0.  0.
    9000005    1    3    3    0    0  0.45786552995E+02 -0.24892432532E+02 -0.16259970698E+03  0.17075042121E+03  0.10000000000E+01 0.  0.
    9000005    1    3    3    0    0 -0.45786552995E+02  0.24892432532E+02 -0.57585615685E+03  0.57821047639E+03  0.10000000000E+01 0.  0.
<mgrwt>
<rscale>  0 0.12500145E+03</rscale>
<asrwt>0</asrwt>
<pdfrwt beam="2">  1        4 0.11441659E+00 0.12500145E+03</pdfrwt>
<pdfrwt beam="1">  1       -4 0.80808011E-03 0.12500145E+03</pdfrwt>
<totfact> 0.40622619E+03</totfact>
</mgrwt>
</event>
<event>
 5    1  0.3286491E-002  0.1249972E+03  0.7818608E-02  0.1235074E+00
         -4   -1    0    0    0  501 -0.00000000000E+00  0.00000000000E+00  0.32259745142E+03  0.32259995128E+03  0.12700000000E+01 0. -1.
          4   -1    0    0  501    0  0.00000000000E+00 -0.00000000000E+00 -0.12072345745E+02  0.12138963373E+02  0.12700000000E+01 0. -1.
         25    2    1    2    0    0  0.00000000000E+00  0.00000000000E+00  0.31052510568E+03  0.33473891465E+03  0.12499719887E+03 0.  0.
    9000005    1    3    3    0    0 -0.27476208893E+02  0.53113131233E+02  0.10667909202E+03  0.12230034930E+03  0.10000000000E+01 0.  0.
    9000005    1    3    3    0    0  0.27476208893E+02 -0.53113131233E+02  0.20384601366E+03  0.21243856535E+03  0.10000000000E+01 0.  0.
<mgrwt>
<rscale>  0 0.12499720E+03</rscale>
<asrwt>0</asrwt>
<pdfrwt beam="2">  1        4 0.18626006E-02 0.12499720E+03</pdfrwt>
<pdfrwt beam="1">  1       -4 0.49635697E-01 0.12499720E+03</pdfrwt>
<totfact> 0.71441178E+03</totfact>
</mgrwt>
</event>
<event>
 5    1  0.3286491E-002  0.1250071E+03  0.7818608E-02  0.1235058E+00
         -4   -1    0    0    0  501 -0.00000000000E+00  0.00000000000E+00  0.36946787877E+03  0.36947006150E+03  0.12700000000E+01 0.  1.
          4   -1    0    0  501    0  0.00000000000E+00 -0.00000000000E+00 -0.10533479890E+02  0.10609764304E+02  0.12700000000E+01 0.  1.
         25    2    1    2    0    0  0.00000000000E+00  0.00000000000E+00  0.35893439888E+03  0.38007982580E+03  0.12500708492E+03 0.  0.
    9000005    1    3    3    0    0 -0.44042953105E+02  0.62428725518E+00  0.44670556856E+02  0.62742570099E+02  0.10000000000E+01 0.  0.
    9000005    1    3    3    0    0  0.44042953105E+02 -0.62428725518E+00  0.31426384202E+03  0.31733725570E+03  0.10000000000E+01 0.  0.
<mgrwt>
<rscale>  0 0.12500708E+03</rscale>
<asrwt>0</asrwt>
<pdfrwt beam="2">  1        4 0.16265713E-02 0.12500708E+03</pdfrwt>
<pdfrwt beam="1">  1       -4 0.56847249E-01 0.12500708E+03</pdfrwt>
<totfact> 0.66527000E+03</totfact>
</mgrwt>
</event>
<event>
 5    1  0.3286491E-002  0.1250012E+03  0.7818608E-02  0.1235067E+00
          4   -1    0    0  501    0  0.00000000000E+00  0.00000000000E+00  0.74091454590E+02  0.74102338312E+02  0.12700000000E+01 0. -1.
         -4   -1    0    0    0  501 -0.00000000000E+00 -0.00000000000E+00 -0.52700594255E+02  0.52715894518E+02  0.12700000000E+01 0. -1.
         25    2    1    2    0    0  0.00000000000E+00  0.00000000000E+00  0.21390860335E+02  0.12681823283E+03  0.12500118108E+03 0.  0.
    9000005    1    3    3    0    0 -0.16664666366E+01 -0.47424589682E+02 -0.30558351957E+02  0.56450701430E+02  0.10000000000E+01 0.  0.
    9000005    1    3    3    0    0  0.16664666366E+01  0.47424589682E+02  0.51949212293E+02  0.70367531400E+02  0.10000000000E+01 0.  0.
<mgrwt>
<rscale>  0 0.12500118E+03</rscale>
<asrwt>0</asrwt>
<pdfrwt beam="1">  1        4 0.11400699E-01 0.12500118E+03</pdfrwt>
<pdfrwt beam="2">  1       -4 0.81097979E-02 0.12500118E+03</pdfrwt>
<totfact> 0.10412819E+04</totfact>
</mgrwt>
</event>
<event>
 5    1  0.3286491E-002  0.1250010E+03  0.7818608E-02  0.1235068E+00
         -4   -1    0    0    0  501 -0.00000000000E+00  0.00000000000E+00  0.21357464966E+02  0.21395191277E+02  0.12700000000E+01 0. -1.
          4   -1    0    0  501    0  0.00000000000E+00 -0.00000000000E+00 -0.18270013086E+03  0.18270454487E+03  0.12700000000E+01 0. -1.
         25    2    1    2    0    0  0.00000000000E+00  0.00000000000E+00 -0.16134266589E+03  0.20409973615E+03  0.12500098583E+03 0.  0.
    9000005    1    3    3    0    0 -0.37231534025E+02  0.44817264895E+02 -0.11756422703E+03  0.13121403063E+03  0.10000000000E+01 0.  0.
    9000005    1    3    3    0    0  0.37231534025E+02 -0.44817264895E+02 -0.43778438864E+02  0.72885705511E+02  0.10000000000E+01 0.  0.
<mgrwt>
<rscale>  0 0.12500099E+03</rscale>
<asrwt>0</asrwt>
<pdfrwt beam="2">  1        4 0.28110953E-01 0.12500099E+03</pdfrwt>
<pdfrwt beam="1">  1       -4 0.32890055E-02 0.12500099E+03</pdfrwt>
<totfact> 0.89446657E+03</totfact>
</mgrwt>
</event>
<event>
 5    1  0.3286491E-002  0.1249717E+03  0.7818608E-02  0.1235113E+00
          4   -1    0    0  501    0  0.00000000000E+00  0.00000000000E+00  0.28142272492E+02  0.28170914096E+02  0.12700000000E+01 0. -1.
         -4   -1    0    0    0  501 -0.00000000000E+00 -0.00000000000E+00 -0.13863875792E+03  0.13864457472E+03  0.12700000000E+01 0. -1.
         25    2    1    2    0    0  0.00000000000E+00  0.00000000000E+00 -0.11049648543E+03  0.16681548881E+03  0.12497173287E+03 0.  0.
    9000005    1    3    3    0    0 -0.47510055344E+02  0.53497674984E+01 -0.15613889780E+01  0.47846246526E+02  0.10000000000E+01 0.  0.
    9000005    1    3    3    0    0  0.47510055344E+02 -0.53497674984E+01 -0.10893509645E+03  0.11896924229E+03  0.10000000000E+01 0.  0.
<mgrwt>
<rscale>  0 0.12497173E+03</rscale>
<asrwt>0</asrwt>
<pdfrwt beam="1">  1        4 0.43322311E-02 0.12497173E+03</pdfrwt>
<pdfrwt beam="2">  1       -4 0.21331690E-01 0.12497173E+03</pdfrwt>
<totfact> 0.96105671E+03</totfact>
</mgrwt>
</event>
<event>
 5    1  0.3286491E-002  0.1250034E+03  0.7818608E-02  0.1235064E+00
          4   -1    0    0  501    0  0.00000000000E+00  0.00000000000E+00  0.71537846337E+01  0.72656406865E+01  0.12700000000E+01 0.  1.
         -4   -1    0    0    0  501 -0.00000000000E+00 -0.00000000000E+00 -0.54172064061E+03  0.54172212929E+03  0.12700000000E+01 0.  1.
         25    2    1    2    0    0  0.00000000000E+00  0.00000000000E+00 -0.53456685598E+03  0.54898776998E+03  0.12500339226E+03 0.  0.
    9000005    1    3    3    0    0 -0.41510557679E+02 -0.45127131015E+02 -0.32032730686E+03  0.32614439727E+03  0.10000000000E+01 0.  0.
    9000005    1    3    3    0    0  0.41510557679E+02  0.45127131015E+02 -0.21423954911E+03  0.22284337270E+03  0.10000000000E+01 0.  0.
<mgrwt>
<rscale>  0 0.12500339E+03</rscale>
<asrwt>0</asrwt>
<pdfrwt beam="1">  1        4 0.11093015E-02 0.12500339E+03</pdfrwt>
<pdfrwt beam="2">  1       -4 0.83350324E-01 0.12500339E+03</pdfrwt>
<totfact> 0.52250677E+03</totfact>
</mgrwt>
</event>
<event>
 5    1  0.3286491E-002  0.1249992E+03  0.7818608E-02  0.1235071E+00
         -4   -1    0    0    0  501 -0.00000000000E+00  0.00000000000E+00  0.24963787977E+02  0.24996071895E+02  0.12700000000E+01 0.  1.
          4   -1    0    0  501    0  0.00000000000E+00 -0.00000000000E+00 -0.15633859965E+03  0.15634375792E+03  0.12700000000E+01 0.  1.
         25    2    1    2    0    0  0.00000000000E+00  0.00000000000E+00 -0.13137481167E+03  0.18133982982E+03  0.12499917094E+03 0.  0.
    9000005    1    3    3    0    0  0.23524175151E+01 -0.62336669505E+02 -0.60297418163E+02  0.86765044057E+02  0.10000000000E+01 0.  0.
    9000005    1    3    3    0    0 -0.23524175151E+01  0.62336669505E+02 -0.71077393511E+02  0.94574785759E+02  0.10000000000E+01 0.  0.
<mgrwt>
<rscale>  0 0.12499917E+03</rscale>
<asrwt>0</asrwt>
<pdfrwt beam="2">  1        4 0.24054972E-01 0.12499917E+03</pdfrwt>
<pdfrwt beam="1">  1       -4 0.38434630E-02 0.12499917E+03</pdfrwt>
<totfact> 0.93378120E+03</totfact>
</mgrwt>
</event>
<event>
 5    1  0.3286491E-002  0.1250005E+03  0.7818608E-02  0.1235068E+00
          4   -1    0    0  501    0  0.00000000000E+00  0.00000000000E+00  0.70888882812E+03  0.70888996575E+03  0.12700000000E+01 0. -1.
         -4   -1    0    0    0  501 -0.00000000000E+00 -0.00000000000E+00 -0.54360996106E+01  0.55824796441E+01  0.12700000000E+01 0. -1.
         25    2    1    2    0    0  0.00000000000E+00  0.00000000000E+00  0.70345272851E+03  0.71447244539E+03  0.12500053589E+03 0.  0.
    9000005    1    3    3    0    0  0.27317106075E+02 -0.53367779071E+02  0.45251497608E+03  0.45647031415E+03  0.10000000000E+01 0.  0.
    9000005    1    3    3    0    0 -0.27317106075E+02  0.53367779071E+02  0.25093775243E+03  0.25800213123E+03  0.10000000000E+01 0.  0.
<mgrwt>
<rscale>  0 0.12500054E+03</rscale>
<asrwt>0</asrwt>
<pdfrwt beam="1">  1        4 0.10907116E+00 0.12500054E+03</pdfrwt>
<pdfrwt beam="2">  1       -4 0.84767060E-03 0.12500054E+03</pdfrwt>
<totfact> 0.42333153E+03</totfact>
</mgrwt>
</event>
<event>
 5    1  0.3286491E-002  0.1249991E+03  0.7818608E-02  0.1235071E+00
          4   -1    0    0  501    0  0.00000000000E+00  0.00000000000E+00  0.39113812263E+02  0.39134424868E+02  0.12700000000E+01 0.  1.
         -4   -1    0    0    0  501 -0.00000000000E+00 -0.00000000000E+00 -0.99816353712E+02  0.99824432722E+02  0.12700000000E+01 0.  1.
         25    2    1    2    0    0  0.00000000000E+00  0.00000000000E+00 -0.60702541449E+02  0.13895885759E+03  0.12499906225E+03 0.  0.
    9000005    1    3    3    0    0 -0.58036064709E+02 -0.21403437459E+02 -0.20476739996E+02  0.65165856265E+02  0.10000000000E+01 0.  0.
    9000005    1    3    3    0    0  0.58036064709E+02  0.21403437459E+02 -0.40225801453E+02  0.73793001325E+02  0.10000000000E+01 0.  0.
<mgrwt>
<rscale>  0 0.12499906E+03</rscale>
<asrwt>0</asrwt>
<pdfrwt beam="1">  1        4 0.60197167E-02 0.12499906E+03</pdfrwt>
<pdfrwt beam="2">  1       -4 0.15358569E-01 0.12499906E+03</pdfrwt>
<totfact> 0.10155424E+04</totfact>
</mgrwt>
</event>
<event>
 5    1  0.3286491E-002  0.1250130E+03  0.7818608E-02  0.1235049E+00
         -4   -1    0    0    0  501 -0.00000000000E+00  0.00000000000E+00  0.12507096866E+02  0.12571410900E+02  0.12700000000E+01 0. -1.
          4   -1    0    0  501    0  0.00000000000E+00 -0.00000000000E+00 -0.31152067998E+03  0.31152326872E+03  0.12700000000E+01 0. -1.
         25    2    1    2    0    0  0.00000000000E+00  0.00000000000E+00 -0.29901358311E+03  0.32409467962E+03  0.12501295322E+03 0.  0.
    9000005    1    3    3    0    0 -0.71341623696E+01  0.25578440154E+02 -0.28327031628E+01  0.26724091765E+02  0.10000000000E+01 0.  0.
    9000005    1    3    3    0    0  0.71341623696E+01 -0.25578440154E+02 -0.29618087995E+03  0.29737058786E+03  0.10000000000E+01 0.  0.
<mgrwt>
<rscale>  0 0.12501295E+03</rscale>
<asrwt>0</asrwt>
<pdfrwt beam="2">  1        4 0.47931399E-01 0.12501295E+03</pdfrwt>
<pdfrwt beam="1">  1       -4 0.19293153E-02 0.12501295E+03</pdfrwt>
<totfact> 0.72650894E+03</totfact>
</mgrwt>
</event>
<event>
 5    1  0.3286491E-002  0.1249996E+03  0.7818608E-02  0.1235070E+00
         -4   -1    0    0    0  501 -0.00000000000E+00  0.00000000000E+00  0.58390340181E+02  0.58404149908E+02  0.12700000000E+01 0.  1.
          4   -1    0    0  501    0  0.00000000000E+00 -0.00000000000E+00 -0.66870706815E+02  0.66882765567E+02  0.12700000000E+01 0.  1.
         25    2    1    2    0    0  0.00000000000E+00  0.00000000000E+00 -0.84803666336E+01  0.12528691548E+03  0.12499957828E+03 0.  0.
    9000005    1    3    3    0    0 -0.32174206975E+01  0.59747988519E+02  0.13830395515E+02  0.61420304201E+02  0.10000000000E+01 0.  0.
    9000005    1    3    3    0    0  0.32174206975E+01 -0.59747988519E+02 -0.22310762148E+02  0.63866611274E+02  0.10000000000E+01 0.  0.
<mgrwt>
<rscale>  0 0.12499958E+03</rscale>
<asrwt>0</asrwt>
<pdfrwt beam="2">  1        4 0.10289791E-01 0.12499958E+03</pdfrwt>
<pdfrwt beam="1">  1       -4 0.89851191E-02 0.12499958E+03</pdfrwt>
<totfact> 0.10446734E+04</totfact>
</mgrwt>
</event>
<event>
 5    1  0.3286491E-002  0.1249977E+03  0.7818608E-02  0.1235073E+00
         -4   -1    0    0    0  501 -0.00000000000E+00  0.00000000000E+00  0.11111883307E+03  0.11112609038E+03  0.12700000000E+01 0. -1.
          4   -1    0    0  501    0  0.00000000000E+00 -0.00000000000E+00 -0.35132661636E+02  0.35155608566E+02  0.12700000000E+01 0. -1.
         25    2    1    2    0    0  0.00000000000E+00  0.00000000000E+00  0.75986171433E+02  0.14628169894E+03  0.12499774877E+03 0.  0.
    9000005    1    3    3    0    0 -0.61526644899E+02  0.10433463802E+02  0.41825462729E+02  0.75131581455E+02  0.10000000000E+01 0.  0.
    9000005    1    3    3    0    0  0.61526644899E+02 -0.10433463802E+02  0.34160708704E+02  0.71150117488E+02  0.10000000000E+01 0.  0.
<mgrwt>
<rscale>  0 0.12499775E+03</rscale>
<asrwt>0</asrwt>
<pdfrwt beam="2">  1        4 0.54073485E-02 0.12499775E+03</pdfrwt>
<pdfrwt beam="1">  1       -4 0.17097528E-01 0.12499775E+03</pdfrwt>
<totfact> 0.10005519E+04</totfact>
</mgrwt>
</event>
<event>
 5    1  0.3286491E-002  0.1250033E+03  0.7818608E-02  0.1235064E+00
          4   -1    0    0  501    0  0.00000000000E+00  0.00000000000E+00  0.68785330635E+03  0.68785447876E+03  0.12700000000E+01 0.  1.
         -4   -1    0    0    0  501 -0.00000000000E+00 -0.00000000000E+00 -0.56070057679E+01  0.57490358915E+01  0.12700000000E+01 0.  1.
         25    2    1    2    0    0  0.00000000000E+00  0.00000000000E+00  0.68224630058E+03  0.69360351465E+03  0.12500328350E+03 0.  0.
    9000005    1    3    3    0    0 -0.21421416057E+02 -0.34917707248E+02  0.79255211113E+02  0.89221700465E+02  0.10000000000E+01 0.  0.
    9000005    1    3    3    0    0  0.21421416057E+02  0.34917707248E+02  0.60299108947E+03  0.60438181419E+03  0.10000000000E+01 0.  0.
<mgrwt>
<rscale>  0 0.12500328E+03</rscale>
<asrwt>0</asrwt>
<pdfrwt beam="1">  1        4 0.10583454E+00 0.12500328E+03</pdfrwt>
<pdfrwt beam="2">  1       -4 0.87363232E-03 0.12500328E+03</pdfrwt>
<totfact> 0.43423406E+03</totfact>
</mgrwt>
</event>
<event>
 5    1  0.3286491E-002  0.1249912E+03  0.7818608E-02  0.1235083E+00
         -4   -1    0    0    0  501 -0.00000000000E+00  0.00000000000E+00  0.10027845323E+04  0.10027853366E+04  0.12700000000E+01 0. -1.
          4   -1    0    0  501    0  0.00000000000E+00 -0.00000000000E+00 -0.37904974672E+01  0.39975956585E+01  0.12700000000E+01 0. -1.
         25    2    1    2    0    0  0.00000000000E+00  0.00000000000E+00  0.99899403488E+03  0.10067829322E+04  0.12499116319E+03 0.  0.
    9000005    1    3    3    0    0  0.57012063128E+02 -0.60041634114E+01  0.29921292165E+03  0.30465685254E+03  0.10000000000E+01 0.  0.
    9000005    1    3    3    0    0 -0.57012063128E+02  0.60041634114E+01  0.69978111323E+03  0.70212607967E+03  0.10000000000E+01 0.  0.
<mgrwt>
<rscale>  0 0.12499116E+03</rscale>
<asrwt>0</asrwt>
<pdfrwt beam="2">  1        4 0.59914666E-03 0.12499116E+03</pdfrwt>
<pdfrwt beam="1">  1       -4 0.15429035E+00 0.12499116E+03</pdfrwt>
<totfact> 0.30387461E+03</totfact>
</mgrwt>
</event>
<event>
 5    1  0.3286491E-002  0.1250033E+03  0.7818608E-02  0.1235064E+00
          4   -1    0    0  501    0  0.00000000000E+00  0.00000000000E+00  0.67882035392E+02  0.67893914521E+02  0.12700000000E+01 0.  1.
         -4   -1    0    0    0  501 -0.00000000000E+00 -0.00000000000E+00 -0.57523839107E+02  0.57537856804E+02  0.12700000000E+01 0.  1.
         25    2    1    2    0    0  0.00000000000E+00  0.00000000000E+00  0.10358196285E+02  0.12543177132E+03  0.12500334806E+03 0.  0.
    9000005    1    3    3    0    0 -0.26648152070E+02 -0.29189976563E+02 -0.43394251187E+02  0.58704682749E+02  0.10000000000E+01 0.  0.
    9000005    1    3    3    0    0  0.26648152070E+02  0.29189976563E+02  0.53752447473E+02  0.66727088576E+02  0.10000000000E+01 0.  0.
<mgrwt>
<rscale>  0 0.12500335E+03</rscale>
<asrwt>0</asrwt>
<pdfrwt beam="1">  1        4 0.10445382E-01 0.12500335E+03</pdfrwt>
<pdfrwt beam="2">  1       -4 0.88518135E-02 0.12500335E+03</pdfrwt>
<totfact> 0.10442675E+04</totfact>
</mgrwt>
</event>
<event>
 5    1  0.3286491E-002  0.1249925E+03  0.7818608E-02  0.1235081E+00
          4   -1    0    0  501    0  0.00000000000E+00  0.00000000000E+00  0.29658063668E+02  0.29685242807E+02  0.12700000000E+01 0.  1.
         -4   -1    0    0    0  501 -0.00000000000E+00 -0.00000000000E+00 -0.13160310460E+03  0.13160923236E+03  0.12700000000E+01 0.  1.
         25    2    1    2    0    0  0.00000000000E+00  0.00000000000E+00 -0.10194504094E+03  0.16129447516E+03  0.12499246516E+03 0.  0.
    9000005    1    3    3    0    0  0.79673716948E+01 -0.60372242006E+02 -0.32883768058E+02  0.69214368582E+02  0.10000000000E+01 0.  0.
    9000005    1    3    3    0    0 -0.79673716948E+01  0.60372242006E+02 -0.69061272878E+02  0.92080106581E+02  0.10000000000E+01 0.  0.
<mgrwt>
<rscale>  0 0.12499247E+03</rscale>
<asrwt>0</asrwt>
<pdfrwt beam="1">  1        4 0.45653411E-02 0.12499247E+03</pdfrwt>
<pdfrwt beam="2">  1       -4 0.20249193E-01 0.12499247E+03</pdfrwt>
<totfact> 0.97110243E+03</totfact>
</mgrwt>
</event>
<event>
 5    1  0.3286491E-002  0.1249969E+03  0.7818608E-02  0.1235074E+00
         -4   -1    0    0    0  501 -0.00000000000E+00  0.00000000000E+00  0.39766286290E+02  0.39786560863E+02  0.12700000000E+01 0. -1.
          4   -1    0    0  501    0  0.00000000000E+00 -0.00000000000E+00 -0.98175916456E+02  0.98184130448E+02  0.12700000000E+01 0. -1.
         25    2    1    2    0    0  0.00000000000E+00  0.00000000000E+00 -0.58409630165E+02  0.13797069131E+03  0.12499690702E+03 0.  0.
    9000005    1    3    3    0    0 -0.13452435729E+01 -0.17009878229E+01  0.39730151135E+02  0.39801858613E+02  0.10000000000E+01 0.  0.
    9000005    1    3    3    0    0  0.13452435729E+01  0.17009878229E+01 -0.98139781300E+02  0.98168832699E+02  0.10000000000E+01 0.  0.
<mgrwt>
<rscale>  0 0.12499691E+03</rscale>
<asrwt>0</asrwt>
<pdfrwt beam="2">  1        4 0.15106179E-01 0.12499691E+03</pdfrwt>
<pdfrwt beam="1">  1       -4 0.61200816E-02 0.12499691E+03</pdfrwt>
<totfact> 0.10176528E+04</totfact>
</mgrwt>
</event>
<event>
 5    1  0.3286491E-002  0.1250039E+03  0.7818608E-02  0.1235063E+00
         -4   -1    0    0    0  501 -0.00000000000E+00  0.00000000000E+00  0.84133872383E+02  0.84143457156E+02  0.12700000000E+01 0.  1.
          4   -1    0    0  501    0  0.00000000000E+00 -0.00000000000E+00 -0.46410941107E+02  0.46428314146E+02  0.12700000000E+01 0.  1.
         25    2    1    2    0    0  0.00000000000E+00  0.00000000000E+00  0.37722931276E+02  0.13057177130E+03  0.12500387161E+03 0.  0.
    9000005    1    3    3    0    0 -0.43161129869E+02 -0.15692602432E+02 -0.25409749332E+02  0.52495678525E+02  0.10000000000E+01 0.  0.
    9000005    1    3    3    0    0  0.43161129869E+02  0.15692602432E+02  0.63132680608E+02  0.78076092777E+02  0.10000000000E+01 0.  0.
<mgrwt>
<rscale>  0 0.12500387E+03</rscale>
<asrwt>0</asrwt>
<pdfrwt beam="2">  1        4 0.71422185E-02 0.12500387E+03</pdfrwt>
<pdfrwt beam="1">  1       -4 0.12945746E-01 0.12500387E+03</pdfrwt>
<totfact> 0.10331376E+04</totfact>
</mgrwt>
</event>
<event>
 5    1  0.3286491E-002  0.1249961E+03  0.7818608E-02  0.1235075E+00
         -4   -1    0    0    0  501 -0.00000000000E+00  0.00000000000E+00  0.93611470428E+02  0.93620084895E+02  0.12700000000E+01 0.  1.
          4   -1    0    0  501    0  0.00000000000E+00 -0.00000000000E+00 -0.41705531089E+02  0.41724863372E+02  0.12700000000E+01 0.  1.
         25    2    1    2    0    0  0.00000000000E+00  0.00000000000E+00  0.51905939340E+02  0.13534494827E+03  0.12499611387E+03 0.  0.
    9000005    1    3    3    0    0 -0.61300516450E+02  0.56477816407E+01  0.14323328283E+02  0.63212407703E+02  0.10000000000E+01 0.  0.
    9000005    1    3    3    0    0  0.61300516450E+02 -0.56477816407E+01  0.37582611057E+02  0.72132540564E+02  0.10000000000E+01 0.  0.
<mgrwt>
<rscale>  0 0.12499611E+03</rscale>
<asrwt>0</asrwt>
<pdfrwt beam="2">  1        4 0.64183853E-02 0.12499611E+03</pdfrwt>
<pdfrwt beam="1">  1       -4 0.14403914E-01 0.12499611E+03</pdfrwt>
<totfact> 0.10231702E+04</totfact>
</mgrwt>
</event>
<event>
 5    1  0.3286491E-002  0.1250241E+03  0.7818608E-02  0.1235032E+00
          4   -1    0    0  501    0  0.00000000000E+00  0.00000000000E+00  0.29214736555E+03  0.29215012596E+03  0.12700000000E+01 0.  1.
         -4   -1    0    0    0  501 -0.00000000000E+00 -0.00000000000E+00 -0.13343005448E+02  0.13403309084E+02  0.12700000000E+01 0.  1.
         25    2    1    2    0    0  0.00000000000E+00  0.00000000000E+00  0.27880436010E+03  0.30555343504E+03  0.12502411949E+03 0.  0.
    9000005    1    3    3    0    0  0.40557734343E+01 -0.47593585359E+02  0.23792601036E+03  0.24267547274E+03  0.10000000000E+01 0.  0.
    9000005    1    3    3    0    0 -0.40557734343E+01  0.47593585359E+02  0.40878349747E+02  0.62877962305E+02  0.10000000000E+01 0.  0.
<mgrwt>
<rscale>  0 0.12502412E+03</rscale>
<asrwt>0</asrwt>
<pdfrwt beam="1">  1        4 0.44950598E-01 0.12502412E+03</pdfrwt>
<pdfrwt beam="2">  1       -4 0.20576212E-02 0.12502412E+03</pdfrwt>
<totfact> 0.74867385E+03</totfact>
</mgrwt>
</event>
<event>
 5    1  0.3286491E-002  0.1249969E+03  0.7818608E-02  0.1235074E+00
         -4   -1    0    0    0  501 -0.00000000000E+00  0.00000000000E+00  0.19755780290E+04  0.19755784372E+04  0.12700000000E+01 0. -1.
          4   -1    0    0  501    0  0.00000000000E+00 -0.00000000000E+00 -0.17727804144E+01  0.21807453766E+01  0.12700000000E+01 0. -1.
         25    2    1    2    0    0  0.00000000000E+00  0.00000000000E+00  0.19738052486E+04  0.19777591826E+04  0.12499689980E+03 0.  0.
    9000005    1    3    3    0    0 -0.16084615328E+02  0.19246526574E+02  0.81294476073E+02  0.85081933896E+02  0.10000000000E+01 0.  0.
    9000005    1    3    3    0    0  0.16084615328E+02 -0.19246526574E+02  0.18925107725E+04  0.18926772487E+04  0.10000000000E+01 0.  0.
<mgrwt>
<rscale>  0 0.12499690E+03</rscale>
<asrwt>0</asrwt>
<pdfrwt beam="2">  1        4 0.30414764E-03 0.12499690E+03</pdfrwt>
<pdfrwt beam="1">  1       -4 0.30396762E+00 0.12499690E+03</pdfrwt>
<totfact> 0.10154962E+03</totfact>
</mgrwt>
</event>
<event>
 5    1  0.3286491E-002  0.1249994E+03  0.7818608E-02  0.1235070E+00
          4   -1    0    0  501    0  0.00000000000E+00  0.00000000000E+00  0.18767862806E+03  0.18768292498E+03  0.12700000000E+01 0.  1.
         -4   -1    0    0    0  501 -0.00000000000E+00 -0.00000000000E+00 -0.20789380549E+02  0.20828135865E+02  0.12700000000E+01 0.  1.
         25    2    1    2    0    0  0.00000000000E+00  0.00000000000E+00  0.16688924751E+03  0.20851106085E+03  0.12499936625E+03 0.  0.
    9000005    1    3    3    0    0 -0.26698263950E+02  0.54565185567E+02  0.10790677584E+03  0.12383468435E+03  0.10000000000E+01 0.  0.
    9000005    1    3    3    0    0  0.26698263950E+02 -0.54565185567E+02  0.58982471666E+02  0.84676376503E+02  0.10000000000E+01 0.  0.
<mgrwt>
<rscale>  0 0.12499937E+03</rscale>
<asrwt>0</asrwt>
<pdfrwt beam="1">  1        4 0.28876948E-01 0.12499937E+03</pdfrwt>
<pdfrwt beam="2">  1       -4 0.32016778E-02 0.12499937E+03</pdfrwt>
<totfact> 0.88720878E+03</totfact>
</mgrwt>
</event>
<event>
 5    1  0.3286491E-002  0.1250077E+03  0.7818608E-02  0.1235057E+00
         -4   -1    0    0    0  501 -0.00000000000E+00  0.00000000000E+00  0.22566829656E+02  0.22602537484E+02  0.12700000000E+01 0. -1.
          4   -1    0    0  501    0  0.00000000000E+00 -0.00000000000E+00 -0.17294351244E+03  0.17294817546E+03  0.12700000000E+01 0. -1.
         25    2    1    2    0    0  0.00000000000E+00  0.00000000000E+00 -0.15037668278E+03  0.19555071294E+03  0.12500773819E+03 0.  0.
    9000005    1    3    3    0    0  0.22027846101E+02 -0.45441418033E+02 -0.17593191668E+02  0.53485221040E+02  0.10000000000E+01 0.  0.
    9000005    1    3    3    0    0 -0.22027846101E+02  0.45441418033E+02 -0.13278349112E+03  0.14206549190E+03  0.10000000000E+01 0.  0.
<mgrwt>
<rscale>  0 0.12500774E+03</rscale>
<asrwt>0</asrwt>
<pdfrwt beam="2">  1        4 0.26609799E-01 0.12500774E+03</pdfrwt>
<pdfrwt beam="1">  1       -4 0.34749255E-02 0.12500774E+03</pdfrwt>
<totfact> 0.90874634E+03</totfact>
</mgrwt>
</event>
<event>
 5    1  0.3286491E-002  0.1250011E+03  0.7818608E-02  0.1235068E+00
         -4   -1    0    0    0  501 -0.00000000000E+00  0.00000000000E+00  0.16142323314E+03  0.16142822894E+03  0.12700000000E+01 0. -1.
          4   -1    0    0  501    0  0.00000000000E+00 -0.00000000000E+00 -0.24177203234E+02  0.24210536058E+02  0.12700000000E+01 0. -1.
         25    2    1    2    0    0  0.00000000000E+00  0.00000000000E+00  0.13724602991E+03  0.18563876499E+03  0.12500111337E+03 0.  0.
    9000005    1    3    3    0    0  0.70672021206E+01 -0.26629590389E+02 -0.14678069464E+02  0.31233414051E+02  0.10000000000E+01 0.  0.
    9000005    1    3    3    0    0 -0.70672021206E+01  0.26629590389E+02  0.15192409937E+03  0.15440535094E+03  0.10000000000E+01 0.  0.
<mgrwt>
<rscale>  0 0.12500111E+03</rscale>
<asrwt>0</asrwt>
<pdfrwt beam="2">  1        4 0.37225181E-02 0.12500111E+03</pdfrwt>
<pdfrwt beam="1">  1       -4 0.24837292E-01 0.12500111E+03</pdfrwt>
<totfact> 0.92609431E+03</totfact>
</mgrwt>
</event>
<event>
 5    1  0.3286491E-002  0.1250249E+03  0.7818608E-02  0.1235030E+00
         -4   -1    0    0    0  501 -0.00000000000E+00  0.00000000000E+00  0.76231621455E+02  0.76242199665E+02  0.12700000000E+01 0. -1.
          4   -1    0    0  501    0  0.00000000000E+00 -0.00000000000E+00 -0.51240251808E+02  0.51255987995E+02  0.12700000000E+01 0. -1.
         25    2    1    2    0    0  0.00000000000E+00  0.00000000000E+00  0.24991369647E+02  0.12749818766E+03  0.12502487472E+03 0.  0.
    9000005    1    3    3    0    0  0.86951789653E+01  0.40116140689E+02 -0.35573775468E+02  0.54326829303E+02  0.10000000000E+01 0.  0.
    9000005    1    3    3    0    0 -0.86951789653E+01 -0.40116140689E+02  0.60565145115E+02  0.73171358357E+02  0.10000000000E+01 0.  0.
<mgrwt>
<rscale>  0 0.12502487E+03</rscale>
<asrwt>0</asrwt>
<pdfrwt beam="2">  1        4 0.78851399E-02 0.12502487E+03</pdfrwt>
<pdfrwt beam="1">  1       -4 0.11729966E-01 0.12502487E+03</pdfrwt>
<totfact> 0.10392503E+04</totfact>
</mgrwt>
</event>
<event>
 5    1  0.3286491E-002  0.1250007E+03  0.7818608E-02  0.1235068E+00
         -4   -1    0    0    0  501 -0.00000000000E+00  0.00000000000E+00  0.17758923810E+02  0.17804276871E+02  0.12700000000E+01 0.  1.
          4   -1    0    0  501    0  0.00000000000E+00 -0.00000000000E+00 -0.21963472255E+03  0.21963839430E+03  0.12700000000E+01 0.  1.
         25    2    1    2    0    0  0.00000000000E+00  0.00000000000E+00 -0.20187579874E+03  0.23744267117E+03  0.12500073590E+03 0.  0.
    9000005    1    3    3    0    0 -0.32659733833E+02  0.23769424258E+02 -0.19151287380E+03  0.19572895691E+03  0.10000000000E+01 0.  0.
    9000005    1    3    3    0    0  0.32659733833E+02 -0.23769424258E+02 -0.10362924940E+02  0.41713714254E+02  0.10000000000E+01 0.  0.
<mgrwt>
<rscale>  0 0.12500074E+03</rscale>
<asrwt>0</asrwt>
<pdfrwt beam="2">  1        4 0.33793726E-01 0.12500074E+03</pdfrwt>
<pdfrwt beam="1">  1       -4 0.27359134E-02 0.12500074E+03</pdfrwt>
<totfact> 0.84178336E+03</totfact>
</mgrwt>
</event>
<event>
 5    1  0.3286491E-002  0.1250017E+03  0.7818608E-02  0.1235067E+00
          4   -1    0    0  501    0  0.00000000000E+00  0.00000000000E+00  0.91035453751E+03  0.91035542337E+03  0.12700000000E+01 0.  1.
         -4   -1    0    0    0  501 -0.00000000000E+00 -0.00000000000E+00 -0.41961473135E+01  0.43841250298E+01  0.12700000000E+01 0.  1.
         25    2    1    2    0    0  0.00000000000E+00  0.00000000000E+00  0.90615839019E+03  0.91473954840E+03  0.12500165314E+03 0.  0.
    9000005    1    3    3    0    0 -0.45325408619E+02 -0.88229886699E+01  0.14493767840E+03  0.15211892852E+03  0.10000000000E+01 0.  0.
    9000005    1    3    3    0    0  0.45325408619E+02  0.88229886699E+01  0.76122071179E+03  0.76262061987E+03  0.10000000000E+01 0.  0.
<mgrwt>
<rscale>  0 0.12500165E+03</rscale>
<asrwt>0</asrwt>
<pdfrwt beam="1">  1        4 0.14006917E+00 0.12500165E+03</pdfrwt>
<pdfrwt beam="2">  1       -4 0.66008862E-03 0.12500165E+03</pdfrwt>
<totfact> 0.33600544E+03</totfact>
</mgrwt>
</event>
<event>
 5    1  0.3286491E-002  0.1249992E+03  0.7818608E-02  0.1235070E+00
         -4   -1    0    0    0  501 -0.00000000000E+00  0.00000000000E+00  0.72053616327E+01  0.73164292014E+01  0.12700000000E+01 0. -1.
          4   -1    0    0  501    0  0.00000000000E+00 -0.00000000000E+00 -0.53786618216E+03  0.53786768151E+03  0.12700000000E+01 0. -1.
         25    2    1    2    0    0  0.00000000000E+00  0.00000000000E+00 -0.53066082053E+03  0.54518411071E+03  0.12499923251E+03 0.  0.
    9000005    1    3    3    0    0  0.13875854991E+01  0.58894500805E+02 -0.17439398805E+03  0.18407811029E+03  0.10000000000E+01 0.  0.
    9000005    1    3    3    0    0 -0.13875854991E+01 -0.58894500805E+02 -0.35626683248E+03  0.36110600042E+03  0.10000000000E+01 0.  0.
<mgrwt>
<rscale>  0 0.12499923E+03</rscale>
<asrwt>0</asrwt>
<pdfrwt beam="2">  1        4 0.82757271E-01 0.12499923E+03</pdfrwt>
<pdfrwt beam="1">  1       -4 0.11171766E-02 0.12499923E+03</pdfrwt>
<totfact> 0.52522402E+03</totfact>
</mgrwt>
</event>
<event>
 5    1  0.3286491E-002  0.1249943E+03  0.7818608E-02  0.1235078E+00
          4   -1    0    0  501    0  0.00000000000E+00  0.00000000000E+00  0.12666162550E+03  0.12666799230E+03  0.12700000000E+01 0.  1.
         -4   -1    0    0    0  501 -0.00000000000E+00 -0.00000000000E+00 -0.30817015429E+02  0.30843173312E+02  0.12700000000E+01 0.  1.
         25    2    1    2    0    0  0.00000000000E+00  0.00000000000E+00  0.95844610069E+02  0.15751116561E+03  0.12499431193E+03 0.  0.
    9000005    1    3    3    0    0 -0.32379908925E+01  0.62399455847E+02  0.46854648891E+02  0.78105920376E+02  0.10000000000E+01 0.  0.
    9000005    1    3    3    0    0  0.32379908925E+01 -0.62399455847E+02  0.48989961178E+02  0.79405245238E+02  0.10000000000E+01 0.  0.
<mgrwt>
<rscale>  0 0.12499431E+03</rscale>
<asrwt>0</asrwt>
<pdfrwt beam="1">  1        4 0.19488906E-01 0.12499431E+03</pdfrwt>
<pdfrwt beam="2">  1       -4 0.47435812E-02 0.12499431E+03</pdfrwt>
<totfact> 0.97837281E+03</totfact>
</mgrwt>
</event>
<event>
 5    1  0.3286491E-002  0.1249954E+03  0.7818608E-02  0.1235076E+00
          4   -1    0    0  501    0  0.00000000000E+00  0.00000000000E+00  0.68549026984E+03  0.68549144630E+03  0.12700000000E+01 0.  1.
         -4   -1    0    0    0  501 -0.00000000000E+00 -0.00000000000E+00 -0.56260942751E+01  0.57676543579E+01  0.12700000000E+01 0.  1.
         25    2    1    2    0    0  0.00000000000E+00  0.00000000000E+00  0.67986417557E+03  0.69125910065E+03  0.12499538800E+03 0.  0.
    9000005    1    3    3    0    0 -0.45577163379E+02 -0.45162425532E+00  0.57634608484E+03  0.57814642722E+03  0.10000000000E+01 0.  0.
    9000005    1    3    3    0    0  0.45577163379E+02  0.45162425532E+00  0.10351809072E+03  0.11311267344E+03  0.10000000000E+01 0.  0.
<mgrwt>
<rscale>  0 0.12499539E+03</rscale>
<asrwt>0</asrwt>
<pdfrwt beam="1">  1        4 0.10547103E+00 0.12499539E+03</pdfrwt>
<pdfrwt beam="2">  1       -4 0.87653265E-03 0.12499539E+03</pdfrwt>
<totfact> 0.43556536E+03</totfact>
</mgrwt>
</event>
<event>
 5    1  0.3286491E-002  0.1249971E+03  0.7818608E-02  0.1235074E+00
          4   -1    0    0  501    0  0.00000000000E+00  0.00000000000E+00  0.15932366558E+02  0.15982903495E+02  0.12700000000E+01 0.  1.
         -4   -1    0    0    0  501 -0.00000000000E+00 -0.00000000000E+00 -0.24472523906E+03  0.24472853436E+03  0.12700000000E+01 0.  1.
         25    2    1    2    0    0  0.00000000000E+00  0.00000000000E+00 -0.22879287250E+03  0.26071143786E+03  0.12499710126E+03 0.  0.
    9000005    1    3    3    0    0 -0.37776521884E+02  0.11839554905E+02 -0.21524423809E+03  0.21885685436E+03  0.10000000000E+01 0.  0.
    9000005    1    3    3    0    0  0.37776521884E+02 -0.11839554905E+02 -0.13548634406E+02  0.41854583504E+02  0.10000000000E+01 0.  0.
<mgrwt>
<rscale>  0 0.12499710E+03</rscale>
<asrwt>0</asrwt>
<pdfrwt beam="1">  1        4 0.24552744E-02 0.12499710E+03</pdfrwt>
<pdfrwt beam="2">  1       -4 0.37654175E-01 0.12499710E+03</pdfrwt>
<totfact> 0.80811539E+03</totfact>
</mgrwt>
</event>
<event>
 5    1  0.3286491E-002  0.1249977E+03  0.7818608E-02  0.1235073E+00
          4   -1    0    0  501    0  0.00000000000E+00  0.00000000000E+00  0.10291182919E+03  0.10291966522E+03  0.12700000000E+01 0. -1.
         -4   -1    0    0    0  501 -0.00000000000E+00 -0.00000000000E+00 -0.37935946952E+02  0.37957199201E+02  0.12700000000E+01 0. -1.
         25    2    1    2    0    0  0.00000000000E+00  0.00000000000E+00  0.64975882242E+02  0.14087686442E+03  0.12499770260E+03 0.  0.
    9000005    1    3    3    0    0  0.48828345921E+02 -0.33428729238E+01  0.76279102287E+02  0.90635995115E+02  0.10000000000E+01 0.  0.
    9000005    1    3    3    0    0 -0.48828345921E+02  0.33428729238E+01 -0.11303220045E+02  0.50240869301E+02  0.10000000000E+01 0.  0.
<mgrwt>
<rscale>  0 0.12499770E+03</rscale>
<asrwt>0</asrwt>
<pdfrwt beam="1">  1        4 0.15834827E-01 0.12499770E+03</pdfrwt>
<pdfrwt beam="2">  1       -4 0.58385371E-02 0.12499770E+03</pdfrwt>
<totfact> 0.10115968E+04</totfact>
</mgrwt>
</event>
<event>
 5    1  0.3286491E-002  0.1249976E+03  0.7818608E-02  0.1235073E+00
         -4   -1    0    0    0  501 -0.00000000000E+00  0.00000000000E+00  0.51399022076E+02  0.51414709669E+02  0.12700000000E+01 0.  1.
          4   -1    0    0  501    0  0.00000000000E+00 -0.00000000000E+00 -0.75962990313E+02  0.75973605925E+02  0.12700000000E+01 0.  1.
         25    2    1    2    0    0  0.00000000000E+00  0.00000000000E+00 -0.24563968237E+02  0.12738831559E+03  0.12499757763E+03 0.  0.
    9000005    1    3    3    0    0  0.42505893238E+02  0.35291107176E+02  0.17480785173E+02  0.57955077913E+02  0.10000000000E+01 0.  0.
    9000005    1    3    3    0    0 -0.42505893238E+02 -0.35291107176E+02 -0.42044753410E+02  0.69433237682E+02  0.10000000000E+01 0.  0.
<mgrwt>
<rscale>  0 0.12499758E+03</rscale>
<asrwt>0</asrwt>
<pdfrwt beam="2">  1        4 0.11688637E-01 0.12499758E+03</pdfrwt>
<pdfrwt beam="1">  1       -4 0.79095652E-02 0.12499758E+03</pdfrwt>
<totfact> 0.10401289E+04</totfact>
</mgrwt>
</event>
<event>
 5    1  0.3286491E-002  0.1250094E+03  0.7818608E-02  0.1235055E+00
          4   -1    0    0  501    0  0.00000000000E+00  0.00000000000E+00  0.15490813218E+03  0.15491333808E+03  0.12700000000E+01 0.  1.
         -4   -1    0    0    0  501 -0.00000000000E+00 -0.00000000000E+00 -0.25198712892E+02  0.25230696213E+02  0.12700000000E+01 0.  1.
         25    2    1    2    0    0  0.00000000000E+00  0.00000000000E+00  0.12970941929E+03  0.18014403430E+03  0.12500935821E+03 0.  0.
    9000005    1    3    3    0    0  0.32361418159E+02 -0.16772407302E+02 -0.83023876523E+01  0.37396586377E+02  0.10000000000E+01 0.  0.
    9000005    1    3    3    0    0 -0.32361418159E+02  0.16772407302E+02  0.13801180694E+03  0.14274744792E+03  0.10000000000E+01 0.  0.
<mgrwt>
<rscale>  0 0.12500936E+03</rscale>
<asrwt>0</asrwt>
<pdfrwt beam="1">  1        4 0.23834882E-01 0.12500936E+03</pdfrwt>
<pdfrwt beam="2">  1       -4 0.38795856E-02 0.12500936E+03</pdfrwt>
<totfact> 0.93571447E+03</totfact>
</mgrwt>
</event>
<event>
 5    1  0.3286491E-002  0.1250057E+03  0.7818608E-02  0.1235060E+00
         -4   -1    0    0    0  501 -0.00000000000E+00  0.00000000000E+00  0.44803063033E+02  0.44821059304E+02  0.12700000000E+01 0.  1.
          4   -1    0    0  501    0  0.00000000000E+00 -0.00000000000E+00 -0.87154875159E+02  0.87164127736E+02  0.12700000000E+01 0.  1.
         25    2    1    2    0    0  0.00000000000E+00  0.00000000000E+00 -0.42351812125E+02  0.13198518704E+03  0.12500565430E+03 0.  0.
    9000005    1    3    3    0    0  0.48830079695E+01  0.47775237770E+02 -0.63399834989E+02  0.79541537497E+02  0.10000000000E+01 0.  0.
    9000005    1    3    3    0    0 -0.48830079695E+01 -0.47775237770E+02  0.21048022863E+02  0.52443649542E+02  0.10000000000E+01 0.  0.
<mgrwt>
<rscale>  0 0.12500565E+03</rscale>
<asrwt>0</asrwt>
<pdfrwt beam="2">  1        4 0.13410538E-01 0.12500565E+03</pdfrwt>
<pdfrwt beam="1">  1       -4 0.68948750E-02 0.12500565E+03</pdfrwt>
<totfact> 0.10300701E+04</totfact>
</mgrwt>
</event>
<event>
 5    1  0.3286491E-002  0.1250012E+03  0.7818608E-02  0.1235067E+00
          4   -1    0    0  501    0  0.00000000000E+00  0.00000000000E+00  0.31063155479E+01  0.33559046892E+01  0.12700000000E+01 0.  1.
         -4   -1    0    0    0  501 -0.00000000000E+00 -0.00000000000E+00 -0.12087230600E+04  0.12087237272E+04  0.12700000000E+01 0.  1.
         25    2    1    2    0    0  0.00000000000E+00  0.00000000000E+00 -0.12056167444E+04  0.12120796319E+04  0.12500119806E+03 0.  0.
    9000005    1    3    3    0    0 -0.31146880772E+02 -0.50743796881E+02 -0.78685475056E+03  0.78910484702E+03  0.10000000000E+01 0.  0.
    9000005    1    3    3    0    0  0.31146880772E+02  0.50743796881E+02 -0.41876199389E+03  0.42297478486E+03  0.10000000000E+01 0.  0.
<mgrwt>
<rscale>  0 0.12500120E+03</rscale>
<asrwt>0</asrwt>
<pdfrwt beam="1">  1        4 0.49714615E-03 0.12500120E+03</pdfrwt>
<pdfrwt beam="2">  1       -4 0.18597628E+00 0.12500120E+03</pdfrwt>
<totfact> 0.24398162E+03</totfact>
</mgrwt>
</event>
<event>
 5    1  0.3286491E-002  0.1249979E+03  0.7818608E-02  0.1235073E+00
         -4   -1    0    0    0  501 -0.00000000000E+00  0.00000000000E+00  0.73122733819E+02  0.73133761705E+02  0.12700000000E+01 0.  1.
          4   -1    0    0  501    0  0.00000000000E+00 -0.00000000000E+00 -0.53396055137E+02  0.53411156177E+02  0.12700000000E+01 0.  1.
         25    2    1    2    0    0  0.00000000000E+00  0.00000000000E+00  0.19726678681E+02  0.12654491788E+03  0.12499789754E+03 0.  0.
    9000005    1    3    3    0    0 -0.24154310978E+02  0.33504299677E+02 -0.37612144878E+02  0.55871658987E+02  0.10000000000E+01 0.  0.
    9000005    1    3    3    0    0  0.24154310978E+02 -0.33504299677E+02  0.57338823560E+02  0.70673258895E+02  0.10000000000E+01 0.  0.
<mgrwt>
<rscale>  0 0.12499790E+03</rscale>
<asrwt>0</asrwt>
<pdfrwt beam="2">  1        4 0.82167876E-02 0.12499790E+03</pdfrwt>
<pdfrwt beam="1">  1       -4 0.11251661E-01 0.12499790E+03</pdfrwt>
<totfact> 0.10419543E+04</totfact>
</mgrwt>
</event>
<event>
 5    1  0.3286491E-002  0.1250047E+03  0.7818608E-02  0.1235062E+00
         -4   -1    0    0    0  501 -0.00000000000E+00  0.00000000000E+00  0.10337667285E+02  0.10415385970E+02  0.12700000000E+01 0. -1.
          4   -1    0    0  501    0  0.00000000000E+00 -0.00000000000E+00 -0.37639986648E+03  0.37640200901E+03  0.12700000000E+01 0. -1.
         25    2    1    2    0    0  0.00000000000E+00  0.00000000000E+00 -0.36606219920E+03  0.38681739498E+03  0.12500465343E+03 0.  0.
    9000005    1    3    3    0    0 -0.45060785028E+02  0.18444600998E+02 -0.30426236855E+03  0.30813514336E+03  0.10000000000E+01 0.  0.
    9000005    1    3    3    0    0  0.45060785028E+02 -0.18444600998E+02 -0.61799830644E+02  0.78682251626E+02  0.10000000000E+01 0.  0.
<mgrwt>
<rscale>  0 0.12500465E+03</rscale>
<asrwt>0</asrwt>
<pdfrwt beam="2">  1        4 0.57913805E-01 0.12500465E+03</pdfrwt>
<pdfrwt beam="1">  1       -4 0.15965538E-02 0.12500465E+03</pdfrwt>
<totfact> 0.65848666E+03</totfact>
</mgrwt>
</event>
<event>
 5    1  0.3286491E-002  0.1250084E+03  0.7818608E-02  0.1235056E+00
         -4   -1    0    0    0  501 -0.00000000000E+00  0.00000000000E+00  0.47784042191E+02  0.47800916184E+02  0.12700000000E+01 0.  1.
          4   -1    0    0  501    0  0.00000000000E+00 -0.00000000000E+00 -0.81722726344E+02  0.81732593872E+02  0.12700000000E+01 0.  1.
         25    2    1    2    0    0  0.00000000000E+00  0.00000000000E+00 -0.33938684153E+02  0.12953351006E+03  0.12500838350E+03 0.  0.
    9000005    1    3    3    0    0  0.71071229357E+01 -0.36690614261E+02 -0.68873082706E+02  0.78365897511E+02  0.10000000000E+01 0.  0.
    9000005    1    3    3    0    0 -0.71071229357E+01  0.36690614261E+02  0.34934398553E+02  0.51167612545E+02  0.10000000000E+01 0.  0.
<mgrwt>
<rscale>  0 0.12500838E+03</rscale>
<asrwt>0</asrwt>
<pdfrwt beam="2">  1        4 0.12574784E-01 0.12500838E+03</pdfrwt>
<pdfrwt beam="1">  1       -4 0.73534481E-02 0.12500838E+03</pdfrwt>
<totfact> 0.10352537E+04</totfact>
</mgrwt>
</event>
<event>
 5    1  0.3286491E-002  0.1249988E+03  0.7818608E-02  0.1235071E+00
          4   -1    0    0  501    0  0.00000000000E+00  0.00000000000E+00  0.28839236800E+03  0.28839516435E+03  0.12700000000E+01 0.  1.
         -4   -1    0    0    0  501 -0.00000000000E+00 -0.00000000000E+00 -0.13512016654E+02  0.13571569329E+02  0.12700000000E+01 0.  1.
         25    2    1    2    0    0  0.00000000000E+00  0.00000000000E+00  0.27488035134E+03  0.30196673368E+03  0.12499880277E+03 0.  0.
    9000005    1    3    3    0    0 -0.44730159240E+02  0.40797065265E+02  0.10001640417E+03  0.11691650347E+03  0.10000000000E+01 0.  0.
    9000005    1    3    3    0    0  0.44730159240E+02 -0.40797065265E+02  0.17486394717E+03  0.18505023021E+03  0.10000000000E+01 0.  0.
<mgrwt>
<rscale>  0 0.12499880E+03</rscale>
<asrwt>0</asrwt>
<pdfrwt beam="1">  1        4 0.44372853E-01 0.12499880E+03</pdfrwt>
<pdfrwt beam="2">  1       -4 0.20835679E-02 0.12499880E+03</pdfrwt>
<totfact> 0.75354796E+03</totfact>
</mgrwt>
</event>
<event>
 5    1  0.3286491E-002  0.1250017E+03  0.7818608E-02  0.1235067E+00
         -4   -1    0    0    0  501 -0.00000000000E+00  0.00000000000E+00  0.88145993331E+02  0.88155141882E+02  0.12700000000E+01 0. -1.
          4   -1    0    0  501    0  0.00000000000E+00 -0.00000000000E+00 -0.44296321595E+02  0.44314523655E+02  0.12700000000E+01 0. -1.
         25    2    1    2    0    0  0.00000000000E+00  0.00000000000E+00  0.43849671736E+02  0.13246966554E+03  0.12500167429E+03 0.  0.
    9000005    1    3    3    0    0 -0.22870612942E+02 -0.48176477962E+02  0.56448994576E+02  0.77662905907E+02  0.10000000000E+01 0.  0.
    9000005    1    3    3    0    0  0.22870612942E+02  0.48176477962E+02 -0.12599322840E+02  0.54806759631E+02  0.10000000000E+01 0.  0.
<mgrwt>
<rscale>  0 0.12500167E+03</rscale>
<asrwt>0</asrwt>
<pdfrwt beam="2">  1        4 0.68169227E-02 0.12500167E+03</pdfrwt>
<pdfrwt beam="1">  1       -4 0.13563026E-01 0.12500167E+03</pdfrwt>
<totfact> 0.10291295E+04</totfact>
</mgrwt>
</event>
<event>
 5    1  0.3286491E-002  0.1249999E+03  0.7818608E-02  0.1235069E+00
         -4   -1    0    0    0  501 -0.00000000000E+00  0.00000000000E+00  0.13763176701E+02  0.13821647257E+02  0.12700000000E+01 0.  1.
          4   -1    0    0  501    0  0.00000000000E+00 -0.00000000000E+00 -0.28315714572E+03  0.28315999378E+03  0.12700000000E+01 0.  1.
         25    2    1    2    0    0  0.00000000000E+00  0.00000000000E+00 -0.26939396902E+03  0.29698164103E+03  0.12499993825E+03 0.  0.
    9000005    1    3    3    0    0 -0.42991512122E+02  0.44277830654E+02 -0.11136399787E+03  0.12732531729E+03  0.10000000000E+01 0.  0.
    9000005    1    3    3    0    0  0.42991512122E+02 -0.44277830654E+02 -0.15802997115E+03  0.16965632374E+03  0.10000000000E+01 0.  0.
<mgrwt>
<rscale>  0 0.12499994E+03</rscale>
<asrwt>0</asrwt>
<pdfrwt beam="2">  1        4 0.43567350E-01 0.12499994E+03</pdfrwt>
<pdfrwt beam="1">  1       -4 0.21221288E-02 0.12499994E+03</pdfrwt>
<totfact> 0.75979129E+03</totfact>
</mgrwt>
</event>
<event>
 5    1  0.3286491E-002  0.1249994E+03  0.7818608E-02  0.1235070E+00
          4   -1    0    0  501    0  0.00000000000E+00  0.00000000000E+00  0.72774660059E+02  0.72785740682E+02  0.12700000000E+01 0.  1.
         -4   -1    0    0    0  501 -0.00000000000E+00 -0.00000000000E+00 -0.53652728366E+02  0.53667757184E+02  0.12700000000E+01 0.  1.
         25    2    1    2    0    0  0.00000000000E+00  0.00000000000E+00  0.19121931693E+02  0.12645349787E+03  0.12499935540E+03 0.  0.
    9000005    1    3    3    0    0  0.39898702290E+02 -0.42947370055E+02  0.31465258332E+02  0.66539052600E+02  0.10000000000E+01 0.  0.
    9000005    1    3    3    0    0 -0.39898702290E+02  0.42947370055E+02 -0.12343326640E+02  0.59914445266E+02  0.10000000000E+01 0.  0.
<mgrwt>
<rscale>  0 0.12499936E+03</rscale>
<asrwt>0</asrwt>
<pdfrwt beam="1">  1        4 0.11198110E-01 0.12499936E+03</pdfrwt>
<pdfrwt beam="2">  1       -4 0.82562744E-02 0.12499936E+03</pdfrwt>
<totfact> 0.10421194E+04</totfact>
</mgrwt>
</event>
<event>
 5    1  0.3286491E-002  0.1249976E+03  0.7818608E-02  0.1235073E+00
          4   -1    0    0  501    0  0.00000000000E+00  0.00000000000E+00  0.84496652036E+01  0.85445738368E+01  0.12700000000E+01 0. -1.
         -4   -1    0    0    0  501 -0.00000000000E+00 -0.00000000000E+00 -0.45960120149E+03  0.45960295616E+03  0.12700000000E+01 0. -1.
         25    2    1    2    0    0  0.00000000000E+00  0.00000000000E+00 -0.45115153629E+03  0.46814753000E+03  0.12499760457E+03 0.  0.
    9000005    1    3    3    0    0 -0.16961084202E+02  0.26238496330E+01 -0.53201332171E+00  0.17200174487E+02  0.10000000000E+01 0.  0.
    9000005    1    3    3    0    0  0.16961084202E+02 -0.26238496330E+01 -0.45061952296E+03  0.45094735551E+03  0.10000000000E+01 0.  0.
<mgrwt>
<rscale>  0 0.12499760E+03</rscale>
<asrwt>0</asrwt>
<pdfrwt beam="1">  1        4 0.13073845E-02 0.12499760E+03</pdfrwt>
<pdfrwt beam="2">  1       -4 0.70715293E-01 0.12499760E+03</pdfrwt>
<totfact> 0.58426381E+03</totfact>
</mgrwt>
</event>
<event>
 5    1  0.3286491E-002  0.1249996E+03  0.7818608E-02  0.1235070E+00
         -4   -1    0    0    0  501 -0.00000000000E+00  0.00000000000E+00  0.14335757079E+02  0.14391901578E+02  0.12700000000E+01 0. -1.
          4   -1    0    0  501    0  0.00000000000E+00 -0.00000000000E+00 -0.27189113404E+03  0.27189410010E+03  0.12700000000E+01 0. -1.
         25    2    1    2    0    0  0.00000000000E+00  0.00000000000E+00 -0.25755537696E+03  0.28628600168E+03  0.12499961022E+03 0.  0.
    9000005    1    3    3    0    0  0.50491539669E+02  0.35476466152E+02 -0.15136357674E+03  0.16346225127E+03  0.10000000000E+01 0.  0.
    9000005    1    3    3    0    0 -0.50491539669E+02 -0.35476466152E+02 -0.10619180022E+03  0.12282375040E+03  0.10000000000E+01 0.  0.
<mgrwt>
<rscale>  0 0.12499961E+03</rscale>
<asrwt>0</asrwt>
<pdfrwt beam="2">  1        4 0.41833948E-01 0.12499961E+03</pdfrwt>
<pdfrwt beam="1">  1       -4 0.22100483E-02 0.12499961E+03</pdfrwt>
<totfact> 0.77352614E+03</totfact>
</mgrwt>
</event>
<event>
 5    1  0.3286491E-002  0.1250044E+03  0.7818608E-02  0.1235062E+00
         -4   -1    0    0    0  501 -0.00000000000E+00  0.00000000000E+00  0.22448799715E+03  0.22449158952E+03  0.12700000000E+01 0.  1.
          4   -1    0    0  501    0  0.00000000000E+00 -0.00000000000E+00 -0.17375025925E+02  0.17421378415E+02  0.12700000000E+01 0.  1.
         25    2    1    2    0    0  0.00000000000E+00  0.00000000000E+00  0.20711297123E+03  0.24191296794E+03  0.12500440474E+03 0.  0.
    9000005    1    3    3    0    0  0.39952967714E+02 -0.15529894075E+02  0.15548831034E+02  0.45609027458E+02  0.10000000000E+01 0.  0.
    9000005    1    3    3    0    0 -0.39952967714E+02  0.15529894075E+02  0.19156414020E+03  0.19630394048E+03  0.10000000000E+01 0.  0.
<mgrwt>
<rscale>  0 0.12500440E+03</rscale>
<asrwt>0</asrwt>
<pdfrwt beam="2">  1        4 0.26769228E-02 0.12500440E+03</pdfrwt>
<pdfrwt beam="1">  1       -4 0.34540458E-01 0.12500440E+03</pdfrwt>
<totfact> 0.83505087E+03</totfact>
</mgrwt>
</event>
<event>
 5    1  0.3286491E-002  0.1250032E+03  0.7818608E-02  0.1235064E+00
         -4   -1    0    0    0  501 -0.00000000000E+00  0.00000000000E+00  0.83985928292E+02  0.83995529947E+02  0.12700000000E+01 0. -1.
          4   -1    0    0  501    0  0.00000000000E+00 -0.00000000000E+00 -0.46492185258E+02  0.46509527949E+02  0.12700000000E+01 0. -1.
         25    2    1    2    0    0  0.00000000000E+00  0.00000000000E+00  0.37493743034E+02  0.13050505790E+03  0.12500315744E+03 0.  0.
    9000005    1    3    3    0    0 -0.10394811576E+02  0.39093514131E+02  0.68478473608E+02  0.79540281006E+02  0.10000000000E+01 0.  0.
    9000005    1    3    3    0    0  0.10394811576E+02 -0.39093514131E+02 -0.30984730574E+02  0.50964776891E+02  0.10000000000E+01 0.  0.
<mgrwt>
<rscale>  0 0.12500316E+03</rscale>
<asrwt>0</asrwt>
<pdfrwt beam="2">  1        4 0.71547166E-02 0.12500316E+03</pdfrwt>
<pdfrwt beam="1">  1       -4 0.12922985E-01 0.12500316E+03</pdfrwt>
<totfact> 0.10332976E+04</totfact>
</mgrwt>
</event>
<event>
 5    1  0.3286491E-002  0.1249912E+03  0.7818608E-02  0.1235083E+00
         -4   -1    0    0    0  501 -0.00000000000E+00  0.00000000000E+00  0.34031994060E+02  0.34055682634E+02  0.12700000000E+01 0. -1.
          4   -1    0    0  501    0  0.00000000000E+00 -0.00000000000E+00 -0.11469841582E+03  0.11470544665E+03  0.12700000000E+01 0. -1.
         25    2    1    2    0    0  0.00000000000E+00  0.00000000000E+00 -0.80666421756E+02  0.14876112928E+03  0.12499120764E+03 0.  0.
    9000005    1    3    3    0    0  0.15915651458E+02 -0.46606399757E+02  0.54418300900E+01  0.49558833464E+02  0.10000000000E+01 0.  0.
    9000005    1    3    3    0    0 -0.15915651458E+02  0.46606399757E+02 -0.86108251846E+02  0.99202295818E+02  0.10000000000E+01 0.  0.
<mgrwt>
<rscale>  0 0.12499121E+03</rscale>
<asrwt>0</asrwt>
<pdfrwt beam="2">  1        4 0.17648273E-01 0.12499121E+03</pdfrwt>
<pdfrwt beam="1">  1       -4 0.52380545E-02 0.12499121E+03</pdfrwt>
<totfact> 0.99570928E+03</totfact>
</mgrwt>
</event>
<event>
 5    1  0.3286491E-002  0.1250016E+03  0.7818608E-02  0.1235067E+00
         -4   -1    0    0    0  501 -0.00000000000E+00  0.00000000000E+00  0.63238241226E+03  0.63238368752E+03  0.12700000000E+01 0.  1.
          4   -1    0    0  501    0  0.00000000000E+00 -0.00000000000E+00 -0.61106288027E+01  0.62412085660E+01  0.12700000000E+01 0.  1.
         25    2    1    2    0    0  0.00000000000E+00  0.00000000000E+00  0.62627178346E+03  0.63862489608E+03  0.12500164455E+03 0.  0.
    9000005    1    3    3    0    0 -0.48117781477E+02 -0.22012867404E+02  0.14327135200E+03  0.15273364897E+03  0.10000000000E+01 0.  0.
    9000005    1    3    3    0    0  0.48117781477E+02  0.22012867404E+02  0.48300043146E+03  0.48589124711E+03  0.10000000000E+01 0.  0.
<mgrwt>
<rscale>  0 0.12500164E+03</rscale>
<asrwt>0</asrwt>
<pdfrwt beam="2">  1        4 0.95024014E-03 0.12500164E+03</pdfrwt>
<pdfrwt beam="1">  1       -4 0.97299672E-01 0.12500164E+03</pdfrwt>
<totfact> 0.46515180E+03</totfact>
</mgrwt>
</event>
<event>
 5    1  0.3286491E-002  0.1250037E+03  0.7818608E-02  0.1235063E+00
         -4   -1    0    0    0  501 -0.00000000000E+00  0.00000000000E+00  0.30933830123E+02  0.30959889309E+02  0.12700000000E+01 0.  1.
          4   -1    0    0  501    0  0.00000000000E+00 -0.00000000000E+00 -0.12620272454E+03  0.12620911449E+03  0.12700000000E+01 0.  1.
         25    2    1    2    0    0  0.00000000000E+00  0.00000000000E+00 -0.95268894413E+02  0.15716900380E+03  0.12500373399E+03 0.  0.
    9000005    1    3    3    0    0  0.52896718394E+02 -0.24237663501E+02 -0.76304421742E+02  0.95962971641E+02  0.10000000000E+01 0.  0.
    9000005    1    3    3    0    0 -0.52896718394E+02  0.24237663501E+02 -0.18964472671E+02  0.61206032158E+02  0.10000000000E+01 0.  0.
<mgrwt>
<rscale>  0 0.12500373E+03</rscale>
<asrwt>0</asrwt>
<pdfrwt beam="2">  1        4 0.19418300E-01 0.12500373E+03</pdfrwt>
<pdfrwt beam="1">  1       -4 0.47615469E-02 0.12500373E+03</pdfrwt>
<totfact> 0.97883153E+03</totfact>
</mgrwt>
</event>
<event>
 5    1  0.3286491E-002  0.1250017E+03  0.7818608E-02  0.1235067E+00
          4   -1    0    0  501    0  0.00000000000E+00  0.00000000000E+00  0.13198427466E+02  0.13259388657E+02  0.12700000000E+01 0. -1.
         -4   -1    0    0    0  501 -0.00000000000E+00 -0.00000000000E+00 -0.29522700355E+03  0.29522973517E+03  0.12700000000E+01 0. -1.
         25    2    1    2    0    0  0.00000000000E+00  0.00000000000E+00 -0.28202857609E+03  0.30848912382E+03  0.12500168714E+03 0.  0.
    9000005    1    3    3    0    0  0.38665259473E+02  0.46473790720E+02 -0.10195156982E+03  0.11853243482E+03  0.10000000000E+01 0.  0.
    9000005    1    3    3    0    0 -0.38665259473E+02 -0.46473790720E+02 -0.18007700626E+03  0.18995668901E+03  0.10000000000E+01 0.  0.
<mgrwt>
<rscale>  0 0.12500169E+03</rscale>
<asrwt>0</asrwt>
<pdfrwt beam="1">  1        4 0.20354270E-02 0.12500169E+03</pdfrwt>
<pdfrwt beam="2">  1       -4 0.45424433E-01 0.12500169E+03</pdfrwt>
<totfact> 0.74543381E+03</totfact>
</mgrwt>
</event>
<event>
 4    1  0.3286491E-002  0.1249113E+03  0.7818608E-02  0.1235208E+00
         -4   -1    0    0    0  501 -0.00000000000E+00  0.00000000000E+00  0.39999518630E+02  0.40019675044E+02  0.12700000000E+01 0. -1.
          4   -1    0    0  501    0  0.00000000000E+00 -0.00000000000E+00 -0.97470005022E+02  0.97478278499E+02  0.12700000000E+01 0. -1.
    9000005    1    1    2    0    0 -0.45898260143E+02 -0.10606399441E+02  0.16390229028E+02  0.49887729963E+02  0.10000000000E+01 0.  0.
    9000005    1    1    2    0    0  0.45898260143E+02  0.10606399441E+02 -0.73860715421E+02  0.87610223580E+02  0.10000000000E+01 0.  0.
<mgrwt>
<rscale>  0 0.12491129E+03</rscale>
<asrwt>0</asrwt>
<pdfrwt beam="2">  1        4 0.14997572E-01 0.12491129E+03</pdfrwt>
<pdfrwt beam="1">  1       -4 0.61559591E-02 0.12491129E+03</pdfrwt>
<totfact> 0.10206083E+04</totfact>
</mgrwt>
</event>
<event>
 5    1  0.3286491E-002  0.1250008E+03  0.7818608E-02  0.1235068E+00
          4   -1    0    0  501    0  0.00000000000E+00  0.00000000000E+00  0.32338122373E+02  0.32363050823E+02  0.12700000000E+01 0. -1.
         -4   -1    0    0    0  501 -0.00000000000E+00 -0.00000000000E+00 -0.12072065434E+03  0.12072733445E+03  0.12700000000E+01 0. -1.
         25    2    1    2    0    0  0.00000000000E+00  0.00000000000E+00 -0.88382531965E+02  0.15309038528E+03  0.12500077643E+03 0.  0.
    9000005    1    3    3    0    0  0.35110920810E+02  0.50024109184E+02 -0.28217751915E+02  0.67323322726E+02  0.10000000000E+01 0.  0.
    9000005    1    3    3    0    0 -0.35110920810E+02 -0.50024109184E+02 -0.60164780050E+02  0.85767062549E+02  0.10000000000E+01 0.  0.
<mgrwt>
<rscale>  0 0.12500078E+03</rscale>
<asrwt>0</asrwt>
<pdfrwt beam="1">  1        4 0.49775273E-02 0.12500078E+03</pdfrwt>
<pdfrwt beam="2">  1       -4 0.18574840E-01 0.12500078E+03</pdfrwt>
<totfact> 0.98689481E+03</totfact>
</mgrwt>
</event>
<event>
 5    1  0.3286491E-002  0.1249996E+03  0.7818608E-02  0.1235070E+00
         -4   -1    0    0    0  501 -0.00000000000E+00  0.00000000000E+00  0.56578311131E+03  0.56578453668E+03  0.12700000000E+01 0. -1.
          4   -1    0    0  501    0  0.00000000000E+00 -0.00000000000E+00 -0.68442488382E+01  0.69610805310E+01  0.12700000000E+01 0. -1.
         25    2    1    2    0    0  0.00000000000E+00  0.00000000000E+00  0.55893886247E+03  0.57274561721E+03  0.12499956020E+03 0.  0.
    9000005    1    3    3    0    0 -0.17810069005E+02  0.27915730457E+02  0.36635849370E+02  0.49393036188E+02  0.10000000000E+01 0.  0.
    9000005    1    3    3    0    0  0.17810069005E+02 -0.27915730457E+02  0.52230301310E+03  0.52335258102E+03  0.10000000000E+01 0.  0.
<mgrwt>
<rscale>  0 0.12499956E+03</rscale>
<asrwt>0</asrwt>
<pdfrwt beam="2">  1        4 0.10620578E-02 0.12499956E+03</pdfrwt>
<pdfrwt beam="1">  1       -4 0.87052675E-01 0.12499956E+03</pdfrwt>
<totfact> 0.50634931E+03</totfact>
</mgrwt>
</event>
<event>
 5    1  0.3286491E-002  0.1249798E+03  0.7818608E-02  0.1235101E+00
          4   -1    0    0  501    0  0.00000000000E+00  0.00000000000E+00  0.43811709105E+01  0.45615302857E+01  0.12700000000E+01 0. -1.
         -4   -1    0    0    0  501 -0.00000000000E+00 -0.00000000000E+00 -0.87315448134E+03  0.87315540494E+03  0.12700000000E+01 0. -1.
         25    2    1    2    0    0  0.00000000000E+00  0.00000000000E+00 -0.86877331043E+03  0.87771693523E+03  0.12497981227E+03 0.  0.
    9000005    1    3    3    0    0  0.16074315570E+02 -0.60377034800E+02 -0.43766879806E+03  0.44210716659E+03  0.10000000000E+01 0.  0.
    9000005    1    3    3    0    0 -0.16074315570E+02  0.60377034800E+02 -0.43110451236E+03  0.43560976864E+03  0.10000000000E+01 0.  0.
<mgrwt>
<rscale>  0 0.12497981E+03</rscale>
<asrwt>0</asrwt>
<pdfrwt beam="1">  1        4 0.68797183E-03 0.12497981E+03</pdfrwt>
<pdfrwt beam="2">  1       -4 0.13434527E+00 0.12497981E+03</pdfrwt>
<totfact> 0.35034651E+03</totfact>
</mgrwt>
</event>
<event>
 5    1  0.3286491E-002  0.1250026E+03  0.7818608E-02  0.1235065E+00
          4   -1    0    0  501    0  0.00000000000E+00  0.00000000000E+00  0.24541215013E+02  0.24574054088E+02  0.12700000000E+01 0. -1.
         -4   -1    0    0    0  501 -0.00000000000E+00 -0.00000000000E+00 -0.15903583348E+03  0.15904090427E+03  0.12700000000E+01 0. -1.
         25    2    1    2    0    0  0.00000000000E+00  0.00000000000E+00 -0.13449461847E+03  0.18361495836E+03  0.12500260212E+03 0.  0.
    9000005    1    3    3    0    0  0.59696057105E+01  0.54468653055E+02 -0.11138595442E+03  0.12413823424E+03  0.10000000000E+01 0.  0.
    9000005    1    3    3    0    0 -0.59696057105E+01 -0.54468653055E+02 -0.23108664050E+02  0.59476724120E+02  0.10000000000E+01 0.  0.
<mgrwt>
<rscale>  0 0.12500260E+03</rscale>
<asrwt>0</asrwt>
<pdfrwt beam="1">  1        4 0.37784878E-02 0.12500260E+03</pdfrwt>
<pdfrwt beam="2">  1       -4 0.24469967E-01 0.12500260E+03</pdfrwt>
<totfact> 0.92964895E+03</totfact>
</mgrwt>
</event>
<event>
 5    1  0.3286491E-002  0.1249984E+03  0.7818608E-02  0.1235072E+00
          4   -1    0    0  501    0  0.00000000000E+00  0.00000000000E+00  0.34678088514E+03  0.34678321066E+03  0.12700000000E+01 0.  1.
         -4   -1    0    0    0  501 -0.00000000000E+00 -0.00000000000E+00 -0.11225856598E+02  0.11297466812E+02  0.12700000000E+01 0.  1.
         25    2    1    2    0    0  0.00000000000E+00  0.00000000000E+00  0.33555502854E+03  0.35808067747E+03  0.12499837760E+03 0.  0.
    9000005    1    3    3    0    0  0.76725670990E+01 -0.30782021304E+02  0.32201207550E+03  0.32357252339E+03  0.10000000000E+01 0.  0.
    9000005    1    3    3    0    0 -0.76725670990E+01  0.30782021304E+02  0.13542953035E+02  0.34508154085E+02  0.10000000000E+01 0.  0.
<mgrwt>
<rscale>  0 0.12499838E+03</rscale>
<asrwt>0</asrwt>
<pdfrwt beam="1">  1        4 0.53356585E-01 0.12499838E+03</pdfrwt>
<pdfrwt beam="2">  1       -4 0.17327425E-02 0.12499838E+03</pdfrwt>
<totfact> 0.68847110E+03</totfact>
</mgrwt>
</event>
<event>
 5    1  0.3286491E-002  0.1249972E+03  0.7818608E-02  0.1235074E+00
          4   -1    0    0  501    0  0.00000000000E+00  0.00000000000E+00  0.22384305315E+02  0.22420303843E+02  0.12700000000E+01 0.  1.
         -4   -1    0    0    0  501 -0.00000000000E+00 -0.00000000000E+00 -0.17432212969E+03  0.17432675583E+03  0.12700000000E+01 0.  1.
         25    2    1    2    0    0  0.00000000000E+00  0.00000000000E+00 -0.15193782438E+03  0.19674705968E+03  0.12499721203E+03 0.  0.
    9000005    1    3    3    0    0  0.59221369783E+02  0.14119600491E+02 -0.53790312761E+02  0.81246116855E+02  0.10000000000E+01 0.  0.
    9000005    1    3    3    0    0 -0.59221369783E+02 -0.14119600491E+02 -0.98147511614E+02  0.11550094282E+03  0.10000000000E+01 0.  0.
<mgrwt>
<rscale>  0 0.12499721E+03</rscale>
<asrwt>0</asrwt>
<pdfrwt beam="1">  1        4 0.34468644E-02 0.12499721E+03</pdfrwt>
<pdfrwt beam="2">  1       -4 0.26821913E-01 0.12499721E+03</pdfrwt>
<totfact> 0.90692081E+03</totfact>
</mgrwt>
</event>
<event>
 5    1  0.3286491E-002  0.1249988E+03  0.7818608E-02  0.1235071E+00
         -4   -1    0    0    0  501 -0.00000000000E+00  0.00000000000E+00  0.14182981977E+03  0.14183550569E+03  0.12700000000E+01 0.  1.
          4   -1    0    0  501    0  0.00000000000E+00 -0.00000000000E+00 -0.27520396279E+02  0.27549684415E+02  0.12700000000E+01 0.  1.
         25    2    1    2    0    0  0.00000000000E+00  0.00000000000E+00  0.11430942349E+03  0.16938519011E+03  0.12499879331E+03 0.  0.
    9000005    1    3    3    0    0 -0.56543028425E+02  0.12057825122E+02  0.25010983086E+02  0.63000432419E+02  0.10000000000E+01 0.  0.
    9000005    1    3    3    0    0  0.56543028425E+02 -0.12057825122E+02  0.89298440402E+02  0.10638475769E+03  0.10000000000E+01 0.  0.
<mgrwt>
<rscale>  0 0.12499879E+03</rscale>
<asrwt>0</asrwt>
<pdfrwt beam="2">  1        4 0.42365975E-02 0.12499879E+03</pdfrwt>
<pdfrwt beam="1">  1       -4 0.21822662E-01 0.12499879E+03</pdfrwt>
<totfact> 0.95565881E+03</totfact>
</mgrwt>
</event>
<event>
 5    1  0.3286491E-002  0.1250002E+03  0.7818608E-02  0.1235069E+00
         -4   -1    0    0    0  501 -0.00000000000E+00  0.00000000000E+00  0.86163958275E+01  0.87094877608E+01  0.12700000000E+01 0. -1.
          4   -1    0    0  501    0  0.00000000000E+00 -0.00000000000E+00 -0.45082238888E+03  0.45082417772E+03  0.12700000000E+01 0. -1.
         25    2    1    2    0    0  0.00000000000E+00  0.00000000000E+00 -0.44220599306E+03  0.45953366548E+03  0.12500019767E+03 0.  0.
    9000005    1    3    3    0    0  0.15073485660E+02 -0.53242107308E+02 -0.11434374757E+03  0.12703316327E+03  0.10000000000E+01 0.  0.
    9000005    1    3    3    0    0 -0.15073485660E+02  0.53242107308E+02 -0.32786224548E+03  0.33250050222E+03  0.10000000000E+01 0.  0.
<mgrwt>
<rscale>  0 0.12500020E+03</rscale>
<asrwt>0</asrwt>
<pdfrwt beam="2">  1        4 0.69364571E-01 0.12500020E+03</pdfrwt>
<pdfrwt beam="1">  1       -4 0.13328982E-02 0.12500020E+03</pdfrwt>
<totfact> 0.59146452E+03</totfact>
</mgrwt>
</event>
<event>
 5    1  0.3286491E-002  0.1250005E+03  0.7818608E-02  0.1235068E+00
         -4   -1    0    0    0  501 -0.00000000000E+00  0.00000000000E+00  0.74336476021E+03  0.74336584507E+03  0.12700000000E+01 0. -1.
          4   -1    0    0  501    0  0.00000000000E+00 -0.00000000000E+00 -0.51770286760E+01  0.53305277330E+01  0.12700000000E+01 0. -1.
         25    2    1    2    0    0  0.00000000000E+00  0.00000000000E+00  0.73818773153E+03  0.74869637280E+03  0.12500052666E+03 0.  0.
    9000005    1    3    3    0    0  0.81138489550E+00 -0.72125706025E+01  0.74086103782E+03  0.74089726473E+03  0.10000000000E+01 0.  0.
    9000005    1    3    3    0    0 -0.81138489550E+00  0.72125706025E+01 -0.26733062953E+01  0.77991080704E+01  0.10000000000E+01 0.  0.
<mgrwt>
<rscale>  0 0.12500053E+03</rscale>
<asrwt>0</asrwt>
<pdfrwt beam="2">  1        4 0.80835780E-03 0.12500053E+03</pdfrwt>
<pdfrwt beam="1">  1       -4 0.11437559E+00 0.12500053E+03</pdfrwt>
<totfact> 0.40636130E+03</totfact>
</mgrwt>
</event>
<event>
 5    1  0.3286491E-002  0.1250023E+03  0.7818608E-02  0.1235066E+00
          4   -1    0    0  501    0  0.00000000000E+00  0.00000000000E+00  0.20181907052E+03  0.20182306638E+03  0.12700000000E+01 0.  1.
         -4   -1    0    0    0  501 -0.00000000000E+00 -0.00000000000E+00 -0.19330892315E+02  0.19372565594E+02  0.12700000000E+01 0.  1.
         25    2    1    2    0    0  0.00000000000E+00  0.00000000000E+00  0.18248817820E+03  0.22119563198E+03  0.12500228967E+03 0.  0.
    9000005    1    3    3    0    0 -0.99982130616E+01  0.16829340949E+02  0.19626256612E+03  0.19723890550E+03  0.10000000000E+01 0.  0.
    9000005    1    3    3    0    0  0.99982130616E+01 -0.16829340949E+02 -0.13774387918E+02  0.23956726482E+02  0.10000000000E+01 0.  0.
<mgrwt>
<rscale>  0 0.12500229E+03</rscale>
<asrwt>0</asrwt>
<pdfrwt beam="1">  1        4 0.31052600E-01 0.12500229E+03</pdfrwt>
<pdfrwt beam="2">  1       -4 0.29774966E-02 0.12500229E+03</pdfrwt>
<totfact> 0.86675077E+03</totfact>
</mgrwt>
</event>
<event>
 5    1  0.3286491E-002  0.1250038E+03  0.7818608E-02  0.1235063E+00
          4   -1    0    0  501    0  0.00000000000E+00  0.00000000000E+00  0.35648384058E+02  0.35670999229E+02  0.12700000000E+01 0.  1.
         -4   -1    0    0    0  501 -0.00000000000E+00 -0.00000000000E+00 -0.10952289542E+03  0.10953025848E+03  0.12700000000E+01 0.  1.
         25    2    1    2    0    0  0.00000000000E+00  0.00000000000E+00 -0.73874511364E+02  0.14520125770E+03  0.12500384718E+03 0.  0.
    9000005    1    3    3    0    0 -0.52986582492E+02  0.30520013363E+02 -0.21951537370E+02  0.64976296699E+02  0.10000000000E+01 0.  0.
    9000005    1    3    3    0    0  0.52986582492E+02 -0.30520013363E+02 -0.51922973994E+02  0.80224961005E+02  0.10000000000E+01 0.  0.
<mgrwt>
<rscale>  0 0.12500385E+03</rscale>
<asrwt>0</asrwt>
<pdfrwt beam="1">  1        4 0.54866729E-02 0.12500385E+03</pdfrwt>
<pdfrwt beam="2">  1       -4 0.16851982E-01 0.12500385E+03</pdfrwt>
<totfact> 0.10026032E+04</totfact>
</mgrwt>
</event>
<event>
 5    1  0.3286491E-002  0.1249994E+03  0.7818608E-02  0.1235070E+00
          4   -1    0    0  501    0  0.00000000000E+00  0.00000000000E+00  0.41227093684E+03  0.41227289296E+03  0.12700000000E+01 0.  1.
         -4   -1    0    0    0  501 -0.00000000000E+00 -0.00000000000E+00 -0.94303221593E+01  0.95154545886E+01  0.12700000000E+01 0.  1.
         25    2    1    2    0    0  0.00000000000E+00  0.00000000000E+00  0.40284061469E+03  0.42178834755E+03  0.12499939714E+03 0.  0.
    9000005    1    3    3    0    0  0.63396891765E+01 -0.75123717808E+01 -0.68217671999E+01  0.12006827073E+02  0.10000000000E+01 0.  0.
    9000005    1    3    3    0    0 -0.63396891765E+01  0.75123717808E+01  0.40966238189E+03  0.40978152047E+03  0.10000000000E+01 0.  0.
<mgrwt>
<rscale>  0 0.12499940E+03</rscale>
<asrwt>0</asrwt>
<pdfrwt beam="1">  1        4 0.63432993E-01 0.12499940E+03</pdfrwt>
<pdfrwt beam="2">  1       -4 0.14575180E-02 0.12499940E+03</pdfrwt>
<totfact> 0.62488278E+03</totfact>
</mgrwt>
</event>
<event>
 5    1  0.3286491E-002  0.1250016E+03  0.7818608E-02  0.1235067E+00
          4   -1    0    0  501    0  0.00000000000E+00  0.00000000000E+00  0.79127900063E+02  0.79138091134E+02  0.12700000000E+01 0.  1.
         -4   -1    0    0    0  501 -0.00000000000E+00 -0.00000000000E+00 -0.49346029466E+02  0.49362369515E+02  0.12700000000E+01 0.  1.
         25    2    1    2    0    0  0.00000000000E+00  0.00000000000E+00  0.29781870596E+02  0.12850046065E+03  0.12500163427E+03 0.  0.
    9000005    1    3    3    0    0  0.17606462208E+02  0.56355152965E+02  0.35944952656E+02  0.69129808322E+02  0.10000000000E+01 0.  0.
    9000005    1    3    3    0    0 -0.17606462208E+02 -0.56355152965E+02 -0.61630820603E+01  0.59370652326E+02  0.10000000000E+01 0.  0.
<mgrwt>
<rscale>  0 0.12500163E+03</rscale>
<asrwt>0</asrwt>
<pdfrwt beam="1">  1        4 0.12175564E-01 0.12500163E+03</pdfrwt>
<pdfrwt beam="2">  1       -4 0.75937377E-02 0.12500163E+03</pdfrwt>
<totfact> 0.10376311E+04</totfact>
</mgrwt>
</event>
<event>
 5    1  0.3286491E-002  0.1250052E+03  0.7818608E-02  0.1235061E+00
          4   -1    0    0  501    0  0.00000000000E+00  0.00000000000E+00  0.11952665933E+03  0.11953340617E+03  0.12700000000E+01 0. -1.
         -4   -1    0    0    0  501 -0.00000000000E+00 -0.00000000000E+00 -0.32663706878E+02  0.32688387036E+02  0.12700000000E+01 0. -1.
         25    2    1    2    0    0  0.00000000000E+00  0.00000000000E+00  0.86862952449E+02  0.15222179320E+03  0.12500520716E+03 0.  0.
    9000005    1    3    3    0    0 -0.27467375440E+02 -0.74026192509E+01 -0.24328250588E+02  0.37444882988E+02  0.10000000000E+01 0.  0.
    9000005    1    3    3    0    0  0.27467375440E+02  0.74026192509E+01  0.11119120304E+03  0.11477691021E+03  0.10000000000E+01 0.  0.
<mgrwt>
<rscale>  0 0.12500521E+03</rscale>
<asrwt>0</asrwt>
<pdfrwt beam="1">  1        4 0.18391134E-01 0.12500521E+03</pdfrwt>
<pdfrwt beam="2">  1       -4 0.50276032E-02 0.12500521E+03</pdfrwt>
<totfact> 0.98851065E+03</totfact>
</mgrwt>
</event>
<event>
 5    1  0.3286491E-002  0.1250014E+03  0.7818608E-02  0.1235067E+00
         -4   -1    0    0    0  501 -0.00000000000E+00  0.00000000000E+00  0.69128616434E+02  0.69140281386E+02  0.12700000000E+01 0. -1.
          4   -1    0    0  501    0  0.00000000000E+00 -0.00000000000E+00 -0.56484644148E+02  0.56498919676E+02  0.12700000000E+01 0. -1.
         25    2    1    2    0    0  0.00000000000E+00  0.00000000000E+00  0.12643972286E+02  0.12563920106E+03  0.12500135523E+03 0.  0.
    9000005    1    3    3    0    0 -0.20422666619E+02 -0.53063729546E+02  0.32386723849E+02  0.65442681690E+02  0.10000000000E+01 0.  0.
    9000005    1    3    3    0    0  0.20422666619E+02  0.53063729546E+02 -0.19742751563E+02  0.60196519371E+02  0.10000000000E+01 0.  0.
<mgrwt>
<rscale>  0 0.12500136E+03</rscale>
<asrwt>0</asrwt>
<pdfrwt beam="2">  1        4 0.86919407E-02 0.12500136E+03</pdfrwt>
<pdfrwt beam="1">  1       -4 0.10637167E-01 0.12500136E+03</pdfrwt>
<totfact> 0.10438564E+04</totfact>
</mgrwt>
</event>
<event>
 5    1  0.3286491E-002  0.1249991E+03  0.7818608E-02  0.1235071E+00
         -4   -1    0    0    0  501 -0.00000000000E+00  0.00000000000E+00  0.14712318217E+02  0.14767031094E+02  0.12700000000E+01 0. -1.
          4   -1    0    0  501    0  0.00000000000E+00 -0.00000000000E+00 -0.26495583286E+03  0.26495887655E+03  0.12700000000E+01 0. -1.
         25    2    1    2    0    0  0.00000000000E+00  0.00000000000E+00 -0.25024351464E+03  0.27972590765E+03  0.12499906716E+03 0.  0.
    9000005    1    3    3    0    0  0.43410896773E+02 -0.39534164862E+02 -0.77244061615E+02  0.97031444413E+02  0.10000000000E+01 0.  0.
    9000005    1    3    3    0    0 -0.43410896773E+02  0.39534164862E+02 -0.17299945302E+03  0.18269446323E+03  0.10000000000E+01 0.  0.
<mgrwt>
<rscale>  0 0.12499907E+03</rscale>
<asrwt>0</asrwt>
<pdfrwt beam="2">  1        4 0.40766875E-01 0.12499907E+03</pdfrwt>
<pdfrwt beam="1">  1       -4 0.22678766E-02 0.12499907E+03</pdfrwt>
<totfact> 0.78216085E+03</totfact>
</mgrwt>
</event>
<event>
 5    1  0.3286491E-002  0.1250058E+03  0.7818608E-02  0.1235060E+00
         -4   -1    0    0    0  501 -0.00000000000E+00  0.00000000000E+00  0.31038169639E+02  0.31064141297E+02  0.12700000000E+01 0.  1.
          4   -1    0    0  501    0  0.00000000000E+00 -0.00000000000E+00 -0.12578301020E+03  0.12578942147E+03  0.12700000000E+01 0.  1.
         25    2    1    2    0    0  0.00000000000E+00  0.00000000000E+00 -0.94744840557E+02  0.15685356277E+03  0.12500582123E+03 0.  0.
    9000005    1    3    3    0    0 -0.10907147286E+02 -0.55194405193E+02 -0.81511059267E+02  0.99047670389E+02  0.10000000000E+01 0.  0.
    9000005    1    3    3    0    0  0.10907147286E+02  0.55194405193E+02 -0.13233781290E+02  0.57805892380E+02  0.10000000000E+01 0.  0.
<mgrwt>
<rscale>  0 0.12500582E+03</rscale>
<asrwt>0</asrwt>
<pdfrwt beam="2">  1        4 0.19353723E-01 0.12500582E+03</pdfrwt>
<pdfrwt beam="1">  1       -4 0.47775941E-02 0.12500582E+03</pdfrwt>
<totfact> 0.97940026E+03</totfact>
</mgrwt>
</event>
<event>
 5    1  0.3286491E-002  0.1249988E+03  0.7818608E-02  0.1235071E+00
         -4   -1    0    0    0  501 -0.00000000000E+00  0.00000000000E+00  0.12084519911E+04  0.12084526584E+04  0.12700000000E+01 0.  1.
          4   -1    0    0  501    0  0.00000000000E+00 -0.00000000000E+00 -0.31069412996E+01  0.33564839102E+01  0.12700000000E+01 0.  1.
         25    2    1    2    0    0  0.00000000000E+00  0.00000000000E+00  0.12053450498E+04  0.12118091423E+04  0.12499883362E+03 0.  0.
    9000005    1    3    3    0    0 -0.59367238609E+02 -0.55461396432E+01  0.42131721297E+03  0.42551665377E+03  0.10000000000E+01 0.  0.
    9000005    1    3    3    0    0  0.59367238609E+02  0.55461396432E+01  0.78402783679E+03  0.78629248855E+03  0.10000000000E+01 0.  0.
<mgrwt>
<rscale>  0 0.12499883E+03</rscale>
<asrwt>0</asrwt>
<pdfrwt beam="2">  1        4 0.49723796E-03 0.12499883E+03</pdfrwt>
<pdfrwt beam="1">  1       -4 0.18593491E+00 0.12499883E+03</pdfrwt>
<totfact> 0.24406349E+03</totfact>
</mgrwt>
</event>
<event>
 5    1  0.3286491E-002  0.1250008E+03  0.7818608E-02  0.1235068E+00
         -4   -1    0    0    0  501 -0.00000000000E+00  0.00000000000E+00  0.71218699461E+03  0.71218812696E+03  0.12700000000E+01 0.  1.
          4   -1    0    0  501    0  0.00000000000E+00 -0.00000000000E+00 -0.54102675428E+01  0.55573280347E+01  0.12700000000E+01 0.  1.
         25    2    1    2    0    0  0.00000000000E+00  0.00000000000E+00  0.70677672707E+03  0.71774545500E+03  0.12500078500E+03 0.  0.
    9000005    1    3    3    0    0 -0.38926002838E+02  0.30525982664E+02  0.57265405736E+03  0.57478755965E+03  0.10000000000E+01 0.  0.
    9000005    1    3    3    0    0  0.38926002838E+02 -0.30525982664E+02  0.13412266971E+03  0.14295789535E+03  0.10000000000E+01 0.  0.
<mgrwt>
<rscale>  0 0.12500078E+03</rscale>
<asrwt>0</asrwt>
<pdfrwt beam="2">  1        4 0.84374845E-03 0.12500078E+03</pdfrwt>
<pdfrwt beam="1">  1       -4 0.10957861E+00 0.12500078E+03</pdfrwt>
<totfact> 0.42165619E+03</totfact>
</mgrwt>
</event>
<event>
 5    1  0.3286491E-002  0.1249911E+03  0.7818608E-02  0.1235083E+00
          4   -1    0    0  501    0  0.00000000000E+00  0.00000000000E+00  0.11398849507E+02  0.11469379673E+02  0.12700000000E+01 0.  1.
         -4   -1    0    0    0  501 -0.00000000000E+00 -0.00000000000E+00 -0.34151057926E+03  0.34151294067E+03  0.12700000000E+01 0.  1.
         25    2    1    2    0    0  0.00000000000E+00  0.00000000000E+00 -0.33011172975E+03  0.35298232034E+03  0.12499105710E+03 0.  0.
    9000005    1    3    3    0    0  0.20316738614E+02  0.56480645077E+02 -0.21412126261E+03  0.22237749040E+03  0.10000000000E+01 0.  0.
    9000005    1    3    3    0    0 -0.20316738614E+02 -0.56480645077E+02 -0.11599046714E+03  0.13060482994E+03  0.10000000000E+01 0.  0.
<mgrwt>
<rscale>  0 0.12499106E+03</rscale>
<asrwt>0</asrwt>
<pdfrwt beam="1">  1        4 0.17592765E-02 0.12499106E+03</pdfrwt>
<pdfrwt beam="2">  1       -4 0.52545688E-01 0.12499106E+03</pdfrwt>
<totfact> 0.69411443E+03</totfact>
</mgrwt>
</event>
<event>
 5    1  0.3286491E-002  0.1249983E+03  0.7818608E-02  0.1235072E+00
         -4   -1    0    0    0  501 -0.00000000000E+00  0.00000000000E+00  0.36915656817E+03  0.36915875274E+03  0.12700000000E+01 0. -1.
          4   -1    0    0  501    0  0.00000000000E+00 -0.00000000000E+00 -0.10540937515E+02  0.10617168346E+02  0.12700000000E+01 0. -1.
         25    2    1    2    0    0  0.00000000000E+00  0.00000000000E+00  0.35861563066E+03  0.37977592109E+03  0.12499831873E+03 0.  0.
    9000005    1    3    3    0    0  0.42439985861E+02  0.63921866096E+01  0.31731027000E+03  0.32020121783E+03  0.10000000000E+01 0.  0.
    9000005    1    3    3    0    0 -0.42439985861E+02 -0.63921866096E+01  0.41305360657E+02  0.59574703260E+02  0.10000000000E+01 0.  0.
<mgrwt>
<rscale>  0 0.12499832E+03</rscale>
<asrwt>0</asrwt>
<pdfrwt beam="2">  1        4 0.16277149E-02 0.12499832E+03</pdfrwt>
<pdfrwt beam="1">  1       -4 0.56799342E-01 0.12499832E+03</pdfrwt>
<totfact> 0.66570921E+03</totfact>
</mgrwt>
</event>
<event>
 5    1  0.3286491E-002  0.1250005E+03  0.7818608E-02  0.1235069E+00
          4   -1    0    0  501    0  0.00000000000E+00  0.00000000000E+00  0.76477536272E+01  0.77524857654E+01  0.12700000000E+01 0. -1.
         -4   -1    0    0    0  501 -0.00000000000E+00 -0.00000000000E+00 -0.50719557463E+03  0.50719716464E+03  0.12700000000E+01 0. -1.
         25    2    1    2    0    0  0.00000000000E+00  0.00000000000E+00 -0.49954782100E+03  0.51494965041E+03  0.12500046796E+03 0.  0.
    9000005    1    3    3    0    0 -0.40724311435E+02  0.40433081103E+02 -0.35168470861E+03  0.35633753361E+03  0.10000000000E+01 0.  0.
    9000005    1    3    3    0    0  0.40724311435E+02 -0.40433081103E+02 -0.14786311239E+03  0.15861211680E+03  0.10000000000E+01 0.  0.
<mgrwt>
<rscale>  0 0.12500047E+03</rscale>
<asrwt>0</asrwt>
<pdfrwt beam="1">  1        4 0.11847565E-02 0.12500047E+03</pdfrwt>
<pdfrwt beam="2">  1       -4 0.78038241E-01 0.12500047E+03</pdfrwt>
<totfact> 0.54722280E+03</totfact>
</mgrwt>
</event>
<event>
 5    1  0.3286491E-002  0.1249911E+03  0.7818608E-02  0.1235083E+00
         -4   -1    0    0    0  501 -0.00000000000E+00  0.00000000000E+00  0.29053805736E+02  0.29081549610E+02  0.12700000000E+01 0.  1.
          4   -1    0    0  501    0  0.00000000000E+00 -0.00000000000E+00 -0.13433471623E+03  0.13434071938E+03  0.12700000000E+01 0.  1.
         25    2    1    2    0    0  0.00000000000E+00  0.00000000000E+00 -0.10528091049E+03  0.16342226899E+03  0.12499107124E+03 0.  0.
    9000005    1    3    3    0    0 -0.57677568419E+02  0.40153526277E+00 -0.84069548676E+02  0.10195858053E+03  0.10000000000E+01 0.  0.
    9000005    1    3    3    0    0  0.57677568419E+02 -0.40153526277E+00 -0.21211361818E+02  0.61463688463E+02  0.10000000000E+01 0.  0.
<mgrwt>
<rscale>  0 0.12499107E+03</rscale>
<asrwt>0</asrwt>
<pdfrwt beam="2">  1        4 0.20669475E-01 0.12499107E+03</pdfrwt>
<pdfrwt beam="1">  1       -4 0.44724123E-02 0.12499107E+03</pdfrwt>
<totfact> 0.96706426E+03</totfact>
</mgrwt>
</event>
<event>
 5    1  0.3286491E-002  0.1249801E+03  0.7818608E-02  0.1235100E+00
          4   -1    0    0  501    0  0.00000000000E+00  0.00000000000E+00  0.11363583811E+04  0.11363590907E+04  0.12700000000E+01 0. -1.
         -4   -1    0    0    0  501 -0.00000000000E+00 -0.00000000000E+00 -0.33183470893E+01  0.35530729524E+01  0.12700000000E+01 0. -1.
         25    2    1    2    0    0  0.00000000000E+00  0.00000000000E+00  0.11330400340E+04  0.11399121637E+04  0.12498008782E+03 0.  0.
    9000005    1    3    3    0    0  0.10776036284E+02 -0.52766577856E+02  0.27758206480E+03  0.28276003500E+03  0.10000000000E+01 0.  0.
    9000005    1    3    3    0    0 -0.10776036284E+02  0.52766577856E+02  0.85545796917E+03  0.85715212869E+03  0.10000000000E+01 0.  0.
<mgrwt>
<rscale>  0 0.12498009E+03</rscale>
<asrwt>0</asrwt>
<pdfrwt beam="1">  1        4 0.17484255E+00 0.12498009E+03</pdfrwt>
<pdfrwt beam="2">  1       -4 0.52862514E-03 0.12498009E+03</pdfrwt>
<totfact> 0.26353228E+03</totfact>
</mgrwt>
</event>
<event>
 5    1  0.3286491E-002  0.1250008E+03  0.7818608E-02  0.1235068E+00
          4   -1    0    0  501    0  0.00000000000E+00  0.00000000000E+00  0.89989909854E+03  0.89989999470E+03  0.12700000000E+01 0. -1.
         -4   -1    0    0    0  501 -0.00000000000E+00 -0.00000000000E+00 -0.42470096989E+01  0.44328310799E+01  0.12700000000E+01 0. -1.
         25    2    1    2    0    0  0.00000000000E+00  0.00000000000E+00  0.89565208884E+03  0.90433282578E+03  0.12500078212E+03 0.  0.
    9000005    1    3    3    0    0 -0.40495131563E+02  0.78845516866E+01  0.78741231229E+03  0.78849297485E+03  0.10000000000E+01 0.  0.
    9000005    1    3    3    0    0  0.40495131563E+02 -0.78845516866E+01  0.10823977655E+03  0.11583985093E+03  0.10000000000E+01 0.  0.
<mgrwt>
<rscale>  0 0.12500078E+03</rscale>
<asrwt>0</asrwt>
<pdfrwt beam="1">  1        4 0.13846044E+00 0.12500078E+03</pdfrwt>
<pdfrwt beam="2">  1       -4 0.66774871E-03 0.12500078E+03</pdfrwt>
<totfact> 0.33993955E+03</totfact>
</mgrwt>
</event>
<event>
 5    1  0.3286491E-002  0.1249846E+03  0.7818608E-02  0.1235093E+00
         -4   -1    0    0    0  501 -0.00000000000E+00  0.00000000000E+00  0.41816447124E+01  0.43702462746E+01  0.12700000000E+01 0.  1.
          4   -1    0    0  501    0  0.00000000000E+00 -0.00000000000E+00 -0.91312617716E+03  0.91312706033E+03  0.12700000000E+01 0.  1.
         25    2    1    2    0    0  0.00000000000E+00  0.00000000000E+00 -0.90894453245E+03  0.91749730661E+03  0.12498457732E+03 0.  0.
    9000005    1    3    3    0    0  0.34149287581E+02  0.47502666337E+02 -0.61557231246E+03  0.61834694874E+03  0.10000000000E+01 0.  0.
    9000005    1    3    3    0    0 -0.34149287581E+02 -0.47502666337E+02 -0.29337221999E+03  0.29915035786E+03  0.10000000000E+01 0.  0.
<mgrwt>
<rscale>  0 0.12498458E+03</rscale>
<asrwt>0</asrwt>
<pdfrwt beam="2">  1        4 0.14049537E+00 0.12498458E+03</pdfrwt>
<pdfrwt beam="1">  1       -4 0.65790643E-03 0.12498458E+03</pdfrwt>
<totfact> 0.33510048E+03</totfact>
</mgrwt>
</event>
<event>
 5    1  0.3286491E-002  0.1249885E+03  0.7818608E-02  0.1235087E+00
          4   -1    0    0  501    0  0.00000000000E+00  0.00000000000E+00  0.46524895384E+02  0.46542225887E+02  0.12700000000E+01 0.  1.
         -4   -1    0    0    0  501 -0.00000000000E+00 -0.00000000000E+00 -0.83907268400E+02  0.83916879055E+02  0.12700000000E+01 0.  1.
         25    2    1    2    0    0  0.00000000000E+00  0.00000000000E+00 -0.37382373016E+02  0.13045910494E+03  0.12498854447E+03 0.  0.
    9000005    1    3    3    0    0 -0.20433915889E+02  0.34369717542E+02  0.31428307965E+02  0.50868073917E+02  0.10000000000E+01 0.  0.
    9000005    1    3    3    0    0  0.20433915889E+02 -0.34369717542E+02 -0.68810680981E+02  0.79591031025E+02  0.10000000000E+01 0.  0.
<mgrwt>
<rscale>  0 0.12498854E+03</rscale>
<asrwt>0</asrwt>
<pdfrwt beam="1">  1        4 0.71597486E-02 0.12498854E+03</pdfrwt>
<pdfrwt beam="2">  1       -4 0.12910883E-01 0.12498854E+03</pdfrwt>
<totfact> 0.10337369E+04</totfact>
</mgrwt>
</event>
<event>
 5    1  0.3286491E-002  0.1250018E+03  0.7818608E-02  0.1235066E+00
          4   -1    0    0  501    0  0.00000000000E+00  0.00000000000E+00  0.25491294090E+01  0.28479748495E+01  0.12700000000E+01 0. -1.
         -4   -1    0    0    0  501 -0.00000000000E+00 -0.00000000000E+00 -0.14472782989E+04  0.14472788561E+04  0.12700000000E+01 0. -1.
         25    2    1    2    0    0  0.00000000000E+00  0.00000000000E+00 -0.14447291695E+04  0.14501268310E+04  0.12500181084E+03 0.  0.
    9000005    1    3    3    0    0  0.47883604611E+02  0.39297014586E+02 -0.62651306266E+03  0.62956867189E+03  0.10000000000E+01 0.  0.
    9000005    1    3    3    0    0 -0.47883604611E+02 -0.39297014586E+02 -0.81821610683E+03  0.82055815907E+03  0.10000000000E+01 0.  0.
<mgrwt>
<rscale>  0 0.12500181E+03</rscale>
<asrwt>0</asrwt>
<pdfrwt beam="1">  1        4 0.41520589E-03 0.12500181E+03</pdfrwt>
<pdfrwt beam="2">  1       -4 0.22268061E+00 0.12500181E+03</pdfrwt>
<totfact> 0.18929467E+03</totfact>
</mgrwt>
</event>
<event>
 5    1  0.3286491E-002  0.1249997E+03  0.7818608E-02  0.1235070E+00
         -4   -1    0    0    0  501 -0.00000000000E+00  0.00000000000E+00  0.16977095552E+03  0.16977570567E+03  0.12700000000E+01 0. -1.
          4   -1    0    0  501    0  0.00000000000E+00 -0.00000000000E+00 -0.22986233241E+02  0.23021290551E+02  0.12700000000E+01 0. -1.
         25    2    1    2    0    0  0.00000000000E+00  0.00000000000E+00  0.14678472228E+03  0.19279699622E+03  0.12499970824E+03 0.  0.
    9000005    1    3    3    0    0 -0.14724814731E+02  0.60671959475E+02  0.69217971458E+02  0.93220354044E+02  0.10000000000E+01 0.  0.
    9000005    1    3    3    0    0  0.14724814731E+02 -0.60671959475E+02  0.77566750818E+02  0.99576642180E+02  0.10000000000E+01 0.  0.
<mgrwt>
<rscale>  0 0.12499971E+03</rscale>
<asrwt>0</asrwt>
<pdfrwt beam="2">  1        4 0.35394058E-02 0.12499971E+03</pdfrwt>
<pdfrwt beam="1">  1       -4 0.26121670E-01 0.12499971E+03</pdfrwt>
<totfact> 0.91363509E+03</totfact>
</mgrwt>
</event>
<event>
 5    1  0.3286491E-002  0.1250003E+03  0.7818608E-02  0.1235069E+00
          4   -1    0    0  501    0  0.00000000000E+00  0.00000000000E+00  0.63315512409E+02  0.63328248133E+02  0.12700000000E+01 0. -1.
         -4   -1    0    0    0  501 -0.00000000000E+00 -0.00000000000E+00 -0.61669790114E+02  0.61682865633E+02  0.12700000000E+01 0. -1.
         25    2    1    2    0    0  0.00000000000E+00  0.00000000000E+00  0.16457222941E+01  0.12501111377E+03  0.12500028065E+03 0.  0.
    9000005    1    3    3    0    0 -0.36835853567E+01  0.58235127054E+01 -0.61293595096E+02  0.61687818093E+02  0.10000000000E+01 0.  0.
    9000005    1    3    3    0    0  0.36835853567E+01 -0.58235127054E+01  0.62939317390E+02  0.63323295673E+02  0.10000000000E+01 0.  0.
<mgrwt>
<rscale>  0 0.12500028E+03</rscale>
<asrwt>0</asrwt>
<pdfrwt beam="1">  1        4 0.97428336E-02 0.12500028E+03</pdfrwt>
<pdfrwt beam="2">  1       -4 0.94896455E-02 0.12500028E+03</pdfrwt>
<totfact> 0.10452555E+04</totfact>
</mgrwt>
</event>
<event>
 5    1  0.3286491E-002  0.1249939E+03  0.7818608E-02  0.1235079E+00
         -4   -1    0    0    0  501 -0.00000000000E+00  0.00000000000E+00  0.10461880685E+02  0.10538683384E+02  0.12700000000E+01 0. -1.
          4   -1    0    0  501    0  0.00000000000E+00 -0.00000000000E+00 -0.37189934046E+03  0.37190150891E+03  0.12700000000E+01 0. -1.
         25    2    1    2    0    0  0.00000000000E+00  0.00000000000E+00 -0.36143745977E+03  0.38244019230E+03  0.12499385328E+03 0.  0.
    9000005    1    3    3    0    0 -0.16366253485E+02  0.42109949133E+02 -0.48628619250E+02  0.66384069469E+02  0.10000000000E+01 0.  0.
    9000005    1    3    3    0    0  0.16366253485E+02 -0.42109949133E+02 -0.31280884052E+03  0.31605612283E+03  0.10000000000E+01 0.  0.
<mgrwt>
<rscale>  0 0.12499385E+03</rscale>
<asrwt>0</asrwt>
<pdfrwt beam="2">  1        4 0.57221348E-01 0.12499385E+03</pdfrwt>
<pdfrwt beam="1">  1       -4 0.16155951E-02 0.12499385E+03</pdfrwt>
<totfact> 0.66306243E+03</totfact>
</mgrwt>
</event>
<event>
 5    1  0.3286491E-002  0.1250081E+03  0.7818608E-02  0.1235057E+00
          4   -1    0    0  501    0  0.00000000000E+00  0.00000000000E+00  0.45026083065E+02  0.45043990234E+02  0.12700000000E+01 0.  1.
         -4   -1    0    0    0  501 -0.00000000000E+00 -0.00000000000E+00 -0.86726683682E+02  0.86735981936E+02  0.12700000000E+01 0.  1.
         25    2    1    2    0    0  0.00000000000E+00  0.00000000000E+00 -0.41700600617E+02  0.13177997217E+03  0.12500808363E+03 0.  0.
    9000005    1    3    3    0    0  0.41759305399E+02  0.46342922458E+02 -0.24829598300E+02  0.67149199557E+02  0.10000000000E+01 0.  0.
    9000005    1    3    3    0    0 -0.41759305399E+02 -0.46342922458E+02 -0.16871002316E+02  0.64630772613E+02  0.10000000000E+01 0.  0.
<mgrwt>
<rscale>  0 0.12500808E+03</rscale>
<asrwt>0</asrwt>
<pdfrwt beam="1">  1        4 0.69291824E-02 0.12500808E+03</pdfrwt>
<pdfrwt beam="2">  1       -4 0.13344659E-01 0.12500808E+03</pdfrwt>
<totfact> 0.10304518E+04</totfact>
</mgrwt>
</event>
<event>
 5    1  0.3286491E-002  0.1250192E+03  0.7818608E-02  0.1235039E+00
          4   -1    0    0  501    0  0.00000000000E+00  0.00000000000E+00  0.49969212946E+01  0.51557853354E+01  0.12700000000E+01 0. -1.
         -4   -1    0    0    0  501 -0.00000000000E+00 -0.00000000000E+00 -0.76957575465E+03  0.76957680256E+03  0.12700000000E+01 0. -1.
         25    2    1    2    0    0  0.00000000000E+00  0.00000000000E+00 -0.76457883335E+03  0.77473258790E+03  0.12501915989E+03 0.  0.
    9000005    1    3    3    0    0 -0.55674670489E+02  0.20065426707E+02 -0.50687002947E+03  0.51031413567E+03  0.10000000000E+01 0.  0.
    9000005    1    3    3    0    0  0.55674670489E+02 -0.20065426707E+02 -0.25770880388E+03  0.26441845223E+03  0.10000000000E+01 0.  0.
<mgrwt>
<rscale>  0 0.12501916E+03</rscale>
<asrwt>0</asrwt>
<pdfrwt beam="1">  1        4 0.78105865E-03 0.12501916E+03</pdfrwt>
<pdfrwt beam="2">  1       -4 0.11840848E+00 0.12501916E+03</pdfrwt>
<totfact> 0.39401426E+03</totfact>
</mgrwt>
</event>
<event>
 5    1  0.3286491E-002  0.1250039E+03  0.7818608E-02  0.1235063E+00
          4   -1    0    0  501    0  0.00000000000E+00  0.00000000000E+00  0.41433168013E+02  0.41452627318E+02  0.12700000000E+01 0. -1.
         -4   -1    0    0    0  501 -0.00000000000E+00 -0.00000000000E+00 -0.94238366652E+02  0.94246923818E+02  0.12700000000E+01 0. -1.
         25    2    1    2    0    0  0.00000000000E+00  0.00000000000E+00 -0.52805198639E+02  0.13569955114E+03  0.12500391664E+03 0.  0.
    9000005    1    3    3    0    0  0.78923665817E+01  0.55073868083E+02  0.44944669149E+01  0.55826701754E+02  0.10000000000E+01 0.  0.
    9000005    1    3    3    0    0 -0.78923665817E+01 -0.55073868083E+02 -0.57299665554E+02  0.79872849383E+02  0.10000000000E+01 0.  0.
<mgrwt>
<rscale>  0 0.12500392E+03</rscale>
<asrwt>0</asrwt>
<pdfrwt beam="1">  1        4 0.63764887E-02 0.12500392E+03</pdfrwt>
<pdfrwt beam="2">  1       -4 0.14500365E-01 0.12500392E+03</pdfrwt>
<totfact> 0.10222444E+04</totfact>
</mgrwt>
</event>
<event>
 5    1  0.3286491E-002  0.1250007E+03  0.7818608E-02  0.1235068E+00
         -4   -1    0    0    0  501 -0.00000000000E+00  0.00000000000E+00  0.73132217450E+02  0.73143243906E+02  0.12700000000E+01 0.  1.
          4   -1    0    0  501    0  0.00000000000E+00 -0.00000000000E+00 -0.53391532393E+02  0.53406634712E+02  0.12700000000E+01 0.  1.
         25    2    1    2    0    0  0.00000000000E+00  0.00000000000E+00  0.19740685057E+02  0.12654987862E+03  0.12500070852E+03 0.  0.
    9000005    1    3    3    0    0 -0.37565867584E+02 -0.38751495740E+02 -0.22022801214E+02  0.58299885101E+02  0.10000000000E+01 0.  0.
    9000005    1    3    3    0    0  0.37565867584E+02  0.38751495740E+02  0.41763486271E+02  0.68249993516E+02  0.10000000000E+01 0.  0.
<mgrwt>
<rscale>  0 0.12500071E+03</rscale>
<asrwt>0</asrwt>
<pdfrwt beam="2">  1        4 0.82160918E-02 0.12500071E+03</pdfrwt>
<pdfrwt beam="1">  1       -4 0.11253120E-01 0.12500071E+03</pdfrwt>
<totfact> 0.10418774E+04</totfact>
</mgrwt>
</event>
<event>
 5    1  0.3286491E-002  0.1249996E+03  0.7818608E-02  0.1235070E+00
         -4   -1    0    0    0  501 -0.00000000000E+00  0.00000000000E+00  0.19017797539E+02  0.19060155383E+02  0.12700000000E+01 0. -1.
          4   -1    0    0  501    0  0.00000000000E+00 -0.00000000000E+00 -0.20512565895E+03  0.20512959040E+03  0.12700000000E+01 0. -1.
         25    2    1    2    0    0  0.00000000000E+00  0.00000000000E+00 -0.18610786141E+03  0.22418974579E+03  0.12499962415E+03 0.  0.
    9000005    1    3    3    0    0 -0.42679156438E+02  0.13907506567E+02 -0.15075928727E+02  0.47362567077E+02  0.10000000000E+01 0.  0.
    9000005    1    3    3    0    0  0.42679156438E+02 -0.13907506567E+02 -0.17103193268E+03  0.17682717871E+03  0.10000000000E+01 0.  0.
<mgrwt>
<rscale>  0 0.12499962E+03</rscale>
<asrwt>0</asrwt>
<pdfrwt beam="2">  1        4 0.31561353E-01 0.12499962E+03</pdfrwt>
<pdfrwt beam="1">  1       -4 0.29293759E-02 0.12499962E+03</pdfrwt>
<totfact> 0.86210412E+03</totfact>
</mgrwt>
</event>
<event>
 5    1  0.3286491E-002  0.1250002E+03  0.7818608E-02  0.1235069E+00
          4   -1    0    0  501    0  0.00000000000E+00  0.00000000000E+00  0.20433332223E+04  0.20433336169E+04  0.12700000000E+01 0.  1.
         -4   -1    0    0    0  501 -0.00000000000E+00 -0.00000000000E+00 -0.17003500822E+01  0.21222842416E+01  0.12700000000E+01 0.  1.
         25    2    1    2    0    0  0.00000000000E+00  0.00000000000E+00  0.20416328722E+04  0.20454559012E+04  0.12500023558E+03 0.  0.
    9000005    1    3    3    0    0 -0.55224083502E+02 -0.19652037826E+02  0.66630227150E+03  0.66887638543E+03  0.10000000000E+01 0.  0.
    9000005    1    3    3    0    0  0.55224083502E+02  0.19652037826E+02  0.13753306007E+04  0.13765795157E+04  0.10000000000E+01 0.  0.
<mgrwt>
<rscale>  0 0.12500024E+03</rscale>
<asrwt>0</asrwt>
<pdfrwt beam="1">  1        4 0.31439201E+00 0.12500024E+03</pdfrwt>
<pdfrwt beam="2">  1       -4 0.29407862E-03 0.12500024E+03</pdfrwt>
<totfact> 0.92794269E+02</totfact>
</mgrwt>
</event>
<event>
 5    1  0.3286491E-002  0.1249992E+03  0.7818608E-02  0.1235071E+00
         -4   -1    0    0    0  501 -0.00000000000E+00  0.00000000000E+00  0.22247202052E+02  0.22283422070E+02  0.12700000000E+01 0. -1.
          4   -1    0    0  501    0  0.00000000000E+00 -0.00000000000E+00 -0.17540022146E+03  0.17540481917E+03  0.12700000000E+01 0. -1.
         25    2    1    2    0    0  0.00000000000E+00  0.00000000000E+00 -0.15315301941E+03  0.19768824124E+03  0.12499917348E+03 0.  0.
    9000005    1    3    3    0    0 -0.36712201504E+01  0.22542357653E+02 -0.16857078532E+03  0.17011391891E+03  0.10000000000E+01 0.  0.
    9000005    1    3    3    0    0  0.36712201504E+01 -0.22542357653E+02  0.15417765911E+02  0.27574322324E+02  0.10000000000E+01 0.  0.
<mgrwt>
<rscale>  0 0.12499917E+03</rscale>
<asrwt>0</asrwt>
<pdfrwt beam="2">  1        4 0.26987788E-01 0.12499917E+03</pdfrwt>
<pdfrwt beam="1">  1       -4 0.34257864E-02 0.12499917E+03</pdfrwt>
<totfact> 0.90528202E+03</totfact>
</mgrwt>
</event>
<event>
 5    1  0.3286491E-002  0.1249965E+03  0.7818608E-02  0.1235075E+00
          4   -1    0    0  501    0  0.00000000000E+00  0.00000000000E+00  0.93275278895E+01  0.94135899915E+01  0.12700000000E+01 0. -1.
         -4   -1    0    0    0  501 -0.00000000000E+00 -0.00000000000E+00 -0.41675377770E+03  0.41675571278E+03  0.12700000000E+01 0. -1.
         25    2    1    2    0    0  0.00000000000E+00  0.00000000000E+00 -0.40742624982E+03  0.42616930277E+03  0.12499650228E+03 0.  0.
    9000005    1    3    3    0    0 -0.39387747949E+02  0.48325521488E+02 -0.18913571126E+03  0.19914835673E+03  0.10000000000E+01 0.  0.
    9000005    1    3    3    0    0  0.39387747949E+02 -0.48325521488E+02 -0.21829053855E+03  0.22702094603E+03  0.10000000000E+01 0.  0.
<mgrwt>
<rscale>  0 0.12499650E+03</rscale>
<asrwt>0</asrwt>
<pdfrwt beam="1">  1        4 0.14417736E-02 0.12499650E+03</pdfrwt>
<pdfrwt beam="2">  1       -4 0.64122720E-01 0.12499650E+03</pdfrwt>
<totfact> 0.62089557E+03</totfact>
</mgrwt>
</event>
<event>
 5    1  0.3286491E-002  0.1249984E+03  0.7818608E-02  0.1235072E+00
          4   -1    0    0  501    0  0.00000000000E+00  0.00000000000E+00  0.78695079315E+02  0.78705326430E+02  0.12700000000E+01 0.  1.
         -4   -1    0    0    0  501 -0.00000000000E+00 -0.00000000000E+00 -0.49614908792E+02  0.49631160317E+02  0.12700000000E+01 0.  1.
         25    2    1    2    0    0  0.00000000000E+00  0.00000000000E+00  0.29080170524E+02  0.12833648675E+03  0.12499839004E+03 0.  0.
    9000005    1    3    3    0    0 -0.39547038720E+02  0.46836189809E+02  0.27011591581E+02  0.66994201444E+02  0.10000000000E+01 0.  0.
    9000005    1    3    3    0    0  0.39547038720E+02 -0.46836189809E+02  0.20685789429E+01  0.61342285303E+02  0.10000000000E+01 0.  0.
<mgrwt>
<rscale>  0 0.12499839E+03</rscale>
<asrwt>0</asrwt>
<pdfrwt beam="1">  1        4 0.12108974E-01 0.12499839E+03</pdfrwt>
<pdfrwt beam="2">  1       -4 0.76351012E-02 0.12499839E+03</pdfrwt>
<totfact> 0.10380605E+04</totfact>
</mgrwt>
</event>
<event>
 5    1  0.3286491E-002  0.1250002E+03  0.7818608E-02  0.1235069E+00
          4   -1    0    0  501    0  0.00000000000E+00  0.00000000000E+00  0.16104472786E+03  0.16104973540E+03  0.12700000000E+01 0.  1.
         -4   -1    0    0    0  501 -0.00000000000E+00 -0.00000000000E+00 -0.24233759279E+02  0.24267014418E+02  0.12700000000E+01 0.  1.
         25    2    1    2    0    0  0.00000000000E+00  0.00000000000E+00  0.13681096858E+03  0.18531674982E+03  0.12500022655E+03 0.  0.
    9000005    1    3    3    0    0  0.56088441301E+02  0.27027789289E+02  0.60442549563E+02  0.86779700617E+02  0.10000000000E+01 0.  0.
    9000005    1    3    3    0    0 -0.56088441301E+02 -0.27027789289E+02  0.76368419018E+02  0.98537049199E+02  0.10000000000E+01 0.  0.
<mgrwt>
<rscale>  0 0.12500023E+03</rscale>
<asrwt>0</asrwt>
<pdfrwt beam="1">  1        4 0.24779055E-01 0.12500023E+03</pdfrwt>
<pdfrwt beam="2">  1       -4 0.37312139E-02 0.12500023E+03</pdfrwt>
<totfact> 0.92668160E+03</totfact>
</mgrwt>
</event>
<event>
 5    1  0.3286491E-002  0.1250019E+03  0.7818608E-02  0.1235066E+00
         -4   -1    0    0    0  501 -0.00000000000E+00  0.00000000000E+00  0.38609576524E+02  0.38630458182E+02  0.12700000000E+01 0.  1.
          4   -1    0    0  501    0  0.00000000000E+00 -0.00000000000E+00 -0.10112396057E+03  0.10113193512E+03  0.12700000000E+01 0.  1.
         25    2    1    2    0    0  0.00000000000E+00  0.00000000000E+00 -0.62514384050E+02  0.13976239331E+03  0.12500191346E+03 0.  0.
    9000005    1    3    3    0    0  0.66598464212E+01 -0.57264011780E+02 -0.42873246116E+01  0.57817832472E+02  0.10000000000E+01 0.  0.
    9000005    1    3    3    0    0 -0.66598464212E+01  0.57264011780E+02 -0.58227059438E+02  0.81944560834E+02  0.10000000000E+01 0.  0.
<mgrwt>
<rscale>  0 0.12500191E+03</rscale>
<asrwt>0</asrwt>
<pdfrwt beam="2">  1        4 0.15559752E-01 0.12500191E+03</pdfrwt>
<pdfrwt beam="1">  1       -4 0.59421546E-02 0.12500191E+03</pdfrwt>
<totfact> 0.10138076E+04</totfact>
</mgrwt>
</event>
<event>
 5    1  0.3286491E-002  0.1250004E+03  0.7818608E-02  0.1235069E+00
         -4   -1    0    0    0  501 -0.00000000000E+00  0.00000000000E+00  0.24332464972E+02  0.24365585394E+02  0.12700000000E+01 0. -1.
          4   -1    0    0  501    0  0.00000000000E+00 -0.00000000000E+00 -0.16039270913E+03  0.16039773702E+03  0.12700000000E+01 0. -1.
         25    2    1    2    0    0  0.00000000000E+00  0.00000000000E+00 -0.13606024415E+03  0.18476332241E+03  0.12500038108E+03 0.  0.
    9000005    1    3    3    0    0 -0.43981435940E+02 -0.40505209964E+02 -0.41169502495E+02  0.72601423383E+02  0.10000000000E+01 0.  0.
    9000005    1    3    3    0    0  0.43981435940E+02  0.40505209964E+02 -0.94890741660E+02  0.11216189903E+03  0.10000000000E+01 0.  0.
<mgrwt>
<rscale>  0 0.12500038E+03</rscale>
<asrwt>0</asrwt>
<pdfrwt beam="2">  1        4 0.24678735E-01 0.12500038E+03</pdfrwt>
<pdfrwt beam="1">  1       -4 0.37463907E-02 0.12500038E+03</pdfrwt>
<totfact> 0.92765757E+03</totfact>
</mgrwt>
</event>
<event>
 5    1  0.3286491E-002  0.1250116E+03  0.7818608E-02  0.1235051E+00
          4   -1    0    0  501    0  0.00000000000E+00  0.00000000000E+00  0.44715117445E+02  0.44733149097E+02  0.12700000000E+01 0.  1.
         -4   -1    0    0    0  501 -0.00000000000E+00 -0.00000000000E+00 -0.87334606170E+02  0.87343839708E+02  0.12700000000E+01 0.  1.
         25    2    1    2    0    0  0.00000000000E+00  0.00000000000E+00 -0.42619488725E+02  0.13207698880E+03  0.12501164007E+03 0.  0.
    9000005    1    3    3    0    0  0.22978889538E+02  0.29996701453E+02 -0.73904223365E+02  0.83010033693E+02  0.10000000000E+01 0.  0.
    9000005    1    3    3    0    0 -0.22978889538E+02 -0.29996701453E+02  0.31284734640E+02  0.49066955112E+02  0.10000000000E+01 0.  0.
<mgrwt>
<rscale>  0 0.12501164E+03</rscale>
<asrwt>0</asrwt>
<pdfrwt beam="1">  1        4 0.68813462E-02 0.12501164E+03</pdfrwt>
<pdfrwt beam="2">  1       -4 0.13438191E-01 0.12501164E+03</pdfrwt>
<totfact> 0.10297351E+04</totfact>
</mgrwt>
</event>
<event>
 5    1  0.3286491E-002  0.1250002E+03  0.7818608E-02  0.1235069E+00
          4   -1    0    0  501    0  0.00000000000E+00  0.00000000000E+00  0.28732757222E+03  0.28733037894E+03  0.12700000000E+01 0.  1.
         -4   -1    0    0    0  501 -0.00000000000E+00 -0.00000000000E+00 -0.13562622090E+02  0.13621953530E+02  0.12700000000E+01 0.  1.
         25    2    1    2    0    0  0.00000000000E+00  0.00000000000E+00  0.27376495013E+03  0.30095233247E+03  0.12500023398E+03 0.  0.
    9000005    1    3    3    0    0 -0.50115181045E+02 -0.11289428822E+02  0.22255708048E+03  0.22841111322E+03  0.10000000000E+01 0.  0.
    9000005    1    3    3    0    0  0.50115181045E+02  0.11289428822E+02  0.51207869657E+02  0.72541219242E+02  0.10000000000E+01 0.  0.
<mgrwt>
<rscale>  0 0.12500023E+03</rscale>
<asrwt>0</asrwt>
<pdfrwt beam="1">  1        4 0.44209022E-01 0.12500023E+03</pdfrwt>
<pdfrwt beam="2">  1       -4 0.20913371E-02 0.12500023E+03</pdfrwt>
<totfact> 0.75479141E+03</totfact>
</mgrwt>
</event>
<event>
 5    1  0.3286491E-002  0.1249903E+03  0.7818608E-02  0.1235084E+00
          4   -1    0    0  501    0  0.00000000000E+00  0.00000000000E+00  0.89437897501E+02  0.89446913918E+02  0.12700000000E+01 0. -1.
         -4   -1    0    0    0  501 -0.00000000000E+00 -0.00000000000E+00 -0.43648308834E+02  0.43666781014E+02  0.12700000000E+01 0. -1.
         25    2    1    2    0    0  0.00000000000E+00  0.00000000000E+00  0.45789588667E+02  0.13311369493E+03  0.12499027701E+03 0.  0.
    9000005    1    3    3    0    0  0.34618319935E+02  0.51631781668E+02  0.16127826955E+02  0.64229088080E+02  0.10000000000E+01 0.  0.
    9000005    1    3    3    0    0 -0.34618319935E+02 -0.51631781668E+02  0.29661761711E+02  0.68884606851E+02  0.10000000000E+01 0.  0.
<mgrwt>
<rscale>  0 0.12499028E+03</rscale>
<asrwt>0</asrwt>
<pdfrwt beam="1">  1        4 0.13761791E-01 0.12499028E+03</pdfrwt>
<pdfrwt beam="2">  1       -4 0.67172390E-02 0.12499028E+03</pdfrwt>
<totfact> 0.10280239E+04</totfact>
</mgrwt>
</event>
<event>
 4    1  0.3286491E-002  0.1248721E+03  0.7818608E-02  0.1235269E+00
         -4   -1    0    0    0  501 -0.00000000000E+00  0.00000000000E+00  0.16382031282E+04  0.16382036205E+04  0.12700000000E+01 0. -1.
          4   -1    0    0  501    0  0.00000000000E+00 -0.00000000000E+00 -0.22096172064E+01  0.25485894528E+01  0.12700000000E+01 0. -1.
    9000005    1    1    2    0    0 -0.55353186529E+02 -0.27751655106E+02  0.92239716393E+03  0.92447371928E+03  0.10000000000E+01 0.  0.
    9000005    1    1    2    0    0  0.55353186529E+02  0.27751655106E+02  0.71359634708E+03  0.71627849066E+03  0.10000000000E+01 0.  0.
<mgrwt>
<rscale>  0 0.12487212E+03</rscale>
<asrwt>0</asrwt>
<pdfrwt beam="2">  1        4 0.36605469E-03 0.12487212E+03</pdfrwt>
<pdfrwt beam="1">  1       -4 0.25205673E+00 0.12487212E+03</pdfrwt>
<totfact> 0.15363802E+03</totfact>
</mgrwt>
</event>
<event>
 5    1  0.3286491E-002  0.1250001E+03  0.7818608E-02  0.1235069E+00
          4   -1    0    0  501    0  0.00000000000E+00  0.00000000000E+00  0.48826327394E+02  0.48842841305E+02  0.12700000000E+01 0. -1.
         -4   -1    0    0    0  501 -0.00000000000E+00 -0.00000000000E+00 -0.79967969534E+02  0.79978053561E+02  0.12700000000E+01 0. -1.
         25    2    1    2    0    0  0.00000000000E+00  0.00000000000E+00 -0.31141642141E+02  0.12882089487E+03  0.12500008432E+03 0.  0.
    9000005    1    3    3    0    0 -0.25977724382E+02 -0.47367944626E+02  0.16800958407E+02  0.56584773089E+02  0.10000000000E+01 0.  0.
    9000005    1    3    3    0    0  0.25977724382E+02  0.47367944626E+02 -0.47942600548E+02  0.72236121777E+02  0.10000000000E+01 0.  0.
<mgrwt>
<rscale>  0 0.12500008E+03</rscale>
<asrwt>0</asrwt>
<pdfrwt beam="1">  1        4 0.75137887E-02 0.12500008E+03</pdfrwt>
<pdfrwt beam="2">  1       -4 0.12304811E-01 0.12500008E+03</pdfrwt>
<totfact> 0.10369777E+04</totfact>
</mgrwt>
</event>
<event>
 5    1  0.3286491E-002  0.1249873E+03  0.7818608E-02  0.1235089E+00
         -4   -1    0    0    0  501 -0.00000000000E+00  0.00000000000E+00  0.13626269043E+02  0.13685324550E+02  0.12700000000E+01 0.  1.
          4   -1    0    0  501    0  0.00000000000E+00 -0.00000000000E+00 -0.28593189395E+03  0.28593471437E+03  0.12700000000E+01 0.  1.
         25    2    1    2    0    0  0.00000000000E+00  0.00000000000E+00 -0.27230562491E+03  0.29962003892E+03  0.12498725680E+03 0.  0.
    9000005    1    3    3    0    0  0.53992543002E+02 -0.15430312011E+02 -0.20185390740E+03  0.20952157207E+03  0.10000000000E+01 0.  0.
    9000005    1    3    3    0    0 -0.53992543002E+02  0.15430312011E+02 -0.70451717507E+02  0.90098466847E+02  0.10000000000E+01 0.  0.
<mgrwt>
<rscale>  0 0.12498726E+03</rscale>
<asrwt>0</asrwt>
<pdfrwt beam="2">  1        4 0.43994277E-01 0.12498726E+03</pdfrwt>
<pdfrwt beam="1">  1       -4 0.21011090E-02 0.12498726E+03</pdfrwt>
<totfact> 0.75667931E+03</totfact>
</mgrwt>
</event>
<event>
 5    1  0.3286491E-002  0.1250060E+03  0.7818608E-02  0.1235060E+00
          4   -1    0    0  501    0  0.00000000000E+00  0.00000000000E+00  0.87404458225E+01  0.88322303625E+01  0.12700000000E+01 0.  1.
         -4   -1    0    0    0  501 -0.00000000000E+00 -0.00000000000E+00 -0.44453200593E+03  0.44453382009E+03  0.12700000000E+01 0.  1.
         25    2    1    2    0    0  0.00000000000E+00  0.00000000000E+00 -0.43579156011E+03  0.45336605045E+03  0.12500596720E+03 0.  0.
    9000005    1    3    3    0    0 -0.44352133013E+01  0.44418492133E+02 -0.37652017991E+03  0.37915843581E+03  0.10000000000E+01 0.  0.
    9000005    1    3    3    0    0  0.44352133013E+01 -0.44418492133E+02 -0.59271380198E+02  0.74207614643E+02  0.10000000000E+01 0.  0.
<mgrwt>
<rscale>  0 0.12500597E+03</rscale>
<asrwt>0</asrwt>
<pdfrwt beam="1">  1        4 0.13518842E-02 0.12500597E+03</pdfrwt>
<pdfrwt beam="2">  1       -4 0.68396722E-01 0.12500597E+03</pdfrwt>
<totfact> 0.59665465E+03</totfact>
</mgrwt>
</event>
<event>
 5    1  0.3286491E-002  0.1250368E+03  0.7818608E-02  0.1235012E+00
         -4   -1    0    0    0  501 -0.00000000000E+00  0.00000000000E+00  0.38055168882E+03  0.38055380797E+03  0.12700000000E+01 0. -1.
          4   -1    0    0  501    0  0.00000000000E+00 -0.00000000000E+00 -0.10229336952E+02  0.10307872451E+02  0.12700000000E+01 0. -1.
         25    2    1    2    0    0  0.00000000000E+00  0.00000000000E+00  0.37032235187E+03  0.39086168043E+03  0.12503683030E+03 0.  0.
    9000005    1    3    3    0    0  0.55133763129E+02  0.93229603695E+01  0.97807008099E+02  0.11266703271E+03  0.10000000000E+01 0.  0.
    9000005    1    3    3    0    0 -0.55133763129E+02 -0.93229603695E+01  0.27251534377E+03  0.27819464771E+03  0.10000000000E+01 0.  0.
<mgrwt>
<rscale>  0 0.12503683E+03</rscale>
<asrwt>0</asrwt>
<pdfrwt beam="2">  1        4 0.15799484E-02 0.12503683E+03</pdfrwt>
<pdfrwt beam="1">  1       -4 0.58552618E-01 0.12503683E+03</pdfrwt>
<totfact> 0.65398168E+03</totfact>
</mgrwt>
</event>
<event>
 5    1  0.3286491E-002  0.1250011E+03  0.7818608E-02  0.1235068E+00
         -4   -1    0    0    0  501 -0.00000000000E+00  0.00000000000E+00  0.76315951547E+02  0.76326518069E+02  0.12700000000E+01 0.  1.
          4   -1    0    0  501    0  0.00000000000E+00 -0.00000000000E+00 -0.51164147126E+02  0.51179906713E+02  0.12700000000E+01 0.  1.
         25    2    1    2    0    0  0.00000000000E+00  0.00000000000E+00  0.25151804421E+02  0.12750642478E+03  0.12500110037E+03 0.  0.
    9000005    1    3    3    0    0  0.37573563194E+02 -0.30186103552E+02  0.53151867439E+02  0.71757191354E+02  0.10000000000E+01 0.  0.
    9000005    1    3    3    0    0 -0.37573563194E+02  0.30186103552E+02 -0.28000063018E+02  0.55749233428E+02  0.10000000000E+01 0.  0.
<mgrwt>
<rscale>  0 0.12500110E+03</rscale>
<asrwt>0</asrwt>
<pdfrwt beam="2">  1        4 0.78734324E-02 0.12500110E+03</pdfrwt>
<pdfrwt beam="1">  1       -4 0.11742941E-01 0.12500110E+03</pdfrwt>
<totfact> 0.10397903E+04</totfact>
</mgrwt>
</event>
<event>
 5    1  0.3286491E-002  0.1249995E+03  0.7818608E-02  0.1235070E+00
          4   -1    0    0  501    0  0.00000000000E+00  0.00000000000E+00  0.29144009897E+02  0.29171667982E+02  0.12700000000E+01 0.  1.
         -4   -1    0    0    0  501 -0.00000000000E+00 -0.00000000000E+00 -0.13393742767E+03  0.13394344863E+03  0.12700000000E+01 0.  1.
         25    2    1    2    0    0  0.00000000000E+00  0.00000000000E+00 -0.10479341778E+03  0.16311511661E+03  0.12499952343E+03 0.  0.
    9000005    1    3    3    0    0  0.37642034984E+02 -0.46022509819E+02 -0.27288292907E+02  0.65426639357E+02  0.10000000000E+01 0.  0.
    9000005    1    3    3    0    0 -0.37642034984E+02  0.46022509819E+02 -0.77505124868E+02  0.97688477256E+02  0.10000000000E+01 0.  0.
<mgrwt>
<rscale>  0 0.12499952E+03</rscale>
<asrwt>0</asrwt>
<pdfrwt beam="1">  1        4 0.44862846E-02 0.12499952E+03</pdfrwt>
<pdfrwt beam="2">  1       -4 0.20608348E-01 0.12499952E+03</pdfrwt>
<totfact> 0.96746591E+03</totfact>
</mgrwt>
</event>
<event>
 5    1  0.3286491E-002  0.1250004E+03  0.7818608E-02  0.1235069E+00
          4   -1    0    0  501    0  0.00000000000E+00  0.00000000000E+00  0.28893763157E+02  0.28921660557E+02  0.12700000000E+01 0. -1.
         -4   -1    0    0    0  501 -0.00000000000E+00 -0.00000000000E+00 -0.13509821779E+03  0.13510418701E+03  0.12700000000E+01 0. -1.
         25    2    1    2    0    0  0.00000000000E+00  0.00000000000E+00 -0.10620445463E+03  0.16402584757E+03  0.12500036995E+03 0.  0.
    9000005    1    3    3    0    0  0.30394072193E+02  0.11881861212E+02  0.16830860921E+02  0.36732221954E+02  0.10000000000E+01 0.  0.
    9000005    1    3    3    0    0 -0.30394072193E+02 -0.11881861212E+02 -0.12303531555E+03  0.12729362562E+03  0.10000000000E+01 0.  0.
<mgrwt>
<rscale>  0 0.12500037E+03</rscale>
<asrwt>0</asrwt>
<pdfrwt beam="1">  1        4 0.44477995E-02 0.12500037E+03</pdfrwt>
<pdfrwt beam="2">  1       -4 0.20786946E-01 0.12500037E+03</pdfrwt>
<totfact> 0.96571397E+03</totfact>
</mgrwt>
</event>
<event>
 5    1  0.3286491E-002  0.1250009E+03  0.7818608E-02  0.1235068E+00
         -4   -1    0    0    0  501 -0.00000000000E+00  0.00000000000E+00  0.31366550049E+02  0.31392250030E+02  0.12700000000E+01 0. -1.
          4   -1    0    0  501    0  0.00000000000E+00 -0.00000000000E+00 -0.12445739717E+03  0.12446387673E+03  0.12700000000E+01 0. -1.
         25    2    1    2    0    0  0.00000000000E+00  0.00000000000E+00 -0.93090847123E+02  0.15585612676E+03  0.12500090572E+03 0.  0.
    9000005    1    3    3    0    0 -0.79845912510E+01 -0.61967595698E+02 -0.44983140709E+02  0.76994932055E+02  0.10000000000E+01 0.  0.
    9000005    1    3    3    0    0  0.79845912510E+01  0.61967595698E+02 -0.48107706414E+02  0.78861194706E+02  0.10000000000E+01 0.  0.
<mgrwt>
<rscale>  0 0.12500091E+03</rscale>
<asrwt>0</asrwt>
<pdfrwt beam="2">  1        4 0.19149767E-01 0.12500091E+03</pdfrwt>
<pdfrwt beam="1">  1       -4 0.48280985E-02 0.12500091E+03</pdfrwt>
<totfact> 0.98145693E+03</totfact>
</mgrwt>
</event>
<event>
 5    1  0.3286491E-002  0.1249971E+03  0.7818608E-02  0.1235074E+00
          4   -1    0    0  501    0  0.00000000000E+00  0.00000000000E+00  0.36310877350E+02  0.36333080160E+02  0.12700000000E+01 0. -1.
         -4   -1    0    0    0  501 -0.00000000000E+00 -0.00000000000E+00 -0.10751404917E+03  0.10752154979E+03  0.12700000000E+01 0. -1.
         25    2    1    2    0    0  0.00000000000E+00  0.00000000000E+00 -0.71203171820E+02  0.14385462995E+03  0.12499705149E+03 0.  0.
    9000005    1    3    3    0    0 -0.17509958035E+01 -0.42580730405E+02 -0.88201003936E+02  0.97962246215E+02  0.10000000000E+01 0.  0.
    9000005    1    3    3    0    0  0.17509958035E+01  0.42580730405E+02  0.16997832116E+02  0.45892383734E+02  0.10000000000E+01 0.  0.
<mgrwt>
<rscale>  0 0.12499705E+03</rscale>
<asrwt>0</asrwt>
<pdfrwt beam="1">  1        4 0.55885737E-02 0.12499705E+03</pdfrwt>
<pdfrwt beam="2">  1       -4 0.16542908E-01 0.12499705E+03</pdfrwt>
<totfact> 0.10054979E+04</totfact>
</mgrwt>
</event>
<event>
 5    1  0.3286491E-002  0.1250079E+03  0.7818608E-02  0.1235057E+00
         -4   -1    0    0    0  501 -0.00000000000E+00  0.00000000000E+00  0.18430678360E+01  0.22382580388E+01  0.12700000000E+01 0. -1.
          4   -1    0    0  501    0  0.00000000000E+00 -0.00000000000E+00 -0.19140539616E+04  0.19140543829E+04  0.12700000000E+01 0. -1.
         25    2    1    2    0    0  0.00000000000E+00  0.00000000000E+00 -0.19122108938E+04  0.19162926410E+04  0.12500793417E+03 0.  0.
    9000005    1    3    3    0    0  0.34916478879E+02 -0.19580900307E+02 -0.22042772571E+03  0.22403560970E+03  0.10000000000E+01 0.  0.
    9000005    1    3    3    0    0 -0.34916478879E+02  0.19580900307E+02 -0.16917831681E+04  0.16922570313E+04  0.10000000000E+01 0.  0.
<mgrwt>
<rscale>  0 0.12500793E+03</rscale>
<asrwt>0</asrwt>
<pdfrwt beam="2">  1        4 0.29449884E+00 0.12500793E+03</pdfrwt>
<pdfrwt beam="1">  1       -4 0.31398208E-03 0.12500793E+03</pdfrwt>
<totfact> 0.10991842E+03</totfact>
</mgrwt>
</event>
<event>
 5    1  0.3286491E-002  0.1250025E+03  0.7818608E-02  0.1235065E+00
          4   -1    0    0  501    0  0.00000000000E+00  0.00000000000E+00  0.19971336294E+02  0.20011675926E+02  0.12700000000E+01 0. -1.
         -4   -1    0    0    0  501 -0.00000000000E+00 -0.00000000000E+00 -0.19536081787E+03  0.19536494583E+03  0.12700000000E+01 0. -1.
         25    2    1    2    0    0  0.00000000000E+00  0.00000000000E+00 -0.17538948158E+03  0.21537662175E+03  0.12500247578E+03 0.  0.
    9000005    1    3    3    0    0  0.25545633160E+02 -0.22928084656E+02  0.22825123933E+01  0.34416366781E+02  0.10000000000E+01 0.  0.
    9000005    1    3    3    0    0 -0.25545633160E+02  0.22928084656E+02 -0.17767199397E+03  0.18096025497E+03  0.10000000000E+01 0.  0.
<mgrwt>
<rscale>  0 0.12500248E+03</rscale>
<asrwt>0</asrwt>
<pdfrwt beam="1">  1        4 0.30759340E-02 0.12500248E+03</pdfrwt>
<pdfrwt beam="2">  1       -4 0.30058930E-01 0.12500248E+03</pdfrwt>
<totfact> 0.87600421E+03</totfact>
</mgrwt>
</event>
<event>
 5    1  0.3286491E-002  0.1249790E+03  0.7818608E-02  0.1235102E+00
          4   -1    0    0  501    0  0.00000000000E+00  0.00000000000E+00  0.17010225363E+03  0.17010699454E+03  0.12700000000E+01 0.  1.
         -4   -1    0    0    0  501 -0.00000000000E+00 -0.00000000000E+00 -0.22933789260E+02  0.22968926615E+02  0.12700000000E+01 0.  1.
         25    2    1    2    0    0  0.00000000000E+00  0.00000000000E+00  0.14716846437E+03  0.19307592115E+03  0.12497901593E+03 0.  0.
    9000005    1    3    3    0    0 -0.38985504218E+02  0.17496425632E+02  0.14400616664E+03  0.15021574645E+03  0.10000000000E+01 0.  0.
    9000005    1    3    3    0    0  0.38985504218E+02 -0.17496425632E+02  0.31622977289E+01  0.42860174708E+02  0.10000000000E+01 0.  0.
<mgrwt>
<rscale>  0 0.12497902E+03</rscale>
<asrwt>0</asrwt>
<pdfrwt beam="1">  1        4 0.26172644E-01 0.12497902E+03</pdfrwt>
<pdfrwt beam="2">  1       -4 0.35313430E-02 0.12497902E+03</pdfrwt>
<totfact> 0.91357775E+03</totfact>
</mgrwt>
</event>
<event>
 5    1  0.3286491E-002  0.1249963E+03  0.7818608E-02  0.1235075E+00
          4   -1    0    0  501    0  0.00000000000E+00  0.00000000000E+00  0.80851779048E+02  0.80861752858E+02  0.12700000000E+01 0. -1.
         -4   -1    0    0    0  501 -0.00000000000E+00 -0.00000000000E+00 -0.48289544275E+02  0.48306241691E+02  0.12700000000E+01 0. -1.
         25    2    1    2    0    0  0.00000000000E+00  0.00000000000E+00  0.32562234773E+02  0.12916799455E+03  0.12499628667E+03 0.  0.
    9000005    1    3    3    0    0 -0.34616760483E+02  0.32268586943E+02 -0.25890649183E+02  0.53952826847E+02  0.10000000000E+01 0.  0.
    9000005    1    3    3    0    0  0.34616760483E+02 -0.32268586943E+02  0.58452883956E+02  0.75215167702E+02  0.10000000000E+01 0.  0.
<mgrwt>
<rscale>  0 0.12499629E+03</rscale>
<asrwt>0</asrwt>
<pdfrwt beam="1">  1        4 0.12440787E-01 0.12499629E+03</pdfrwt>
<pdfrwt beam="2">  1       -4 0.74312124E-02 0.12499629E+03</pdfrwt>
<totfact> 0.10363207E+04</totfact>
</mgrwt>
</event>
<event>
 5    1  0.3286491E-002  0.1250006E+03  0.7818608E-02  0.1235068E+00
         -4   -1    0    0    0  501 -0.00000000000E+00  0.00000000000E+00  0.30008760062E+02  0.30035621859E+02  0.12700000000E+01 0. -1.
          4   -1    0    0  501    0  0.00000000000E+00 -0.00000000000E+00 -0.13008332190E+03  0.13008952124E+03  0.12700000000E+01 0. -1.
         25    2    1    2    0    0  0.00000000000E+00  0.00000000000E+00 -0.10007456184E+03  0.16012514310E+03  0.12500057410E+03 0.  0.
    9000005    1    3    3    0    0  0.23535317190E+02  0.57604901017E+02 -0.57401622843E+02  0.84665117265E+02  0.10000000000E+01 0.  0.
    9000005    1    3    3    0    0 -0.23535317190E+02 -0.57604901017E+02 -0.42672938993E+02  0.75460025833E+02  0.10000000000E+01 0.  0.
<mgrwt>
<rscale>  0 0.12500057E+03</rscale>
<asrwt>0</asrwt>
<pdfrwt beam="2">  1        4 0.20015362E-01 0.12500057E+03</pdfrwt>
<pdfrwt beam="1">  1       -4 0.46192756E-02 0.12500057E+03</pdfrwt>
<totfact> 0.97317408E+03</totfact>
</mgrwt>
</event>
<event>
 5    1  0.3286491E-002  0.1250193E+03  0.7818608E-02  0.1235039E+00
          4   -1    0    0  501    0  0.00000000000E+00  0.00000000000E+00  0.76065680163E+03  0.76065786183E+03  0.12700000000E+01 0.  1.
         -4   -1    0    0    0  501 -0.00000000000E+00 -0.00000000000E+00 -0.50573767629E+01  0.52143992676E+01  0.12700000000E+01 0.  1.
         25    2    1    2    0    0  0.00000000000E+00  0.00000000000E+00  0.75559942487E+03  0.76587226110E+03  0.12501931635E+03 0.  0.
    9000005    1    3    3    0    0  0.54063301954E+02 -0.39086305024E+01  0.18716893816E+03  0.19486233454E+03  0.10000000000E+01 0.  0.
    9000005    1    3    3    0    0 -0.54063301954E+02  0.39086305024E+01  0.56843048671E+03  0.57100992656E+03  0.10000000000E+01 0.  0.
<mgrwt>
<rscale>  0 0.12501932E+03</rscale>
<asrwt>0</asrwt>
<pdfrwt beam="1">  1        4 0.11703622E+00 0.12501932E+03</pdfrwt>
<pdfrwt beam="2">  1       -4 0.79021857E-03 0.12501932E+03</pdfrwt>
<totfact> 0.39809435E+03</totfact>
</mgrwt>
</event>
<event>
 5    1  0.3286491E-002  0.1250009E+03  0.7818608E-02  0.1235068E+00
          4   -1    0    0  501    0  0.00000000000E+00  0.00000000000E+00  0.75041496910E+02  0.75052242862E+02  0.12700000000E+01 0. -1.
         -4   -1    0    0    0  501 -0.00000000000E+00 -0.00000000000E+00 -0.52033045333E+02  0.52048541830E+02  0.12700000000E+01 0. -1.
         25    2    1    2    0    0  0.00000000000E+00  0.00000000000E+00  0.23008451577E+02  0.12710078469E+03  0.12500088250E+03 0.  0.
    9000005    1    3    3    0    0  0.37355020459E-01 -0.77378906710E+01  0.74557485057E+02  0.74964624494E+02  0.10000000000E+01 0.  0.
    9000005    1    3    3    0    0 -0.37355020459E-01  0.77378906710E+01 -0.51549033480E+02  0.52136160198E+02  0.10000000000E+01 0.  0.
<mgrwt>
<rscale>  0 0.12500088E+03</rscale>
<asrwt>0</asrwt>
<pdfrwt beam="1">  1        4 0.11546864E-01 0.12500088E+03</pdfrwt>
<pdfrwt beam="2">  1       -4 0.80071025E-02 0.12500088E+03</pdfrwt>
<totfact> 0.10406749E+04</totfact>
</mgrwt>
</event>
<event>
 5    1  0.3286491E-002  0.1250023E+03  0.7818608E-02  0.1235066E+00
         -4   -1    0    0    0  501 -0.00000000000E+00  0.00000000000E+00  0.75207702953E+02  0.75218425160E+02  0.12700000000E+01 0. -1.
          4   -1    0    0  501    0  0.00000000000E+00 -0.00000000000E+00 -0.51919207232E+02  0.51934737697E+02  0.12700000000E+01 0. -1.
         25    2    1    2    0    0  0.00000000000E+00  0.00000000000E+00  0.23288495721E+02  0.12715316286E+03  0.12500229114E+03 0.  0.
    9000005    1    3    3    0    0  0.51843500737E+02  0.28777274471E+02 -0.84314305517E+01  0.59899658729E+02  0.10000000000E+01 0.  0.
    9000005    1    3    3    0    0 -0.51843500737E+02 -0.28777274471E+02  0.31719926272E+02  0.67253504127E+02  0.10000000000E+01 0.  0.
<mgrwt>
<rscale>  0 0.12500229E+03</rscale>
<asrwt>0</asrwt>
<pdfrwt beam="2">  1        4 0.79895898E-02 0.12500229E+03</pdfrwt>
<pdfrwt beam="1">  1       -4 0.11572435E-01 0.12500229E+03</pdfrwt>
<totfact> 0.10405282E+04</totfact>
</mgrwt>
</event>
<event>
 5    1  0.3286491E-002  0.1250170E+03  0.7818608E-02  0.1235043E+00
          4   -1    0    0  501    0  0.00000000000E+00  0.00000000000E+00  0.40419170525E+02  0.40439117769E+02  0.12700000000E+01 0. -1.
         -4   -1    0    0    0  501 -0.00000000000E+00 -0.00000000000E+00 -0.96621753200E+02  0.96630099304E+02  0.12700000000E+01 0. -1.
         25    2    1    2    0    0  0.00000000000E+00  0.00000000000E+00 -0.56202582676E+02  0.13706921707E+03  0.12501695873E+03 0.  0.
    9000005    1    3    3    0    0 -0.22434900465E+02  0.56894307279E+02 -0.13974121255E+02  0.62742035547E+02  0.10000000000E+01 0.  0.
    9000005    1    3    3    0    0  0.22434900465E+02 -0.56894307279E+02 -0.42228461421E+02  0.74327181526E+02  0.10000000000E+01 0.  0.
<mgrwt>
<rscale>  0 0.12501696E+03</rscale>
<asrwt>0</asrwt>
<pdfrwt beam="1">  1        4 0.62205104E-02 0.12501696E+03</pdfrwt>
<pdfrwt beam="2">  1       -4 0.14867061E-01 0.12501696E+03</pdfrwt>
<totfact> 0.10190742E+04</totfact>
</mgrwt>
</event>
<event>
 5    1  0.3286491E-002  0.1250014E+03  0.7818608E-02  0.1235067E+00
         -4   -1    0    0    0  501 -0.00000000000E+00  0.00000000000E+00  0.25022748202E+02  0.25054956148E+02  0.12700000000E+01 0.  1.
          4   -1    0    0  501    0  0.00000000000E+00 -0.00000000000E+00 -0.15597614925E+03  0.15598131951E+03  0.12700000000E+01 0.  1.
         25    2    1    2    0    0  0.00000000000E+00  0.00000000000E+00 -0.13095340105E+03  0.18103627566E+03  0.12500135942E+03 0.  0.
    9000005    1    3    3    0    0  0.41503872107E+02  0.41587330347E+02 -0.96310239829E+02  0.11282171662E+03  0.10000000000E+01 0.  0.
    9000005    1    3    3    0    0 -0.41503872107E+02 -0.41587330347E+02 -0.34643161223E+02  0.68214559038E+02  0.10000000000E+01 0.  0.
<mgrwt>
<rscale>  0 0.12500136E+03</rscale>
<asrwt>0</asrwt>
<pdfrwt beam="2">  1        4 0.23999205E-01 0.12500136E+03</pdfrwt>
<pdfrwt beam="1">  1       -4 0.38525289E-02 0.12500136E+03</pdfrwt>
<totfact> 0.93427955E+03</totfact>
</mgrwt>
</event>
<event>
 5    1  0.3286491E-002  0.1250013E+03  0.7818608E-02  0.1235067E+00
          4   -1    0    0  501    0  0.00000000000E+00  0.00000000000E+00  0.17532647428E+01  0.21649104504E+01  0.12700000000E+01 0.  1.
         -4   -1    0    0    0  501 -0.00000000000E+00 -0.00000000000E+00 -0.19935422236E+04  0.19935426281E+04  0.12700000000E+01 0.  1.
         25    2    1    2    0    0  0.00000000000E+00  0.00000000000E+00 -0.19917889588E+04  0.19957075386E+04  0.12500129170E+03 0.  0.
    9000005    1    3    3    0    0  0.29907018651E+02  0.70597028392E+01 -0.18646670795E+04  0.18649205309E+04  0.10000000000E+01 0.  0.
    9000005    1    3    3    0    0 -0.29907018651E+02 -0.70597028392E+01 -0.12712187929E+03  0.13078700763E+03  0.10000000000E+01 0.  0.
<mgrwt>
<rscale>  0 0.12500129E+03</rscale>
<asrwt>0</asrwt>
<pdfrwt beam="1">  1        4 0.30143080E-03 0.12500129E+03</pdfrwt>
<pdfrwt beam="2">  1       -4 0.30672888E+00 0.12500129E+03</pdfrwt>
<totfact> 0.99172004E+02</totfact>
</mgrwt>
</event>
<event>
 5    1  0.3286491E-002  0.1249995E+03  0.7818608E-02  0.1235070E+00
         -4   -1    0    0    0  501 -0.00000000000E+00  0.00000000000E+00  0.22217372237E+03  0.22217735216E+03  0.12700000000E+01 0. -1.
          4   -1    0    0  501    0  0.00000000000E+00 -0.00000000000E+00 -0.17555107032E+02  0.17600985282E+02  0.12700000000E+01 0. -1.
         25    2    1    2    0    0  0.00000000000E+00  0.00000000000E+00  0.20461861534E+03  0.23977833744E+03  0.12499949345E+03 0.  0.
    9000005    1    3    3    0    0  0.30182235075E+02  0.53342291900E+02  0.12571262682E+03  0.13986075919E+03  0.10000000000E+01 0.  0.
    9000005    1    3    3    0    0 -0.30182235075E+02 -0.53342291900E+02  0.78905988520E+02  0.99917578251E+02  0.10000000000E+01 0.  0.
<mgrwt>
<rscale>  0 0.12499949E+03</rscale>
<asrwt>0</asrwt>
<pdfrwt beam="2">  1        4 0.27045939E-02 0.12499949E+03</pdfrwt>
<pdfrwt beam="1">  1       -4 0.34184383E-01 0.12499949E+03</pdfrwt>
<totfact> 0.83831335E+03</totfact>
</mgrwt>
</event>
<event>
 5    1  0.3286491E-002  0.1250001E+03  0.7818608E-02  0.1235069E+00
         -4   -1    0    0    0  501 -0.00000000000E+00  0.00000000000E+00  0.13088720671E+02  0.13150190447E+02  0.12700000000E+01 0.  1.
          4   -1    0    0  501    0  0.00000000000E+00 -0.00000000000E+00 -0.29768269148E+03  0.29768540056E+03  0.12700000000E+01 0.  1.
         25    2    1    2    0    0  0.00000000000E+00  0.00000000000E+00 -0.28459397081E+03  0.31083559101E+03  0.12500014566E+03 0.  0.
    9000005    1    3    3    0    0 -0.54021884165E+02 -0.31404758471E+02 -0.14428054184E+03  0.15723389450E+03  0.10000000000E+01 0.  0.
    9000005    1    3    3    0    0  0.54021884165E+02  0.31404758471E+02 -0.14031342897E+03  0.15360169651E+03  0.10000000000E+01 0.  0.
<mgrwt>
<rscale>  0 0.12500015E+03</rscale>
<asrwt>0</asrwt>
<pdfrwt beam="2">  1        4 0.45802269E-01 0.12500015E+03</pdfrwt>
<pdfrwt beam="1">  1       -4 0.20185864E-02 0.12500015E+03</pdfrwt>
<totfact> 0.74259200E+03</totfact>
</mgrwt>
</event>
<event>
 5    1  0.3286491E-002  0.1250191E+03  0.7818608E-02  0.1235039E+00
          4   -1    0    0  501    0  0.00000000000E+00  0.00000000000E+00  0.12588083671E+03  0.12588724300E+03  0.12700000000E+01 0. -1.
         -4   -1    0    0    0  501 -0.00000000000E+00 -0.00000000000E+00 -0.31020625381E+02  0.31046611715E+02  0.12700000000E+01 0. -1.
         25    2    1    2    0    0  0.00000000000E+00  0.00000000000E+00  0.94860211331E+02  0.15693385472E+03  0.12501909879E+03 0.  0.
    9000005    1    3    3    0    0  0.31477206030E+02 -0.34829791932E+02  0.99224854813E+02  0.10977477269E+03  0.10000000000E+01 0.  0.
    9000005    1    3    3    0    0 -0.31477206030E+02  0.34829791932E+02 -0.43646434824E+01  0.47159082034E+02  0.10000000000E+01 0.  0.
<mgrwt>
<rscale>  0 0.12501910E+03</rscale>
<asrwt>0</asrwt>
<pdfrwt beam="1">  1        4 0.19368774E-01 0.12501910E+03</pdfrwt>
<pdfrwt beam="2">  1       -4 0.47748957E-02 0.12501910E+03</pdfrwt>
<totfact> 0.97895146E+03</totfact>
</mgrwt>
</event>
<event>
 5    1  0.3286491E-002  0.1249983E+03  0.7818608E-02  0.1235072E+00
          4   -1    0    0  501    0  0.00000000000E+00  0.00000000000E+00  0.34565964511E+02  0.34589287396E+02  0.12700000000E+01 0.  1.
         -4   -1    0    0    0  501 -0.00000000000E+00 -0.00000000000E+00 -0.11294050316E+03  0.11294764342E+03  0.12700000000E+01 0.  1.
         25    2    1    2    0    0  0.00000000000E+00  0.00000000000E+00 -0.78374538645E+02  0.14753693081E+03  0.12499831057E+03 0.  0.
    9000005    1    3    3    0    0  0.61222039554E+02  0.11008043384E+02 -0.46252324386E+02  0.77521562532E+02  0.10000000000E+01 0.  0.
    9000005    1    3    3    0    0 -0.61222039554E+02 -0.11008043384E+02 -0.32122214259E+02  0.70015368279E+02  0.10000000000E+01 0.  0.
<mgrwt>
<rscale>  0 0.12499831E+03</rscale>
<asrwt>0</asrwt>
<pdfrwt beam="1">  1        4 0.53201841E-02 0.12499831E+03</pdfrwt>
<pdfrwt beam="2">  1       -4 0.17377805E-01 0.12499831E+03</pdfrwt>
<totfact> 0.99800755E+03</totfact>
</mgrwt>
</event>
<event>
 5    1  0.3286491E-002  0.1249985E+03  0.7818608E-02  0.1235072E+00
         -4   -1    0    0    0  501 -0.00000000000E+00  0.00000000000E+00  0.14348643000E+02  0.14404737274E+02  0.12700000000E+01 0.  1.
          4   -1    0    0  501    0  0.00000000000E+00 -0.00000000000E+00 -0.27164325786E+03  0.27164622663E+03  0.12700000000E+01 0.  1.
         25    2    1    2    0    0  0.00000000000E+00  0.00000000000E+00 -0.25729461486E+03  0.28605096390E+03  0.12499854044E+03 0.  0.
    9000005    1    3    3    0    0  0.25386597082E+02  0.24283944043E+02 -0.10377758539E+02  0.36645424298E+02  0.10000000000E+01 0.  0.
    9000005    1    3    3    0    0 -0.25386597082E+02 -0.24283944043E+02 -0.24691685632E+03  0.24940553961E+03  0.10000000000E+01 0.  0.
<mgrwt>
<rscale>  0 0.12499854E+03</rscale>
<asrwt>0</asrwt>
<pdfrwt beam="2">  1        4 0.41795810E-01 0.12499854E+03</pdfrwt>
<pdfrwt beam="1">  1       -4 0.22120271E-02 0.12499854E+03</pdfrwt>
<totfact> 0.77385083E+03</totfact>
</mgrwt>
</event>
<event>
 5    1  0.3286491E-002  0.1249998E+03  0.7818608E-02  0.1235070E+00
          4   -1    0    0  501    0  0.00000000000E+00  0.00000000000E+00  0.27056041875E+02  0.27085832126E+02  0.12700000000E+01 0.  1.
         -4   -1    0    0    0  501 -0.00000000000E+00 -0.00000000000E+00 -0.14426378782E+03  0.14426937782E+03  0.12700000000E+01 0.  1.
         25    2    1    2    0    0  0.00000000000E+00  0.00000000000E+00 -0.11720774595E+03  0.17135520995E+03  0.12499980906E+03 0.  0.
    9000005    1    3    3    0    0 -0.60894522035E+02 -0.12510821707E+02 -0.67335899551E+02  0.91650351019E+02  0.10000000000E+01 0.  0.
    9000005    1    3    3    0    0  0.60894522035E+02  0.12510821707E+02 -0.49871846395E+02  0.79704858926E+02  0.10000000000E+01 0.  0.
<mgrwt>
<rscale>  0 0.12499981E+03</rscale>
<asrwt>0</asrwt>
<pdfrwt beam="1">  1        4 0.41651896E-02 0.12499981E+03</pdfrwt>
<pdfrwt beam="2">  1       -4 0.22197150E-01 0.12499981E+03</pdfrwt>
<totfact> 0.95197054E+03</totfact>
</mgrwt>
</event>
<event>
 4    1  0.3286491E-002  0.1254356E+03  0.7818608E-02  0.1234390E+00
         -4   -1    0    0    0  501 -0.00000000000E+00  0.00000000000E+00  0.51523576093E+02  0.51539225774E+02  0.12700000000E+01 0.  1.
          4   -1    0    0  501    0  0.00000000000E+00 -0.00000000000E+00 -0.76311647881E+02  0.76322214999E+02  0.12700000000E+01 0.  1.
    9000005    1    1    2    0    0 -0.37781834789E+02 -0.42057620680E+02  0.15263965684E+02  0.58568755712E+02  0.10000000000E+01 0.  0.
    9000005    1    1    2    0    0  0.37781834789E+02  0.42057620680E+02 -0.40052037472E+02  0.69292685061E+02  0.10000000000E+01 0.  0.
<mgrwt>
<rscale>  0 0.12543564E+03</rscale>
<asrwt>0</asrwt>
<pdfrwt beam="2">  1        4 0.11742270E-01 0.12543564E+03</pdfrwt>
<pdfrwt beam="1">  1       -4 0.79287207E-02 0.12543564E+03</pdfrwt>
<totfact> 0.10288956E+04</totfact>
</mgrwt>
</event>
<event>
 5    1  0.3286491E-002  0.1250054E+03  0.7818608E-02  0.1235061E+00
          4   -1    0    0  501    0  0.00000000000E+00  0.00000000000E+00  0.30967446970E+02  0.30993477892E+02  0.12700000000E+01 0. -1.
         -4   -1    0    0    0  501 -0.00000000000E+00 -0.00000000000E+00 -0.12606918596E+03  0.12607558268E+03  0.12700000000E+01 0. -1.
         25    2    1    2    0    0  0.00000000000E+00  0.00000000000E+00 -0.95101738992E+02  0.15706906058E+03  0.12500539601E+03 0.  0.
    9000005    1    3    3    0    0  0.41778766989E+02  0.12881490272E+02  0.85597488249E+01  0.44560828793E+02  0.10000000000E+01 0.  0.
    9000005    1    3    3    0    0 -0.41778766989E+02 -0.12881490272E+02 -0.10366148782E+03  0.11250823178E+03  0.10000000000E+01 0.  0.
<mgrwt>
<rscale>  0 0.12500540E+03</rscale>
<asrwt>0</asrwt>
<pdfrwt beam="1">  1        4 0.47667171E-02 0.12500540E+03</pdfrwt>
<pdfrwt beam="2">  1       -4 0.19397754E-01 0.12500540E+03</pdfrwt>
<totfact> 0.97898963E+03</totfact>
</mgrwt>
</event>
<event>
 5    1  0.3286491E-002  0.1250004E+03  0.7818608E-02  0.1235069E+00
         -4   -1    0    0    0  501 -0.00000000000E+00  0.00000000000E+00  0.10975067434E+03  0.10975802211E+03  0.12700000000E+01 0. -1.
          4   -1    0    0  501    0  0.00000000000E+00 -0.00000000000E+00 -0.35572392426E+02  0.35595055877E+02  0.12700000000E+01 0. -1.
         25    2    1    2    0    0  0.00000000000E+00  0.00000000000E+00  0.74178281909E+02  0.14535307799E+03  0.12500039909E+03 0.  0.
    9000005    1    3    3    0    0 -0.39257068159E+02  0.70501948448E+01  0.93031007139E+02  0.10122544609E+03  0.10000000000E+01 0.  0.
    9000005    1    3    3    0    0  0.39257068159E+02 -0.70501948448E+01 -0.18852725229E+02  0.44127631891E+02  0.10000000000E+01 0.  0.
<mgrwt>
<rscale>  0 0.12500040E+03</rscale>
<asrwt>0</asrwt>
<pdfrwt beam="2">  1        4 0.54749844E-02 0.12500040E+03</pdfrwt>
<pdfrwt beam="1">  1       -4 0.16887028E-01 0.12500040E+03</pdfrwt>
<totfact> 0.10023730E+04</totfact>
</mgrwt>
</event>
<event>
 5    1  0.3286491E-002  0.1249995E+03  0.7818608E-02  0.1235070E+00
         -4   -1    0    0    0  501 -0.00000000000E+00  0.00000000000E+00  0.46014485431E+02  0.46032008098E+02  0.12700000000E+01 0. -1.
          4   -1    0    0  501    0  0.00000000000E+00 -0.00000000000E+00 -0.84852628695E+02  0.84862132288E+02  0.12700000000E+01 0. -1.
         25    2    1    2    0    0  0.00000000000E+00  0.00000000000E+00 -0.38838143263E+02  0.13089414039E+03  0.12499949846E+03 0.  0.
    9000005    1    3    3    0    0  0.21185845367E+01 -0.19420851722E+02 -0.81577899735E+02  0.83890473876E+02  0.10000000000E+01 0.  0.
    9000005    1    3    3    0    0 -0.21185845367E+01  0.19420851722E+02  0.42739756471E+02  0.47003666509E+02  0.10000000000E+01 0.  0.
<mgrwt>
<rscale>  0 0.12499950E+03</rscale>
<asrwt>0</asrwt>
<pdfrwt beam="2">  1        4 0.13056329E-01 0.12499950E+03</pdfrwt>
<pdfrwt beam="1">  1       -4 0.70812306E-02 0.12499950E+03</pdfrwt>
<totfact> 0.10325476E+04</totfact>
</mgrwt>
</event>
<event>
 5    1  0.3286491E-002  0.1250027E+03  0.7818608E-02  0.1235065E+00
         -4   -1    0    0    0  501 -0.00000000000E+00  0.00000000000E+00  0.57541732475E+02  0.57555745814E+02  0.12700000000E+01 0.  1.
          4   -1    0    0  501    0  0.00000000000E+00 -0.00000000000E+00 -0.67860184496E+02  0.67872067450E+02  0.12700000000E+01 0.  1.
         25    2    1    2    0    0  0.00000000000E+00  0.00000000000E+00 -0.10318452022E+02  0.12542781326E+03  0.12500266352E+03 0.  0.
    9000005    1    3    3    0    0  0.42147772725E+02 -0.18200246403E+02  0.37384659354E+02  0.59213988802E+02  0.10000000000E+01 0.  0.
    9000005    1    3    3    0    0 -0.42147772725E+02  0.18200246403E+02 -0.47703111376E+02  0.66213824461E+02  0.10000000000E+01 0.  0.
<mgrwt>
<rscale>  0 0.12500266E+03</rscale>
<asrwt>0</asrwt>
<pdfrwt beam="2">  1        4 0.10442020E-01 0.12500266E+03</pdfrwt>
<pdfrwt beam="1">  1       -4 0.88545662E-02 0.12500266E+03</pdfrwt>
<totfact> 0.10442924E+04</totfact>
</mgrwt>
</event>
<event>
 5    1  0.3286491E-002  0.1249981E+03  0.7818608E-02  0.1235072E+00
          4   -1    0    0  501    0  0.00000000000E+00  0.00000000000E+00  0.36088925362E+02  0.36111264638E+02  0.12700000000E+01 0. -1.
         -4   -1    0    0    0  501 -0.00000000000E+00 -0.00000000000E+00 -0.10817674601E+03  0.10818420068E+03  0.12700000000E+01 0. -1.
         25    2    1    2    0    0  0.00000000000E+00  0.00000000000E+00 -0.72087820648E+02  0.14429546532E+03  0.12499810969E+03 0.  0.
    9000005    1    3    3    0    0  0.38950657222E+01 -0.47852038557E+01  0.35742099375E+02  0.36284533628E+02  0.10000000000E+01 0.  0.
    9000005    1    3    3    0    0 -0.38950657222E+01  0.47852038557E+01 -0.10782992002E+03  0.10801093169E+03  0.10000000000E+01 0.  0.
<mgrwt>
<rscale>  0 0.12499811E+03</rscale>
<asrwt>0</asrwt>
<pdfrwt beam="1">  1        4 0.55544343E-02 0.12499811E+03</pdfrwt>
<pdfrwt beam="2">  1       -4 0.16644868E-01 0.12499811E+03</pdfrwt>
<totfact> 0.10045750E+04</totfact>
</mgrwt>
</event>
<event>
 5    1  0.3286491E-002  0.1249968E+03  0.7818608E-02  0.1235074E+00
         -4   -1    0    0    0  501 -0.00000000000E+00  0.00000000000E+00  0.95482933981E+01  0.96323832366E+01  0.12700000000E+01 0.  1.
          4   -1    0    0  501    0  0.00000000000E+00 -0.00000000000E+00 -0.40720490175E+03  0.40720688219E+03  0.12700000000E+01 0.  1.
         25    2    1    2    0    0  0.00000000000E+00  0.00000000000E+00 -0.39765660835E+03  0.41683926543E+03  0.12499678013E+03 0.  0.
    9000005    1    3    3    0    0 -0.12343745022E+02  0.12366688735E+02 -0.39890923933E+03  0.39929298047E+03  0.10000000000E+01 0.  0.
    9000005    1    3    3    0    0  0.12343745022E+02 -0.12366688735E+02  0.12526309827E+01  0.17546284958E+02  0.10000000000E+01 0.  0.
<mgrwt>
<rscale>  0 0.12499678E+03</rscale>
<asrwt>0</asrwt>
<pdfrwt beam="2">  1        4 0.62653515E-01 0.12499678E+03</pdfrwt>
<pdfrwt beam="1">  1       -4 0.14755893E-02 0.12499678E+03</pdfrwt>
<totfact> 0.62951801E+03</totfact>
</mgrwt>
</event>
<event>
 5    1  0.3286491E-002  0.1249996E+03  0.7818608E-02  0.1235070E+00
          4   -1    0    0  501    0  0.00000000000E+00  0.00000000000E+00  0.85306913877E+01  0.86247084329E+01  0.12700000000E+01 0.  1.
         -4   -1    0    0    0  501 -0.00000000000E+00 -0.00000000000E+00 -0.45529811032E+03  0.45529988157E+03  0.12700000000E+01 0.  1.
         25    2    1    2    0    0  0.00000000000E+00  0.00000000000E+00 -0.44676741893E+03  0.46392459001E+03  0.12499959437E+03 0.  0.
    9000005    1    3    3    0    0  0.55480463478E+02  0.66315688200E+01 -0.32724780801E+03  0.33198522163E+03  0.10000000000E+01 0.  0.
    9000005    1    3    3    0    0 -0.55480463478E+02 -0.66315688200E+01 -0.11951961092E+03  0.13193936838E+03  0.10000000000E+01 0.  0.
<mgrwt>
<rscale>  0 0.12499959E+03</rscale>
<asrwt>0</asrwt>
<pdfrwt beam="1">  1        4 0.13197827E-02 0.12499959E+03</pdfrwt>
<pdfrwt beam="2">  1       -4 0.70053213E-01 0.12499959E+03</pdfrwt>
<totfact> 0.58776741E+03</totfact>
</mgrwt>
</event>
<event>
 5    1  0.3286491E-002  0.1249992E+03  0.7818608E-02  0.1235070E+00
          4   -1    0    0  501    0  0.00000000000E+00  0.00000000000E+00  0.15535984331E+04  0.15535989522E+04  0.12700000000E+01 0. -1.
         -4   -1    0    0    0  501 -0.00000000000E+00 -0.00000000000E+00 -0.23533678254E+01  0.26741802709E+01  0.12700000000E+01 0. -1.
         25    2    1    2    0    0  0.00000000000E+00  0.00000000000E+00  0.15512450653E+04  0.15562731325E+04  0.12499924106E+03 0.  0.
    9000005    1    3    3    0    0 -0.50991224230E+02  0.31658247437E+02  0.55895473218E+03  0.56216878444E+03  0.10000000000E+01 0.  0.
    9000005    1    3    3    0    0  0.50991224230E+02 -0.31658247437E+02  0.99229033313E+03  0.99410434804E+03  0.10000000000E+01 0.  0.
<mgrwt>
<rscale>  0 0.12499924E+03</rscale>
<asrwt>0</asrwt>
<pdfrwt beam="1">  1        4 0.23904010E+00 0.12499924E+03</pdfrwt>
<pdfrwt beam="2">  1       -4 0.38677401E-03 0.12499924E+03</pdfrwt>
<totfact> 0.16850647E+03</totfact>
</mgrwt>
</event>
<event>
 5    1  0.3286491E-002  0.1249995E+03  0.7818608E-02  0.1235070E+00
          4   -1    0    0  501    0  0.00000000000E+00  0.00000000000E+00  0.52399470717E+02  0.52414858881E+02  0.12700000000E+01 0. -1.
         -4   -1    0    0    0  501 -0.00000000000E+00 -0.00000000000E+00 -0.74515196194E+02  0.74526018033E+02  0.12700000000E+01 0. -1.
         25    2    1    2    0    0  0.00000000000E+00  0.00000000000E+00 -0.22115725476E+02  0.12694087691E+03  0.12499952367E+03 0.  0.
    9000005    1    3    3    0    0 -0.54302664747E+02 -0.19148253030E+02 -0.35720532332E+02  0.67767185442E+02  0.10000000000E+01 0.  0.
    9000005    1    3    3    0    0  0.54302664747E+02  0.19148253030E+02  0.13604806856E+02  0.59173691471E+02  0.10000000000E+01 0.  0.
<mgrwt>
<rscale>  0 0.12499952E+03</rscale>
<asrwt>0</asrwt>
<pdfrwt beam="1">  1        4 0.80634732E-02 0.12499952E+03</pdfrwt>
<pdfrwt beam="2">  1       -4 0.11465893E-01 0.12499952E+03</pdfrwt>
<totfact> 0.10410542E+04</totfact>
</mgrwt>
</event>
<event>
 5    1  0.3286491E-002  0.1250027E+03  0.7818608E-02  0.1235065E+00
         -4   -1    0    0    0  501 -0.00000000000E+00  0.00000000000E+00  0.40913667504E+03  0.40913864613E+03  0.12700000000E+01 0.  1.
          4   -1    0    0  501    0  0.00000000000E+00 -0.00000000000E+00 -0.95037207307E+01  0.95882014855E+01  0.12700000000E+01 0.  1.
         25    2    1    2    0    0  0.00000000000E+00  0.00000000000E+00  0.39963295431E+03  0.41872684762E+03  0.12500269897E+03 0.  0.
    9000005    1    3    3    0    0  0.30428001471E+02 -0.50530333435E+02  0.26897392139E+03  0.27536729700E+03  0.10000000000E+01 0.  0.
    9000005    1    3    3    0    0 -0.30428001471E+02  0.50530333435E+02  0.13065903292E+03  0.14335955062E+03  0.10000000000E+01 0.  0.
<mgrwt>
<rscale>  0 0.12500270E+03</rscale>
<asrwt>0</asrwt>
<pdfrwt beam="2">  1        4 0.14687609E-02 0.12500270E+03</pdfrwt>
<pdfrwt beam="1">  1       -4 0.62950758E-01 0.12500270E+03</pdfrwt>
<totfact> 0.62767557E+03</totfact>
</mgrwt>
</event>
<event>
 5    1  0.3286491E-002  0.1250057E+03  0.7818608E-02  0.1235060E+00
          4   -1    0    0  501    0  0.00000000000E+00  0.00000000000E+00  0.42224025701E+01  0.44092611018E+01  0.12700000000E+01 0.  1.
         -4   -1    0    0    0  501 -0.00000000000E+00 -0.00000000000E+00 -0.90499335832E+03  0.90499424943E+03  0.12700000000E+01 0.  1.
         25    2    1    2    0    0  0.00000000000E+00  0.00000000000E+00 -0.90077095575E+03  0.90940351054E+03  0.12500572086E+03 0.  0.
    9000005    1    3    3    0    0 -0.28741529560E+02  0.52429032335E+02 -0.31808463244E+03  0.32365678171E+03  0.10000000000E+01 0.  0.
    9000005    1    3    3    0    0  0.28741529560E+02 -0.52429032335E+02 -0.58268632332E+03  0.58574672883E+03  0.10000000000E+01 0.  0.
<mgrwt>
<rscale>  0 0.12500572E+03</rscale>
<asrwt>0</asrwt>
<pdfrwt beam="1">  1        4 0.66404340E-03 0.12500572E+03</pdfrwt>
<pdfrwt beam="2">  1       -4 0.13924404E+00 0.12500572E+03</pdfrwt>
<totfact> 0.33798215E+03</totfact>
</mgrwt>
</event>
<event>
 5    1  0.3286491E-002  0.1250018E+03  0.7818608E-02  0.1235066E+00
         -4   -1    0    0    0  501 -0.00000000000E+00  0.00000000000E+00  0.68649853233E+02  0.68661599522E+02  0.12700000000E+01 0. -1.
          4   -1    0    0  501    0  0.00000000000E+00 -0.00000000000E+00 -0.56878985805E+02  0.56893162385E+02  0.12700000000E+01 0. -1.
         25    2    1    2    0    0  0.00000000000E+00  0.00000000000E+00  0.11770867427E+02  0.12555476191E+03  0.12500177966E+03 0.  0.
    9000005    1    3    3    0    0 -0.42031350484E+02  0.30630665567E+02 -0.28915917725E+02  0.59514724182E+02  0.10000000000E+01 0.  0.
    9000005    1    3    3    0    0  0.42031350484E+02 -0.30630665567E+02  0.40686785153E+02  0.66040037725E+02  0.10000000000E+01 0.  0.
<mgrwt>
<rscale>  0 0.12500178E+03</rscale>
<asrwt>0</asrwt>
<pdfrwt beam="2">  1        4 0.87526073E-02 0.12500178E+03</pdfrwt>
<pdfrwt beam="1">  1       -4 0.10563510E-01 0.12500178E+03</pdfrwt>
<totfact> 0.10440326E+04</totfact>
</mgrwt>
</event>
<event>
 5    1  0.3286491E-002  0.1249978E+03  0.7818608E-02  0.1235073E+00
          4   -1    0    0  501    0  0.00000000000E+00  0.00000000000E+00  0.85592689948E+01  0.86529755417E+01  0.12700000000E+01 0. -1.
         -4   -1    0    0    0  501 -0.00000000000E+00 -0.00000000000E+00 -0.45378132561E+03  0.45378310278E+03  0.12700000000E+01 0. -1.
         25    2    1    2    0    0  0.00000000000E+00  0.00000000000E+00 -0.44522205661E+03  0.46243607833E+03  0.12499778734E+03 0.  0.
    9000005    1    3    3    0    0  0.42528095652E+02  0.75699237383E+01 -0.55549673506E+02  0.70375485021E+02  0.10000000000E+01 0.  0.
    9000005    1    3    3    0    0 -0.42528095652E+02 -0.75699237383E+01 -0.38967238311E+03  0.39206059330E+03  0.10000000000E+01 0.  0.
<mgrwt>
<rscale>  0 0.12499779E+03</rscale>
<asrwt>0</asrwt>
<pdfrwt beam="1">  1        4 0.13241559E-02 0.12499779E+03</pdfrwt>
<pdfrwt beam="2">  1       -4 0.69819838E-01 0.12499779E+03</pdfrwt>
<totfact> 0.58904275E+03</totfact>
</mgrwt>
</event>
<event>
 5    1  0.3286491E-002  0.1250038E+03  0.7818608E-02  0.1235063E+00
         -4   -1    0    0    0  501 -0.00000000000E+00  0.00000000000E+00  0.31230367908E+03  0.31230626134E+03  0.12700000000E+01 0.  1.
          4   -1    0    0  501    0  0.00000000000E+00 -0.00000000000E+00 -0.12473738370E+02  0.12538223515E+02  0.12700000000E+01 0.  1.
         25    2    1    2    0    0  0.00000000000E+00  0.00000000000E+00  0.29982994071E+03  0.32484448485E+03  0.12500378390E+03 0.  0.
    9000005    1    3    3    0    0  0.60017695437E+02 -0.34188873257E+01  0.10553355446E+03  0.12145840306E+03  0.10000000000E+01 0.  0.
    9000005    1    3    3    0    0 -0.60017695437E+02  0.34188873257E+01  0.19429638626E+03  0.20338608180E+03  0.10000000000E+01 0.  0.
<mgrwt>
<rscale>  0 0.12500378E+03</rscale>
<asrwt>0</asrwt>
<pdfrwt beam="2">  1        4 0.19241958E-02 0.12500378E+03</pdfrwt>
<pdfrwt beam="1">  1       -4 0.48051875E-01 0.12500378E+03</pdfrwt>
<totfact> 0.72577533E+03</totfact>
</mgrwt>
</event>
<event>
 5    1  0.3286491E-002  0.1250059E+03  0.7818608E-02  0.1235060E+00
         -4   -1    0    0    0  501 -0.00000000000E+00  0.00000000000E+00  0.13497171445E+03  0.13497768927E+03  0.12700000000E+01 0.  1.
          4   -1    0    0  501    0  0.00000000000E+00 -0.00000000000E+00 -0.28923411599E+02  0.28951280430E+02  0.12700000000E+01 0.  1.
         25    2    1    2    0    0  0.00000000000E+00  0.00000000000E+00  0.10604830285E+03  0.16392896970E+03  0.12500585814E+03 0.  0.
    9000005    1    3    3    0    0 -0.25088853624E+02 -0.35607514645E+01  0.12793871631E+03  0.13042792899E+03  0.10000000000E+01 0.  0.
    9000005    1    3    3    0    0  0.25088853624E+02  0.35607514645E+01 -0.21890413468E+02  0.33501040714E+02  0.10000000000E+01 0.  0.
<mgrwt>
<rscale>  0 0.12500586E+03</rscale>
<asrwt>0</asrwt>
<pdfrwt beam="2">  1        4 0.44523590E-02 0.12500586E+03</pdfrwt>
<pdfrwt beam="1">  1       -4 0.20767482E-01 0.12500586E+03</pdfrwt>
<totfact> 0.96577902E+03</totfact>
</mgrwt>
</event>
<event>
 5    1  0.3286491E-002  0.1250031E+03  0.7818608E-02  0.1235064E+00
         -4   -1    0    0    0  501 -0.00000000000E+00  0.00000000000E+00  0.45231316145E+03  0.45231494440E+03  0.12700000000E+01 0. -1.
          4   -1    0    0  501    0  0.00000000000E+00 -0.00000000000E+00 -0.85880947241E+01  0.86814901365E+01  0.12700000000E+01 0. -1.
         25    2    1    2    0    0  0.00000000000E+00  0.00000000000E+00  0.44372506673E+03  0.46099643453E+03  0.12500311119E+03 0.  0.
    9000005    1    3    3    0    0  0.48100318682E+02  0.38913369251E+02  0.18938542066E+03  0.19923786920E+03  0.10000000000E+01 0.  0.
    9000005    1    3    3    0    0 -0.48100318682E+02 -0.38913369251E+02  0.25433964607E+03  0.26175856533E+03  0.10000000000E+01 0.  0.
<mgrwt>
<rscale>  0 0.12500311E+03</rscale>
<asrwt>0</asrwt>
<pdfrwt beam="2">  1        4 0.13285671E-02 0.12500311E+03</pdfrwt>
<pdfrwt beam="1">  1       -4 0.69593944E-01 0.12500311E+03</pdfrwt>
<totfact> 0.59018838E+03</totfact>
</mgrwt>
</event>
<event>
 5    1  0.3286491E-002  0.1250078E+03  0.7818608E-02  0.1235057E+00
         -4   -1    0    0    0  501 -0.00000000000E+00  0.00000000000E+00  0.31994902660E+03  0.31995154714E+03  0.12700000000E+01 0.  1.
          4   -1    0    0  501    0  0.00000000000E+00 -0.00000000000E+00 -0.12174896919E+02  0.12240956458E+02  0.12700000000E+01 0.  1.
         25    2    1    2    0    0  0.00000000000E+00  0.00000000000E+00  0.30777412968E+03  0.33219250360E+03  0.12500777796E+03 0.  0.
    9000005    1    3    3    0    0  0.15938403382E+01 -0.26569845442E+02  0.36281142048E+01  0.26882340421E+02  0.10000000000E+01 0.  0.
    9000005    1    3    3    0    0 -0.15938403382E+01  0.26569845442E+02  0.30414601547E+03  0.30531016318E+03  0.10000000000E+01 0.  0.
<mgrwt>
<rscale>  0 0.12500778E+03</rscale>
<asrwt>0</asrwt>
<pdfrwt beam="2">  1        4 0.18783365E-02 0.12500778E+03</pdfrwt>
<pdfrwt beam="1">  1       -4 0.49228201E-01 0.12500778E+03</pdfrwt>
<totfact> 0.71716717E+03</totfact>
</mgrwt>
</event>
<event>
 5    1  0.3286491E-002  0.1249912E+03  0.7818608E-02  0.1235083E+00
         -4   -1    0    0    0  501 -0.00000000000E+00  0.00000000000E+00  0.85877844309E+02  0.85887234460E+02  0.12700000000E+01 0. -1.
          4   -1    0    0  501    0  0.00000000000E+00 -0.00000000000E+00 -0.45458997299E+02  0.45476734001E+02  0.12700000000E+01 0. -1.
         25    2    1    2    0    0  0.00000000000E+00  0.00000000000E+00  0.40418847010E+02  0.13136396846E+03  0.12499123576E+03 0.  0.
    9000005    1    3    3    0    0 -0.23561163265E+01  0.14001990031E+01  0.85819797109E+02  0.85869374152E+02  0.10000000000E+01 0.  0.
    9000005    1    3    3    0    0  0.23561163265E+01 -0.14001990031E+01 -0.45400950099E+02  0.45494594309E+02  0.10000000000E+01 0.  0.
<mgrwt>
<rscale>  0 0.12499124E+03</rscale>
<asrwt>0</asrwt>
<pdfrwt beam="2">  1        4 0.69957786E-02 0.12499124E+03</pdfrwt>
<pdfrwt beam="1">  1       -4 0.13214063E-01 0.12499124E+03</pdfrwt>
<totfact> 0.10317333E+04</totfact>
</mgrwt>
</event>
<event>
 5    1  0.3286491E-002  0.1249849E+03  0.7818608E-02  0.1235093E+00
         -4   -1    0    0    0  501 -0.00000000000E+00  0.00000000000E+00  0.28649312256E+02  0.28677447458E+02  0.12700000000E+01 0. -1.
          4   -1    0    0  501    0  0.00000000000E+00 -0.00000000000E+00 -0.13621622006E+03  0.13622214030E+03  0.12700000000E+01 0. -1.
         25    2    1    2    0    0  0.00000000000E+00  0.00000000000E+00 -0.10756690780E+03  0.16489958776E+03  0.12498493664E+03 0.  0.
    9000005    1    3    3    0    0 -0.71661840091E+01 -0.89301425523E+01  0.27259863283E+02  0.29583809515E+02  0.10000000000E+01 0.  0.
    9000005    1    3    3    0    0  0.71661840091E+01  0.89301425523E+01 -0.13482677109E+03  0.13531577824E+03  0.10000000000E+01 0.  0.
<mgrwt>
<rscale>  0 0.12498494E+03</rscale>
<asrwt>0</asrwt>
<pdfrwt beam="2">  1        4 0.20958961E-01 0.12498494E+03</pdfrwt>
<pdfrwt beam="1">  1       -4 0.44102063E-02 0.12498494E+03</pdfrwt>
<totfact> 0.96439043E+03</totfact>
</mgrwt>
</event>
<event>
 5    1  0.3286491E-002  0.1250005E+03  0.7818608E-02  0.1235069E+00
          4   -1    0    0  501    0  0.00000000000E+00  0.00000000000E+00  0.63398919845E+02  0.63411638818E+02  0.12700000000E+01 0. -1.
         -4   -1    0    0    0  501 -0.00000000000E+00 -0.00000000000E+00 -0.61588824199E+02  0.61601916903E+02  0.12700000000E+01 0. -1.
         25    2    1    2    0    0  0.00000000000E+00  0.00000000000E+00  0.18100956465E+01  0.12501355572E+03  0.12500045067E+03 0.  0.
    9000005    1    3    3    0    0 -0.34835202796E+02 -0.61039952538E+01 -0.50622466049E+02  0.61760700941E+02  0.10000000000E+01 0.  0.
    9000005    1    3    3    0    0  0.34835202796E+02  0.61039952538E+01  0.52432561695E+02  0.63252854780E+02  0.10000000000E+01 0.  0.
<mgrwt>
<rscale>  0 0.12500045E+03</rscale>
<asrwt>0</asrwt>
<pdfrwt beam="1">  1        4 0.97556655E-02 0.12500045E+03</pdfrwt>
<pdfrwt beam="2">  1       -4 0.94771892E-02 0.12500045E+03</pdfrwt>
<totfact> 0.10452462E+04</totfact>
</mgrwt>
</event>
<event>
 5    1  0.3286491E-002  0.1249999E+03  0.7818608E-02  0.1235070E+00
          4   -1    0    0  501    0  0.00000000000E+00  0.00000000000E+00  0.19162201696E+03  0.19162622546E+03  0.12700000000E+01 0.  1.
         -4   -1    0    0    0  501 -0.00000000000E+00 -0.00000000000E+00 -0.20360917969E+02  0.20400487262E+02  0.12700000000E+01 0.  1.
         25    2    1    2    0    0  0.00000000000E+00  0.00000000000E+00  0.17126109899E+03  0.21202671273E+03  0.12499985152E+03 0.  0.
    9000005    1    3    3    0    0 -0.45365758719E+02 -0.36476433071E+02  0.47075357820E+02  0.74871032767E+02  0.10000000000E+01 0.  0.
    9000005    1    3    3    0    0  0.45365758719E+02  0.36476433071E+02  0.12418574117E+03  0.13715567996E+03  0.10000000000E+01 0.  0.
<mgrwt>
<rscale>  0 0.12499985E+03</rscale>
<asrwt>0</asrwt>
<pdfrwt beam="1">  1        4 0.29483679E-01 0.12499985E+03</pdfrwt>
<pdfrwt beam="2">  1       -4 0.31358163E-02 0.12499985E+03</pdfrwt>
<totfact> 0.88146249E+03</totfact>
</mgrwt>
</event>
<event>
 5    1  0.3286491E-002  0.1250024E+03  0.7818608E-02  0.1235066E+00
         -4   -1    0    0    0  501 -0.00000000000E+00  0.00000000000E+00  0.17214300614E+02  0.17261084717E+02  0.12700000000E+01 0. -1.
          4   -1    0    0  501    0  0.00000000000E+00 -0.00000000000E+00 -0.22657111896E+03  0.22657467830E+03  0.12700000000E+01 0. -1.
         25    2    1    2    0    0  0.00000000000E+00  0.00000000000E+00 -0.20935681835E+03  0.24383576302E+03  0.12500240773E+03 0.  0.
    9000005    1    3    3    0    0 -0.45340397036E+02 -0.29163486670E+02 -0.16633679941E+03  0.17485763179E+03  0.10000000000E+01 0.  0.
    9000005    1    3    3    0    0  0.45340397036E+02  0.29163486670E+02 -0.43020018937E+02  0.68978131226E+02  0.10000000000E+01 0.  0.
<mgrwt>
<rscale>  0 0.12500241E+03</rscale>
<asrwt>0</asrwt>
<pdfrwt beam="2">  1        4 0.34860966E-01 0.12500241E+03</pdfrwt>
<pdfrwt beam="1">  1       -4 0.26522267E-02 0.12500241E+03</pdfrwt>
<totfact> 0.83224930E+03</totfact>
</mgrwt>
</event>
<event>
 5    1  0.3286491E-002  0.1250006E+03  0.7818608E-02  0.1235068E+00
         -4   -1    0    0    0  501 -0.00000000000E+00  0.00000000000E+00  0.70932633625E+03  0.70932747317E+03  0.12700000000E+01 0.  1.
          4   -1    0    0  501    0  0.00000000000E+00 -0.00000000000E+00 -0.54326593616E+01  0.55791296578E+01  0.12700000000E+01 0.  1.
         25    2    1    2    0    0  0.00000000000E+00  0.00000000000E+00  0.70389367688E+03  0.71490660283E+03  0.12500056963E+03 0.  0.
    9000005    1    3    3    0    0  0.24462597586E+02 -0.13248446352E+02  0.67198577353E+03  0.67256213084E+03  0.10000000000E+01 0.  0.
    9000005    1    3    3    0    0 -0.24462597586E+02  0.13248446352E+02  0.31907903351E+02  0.42344471985E+02  0.10000000000E+01 0.  0.
<mgrwt>
<rscale>  0 0.12500057E+03</rscale>
<asrwt>0</asrwt>
<pdfrwt beam="2">  1        4 0.84714802E-03 0.12500057E+03</pdfrwt>
<pdfrwt beam="1">  1       -4 0.10913850E+00 0.12500057E+03</pdfrwt>
<totfact> 0.42310858E+03</totfact>
</mgrwt>
</event>
<event>
 5    1  0.3286491E-002  0.1249619E+03  0.7818608E-02  0.1235129E+00
          4   -1    0    0  501    0  0.00000000000E+00  0.00000000000E+00  0.14457457496E+04  0.14457463074E+04  0.12700000000E+01 0. -1.
         -4   -1    0    0    0  501 -0.00000000000E+00 -0.00000000000E+00 -0.25503293840E+01  0.28490489584E+01  0.12700000000E+01 0. -1.
         25    2    1    2    0    0  0.00000000000E+00  0.00000000000E+00  0.14431954203E+04  0.14485953564E+04  0.12496193643E+03 0.  0.
    9000005    1    3    3    0    0 -0.60764024290E+02  0.21460692443E+01  0.55521736021E+03  0.55853754515E+03  0.10000000000E+01 0.  0.
    9000005    1    3    3    0    0  0.60764024290E+02 -0.21460692443E+01  0.88797806004E+03  0.89005781126E+03  0.10000000000E+01 0.  0.
<mgrwt>
<rscale>  0 0.12496194E+03</rscale>
<asrwt>0</asrwt>
<pdfrwt beam="1">  1        4 0.22244534E+00 0.12496194E+03</pdfrwt>
<pdfrwt beam="2">  1       -4 0.41537989E-03 0.12496194E+03</pdfrwt>
<totfact> 0.18977310E+03</totfact>
</mgrwt>
</event>
<event>
 5    1  0.3286491E-002  0.1249994E+03  0.7818608E-02  0.1235070E+00
         -4   -1    0    0    0  501 -0.00000000000E+00  0.00000000000E+00  0.11749129922E+03  0.11749816294E+03  0.12700000000E+01 0. -1.
          4   -1    0    0  501    0  0.00000000000E+00 -0.00000000000E+00 -0.33226874867E+02  0.33251137024E+02  0.12700000000E+01 0. -1.
         25    2    1    2    0    0  0.00000000000E+00  0.00000000000E+00  0.84264424357E+02  0.15074929996E+03  0.12499943290E+03 0.  0.
    9000005    1    3    3    0    0 -0.22397888495E+02 -0.46216917165E+02  0.85068953155E+02  0.99375025193E+02  0.10000000000E+01 0.  0.
    9000005    1    3    3    0    0  0.22397888495E+02  0.46216917165E+02 -0.80452879762E+00  0.51374274767E+02  0.10000000000E+01 0.  0.
<mgrwt>
<rscale>  0 0.12499943E+03</rscale>
<asrwt>0</asrwt>
<pdfrwt beam="2">  1        4 0.51142211E-02 0.12499943E+03</pdfrwt>
<pdfrwt beam="1">  1       -4 0.18077979E-01 0.12499943E+03</pdfrwt>
<totfact> 0.99155811E+03</totfact>
</mgrwt>
</event>
<event>
 5    1  0.3286491E-002  0.1249997E+03  0.7818608E-02  0.1235070E+00
          4   -1    0    0  501    0  0.00000000000E+00  0.00000000000E+00  0.17088253478E+03  0.17088725404E+03  0.12700000000E+01 0. -1.
         -4   -1    0    0    0  501 -0.00000000000E+00 -0.00000000000E+00 -0.22836469751E+02  0.22871756616E+02  0.12700000000E+01 0. -1.
         25    2    1    2    0    0  0.00000000000E+00  0.00000000000E+00  0.14804606503E+03  0.19375901065E+03  0.12499966736E+03 0.  0.
    9000005    1    3    3    0    0 -0.34933688243E+02 -0.50025105155E+02  0.53090948359E+02  0.80885861049E+02  0.10000000000E+01 0.  0.
    9000005    1    3    3    0    0  0.34933688243E+02  0.50025105155E+02  0.94955116669E+02  0.11287314960E+03  0.10000000000E+01 0.  0.
<mgrwt>
<rscale>  0 0.12499967E+03</rscale>
<asrwt>0</asrwt>
<pdfrwt beam="1">  1        4 0.26292698E-01 0.12499967E+03</pdfrwt>
<pdfrwt beam="2">  1       -4 0.35163804E-02 0.12499967E+03</pdfrwt>
<totfact> 0.91198021E+03</totfact>
</mgrwt>
</event>
<event>
 5    1  0.3286491E-002  0.1250018E+03  0.7818608E-02  0.1235066E+00
          4   -1    0    0  501    0  0.00000000000E+00  0.00000000000E+00  0.16668667307E+03  0.16669151112E+03  0.12700000000E+01 0.  1.
         -4   -1    0    0    0  501 -0.00000000000E+00 -0.00000000000E+00 -0.23412983067E+02  0.23447402331E+02  0.12700000000E+01 0.  1.
         25    2    1    2    0    0  0.00000000000E+00  0.00000000000E+00  0.14327369000E+03  0.19013891345E+03  0.12500182463E+03 0.  0.
    9000005    1    3    3    0    0  0.25698394361E+02 -0.55662113642E+02  0.90059342383E+02  0.10895119787E+03  0.10000000000E+01 0.  0.
    9000005    1    3    3    0    0 -0.25698394361E+02  0.55662113642E+02  0.53214347621E+02  0.81187715577E+02  0.10000000000E+01 0.  0.
<mgrwt>
<rscale>  0 0.12500182E+03</rscale>
<asrwt>0</asrwt>
<pdfrwt beam="1">  1        4 0.25647123E-01 0.12500182E+03</pdfrwt>
<pdfrwt beam="2">  1       -4 0.36050172E-02 0.12500182E+03</pdfrwt>
<totfact> 0.91819397E+03</totfact>
</mgrwt>
</event>
<event>
 5    1  0.3286491E-002  0.1250054E+03  0.7818608E-02  0.1235061E+00
          4   -1    0    0  501    0  0.00000000000E+00  0.00000000000E+00  0.23677878882E+02  0.23711913637E+02  0.12700000000E+01 0. -1.
         -4   -1    0    0    0  501 -0.00000000000E+00 -0.00000000000E+00 -0.16483387718E+03  0.16483876961E+03  0.12700000000E+01 0. -1.
         25    2    1    2    0    0  0.00000000000E+00  0.00000000000E+00 -0.14115599830E+03  0.18855068325E+03  0.12500537707E+03 0.  0.
    9000005    1    3    3    0    0 -0.34112478188E+01  0.64750692684E+01  0.23036657432E+02  0.24191955674E+02  0.10000000000E+01 0.  0.
    9000005    1    3    3    0    0  0.34112478188E+01 -0.64750692684E+01 -0.16419265573E+03  0.16435872758E+03  0.10000000000E+01 0.  0.
<mgrwt>
<rscale>  0 0.12500538E+03</rscale>
<asrwt>0</asrwt>
<pdfrwt beam="1">  1        4 0.36457451E-02 0.12500538E+03</pdfrwt>
<pdfrwt beam="2">  1       -4 0.25362052E-01 0.12500538E+03</pdfrwt>
<totfact> 0.92089011E+03</totfact>
</mgrwt>
</event>
<event>
 4    1  0.3286491E-002  0.1249326E+03  0.7818608E-02  0.1235175E+00
         -4   -1    0    0    0  501 -0.00000000000E+00  0.00000000000E+00  0.33209956104E+03  0.33210198937E+03  0.12700000000E+01 0.  1.
          4   -1    0    0  501    0  0.00000000000E+00 -0.00000000000E+00 -0.11712816781E+02  0.11781467521E+02  0.12700000000E+01 0.  1.
    9000005    1    1    2    0    0 -0.41922137896E+02 -0.21200908923E+02  0.46899994751E+02  0.66389409492E+02  0.10000000000E+01 0.  0.
    9000005    1    1    2    0    0  0.41922137896E+02  0.21200908923E+02  0.27348674951E+03  0.27749404740E+03  0.10000000000E+01 0.  0.
<mgrwt>
<rscale>  0 0.12493265E+03</rscale>
<asrwt>0</asrwt>
<pdfrwt beam="2">  1        4 0.18074396E-02 0.12493265E+03</pdfrwt>
<pdfrwt beam="1">  1       -4 0.51097702E-01 0.12493265E+03</pdfrwt>
<totfact> 0.70507813E+03</totfact>
</mgrwt>
</event>
<event>
 5    1  0.3286491E-002  0.1249990E+03  0.7818608E-02  0.1235071E+00
          4   -1    0    0  501    0  0.00000000000E+00  0.00000000000E+00  0.15107658710E+02  0.15160944947E+02  0.12700000000E+01 0. -1.
         -4   -1    0    0    0  501 -0.00000000000E+00 -0.00000000000E+00 -0.25804682764E+03  0.25804995283E+03  0.12700000000E+01 0. -1.
         25    2    1    2    0    0  0.00000000000E+00  0.00000000000E+00 -0.24293916893E+03  0.27321089778E+03  0.12499901945E+03 0.  0.
    9000005    1    3    3    0    0 -0.58239978814E+02 -0.60727529716E+01 -0.73762349994E+02  0.94184169251E+02  0.10000000000E+01 0.  0.
    9000005    1    3    3    0    0  0.58239978814E+02  0.60727529716E+01 -0.16917681894E+03  0.17902672853E+03  0.10000000000E+01 0.  0.
<mgrwt>
<rscale>  0 0.12499902E+03</rscale>
<asrwt>0</asrwt>
<pdfrwt beam="1">  1        4 0.23285947E-02 0.12499902E+03</pdfrwt>
<pdfrwt beam="2">  1       -4 0.39703848E-01 0.12499902E+03</pdfrwt>
<totfact> 0.79088715E+03</totfact>
</mgrwt>
</event>
<event>
 5    1  0.3286491E-002  0.1249990E+03  0.7818608E-02  0.1235071E+00
         -4   -1    0    0    0  501 -0.00000000000E+00  0.00000000000E+00  0.15687384635E+03  0.15687898702E+03  0.12700000000E+01 0. -1.
          4   -1    0    0  501    0  0.00000000000E+00 -0.00000000000E+00 -0.24878445093E+02  0.24910839614E+02  0.12700000000E+01 0. -1.
         25    2    1    2    0    0  0.00000000000E+00  0.00000000000E+00  0.13199540126E+03  0.18178982664E+03  0.12499902046E+03 0.  0.
    9000005    1    3    3    0    0 -0.25812913052E+02  0.41774437071E+01 -0.16546658544E+02  0.30960449369E+02  0.10000000000E+01 0.  0.
    9000005    1    3    3    0    0  0.25812913052E+02 -0.41774437071E+01  0.14854205980E+03  0.15082937727E+03  0.10000000000E+01 0.  0.
<mgrwt>
<rscale>  0 0.12499902E+03</rscale>
<asrwt>0</asrwt>
<pdfrwt beam="2">  1        4 0.38303405E-02 0.12499902E+03</pdfrwt>
<pdfrwt beam="1">  1       -4 0.24137325E-01 0.12499902E+03</pdfrwt>
<totfact> 0.93297866E+03</totfact>
</mgrwt>
</event>
<event>
 5    1  0.3286491E-002  0.1250002E+03  0.7818608E-02  0.1235069E+00
          4   -1    0    0  501    0  0.00000000000E+00  0.00000000000E+00  0.86747088906E+02  0.86756384973E+02  0.12700000000E+01 0. -1.
         -4   -1    0    0    0  501 -0.00000000000E+00 -0.00000000000E+00 -0.45009810955E+02  0.45027724595E+02  0.12700000000E+01 0. -1.
         25    2    1    2    0    0  0.00000000000E+00  0.00000000000E+00  0.41737277951E+02  0.13178410957E+03  0.12500020466E+03 0.  0.
    9000005    1    3    3    0    0  0.40187474966E+02  0.41881695897E+02 -0.35429906321E+01  0.58160660054E+02  0.10000000000E+01 0.  0.
    9000005    1    3    3    0    0 -0.40187474966E+02 -0.41881695897E+02  0.45280268583E+02  0.73623449514E+02  0.10000000000E+01 0.  0.
<mgrwt>
<rscale>  0 0.12500020E+03</rscale>
<asrwt>0</asrwt>
<pdfrwt beam="1">  1        4 0.13347799E-01 0.12500020E+03</pdfrwt>
<pdfrwt beam="2">  1       -4 0.69266794E-02 0.12500020E+03</pdfrwt>
<totfact> 0.10306261E+04</totfact>
</mgrwt>
</event>
<event>
 5    1  0.3286491E-002  0.1249938E+03  0.7818608E-02  0.1235079E+00
          4   -1    0    0  501    0  0.00000000000E+00  0.00000000000E+00  0.93922671160E+01  0.94777413754E+01  0.12700000000E+01 0. -1.
         -4   -1    0    0    0  501 -0.00000000000E+00 -0.00000000000E+00 -0.41388891875E+03  0.41389086721E+03  0.12700000000E+01 0. -1.
         25    2    1    2    0    0  0.00000000000E+00  0.00000000000E+00 -0.40449665163E+03  0.42336860859E+03  0.12499375007E+03 0.  0.
    9000005    1    3    3    0    0 -0.44893875990E+02  0.14721344536E+02 -0.63720519614E+02  0.79331473617E+02  0.10000000000E+01 0.  0.
    9000005    1    3    3    0    0  0.44893875990E+02 -0.14721344536E+02 -0.34077613202E+03  0.34403713497E+03  0.10000000000E+01 0.  0.
<mgrwt>
<rscale>  0 0.12499375E+03</rscale>
<asrwt>0</asrwt>
<pdfrwt beam="1">  1        4 0.14516893E-02 0.12499375E+03</pdfrwt>
<pdfrwt beam="2">  1       -4 0.63681929E-01 0.12499375E+03</pdfrwt>
<totfact> 0.62350321E+03</totfact>
</mgrwt>
</event>
<event>
 5    1  0.3286491E-002  0.1249995E+03  0.7818608E-02  0.1235070E+00
          4   -1    0    0  501    0  0.00000000000E+00  0.00000000000E+00  0.22459715080E+03  0.22460074142E+03  0.12700000000E+01 0.  1.
         -4   -1    0    0    0  501 -0.00000000000E+00 -0.00000000000E+00 -0.17365190269E+02  0.17411568944E+02  0.12700000000E+01 0.  1.
         25    2    1    2    0    0  0.00000000000E+00  0.00000000000E+00  0.20723196053E+03  0.24201231037E+03  0.12499949161E+03 0.  0.
    9000005    1    3    3    0    0  0.94051782401E+01 -0.57296852924E+02  0.14834931828E+03  0.15931072459E+03  0.10000000000E+01 0.  0.
    9000005    1    3    3    0    0 -0.94051782401E+01  0.57296852924E+02  0.58882642247E+02  0.82701585781E+02  0.10000000000E+01 0.  0.
<mgrwt>
<rscale>  0 0.12499949E+03</rscale>
<asrwt>0</asrwt>
<pdfrwt beam="1">  1        4 0.34557249E-01 0.12499949E+03</pdfrwt>
<pdfrwt beam="2">  1       -4 0.26754118E-02 0.12499949E+03</pdfrwt>
<totfact> 0.83499527E+03</totfact>
</mgrwt>
</event>
<event>
 5    1  0.3286491E-002  0.1250013E+03  0.7818608E-02  0.1235067E+00
          4   -1    0    0  501    0  0.00000000000E+00  0.00000000000E+00  0.68573410624E+01  0.69739534301E+01  0.12700000000E+01 0. -1.
         -4   -1    0    0    0  501 -0.00000000000E+00 -0.00000000000E+00 -0.56473651665E+03  0.56473794466E+03  0.12700000000E+01 0. -1.
         25    2    1    2    0    0  0.00000000000E+00  0.00000000000E+00 -0.55787917559E+03  0.57171189809E+03  0.12500127944E+03 0.  0.
    9000005    1    3    3    0    0  0.60914329363E+01  0.57041649299E+02 -0.39231392464E+03  0.39648716345E+03  0.10000000000E+01 0.  0.
    9000005    1    3    3    0    0 -0.60914329363E+01 -0.57041649299E+02 -0.16556525095E+03  0.17522473465E+03  0.10000000000E+01 0.  0.
<mgrwt>
<rscale>  0 0.12500128E+03</rscale>
<asrwt>0</asrwt>
<pdfrwt beam="1">  1        4 0.10640560E-02 0.12500128E+03</pdfrwt>
<pdfrwt beam="2">  1       -4 0.86891585E-01 0.12500128E+03</pdfrwt>
<totfact> 0.50701941E+03</totfact>
</mgrwt>
</event>
<event>
 5    1  0.3286491E-002  0.1249990E+03  0.7818608E-02  0.1235071E+00
         -4   -1    0    0    0  501 -0.00000000000E+00  0.00000000000E+00  0.21479744209E+03  0.21480119652E+03  0.12700000000E+01 0.  1.
          4   -1    0    0  501    0  0.00000000000E+00 -0.00000000000E+00 -0.18159360397E+02  0.18203715830E+02  0.12700000000E+01 0.  1.
         25    2    1    2    0    0  0.00000000000E+00  0.00000000000E+00  0.19663808169E+03  0.23300491235E+03  0.12499901603E+03 0.  0.
    9000005    1    3    3    0    0 -0.15599432689E+02 -0.60445726803E+02  0.92994135402E+02  0.11200864881E+03  0.10000000000E+01 0.  0.
    9000005    1    3    3    0    0  0.15599432689E+02  0.60445726803E+02  0.10364394629E+03  0.12099626354E+03  0.10000000000E+01 0.  0.
<mgrwt>
<rscale>  0 0.12499902E+03</rscale>
<asrwt>0</asrwt>
<pdfrwt beam="2">  1        4 0.27974485E-02 0.12499902E+03</pdfrwt>
<pdfrwt beam="1">  1       -4 0.33049461E-01 0.12499902E+03</pdfrwt>
<totfact> 0.84852177E+03</totfact>
</mgrwt>
</event>
<event>
 5    1  0.3286491E-002  0.1249988E+03  0.7818608E-02  0.1235071E+00
          4   -1    0    0  501    0  0.00000000000E+00  0.00000000000E+00  0.33488207371E+03  0.33488448186E+03  0.12700000000E+01 0. -1.
         -4   -1    0    0    0  501 -0.00000000000E+00 -0.00000000000E+00 -0.11627305791E+02  0.11696458437E+02  0.12700000000E+01 0. -1.
         25    2    1    2    0    0  0.00000000000E+00  0.00000000000E+00  0.32325476791E+03  0.34658094029E+03  0.12499881278E+03 0.  0.
    9000005    1    3    3    0    0 -0.14839161993E+02 -0.55673074377E+02  0.22871714594E+03  0.23586484432E+03  0.10000000000E+01 0.  0.
    9000005    1    3    3    0    0  0.14839161993E+02  0.55673074377E+02  0.94537621970E+02  0.11071609597E+03  0.10000000000E+01 0.  0.
<mgrwt>
<rscale>  0 0.12499881E+03</rscale>
<asrwt>0</asrwt>
<pdfrwt beam="1">  1        4 0.51525808E-01 0.12499881E+03</pdfrwt>
<pdfrwt beam="2">  1       -4 0.17943215E-02 0.12499881E+03</pdfrwt>
<totfact> 0.70104190E+03</totfact>
</mgrwt>
</event>
<event>
 5    1  0.3286491E-002  0.1250036E+03  0.7818608E-02  0.1235064E+00
          4   -1    0    0  501    0  0.00000000000E+00  0.00000000000E+00  0.13980060125E+03  0.13980636970E+03  0.12700000000E+01 0.  1.
         -4   -1    0    0    0  501 -0.00000000000E+00 -0.00000000000E+00 -0.27922415104E+02  0.27951281996E+02  0.12700000000E+01 0.  1.
         25    2    1    2    0    0  0.00000000000E+00  0.00000000000E+00  0.11187818614E+03  0.16775765170E+03  0.12500360462E+03 0.  0.
    9000005    1    3    3    0    0 -0.55922399644E+02 -0.14956473385E+02  0.87539788531E+02  0.10495344422E+03  0.10000000000E+01 0.  0.
    9000005    1    3    3    0    0  0.55922399644E+02  0.14956473385E+02  0.24338397610E+02  0.62804207473E+02  0.10000000000E+01 0.  0.
<mgrwt>
<rscale>  0 0.12500360E+03</rscale>
<asrwt>0</asrwt>
<pdfrwt beam="1">  1        4 0.21510450E-01 0.12500360E+03</pdfrwt>
<pdfrwt beam="2">  1       -4 0.42984203E-02 0.12500360E+03</pdfrwt>
<totfact> 0.95859910E+03</totfact>
</mgrwt>
</event>
<event>
 5    1  0.3286491E-002  0.1250015E+03  0.7818608E-02  0.1235067E+00
         -4   -1    0    0    0  501 -0.00000000000E+00  0.00000000000E+00  0.29098242199E+03  0.29098519345E+03  0.12700000000E+01 0.  1.
          4   -1    0    0  501    0  0.00000000000E+00 -0.00000000000E+00 -0.13391790704E+02  0.13451875641E+02  0.12700000000E+01 0.  1.
         25    2    1    2    0    0  0.00000000000E+00  0.00000000000E+00  0.27759063129E+03  0.30443706909E+03  0.12500148183E+03 0.  0.
    9000005    1    3    3    0    0  0.28521440770E+02 -0.55492657928E+02  0.14738355908E+03  0.16004943347E+03  0.10000000000E+01 0.  0.
    9000005    1    3    3    0    0 -0.28521440770E+02  0.55492657928E+02  0.13020707221E+03  0.14438763562E+03  0.10000000000E+01 0.  0.
<mgrwt>
<rscale>  0 0.12500148E+03</rscale>
<asrwt>0</asrwt>
<pdfrwt beam="2">  1        4 0.20651106E-02 0.12500148E+03</pdfrwt>
<pdfrwt beam="1">  1       -4 0.44771361E-01 0.12500148E+03</pdfrwt>
<totfact> 0.75043142E+03</totfact>
</mgrwt>
</event>
<event>
 5    1  0.3286491E-002  0.1250038E+03  0.7818608E-02  0.1235063E+00
         -4   -1    0    0    0  501 -0.00000000000E+00  0.00000000000E+00  0.13827581088E+03  0.13828164294E+03  0.12700000000E+01 0. -1.
          4   -1    0    0  501    0  0.00000000000E+00 -0.00000000000E+00 -0.28230732395E+02  0.28259284342E+02  0.12700000000E+01 0. -1.
         25    2    1    2    0    0  0.00000000000E+00  0.00000000000E+00  0.11004507848E+03  0.16654092728E+03  0.12500384459E+03 0.  0.
    9000005    1    3    3    0    0  0.34958903510E+02 -0.15860799945E+02 -0.10676885848E+02  0.39858321602E+02  0.10000000000E+01 0.  0.
    9000005    1    3    3    0    0 -0.34958903510E+02  0.15860799945E+02  0.12072196433E+03  0.12668260568E+03  0.10000000000E+01 0.  0.
<mgrwt>
<rscale>  0 0.12500384E+03</rscale>
<asrwt>0</asrwt>
<pdfrwt beam="2">  1        4 0.43458346E-02 0.12500384E+03</pdfrwt>
<pdfrwt beam="1">  1       -4 0.21275846E-01 0.12500384E+03</pdfrwt>
<totfact> 0.96088061E+03</totfact>
</mgrwt>
</event>
<event>
 5    1  0.3286491E-002  0.1249983E+03  0.7818608E-02  0.1235072E+00
         -4   -1    0    0    0  501 -0.00000000000E+00  0.00000000000E+00  0.42776734895E+01  0.44622181124E+01  0.12700000000E+01 0.  1.
          4   -1    0    0  501    0  0.00000000000E+00 -0.00000000000E+00 -0.89368002888E+03  0.89368093128E+03  0.12700000000E+01 0.  1.
         25    2    1    2    0    0  0.00000000000E+00  0.00000000000E+00 -0.88940235539E+03  0.89814314939E+03  0.12499826803E+03 0.  0.
    9000005    1    3    3    0    0 -0.58867678093E+02 -0.20798522370E+02 -0.42547518110E+03  0.43003268688E+03  0.10000000000E+01 0.  0.
    9000005    1    3    3    0    0  0.58867678093E+02  0.20798522370E+02 -0.46392717429E+03  0.46811046250E+03  0.10000000000E+01 0.  0.
<mgrwt>
<rscale>  0 0.12499827E+03</rscale>
<asrwt>0</asrwt>
<pdfrwt beam="2">  1        4 0.13750336E+00 0.12499827E+03</pdfrwt>
<pdfrwt beam="1">  1       -4 0.67236948E-03 0.12499827E+03</pdfrwt>
<totfact> 0.34232446E+03</totfact>
</mgrwt>
</event>
<event>
 5    1  0.3286491E-002  0.1250053E+03  0.7818608E-02  0.1235061E+00
          4   -1    0    0  501    0  0.00000000000E+00  0.00000000000E+00  0.93290350765E+02  0.93298994881E+02  0.12700000000E+01 0.  1.
         -4   -1    0    0    0  501 -0.00000000000E+00 -0.00000000000E+00 -0.41855280461E+02  0.41874543609E+02  0.12700000000E+01 0.  1.
         25    2    1    2    0    0  0.00000000000E+00  0.00000000000E+00  0.51435070304E+02  0.13517353849E+03  0.12500527609E+03 0.  0.
    9000005    1    3    3    0    0 -0.52320694435E+02  0.26661339636E+02  0.25935420547E+01  0.58787826612E+02  0.10000000000E+01 0.  0.
    9000005    1    3    3    0    0  0.52320694435E+02 -0.26661339636E+02  0.48841528249E+02  0.76385711878E+02  0.10000000000E+01 0.  0.
<mgrwt>
<rscale>  0 0.12500528E+03</rscale>
<asrwt>0</asrwt>
<pdfrwt beam="1">  1        4 0.14354508E-01 0.12500528E+03</pdfrwt>
<pdfrwt beam="2">  1       -4 0.64414207E-02 0.12500528E+03</pdfrwt>
<totfact> 0.10233197E+04</totfact>
</mgrwt>
</event>
<event>
 5    1  0.3286491E-002  0.1249989E+03  0.7818608E-02  0.1235071E+00
         -4   -1    0    0    0  501 -0.00000000000E+00  0.00000000000E+00  0.29280851104E+02  0.29308380054E+02  0.12700000000E+01 0.  1.
          4   -1    0    0  501    0  0.00000000000E+00 -0.00000000000E+00 -0.13331064278E+03  0.13331669204E+03  0.12700000000E+01 0.  1.
         25    2    1    2    0    0  0.00000000000E+00  0.00000000000E+00 -0.10402979167E+03  0.16262507210E+03  0.12499886607E+03 0.  0.
    9000005    1    3    3    0    0 -0.37876797336E+02  0.36104467082E+02 -0.75706141878E+01  0.52881929985E+02  0.10000000000E+01 0.  0.
    9000005    1    3    3    0    0  0.37876797336E+02 -0.36104467082E+02 -0.96459177485E+02  0.10974314211E+03  0.10000000000E+01 0.  0.
<mgrwt>
<rscale>  0 0.12499887E+03</rscale>
<asrwt>0</asrwt>
<pdfrwt beam="2">  1        4 0.20511912E-01 0.12499887E+03</pdfrwt>
<pdfrwt beam="1">  1       -4 0.45073293E-02 0.12499887E+03</pdfrwt>
<totfact> 0.96841534E+03</totfact>
</mgrwt>
</event>
<event>
 5    1  0.3286491E-002  0.1249991E+03  0.7818608E-02  0.1235071E+00
          4   -1    0    0  501    0  0.00000000000E+00  0.00000000000E+00  0.70616868229E+01  0.71749788003E+01  0.12700000000E+01 0.  1.
         -4   -1    0    0    0  501 -0.00000000000E+00 -0.00000000000E+00 -0.54863757106E+03  0.54863904097E+03  0.12700000000E+01 0.  1.
         25    2    1    2    0    0  0.00000000000E+00  0.00000000000E+00 -0.54157588424E+03  0.55581401977E+03  0.12499914475E+03 0.  0.
    9000005    1    3    3    0    0  0.16792496240E+02 -0.59958195885E+02 -0.29441049549E+03  0.30092443078E+03  0.10000000000E+01 0.  0.
    9000005    1    3    3    0    0 -0.16792496240E+02  0.59958195885E+02 -0.24716538875E+03  0.25488958900E+03  0.10000000000E+01 0.  0.
<mgrwt>
<rscale>  0 0.12499914E+03</rscale>
<asrwt>0</asrwt>
<pdfrwt beam="1">  1        4 0.10952416E-02 0.12499914E+03</pdfrwt>
<pdfrwt beam="2">  1       -4 0.84414574E-01 0.12499914E+03</pdfrwt>
<totfact> 0.51782064E+03</totfact>
</mgrwt>
</event>
<event>
 5    1  0.3286491E-002  0.1250077E+03  0.7818608E-02  0.1235057E+00
          4   -1    0    0  501    0  0.00000000000E+00  0.00000000000E+00  0.30031161894E+03  0.30031430430E+03  0.12700000000E+01 0.  1.
         -4   -1    0    0    0  501 -0.00000000000E+00 -0.00000000000E+00 -0.12975187132E+02  0.13037192225E+02  0.12700000000E+01 0.  1.
         25    2    1    2    0    0  0.00000000000E+00  0.00000000000E+00  0.28733643181E+03  0.31335149653E+03  0.12500774110E+03 0.  0.
    9000005    1    3    3    0    0 -0.20160218047E+02  0.58857055975E+02  0.12880765122E+03  0.14304893723E+03  0.10000000000E+01 0.  0.
    9000005    1    3    3    0    0  0.20160218047E+02 -0.58857055975E+02  0.15852878058E+03  0.17030255930E+03  0.10000000000E+01 0.  0.
<mgrwt>
<rscale>  0 0.12500774E+03</rscale>
<asrwt>0</asrwt>
<pdfrwt beam="1">  1        4 0.46206756E-01 0.12500774E+03</pdfrwt>
<pdfrwt beam="2">  1       -4 0.20011592E-02 0.12500774E+03</pdfrwt>
<totfact> 0.73941227E+03</totfact>
</mgrwt>
</event>
<event>
 5    1  0.3286491E-002  0.1250009E+03  0.7818608E-02  0.1235068E+00
         -4   -1    0    0    0  501 -0.00000000000E+00  0.00000000000E+00  0.39308563410E+02  0.39329073945E+02  0.12700000000E+01 0. -1.
          4   -1    0    0  501    0  0.00000000000E+00 -0.00000000000E+00 -0.99324939166E+02  0.99333058145E+02  0.12700000000E+01 0. -1.
         25    2    1    2    0    0  0.00000000000E+00  0.00000000000E+00 -0.60016375756E+02  0.13866213209E+03  0.12500088606E+03 0.  0.
    9000005    1    3    3    0    0  0.53571383732E+02  0.32099093397E+02 -0.32503577588E+02  0.70411131989E+02  0.10000000000E+01 0.  0.
    9000005    1    3    3    0    0 -0.53571383732E+02 -0.32099093397E+02 -0.27512798167E+02  0.68251000102E+02  0.10000000000E+01 0.  0.
<mgrwt>
<rscale>  0 0.12500089E+03</rscale>
<asrwt>0</asrwt>
<pdfrwt beam="2">  1        4 0.15282962E-01 0.12500089E+03</pdfrwt>
<pdfrwt beam="1">  1       -4 0.60496736E-02 0.12500089E+03</pdfrwt>
<totfact> 0.10161186E+04</totfact>
</mgrwt>
</event>
<event>
 5    1  0.3286491E-002  0.1249963E+03  0.7818608E-02  0.1235075E+00
         -4   -1    0    0    0  501 -0.00000000000E+00  0.00000000000E+00  0.16921772518E+02  0.16969363133E+02  0.12700000000E+01 0.  1.
          4   -1    0    0  501    0  0.00000000000E+00 -0.00000000000E+00 -0.23045454549E+03  0.23045804485E+03  0.12700000000E+01 0.  1.
         25    2    1    2    0    0  0.00000000000E+00  0.00000000000E+00 -0.21353277297E+03  0.24742740798E+03  0.12499630830E+03 0.  0.
    9000005    1    3    3    0    0  0.16540215443E+02  0.58981794417E+02 -0.82314550038E+02  0.10261148058E+03  0.10000000000E+01 0.  0.
    9000005    1    3    3    0    0 -0.16540215443E+02 -0.58981794417E+02 -0.13121822293E+03  0.14481592740E+03  0.10000000000E+01 0.  0.
<mgrwt>
<rscale>  0 0.12499631E+03</rscale>
<asrwt>0</asrwt>
<pdfrwt beam="2">  1        4 0.35458473E-01 0.12499631E+03</pdfrwt>
<pdfrwt beam="1">  1       -4 0.26072798E-02 0.12499631E+03</pdfrwt>
<totfact> 0.82710279E+03</totfact>
</mgrwt>
</event>
<event>
 5    1  0.3286491E-002  0.1249837E+03  0.7818608E-02  0.1235095E+00
         -4   -1    0    0    0  501 -0.00000000000E+00  0.00000000000E+00  0.22060979116E+02  0.22097504374E+02  0.12700000000E+01 0.  1.
          4   -1    0    0  501    0  0.00000000000E+00 -0.00000000000E+00 -0.17683469911E+03  0.17683925952E+03  0.12700000000E+01 0.  1.
         25    2    1    2    0    0  0.00000000000E+00  0.00000000000E+00 -0.15477371999E+03  0.19893676389E+03  0.12498372546E+03 0.  0.
    9000005    1    3    3    0    0  0.72931450385E+01 -0.26024274436E+02 -0.16705744404E+03  0.16923250997E+03  0.10000000000E+01 0.  0.
    9000005    1    3    3    0    0 -0.72931450385E+01  0.26024274436E+02  0.12283724046E+02  0.29704253919E+02  0.10000000000E+01 0.  0.
<mgrwt>
<rscale>  0 0.12498373E+03</rscale>
<asrwt>0</asrwt>
<pdfrwt beam="2">  1        4 0.27208498E-01 0.12498373E+03</pdfrwt>
<pdfrwt beam="1">  1       -4 0.33971573E-02 0.12498373E+03</pdfrwt>
<totfact> 0.90348043E+03</totfact>
</mgrwt>
</event>
<event>
 5    1  0.3286491E-002  0.1250047E+03  0.7818608E-02  0.1235062E+00
         -4   -1    0    0    0  501 -0.00000000000E+00  0.00000000000E+00  0.24941436282E+02  0.24973749094E+02  0.12700000000E+01 0. -1.
          4   -1    0    0  501    0  0.00000000000E+00 -0.00000000000E+00 -0.15649225715E+03  0.15649741035E+03  0.12700000000E+01 0. -1.
         25    2    1    2    0    0  0.00000000000E+00  0.00000000000E+00 -0.13155082086E+03  0.18147115944E+03  0.12500465288E+03 0.  0.
    9000005    1    3    3    0    0 -0.13543022469E+02  0.60328974412E+02 -0.78964640760E+02  0.10029662557E+03  0.10000000000E+01 0.  0.
    9000005    1    3    3    0    0  0.13543022469E+02 -0.60328974412E+02 -0.52586180103E+02  0.81174533870E+02  0.10000000000E+01 0.  0.
<mgrwt>
<rscale>  0 0.12500465E+03</rscale>
<asrwt>0</asrwt>
<pdfrwt beam="2">  1        4 0.24078613E-01 0.12500465E+03</pdfrwt>
<pdfrwt beam="1">  1       -4 0.38400261E-02 0.12500465E+03</pdfrwt>
<totfact> 0.93343121E+03</totfact>
</mgrwt>
</event>
<event>
 5    1  0.3286491E-002  0.1250148E+03  0.7818608E-02  0.1235046E+00
          4   -1    0    0  501    0  0.00000000000E+00  0.00000000000E+00  0.17580609693E+02  0.17626421564E+02  0.12700000000E+01 0.  1.
         -4   -1    0    0    0  501 -0.00000000000E+00 -0.00000000000E+00 -0.22190643895E+03  0.22191007311E+03  0.12700000000E+01 0.  1.
         25    2    1    2    0    0  0.00000000000E+00  0.00000000000E+00 -0.20432582926E+03  0.23953649467E+03  0.12501475025E+03 0.  0.
    9000005    1    3    3    0    0 -0.22546004513E+02  0.69394190328E+01  0.87323510520E+01  0.25174030486E+02  0.10000000000E+01 0.  0.
    9000005    1    3    3    0    0  0.22546004513E+02 -0.69394190328E+01 -0.21305818031E+03  0.21436246419E+03  0.10000000000E+01 0.  0.
<mgrwt>
<rscale>  0 0.12501475E+03</rscale>
<asrwt>0</asrwt>
<pdfrwt beam="1">  1        4 0.27085129E-02 0.12501475E+03</pdfrwt>
<pdfrwt beam="2">  1       -4 0.34143254E-01 0.12501475E+03</pdfrwt>
<totfact> 0.83838874E+03</totfact>
</mgrwt>
</event>
<event>
 5    1  0.3286491E-002  0.1249462E+03  0.7818608E-02  0.1235153E+00
          4   -1    0    0  501    0  0.00000000000E+00  0.00000000000E+00  0.43013843379E+01  0.44849534248E+01  0.12700000000E+01 0. -1.
         -4   -1    0    0    0  501 -0.00000000000E+00 -0.00000000000E+00 -0.88821471376E+03  0.88821562170E+03  0.12700000000E+01 0. -1.
         25    2    1    2    0    0  0.00000000000E+00  0.00000000000E+00 -0.88391332942E+03  0.89270057513E+03  0.12494616003E+03 0.  0.
    9000005    1    3    3    0    0  0.53869052008E+02  0.14078626503E+02 -0.23964691911E+03  0.24603196607E+03  0.10000000000E+01 0.  0.
    9000005    1    3    3    0    0 -0.53869052008E+02 -0.14078626503E+02 -0.64426641031E+03  0.64666860906E+03  0.10000000000E+01 0.  0.
<mgrwt>
<rscale>  0 0.12494616E+03</rscale>
<asrwt>0</asrwt>
<pdfrwt beam="1">  1        4 0.67594268E-03 0.12494616E+03</pdfrwt>
<pdfrwt beam="2">  1       -4 0.13666247E+00 0.12494616E+03</pdfrwt>
<totfact> 0.34481244E+03</totfact>
</mgrwt>
</event>
<event>
 5    1  0.3286491E-002  0.1250141E+03  0.7818608E-02  0.1235047E+00
         -4   -1    0    0    0  501 -0.00000000000E+00  0.00000000000E+00  0.66576166332E+01  0.67776662085E+01  0.12700000000E+01 0.  1.
          4   -1    0    0  501    0  0.00000000000E+00 -0.00000000000E+00 -0.58150154445E+03  0.58150293129E+03  0.12700000000E+01 0.  1.
         25    2    1    2    0    0  0.00000000000E+00  0.00000000000E+00 -0.57484392781E+03  0.58828059750E+03  0.12501407938E+03 0.  0.
    9000005    1    3    3    0    0  0.40556293384E+02  0.47167880596E+02 -0.25898911869E+03  0.26635687619E+03  0.10000000000E+01 0.  0.
    9000005    1    3    3    0    0 -0.40556293384E+02 -0.47167880596E+02 -0.31585480912E+03  0.32192372130E+03  0.10000000000E+01 0.  0.
<mgrwt>
<rscale>  0 0.12501408E+03</rscale>
<asrwt>0</asrwt>
<pdfrwt beam="2">  1        4 0.89471078E-01 0.12501408E+03</pdfrwt>
<pdfrwt beam="1">  1       -4 0.10335904E-02 0.12501408E+03</pdfrwt>
<totfact> 0.49600526E+03</totfact>
</mgrwt>
</event>
<event>
 5    1  0.3286491E-002  0.1250011E+03  0.7818608E-02  0.1235068E+00
         -4   -1    0    0    0  501 -0.00000000000E+00  0.00000000000E+00  0.50259404264E+01  0.51839152355E+01  0.12700000000E+01 0.  1.
          4   -1    0    0  501    0  0.00000000000E+00 -0.00000000000E+00 -0.76504691300E+03  0.76504796712E+03  0.12700000000E+01 0.  1.
         25    2    1    2    0    0  0.00000000000E+00  0.00000000000E+00 -0.76002097257E+03  0.77023188235E+03  0.12500109536E+03 0.  0.
    9000005    1    3    3    0    0 -0.58279734958E+01  0.57258850461E+02 -0.22998901201E+03  0.23708329101E+03  0.10000000000E+01 0.  0.
    9000005    1    3    3    0    0  0.58279734958E+01 -0.57258850461E+02 -0.53003196057E+03  0.53314859134E+03  0.10000000000E+01 0.  0.
<mgrwt>
<rscale>  0 0.12500110E+03</rscale>
<asrwt>0</asrwt>
<pdfrwt beam="2">  1        4 0.11771167E+00 0.12500110E+03</pdfrwt>
<pdfrwt beam="1">  1       -4 0.78545521E-03 0.12500110E+03</pdfrwt>
<totfact> 0.39623702E+03</totfact>
</mgrwt>
</event>
<event>
 5    1  0.3286491E-002  0.1250073E+03  0.7818608E-02  0.1235058E+00
          4   -1    0    0  501    0  0.00000000000E+00  0.00000000000E+00  0.93224559200E+01  0.94085644165E+01  0.12700000000E+01 0. -1.
         -4   -1    0    0    0  501 -0.00000000000E+00 -0.00000000000E+00 -0.41705046761E+03  0.41705240131E+03  0.12700000000E+01 0. -1.
         25    2    1    2    0    0  0.00000000000E+00  0.00000000000E+00 -0.40772801169E+03  0.42646096572E+03  0.12500729486E+03 0.  0.
    9000005    1    3    3    0    0  0.16895926627E+02 -0.12910366961E+02 -0.40434683486E+03  0.40490679517E+03  0.10000000000E+01 0.  0.
    9000005    1    3    3    0    0 -0.16895926627E+02  0.12910366961E+02 -0.33811768343E+01  0.21554170558E+02  0.10000000000E+01 0.  0.
<mgrwt>
<rscale>  0 0.12500729E+03</rscale>
<asrwt>0</asrwt>
<pdfrwt beam="1">  1        4 0.14409968E-02 0.12500729E+03</pdfrwt>
<pdfrwt beam="2">  1       -4 0.64168368E-01 0.12500729E+03</pdfrwt>
<totfact> 0.62048123E+03</totfact>
</mgrwt>
</event>
<event>
 5    1  0.3286491E-002  0.1250017E+03  0.7818608E-02  0.1235067E+00
         -4   -1    0    0    0  501 -0.00000000000E+00  0.00000000000E+00  0.20766376811E+03  0.20766765151E+03  0.12700000000E+01 0. -1.
          4   -1    0    0  501    0  0.00000000000E+00 -0.00000000000E+00 -0.18785456307E+02  0.18828336854E+02  0.12700000000E+01 0. -1.
         25    2    1    2    0    0  0.00000000000E+00  0.00000000000E+00  0.18887831180E+03  0.22649598837E+03  0.12500166430E+03 0.  0.
    9000005    1    3    3    0    0  0.13974453536E+01  0.44111535386E+02  0.17460765816E+03  0.18010167877E+03  0.10000000000E+01 0.  0.
    9000005    1    3    3    0    0 -0.13974453536E+01 -0.44111535386E+02  0.14270653641E+02  0.46394309596E+02  0.10000000000E+01 0.  0.
<mgrwt>
<rscale>  0 0.12500166E+03</rscale>
<asrwt>0</asrwt>
<pdfrwt beam="2">  1        4 0.28936673E-02 0.12500166E+03</pdfrwt>
<pdfrwt beam="1">  1       -4 0.31951871E-01 0.12500166E+03</pdfrwt>
<totfact> 0.85847370E+03</totfact>
</mgrwt>
</event>
<event>
 5    1  0.3286491E-002  0.1250002E+03  0.7818608E-02  0.1235069E+00
          4   -1    0    0  501    0  0.00000000000E+00  0.00000000000E+00  0.14750550688E+02  0.14805122275E+02  0.12700000000E+01 0.  1.
         -4   -1    0    0    0  501 -0.00000000000E+00 -0.00000000000E+00 -0.26427621244E+03  0.26427926396E+03  0.12700000000E+01 0.  1.
         25    2    1    2    0    0  0.00000000000E+00  0.00000000000E+00 -0.24952566175E+03  0.27908438624E+03  0.12500015508E+03 0.  0.
    9000005    1    3    3    0    0 -0.22541088231E+01  0.19032620213E+02  0.80377884531E+01  0.20806914283E+02  0.10000000000E+01 0.  0.
    9000005    1    3    3    0    0  0.22541088231E+01 -0.19032620213E+02 -0.25756345021E+03  0.25827747196E+03  0.10000000000E+01 0.  0.
<mgrwt>
<rscale>  0 0.12500016E+03</rscale>
<asrwt>0</asrwt>
<pdfrwt beam="1">  1        4 0.22737482E-02 0.12500016E+03</pdfrwt>
<pdfrwt beam="2">  1       -4 0.40662308E-01 0.12500016E+03</pdfrwt>
<totfact> 0.78299397E+03</totfact>
</mgrwt>
</event>
<event>
 5    1  0.3286491E-002  0.1249996E+03  0.7818608E-02  0.1235070E+00
          4   -1    0    0  501    0  0.00000000000E+00  0.00000000000E+00  0.12045412069E+02  0.12112177835E+02  0.12700000000E+01 0.  1.
         -4   -1    0    0    0  501 -0.00000000000E+00 -0.00000000000E+00 -0.32332729374E+03  0.32332978795E+03  0.12700000000E+01 0.  1.
         25    2    1    2    0    0  0.00000000000E+00  0.00000000000E+00 -0.31128188167E+03  0.33544196579E+03  0.12499961022E+03 0.  0.
    9000005    1    3    3    0    0  0.55034084414E+02  0.57115729539E+01 -0.77686265449E+02  0.95380964308E+02  0.10000000000E+01 0.  0.
    9000005    1    3    3    0    0 -0.55034084414E+02 -0.57115729539E+01 -0.23359561622E+03  0.24006100148E+03  0.10000000000E+01 0.  0.
<mgrwt>
<rscale>  0 0.12499961E+03</rscale>
<asrwt>0</asrwt>
<pdfrwt beam="1">  1        4 0.18584683E-02 0.12499961E+03</pdfrwt>
<pdfrwt beam="2">  1       -4 0.49747982E-01 0.12499961E+03</pdfrwt>
<totfact> 0.71357000E+03</totfact>
</mgrwt>
</event>
<event>
 5    1  0.3286491E-002  0.1250010E+03  0.7818608E-02  0.1235068E+00
          4   -1    0    0  501    0  0.00000000000E+00  0.00000000000E+00  0.33343445708E+02  0.33367623105E+02  0.12700000000E+01 0. -1.
         -4   -1    0    0    0  501 -0.00000000000E+00 -0.00000000000E+00 -0.11708373196E+03  0.11709061956E+03  0.12700000000E+01 0. -1.
         25    2    1    2    0    0  0.00000000000E+00  0.00000000000E+00 -0.83740286251E+02  0.15045824267E+03  0.12500098898E+03 0.  0.
    9000005    1    3    3    0    0  0.19349112875E+02  0.32365959657E+02 -0.10185244143E+03  0.10861336630E+03  0.10000000000E+01 0.  0.
    9000005    1    3    3    0    0 -0.19349112875E+02 -0.32365959657E+02  0.18112155175E+02  0.41844876372E+02  0.10000000000E+01 0.  0.
<mgrwt>
<rscale>  0 0.12500099E+03</rscale>
<asrwt>0</asrwt>
<pdfrwt beam="1">  1        4 0.51321505E-02 0.12500099E+03</pdfrwt>
<pdfrwt beam="2">  1       -4 0.18015271E-01 0.12500099E+03</pdfrwt>
<totfact> 0.99210225E+03</totfact>
</mgrwt>
</event>
<event>
 5    1  0.3286491E-002  0.1250018E+03  0.7818608E-02  0.1235066E+00
         -4   -1    0    0    0  501 -0.00000000000E+00  0.00000000000E+00  0.22812182824E+03  0.22812536339E+03  0.12700000000E+01 0.  1.
          4   -1    0    0  501    0  0.00000000000E+00 -0.00000000000E+00 -0.17096794244E+02  0.17143899015E+02  0.12700000000E+01 0.  1.
         25    2    1    2    0    0  0.00000000000E+00  0.00000000000E+00  0.21102503400E+03  0.24526926240E+03  0.12500178441E+03 0.  0.
    9000005    1    3    3    0    0 -0.19703840660E+01 -0.87382220624E+01 -0.15840224340E+02  0.18225027992E+02  0.10000000000E+01 0.  0.
    9000005    1    3    3    0    0  0.19703840660E+01  0.87382220624E+01  0.22686525834E+03  0.22704423441E+03  0.10000000000E+01 0.  0.
<mgrwt>
<rscale>  0 0.12500178E+03</rscale>
<asrwt>0</asrwt>
<pdfrwt beam="2">  1        4 0.26341714E-02 0.12500178E+03</pdfrwt>
<pdfrwt beam="1">  1       -4 0.35099562E-01 0.12500178E+03</pdfrwt>
<totfact> 0.83015507E+03</totfact>
</mgrwt>
</event>
<event>
 5    1  0.3286491E-002  0.1249994E+03  0.7818608E-02  0.1235070E+00
         -4   -1    0    0    0  501 -0.00000000000E+00  0.00000000000E+00  0.63576276883E+02  0.63588960380E+02  0.12700000000E+01 0. -1.
          4   -1    0    0  501    0  0.00000000000E+00 -0.00000000000E+00 -0.61415945549E+02  0.61429075100E+02  0.12700000000E+01 0. -1.
         25    2    1    2    0    0  0.00000000000E+00  0.00000000000E+00  0.21603313341E+01  0.12501803548E+03  0.12499936865E+03 0.  0.
    9000005    1    3    3    0    0 -0.27714856928E+02 -0.39445015575E+02 -0.38689927149E+02  0.61821784275E+02  0.10000000000E+01 0.  0.
    9000005    1    3    3    0    0  0.27714856928E+02  0.39445015575E+02  0.40850258483E+02  0.63196251205E+02  0.10000000000E+01 0.  0.
<mgrwt>
<rscale>  0 0.12499937E+03</rscale>
<asrwt>0</asrwt>
<pdfrwt beam="2">  1        4 0.94505926E-02 0.12499937E+03</pdfrwt>
<pdfrwt beam="1">  1       -4 0.97829513E-02 0.12499937E+03</pdfrwt>
<totfact> 0.10452620E+04</totfact>
</mgrwt>
</event>
<event>
 5    1  0.3286491E-002  0.1250117E+03  0.7818608E-02  0.1235051E+00
          4   -1    0    0  501    0  0.00000000000E+00  0.00000000000E+00  0.35709745259E+01  0.37900869468E+01  0.12700000000E+01 0. -1.
         -4   -1    0    0    0  501 -0.00000000000E+00 -0.00000000000E+00 -0.10613063689E+04  0.10613071287E+04  0.12700000000E+01 0. -1.
         25    2    1    2    0    0  0.00000000000E+00  0.00000000000E+00 -0.10577353944E+04  0.10650972157E+04  0.12501165708E+03 0.  0.
    9000005    1    3    3    0    0  0.85988259402E+01  0.27029705853E+02 -0.54385420482E+02  0.61345894460E+02  0.10000000000E+01 0.  0.
    9000005    1    3    3    0    0 -0.85988259402E+01 -0.27029705853E+02 -0.10033499739E+04  0.10037513212E+04  0.10000000000E+01 0.  0.
<mgrwt>
<rscale>  0 0.12501166E+03</rscale>
<asrwt>0</asrwt>
<pdfrwt beam="1">  1        4 0.56629479E-03 0.12501166E+03</pdfrwt>
<pdfrwt beam="2">  1       -4 0.16329457E+00 0.12501166E+03</pdfrwt>
<totfact> 0.28520816E+03</totfact>
</mgrwt>
</event>
<event>
 5    1  0.3286491E-002  0.1249979E+03  0.7818608E-02  0.1235073E+00
         -4   -1    0    0    0  501 -0.00000000000E+00  0.00000000000E+00  0.61372244958E+02  0.61385383856E+02  0.12700000000E+01 0. -1.
          4   -1    0    0  501    0  0.00000000000E+00 -0.00000000000E+00 -0.63620058626E+02  0.63632733397E+02  0.12700000000E+01 0. -1.
         25    2    1    2    0    0  0.00000000000E+00  0.00000000000E+00 -0.22478136678E+01  0.12501811725E+03  0.12499790788E+03 0.  0.
    9000005    1    3    3    0    0  0.34139435822E+01  0.49581939358E+02  0.36764872585E+02  0.61827822034E+02  0.10000000000E+01 0.  0.
    9000005    1    3    3    0    0 -0.34139435822E+01 -0.49581939358E+02 -0.39012686253E+02  0.63190295219E+02  0.10000000000E+01 0.  0.
<mgrwt>
<rscale>  0 0.12499791E+03</rscale>
<asrwt>0</asrwt>
<pdfrwt beam="2">  1        4 0.97896870E-02 0.12499791E+03</pdfrwt>
<pdfrwt beam="1">  1       -4 0.94438695E-02 0.12499791E+03</pdfrwt>
<totfact> 0.10452963E+04</totfact>
</mgrwt>
</event>
<event>
 5    1  0.3286491E-002  0.1249705E+03  0.7818608E-02  0.1235115E+00
          4   -1    0    0  501    0  0.00000000000E+00  0.00000000000E+00  0.26717158095E+02  0.26747325785E+02  0.12700000000E+01 0.  1.
         -4   -1    0    0    0  501 -0.00000000000E+00 -0.00000000000E+00 -0.14602309004E+03  0.14602861269E+03  0.12700000000E+01 0.  1.
         25    2    1    2    0    0  0.00000000000E+00  0.00000000000E+00 -0.11930593194E+03  0.17277593847E+03  0.12497047459E+03 0.  0.
    9000005    1    3    3    0    0 -0.34082947880E+02  0.48722815782E+02 -0.86168973389E+02  0.10469790871E+03  0.10000000000E+01 0.  0.
    9000005    1    3    3    0    0  0.34082947880E+02 -0.48722815782E+02 -0.33136958552E+02  0.68078029760E+02  0.10000000000E+01 0.  0.
<mgrwt>
<rscale>  0 0.12497047E+03</rscale>
<asrwt>0</asrwt>
<pdfrwt beam="1">  1        4 0.41130775E-02 0.12497047E+03</pdfrwt>
<pdfrwt beam="2">  1       -4 0.22467836E-01 0.12497047E+03</pdfrwt>
<totfact> 0.94996680E+03</totfact>
</mgrwt>
</event>
<event>
 5    1  0.3286491E-002  0.1249965E+03  0.7818608E-02  0.1235075E+00
          4   -1    0    0  501    0  0.00000000000E+00  0.00000000000E+00  0.87026669386E+03  0.87026762053E+03  0.12700000000E+01 0.  1.
         -4   -1    0    0    0  501 -0.00000000000E+00 -0.00000000000E+00 -0.43975319441E+01  0.45772466832E+01  0.12700000000E+01 0.  1.
         25    2    1    2    0    0  0.00000000000E+00  0.00000000000E+00  0.86586916191E+03  0.87484486721E+03  0.12499654448E+03 0.  0.
    9000005    1    3    3    0    0 -0.74262088334E+01 -0.29381643525E+02  0.81542617663E+03  0.81598975428E+03  0.10000000000E+01 0.  0.
    9000005    1    3    3    0    0  0.74262088334E+01  0.29381643525E+02  0.50442985281E+02  0.58855112929E+02  0.10000000000E+01 0.  0.
<mgrwt>
<rscale>  0 0.12499654E+03</rscale>
<asrwt>0</asrwt>
<pdfrwt beam="1">  1        4 0.13390104E+00 0.12499654E+03</pdfrwt>
<pdfrwt beam="2">  1       -4 0.69043906E-03 0.12499654E+03</pdfrwt>
<totfact> 0.35134315E+03</totfact>
</mgrwt>
</event>
<event>
 5    1  0.3286491E-002  0.1250110E+03  0.7818608E-02  0.1235052E+00
          4   -1    0    0  501    0  0.00000000000E+00  0.00000000000E+00  0.85387063972E+02  0.85396508089E+02  0.12700000000E+01 0.  1.
         -4   -1    0    0    0  501 -0.00000000000E+00 -0.00000000000E+00 -0.45734842630E+02  0.45752472397E+02  0.12700000000E+01 0.  1.
         25    2    1    2    0    0  0.00000000000E+00  0.00000000000E+00  0.39652221341E+02  0.13114898049E+03  0.12501102521E+03 0.  0.
    9000005    1    3    3    0    0  0.35773417436E+02 -0.46395439941E+02  0.42658543420E+02  0.72477759134E+02  0.10000000000E+01 0.  0.
    9000005    1    3    3    0    0 -0.35773417436E+02  0.46395439941E+02 -0.30063220786E+01  0.58671221351E+02  0.10000000000E+01 0.  0.
<mgrwt>
<rscale>  0 0.12501103E+03</rscale>
<asrwt>0</asrwt>
<pdfrwt beam="1">  1        4 0.13138554E-01 0.12501103E+03</pdfrwt>
<pdfrwt beam="2">  1       -4 0.70382123E-02 0.12501103E+03</pdfrwt>
<totfact> 0.10317330E+04</totfact>
</mgrwt>
</event>
<event>
 4    1  0.3286491E-002  0.1250988E+03  0.7818608E-02  0.1234915E+00
         -4   -1    0    0    0  501 -0.00000000000E+00  0.00000000000E+00  0.35232755758E+02  0.35255637539E+02  0.12700000000E+01 0. -1.
          4   -1    0    0  501    0  0.00000000000E+00 -0.00000000000E+00 -0.11098265619E+03  0.11098992240E+03  0.12700000000E+01 0. -1.
    9000005    1    1    2    0    0  0.39883552079E+02  0.19153306398E+02  0.13799830799E+02  0.46357115986E+02  0.10000000000E+01 0.  0.
    9000005    1    1    2    0    0 -0.39883552079E+02 -0.19153306398E+02 -0.89549731227E+02  0.99888443952E+02  0.10000000000E+01 0.  0.
<mgrwt>
<rscale>  0 0.12509883E+03</rscale>
<asrwt>0</asrwt>
<pdfrwt beam="2">  1        4 0.17076574E-01 0.12509883E+03</pdfrwt>
<pdfrwt beam="1">  1       -4 0.54227431E-02 0.12509883E+03</pdfrwt>
<totfact> 0.99835117E+03</totfact>
</mgrwt>
</event>
<event>
 5    1  0.3286491E-002  0.1249983E+03  0.7818608E-02  0.1235072E+00
         -4   -1    0    0    0  501 -0.00000000000E+00  0.00000000000E+00  0.43967143476E+02  0.43985481757E+02  0.12700000000E+01 0.  1.
          4   -1    0    0  501    0  0.00000000000E+00 -0.00000000000E+00 -0.88800905588E+02  0.88809986676E+02  0.12700000000E+01 0.  1.
         25    2    1    2    0    0  0.00000000000E+00  0.00000000000E+00 -0.44833762113E+02  0.13279546843E+03  0.12499828083E+03 0.  0.
    9000005    1    3    3    0    0 -0.49328139220E+02  0.48868900188E+01  0.18009310295E+02  0.52749239523E+02  0.10000000000E+01 0.  0.
    9000005    1    3    3    0    0  0.49328139220E+02 -0.48868900188E+01 -0.62843072408E+02  0.80046228909E+02  0.10000000000E+01 0.  0.
<mgrwt>
<rscale>  0 0.12499828E+03</rscale>
<asrwt>0</asrwt>
<pdfrwt beam="2">  1        4 0.13663787E-01 0.12499828E+03</pdfrwt>
<pdfrwt beam="1">  1       -4 0.67662851E-02 0.12499828E+03</pdfrwt>
<totfact> 0.10285148E+04</totfact>
</mgrwt>
</event>
<event>
 5    1  0.3286491E-002  0.1249992E+03  0.7818608E-02  0.1235070E+00
          4   -1    0    0  501    0  0.00000000000E+00  0.00000000000E+00  0.11121595281E+04  0.11121602532E+04  0.12700000000E+01 0. -1.
         -4   -1    0    0    0  501 -0.00000000000E+00 -0.00000000000E+00 -0.33967128519E+01  0.36263698375E+01  0.12700000000E+01 0. -1.
         25    2    1    2    0    0  0.00000000000E+00  0.00000000000E+00  0.11087628153E+04  0.11157866231E+04  0.12499923087E+03 0.  0.
    9000005    1    3    3    0    0  0.22062751673E+02  0.15419691652E+02  0.50958332869E+02  0.57639253906E+02  0.10000000000E+01 0.  0.
    9000005    1    3    3    0    0 -0.22062751673E+02 -0.15419691652E+02  0.10578044824E+04  0.10581473692E+04  0.10000000000E+01 0.  0.
<mgrwt>
<rscale>  0 0.12499923E+03</rscale>
<asrwt>0</asrwt>
<pdfrwt beam="1">  1        4 0.17111935E+00 0.12499923E+03</pdfrwt>
<pdfrwt beam="2">  1       -4 0.54029240E-03 0.12499923E+03</pdfrwt>
<totfact> 0.27026325E+03</totfact>
</mgrwt>
</event>
<event>
 5    1  0.3286491E-002  0.1250060E+03  0.7818608E-02  0.1235060E+00
         -4   -1    0    0    0  501 -0.00000000000E+00  0.00000000000E+00  0.18451482904E+03  0.18451919964E+03  0.12700000000E+01 0.  1.
          4   -1    0    0  501    0  0.00000000000E+00 -0.00000000000E+00 -0.21148756464E+02  0.21186854414E+02  0.12700000000E+01 0.  1.
         25    2    1    2    0    0  0.00000000000E+00  0.00000000000E+00  0.16336607257E+03  0.20570605405E+03  0.12500602788E+03 0.  0.
    9000005    1    3    3    0    0 -0.29678568506E+02 -0.47893666128E+02  0.12617449130E+03  0.13818691305E+03  0.10000000000E+01 0.  0.
    9000005    1    3    3    0    0  0.29678568506E+02  0.47893666128E+02  0.37191581272E+02  0.67519140999E+02  0.10000000000E+01 0.  0.
<mgrwt>
<rscale>  0 0.12500603E+03</rscale>
<asrwt>0</asrwt>
<pdfrwt beam="2">  1        4 0.32569216E-02 0.12500603E+03</pdfrwt>
<pdfrwt beam="1">  1       -4 0.28390164E-01 0.12500603E+03</pdfrwt>
<totfact> 0.89169952E+03</totfact>
</mgrwt>
</event>
<event>
 5    1  0.3286491E-002  0.1250039E+03  0.7818608E-02  0.1235063E+00
         -4   -1    0    0    0  501 -0.00000000000E+00  0.00000000000E+00  0.83221517364E+03  0.83221614268E+03  0.12700000000E+01 0.  1.
          4   -1    0    0  501    0  0.00000000000E+00 -0.00000000000E+00 -0.46072012662E+01  0.47790379269E+01  0.12700000000E+01 0.  1.
         25    2    1    2    0    0  0.00000000000E+00  0.00000000000E+00  0.82760797238E+03  0.83699518061E+03  0.12500390563E+03 0.  0.
    9000005    1    3    3    0    0  0.59742583639E+02  0.17987498509E+02  0.38987877604E+03  0.39484071017E+03  0.10000000000E+01 0.  0.
    9000005    1    3    3    0    0 -0.59742583639E+02 -0.17987498509E+02  0.43772919634E+03  0.44215447044E+03  0.10000000000E+01 0.  0.
<mgrwt>
<rscale>  0 0.12500391E+03</rscale>
<asrwt>0</asrwt>
<pdfrwt beam="2">  1        4 0.72209231E-03 0.12500391E+03</pdfrwt>
<pdfrwt beam="1">  1       -4 0.12804651E+00 0.12500391E+03</pdfrwt>
<totfact> 0.36662324E+03</totfact>
</mgrwt>
</event>
<event>
 5    1  0.3286491E-002  0.1250101E+03  0.7818608E-02  0.1235054E+00
          4   -1    0    0  501    0  0.00000000000E+00  0.00000000000E+00  0.93526584183E+02  0.93535206467E+02  0.12700000000E+01 0. -1.
         -4   -1    0    0    0  501 -0.00000000000E+00 -0.00000000000E+00 -0.41752737288E+02  0.41772047723E+02  0.12700000000E+01 0. -1.
         25    2    1    2    0    0  0.00000000000E+00  0.00000000000E+00  0.51773846895E+02  0.13530725419E+03  0.12501008685E+03 0.  0.
    9000005    1    3    3    0    0 -0.22172204497E+02 -0.58072692009E+02  0.32887799176E+02  0.70332435931E+02  0.10000000000E+01 0.  0.
    9000005    1    3    3    0    0  0.22172204497E+02  0.58072692009E+02  0.18886047719E+02  0.64974818259E+02  0.10000000000E+01 0.  0.
<mgrwt>
<rscale>  0 0.12501009E+03</rscale>
<asrwt>0</asrwt>
<pdfrwt beam="1">  1        4 0.14390854E-01 0.12501009E+03</pdfrwt>
<pdfrwt beam="2">  1       -4 0.64256468E-02 0.12501009E+03</pdfrwt>
<totfact> 0.10229272E+04</totfact>
</mgrwt>
</event>
<event>
 5    1  0.3286491E-002  0.1250023E+03  0.7818608E-02  0.1235066E+00
         -4   -1    0    0    0  501 -0.00000000000E+00  0.00000000000E+00  0.34324941827E+02  0.34348428369E+02  0.12700000000E+01 0.  1.
          4   -1    0    0  501    0  0.00000000000E+00 -0.00000000000E+00 -0.11374033000E+03  0.11374742005E+03  0.12700000000E+01 0.  1.
         25    2    1    2    0    0  0.00000000000E+00  0.00000000000E+00 -0.79415388170E+02  0.14809584842E+03  0.12500230574E+03 0.  0.
    9000005    1    3    3    0    0 -0.29725973978E+02 -0.51900097388E+02 -0.61168931529E+02  0.85556366345E+02  0.10000000000E+01 0.  0.
    9000005    1    3    3    0    0  0.29725973978E+02  0.51900097388E+02 -0.18246456641E+02  0.62539482072E+02  0.10000000000E+01 0.  0.
<mgrwt>
<rscale>  0 0.12500231E+03</rscale>
<asrwt>0</asrwt>
<pdfrwt beam="2">  1        4 0.17500864E-01 0.12500231E+03</pdfrwt>
<pdfrwt beam="1">  1       -4 0.52831124E-02 0.12500231E+03</pdfrwt>
<totfact> 0.99679451E+03</totfact>
</mgrwt>
</event>
<event>
 5    1  0.3286491E-002  0.1250072E+03  0.7818608E-02  0.1235058E+00
         -4   -1    0    0    0  501 -0.00000000000E+00  0.00000000000E+00  0.11479918826E+03  0.11480621292E+03  0.12700000000E+01 0.  1.
          4   -1    0    0  501    0  0.00000000000E+00 -0.00000000000E+00 -0.34010788440E+02  0.34034491774E+02  0.12700000000E+01 0.  1.
         25    2    1    2    0    0  0.00000000000E+00  0.00000000000E+00  0.80788399821E+02  0.14884070470E+03  0.12500715911E+03 0.  0.
    9000005    1    3    3    0    0 -0.54295100500E+02 -0.22130088989E+02  0.66152022411E+02  0.88401294369E+02  0.10000000000E+01 0.  0.
    9000005    1    3    3    0    0  0.54295100500E+02  0.22130088989E+02  0.14636377409E+02  0.60439410327E+02  0.10000000000E+01 0.  0.
<mgrwt>
<rscale>  0 0.12500716E+03</rscale>
<asrwt>0</asrwt>
<pdfrwt beam="2">  1        4 0.52347927E-02 0.12500716E+03</pdfrwt>
<pdfrwt beam="1">  1       -4 0.17663777E-01 0.12500716E+03</pdfrwt>
<totfact> 0.99519252E+03</totfact>
</mgrwt>
</event>
<event>
 5    1  0.3286491E-002  0.1249983E+03  0.7818608E-02  0.1235072E+00
          4   -1    0    0  501    0  0.00000000000E+00  0.00000000000E+00  0.27244230597E+01  0.30058910506E+01  0.12700000000E+01 0. -1.
         -4   -1    0    0    0  501 -0.00000000000E+00 -0.00000000000E+00 -0.13630450033E+04  0.13630455949E+04  0.12700000000E+01 0. -1.
         25    2    1    2    0    0  0.00000000000E+00  0.00000000000E+00 -0.13603205802E+04  0.13660514860E+04  0.12499832554E+03 0.  0.
    9000005    1    3    3    0    0 -0.18807398878E+02 -0.13804763372E+02 -0.13137203622E+04  0.13139278823E+04  0.10000000000E+01 0.  0.
    9000005    1    3    3    0    0  0.18807398878E+02  0.13804763372E+02 -0.46600217985E+02  0.52123603679E+02  0.10000000000E+01 0.  0.
<mgrwt>
<rscale>  0 0.12499833E+03</rscale>
<asrwt>0</asrwt>
<pdfrwt beam="1">  1        4 0.44083999E-03 0.12499833E+03</pdfrwt>
<pdfrwt beam="2">  1       -4 0.20972041E+00 0.12499833E+03</pdfrwt>
<totfact> 0.20721890E+03</totfact>
</mgrwt>
</event>
<event>
 5    1  0.3286491E-002  0.1250016E+03  0.7818608E-02  0.1235067E+00
          4   -1    0    0  501    0  0.00000000000E+00  0.00000000000E+00  0.66006446319E+03  0.66006568497E+03  0.12700000000E+01 0. -1.
         -4   -1    0    0    0  501 -0.00000000000E+00 -0.00000000000E+00 -0.58487614456E+01  0.59850572635E+01  0.12700000000E+01 0. -1.
         25    2    1    2    0    0  0.00000000000E+00  0.00000000000E+00  0.65421570175E+03  0.66605074223E+03  0.12500162724E+03 0.  0.
    9000005    1    3    3    0    0  0.15399116823E+02 -0.59551939407E+02  0.38590947123E+03  0.39078214682E+03  0.10000000000E+01 0.  0.
    9000005    1    3    3    0    0 -0.15399116823E+02  0.59551939407E+02  0.26830623051E+03  0.27526859541E+03  0.10000000000E+01 0.  0.
<mgrwt>
<rscale>  0 0.12500163E+03</rscale>
<asrwt>0</asrwt>
<pdfrwt beam="1">  1        4 0.10155891E+00 0.12500163E+03</pdfrwt>
<pdfrwt beam="2">  1       -4 0.91038811E-03 0.12500163E+03</pdfrwt>
<totfact> 0.44938797E+03</totfact>
</mgrwt>
</event>
<event>
 5    1  0.3286491E-002  0.1250005E+03  0.7818608E-02  0.1235068E+00
          4   -1    0    0  501    0  0.00000000000E+00  0.00000000000E+00  0.25397088665E+02  0.25428822478E+02  0.12700000000E+01 0.  1.
         -4   -1    0    0    0  501 -0.00000000000E+00 -0.00000000000E+00 -0.15367792308E+03  0.15368317065E+03  0.12700000000E+01 0.  1.
         25    2    1    2    0    0  0.00000000000E+00  0.00000000000E+00 -0.12828083441E+03  0.17911199313E+03  0.12500053442E+03 0.  0.
    9000005    1    3    3    0    0  0.43293412147E+01 -0.47177219185E+01 -0.15321366262E+03  0.15335066518E+03  0.10000000000E+01 0.  0.
    9000005    1    3    3    0    0 -0.43293412147E+01  0.47177219185E+01  0.24932828209E+02  0.25761327954E+02  0.10000000000E+01 0.  0.
<mgrwt>
<rscale>  0 0.12500053E+03</rscale>
<asrwt>0</asrwt>
<pdfrwt beam="1">  1        4 0.39100892E-02 0.12500053E+03</pdfrwt>
<pdfrwt beam="2">  1       -4 0.23645602E-01 0.12500053E+03</pdfrwt>
<totfact> 0.93775968E+03</totfact>
</mgrwt>
</event>
<event>
 5    1  0.3286491E-002  0.1250010E+03  0.7818608E-02  0.1235068E+00
         -4   -1    0    0    0  501 -0.00000000000E+00  0.00000000000E+00  0.12569730447E+02  0.12633725638E+02  0.12700000000E+01 0. -1.
          4   -1    0    0  501    0  0.00000000000E+00 -0.00000000000E+00 -0.30991709581E+03  0.30991969795E+03  0.12700000000E+01 0. -1.
         25    2    1    2    0    0  0.00000000000E+00  0.00000000000E+00 -0.29734736536E+03  0.32255342358E+03  0.12500102151E+03 0.  0.
    9000005    1    3    3    0    0 -0.40855501721E+02 -0.45798727640E+02 -0.17905443246E+03  0.18928334649E+03  0.10000000000E+01 0.  0.
    9000005    1    3    3    0    0  0.40855501721E+02  0.45798727640E+02 -0.11829293291E+03  0.13327007710E+03  0.10000000000E+01 0.  0.
<mgrwt>
<rscale>  0 0.12500102E+03</rscale>
<asrwt>0</asrwt>
<pdfrwt beam="2">  1        4 0.47684670E-01 0.12500102E+03</pdfrwt>
<pdfrwt beam="1">  1       -4 0.19389278E-02 0.12500102E+03</pdfrwt>
<totfact> 0.72851808E+03</totfact>
</mgrwt>
</event>
<event>
 5    1  0.3286491E-002  0.1249971E+03  0.7818608E-02  0.1235074E+00
          4   -1    0    0  501    0  0.00000000000E+00  0.00000000000E+00  0.64577137283E+02  0.64589624242E+02  0.12700000000E+01 0.  1.
         -4   -1    0    0    0  501 -0.00000000000E+00 -0.00000000000E+00 -0.60461904996E+02  0.60475241675E+02  0.12700000000E+01 0.  1.
         25    2    1    2    0    0  0.00000000000E+00  0.00000000000E+00  0.41152322876E+01  0.12506486592E+03  0.12499714217E+03 0.  0.
    9000005    1    3    3    0    0  0.21190783200E+01  0.45951180385E+02 -0.40262699140E+02  0.61139892163E+02  0.10000000000E+01 0.  0.
    9000005    1    3    3    0    0 -0.21190783200E+01 -0.45951180385E+02  0.44377931427E+02  0.63924973754E+02  0.10000000000E+01 0.  0.
<mgrwt>
<rscale>  0 0.12499714E+03</rscale>
<asrwt>0</asrwt>
<pdfrwt beam="1">  1        4 0.99369307E-02 0.12499714E+03</pdfrwt>
<pdfrwt beam="2">  1       -4 0.93038179E-02 0.12499714E+03</pdfrwt>
<totfact> 0.10452129E+04</totfact>
</mgrwt>
</event>
<event>
 5    1  0.3286491E-002  0.1250019E+03  0.7818608E-02  0.1235066E+00
         -4   -1    0    0    0  501 -0.00000000000E+00  0.00000000000E+00  0.16847536930E+03  0.16848015598E+03  0.12700000000E+01 0. -1.
          4   -1    0    0  501    0  0.00000000000E+00 -0.00000000000E+00 -0.23164065498E+02  0.23198854075E+02  0.12700000000E+01 0. -1.
         25    2    1    2    0    0  0.00000000000E+00  0.00000000000E+00  0.14531130380E+03  0.19167901006E+03  0.12500187153E+03 0.  0.
    9000005    1    3    3    0    0 -0.27421934579E+02  0.51457901429E+02  0.38179892982E+02  0.69703531788E+02  0.10000000000E+01 0.  0.
    9000005    1    3    3    0    0  0.27421934579E+02 -0.51457901429E+02  0.10713141082E+03  0.12197547827E+03  0.10000000000E+01 0.  0.
<mgrwt>
<rscale>  0 0.12500187E+03</rscale>
<asrwt>0</asrwt>
<pdfrwt beam="2">  1        4 0.35667465E-02 0.12500187E+03</pdfrwt>
<pdfrwt beam="1">  1       -4 0.25922333E-01 0.12500187E+03</pdfrwt>
<totfact> 0.91552151E+03</totfact>
</mgrwt>
</event>
<event>
 5    1  0.3286491E-002  0.1250015E+03  0.7818608E-02  0.1235067E+00
          4   -1    0    0  501    0  0.00000000000E+00  0.00000000000E+00  0.96732255618E+03  0.96732338988E+03  0.12700000000E+01 0.  1.
         -4   -1    0    0    0  501 -0.00000000000E+00 -0.00000000000E+00 -0.39375983487E+01  0.41373398163E+01  0.12700000000E+01 0.  1.
         25    2    1    2    0    0  0.00000000000E+00  0.00000000000E+00  0.96338495784E+03  0.97146072969E+03  0.12500148940E+03 0.  0.
    9000005    1    3    3    0    0 -0.48340306721E+02 -0.38630710829E+00  0.17391299342E+03  0.18050945617E+03  0.10000000000E+01 0.  0.
    9000005    1    3    3    0    0  0.48340306721E+02  0.38630710829E+00  0.78947196442E+03  0.79095127353E+03  0.10000000000E+01 0.  0.
<mgrwt>
<rscale>  0 0.12500149E+03</rscale>
<asrwt>0</asrwt>
<pdfrwt beam="1">  1        4 0.14883430E+00 0.12500149E+03</pdfrwt>
<pdfrwt beam="2">  1       -4 0.62121315E-03 0.12500149E+03</pdfrwt>
<totfact> 0.31565046E+03</totfact>
</mgrwt>
</event>
<event>
 5    1  0.3286491E-002  0.1249975E+03  0.7818608E-02  0.1235073E+00
          4   -1    0    0  501    0  0.00000000000E+00  0.00000000000E+00  0.27776638132E+03  0.27776928465E+03  0.12700000000E+01 0. -1.
         -4   -1    0    0    0  501 -0.00000000000E+00 -0.00000000000E+00 -0.14030866598E+02  0.14088226201E+02  0.12700000000E+01 0. -1.
         25    2    1    2    0    0  0.00000000000E+00  0.00000000000E+00  0.26373551473E+03  0.29185751085E+03  0.12499753962E+03 0.  0.
    9000005    1    3    3    0    0  0.29924554708E+01 -0.62417893755E+02  0.13096957009E+03  0.14511711318E+03  0.10000000000E+01 0.  0.
    9000005    1    3    3    0    0 -0.29924554708E+01  0.62417893755E+02  0.13276594464E+03  0.14674039766E+03  0.10000000000E+01 0.  0.
<mgrwt>
<rscale>  0 0.12499754E+03</rscale>
<asrwt>0</asrwt>
<pdfrwt beam="1">  1        4 0.42737924E-01 0.12499754E+03</pdfrwt>
<pdfrwt beam="2">  1       -4 0.21632305E-02 0.12499754E+03</pdfrwt>
<totfact> 0.76635890E+03</totfact>
</mgrwt>
</event>
<event>
 5    1  0.3286491E-002  0.1249990E+03  0.7818608E-02  0.1235071E+00
          4   -1    0    0  501    0  0.00000000000E+00  0.00000000000E+00  0.94039549797E+01  0.94893239622E+01  0.12700000000E+01 0. -1.
         -4   -1    0    0    0  501 -0.00000000000E+00 -0.00000000000E+00 -0.41341394860E+03  0.41341589930E+03  0.12700000000E+01 0. -1.
         25    2    1    2    0    0  0.00000000000E+00  0.00000000000E+00 -0.40400999362E+03  0.42290522327E+03  0.12499901168E+03 0.  0.
    9000005    1    3    3    0    0 -0.61994667421E+02  0.76625878236E+01 -0.19601537946E+03  0.20573060789E+03  0.10000000000E+01 0.  0.
    9000005    1    3    3    0    0  0.61994667421E+02 -0.76625878236E+01 -0.20799461416E+03  0.21717461537E+03  0.10000000000E+01 0.  0.
<mgrwt>
<rscale>  0 0.12499901E+03</rscale>
<asrwt>0</asrwt>
<pdfrwt beam="1">  1        4 0.14534795E-02 0.12499901E+03</pdfrwt>
<pdfrwt beam="2">  1       -4 0.63608849E-01 0.12499901E+03</pdfrwt>
<totfact> 0.62385763E+03</totfact>
</mgrwt>
</event>
<event>
 5    1  0.3286491E-002  0.1249973E+03  0.7818608E-02  0.1235073E+00
         -4   -1    0    0    0  501 -0.00000000000E+00  0.00000000000E+00  0.27222520352E+01  0.30039234583E+01  0.12700000000E+01 0. -1.
          4   -1    0    0  501    0  0.00000000000E+00 -0.00000000000E+00 -0.13640084292E+04  0.13640090204E+04  0.12700000000E+01 0. -1.
         25    2    1    2    0    0  0.00000000000E+00  0.00000000000E+00 -0.13612861772E+04  0.13670129439E+04  0.12499733050E+03 0.  0.
    9000005    1    3    3    0    0  0.23008001115E+01  0.56915900816E+02 -0.96168135732E+03  0.96336739953E+03  0.10000000000E+01 0.  0.
    9000005    1    3    3    0    0 -0.23008001115E+01 -0.56915900816E+02 -0.39960481983E+03  0.40364554436E+03  0.10000000000E+01 0.  0.
<mgrwt>
<rscale>  0 0.12499733E+03</rscale>
<asrwt>0</asrwt>
<pdfrwt beam="2">  1        4 0.20986864E+00 0.12499733E+03</pdfrwt>
<pdfrwt beam="1">  1       -4 0.44052161E-03 0.12499733E+03</pdfrwt>
<totfact> 0.20701121E+03</totfact>
</mgrwt>
</event>
<event>
 5    1  0.3286491E-002  0.1249992E+03  0.7818608E-02  0.1235071E+00
         -4   -1    0    0    0  501 -0.00000000000E+00  0.00000000000E+00  0.10600926897E+03  0.10601687605E+03  0.12700000000E+01 0. -1.
          4   -1    0    0  501    0  0.00000000000E+00 -0.00000000000E+00 -0.36827825727E+02  0.36849717065E+02  0.12700000000E+01 0. -1.
         25    2    1    2    0    0  0.00000000000E+00  0.00000000000E+00  0.69181443242E+02  0.14286659312E+03  0.12499916535E+03 0.  0.
    9000005    1    3    3    0    0  0.20972746673E+00 -0.95148985532E+01  0.10518170754E+03  0.10561613930E+03  0.10000000000E+01 0.  0.
    9000005    1    3    3    0    0 -0.20972746673E+00  0.95148985532E+01 -0.36000264296E+02  0.37250453815E+02  0.10000000000E+01 0.  0.
<mgrwt>
<rscale>  0 0.12499917E+03</rscale>
<asrwt>0</asrwt>
<pdfrwt beam="2">  1        4 0.56680885E-02 0.12499917E+03</pdfrwt>
<pdfrwt beam="1">  1       -4 0.16311387E-01 0.12499917E+03</pdfrwt>
<totfact> 0.10074705E+04</totfact>
</mgrwt>
</event>
<event>
 5    1  0.3286491E-002  0.1250005E+03  0.7818608E-02  0.1235069E+00
         -4   -1    0    0    0  501 -0.00000000000E+00  0.00000000000E+00  0.50668535762E+02  0.50684449452E+02  0.12700000000E+01 0.  1.
          4   -1    0    0  501    0  0.00000000000E+00 -0.00000000000E+00 -0.77061531530E+02  0.77071995833E+02  0.12700000000E+01 0.  1.
         25    2    1    2    0    0  0.00000000000E+00  0.00000000000E+00 -0.26392995768E+02  0.12775644529E+03  0.12500047634E+03 0.  0.
    9000005    1    3    3    0    0  0.27766548242E+02  0.23517926222E+02  0.38729214153E+02  0.53150974440E+02  0.10000000000E+01 0.  0.
    9000005    1    3    3    0    0 -0.27766548242E+02 -0.23517926222E+02 -0.65122209921E+02  0.74605470845E+02  0.10000000000E+01 0.  0.
<mgrwt>
<rscale>  0 0.12500048E+03</rscale>
<asrwt>0</asrwt>
<pdfrwt beam="2">  1        4 0.11857649E-01 0.12500048E+03</pdfrwt>
<pdfrwt beam="1">  1       -4 0.77971884E-02 0.12500048E+03</pdfrwt>
<totfact> 0.10392639E+04</totfact>
</mgrwt>
</event>
<event>
 5    1  0.3286491E-002  0.1250026E+03  0.7818608E-02  0.1235065E+00
         -4   -1    0    0    0  501 -0.00000000000E+00  0.00000000000E+00  0.90870574255E+02  0.90879448531E+02  0.12700000000E+01 0.  1.
          4   -1    0    0  501    0  0.00000000000E+00 -0.00000000000E+00 -0.42968414676E+02  0.42987179016E+02  0.12700000000E+01 0.  1.
         25    2    1    2    0    0  0.00000000000E+00  0.00000000000E+00  0.47902159579E+02  0.13386662755E+03  0.12500262829E+03 0.  0.
    9000005    1    3    3    0    0 -0.35183616091E+01  0.62362820578E+02  0.21832405559E+02  0.66175178061E+02  0.10000000000E+01 0.  0.
    9000005    1    3    3    0    0  0.35183616091E+01 -0.62362820578E+02  0.26069754020E+02  0.67691449486E+02  0.10000000000E+01 0.  0.
<mgrwt>
<rscale>  0 0.12500263E+03</rscale>
<asrwt>0</asrwt>
<pdfrwt beam="2">  1        4 0.66126514E-02 0.12500263E+03</pdfrwt>
<pdfrwt beam="1">  1       -4 0.13982214E-01 0.12500263E+03</pdfrwt>
<totfact> 0.10261407E+04</totfact>
</mgrwt>
</event>
<event>
 5    1  0.3286491E-002  0.1249998E+03  0.7818608E-02  0.1235070E+00
          4   -1    0    0  501    0  0.00000000000E+00  0.00000000000E+00  0.32011502634E+02  0.32036685235E+02  0.12700000000E+01 0. -1.
         -4   -1    0    0    0  501 -0.00000000000E+00 -0.00000000000E+00 -0.12194949753E+03  0.12195611033E+03  0.12700000000E+01 0. -1.
         25    2    1    2    0    0  0.00000000000E+00  0.00000000000E+00 -0.89937994891E+02  0.15399279556E+03  0.12499975264E+03 0.  0.
    9000005    1    3    3    0    0 -0.56567785808E+02  0.22131039699E+02 -0.63055408586E+02  0.87559590345E+02  0.10000000000E+01 0.  0.
    9000005    1    3    3    0    0  0.56567785808E+02 -0.22131039699E+02 -0.26882586305E+02  0.66433205220E+02  0.10000000000E+01 0.  0.
<mgrwt>
<rscale>  0 0.12499975E+03</rscale>
<asrwt>0</asrwt>
<pdfrwt beam="1">  1        4 0.49272924E-02 0.12499975E+03</pdfrwt>
<pdfrwt beam="2">  1       -4 0.18763907E-01 0.12499975E+03</pdfrwt>
<totfact> 0.98514137E+03</totfact>
</mgrwt>
</event>
<event>
 5    1  0.3286491E-002  0.1250050E+03  0.7818608E-02  0.1235061E+00
         -4   -1    0    0    0  501 -0.00000000000E+00  0.00000000000E+00  0.48902697909E+01  0.50524883600E+01  0.12700000000E+01 0. -1.
          4   -1    0    0  501    0  0.00000000000E+00 -0.00000000000E+00 -0.78564792785E+03  0.78564895433E+03  0.12700000000E+01 0. -1.
         25    2    1    2    0    0  0.00000000000E+00  0.00000000000E+00 -0.78075765806E+03  0.79070144269E+03  0.12500500330E+03 0.  0.
    9000005    1    3    3    0    0  0.43964163241E+02 -0.32743880140E+02 -0.20055974880E+03  0.20791878745E+03  0.10000000000E+01 0.  0.
    9000005    1    3    3    0    0 -0.43964163241E+02  0.32743880140E+02 -0.58019790926E+03  0.58278265523E+03  0.10000000000E+01 0.  0.
<mgrwt>
<rscale>  0 0.12500500E+03</rscale>
<asrwt>0</asrwt>
<pdfrwt beam="2">  1        4 0.12088137E+00 0.12500500E+03</pdfrwt>
<pdfrwt beam="1">  1       -4 0.76490713E-03 0.12500500E+03</pdfrwt>
<totfact> 0.38679025E+03</totfact>
</mgrwt>
</event>
<event>
 5    1  0.3286491E-002  0.1250005E+03  0.7818608E-02  0.1235069E+00
         -4   -1    0    0    0  501 -0.00000000000E+00  0.00000000000E+00  0.18990447698E+03  0.18990872354E+03  0.12700000000E+01 0. -1.
          4   -1    0    0  501    0  0.00000000000E+00 -0.00000000000E+00 -0.20545619744E+02  0.20584833996E+02  0.12700000000E+01 0. -1.
         25    2    1    2    0    0  0.00000000000E+00  0.00000000000E+00  0.16935885724E+03  0.21049355754E+03  0.12500046096E+03 0.  0.
    9000005    1    3    3    0    0 -0.62034392218E+02 -0.11655939047E+00  0.71966009653E+02  0.95017819115E+02  0.10000000000E+01 0.  0.
    9000005    1    3    3    0    0  0.62034392218E+02  0.11655939047E+00  0.97392847586E+02  0.11547573843E+03  0.10000000000E+01 0.  0.
<mgrwt>
<rscale>  0 0.12500046E+03</rscale>
<asrwt>0</asrwt>
<pdfrwt beam="2">  1        4 0.31642078E-02 0.12500046E+03</pdfrwt>
<pdfrwt beam="1">  1       -4 0.29219416E-01 0.12500046E+03</pdfrwt>
<totfact> 0.88394429E+03</totfact>
</mgrwt>
</event>
<event>
 5    1  0.3286491E-002  0.1249912E+03  0.7818608E-02  0.1235083E+00
          4   -1    0    0  501    0  0.00000000000E+00  0.00000000000E+00  0.65614660557E+01  0.66832429853E+01  0.12700000000E+01 0. -1.
         -4   -1    0    0    0  501 -0.00000000000E+00 -0.00000000000E+00 -0.58965289217E+03  0.58965425984E+03  0.12700000000E+01 0. -1.
         25    2    1    2    0    0  0.00000000000E+00  0.00000000000E+00 -0.58309142612E+03  0.59633750283E+03  0.12499122395E+03 0.  0.
    9000005    1    3    3    0    0 -0.61049611884E+02  0.73143103930E+01 -0.34470524961E+03  0.35014748800E+03  0.10000000000E+01 0.  0.
    9000005    1    3    3    0    0  0.61049611884E+02 -0.73143103930E+01 -0.23838617651E+03  0.24619001483E+03  0.10000000000E+01 0.  0.
<mgrwt>
<rscale>  0 0.12499122E+03</rscale>
<asrwt>0</asrwt>
<pdfrwt beam="1">  1        4 0.10189294E-02 0.12499122E+03</pdfrwt>
<pdfrwt beam="2">  1       -4 0.90725261E-01 0.12499122E+03</pdfrwt>
<totfact> 0.49109084E+03</totfact>
</mgrwt>
</event>
<event>
 5    1  0.3286491E-002  0.1250017E+03  0.7818608E-02  0.1235067E+00
         -4   -1    0    0    0  501 -0.00000000000E+00  0.00000000000E+00  0.27128493353E+03  0.27128790622E+03  0.12700000000E+01 0. -1.
          4   -1    0    0  501    0  0.00000000000E+00 -0.00000000000E+00 -0.14368403975E+02  0.14424421403E+02  0.12700000000E+01 0. -1.
         25    2    1    2    0    0  0.00000000000E+00  0.00000000000E+00  0.25691652956E+03  0.28571232762E+03  0.12500172397E+03 0.  0.
    9000005    1    3    3    0    0  0.20582340758E+02 -0.16456785259E+02 -0.10585972713E+01  0.26392786142E+02  0.10000000000E+01 0.  0.
    9000005    1    3    3    0    0 -0.20582340758E+02  0.16456785259E+02  0.25797512683E+03  0.25931954148E+03  0.10000000000E+01 0.  0.
<mgrwt>
<rscale>  0 0.12500172E+03</rscale>
<asrwt>0</asrwt>
<pdfrwt beam="2">  1        4 0.22150614E-02 0.12500172E+03</pdfrwt>
<pdfrwt beam="1">  1       -4 0.41740681E-01 0.12500172E+03</pdfrwt>
<totfact> 0.77423771E+03</totfact>
</mgrwt>
</event>
<event>
 5    1  0.3286491E-002  0.1250050E+03  0.7818608E-02  0.1235061E+00
         -4   -1    0    0    0  501 -0.00000000000E+00  0.00000000000E+00  0.27689232060E+03  0.27689523309E+03  0.12700000000E+01 0. -1.
          4   -1    0    0  501    0  0.00000000000E+00 -0.00000000000E+00 -0.14077033156E+02  0.14134205407E+02  0.12700000000E+01 0. -1.
         25    2    1    2    0    0  0.00000000000E+00  0.00000000000E+00  0.26281528744E+03  0.29102943850E+03  0.12500503493E+03 0.  0.
    9000005    1    3    3    0    0  0.55730988072E+02 -0.26821064067E+02  0.15226397108E+03  0.16434910830E+03  0.10000000000E+01 0.  0.
    9000005    1    3    3    0    0 -0.55730988072E+02  0.26821064067E+02  0.11055131636E+03  0.12668033019E+03  0.10000000000E+01 0.  0.
<mgrwt>
<rscale>  0 0.12500503E+03</rscale>
<asrwt>0</asrwt>
<pdfrwt beam="2">  1        4 0.21703194E-02 0.12500503E+03</pdfrwt>
<pdfrwt beam="1">  1       -4 0.42603439E-01 0.12500503E+03</pdfrwt>
<totfact> 0.76729464E+03</totfact>
</mgrwt>
</event>
<event>
 5    1  0.3286491E-002  0.1250019E+03  0.7818608E-02  0.1235066E+00
          4   -1    0    0  501    0  0.00000000000E+00  0.00000000000E+00  0.10088158901E+04  0.10088166895E+04  0.12700000000E+01 0. -1.
         -4   -1    0    0    0  501 -0.00000000000E+00 -0.00000000000E+00 -0.37672740653E+01  0.39755822068E+01  0.12700000000E+01 0. -1.
         25    2    1    2    0    0  0.00000000000E+00  0.00000000000E+00  0.10050486161E+04  0.10127922717E+04  0.12500186015E+03 0.  0.
    9000005    1    3    3    0    0  0.10951805509E+02  0.32009005502E+02  0.76803248471E+02  0.83930074781E+02  0.10000000000E+01 0.  0.
    9000005    1    3    3    0    0 -0.10951805509E+02 -0.32009005502E+02  0.92824536760E+03  0.92886219696E+03  0.10000000000E+01 0.  0.
<mgrwt>
<rscale>  0 0.12500186E+03</rscale>
<asrwt>0</asrwt>
<pdfrwt beam="1">  1        4 0.15521856E+00 0.12500186E+03</pdfrwt>
<pdfrwt beam="2">  1       -4 0.59566570E-03 0.12500186E+03</pdfrwt>
<totfact> 0.30184292E+03</totfact>
</mgrwt>
</event>
<event>
 5    1  0.3286491E-002  0.1249993E+03  0.7818608E-02  0.1235070E+00
          4   -1    0    0  501    0  0.00000000000E+00  0.00000000000E+00  0.18634513627E+04  0.18634517954E+04  0.12700000000E+01 0.  1.
         -4   -1    0    0    0  501 -0.00000000000E+00 -0.00000000000E+00 -0.19033897449E+01  0.22881854210E+01  0.12700000000E+01 0.  1.
         25    2    1    2    0    0  0.00000000000E+00  0.00000000000E+00  0.18615479729E+04  0.18657399809E+04  0.12499928276E+03 0.  0.
    9000005    1    3    3    0    0 -0.24904141308E+02 -0.39664431561E+01  0.77343646565E+02  0.81357166799E+02  0.10000000000E+01 0.  0.
    9000005    1    3    3    0    0  0.24904141308E+02  0.39664431561E+01  0.17842043263E+04  0.17843828141E+04  0.10000000000E+01 0.  0.
<mgrwt>
<rscale>  0 0.12499928E+03</rscale>
<asrwt>0</asrwt>
<pdfrwt beam="1">  1        4 0.28671455E+00 0.12499928E+03</pdfrwt>
<pdfrwt beam="2">  1       -4 0.32246205E-03 0.12499928E+03</pdfrwt>
<totfact> 0.11717323E+03</totfact>
</mgrwt>
</event>
<event>
 5    1  0.3286491E-002  0.1250012E+03  0.7818608E-02  0.1235067E+00
         -4   -1    0    0    0  501 -0.00000000000E+00  0.00000000000E+00  0.82298214898E+02  0.82308013434E+02  0.12700000000E+01 0. -1.
          4   -1    0    0  501    0  0.00000000000E+00 -0.00000000000E+00 -0.47444363731E+02  0.47461358491E+02  0.12700000000E+01 0. -1.
         25    2    1    2    0    0  0.00000000000E+00  0.00000000000E+00  0.34853851167E+02  0.12976937192E+03  0.12500119579E+03 0.  0.
    9000005    1    3    3    0    0 -0.28602864650E+02 -0.53818619740E+02  0.30886037965E+01  0.61033656046E+02  0.10000000000E+01 0.  0.
    9000005    1    3    3    0    0  0.28602864650E+02  0.53818619740E+02  0.31765247371E+02  0.68735715879E+02  0.10000000000E+01 0.  0.
<mgrwt>
<rscale>  0 0.12500120E+03</rscale>
<asrwt>0</asrwt>
<pdfrwt beam="2">  1        4 0.73011940E-02 0.12500120E+03</pdfrwt>
<pdfrwt beam="1">  1       -4 0.12663325E-01 0.12500120E+03</pdfrwt>
<totfact> 0.10349164E+04</totfact>
</mgrwt>
</event>
<event>
 5    1  0.3286491E-002  0.1250007E+03  0.7818608E-02  0.1235068E+00
         -4   -1    0    0    0  501 -0.00000000000E+00  0.00000000000E+00  0.58671496662E+03  0.58671634114E+03  0.12700000000E+01 0.  1.
          4   -1    0    0  501    0  0.00000000000E+00 -0.00000000000E+00 -0.65959443237E+01  0.67170962120E+01  0.12700000000E+01 0.  1.
         25    2    1    2    0    0  0.00000000000E+00  0.00000000000E+00  0.58011902230E+03  0.59343343735E+03  0.12500065813E+03 0.  0.
    9000005    1    3    3    0    0  0.38095083081E+02  0.30341685626E+02  0.10415376698E+03  0.11498200040E+03  0.10000000000E+01 0.  0.
    9000005    1    3    3    0    0 -0.38095083081E+02 -0.30341685626E+02  0.47596525532E+03  0.47845143694E+03  0.10000000000E+01 0.  0.
<mgrwt>
<rscale>  0 0.12500066E+03</rscale>
<asrwt>0</asrwt>
<pdfrwt beam="2">  1        4 0.10241857E-02 0.12500066E+03</pdfrwt>
<pdfrwt beam="1">  1       -4 0.90273276E-01 0.12500066E+03</pdfrwt>
<totfact> 0.49284036E+03</totfact>
</mgrwt>
</event>
<event>
 5    1  0.3286491E-002  0.1250011E+03  0.7818608E-02  0.1235068E+00
         -4   -1    0    0    0  501 -0.00000000000E+00  0.00000000000E+00  0.24313573267E+01  0.27430636978E+01  0.12700000000E+01 0. -1.
          4   -1    0    0  501    0  0.00000000000E+00 -0.00000000000E+00 -0.15095443365E+04  0.15095448708E+04  0.12700000000E+01 0. -1.
         25    2    1    2    0    0  0.00000000000E+00  0.00000000000E+00 -0.15071129792E+04  0.15122879345E+04  0.12500105854E+03 0.  0.
    9000005    1    3    3    0    0  0.12606251872E+01 -0.31812332002E+02 -0.14041318379E+04  0.14044930871E+04  0.10000000000E+01 0.  0.
    9000005    1    3    3    0    0 -0.12606251872E+01  0.31812332002E+02 -0.10298114132E+03  0.10779484733E+03  0.10000000000E+01 0.  0.
<mgrwt>
<rscale>  0 0.12500106E+03</rscale>
<asrwt>0</asrwt>
<pdfrwt beam="2">  1        4 0.23226091E+00 0.12500106E+03</pdfrwt>
<pdfrwt beam="1">  1       -4 0.39807469E-03 0.12500106E+03</pdfrwt>
<totfact> 0.17689797E+03</totfact>
</mgrwt>
</event>
<event>
 5    1  0.3286491E-002  0.1250010E+03  0.7818608E-02  0.1235068E+00
         -4   -1    0    0    0  501 -0.00000000000E+00  0.00000000000E+00  0.21113962611E+03  0.21114344558E+03  0.12700000000E+01 0.  1.
          4   -1    0    0  501    0  0.00000000000E+00 -0.00000000000E+00 -0.18475301005E+02  0.18518899731E+02  0.12700000000E+01 0.  1.
         25    2    1    2    0    0  0.00000000000E+00  0.00000000000E+00  0.19266432510E+03  0.22966234531E+03  0.12500100275E+03 0.  0.
    9000005    1    3    3    0    0 -0.57404809205E+02  0.92116161893E+01  0.13843550849E+03  0.15015177656E+03  0.10000000000E+01 0.  0.
    9000005    1    3    3    0    0  0.57404809205E+02 -0.92116161893E+01  0.54228816612E+02  0.79510568755E+02  0.10000000000E+01 0.  0.
<mgrwt>
<rscale>  0 0.12500100E+03</rscale>
<asrwt>0</asrwt>
<pdfrwt beam="2">  1        4 0.28460014E-02 0.12500100E+03</pdfrwt>
<pdfrwt beam="1">  1       -4 0.32486669E-01 0.12500100E+03</pdfrwt>
<totfact> 0.85359558E+03</totfact>
</mgrwt>
</event>
<event>
 5    1  0.3286491E-002  0.1250086E+03  0.7818608E-02  0.1235056E+00
         -4   -1    0    0    0  501 -0.00000000000E+00  0.00000000000E+00  0.10276632883E+03  0.10277417594E+03  0.12700000000E+01 0. -1.
          4   -1    0    0  501    0  0.00000000000E+00 -0.00000000000E+00 -0.37996340578E+02  0.38017559065E+02  0.12700000000E+01 0. -1.
         25    2    1    2    0    0  0.00000000000E+00  0.00000000000E+00  0.64769988251E+02  0.14079173501E+03  0.12500864478E+03 0.  0.
    9000005    1    3    3    0    0 -0.44347195291E+02  0.16811722070E+02 -0.13453522125E+02  0.49308264892E+02  0.10000000000E+01 0.  0.
    9000005    1    3    3    0    0  0.44347195291E+02 -0.16811722070E+02  0.78223510376E+02  0.91483470117E+02  0.10000000000E+01 0.  0.
<mgrwt>
<rscale>  0 0.12500864E+03</rscale>
<asrwt>0</asrwt>
<pdfrwt beam="2">  1        4 0.58478267E-02 0.12500864E+03</pdfrwt>
<pdfrwt beam="1">  1       -4 0.15812440E-01 0.12500864E+03</pdfrwt>
<totfact> 0.10115233E+04</totfact>
</mgrwt>
</event>
<event>
 5    1  0.3286491E-002  0.1250040E+03  0.7818608E-02  0.1235063E+00
         -4   -1    0    0    0  501 -0.00000000000E+00  0.00000000000E+00  0.82172088523E+01  0.83147712730E+01  0.12700000000E+01 0.  1.
          4   -1    0    0  501    0  0.00000000000E+00 -0.00000000000E+00 -0.47250092209E+03  0.47250262885E+03  0.12700000000E+01 0.  1.
         25    2    1    2    0    0  0.00000000000E+00  0.00000000000E+00 -0.46428371324E+03  0.48081740013E+03  0.12500402349E+03 0.  0.
    9000005    1    3    3    0    0  0.34665209903E+02  0.39392139168E+02 -0.36269828755E+03  0.36647573617E+03  0.10000000000E+01 0.  0.
    9000005    1    3    3    0    0 -0.34665209903E+02 -0.39392139168E+02 -0.10158542568E+03  0.11434166396E+03  0.10000000000E+01 0.  0.
<mgrwt>
<rscale>  0 0.12500402E+03</rscale>
<asrwt>0</asrwt>
<pdfrwt beam="2">  1        4 0.72700065E-01 0.12500402E+03</pdfrwt>
<pdfrwt beam="1">  1       -4 0.12718224E-02 0.12500402E+03</pdfrwt>
<totfact> 0.57378964E+03</totfact>
</mgrwt>
</event>
<event>
 5    1  0.3286491E-002  0.1250021E+03  0.7818608E-02  0.1235066E+00
          4   -1    0    0  501    0  0.00000000000E+00  0.00000000000E+00  0.11572876336E+02  0.11642352284E+02  0.12700000000E+01 0.  1.
         -4   -1    0    0    0  501 -0.00000000000E+00 -0.00000000000E+00 -0.33646565267E+03  0.33646804949E+03  0.12700000000E+01 0.  1.
         25    2    1    2    0    0  0.00000000000E+00  0.00000000000E+00 -0.32489277633E+03  0.34811040177E+03  0.12500214281E+03 0.  0.
    9000005    1    3    3    0    0 -0.59553506462E+02  0.18804081186E+02 -0.15611413164E+03  0.16814528153E+03  0.10000000000E+01 0.  0.
    9000005    1    3    3    0    0  0.59553506462E+02 -0.18804081186E+02 -0.16877864469E+03  0.17996512025E+03  0.10000000000E+01 0.  0.
<mgrwt>
<rscale>  0 0.12500214E+03</rscale>
<asrwt>0</asrwt>
<pdfrwt beam="1">  1        4 0.17859714E-02 0.12500214E+03</pdfrwt>
<pdfrwt beam="2">  1       -4 0.51769468E-01 0.12500214E+03</pdfrwt>
<totfact> 0.69929623E+03</totfact>
</mgrwt>
</event>
<event>
 5    1  0.3286491E-002  0.1250196E+03  0.7818608E-02  0.1235039E+00
          4   -1    0    0  501    0  0.00000000000E+00  0.00000000000E+00  0.12950384212E+03  0.12951006920E+03  0.12700000000E+01 0. -1.
         -4   -1    0    0    0  501 -0.00000000000E+00 -0.00000000000E+00 -0.30152360528E+02  0.30179094510E+02  0.12700000000E+01 0. -1.
         25    2    1    2    0    0  0.00000000000E+00  0.00000000000E+00  0.99351481590E+02  0.15968916371E+03  0.12501964690E+03 0.  0.
    9000005    1    3    3    0    0  0.48880180843E+02 -0.30936897593E+02  0.79905557574E+02  0.98652226752E+02  0.10000000000E+01 0.  0.
    9000005    1    3    3    0    0 -0.48880180843E+02  0.30936897593E+02  0.19445924016E+02  0.61036936954E+02  0.10000000000E+01 0.  0.
<mgrwt>
<rscale>  0 0.12501965E+03</rscale>
<asrwt>0</asrwt>
<pdfrwt beam="1">  1        4 0.19926204E-01 0.12501965E+03</pdfrwt>
<pdfrwt beam="2">  1       -4 0.46413601E-02 0.12501965E+03</pdfrwt>
<totfact> 0.97359742E+03</totfact>
</mgrwt>
</event>
<event>
 5    1  0.3286491E-002  0.1250021E+03  0.7818608E-02  0.1235066E+00
         -4   -1    0    0    0  501 -0.00000000000E+00  0.00000000000E+00  0.63492573762E+03  0.63492700776E+03  0.12700000000E+01 0. -1.
          4   -1    0    0  501    0  0.00000000000E+00 -0.00000000000E+00 -0.60856734738E+01  0.62167774313E+01  0.12700000000E+01 0. -1.
         25    2    1    2    0    0  0.00000000000E+00  0.00000000000E+00  0.62884006414E+03  0.64114378520E+03  0.12500210808E+03 0.  0.
    9000005    1    3    3    0    0 -0.48487679643E+02 -0.16221241002E+02  0.13011613209E+03  0.13980483384E+03  0.10000000000E+01 0.  0.
    9000005    1    3    3    0    0  0.48487679643E+02  0.16221241002E+02  0.49872393206E+03  0.50133895135E+03  0.10000000000E+01 0.  0.
<mgrwt>
<rscale>  0 0.12500211E+03</rscale>
<asrwt>0</asrwt>
<pdfrwt beam="2">  1        4 0.94644013E-03 0.12500211E+03</pdfrwt>
<pdfrwt beam="1">  1       -4 0.97691060E-01 0.12500211E+03</pdfrwt>
<totfact> 0.46367183E+03</totfact>
</mgrwt>
</event>
<event>
 5    1  0.3286491E-002  0.1249984E+03  0.7818608E-02  0.1235072E+00
          4   -1    0    0  501    0  0.00000000000E+00  0.00000000000E+00  0.14655855302E+02  0.14710778179E+02  0.12700000000E+01 0. -1.
         -4   -1    0    0    0  501 -0.00000000000E+00 -0.00000000000E+00 -0.26596995065E+03  0.26597298274E+03  0.12700000000E+01 0. -1.
         25    2    1    2    0    0  0.00000000000E+00  0.00000000000E+00 -0.25131409535E+03  0.28068376092E+03  0.12499839649E+03 0.  0.
    9000005    1    3    3    0    0 -0.39140204708E+02  0.47545184733E+02 -0.10182410846E+03  0.11900272803E+03  0.10000000000E+01 0.  0.
    9000005    1    3    3    0    0  0.39140204708E+02 -0.47545184733E+02 -0.14948998689E+03  0.16168103289E+03  0.10000000000E+01 0.  0.
<mgrwt>
<rscale>  0 0.12499840E+03</rscale>
<asrwt>0</asrwt>
<pdfrwt beam="1">  1        4 0.22592052E-02 0.12499840E+03</pdfrwt>
<pdfrwt beam="2">  1       -4 0.40922909E-01 0.12499840E+03</pdfrwt>
<totfact> 0.78090316E+03</totfact>
</mgrwt>
</event>
<event>
 5    1  0.3286491E-002  0.1250008E+03  0.7818608E-02  0.1235068E+00
          4   -1    0    0  501    0  0.00000000000E+00  0.00000000000E+00  0.14142062625E+03  0.14142632862E+03  0.12700000000E+01 0.  1.
         -4   -1    0    0    0  501 -0.00000000000E+00 -0.00000000000E+00 -0.27601015589E+02  0.27630218269E+02  0.12700000000E+01 0.  1.
         25    2    1    2    0    0  0.00000000000E+00  0.00000000000E+00  0.11381961066E+03  0.16905654689E+03  0.12500084911E+03 0.  0.
    9000005    1    3    3    0    0  0.42624729599E+02 -0.44511933116E+01 -0.46021651793E+01  0.43114505907E+02  0.10000000000E+01 0.  0.
    9000005    1    3    3    0    0 -0.42624729599E+02  0.44511933116E+01  0.11842177584E+03  0.12594204099E+03  0.10000000000E+01 0.  0.
<mgrwt>
<rscale>  0 0.12500085E+03</rscale>
<asrwt>0</asrwt>
<pdfrwt beam="1">  1        4 0.21759704E-01 0.12500085E+03</pdfrwt>
<pdfrwt beam="2">  1       -4 0.42489952E-02 0.12500085E+03</pdfrwt>
<totfact> 0.95622791E+03</totfact>
</mgrwt>
</event>
<event>
 5    1  0.3286491E-002  0.1250438E+03  0.7818608E-02  0.1235001E+00
         -4   -1    0    0    0  501 -0.00000000000E+00  0.00000000000E+00  0.15255315905E+02  0.15308088168E+02  0.12700000000E+01 0. -1.
          4   -1    0    0  501    0  0.00000000000E+00 -0.00000000000E+00 -0.25574113243E+03  0.25574428579E+03  0.12700000000E+01 0. -1.
         25    2    1    2    0    0  0.00000000000E+00  0.00000000000E+00 -0.24048581652E+03  0.27105237396E+03  0.12504383824E+03 0.  0.
    9000005    1    3    3    0    0  0.13976158870E+02  0.34676218770E+02 -0.22884709563E+03  0.23188308766E+03  0.10000000000E+01 0.  0.
    9000005    1    3    3    0    0 -0.13976158870E+02 -0.34676218770E+02 -0.11638720890E+02  0.39169286296E+02  0.10000000000E+01 0.  0.
<mgrwt>
<rscale>  0 0.12504384E+03</rscale>
<asrwt>0</asrwt>
<pdfrwt beam="2">  1        4 0.39349088E-01 0.12504384E+03</pdfrwt>
<pdfrwt beam="1">  1       -4 0.23512738E-02 0.12504384E+03</pdfrwt>
<totfact> 0.79302259E+03</totfact>
</mgrwt>
</event>
<event>
 5    1  0.3286491E-002  0.1249966E+03  0.7818608E-02  0.1235075E+00
          4   -1    0    0  501    0  0.00000000000E+00  0.00000000000E+00  0.11802831230E+03  0.11803514479E+03  0.12700000000E+01 0. -1.
         -4   -1    0    0    0  501 -0.00000000000E+00 -0.00000000000E+00 -0.33074071267E+02  0.33098445434E+02  0.12700000000E+01 0. -1.
         25    2    1    2    0    0  0.00000000000E+00  0.00000000000E+00  0.84954241035E+02  0.15113359022E+03  0.12499655605E+03 0.  0.
    9000005    1    3    3    0    0 -0.26834062497E+02 -0.56433276260E+02  0.41868741179E+02  0.75224816832E+02  0.10000000000E+01 0.  0.
    9000005    1    3    3    0    0  0.26834062497E+02  0.56433276260E+02  0.43085499857E+02  0.75908773389E+02  0.10000000000E+01 0.  0.
<mgrwt>
<rscale>  0 0.12499656E+03</rscale>
<asrwt>0</asrwt>
<pdfrwt beam="1">  1        4 0.18160602E-01 0.12499656E+03</pdfrwt>
<pdfrwt beam="2">  1       -4 0.50907192E-02 0.12499656E+03</pdfrwt>
<totfact> 0.99085891E+03</totfact>
</mgrwt>
</event>
<event>
 5    1  0.3286491E-002  0.1250119E+03  0.7818608E-02  0.1235051E+00
          4   -1    0    0  501    0  0.00000000000E+00  0.00000000000E+00  0.54153079853E+02  0.54167969849E+02  0.12700000000E+01 0.  1.
         -4   -1    0    0    0  501 -0.00000000000E+00 -0.00000000000E+00 -0.72116778131E+02  0.72127959821E+02  0.12700000000E+01 0.  1.
         25    2    1    2    0    0  0.00000000000E+00  0.00000000000E+00 -0.17963698278E+02  0.12629592967E+03  0.12501186902E+03 0.  0.
    9000005    1    3    3    0    0 -0.38342070477E+02  0.21256601638E+02 -0.53981868561E+02  0.69548541429E+02  0.10000000000E+01 0.  0.
    9000005    1    3    3    0    0  0.38342070477E+02 -0.21256601638E+02  0.36018170283E+02  0.56747388241E+02  0.10000000000E+01 0.  0.
<mgrwt>
<rscale>  0 0.12501187E+03</rscale>
<asrwt>0</asrwt>
<pdfrwt beam="1">  1        4 0.83332485E-02 0.12501187E+03</pdfrwt>
<pdfrwt beam="2">  1       -4 0.11096895E-01 0.12501187E+03</pdfrwt>
<totfact> 0.10421690E+04</totfact>
</mgrwt>
</event>
<event>
 5    1  0.3286491E-002  0.1250035E+03  0.7818608E-02  0.1235064E+00
          4   -1    0    0  501    0  0.00000000000E+00  0.00000000000E+00  0.12095314108E+02  0.12161805926E+02  0.12700000000E+01 0. -1.
         -4   -1    0    0    0  501 -0.00000000000E+00 -0.00000000000E+00 -0.32202053881E+03  0.32202304315E+03  0.12700000000E+01 0. -1.
         25    2    1    2    0    0  0.00000000000E+00  0.00000000000E+00 -0.30992522470E+03  0.33418484907E+03  0.12500347372E+03 0.  0.
    9000005    1    3    3    0    0  0.52916425246E+02 -0.23200314823E+02 -0.91300523813E+02  0.10805178535E+03  0.10000000000E+01 0.  0.
    9000005    1    3    3    0    0 -0.52916425246E+02  0.23200314823E+02 -0.21862470089E+03  0.22613306372E+03  0.10000000000E+01 0.  0.
<mgrwt>
<rscale>  0 0.12500347E+03</rscale>
<asrwt>0</asrwt>
<pdfrwt beam="1">  1        4 0.18661252E-02 0.12500347E+03</pdfrwt>
<pdfrwt beam="2">  1       -4 0.49546922E-01 0.12500347E+03</pdfrwt>
<totfact> 0.71494693E+03</totfact>
</mgrwt>
</event>
<event>
 4    1  0.3286491E-002  0.1248729E+03  0.7818608E-02  0.1235268E+00
          4   -1    0    0  501    0  0.00000000000E+00  0.00000000000E+00  0.16706116213E+03  0.16706598933E+03  0.12700000000E+01 0.  1.
         -4   -1    0    0    0  501 -0.00000000000E+00 -0.00000000000E+00 -0.23312164118E+02  0.23346732017E+02  0.12700000000E+01 0.  1.
    9000005    1    1    2    0    0  0.17366689882E+02  0.43526233492E+01 -0.19320880074E+02  0.26359887221E+02  0.10000000000E+01 0.  0.
    9000005    1    1    2    0    0 -0.17366689882E+02 -0.43526233492E+01  0.16306987808E+03  0.16405283413E+03  0.10000000000E+01 0.  0.
<mgrwt>
<rscale>  0 0.12487286E+03</rscale>
<asrwt>0</asrwt>
<pdfrwt beam="1">  1        4 0.25704748E-01 0.12487286E+03</pdfrwt>
<pdfrwt beam="2">  1       -4 0.35895171E-02 0.12487286E+03</pdfrwt>
<totfact> 0.92037409E+03</totfact>
</mgrwt>
</event>
<event>
 5    1  0.3286491E-002  0.1249972E+03  0.7818608E-02  0.1235074E+00
         -4   -1    0    0    0  501 -0.00000000000E+00  0.00000000000E+00  0.55042944663E+03  0.55043091176E+03  0.12700000000E+01 0. -1.
          4   -1    0    0  501    0  0.00000000000E+00 -0.00000000000E+00 -0.70381094413E+01  0.71517749201E+01  0.12700000000E+01 0. -1.
         25    2    1    2    0    0  0.00000000000E+00  0.00000000000E+00  0.54339133719E+03  0.55758268668E+03  0.12499722857E+03 0.  0.
    9000005    1    3    3    0    0  0.41060299356E+02 -0.29876644930E+02  0.43416258152E+03  0.43712321980E+03  0.10000000000E+01 0.  0.
    9000005    1    3    3    0    0 -0.41060299356E+02  0.29876644930E+02  0.10922875567E+03  0.12045946688E+03  0.10000000000E+01 0.  0.
<mgrwt>
<rscale>  0 0.12499723E+03</rscale>
<asrwt>0</asrwt>
<pdfrwt beam="2">  1        4 0.10916423E-02 0.12499723E+03</pdfrwt>
<pdfrwt beam="1">  1       -4 0.84690307E-01 0.12499723E+03</pdfrwt>
<totfact> 0.51662610E+03</totfact>
</mgrwt>
</event>
<event>
 5    1  0.3286491E-002  0.1249987E+03  0.7818608E-02  0.1235071E+00
          4   -1    0    0  501    0  0.00000000000E+00  0.00000000000E+00  0.11657388470E+03  0.11658080243E+03  0.12700000000E+01 0.  1.
         -4   -1    0    0    0  501 -0.00000000000E+00 -0.00000000000E+00 -0.33488146063E+02  0.33512219066E+02  0.12700000000E+01 0.  1.
         25    2    1    2    0    0  0.00000000000E+00  0.00000000000E+00  0.83085738642E+02  0.15009302150E+03  0.12499870054E+03 0.  0.
    9000005    1    3    3    0    0  0.19571119428E+02  0.51298197325E+02  0.57080774899E+01  0.55209744730E+02  0.10000000000E+01 0.  0.
    9000005    1    3    3    0    0 -0.19571119428E+02 -0.51298197325E+02  0.77377661152E+02  0.94883276766E+02  0.10000000000E+01 0.  0.
<mgrwt>
<rscale>  0 0.12499870E+03</rscale>
<asrwt>0</asrwt>
<pdfrwt beam="1">  1        4 0.17936828E-01 0.12499870E+03</pdfrwt>
<pdfrwt beam="2">  1       -4 0.51544064E-02 0.12499870E+03</pdfrwt>
<totfact> 0.99288062E+03</totfact>
</mgrwt>
</event>
<event>
 5    1  0.3286491E-002  0.1250011E+03  0.7818608E-02  0.1235068E+00
         -4   -1    0    0    0  501 -0.00000000000E+00  0.00000000000E+00  0.29061167681E+03  0.29061445181E+03  0.12700000000E+01 0. -1.
          4   -1    0    0  501    0  0.00000000000E+00 -0.00000000000E+00 -0.13408868891E+02  0.13468877642E+02  0.12700000000E+01 0. -1.
         25    2    1    2    0    0  0.00000000000E+00  0.00000000000E+00  0.27720280792E+03  0.30408332945E+03  0.12500109812E+03 0.  0.
    9000005    1    3    3    0    0 -0.39830804194E+02  0.29715090517E+02  0.46422473214E+02  0.68011216622E+02  0.10000000000E+01 0.  0.
    9000005    1    3    3    0    0  0.39830804194E+02 -0.29715090517E+02  0.23078033471E+03  0.23607211283E+03  0.10000000000E+01 0.  0.
<mgrwt>
<rscale>  0 0.12500110E+03</rscale>
<asrwt>0</asrwt>
<pdfrwt beam="2">  1        4 0.20677326E-02 0.12500110E+03</pdfrwt>
<pdfrwt beam="1">  1       -4 0.44714315E-01 0.12500110E+03</pdfrwt>
<totfact> 0.75087643E+03</totfact>
</mgrwt>
</event>
<event>
 5    1  0.3286491E-002  0.1250011E+03  0.7818608E-02  0.1235068E+00
          4   -1    0    0  501    0  0.00000000000E+00  0.00000000000E+00  0.12962470286E+03  0.12963092413E+03  0.12700000000E+01 0. -1.
         -4   -1    0    0    0  501 -0.00000000000E+00 -0.00000000000E+00 -0.30115286906E+02  0.30142053770E+02  0.12700000000E+01 0. -1.
         25    2    1    2    0    0  0.00000000000E+00  0.00000000000E+00  0.99509415955E+02  0.15977297790E+03  0.12500112241E+03 0.  0.
    9000005    1    3    3    0    0 -0.13618150876E+02  0.56129539961E+02  0.80253005322E+02  0.98881364032E+02  0.10000000000E+01 0.  0.
    9000005    1    3    3    0    0  0.13618150876E+02 -0.56129539961E+02  0.19256410633E+02  0.60891613872E+02  0.10000000000E+01 0.  0.
<mgrwt>
<rscale>  0 0.12500112E+03</rscale>
<asrwt>0</asrwt>
<pdfrwt beam="1">  1        4 0.19944799E-01 0.12500112E+03</pdfrwt>
<pdfrwt beam="2">  1       -4 0.46356587E-02 0.12500112E+03</pdfrwt>
<totfact> 0.97384114E+03</totfact>
</mgrwt>
</event>
<event>
 5    1  0.3286491E-002  0.1250015E+03  0.7818608E-02  0.1235067E+00
          4   -1    0    0  501    0  0.00000000000E+00  0.00000000000E+00  0.27858877052E+03  0.27859166527E+03  0.12700000000E+01 0. -1.
         -4   -1    0    0    0  501 -0.00000000000E+00 -0.00000000000E+00 -0.13990176675E+02  0.14047702424E+02  0.12700000000E+01 0. -1.
         25    2    1    2    0    0  0.00000000000E+00  0.00000000000E+00  0.26459859384E+03  0.29263936769E+03  0.12500153463E+03 0.  0.
    9000005    1    3    3    0    0  0.40085027031E+02  0.47706160550E+02  0.12115543921E+03  0.13624363324E+03  0.10000000000E+01 0.  0.
    9000005    1    3    3    0    0 -0.40085027031E+02 -0.47706160550E+02  0.14344315463E+03  0.15639573446E+03  0.10000000000E+01 0.  0.
<mgrwt>
<rscale>  0 0.12500153E+03</rscale>
<asrwt>0</asrwt>
<pdfrwt beam="1">  1        4 0.42864459E-01 0.12500153E+03</pdfrwt>
<pdfrwt beam="2">  1       -4 0.21569826E-02 0.12500153E+03</pdfrwt>
<totfact> 0.76528907E+03</totfact>
</mgrwt>
</event>
<event>
 5    1  0.3286491E-002  0.1250025E+03  0.7818608E-02  0.1235065E+00
         -4   -1    0    0    0  501 -0.00000000000E+00  0.00000000000E+00  0.36146017666E+02  0.36168321680E+02  0.12700000000E+01 0. -1.
          4   -1    0    0  501    0  0.00000000000E+00 -0.00000000000E+00 -0.10801351419E+03  0.10802098012E+03  0.12700000000E+01 0. -1.
         25    2    1    2    0    0  0.00000000000E+00  0.00000000000E+00 -0.71867496521E+02  0.14418930180E+03  0.12500247077E+03 0.  0.
    9000005    1    3    3    0    0 -0.54301698011E+02  0.29958972748E+02 -0.27059358474E+02  0.67671436633E+02  0.10000000000E+01 0.  0.
    9000005    1    3    3    0    0  0.54301698011E+02 -0.29958972748E+02 -0.44808138047E+02  0.76517865171E+02  0.10000000000E+01 0.  0.
<mgrwt>
<rscale>  0 0.12500247E+03</rscale>
<asrwt>0</asrwt>
<pdfrwt beam="2">  1        4 0.16619754E-01 0.12500247E+03</pdfrwt>
<pdfrwt beam="1">  1       -4 0.55632158E-02 0.12500247E+03</pdfrwt>
<totfact> 0.10046927E+04</totfact>
</mgrwt>
</event>
<event>
 5    1  0.3286491E-002  0.1250038E+03  0.7818608E-02  0.1235063E+00
         -4   -1    0    0    0  501 -0.00000000000E+00  0.00000000000E+00  0.16106297880E+03  0.16106798577E+03  0.12700000000E+01 0. -1.
          4   -1    0    0  501    0  0.00000000000E+00 -0.00000000000E+00 -0.24232380100E+02  0.24265637130E+02  0.12700000000E+01 0. -1.
         25    2    1    2    0    0  0.00000000000E+00  0.00000000000E+00  0.13683059870E+03  0.18533362290E+03  0.12500375609E+03 0.  0.
    9000005    1    3    3    0    0  0.52572024424E+02 -0.13546099497E+02  0.11430893690E+03  0.12654978317E+03  0.10000000000E+01 0.  0.
    9000005    1    3    3    0    0 -0.52572024424E+02  0.13546099497E+02  0.22521661796E+02  0.58783839733E+02  0.10000000000E+01 0.  0.
<mgrwt>
<rscale>  0 0.12500376E+03</rscale>
<asrwt>0</asrwt>
<pdfrwt beam="2">  1        4 0.37310017E-02 0.12500376E+03</pdfrwt>
<pdfrwt beam="1">  1       -4 0.24781865E-01 0.12500376E+03</pdfrwt>
<totfact> 0.92657847E+03</totfact>
</mgrwt>
</event>
<event>
 5    1  0.3286491E-002  0.1249980E+03  0.7818608E-02  0.1235072E+00
         -4   -1    0    0    0  501 -0.00000000000E+00  0.00000000000E+00  0.30384312289E+01  0.32931693446E+01  0.12700000000E+01 0. -1.
          4   -1    0    0  501    0  0.00000000000E+00 -0.00000000000E+00 -0.12335948040E+04  0.12335954577E+04  0.12700000000E+01 0. -1.
         25    2    1    2    0    0  0.00000000000E+00  0.00000000000E+00 -0.12305563727E+04  0.12368886270E+04  0.12499795695E+03 0.  0.
    9000005    1    3    3    0    0  0.41380079682E+02 -0.22718975066E+02 -0.21009621132E+03  0.21533666858E+03  0.10000000000E+01 0.  0.
    9000005    1    3    3    0    0 -0.41380079682E+02  0.22718975066E+02 -0.10204601614E+04  0.10215519585E+04  0.10000000000E+01 0.  0.
<mgrwt>
<rscale>  0 0.12499796E+03</rscale>
<asrwt>0</asrwt>
<pdfrwt beam="2">  1        4 0.18980308E+00 0.12499796E+03</pdfrwt>
<pdfrwt beam="1">  1       -4 0.48709747E-03 0.12499796E+03</pdfrwt>
<totfact> 0.23768218E+03</totfact>
</mgrwt>
</event>
<event>
 5    1  0.3286491E-002  0.1249913E+03  0.7818608E-02  0.1235083E+00
         -4   -1    0    0    0  501 -0.00000000000E+00  0.00000000000E+00  0.85406189747E+01  0.86345279240E+01  0.12700000000E+01 0.  1.
          4   -1    0    0  501    0  0.00000000000E+00 -0.00000000000E+00 -0.45471428940E+03  0.45471606293E+03  0.12700000000E+01 0.  1.
         25    2    1    2    0    0  0.00000000000E+00  0.00000000000E+00 -0.44617367043E+03  0.46335059086E+03  0.12499130315E+03 0.  0.
    9000005    1    3    3    0    0 -0.56558653842E+02 -0.25694188602E+02 -0.24812908281E+03  0.25578919913E+03  0.10000000000E+01 0.  0.
    9000005    1    3    3    0    0  0.56558653842E+02  0.25694188602E+02 -0.19804458762E+03  0.20756139173E+03  0.10000000000E+01 0.  0.
<mgrwt>
<rscale>  0 0.12499130E+03</rscale>
<asrwt>0</asrwt>
<pdfrwt beam="2">  1        4 0.69963386E-01 0.12499130E+03</pdfrwt>
<pdfrwt beam="1">  1       -4 0.13213019E-02 0.12499130E+03</pdfrwt>
<totfact> 0.58835707E+03</totfact>
</mgrwt>
</event>
<event>
 5    1  0.3286491E-002  0.1250018E+03  0.7818608E-02  0.1235066E+00
         -4   -1    0    0    0  501 -0.00000000000E+00  0.00000000000E+00  0.18349532991E+02  0.18393429832E+02  0.12700000000E+01 0.  1.
          4   -1    0    0  501    0  0.00000000000E+00 -0.00000000000E+00 -0.21258622340E+03  0.21259001689E+03  0.12700000000E+01 0.  1.
         25    2    1    2    0    0  0.00000000000E+00  0.00000000000E+00 -0.19423669041E+03  0.23098344672E+03  0.12500184301E+03 0.  0.
    9000005    1    3    3    0    0  0.54070772893E+02 -0.10834483645E+02 -0.15144392922E+03  0.16117474434E+03  0.10000000000E+01 0.  0.
    9000005    1    3    3    0    0 -0.54070772893E+02  0.10834483645E+02 -0.42792761195E+02  0.69808702378E+02  0.10000000000E+01 0.  0.
<mgrwt>
<rscale>  0 0.12500184E+03</rscale>
<asrwt>0</asrwt>
<pdfrwt beam="2">  1        4 0.32709240E-01 0.12500184E+03</pdfrwt>
<pdfrwt beam="1">  1       -4 0.28266737E-02 0.12500184E+03</pdfrwt>
<totfact> 0.85155315E+03</totfact>
</mgrwt>
</event>
<event>
 5    1  0.3286491E-002  0.1250005E+03  0.7818608E-02  0.1235069E+00
          4   -1    0    0  501    0  0.00000000000E+00  0.00000000000E+00  0.20948594481E+03  0.20948979444E+03  0.12700000000E+01 0.  1.
         -4   -1    0    0    0  501 -0.00000000000E+00 -0.00000000000E+00 -0.18621332856E+02  0.18664590468E+02  0.12700000000E+01 0.  1.
         25    2    1    2    0    0  0.00000000000E+00  0.00000000000E+00  0.19086461195E+03  0.22815438490E+03  0.12500049302E+03 0.  0.
    9000005    1    3    3    0    0  0.53893668868E+02  0.28228205233E+02  0.12149677094E+03  0.13588165609E+03  0.10000000000E+01 0.  0.
    9000005    1    3    3    0    0 -0.53893668868E+02 -0.28228205233E+02  0.69367841015E+02  0.92272728809E+02  0.10000000000E+01 0.  0.
<mgrwt>
<rscale>  0 0.12500049E+03</rscale>
<asrwt>0</asrwt>
<pdfrwt beam="1">  1        4 0.32232233E-01 0.12500049E+03</pdfrwt>
<pdfrwt beam="2">  1       -4 0.28684439E-02 0.12500049E+03</pdfrwt>
<totfact> 0.85592856E+03</totfact>
</mgrwt>
</event>
<event>
 5    1  0.3286491E-002  0.1249988E+03  0.7818608E-02  0.1235071E+00
         -4   -1    0    0    0  501 -0.00000000000E+00  0.00000000000E+00  0.76196897834E+03  0.76197003672E+03  0.12700000000E+01 0. -1.
          4   -1    0    0  501    0  0.00000000000E+00 -0.00000000000E+00 -0.50466872341E+01  0.52040322865E+01  0.12700000000E+01 0. -1.
         25    2    1    2    0    0  0.00000000000E+00  0.00000000000E+00  0.75692229111E+03  0.76717406901E+03  0.12499878950E+03 0.  0.
    9000005    1    3    3    0    0 -0.56882593773E+02  0.24593721303E+02  0.42782615730E+03  0.43229237961E+03  0.10000000000E+01 0.  0.
    9000005    1    3    3    0    0  0.56882593773E+02 -0.24593721303E+02  0.32909613381E+03  0.33488168939E+03  0.10000000000E+01 0.  0.
<mgrwt>
<rscale>  0 0.12499879E+03</rscale>
<asrwt>0</asrwt>
<pdfrwt beam="2">  1        4 0.78859893E-03 0.12499879E+03</pdfrwt>
<pdfrwt beam="1">  1       -4 0.11723809E+00 0.12499879E+03</pdfrwt>
<totfact> 0.39766940E+03</totfact>
</mgrwt>
</event>
<event>
 5    1  0.3286491E-002  0.1249968E+03  0.7818608E-02  0.1235074E+00
          4   -1    0    0  501    0  0.00000000000E+00  0.00000000000E+00  0.44796538092E+03  0.44796718117E+03  0.12700000000E+01 0.  1.
         -4   -1    0    0    0  501 -0.00000000000E+00 -0.00000000000E+00 -0.86714690307E+01  0.87639759898E+01  0.12700000000E+01 0.  1.
         25    2    1    2    0    0  0.00000000000E+00  0.00000000000E+00  0.43929391189E+03  0.45673115716E+03  0.12499683554E+03 0.  0.
    9000005    1    3    3    0    0 -0.31162744566E+02 -0.10682017394E+02  0.41367883532E+03  0.41498963955E+03  0.10000000000E+01 0.  0.
    9000005    1    3    3    0    0  0.31162744566E+02  0.10682017394E+02  0.25615076576E+02  0.41741517611E+02  0.10000000000E+01 0.  0.
<mgrwt>
<rscale>  0 0.12499684E+03</rscale>
<asrwt>0</asrwt>
<pdfrwt beam="1">  1        4 0.68925006E-01 0.12499684E+03</pdfrwt>
<pdfrwt beam="2">  1       -4 0.13413265E-02 0.12499684E+03</pdfrwt>
<totfact> 0.59389215E+03</totfact>
</mgrwt>
</event>
<event>
 5    1  0.3286491E-002  0.1249889E+03  0.7818608E-02  0.1235087E+00
         -4   -1    0    0    0  501 -0.00000000000E+00  0.00000000000E+00  0.48163095413E+03  0.48163262854E+03  0.12700000000E+01 0. -1.
          4   -1    0    0  501    0  0.00000000000E+00 -0.00000000000E+00 -0.80575950237E+01  0.81570667256E+01  0.12700000000E+01 0. -1.
         25    2    1    2    0    0  0.00000000000E+00  0.00000000000E+00  0.47357335910E+03  0.48978969527E+03  0.12498887604E+03 0.  0.
    9000005    1    3    3    0    0  0.38175774258E+02  0.35282276683E+02  0.10090860016E+03  0.11351552482E+03  0.10000000000E+01 0.  0.
    9000005    1    3    3    0    0 -0.38175774258E+02 -0.35282276683E+02  0.37266475894E+03  0.37627417045E+03  0.10000000000E+01 0.  0.
<mgrwt>
<rscale>  0 0.12498888E+03</rscale>
<asrwt>0</asrwt>
<pdfrwt beam="2">  1        4 0.12474100E-02 0.12498888E+03</pdfrwt>
<pdfrwt beam="1">  1       -4 0.74104876E-01 0.12498888E+03</pdfrwt>
<totfact> 0.56679207E+03</totfact>
</mgrwt>
</event>
<event>
 5    1  0.3286491E-002  0.1250162E+03  0.7818608E-02  0.1235044E+00
         -4   -1    0    0    0  501 -0.00000000000E+00  0.00000000000E+00  0.16030301083E+03  0.16030804153E+03  0.12700000000E+01 0. -1.
          4   -1    0    0  501    0  0.00000000000E+00 -0.00000000000E+00 -0.24352264743E+02  0.24385358273E+02  0.12700000000E+01 0. -1.
         25    2    1    2    0    0  0.00000000000E+00  0.00000000000E+00  0.13595074608E+03  0.18469339981E+03  0.12501618524E+03 0.  0.
    9000005    1    3    3    0    0 -0.47153972209E+02 -0.88693759775E+01  0.88054943451E+01  0.48792413919E+02  0.10000000000E+01 0.  0.
    9000005    1    3    3    0    0  0.47153972209E+02  0.88693759775E+01  0.12714525174E+03  0.13590098589E+03  0.10000000000E+01 0.  0.
<mgrwt>
<rscale>  0 0.12501619E+03</rscale>
<asrwt>0</asrwt>
<pdfrwt beam="2">  1        4 0.37494350E-02 0.12501619E+03</pdfrwt>
<pdfrwt beam="1">  1       -4 0.24664934E-01 0.12501619E+03</pdfrwt>
<totfact> 0.92745287E+03</totfact>
</mgrwt>
</event>
<event>
 5    1  0.3286491E-002  0.1249961E+03  0.7818608E-02  0.1235075E+00
          4   -1    0    0  501    0  0.00000000000E+00  0.00000000000E+00  0.38248587799E+02  0.38269666429E+02  0.12700000000E+01 0. -1.
         -4   -1    0    0    0  501 -0.00000000000E+00 -0.00000000000E+00 -0.10206837032E+03  0.10207627109E+03  0.12700000000E+01 0. -1.
         25    2    1    2    0    0  0.00000000000E+00  0.00000000000E+00 -0.63819782523E+02  0.14034593752E+03  0.12499607009E+03 0.  0.
    9000005    1    3    3    0    0 -0.63677167524E+00 -0.49697233787E+02 -0.74440023047E+02  0.89512778727E+02  0.10000000000E+01 0.  0.
    9000005    1    3    3    0    0  0.63677167524E+00  0.49697233787E+02  0.10620240524E+02  0.50833158794E+02  0.10000000000E+01 0.  0.
<mgrwt>
<rscale>  0 0.12499607E+03</rscale>
<asrwt>0</asrwt>
<pdfrwt beam="1">  1        4 0.58866273E-02 0.12499607E+03</pdfrwt>
<pdfrwt beam="2">  1       -4 0.15705055E-01 0.12499607E+03</pdfrwt>
<totfact> 0.10127318E+04</totfact>
</mgrwt>
</event>
<event>
 5    1  0.3286491E-002  0.1249935E+03  0.7818608E-02  0.1235079E+00
         -4   -1    0    0    0  501 -0.00000000000E+00  0.00000000000E+00  0.78367851080E+01  0.79390239216E+01  0.12700000000E+01 0.  1.
          4   -1    0    0  501    0  0.00000000000E+00 -0.00000000000E+00 -0.49506593992E+03  0.49506756889E+03  0.12700000000E+01 0.  1.
         25    2    1    2    0    0  0.00000000000E+00  0.00000000000E+00 -0.48722915481E+03  0.50300659281E+03  0.12499353229E+03 0.  0.
    9000005    1    3    3    0    0  0.33637553047E+02  0.33334292771E+02 -0.40768334302E+03  0.41042583767E+03  0.10000000000E+01 0.  0.
    9000005    1    3    3    0    0 -0.33637553047E+02 -0.33334292771E+02 -0.79545811786E+02  0.92580755140E+02  0.10000000000E+01 0.  0.
<mgrwt>
<rscale>  0 0.12499353E+03</rscale>
<asrwt>0</asrwt>
<pdfrwt beam="2">  1        4 0.76171956E-01 0.12499353E+03</pdfrwt>
<pdfrwt beam="1">  1       -4 0.12136495E-02 0.12499353E+03</pdfrwt>
<totfact> 0.55639767E+03</totfact>
</mgrwt>
</event>
<event>
 5    1  0.3286491E-002  0.1249970E+03  0.7818608E-02  0.1235074E+00
          4   -1    0    0  501    0  0.00000000000E+00  0.00000000000E+00  0.88754435160E+02  0.88763521002E+02  0.12700000000E+01 0.  1.
         -4   -1    0    0    0  501 -0.00000000000E+00 -0.00000000000E+00 -0.43989264614E+02  0.44007593678E+02  0.12700000000E+01 0.  1.
         25    2    1    2    0    0  0.00000000000E+00  0.00000000000E+00  0.44765170546E+02  0.13277111468E+03  0.12499699356E+03 0.  0.
    9000005    1    3    3    0    0  0.87732916814E+01 -0.57482039667E+02 -0.19299895784E+01  0.58188318337E+02  0.10000000000E+01 0.  0.
    9000005    1    3    3    0    0 -0.87732916814E+01  0.57482039667E+02  0.46695160124E+02  0.74582796342E+02  0.10000000000E+01 0.  0.
<mgrwt>
<rscale>  0 0.12499699E+03</rscale>
<asrwt>0</asrwt>
<pdfrwt beam="1">  1        4 0.13656637E-01 0.12499699E+03</pdfrwt>
<pdfrwt beam="2">  1       -4 0.67696881E-02 0.12499699E+03</pdfrwt>
<totfact> 0.10285964E+04</totfact>
</mgrwt>
</event>
<event>
 5    1  0.3286491E-002  0.1249997E+03  0.7818608E-02  0.1235070E+00
          4   -1    0    0  501    0  0.00000000000E+00  0.00000000000E+00  0.79641972836E+02  0.79652098134E+02  0.12700000000E+01 0. -1.
         -4   -1    0    0    0  501 -0.00000000000E+00 -0.00000000000E+00 -0.49025902283E+02  0.49042348992E+02  0.12700000000E+01 0. -1.
         25    2    1    2    0    0  0.00000000000E+00  0.00000000000E+00  0.30616070552E+02  0.12869444713E+03  0.12499966778E+03 0.  0.
    9000005    1    3    3    0    0 -0.47710875939E+02 -0.23914648171E+02  0.48780417840E+02  0.72310215355E+02  0.10000000000E+01 0.  0.
    9000005    1    3    3    0    0  0.47710875939E+02  0.23914648171E+02 -0.18164347288E+02  0.56384231771E+02  0.10000000000E+01 0.  0.
<mgrwt>
<rscale>  0 0.12499967E+03</rscale>
<asrwt>0</asrwt>
<pdfrwt beam="1">  1        4 0.12254655E-01 0.12499967E+03</pdfrwt>
<pdfrwt beam="2">  1       -4 0.75444906E-02 0.12499967E+03</pdfrwt>
<totfact> 0.10372595E+04</totfact>
</mgrwt>
</event>
<event>
 5    1  0.3286491E-002  0.1249882E+03  0.7818608E-02  0.1235088E+00
         -4   -1    0    0    0  501 -0.00000000000E+00  0.00000000000E+00  0.23195778805E+01  0.26444926817E+01  0.12700000000E+01 0. -1.
          4   -1    0    0  501    0  0.00000000000E+00 -0.00000000000E+00 -0.15731863083E+04  0.15731868210E+04  0.12700000000E+01 0. -1.
         25    2    1    2    0    0  0.00000000000E+00  0.00000000000E+00 -0.15708667305E+04  0.15758313136E+04  0.12498817622E+03 0.  0.
    9000005    1    3    3    0    0 -0.60678758401E+02 -0.30111639366E+01 -0.96966851944E+03  0.97157038675E+03  0.10000000000E+01 0.  0.
    9000005    1    3    3    0    0  0.60678758401E+02  0.30111639366E+01 -0.60119821101E+03  0.60426092688E+03  0.10000000000E+01 0.  0.
<mgrwt>
<rscale>  0 0.12498818E+03</rscale>
<asrwt>0</asrwt>
<pdfrwt beam="2">  1        4 0.24205290E+00 0.12498818E+03</pdfrwt>
<pdfrwt beam="1">  1       -4 0.38189227E-03 0.12498818E+03</pdfrwt>
<totfact> 0.16491373E+03</totfact>
</mgrwt>
</event>
<event>
 5    1  0.3286491E-002  0.1249946E+03  0.7818608E-02  0.1235078E+00
         -4   -1    0    0    0  501 -0.00000000000E+00  0.00000000000E+00  0.10709798943E+02  0.10784836272E+02  0.12700000000E+01 0.  1.
          4   -1    0    0  501    0  0.00000000000E+00 -0.00000000000E+00 -0.36335498806E+03  0.36335720751E+03  0.12700000000E+01 0.  1.
         25    2    1    2    0    0  0.00000000000E+00  0.00000000000E+00 -0.35264518912E+03  0.37414204378E+03  0.12499455795E+03 0.  0.
    9000005    1    3    3    0    0  0.49077050730E+02 -0.63185863062E+00 -0.60550340461E+02  0.77950624652E+02  0.10000000000E+01 0.  0.
    9000005    1    3    3    0    0 -0.49077050730E+02  0.63185863062E+00 -0.29209484866E+03  0.29619141913E+03  0.10000000000E+01 0.  0.
<mgrwt>
<rscale>  0 0.12499456E+03</rscale>
<asrwt>0</asrwt>
<pdfrwt beam="2">  1        4 0.55906701E-01 0.12499456E+03</pdfrwt>
<pdfrwt beam="1">  1       -4 0.16536045E-02 0.12499456E+03</pdfrwt>
<totfact> 0.67155899E+03</totfact>
</mgrwt>
</event>
<event>
 5    1  0.3286491E-002  0.1249984E+03  0.7818608E-02  0.1235072E+00
          4   -1    0    0  501    0  0.00000000000E+00  0.00000000000E+00  0.24238459736E+02  0.24271708436E+02  0.12700000000E+01 0. -1.
         -4   -1    0    0    0  501 -0.00000000000E+00 -0.00000000000E+00 -0.16100882490E+03  0.16101383355E+03  0.12700000000E+01 0. -1.
         25    2    1    2    0    0  0.00000000000E+00  0.00000000000E+00 -0.13677036516E+03  0.18528554199E+03  0.12499839712E+03 0.  0.
    9000005    1    3    3    0    0  0.14404707535E+02  0.37843304536E+02 -0.13893937316E+03  0.14472304831E+03  0.10000000000E+01 0.  0.
    9000005    1    3    3    0    0 -0.14404707535E+02 -0.37843304536E+02  0.21690080042E+01  0.40562493674E+02  0.10000000000E+01 0.  0.
<mgrwt>
<rscale>  0 0.12499840E+03</rscale>
<asrwt>0</asrwt>
<pdfrwt beam="1">  1        4 0.37319368E-02 0.12499840E+03</pdfrwt>
<pdfrwt beam="2">  1       -4 0.24773531E-01 0.12499840E+03</pdfrwt>
<totfact> 0.92677477E+03</totfact>
</mgrwt>
</event>
<event>
 5    1  0.3286491E-002  0.1249941E+03  0.7818608E-02  0.1235078E+00
         -4   -1    0    0    0  501 -0.00000000000E+00  0.00000000000E+00  0.26233372938E+03  0.26233680350E+03  0.12700000000E+01 0. -1.
          4   -1    0    0  501    0  0.00000000000E+00 -0.00000000000E+00 -0.14858736452E+02  0.14912912155E+02  0.12700000000E+01 0. -1.
         25    2    1    2    0    0  0.00000000000E+00  0.00000000000E+00  0.24747499293E+03  0.27724971565E+03  0.12499413069E+03 0.  0.
    9000005    1    3    3    0    0 -0.18119306926E+02 -0.54279104315E+02  0.68047997928E+02  0.88916030449E+02  0.10000000000E+01 0.  0.
    9000005    1    3    3    0    0  0.18119306926E+02  0.54279104315E+02  0.17942699500E+03  0.18833368520E+03  0.10000000000E+01 0.  0.
<mgrwt>
<rscale>  0 0.12499413E+03</rscale>
<asrwt>0</asrwt>
<pdfrwt beam="2">  1        4 0.22903632E-02 0.12499413E+03</pdfrwt>
<pdfrwt beam="1">  1       -4 0.40363441E-01 0.12499413E+03</pdfrwt>
<totfact> 0.78554439E+03</totfact>
</mgrwt>
</event>
<event>
 5    1  0.3286491E-002  0.1249934E+03  0.7818608E-02  0.1235080E+00
          4   -1    0    0  501    0  0.00000000000E+00  0.00000000000E+00  0.16810863987E+02  0.16858767689E+02  0.12700000000E+01 0. -1.
         -4   -1    0    0    0  501 -0.00000000000E+00 -0.00000000000E+00 -0.23195990956E+03  0.23196338621E+03  0.12700000000E+01 0. -1.
         25    2    1    2    0    0  0.00000000000E+00  0.00000000000E+00 -0.21514904557E+03  0.24882215390E+03  0.12499340967E+03 0.  0.
    9000005    1    3    3    0    0  0.22876915203E+02  0.51171869586E+02 -0.16255933517E+03  0.17195479329E+03  0.10000000000E+01 0.  0.
    9000005    1    3    3    0    0 -0.22876915203E+02 -0.51171869586E+02 -0.52589710403E+02  0.76867360606E+02  0.10000000000E+01 0.  0.
<mgrwt>
<rscale>  0 0.12499341E+03</rscale>
<asrwt>0</asrwt>
<pdfrwt beam="1">  1        4 0.25902393E-02 0.12499341E+03</pdfrwt>
<pdfrwt beam="2">  1       -4 0.35690090E-01 0.12499341E+03</pdfrwt>
<totfact> 0.82512877E+03</totfact>
</mgrwt>
</event>
<event>
 5    1  0.3286491E-002  0.1249961E+03  0.7818608E-02  0.1235075E+00
          4   -1    0    0  501    0  0.00000000000E+00  0.00000000000E+00  0.53573740538E+02  0.53588791507E+02  0.12700000000E+01 0.  1.
         -4   -1    0    0    0  501 -0.00000000000E+00 -0.00000000000E+00 -0.72878200519E+02  0.72889265402E+02  0.12700000000E+01 0.  1.
         25    2    1    2    0    0  0.00000000000E+00  0.00000000000E+00 -0.19304459981E+02  0.12647805691E+03  0.12499614676E+03 0.  0.
    9000005    1    3    3    0    0 -0.56865038361E+01 -0.37214321390E+02  0.40816621606E+02  0.55535922084E+02  0.10000000000E+01 0.  0.
    9000005    1    3    3    0    0  0.56865038361E+01  0.37214321390E+02 -0.60121081587E+02  0.70942134826E+02  0.10000000000E+01 0.  0.
<mgrwt>
<rscale>  0 0.12499615E+03</rscale>
<asrwt>0</asrwt>
<pdfrwt beam="1">  1        4 0.82441228E-02 0.12499615E+03</pdfrwt>
<pdfrwt beam="2">  1       -4 0.11214040E-01 0.12499615E+03</pdfrwt>
<totfact> 0.10421413E+04</totfact>
</mgrwt>
</event>
<event>
 5    1  0.3286491E-002  0.1250001E+03  0.7818608E-02  0.1235069E+00
         -4   -1    0    0    0  501 -0.00000000000E+00  0.00000000000E+00  0.38561718832E+02  0.38582626392E+02  0.12700000000E+01 0. -1.
          4   -1    0    0  501    0  0.00000000000E+00 -0.00000000000E+00 -0.10124647368E+03  0.10125443858E+03  0.12700000000E+01 0. -1.
         25    2    1    2    0    0  0.00000000000E+00  0.00000000000E+00 -0.62684754848E+02  0.13983706497E+03  0.12500010500E+03 0.  0.
    9000005    1    3    3    0    0 -0.21550769829E+02  0.25870667859E+02  0.27551706280E+02  0.43518084225E+02  0.10000000000E+01 0.  0.
    9000005    1    3    3    0    0  0.21550769829E+02 -0.25870667859E+02 -0.90236461128E+02  0.96318980750E+02  0.10000000000E+01 0.  0.
<mgrwt>
<rscale>  0 0.12500011E+03</rscale>
<asrwt>0</asrwt>
<pdfrwt beam="2">  1        4 0.15578601E-01 0.12500011E+03</pdfrwt>
<pdfrwt beam="1">  1       -4 0.59347932E-02 0.12500011E+03</pdfrwt>
<totfact> 0.10136940E+04</totfact>
</mgrwt>
</event>
<event>
 5    1  0.3286491E-002  0.1249983E+03  0.7818608E-02  0.1235072E+00
          4   -1    0    0  501    0  0.00000000000E+00  0.00000000000E+00  0.51912860647E+02  0.51928393010E+02  0.12700000000E+01 0. -1.
         -4   -1    0    0    0  501 -0.00000000000E+00 -0.00000000000E+00 -0.75212080035E+02  0.75222801618E+02  0.12700000000E+01 0. -1.
         25    2    1    2    0    0  0.00000000000E+00  0.00000000000E+00 -0.23299219388E+02  0.12715119463E+03  0.12499829067E+03 0.  0.
    9000005    1    3    3    0    0 -0.61677801048E+02  0.62506332131E+00 -0.14468369412E+01  0.61706038467E+02  0.10000000000E+01 0.  0.
    9000005    1    3    3    0    0  0.61677801048E+02 -0.62506332131E+00 -0.21852382447E+02  0.65445156160E+02  0.10000000000E+01 0.  0.
<mgrwt>
<rscale>  0 0.12499829E+03</rscale>
<asrwt>0</asrwt>
<pdfrwt beam="1">  1        4 0.79886135E-02 0.12499829E+03</pdfrwt>
<pdfrwt beam="2">  1       -4 0.11573109E-01 0.12499829E+03</pdfrwt>
<totfact> 0.10406264E+04</totfact>
</mgrwt>
</event>
<event>
 5    1  0.3286491E-002  0.1249974E+03  0.7818608E-02  0.1235073E+00
         -4   -1    0    0    0  501 -0.00000000000E+00  0.00000000000E+00  0.33587171795E+03  0.33587411900E+03  0.12700000000E+01 0. -1.
          4   -1    0    0  501    0  0.00000000000E+00 -0.00000000000E+00 -0.11592578059E+02  0.11661936634E+02  0.12700000000E+01 0. -1.
         25    2    1    2    0    0  0.00000000000E+00  0.00000000000E+00  0.32427913989E+03  0.34753605564E+03  0.12499739758E+03 0.  0.
    9000005    1    3    3    0    0  0.33898966357E+02  0.43405796704E+02  0.80042376425E+02  0.97164731931E+02  0.10000000000E+01 0.  0.
    9000005    1    3    3    0    0 -0.33898966357E+02 -0.43405796704E+02  0.24423676346E+03  0.25037132371E+03  0.10000000000E+01 0.  0.
<mgrwt>
<rscale>  0 0.12499740E+03</rscale>
<asrwt>0</asrwt>
<pdfrwt beam="2">  1        4 0.17889937E-02 0.12499740E+03</pdfrwt>
<pdfrwt beam="1">  1       -4 0.51678086E-01 0.12499740E+03</pdfrwt>
<totfact> 0.70000507E+03</totfact>
</mgrwt>
</event>
<event>
 5    1  0.3286491E-002  0.1249994E+03  0.7818608E-02  0.1235070E+00
          4   -1    0    0  501    0  0.00000000000E+00  0.00000000000E+00  0.67169177705E+03  0.67169297767E+03  0.12700000000E+01 0.  1.
         -4   -1    0    0    0  501 -0.00000000000E+00 -0.00000000000E+00 -0.57449285610E+01  0.58836301864E+01  0.12700000000E+01 0.  1.
         25    2    1    2    0    0  0.00000000000E+00  0.00000000000E+00  0.66594684849E+03  0.67757660786E+03  0.12499941803E+03 0.  0.
    9000005    1    3    3    0    0  0.18977736984E+02 -0.52454223009E+02  0.48567902576E+03  0.48887290380E+03  0.10000000000E+01 0.  0.
    9000005    1    3    3    0    0 -0.18977736984E+02  0.52454223009E+02  0.18026782273E+03  0.18870370406E+03  0.10000000000E+01 0.  0.
<mgrwt>
<rscale>  0 0.12499942E+03</rscale>
<asrwt>0</asrwt>
<pdfrwt beam="1">  1        4 0.10334800E+00 0.12499942E+03</pdfrwt>
<pdfrwt beam="2">  1       -4 0.89459648E-03 0.12499942E+03</pdfrwt>
<totfact> 0.44297674E+03</totfact>
</mgrwt>
</event>
<event>
 5    1  0.3286491E-002  0.1249970E+03  0.7818608E-02  0.1235074E+00
         -4   -1    0    0    0  501 -0.00000000000E+00  0.00000000000E+00  0.42167425893E+03  0.42167617142E+03  0.12700000000E+01 0. -1.
          4   -1    0    0  501    0  0.00000000000E+00 -0.00000000000E+00 -0.92177473555E+01  0.93048248941E+01  0.12700000000E+01 0. -1.
         25    2    1    2    0    0  0.00000000000E+00  0.00000000000E+00  0.41245651157E+03  0.43098099631E+03  0.12499698094E+03 0.  0.
    9000005    1    3    3    0    0  0.91754366188E+01  0.42855934765E+02  0.52640758116E+02  0.68504519536E+02  0.10000000000E+01 0.  0.
    9000005    1    3    3    0    0 -0.91754366188E+01 -0.42855934765E+02  0.35981575346E+03  0.36247647678E+03  0.10000000000E+01 0.  0.
<mgrwt>
<rscale>  0 0.12499698E+03</rscale>
<asrwt>0</asrwt>
<pdfrwt beam="2">  1        4 0.14249601E-02 0.12499698E+03</pdfrwt>
<pdfrwt beam="1">  1       -4 0.64879822E-01 0.12499698E+03</pdfrwt>
<totfact> 0.61651264E+03</totfact>
</mgrwt>
</event>
<event>
 5    1  0.3286491E-002  0.1250015E+03  0.7818608E-02  0.1235067E+00
          4   -1    0    0  501    0  0.00000000000E+00  0.00000000000E+00  0.64530180388E+01  0.65768033123E+01  0.12700000000E+01 0.  1.
         -4   -1    0    0    0  501 -0.00000000000E+00 -0.00000000000E+00 -0.59947575974E+03  0.59947710499E+03  0.12700000000E+01 0.  1.
         25    2    1    2    0    0  0.00000000000E+00  0.00000000000E+00 -0.59302274170E+03  0.60605390830E+03  0.12500147040E+03 0.  0.
    9000005    1    3    3    0    0  0.11695118111E+02  0.56579869477E+02 -0.18103407995E+03  0.19003261700E+03  0.10000000000E+01 0.  0.
    9000005    1    3    3    0    0 -0.11695118111E+02 -0.56579869477E+02 -0.41198866174E+03  0.41602129131E+03  0.10000000000E+01 0.  0.
<mgrwt>
<rscale>  0 0.12500147E+03</rscale>
<asrwt>0</asrwt>
<pdfrwt beam="1">  1        4 0.10023979E-02 0.12500147E+03</pdfrwt>
<pdfrwt beam="2">  1       -4 0.92236622E-01 0.12500147E+03</pdfrwt>
<totfact> 0.48486140E+03</totfact>
</mgrwt>
</event>
<event>
 5    1  0.3286491E-002  0.1249902E+03  0.7818608E-02  0.1235085E+00
          4   -1    0    0  501    0  0.00000000000E+00  0.00000000000E+00  0.26905304242E+02  0.26935261208E+02  0.12700000000E+01 0.  1.
         -4   -1    0    0    0  501 -0.00000000000E+00 -0.00000000000E+00 -0.14504881042E+03  0.14505437016E+03  0.12700000000E+01 0.  1.
         25    2    1    2    0    0  0.00000000000E+00  0.00000000000E+00 -0.11814350618E+03  0.17198963137E+03  0.12499018060E+03 0.  0.
    9000005    1    3    3    0    0 -0.60664625110E+02  0.13861305079E+02 -0.66892588283E+02  0.91367121468E+02  0.10000000000E+01 0.  0.
    9000005    1    3    3    0    0  0.60664625110E+02 -0.13861305079E+02 -0.51250917893E+02  0.80622509903E+02  0.10000000000E+01 0.  0.
<mgrwt>
<rscale>  0 0.12499018E+03</rscale>
<asrwt>0</asrwt>
<pdfrwt beam="1">  1        4 0.41420097E-02 0.12499018E+03</pdfrwt>
<pdfrwt beam="2">  1       -4 0.22317933E-01 0.12499018E+03</pdfrwt>
<totfact> 0.95100046E+03</totfact>
</mgrwt>
</event>
<event>
 5    1  0.3286491E-002  0.1249997E+03  0.7818608E-02  0.1235070E+00
          4   -1    0    0  501    0  0.00000000000E+00  0.00000000000E+00  0.92743609709E+02  0.92752304779E+02  0.12700000000E+01 0.  1.
         -4   -1    0    0    0  501 -0.00000000000E+00 -0.00000000000E+00 -0.42098329103E+02  0.42117481089E+02  0.12700000000E+01 0.  1.
         25    2    1    2    0    0  0.00000000000E+00  0.00000000000E+00  0.50645280606E+02  0.13486978587E+03  0.12499965877E+03 0.  0.
    9000005    1    3    3    0    0  0.59991832203E+02 -0.19565031187E+01  0.44084806269E+02  0.74480319409E+02  0.10000000000E+01 0.  0.
    9000005    1    3    3    0    0 -0.59991832203E+02  0.19565031187E+01  0.65604743371E+01  0.60389466458E+02  0.10000000000E+01 0.  0.
<mgrwt>
<rscale>  0 0.12499966E+03</rscale>
<asrwt>0</asrwt>
<pdfrwt beam="1">  1        4 0.14270390E-01 0.12499966E+03</pdfrwt>
<pdfrwt beam="2">  1       -4 0.64788081E-02 0.12499966E+03</pdfrwt>
<totfact> 0.10240895E+04</totfact>
</mgrwt>
</event>
<event>
 5    1  0.3286491E-002  0.1250008E+03  0.7818608E-02  0.1235068E+00
         -4   -1    0    0    0  501 -0.00000000000E+00  0.00000000000E+00  0.17768439803E+03  0.17768893664E+03  0.12700000000E+01 0.  1.
          4   -1    0    0  501    0  0.00000000000E+00 -0.00000000000E+00 -0.21961333922E+02  0.21998024630E+02  0.12700000000E+01 0.  1.
         25    2    1    2    0    0  0.00000000000E+00  0.00000000000E+00  0.15572306411E+03  0.19968696127E+03  0.12500083922E+03 0.  0.
    9000005    1    3    3    0    0  0.16679196351E+02  0.54803843979E+02  0.37967705813E+02  0.68732842153E+02  0.10000000000E+01 0.  0.
    9000005    1    3    3    0    0 -0.16679196351E+02 -0.54803843979E+02  0.11775535830E+03  0.13095411912E+03  0.10000000000E+01 0.  0.
<mgrwt>
<rscale>  0 0.12500084E+03</rscale>
<asrwt>0</asrwt>
<pdfrwt beam="2">  1        4 0.33818382E-02 0.12500084E+03</pdfrwt>
<pdfrwt beam="1">  1       -4 0.27339233E-01 0.12500084E+03</pdfrwt>
<totfact> 0.90186635E+03</totfact>
</mgrwt>
</event>
<event>
 5    1  0.3286491E-002  0.1249990E+03  0.7818608E-02  0.1235071E+00
         -4   -1    0    0    0  501 -0.00000000000E+00  0.00000000000E+00  0.11171144231E+02  0.11243102927E+02  0.12700000000E+01 0.  1.
          4   -1    0    0  501    0  0.00000000000E+00 -0.00000000000E+00 -0.34847175509E+03  0.34847406933E+03  0.12700000000E+01 0.  1.
         25    2    1    2    0    0  0.00000000000E+00  0.00000000000E+00 -0.33730061086E+03  0.35971717226E+03  0.12499896772E+03 0.  0.
    9000005    1    3    3    0    0  0.22528038316E+01  0.62134940887E+02 -0.15059605710E+03  0.16292942772E+03  0.10000000000E+01 0.  0.
    9000005    1    3    3    0    0 -0.22528038316E+01 -0.62134940887E+02 -0.18670455376E+03  0.19678774454E+03  0.10000000000E+01 0.  0.
<mgrwt>
<rscale>  0 0.12499897E+03</rscale>
<asrwt>0</asrwt>
<pdfrwt beam="2">  1        4 0.53616744E-01 0.12499897E+03</pdfrwt>
<pdfrwt beam="1">  1       -4 0.17243511E-02 0.12499897E+03</pdfrwt>
<totfact> 0.68670185E+03</totfact>
</mgrwt>
</event>
<event>
 5    1  0.3286491E-002  0.1250040E+03  0.7818608E-02  0.1235063E+00
         -4   -1    0    0    0  501 -0.00000000000E+00  0.00000000000E+00  0.14248280505E+04  0.14248286165E+04  0.12700000000E+01 0.  1.
          4   -1    0    0  501    0  0.00000000000E+00 -0.00000000000E+00 -0.25940658828E+01  0.28882655357E+01  0.12700000000E+01 0.  1.
         25    2    1    2    0    0  0.00000000000E+00  0.00000000000E+00  0.14222339846E+04  0.14277168820E+04  0.12500395291E+03 0.  0.
    9000005    1    3    3    0    0 -0.45515970824E+01  0.51846034975E+02  0.11062319366E+04  0.11074560153E+04  0.10000000000E+01 0.  0.
    9000005    1    3    3    0    0  0.45515970824E+01 -0.51846034975E+02  0.31600204801E+03  0.32026086668E+03  0.10000000000E+01 0.  0.
<mgrwt>
<rscale>  0 0.12500395E+03</rscale>
<asrwt>0</asrwt>
<pdfrwt beam="2">  1        4 0.42176038E-03 0.12500395E+03</pdfrwt>
<pdfrwt beam="1">  1       -4 0.21922749E+00 0.12500395E+03</pdfrwt>
<totfact> 0.19392097E+03</totfact>
</mgrwt>
</event>
<event>
 5    1  0.3286491E-002  0.1249997E+03  0.7818608E-02  0.1235070E+00
         -4   -1    0    0    0  501 -0.00000000000E+00  0.00000000000E+00  0.23940252957E+02  0.23973915234E+02  0.12700000000E+01 0. -1.
          4   -1    0    0  501    0  0.00000000000E+00 -0.00000000000E+00 -0.16301508378E+03  0.16302003079E+03  0.12700000000E+01 0. -1.
         25    2    1    2    0    0  0.00000000000E+00  0.00000000000E+00 -0.13907483082E+03  0.18699394603E+03  0.12499970913E+03 0.  0.
    9000005    1    3    3    0    0 -0.40902828096E+02 -0.46783652089E+02 -0.79401690318E+02  0.10083342637E+03  0.10000000000E+01 0.  0.
    9000005    1    3    3    0    0  0.40902828096E+02  0.46783652089E+02 -0.59673140504E+02  0.86160519651E+02  0.10000000000E+01 0.  0.
<mgrwt>
<rscale>  0 0.12499971E+03</rscale>
<asrwt>0</asrwt>
<pdfrwt beam="2">  1        4 0.25082213E-01 0.12499971E+03</pdfrwt>
<pdfrwt beam="1">  1       -4 0.36860859E-02 0.12499971E+03</pdfrwt>
<totfact> 0.92373607E+03</totfact>
</mgrwt>
</event>
<event>
 4    1  0.3286491E-002  0.1253684E+03  0.7818608E-02  0.1234495E+00
         -4   -1    0    0    0  501 -0.00000000000E+00  0.00000000000E+00  0.16588027775E+02  0.16636573129E+02  0.12700000000E+01 0. -1.
          4   -1    0    0  501    0  0.00000000000E+00 -0.00000000000E+00 -0.23647970625E+03  0.23648311645E+03  0.12700000000E+01 0. -1.
    9000005    1    1    2    0    0 -0.58219740543E+02 -0.21938188881E+02 -0.94638028888E+02  0.11326155055E+03  0.10000000000E+01 0.  0.
    9000005    1    1    2    0    0  0.58219740543E+02  0.21938188881E+02 -0.12525364959E+03  0.13985813904E+03  0.10000000000E+01 0.  0.
<mgrwt>
<rscale>  0 0.12536837E+03</rscale>
<asrwt>0</asrwt>
<pdfrwt beam="2">  1        4 0.36385488E-01 0.12536837E+03</pdfrwt>
<pdfrwt beam="1">  1       -4 0.25560010E-02 0.12536837E+03</pdfrwt>
<totfact> 0.81213282E+03</totfact>
</mgrwt>
</event>
<event>
 5    1  0.3286491E-002  0.1249998E+03  0.7818608E-02  0.1235070E+00
         -4   -1    0    0    0  501 -0.00000000000E+00  0.00000000000E+00  0.44832133979E+01  0.46596247028E+01  0.12700000000E+01 0. -1.
          4   -1    0    0  501    0  0.00000000000E+00 -0.00000000000E+00 -0.85431384180E+03  0.85431478578E+03  0.12700000000E+01 0. -1.
         25    2    1    2    0    0  0.00000000000E+00  0.00000000000E+00 -0.84983062841E+03  0.85897441048E+03  0.12499976353E+03 0.  0.
    9000005    1    3    3    0    0  0.34316352183E+02  0.59786221202E+01 -0.68383061091E+02  0.76750237744E+02  0.10000000000E+01 0.  0.
    9000005    1    3    3    0    0 -0.34316352183E+02 -0.59786221202E+01 -0.78144756731E+03  0.78222417274E+03  0.10000000000E+01 0.  0.
<mgrwt>
<rscale>  0 0.12499976E+03</rscale>
<asrwt>0</asrwt>
<pdfrwt beam="2">  1        4 0.13144641E+00 0.12499976E+03</pdfrwt>
<pdfrwt beam="1">  1       -4 0.70336853E-03 0.12499976E+03</pdfrwt>
<totfact> 0.35763088E+03</totfact>
</mgrwt>
</event>
<event>
 5    1  0.3286491E-002  0.1249995E+03  0.7818608E-02  0.1235070E+00
          4   -1    0    0  501    0  0.00000000000E+00  0.00000000000E+00  0.78815608443E+01  0.79832262489E+01  0.12700000000E+01 0. -1.
         -4   -1    0    0    0  501 -0.00000000000E+00 -0.00000000000E+00 -0.49233642054E+03  0.49233805854E+03  0.12700000000E+01 0. -1.
         25    2    1    2    0    0  0.00000000000E+00  0.00000000000E+00 -0.48445485970E+03  0.50032128479E+03  0.12499950773E+03 0.  0.
    9000005    1    3    3    0    0 -0.75657112841E+01 -0.59773381277E+02 -0.17583731127E+03  0.18587591864E+03  0.10000000000E+01 0.  0.
    9000005    1    3    3    0    0  0.75657112841E+01  0.59773381277E+02 -0.30861754843E+03  0.31444536615E+03  0.10000000000E+01 0.  0.
<mgrwt>
<rscale>  0 0.12499951E+03</rscale>
<asrwt>0</asrwt>
<pdfrwt beam="1">  1        4 0.12204946E-02 0.12499951E+03</pdfrwt>
<pdfrwt beam="2">  1       -4 0.75751987E-01 0.12499951E+03</pdfrwt>
<totfact> 0.55840062E+03</totfact>
</mgrwt>
</event>
<event>
 5    1  0.3286491E-002  0.1250020E+03  0.7818608E-02  0.1235066E+00
         -4   -1    0    0    0  501 -0.00000000000E+00  0.00000000000E+00  0.28032358565E+02  0.28061112358E+02  0.12700000000E+01 0. -1.
          4   -1    0    0  501    0  0.00000000000E+00 -0.00000000000E+00 -0.13924920069E+03  0.13925499198E+03  0.12700000000E+01 0. -1.
         25    2    1    2    0    0  0.00000000000E+00  0.00000000000E+00 -0.11121684212E+03  0.16731610434E+03  0.12500197119E+03 0.  0.
    9000005    1    3    3    0    0 -0.40853242781E+02  0.17932003986E+02 -0.11417985809E+03  0.12259112613E+03  0.10000000000E+01 0.  0.
    9000005    1    3    3    0    0  0.40853242781E+02 -0.17932003986E+02  0.29630159619E+01  0.44724978215E+02  0.10000000000E+01 0.  0.
<mgrwt>
<rscale>  0 0.12500197E+03</rscale>
<asrwt>0</asrwt>
<pdfrwt beam="2">  1        4 0.21425611E-01 0.12500197E+03</pdfrwt>
<pdfrwt beam="1">  1       -4 0.43153279E-02 0.12500197E+03</pdfrwt>
<totfact> 0.95946301E+03</totfact>
</mgrwt>
</event>
<event>
 5    1  0.3286491E-002  0.1249739E+03  0.7818608E-02  0.1235110E+00
          4   -1    0    0  501    0  0.00000000000E+00  0.00000000000E+00  0.24232805320E+02  0.24266061767E+02  0.12700000000E+01 0. -1.
         -4   -1    0    0    0  501 -0.00000000000E+00 -0.00000000000E+00 -0.16098328133E+03  0.16098829078E+03  0.12700000000E+01 0. -1.
         25    2    1    2    0    0  0.00000000000E+00  0.00000000000E+00 -0.13675047601E+03  0.18525435255E+03  0.12497392707E+03 0.  0.
    9000005    1    3    3    0    0  0.39387781431E+02 -0.43287882938E+02 -0.10079700162E+03  0.11656017189E+03  0.10000000000E+01 0.  0.
    9000005    1    3    3    0    0 -0.39387781431E+02  0.43287882938E+02 -0.35953474388E+02  0.68694180655E+02  0.10000000000E+01 0.  0.
<mgrwt>
<rscale>  0 0.12497393E+03</rscale>
<asrwt>0</asrwt>
<pdfrwt beam="1">  1        4 0.37310675E-02 0.12497393E+03</pdfrwt>
<pdfrwt beam="2">  1       -4 0.24769601E-01 0.12497393E+03</pdfrwt>
<totfact> 0.92733836E+03</totfact>
</mgrwt>
</event>
<event>
 5    1  0.3286491E-002  0.1249994E+03  0.7818608E-02  0.1235070E+00
          4   -1    0    0  501    0  0.00000000000E+00  0.00000000000E+00  0.37912537298E+01  0.39983127496E+01  0.12700000000E+01 0.  1.
         -4   -1    0    0    0  501 -0.00000000000E+00 -0.00000000000E+00 -0.10027274931E+04  0.10027282974E+04  0.12700000000E+01 0.  1.
         25    2    1    2    0    0  0.00000000000E+00  0.00000000000E+00 -0.99893623939E+03  0.10067266101E+04  0.12499942867E+03 0.  0.
    9000005    1    3    3    0    0 -0.28240946971E+02 -0.33738786904E+01 -0.94761837107E+03  0.94804562724E+03  0.10000000000E+01 0.  0.
    9000005    1    3    3    0    0  0.28240946971E+02  0.33738786904E+01 -0.51317868319E+02  0.58680982882E+02  0.10000000000E+01 0.  0.
<mgrwt>
<rscale>  0 0.12499943E+03</rscale>
<asrwt>0</asrwt>
<pdfrwt beam="1">  1        4 0.59926009E-03 0.12499943E+03</pdfrwt>
<pdfrwt beam="2">  1       -4 0.15428155E+00 0.12499943E+03</pdfrwt>
<totfact> 0.30383830E+03</totfact>
</mgrwt>
</event>
<event>
 5    1  0.3286491E-002  0.1249965E+03  0.7818608E-02  0.1235075E+00
         -4   -1    0    0    0  501 -0.00000000000E+00  0.00000000000E+00  0.65579134974E+03  0.65579257948E+03  0.12700000000E+01 0.  1.
          4   -1    0    0  501    0  0.00000000000E+00 -0.00000000000E+00 -0.58872611814E+01  0.60226857977E+01  0.12700000000E+01 0.  1.
         25    2    1    2    0    0  0.00000000000E+00  0.00000000000E+00  0.64990408856E+03  0.66181526527E+03  0.12499648404E+03 0.  0.
    9000005    1    3    3    0    0  0.66886000405E+01  0.56953326960E+02  0.45642752570E+03  0.46001685299E+03  0.10000000000E+01 0.  0.
    9000005    1    3    3    0    0 -0.66886000405E+01 -0.56953326960E+02  0.19347656286E+03  0.20179841228E+03  0.10000000000E+01 0.  0.
<mgrwt>
<rscale>  0 0.12499648E+03</rscale>
<asrwt>0</asrwt>
<pdfrwt beam="2">  1        4 0.91624458E-03 0.12499648E+03</pdfrwt>
<pdfrwt beam="1">  1       -4 0.10090147E+00 0.12499648E+03</pdfrwt>
<totfact> 0.45183877E+03</totfact>
</mgrwt>
</event>
<event>
 5    1  0.3286491E-002  0.1250021E+03  0.7818608E-02  0.1235066E+00
         -4   -1    0    0    0  501 -0.00000000000E+00  0.00000000000E+00  0.38933800960E+02  0.38954508817E+02  0.12700000000E+01 0.  1.
          4   -1    0    0  501    0  0.00000000000E+00 -0.00000000000E+00 -0.10028257971E+03  0.10029062117E+03  0.12700000000E+01 0.  1.
         25    2    1    2    0    0  0.00000000000E+00  0.00000000000E+00 -0.61348778753E+02  0.13924512998E+03  0.12500213426E+03 0.  0.
    9000005    1    3    3    0    0 -0.28327479597E+02  0.44389911906E+02 -0.68161029553E+02  0.86138471829E+02  0.10000000000E+01 0.  0.
    9000005    1    3    3    0    0  0.28327479597E+02 -0.44389911906E+02  0.68122508000E+01  0.53106658154E+02  0.10000000000E+01 0.  0.
<mgrwt>
<rscale>  0 0.12500213E+03</rscale>
<asrwt>0</asrwt>
<pdfrwt beam="2">  1        4 0.15430301E-01 0.12500213E+03</pdfrwt>
<pdfrwt beam="1">  1       -4 0.59920271E-02 0.12500213E+03</pdfrwt>
<totfact> 0.10148767E+04</totfact>
</mgrwt>
</event>
<event>
 5    1  0.3286491E-002  0.1249992E+03  0.7818608E-02  0.1235070E+00
         -4   -1    0    0    0  501 -0.00000000000E+00  0.00000000000E+00  0.43837949128E+02  0.43856341431E+02  0.12700000000E+01 0.  1.
          4   -1    0    0  501    0  0.00000000000E+00 -0.00000000000E+00 -0.89063901352E+02  0.89072955626E+02  0.12700000000E+01 0.  1.
         25    2    1    2    0    0  0.00000000000E+00  0.00000000000E+00 -0.45225952224E+02  0.13292929706E+03  0.12499924504E+03 0.  0.
    9000005    1    3    3    0    0  0.59288056040E+02 -0.18189228995E+02 -0.30800860837E+02  0.69250376668E+02  0.10000000000E+01 0.  0.
    9000005    1    3    3    0    0 -0.59288056040E+02  0.18189228995E+02 -0.14425091387E+02  0.63678920389E+02  0.10000000000E+01 0.  0.
<mgrwt>
<rscale>  0 0.12499925E+03</rscale>
<asrwt>0</asrwt>
<pdfrwt beam="2">  1        4 0.13704250E-01 0.12499925E+03</pdfrwt>
<pdfrwt beam="1">  1       -4 0.67464112E-02 0.12499925E+03</pdfrwt>
<totfact> 0.10282078E+04</totfact>
</mgrwt>
</event>
<event>
 5    1  0.3286491E-002  0.1250001E+03  0.7818608E-02  0.1235069E+00
         -4   -1    0    0    0  501 -0.00000000000E+00  0.00000000000E+00  0.80993719619E+02  0.81003675952E+02  0.12700000000E+01 0.  1.
          4   -1    0    0  501    0  0.00000000000E+00 -0.00000000000E+00 -0.48207868484E+02  0.48224594179E+02  0.12700000000E+01 0.  1.
         25    2    1    2    0    0  0.00000000000E+00  0.00000000000E+00  0.32785851135E+02  0.12922827013E+03  0.12500013507E+03 0.  0.
    9000005    1    3    3    0    0  0.57735701357E+02  0.23398428840E+02  0.11290314699E+02  0.63319577457E+02  0.10000000000E+01 0.  0.
    9000005    1    3    3    0    0 -0.57735701357E+02 -0.23398428840E+02  0.21495536436E+02  0.65908692674E+02  0.10000000000E+01 0.  0.
<mgrwt>
<rscale>  0 0.12500014E+03</rscale>
<asrwt>0</asrwt>
<pdfrwt beam="2">  1        4 0.74186476E-02 0.12500014E+03</pdfrwt>
<pdfrwt beam="1">  1       -4 0.12462625E-01 0.12500014E+03</pdfrwt>
<totfact> 0.10361013E+04</totfact>
</mgrwt>
</event>
<event>
 5    1  0.3286491E-002  0.1249949E+03  0.7818608E-02  0.1235077E+00
         -4   -1    0    0    0  501 -0.00000000000E+00  0.00000000000E+00  0.10885152655E+03  0.10885893501E+03  0.12700000000E+01 0. -1.
          4   -1    0    0  501    0  0.00000000000E+00 -0.00000000000E+00 -0.35863220311E+02  0.35885700091E+02  0.12700000000E+01 0. -1.
         25    2    1    2    0    0  0.00000000000E+00  0.00000000000E+00  0.72988306235E+02  0.14474463510E+03  0.12499486607E+03 0.  0.
    9000005    1    3    3    0    0  0.85593183792E+00  0.11017719976E+01  0.10883916772E+03  0.10885270300E+03  0.10000000000E+01 0.  0.
    9000005    1    3    3    0    0 -0.85593183792E+00 -0.11017719976E+01 -0.35850861483E+02  0.35891932101E+02  0.10000000000E+01 0.  0.
<mgrwt>
<rscale>  0 0.12499487E+03</rscale>
<asrwt>0</asrwt>
<pdfrwt beam="2">  1        4 0.55197176E-02 0.12499487E+03</pdfrwt>
<pdfrwt beam="1">  1       -4 0.16748688E-01 0.12499487E+03</pdfrwt>
<totfact> 0.10037340E+04</totfact>
</mgrwt>
</event>
<event>
 5    1  0.3286491E-002  0.1250004E+03  0.7818608E-02  0.1235069E+00
         -4   -1    0    0    0  501 -0.00000000000E+00  0.00000000000E+00  0.34250056674E+03  0.34250292133E+03  0.12700000000E+01 0.  1.
          4   -1    0    0  501    0  0.00000000000E+00 -0.00000000000E+00 -0.11367414952E+02  0.11438138952E+02  0.12700000000E+01 0.  1.
         25    2    1    2    0    0  0.00000000000E+00  0.00000000000E+00  0.33113315179E+03  0.35394106028E+03  0.12500043975E+03 0.  0.
    9000005    1    3    3    0    0 -0.34872712014E+02 -0.39085006758E+02  0.26206835316E+03  0.26725374745E+03  0.10000000000E+01 0.  0.
    9000005    1    3    3    0    0  0.34872712014E+02  0.39085006758E+02  0.69064798630E+02  0.86687312833E+02  0.10000000000E+01 0.  0.
<mgrwt>
<rscale>  0 0.12500044E+03</rscale>
<asrwt>0</asrwt>
<pdfrwt beam="2">  1        4 0.17544545E-02 0.12500044E+03</pdfrwt>
<pdfrwt beam="1">  1       -4 0.52698015E-01 0.12500044E+03</pdfrwt>
<totfact> 0.69292481E+03</totfact>
</mgrwt>
</event>
<event>
 5    1  0.3286491E-002  0.1250039E+03  0.7818608E-02  0.1235063E+00
         -4   -1    0    0    0  501 -0.00000000000E+00  0.00000000000E+00  0.16222158735E+03  0.16222655856E+03  0.12700000000E+01 0.  1.
          4   -1    0    0  501    0  0.00000000000E+00 -0.00000000000E+00 -0.24059115251E+02  0.24092611454E+02  0.12700000000E+01 0.  1.
         25    2    1    2    0    0  0.00000000000E+00  0.00000000000E+00  0.13816247210E+03  0.18631917002E+03  0.12500385761E+03 0.  0.
    9000005    1    3    3    0    0  0.36955317014E+02  0.48962758235E+02  0.51292047544E+02  0.79968251768E+02  0.10000000000E+01 0.  0.
    9000005    1    3    3    0    0 -0.36955317014E+02 -0.48962758235E+02  0.86870424556E+02  0.10635091825E+03  0.10000000000E+01 0.  0.
<mgrwt>
<rscale>  0 0.12500386E+03</rscale>
<asrwt>0</asrwt>
<pdfrwt beam="2">  1        4 0.37043613E-02 0.12500386E+03</pdfrwt>
<pdfrwt beam="1">  1       -4 0.24960127E-01 0.12500386E+03</pdfrwt>
<totfact> 0.92483745E+03</totfact>
</mgrwt>
</event>
<event>
 5    1  0.3286491E-002  0.1249880E+03  0.7818608E-02  0.1235088E+00
          4   -1    0    0  501    0  0.00000000000E+00  0.00000000000E+00  0.10017508374E+03  0.10018313382E+03  0.12700000000E+01 0.  1.
         -4   -1    0    0    0  501 -0.00000000000E+00 -0.00000000000E+00 -0.38966773961E+02  0.38987464305E+02  0.12700000000E+01 0.  1.
         25    2    1    2    0    0  0.00000000000E+00  0.00000000000E+00  0.61208309777E+02  0.13917059812E+03  0.12498799221E+03 0.  0.
    9000005    1    3    3    0    0  0.28918869200E+02 -0.32447459985E+02  0.80590987145E+02  0.91569896059E+02  0.10000000000E+01 0.  0.
    9000005    1    3    3    0    0 -0.28918869200E+02  0.32447459985E+02 -0.19382677368E+02  0.47600702066E+02  0.10000000000E+01 0.  0.
<mgrwt>
<rscale>  0 0.12498799E+03</rscale>
<asrwt>0</asrwt>
<pdfrwt beam="1">  1        4 0.15413762E-01 0.12498799E+03</pdfrwt>
<pdfrwt beam="2">  1       -4 0.59970992E-02 0.12498799E+03</pdfrwt>
<totfact> 0.10153551E+04</totfact>
</mgrwt>
</event>
<event>
 5    1  0.3286491E-002  0.1250001E+03  0.7818608E-02  0.1235069E+00
         -4   -1    0    0    0  501 -0.00000000000E+00  0.00000000000E+00  0.99560688481E+01  0.10036742844E+02  0.12700000000E+01 0. -1.
          4   -1    0    0  501    0  0.00000000000E+00 -0.00000000000E+00 -0.39068424416E+03  0.39068630836E+03  0.12700000000E+01 0. -1.
         25    2    1    2    0    0  0.00000000000E+00  0.00000000000E+00 -0.38072817531E+03  0.40072305120E+03  0.12500008114E+03 0.  0.
    9000005    1    3    3    0    0 -0.15699727505E+02  0.45480064144E+02 -0.62520583562E+02  0.78897028127E+02  0.10000000000E+01 0.  0.
    9000005    1    3    3    0    0  0.15699727505E+02 -0.45480064144E+02 -0.31820759175E+03  0.32182602307E+03  0.10000000000E+01 0.  0.
<mgrwt>
<rscale>  0 0.12500008E+03</rscale>
<asrwt>0</asrwt>
<pdfrwt beam="2">  1        4 0.60111621E-01 0.12500008E+03</pdfrwt>
<pdfrwt beam="1">  1       -4 0.15380677E-02 0.12500008E+03</pdfrwt>
<totfact> 0.64482417E+03</totfact>
</mgrwt>
</event>
<event>
 5    1  0.3286491E-002  0.1249897E+03  0.7818608E-02  0.1235085E+00
          4   -1    0    0  501    0  0.00000000000E+00  0.00000000000E+00  0.39430763775E+02  0.39451210778E+02  0.12700000000E+01 0.  1.
         -4   -1    0    0    0  501 -0.00000000000E+00 -0.00000000000E+00 -0.98999486619E+02  0.99007632285E+02  0.12700000000E+01 0.  1.
         25    2    1    2    0    0  0.00000000000E+00  0.00000000000E+00 -0.59568722844E+02  0.13845884306E+03  0.12498967350E+03 0.  0.
    9000005    1    3    3    0    0 -0.25549629707E+02  0.24523445570E+02  0.27245727772E+02  0.44693541397E+02  0.10000000000E+01 0.  0.
    9000005    1    3    3    0    0  0.25549629707E+02 -0.24523445570E+02 -0.86814450616E+02  0.93765301666E+02  0.10000000000E+01 0.  0.
<mgrwt>
<rscale>  0 0.12498967E+03</rscale>
<asrwt>0</asrwt>
<pdfrwt beam="1">  1        4 0.60684708E-02 0.12498967E+03</pdfrwt>
<pdfrwt beam="2">  1       -4 0.15232890E-01 0.12498967E+03</pdfrwt>
<totfact> 0.10167993E+04</totfact>
</mgrwt>
</event>
<event>
 5    1  0.3286491E-002  0.1249992E+03  0.7818608E-02  0.1235071E+00
         -4   -1    0    0    0  501 -0.00000000000E+00  0.00000000000E+00  0.29110963994E+03  0.29111241019E+03  0.12700000000E+01 0.  1.
          4   -1    0    0  501    0  0.00000000000E+00 -0.00000000000E+00 -0.13385413748E+02  0.13445527182E+02  0.12700000000E+01 0.  1.
         25    2    1    2    0    0  0.00000000000E+00  0.00000000000E+00  0.27772422619E+03  0.30455793737E+03  0.12499916560E+03 0.  0.
    9000005    1    3    3    0    0 -0.53379364845E+01 -0.52365663789E+02  0.56794271890E+02  0.77441885499E+02  0.10000000000E+01 0.  0.
    9000005    1    3    3    0    0  0.53379364845E+01  0.52365663789E+02  0.22092995430E+03  0.22711605187E+03  0.10000000000E+01 0.  0.
<mgrwt>
<rscale>  0 0.12499917E+03</rscale>
<asrwt>0</asrwt>
<pdfrwt beam="2">  1        4 0.20641316E-02 0.12499917E+03</pdfrwt>
<pdfrwt beam="1">  1       -4 0.44790937E-01 0.12499917E+03</pdfrwt>
<totfact> 0.75032020E+03</totfact>
</mgrwt>
</event>
<event>
 5    1  0.3286491E-002  0.1249966E+03  0.7818608E-02  0.1235075E+00
          4   -1    0    0  501    0  0.00000000000E+00  0.00000000000E+00  0.11433093977E+02  0.11503414184E+02  0.12700000000E+01 0.  1.
         -4   -1    0    0    0  501 -0.00000000000E+00 -0.00000000000E+00 -0.34052440774E+03  0.34052677599E+03  0.12700000000E+01 0.  1.
         25    2    1    2    0    0  0.00000000000E+00  0.00000000000E+00 -0.32909131376E+03  0.35203019017E+03  0.12499664796E+03 0.  0.
    9000005    1    3    3    0    0 -0.40513038054E+02  0.45016383878E+02 -0.12116528355E+03  0.13546145949E+03  0.10000000000E+01 0.  0.
    9000005    1    3    3    0    0  0.40513038054E+02 -0.45016383878E+02 -0.20792603021E+03  0.21656873068E+03  0.10000000000E+01 0.  0.
<mgrwt>
<rscale>  0 0.12499665E+03</rscale>
<asrwt>0</asrwt>
<pdfrwt beam="1">  1        4 0.17645292E-02 0.12499665E+03</pdfrwt>
<pdfrwt beam="2">  1       -4 0.52393954E-01 0.12499665E+03</pdfrwt>
<totfact> 0.69506945E+03</totfact>
</mgrwt>
</event>
<event>
 5    1  0.3286491E-002  0.1249991E+03  0.7818608E-02  0.1235071E+00
          4   -1    0    0  501    0  0.00000000000E+00  0.00000000000E+00  0.47208505780E+02  0.47225585417E+02  0.12700000000E+01 0.  1.
         -4   -1    0    0    0  501 -0.00000000000E+00 -0.00000000000E+00 -0.82706566348E+02  0.82716316511E+02  0.12700000000E+01 0.  1.
         25    2    1    2    0    0  0.00000000000E+00  0.00000000000E+00 -0.35498060568E+02  0.12994190193E+03  0.12499914229E+03 0.  0.
    9000005    1    3    3    0    0 -0.38433513156E+02 -0.20937721353E+02 -0.64118600485E+02  0.77638379923E+02  0.10000000000E+01 0.  0.
    9000005    1    3    3    0    0  0.38433513156E+02  0.20937721353E+02  0.28620539917E+02  0.52303522005E+02  0.10000000000E+01 0.  0.
<mgrwt>
<rscale>  0 0.12499914E+03</rscale>
<asrwt>0</asrwt>
<pdfrwt beam="1">  1        4 0.72649109E-02 0.12499914E+03</pdfrwt>
<pdfrwt beam="2">  1       -4 0.12726151E-01 0.12499914E+03</pdfrwt>
<totfact> 0.10345951E+04</totfact>
</mgrwt>
</event>
<event>
 5    1  0.3286491E-002  0.1249879E+03  0.7818608E-02  0.1235088E+00
          4   -1    0    0  501    0  0.00000000000E+00  0.00000000000E+00  0.13419926240E+03  0.13420527162E+03  0.12700000000E+01 0. -1.
         -4   -1    0    0    0  501 -0.00000000000E+00 -0.00000000000E+00 -0.29081668490E+02  0.29109385809E+02  0.12700000000E+01 0. -1.
         25    2    1    2    0    0  0.00000000000E+00  0.00000000000E+00  0.10511759391E+03  0.16331465743E+03  0.12498787453E+03 0.  0.
    9000005    1    3    3    0    0 -0.41607430597E+02 -0.32377968097E+02  0.96384601127E+02  0.10986583834E+03  0.10000000000E+01 0.  0.
    9000005    1    3    3    0    0  0.41607430597E+02  0.32377968097E+02  0.87329927863E+01  0.53448819089E+02  0.10000000000E+01 0.  0.
<mgrwt>
<rscale>  0 0.12498787E+03</rscale>
<asrwt>0</asrwt>
<pdfrwt beam="1">  1        4 0.20648635E-01 0.12498787E+03</pdfrwt>
<pdfrwt beam="2">  1       -4 0.44766971E-02 0.12498787E+03</pdfrwt>
<totfact> 0.96733876E+03</totfact>
</mgrwt>
</event>
<event>
 5    1  0.3286491E-002  0.1249886E+03  0.7818608E-02  0.1235087E+00
          4   -1    0    0  501    0  0.00000000000E+00  0.00000000000E+00  0.96592458510E+01  0.97423780675E+01  0.12700000000E+01 0.  1.
         -4   -1    0    0    0  501 -0.00000000000E+00 -0.00000000000E+00 -0.40251517308E+03  0.40251717660E+03  0.12700000000E+01 0.  1.
         25    2    1    2    0    0  0.00000000000E+00  0.00000000000E+00 -0.39285592723E+03  0.41225955467E+03  0.12498864291E+03 0.  0.
    9000005    1    3    3    0    0 -0.34960036842E+02  0.51274602310E+02 -0.17235858594E+03  0.18319326179E+03  0.10000000000E+01 0.  0.
    9000005    1    3    3    0    0  0.34960036842E+02 -0.51274602310E+02 -0.22049734129E+03  0.22906629288E+03  0.10000000000E+01 0.  0.
<mgrwt>
<rscale>  0 0.12498864E+03</rscale>
<asrwt>0</asrwt>
<pdfrwt beam="1">  1        4 0.14925870E-02 0.12498864E+03</pdfrwt>
<pdfrwt beam="2">  1       -4 0.61931947E-01 0.12498864E+03</pdfrwt>
<totfact> 0.63393543E+03</totfact>
</mgrwt>
</event>
<event>
 5    1  0.3286491E-002  0.1249988E+03  0.7818608E-02  0.1235071E+00
         -4   -1    0    0    0  501 -0.00000000000E+00  0.00000000000E+00  0.10488212508E+02  0.10564823785E+02  0.12700000000E+01 0. -1.
          4   -1    0    0  501    0  0.00000000000E+00 -0.00000000000E+00 -0.37100196190E+03  0.37100413560E+03  0.12700000000E+01 0. -1.
         25    2    1    2    0    0  0.00000000000E+00  0.00000000000E+00 -0.36051374939E+03  0.38156895939E+03  0.12499882906E+03 0.  0.
    9000005    1    3    3    0    0  0.13882539221E+02 -0.17875775402E+02 -0.35806564219E+03  0.35878164997E+03  0.10000000000E+01 0.  0.
    9000005    1    3    3    0    0 -0.13882539221E+02  0.17875775402E+02 -0.24481072029E+01  0.22787309414E+02  0.10000000000E+01 0.  0.
<mgrwt>
<rscale>  0 0.12499883E+03</rscale>
<asrwt>0</asrwt>
<pdfrwt beam="2">  1        4 0.57083275E-01 0.12499883E+03</pdfrwt>
<pdfrwt beam="1">  1       -4 0.16196318E-02 0.12499883E+03</pdfrwt>
<totfact> 0.66387449E+03</totfact>
</mgrwt>
</event>
<event>
 5    1  0.3286491E-002  0.1249989E+03  0.7818608E-02  0.1235071E+00
          4   -1    0    0  501    0  0.00000000000E+00  0.00000000000E+00  0.63923631043E+02  0.63936245633E+02  0.12700000000E+01 0. -1.
         -4   -1    0    0    0  501 -0.00000000000E+00 -0.00000000000E+00 -0.61081794140E+02  0.61094995501E+02  0.12700000000E+01 0. -1.
         25    2    1    2    0    0  0.00000000000E+00  0.00000000000E+00  0.28418369030E+01  0.12503124113E+03  0.12499894089E+03 0.  0.
    9000005    1    3    3    0    0 -0.34893130305E+02  0.13976893395E+02 -0.48514919600E+02  0.61380628176E+02  0.10000000000E+01 0.  0.
    9000005    1    3    3    0    0  0.34893130305E+02 -0.13976893395E+02  0.51356756503E+02  0.63650612959E+02  0.10000000000E+01 0.  0.
<mgrwt>
<rscale>  0 0.12499894E+03</rscale>
<asrwt>0</asrwt>
<pdfrwt beam="1">  1        4 0.98363906E-02 0.12499894E+03</pdfrwt>
<pdfrwt beam="2">  1       -4 0.93991849E-02 0.12499894E+03</pdfrwt>
<totfact> 0.10452434E+04</totfact>
</mgrwt>
</event>
<event>
 5    1  0.3286491E-002  0.1249944E+03  0.7818608E-02  0.1235078E+00
         -4   -1    0    0    0  501 -0.00000000000E+00  0.00000000000E+00  0.15569842332E+04  0.15569847511E+04  0.12700000000E+01 0.  1.
          4   -1    0    0  501    0  0.00000000000E+00 -0.00000000000E+00 -0.23473445175E+01  0.26688810921E+01  0.12700000000E+01 0.  1.
         25    2    1    2    0    0  0.00000000000E+00  0.00000000000E+00  0.15546368887E+04  0.15596536322E+04  0.12499438761E+03 0.  0.
    9000005    1    3    3    0    0 -0.19495568253E+02 -0.51007312167E+02  0.39821614843E+03  0.40194393135E+03  0.10000000000E+01 0.  0.
    9000005    1    3    3    0    0  0.19495568253E+02  0.51007312167E+02  0.11564207402E+04  0.11577097009E+04  0.10000000000E+01 0.  0.
<mgrwt>
<rscale>  0 0.12499439E+03</rscale>
<asrwt>0</asrwt>
<pdfrwt beam="2">  1        4 0.38590282E-03 0.12499439E+03</pdfrwt>
<pdfrwt beam="1">  1       -4 0.23956114E+00 0.12499439E+03</pdfrwt>
<totfact> 0.16789178E+03</totfact>
</mgrwt>
</event>
<event>
 5    1  0.3286491E-002  0.1250018E+03  0.7818608E-02  0.1235066E+00
          4   -1    0    0  501    0  0.00000000000E+00  0.00000000000E+00  0.24631358048E+03  0.24631685454E+03  0.12700000000E+01 0.  1.
         -4   -1    0    0    0  501 -0.00000000000E+00 -0.00000000000E+00 -0.15830491337E+02  0.15881352461E+02  0.12700000000E+01 0.  1.
         25    2    1    2    0    0  0.00000000000E+00  0.00000000000E+00  0.23048308914E+03  0.26219820700E+03  0.12500178148E+03 0.  0.
    9000005    1    3    3    0    0 -0.58821565537E+02  0.58183731981E+01  0.15779305232E+03  0.16850364210E+03  0.10000000000E+01 0.  0.
    9000005    1    3    3    0    0  0.58821565537E+02 -0.58183731981E+01  0.72690036821E+02  0.93694564901E+02  0.10000000000E+01 0.  0.
<mgrwt>
<rscale>  0 0.12500178E+03</rscale>
<asrwt>0</asrwt>
<pdfrwt beam="1">  1        4 0.37898562E-01 0.12500178E+03</pdfrwt>
<pdfrwt beam="2">  1       -4 0.24396244E-02 0.12500178E+03</pdfrwt>
<totfact> 0.80595363E+03</totfact>
</mgrwt>
</event>
<event>
 5    1  0.3286491E-002  0.1250062E+03  0.7818608E-02  0.1235060E+00
         -4   -1    0    0    0  501 -0.00000000000E+00  0.00000000000E+00  0.44974010855E+01  0.46732768508E+01  0.12700000000E+01 0.  1.
          4   -1    0    0  501    0  0.00000000000E+00 -0.00000000000E+00 -0.85180842044E+03  0.85180936719E+03  0.12700000000E+01 0.  1.
         25    2    1    2    0    0  0.00000000000E+00  0.00000000000E+00 -0.84731101935E+03  0.85648264404E+03  0.12500622394E+03 0.  0.
    9000005    1    3    3    0    0 -0.35727575351E+02  0.34266874297E+01 -0.73125614026E+02  0.81465067691E+02  0.10000000000E+01 0.  0.
    9000005    1    3    3    0    0  0.35727575351E+02 -0.34266874297E+01 -0.77418540533E+03  0.77501757635E+03  0.10000000000E+01 0.  0.
<mgrwt>
<rscale>  0 0.12500622E+03</rscale>
<asrwt>0</asrwt>
<pdfrwt beam="2">  1        4 0.13106093E+00 0.12500622E+03</pdfrwt>
<pdfrwt beam="1">  1       -4 0.70551027E-03 0.12500622E+03</pdfrwt>
<totfact> 0.35858664E+03</totfact>
</mgrwt>
</event>
<event>
 5    1  0.3286491E-002  0.1250198E+03  0.7818608E-02  0.1235038E+00
          4   -1    0    0  501    0  0.00000000000E+00  0.00000000000E+00  0.43466723156E+02  0.43485272472E+02  0.12700000000E+01 0.  1.
         -4   -1    0    0    0  501 -0.00000000000E+00 -0.00000000000E+00 -0.89853921677E+02  0.89862896352E+02  0.12700000000E+01 0.  1.
         25    2    1    2    0    0  0.00000000000E+00  0.00000000000E+00 -0.46387198521E+02  0.13334816882E+03  0.12501984619E+03 0.  0.
    9000005    1    3    3    0    0 -0.60337313749E+02 -0.66161030719E+01 -0.39090337529E+02  0.72204007773E+02  0.10000000000E+01 0.  0.
    9000005    1    3    3    0    0  0.60337313749E+02  0.66161030719E+01 -0.72968609927E+01  0.61144161051E+02  0.10000000000E+01 0.  0.
<mgrwt>
<rscale>  0 0.12501985E+03</rscale>
<asrwt>0</asrwt>
<pdfrwt beam="1">  1        4 0.66893055E-02 0.12501985E+03</pdfrwt>
<pdfrwt beam="2">  1       -4 0.13825797E-01 0.12501985E+03</pdfrwt>
<totfact> 0.10268408E+04</totfact>
</mgrwt>
</event>
<event>
 5    1  0.3286491E-002  0.1249989E+03  0.7818608E-02  0.1235071E+00
          4   -1    0    0  501    0  0.00000000000E+00  0.00000000000E+00  0.70780229204E+02  0.70791622006E+02  0.12700000000E+01 0. -1.
         -4   -1    0    0    0  501 -0.00000000000E+00 -0.00000000000E+00 -0.55164356514E+02  0.55178973619E+02  0.12700000000E+01 0. -1.
         25    2    1    2    0    0  0.00000000000E+00  0.00000000000E+00  0.15615872690E+02  0.12597059562E+03  0.12499894192E+03 0.  0.
    9000005    1    3    3    0    0  0.24113801033E+02 -0.53731574453E+02 -0.13250098024E+02  0.60374850651E+02  0.10000000000E+01 0.  0.
    9000005    1    3    3    0    0 -0.24113801033E+02  0.53731574453E+02  0.28865970714E+02  0.65595744974E+02  0.10000000000E+01 0.  0.
<mgrwt>
<rscale>  0 0.12499894E+03</rscale>
<asrwt>0</asrwt>
<pdfrwt beam="1">  1        4 0.10891267E-01 0.12499894E+03</pdfrwt>
<pdfrwt beam="2">  1       -4 0.84888249E-02 0.12499894E+03</pdfrwt>
<totfact> 0.10431850E+04</totfact>
</mgrwt>
</event>
<event>
 5    1  0.3286491E-002  0.1249991E+03  0.7818608E-02  0.1235071E+00
          4   -1    0    0  501    0  0.00000000000E+00  0.00000000000E+00  0.26767147278E+02  0.26797258692E+02  0.12700000000E+01 0. -1.
         -4   -1    0    0    0  501 -0.00000000000E+00 -0.00000000000E+00 -0.14581746993E+03  0.14582300037E+03  0.12700000000E+01 0. -1.
         25    2    1    2    0    0  0.00000000000E+00  0.00000000000E+00 -0.11905032265E+03  0.17262025906E+03  0.12499909806E+03 0.  0.
    9000005    1    3    3    0    0  0.41908892532E+02 -0.20828737006E+02 -0.11671478108E+03  0.12575186552E+03  0.10000000000E+01 0.  0.
    9000005    1    3    3    0    0 -0.41908892532E+02  0.20828737006E+02 -0.23355415670E+01  0.46868393539E+02  0.10000000000E+01 0.  0.
<mgrwt>
<rscale>  0 0.12499910E+03</rscale>
<asrwt>0</asrwt>
<pdfrwt beam="1">  1        4 0.41207644E-02 0.12499910E+03</pdfrwt>
<pdfrwt beam="2">  1       -4 0.22436198E-01 0.12499910E+03</pdfrwt>
<totfact> 0.94964423E+03</totfact>
</mgrwt>
</event>
<event>
 5    1  0.3286491E-002  0.1249949E+03  0.7818608E-02  0.1235077E+00
         -4   -1    0    0    0  501 -0.00000000000E+00  0.00000000000E+00  0.17204152643E+02  0.17250964268E+02  0.12700000000E+01 0. -1.
          4   -1    0    0  501    0  0.00000000000E+00 -0.00000000000E+00 -0.22667723956E+03  0.22668079724E+03  0.12700000000E+01 0. -1.
         25    2    1    2    0    0  0.00000000000E+00  0.00000000000E+00 -0.20947308692E+03  0.24393176151E+03  0.12499492041E+03 0.  0.
    9000005    1    3    3    0    0 -0.15961317260E+02  0.59139996053E+02 -0.80626633748E+02  0.10126182327E+03  0.10000000000E+01 0.  0.
    9000005    1    3    3    0    0  0.15961317260E+02 -0.59139996053E+02 -0.12884645317E+03  0.14266993824E+03  0.10000000000E+01 0.  0.
<mgrwt>
<rscale>  0 0.12499492E+03</rscale>
<asrwt>0</asrwt>
<pdfrwt beam="2">  1        4 0.34877294E-01 0.12499492E+03</pdfrwt>
<pdfrwt beam="1">  1       -4 0.26506674E-02 0.12499492E+03</pdfrwt>
<totfact> 0.83224686E+03</totfact>
</mgrwt>
</event>
<event>
 5    1  0.3286491E-002  0.1250014E+03  0.7818608E-02  0.1235067E+00
         -4   -1    0    0    0  501 -0.00000000000E+00  0.00000000000E+00  0.14858782931E+02  0.14912958466E+02  0.12700000000E+01 0.  1.
          4   -1    0    0  501    0  0.00000000000E+00 -0.00000000000E+00 -0.26236348843E+03  0.26236656220E+03  0.12700000000E+01 0.  1.
         25    2    1    2    0    0  0.00000000000E+00  0.00000000000E+00 -0.24750470550E+03  0.27727952067E+03  0.12500141334E+03 0.  0.
    9000005    1    3    3    0    0  0.65372796553E+00  0.47654655179E+02 -0.34087639633E+02  0.58603418810E+02  0.10000000000E+01 0.  0.
    9000005    1    3    3    0    0 -0.65372796553E+00 -0.47654655179E+02 -0.21341706587E+03  0.21867610186E+03  0.10000000000E+01 0.  0.
<mgrwt>
<rscale>  0 0.12500141E+03</rscale>
<asrwt>0</asrwt>
<pdfrwt beam="2">  1        4 0.40368014E-01 0.12500141E+03</pdfrwt>
<pdfrwt beam="1">  1       -4 0.22903706E-02 0.12500141E+03</pdfrwt>
<totfact> 0.78537743E+03</totfact>
</mgrwt>
</event>
<event>
 5    1  0.3286491E-002  0.1249985E+03  0.7818608E-02  0.1235072E+00
         -4   -1    0    0    0  501 -0.00000000000E+00  0.00000000000E+00  0.21159725123E+03  0.21160106245E+03  0.12700000000E+01 0.  1.
          4   -1    0    0  501    0  0.00000000000E+00 -0.00000000000E+00 -0.18434524383E+02  0.18478219320E+02  0.12700000000E+01 0.  1.
         25    2    1    2    0    0  0.00000000000E+00  0.00000000000E+00  0.19316272685E+03  0.23007928177E+03  0.12499854741E+03 0.  0.
    9000005    1    3    3    0    0  0.40082114345E+01  0.61481964667E+01  0.21081022132E+03  0.21094031263E+03  0.10000000000E+01 0.  0.
    9000005    1    3    3    0    0 -0.40082114345E+01 -0.61481964667E+01 -0.17647494470E+02  0.19138969140E+02  0.10000000000E+01 0.  0.
<mgrwt>
<rscale>  0 0.12499855E+03</rscale>
<asrwt>0</asrwt>
<pdfrwt beam="2">  1        4 0.28397351E-02 0.12499855E+03</pdfrwt>
<pdfrwt beam="1">  1       -4 0.32557077E-01 0.12499855E+03</pdfrwt>
<totfact> 0.85300189E+03</totfact>
</mgrwt>
</event>
<event>
 5    1  0.3286491E-002  0.1249963E+03  0.7818608E-02  0.1235075E+00
          4   -1    0    0  501    0  0.00000000000E+00  0.00000000000E+00  0.10151564745E+02  0.10230697277E+02  0.12700000000E+01 0. -1.
         -4   -1    0    0    0  501 -0.00000000000E+00 -0.00000000000E+00 -0.38319583838E+03  0.38319794292E+03  0.12700000000E+01 0. -1.
         25    2    1    2    0    0  0.00000000000E+00  0.00000000000E+00 -0.37304427364E+03  0.39342864019E+03  0.12499625926E+03 0.  0.
    9000005    1    3    3    0    0  0.71349607582E+01  0.12767848880E+02 -0.37774785779E+03  0.37803223367E+03  0.10000000000E+01 0.  0.
    9000005    1    3    3    0    0 -0.71349607582E+01 -0.12767848880E+02  0.47035841474E+01  0.15396406525E+02  0.10000000000E+01 0.  0.
<mgrwt>
<rscale>  0 0.12499626E+03</rscale>
<asrwt>0</asrwt>
<pdfrwt beam="1">  1        4 0.15680285E-02 0.12499626E+03</pdfrwt>
<pdfrwt beam="2">  1       -4 0.58959444E-01 0.12499626E+03</pdfrwt>
<totfact> 0.65202360E+03</totfact>
</mgrwt>
</event>
<event>
 5    1  0.3286491E-002  0.1250021E+03  0.7818608E-02  0.1235066E+00
          4   -1    0    0  501    0  0.00000000000E+00  0.00000000000E+00  0.49093666757E+02  0.49110090772E+02  0.12700000000E+01 0. -1.
         -4   -1    0    0    0  501 -0.00000000000E+00 -0.00000000000E+00 -0.79535221552E+02  0.79545360439E+02  0.12700000000E+01 0. -1.
         25    2    1    2    0    0  0.00000000000E+00  0.00000000000E+00 -0.30441554796E+02  0.12865545121E+03  0.12500214745E+03 0.  0.
    9000005    1    3    3    0    0 -0.62174357892E+02 -0.45770697777E+01 -0.10760074949E+02  0.63272265330E+02  0.10000000000E+01 0.  0.
    9000005    1    3    3    0    0  0.62174357892E+02  0.45770697777E+01 -0.19681479846E+02  0.65383185881E+02  0.10000000000E+01 0.  0.
<mgrwt>
<rscale>  0 0.12500215E+03</rscale>
<asrwt>0</asrwt>
<pdfrwt beam="1">  1        4 0.75549151E-02 0.12500215E+03</pdfrwt>
<pdfrwt beam="2">  1       -4 0.12238231E-01 0.12500215E+03</pdfrwt>
<totfact> 0.10372854E+04</totfact>
</mgrwt>
</event>
<event>
 5    1  0.3286491E-002  0.1249987E+03  0.7818608E-02  0.1235071E+00
          4   -1    0    0  501    0  0.00000000000E+00  0.00000000000E+00  0.24254957119E+03  0.24255289605E+03  0.12700000000E+01 0.  1.
         -4   -1    0    0    0  501 -0.00000000000E+00 -0.00000000000E+00 -0.16076131757E+02  0.16126218164E+02  0.12700000000E+01 0.  1.
         25    2    1    2    0    0  0.00000000000E+00  0.00000000000E+00  0.22647343943E+03  0.25867911422E+03  0.12499866145E+03 0.  0.
    9000005    1    3    3    0    0 -0.34406037304E+02 -0.42071411891E+02  0.17706816293E+03  0.18522395478E+03  0.10000000000E+01 0.  0.
    9000005    1    3    3    0    0  0.34406037304E+02  0.42071411891E+02  0.49405276500E+02  0.73455159434E+02  0.10000000000E+01 0.  0.
<mgrwt>
<rscale>  0 0.12499866E+03</rscale>
<asrwt>0</asrwt>
<pdfrwt beam="1">  1        4 0.37319425E-01 0.12499866E+03</pdfrwt>
<pdfrwt beam="2">  1       -4 0.24773597E-02 0.12499866E+03</pdfrwt>
<totfact> 0.81094204E+03</totfact>
</mgrwt>
</event>
<event>
 5    1  0.3286491E-002  0.1250018E+03  0.7818608E-02  0.1235066E+00
         -4   -1    0    0    0  501 -0.00000000000E+00  0.00000000000E+00  0.33106839528E+02  0.33131189588E+02  0.12700000000E+01 0. -1.
          4   -1    0    0  501    0  0.00000000000E+00 -0.00000000000E+00 -0.11792145759E+03  0.11792829627E+03  0.12700000000E+01 0. -1.
         25    2    1    2    0    0  0.00000000000E+00  0.00000000000E+00 -0.84814618062E+02  0.15105948585E+03  0.12500179530E+03 0.  0.
    9000005    1    3    3    0    0  0.33901163453E+02 -0.42562854889E+02 -0.52685508804E+01  0.54677629138E+02  0.10000000000E+01 0.  0.
    9000005    1    3    3    0    0 -0.33901163453E+02  0.42562854889E+02 -0.79546067181E+02  0.96381856715E+02  0.10000000000E+01 0.  0.
<mgrwt>
<rscale>  0 0.12500180E+03</rscale>
<asrwt>0</asrwt>
<pdfrwt beam="2">  1        4 0.18144162E-01 0.12500180E+03</pdfrwt>
<pdfrwt beam="1">  1       -4 0.50957591E-02 0.12500180E+03</pdfrwt>
<totfact> 0.99088921E+03</totfact>
</mgrwt>
</event>
<event>
 5    1  0.3286491E-002  0.1250017E+03  0.7818608E-02  0.1235067E+00
         -4   -1    0    0    0  501 -0.00000000000E+00  0.00000000000E+00  0.21799810794E+02  0.21836772900E+02  0.12700000000E+01 0.  1.
          4   -1    0    0  501    0  0.00000000000E+00 -0.00000000000E+00 -0.17900128005E+03  0.17900578527E+03  0.12700000000E+01 0.  1.
         25    2    1    2    0    0  0.00000000000E+00  0.00000000000E+00 -0.15720146926E+03  0.20084255817E+03  0.12500172493E+03 0.  0.
    9000005    1    3    3    0    0 -0.44492284412E+02  0.35317860266E+02 -0.12045083269E+03  0.13317776737E+03  0.10000000000E+01 0.  0.
    9000005    1    3    3    0    0  0.44492284412E+02 -0.35317860266E+02 -0.36750636568E+02  0.67664790801E+02  0.10000000000E+01 0.  0.
<mgrwt>
<rscale>  0 0.12500172E+03</rscale>
<asrwt>0</asrwt>
<pdfrwt beam="2">  1        4 0.27541847E-01 0.12500172E+03</pdfrwt>
<pdfrwt beam="1">  1       -4 0.33570070E-02 0.12500172E+03</pdfrwt>
<totfact> 0.89990124E+03</totfact>
</mgrwt>
</event>
<event>
 5    1  0.3286491E-002  0.1250007E+03  0.7818608E-02  0.1235068E+00
          4   -1    0    0  501    0  0.00000000000E+00  0.00000000000E+00  0.23532650422E+03  0.23532993113E+03  0.12700000000E+01 0.  1.
         -4   -1    0    0    0  501 -0.00000000000E+00 -0.00000000000E+00 -0.16571627204E+02  0.16620220461E+02  0.12700000000E+01 0.  1.
         25    2    1    2    0    0  0.00000000000E+00  0.00000000000E+00  0.21875487702E+03  0.25195015160E+03  0.12500073068E+03 0.  0.
    9000005    1    3    3    0    0  0.61544333953E+02 -0.17734315846E+01  0.87814817035E+02  0.10725340177E+03  0.10000000000E+01 0.  0.
    9000005    1    3    3    0    0 -0.61544333953E+02  0.17734315846E+01  0.13094005998E+03  0.14469674982E+03  0.10000000000E+01 0.  0.
<mgrwt>
<rscale>  0 0.12500073E+03</rscale>
<asrwt>0</asrwt>
<pdfrwt beam="1">  1        4 0.36208078E-01 0.12500073E+03</pdfrwt>
<pdfrwt beam="2">  1       -4 0.25534827E-02 0.12500073E+03</pdfrwt>
<totfact> 0.82047849E+03</totfact>
</mgrwt>
</event>
<event>
 5    1  0.3286491E-002  0.1250015E+03  0.7818608E-02  0.1235067E+00
          4   -1    0    0  501    0  0.00000000000E+00  0.00000000000E+00  0.61365637452E+03  0.61365768869E+03  0.12700000000E+01 0. -1.
         -4   -1    0    0    0  501 -0.00000000000E+00 -0.00000000000E+00 -0.63010110577E+01  0.64277243523E+01  0.12700000000E+01 0. -1.
         25    2    1    2    0    0  0.00000000000E+00  0.00000000000E+00  0.60735536346E+03  0.62008541304E+03  0.12500152776E+03 0.  0.
    9000005    1    3    3    0    0 -0.26965254924E+02  0.33343402623E+02  0.78177246022E+02  0.89171684223E+02  0.10000000000E+01 0.  0.
    9000005    1    3    3    0    0  0.26965254924E+02 -0.33343402623E+02  0.52917811744E+03  0.53091372881E+03  0.10000000000E+01 0.  0.
<mgrwt>
<rscale>  0 0.12500153E+03</rscale>
<asrwt>0</asrwt>
<pdfrwt beam="1">  1        4 0.94418545E-01 0.12500153E+03</pdfrwt>
<pdfrwt beam="2">  1       -4 0.97923434E-03 0.12500153E+03</pdfrwt>
<totfact> 0.47622215E+03</totfact>
</mgrwt>
</event>
<event>
 5    1  0.3286491E-002  0.1249986E+03  0.7818608E-02  0.1235071E+00
         -4   -1    0    0    0  501 -0.00000000000E+00  0.00000000000E+00  0.12575726381E+03  0.12576367640E+03  0.12700000000E+01 0.  1.
          4   -1    0    0  501    0  0.00000000000E+00 -0.00000000000E+00 -0.31040936228E+02  0.31066905574E+02  0.12700000000E+01 0.  1.
         25    2    1    2    0    0  0.00000000000E+00  0.00000000000E+00  0.94716327586E+02  0.15683058198E+03  0.12499859492E+03 0.  0.
    9000005    1    3    3    0    0 -0.24549954449E+02 -0.24231813082E+02 -0.18020046164E+02  0.38930747391E+02  0.10000000000E+01 0.  0.
    9000005    1    3    3    0    0  0.24549954449E+02  0.24231813082E+02  0.11273637375E+03  0.11789983458E+03  0.10000000000E+01 0.  0.
<mgrwt>
<rscale>  0 0.12499859E+03</rscale>
<asrwt>0</asrwt>
<pdfrwt beam="2">  1        4 0.47780195E-02 0.12499859E+03</pdfrwt>
<pdfrwt beam="1">  1       -4 0.19349763E-01 0.12499859E+03</pdfrwt>
<totfact> 0.97960421E+03</totfact>
</mgrwt>
</event>
<event>
 5    1  0.3286491E-002  0.1250006E+03  0.7818608E-02  0.1235068E+00
         -4   -1    0    0    0  501 -0.00000000000E+00  0.00000000000E+00  0.41835572767E+03  0.41835765534E+03  0.12700000000E+01 0.  1.
          4   -1    0    0  501    0  0.00000000000E+00 -0.00000000000E+00 -0.92920910074E+01  0.93784783036E+01  0.12700000000E+01 0.  1.
         25    2    1    2    0    0  0.00000000000E+00  0.00000000000E+00  0.40906363667E+03  0.42773613364E+03  0.12500056471E+03 0.  0.
    9000005    1    3    3    0    0 -0.44876453019E+02 -0.83294709366E+01  0.35059449129E+03  0.35355448441E+03  0.10000000000E+01 0.  0.
    9000005    1    3    3    0    0  0.44876453019E+02  0.83294709366E+01  0.58469145376E+02  0.74181649231E+02  0.10000000000E+01 0.  0.
<mgrwt>
<rscale>  0 0.12500056E+03</rscale>
<asrwt>0</asrwt>
<pdfrwt beam="2">  1        4 0.14363463E-02 0.12500056E+03</pdfrwt>
<pdfrwt beam="1">  1       -4 0.64369195E-01 0.12500056E+03</pdfrwt>
<totfact> 0.61940971E+03</totfact>
</mgrwt>
</event>
<event>
 5    1  0.3286491E-002  0.1249941E+03  0.7818608E-02  0.1235079E+00
         -4   -1    0    0    0  501 -0.00000000000E+00  0.00000000000E+00  0.13548584846E+02  0.13607977489E+02  0.12700000000E+01 0. -1.
          4   -1    0    0  501    0  0.00000000000E+00 -0.00000000000E+00 -0.28759551172E+03  0.28759831582E+03  0.12700000000E+01 0. -1.
         25    2    1    2    0    0  0.00000000000E+00  0.00000000000E+00 -0.27404692688E+03  0.30120629331E+03  0.12499405185E+03 0.  0.
    9000005    1    3    3    0    0  0.15429458443E+02 -0.40767194784E+02 -0.24492191010E+03  0.24877253548E+03  0.10000000000E+01 0.  0.
    9000005    1    3    3    0    0 -0.15429458443E+02  0.40767194784E+02 -0.29125016771E+02  0.52433757831E+02  0.10000000000E+01 0.  0.
<mgrwt>
<rscale>  0 0.12499405E+03</rscale>
<asrwt>0</asrwt>
<pdfrwt beam="2">  1        4 0.44250243E-01 0.12499405E+03</pdfrwt>
<pdfrwt beam="1">  1       -4 0.20891822E-02 0.12499405E+03</pdfrwt>
<totfact> 0.75457737E+03</totfact>
</mgrwt>
</event>
<event>
 5    1  0.3286491E-002  0.1249982E+03  0.7818608E-02  0.1235072E+00
         -4   -1    0    0    0  501 -0.00000000000E+00  0.00000000000E+00  0.53470692223E+02  0.53485772190E+02  0.12700000000E+01 0.  1.
          4   -1    0    0  501    0  0.00000000000E+00 -0.00000000000E+00 -0.73021051891E+02  0.73032095131E+02  0.12700000000E+01 0.  1.
         25    2    1    2    0    0  0.00000000000E+00  0.00000000000E+00 -0.19550359668E+02  0.12651786732E+03  0.12499821674E+03 0.  0.
    9000005    1    3    3    0    0  0.23648416350E+02 -0.32859981103E+01 -0.68227537166E+02  0.72291370213E+02  0.10000000000E+01 0.  0.
    9000005    1    3    3    0    0 -0.23648416350E+02  0.32859981103E+01  0.48677177498E+02  0.54226497108E+02  0.10000000000E+01 0.  0.
<mgrwt>
<rscale>  0 0.12499822E+03</rscale>
<asrwt>0</asrwt>
<pdfrwt beam="2">  1        4 0.11236017E-01 0.12499822E+03</pdfrwt>
<pdfrwt beam="1">  1       -4 0.82282698E-02 0.12499822E+03</pdfrwt>
<totfact> 0.10420058E+04</totfact>
</mgrwt>
</event>
<event>
 5    1  0.3286491E-002  0.1250004E+03  0.7818608E-02  0.1235069E+00
         -4   -1    0    0    0  501 -0.00000000000E+00  0.00000000000E+00  0.12326563360E+02  0.12391814405E+02  0.12700000000E+01 0. -1.
          4   -1    0    0  501    0  0.00000000000E+00 -0.00000000000E+00 -0.31599572021E+03  0.31599827229E+03  0.12700000000E+01 0. -1.
         25    2    1    2    0    0  0.00000000000E+00  0.00000000000E+00 -0.30366915685E+03  0.32839008670E+03  0.12500036887E+03 0.  0.
    9000005    1    3    3    0    0 -0.48708760515E+02  0.82893283154E+01 -0.25235441296E+03  0.25714782919E+03  0.10000000000E+01 0.  0.
    9000005    1    3    3    0    0  0.48708760515E+02 -0.82893283154E+01 -0.51314743895E+02  0.71242257515E+02  0.10000000000E+01 0.  0.
<mgrwt>
<rscale>  0 0.12500037E+03</rscale>
<asrwt>0</asrwt>
<pdfrwt beam="2">  1        4 0.48619936E-01 0.12500037E+03</pdfrwt>
<pdfrwt beam="1">  1       -4 0.19016102E-02 0.12500037E+03</pdfrwt>
<totfact> 0.72168637E+03</totfact>
</mgrwt>
</event>
<event>
 5    1  0.3286491E-002  0.1249896E+03  0.7818608E-02  0.1235085E+00
         -4   -1    0    0    0  501 -0.00000000000E+00  0.00000000000E+00  0.15391923738E+03  0.15392447673E+03  0.12700000000E+01 0.  1.
          4   -1    0    0  501    0  0.00000000000E+00 -0.00000000000E+00 -0.25352790610E+02  0.25384579802E+02  0.12700000000E+01 0.  1.
         25    2    1    2    0    0  0.00000000000E+00  0.00000000000E+00  0.12856644677E+03  0.17930905653E+03  0.12498962564E+03 0.  0.
    9000005    1    3    3    0    0  0.57960031556E+02 -0.11420740082E+02  0.93501139497E+02  0.11060407610E+03  0.10000000000E+01 0.  0.
    9000005    1    3    3    0    0 -0.57960031556E+02  0.11420740082E+02  0.35065307271E+02  0.68704980431E+02  0.10000000000E+01 0.  0.
<mgrwt>
<rscale>  0 0.12498963E+03</rscale>
<asrwt>0</asrwt>
<pdfrwt beam="2">  1        4 0.39032777E-02 0.12498963E+03</pdfrwt>
<pdfrwt beam="1">  1       -4 0.23682731E-01 0.12498963E+03</pdfrwt>
<totfact> 0.93763334E+03</totfact>
</mgrwt>
</event>
<event>
 5    1  0.3286491E-002  0.1250011E+03  0.7818608E-02  0.1235068E+00
          4   -1    0    0  501    0  0.00000000000E+00  0.00000000000E+00  0.12927284978E+02  0.12989518733E+02  0.12700000000E+01 0.  1.
         -4   -1    0    0    0  501 -0.00000000000E+00 -0.00000000000E+00 -0.30138703859E+03  0.30138971437E+03  0.12700000000E+01 0.  1.
         25    2    1    2    0    0  0.00000000000E+00  0.00000000000E+00 -0.28845975361E+03  0.31437923310E+03  0.12500109101E+03 0.  0.
    9000005    1    3    3    0    0 -0.55329188209E+01  0.56699604080E+02 -0.20883484447E+03  0.21646812827E+03  0.10000000000E+01 0.  0.
    9000005    1    3    3    0    0  0.55329188209E+01 -0.56699604080E+02 -0.79624909139E+02  0.97911104829E+02  0.10000000000E+01 0.  0.
<mgrwt>
<rscale>  0 0.12500109E+03</rscale>
<asrwt>0</asrwt>
<pdfrwt beam="1">  1        4 0.19938063E-02 0.12500109E+03</pdfrwt>
<pdfrwt beam="2">  1       -4 0.46372225E-01 0.12500109E+03</pdfrwt>
<totfact> 0.73827882E+03</totfact>
</mgrwt>
</event>
<event>
 5    1  0.3286491E-002  0.1249721E+03  0.7818608E-02  0.1235113E+00
          4   -1    0    0  501    0  0.00000000000E+00  0.00000000000E+00  0.52230912734E+02  0.52246350542E+02  0.12700000000E+01 0.  1.
         -4   -1    0    0    0  501 -0.00000000000E+00 -0.00000000000E+00 -0.74722789716E+02  0.74733581494E+02  0.12700000000E+01 0.  1.
         25    2    1    2    0    0  0.00000000000E+00  0.00000000000E+00 -0.22491876983E+02  0.12697993204E+03  0.12497207132E+03 0.  0.
    9000005    1    3    3    0    0  0.58945844622E+01 -0.30236288094E+02 -0.66474786797E+02  0.73272617829E+02  0.10000000000E+01 0.  0.
    9000005    1    3    3    0    0 -0.58945844622E+01  0.30236288094E+02  0.43982909815E+02  0.53707314208E+02  0.10000000000E+01 0.  0.
<mgrwt>
<rscale>  0 0.12497207E+03</rscale>
<asrwt>0</asrwt>
<pdfrwt beam="1">  1        4 0.80375427E-02 0.12497207E+03</pdfrwt>
<pdfrwt beam="2">  1       -4 0.11497831E-01 0.12497207E+03</pdfrwt>
<totfact> 0.10416147E+04</totfact>
</mgrwt>
</event>
<event>
 5    1  0.3286491E-002  0.1249996E+03  0.7818608E-02  0.1235070E+00
          4   -1    0    0  501    0  0.00000000000E+00  0.00000000000E+00  0.22051979938E+02  0.22088520076E+02  0.12700000000E+01 0. -1.
         -4   -1    0    0    0  501 -0.00000000000E+00 -0.00000000000E+00 -0.17695158921E+03  0.17695614661E+03  0.12700000000E+01 0. -1.
         25    2    1    2    0    0  0.00000000000E+00  0.00000000000E+00 -0.15489960927E+03  0.19904466669E+03  0.12499956154E+03 0.  0.
    9000005    1    3    3    0    0 -0.54951078166E+02  0.29710514535E+02 -0.80155383667E+02  0.10162785640E+03  0.10000000000E+01 0.  0.
    9000005    1    3    3    0    0  0.54951078166E+02 -0.29710514535E+02 -0.74744225605E+02  0.97416810289E+02  0.10000000000E+01 0.  0.
<mgrwt>
<rscale>  0 0.12499956E+03</rscale>
<asrwt>0</asrwt>
<pdfrwt beam="1">  1        4 0.33957738E-02 0.12499956E+03</pdfrwt>
<pdfrwt beam="2">  1       -4 0.27226482E-01 0.12499956E+03</pdfrwt>
<totfact> 0.90297768E+03</totfact>
</mgrwt>
</event>
<event>
 5    1  0.3286491E-002  0.1249976E+03  0.7818608E-02  0.1235073E+00
         -4   -1    0    0    0  501 -0.00000000000E+00  0.00000000000E+00  0.60917390732E+02  0.60930627713E+02  0.12700000000E+01 0. -1.
          4   -1    0    0  501    0  0.00000000000E+00 -0.00000000000E+00 -0.64094808861E+02  0.64107389769E+02  0.12700000000E+01 0. -1.
         25    2    1    2    0    0  0.00000000000E+00  0.00000000000E+00 -0.31774181298E+01  0.12503801748E+03  0.12499763930E+03 0.  0.
    9000005    1    3    3    0    0  0.21883975911E+02  0.10601960094E+02  0.55995436001E+02  0.61055702539E+02  0.10000000000E+01 0.  0.
    9000005    1    3    3    0    0 -0.21883975911E+02 -0.10601960094E+02 -0.59172854131E+02  0.63982314944E+02  0.10000000000E+01 0.  0.
<mgrwt>
<rscale>  0 0.12499764E+03</rscale>
<asrwt>0</asrwt>
<pdfrwt beam="2">  1        4 0.98627259E-02 0.12499764E+03</pdfrwt>
<pdfrwt beam="1">  1       -4 0.93738922E-02 0.12499764E+03</pdfrwt>
<totfact> 0.10452595E+04</totfact>
</mgrwt>
</event>
<event>
 5    1  0.3286491E-002  0.1250027E+03  0.7818608E-02  0.1235065E+00
          4   -1    0    0  501    0  0.00000000000E+00  0.00000000000E+00  0.52050101116E+02  0.52065592537E+02  0.12700000000E+01 0.  1.
         -4   -1    0    0    0  501 -0.00000000000E+00 -0.00000000000E+00 -0.75019144087E+02  0.75029893239E+02  0.12700000000E+01 0.  1.
         25    2    1    2    0    0  0.00000000000E+00  0.00000000000E+00 -0.22969042970E+02  0.12709548578E+03  0.12500274225E+03 0.  0.
    9000005    1    3    3    0    0  0.16718746536E+02  0.35274316730E+02 -0.61103463719E+02  0.72515013514E+02  0.10000000000E+01 0.  0.
    9000005    1    3    3    0    0 -0.16718746536E+02 -0.35274316730E+02  0.38134420748E+02  0.54580472262E+02  0.10000000000E+01 0.  0.
<mgrwt>
<rscale>  0 0.12500274E+03</rscale>
<asrwt>0</asrwt>
<pdfrwt beam="1">  1        4 0.80097264E-02 0.12500274E+03</pdfrwt>
<pdfrwt beam="2">  1       -4 0.11543425E-01 0.12500274E+03</pdfrwt>
<totfact> 0.10406428E+04</totfact>
</mgrwt>
</event>
<event>
 5    1  0.3286491E-002  0.1249992E+03  0.7818608E-02  0.1235071E+00
         -4   -1    0    0    0  501 -0.00000000000E+00  0.00000000000E+00  0.96905229536E+03  0.96905312757E+03  0.12700000000E+01 0. -1.
          4   -1    0    0  501    0  0.00000000000E+00 -0.00000000000E+00 -0.39300584582E+01  0.41301645832E+01  0.12700000000E+01 0. -1.
         25    2    1    2    0    0  0.00000000000E+00  0.00000000000E+00  0.96512223690E+03  0.97318329215E+03  0.12499915181E+03 0.  0.
    9000005    1    3    3    0    0  0.37014439314E+02 -0.28266051094E+02  0.80696218949E+03  0.80830564369E+03  0.10000000000E+01 0.  0.
    9000005    1    3    3    0    0 -0.37014439314E+02  0.28266051094E+02  0.15816004742E+03  0.16487764846E+03  0.10000000000E+01 0.  0.
<mgrwt>
<rscale>  0 0.12499915E+03</rscale>
<asrwt>0</asrwt>
<pdfrwt beam="2">  1        4 0.62008106E-03 0.12499915E+03</pdfrwt>
<pdfrwt beam="1">  1       -4 0.14910045E+00 0.12499915E+03</pdfrwt>
<totfact> 0.31507486E+03</totfact>
</mgrwt>
</event>
<event>
 5    1  0.3286491E-002  0.1250014E+03  0.7818608E-02  0.1235067E+00
         -4   -1    0    0    0  501 -0.00000000000E+00  0.00000000000E+00  0.14912682847E+02  0.14966663279E+02  0.12700000000E+01 0. -1.
          4   -1    0    0  501    0  0.00000000000E+00 -0.00000000000E+00 -0.26141864665E+03  0.26142173153E+03  0.12700000000E+01 0. -1.
         25    2    1    2    0    0  0.00000000000E+00  0.00000000000E+00 -0.24650596380E+03  0.27638839481E+03  0.12500141837E+03 0.  0.
    9000005    1    3    3    0    0 -0.55742964723E+02  0.27615867713E+02 -0.11009297824E+03  0.12645702086E+03  0.10000000000E+01 0.  0.
    9000005    1    3    3    0    0  0.55742964723E+02 -0.27615867713E+02 -0.13641298556E+03  0.14993137395E+03  0.10000000000E+01 0.  0.
<mgrwt>
<rscale>  0 0.12500142E+03</rscale>
<asrwt>0</asrwt>
<pdfrwt beam="2">  1        4 0.40222639E-01 0.12500142E+03</pdfrwt>
<pdfrwt beam="1">  1       -4 0.22986487E-02 0.12500142E+03</pdfrwt>
<totfact> 0.78656949E+03</totfact>
</mgrwt>
</event>
<event>
 5    1  0.3286491E-002  0.1249977E+03  0.7818608E-02  0.1235073E+00
          4   -1    0    0  501    0  0.00000000000E+00  0.00000000000E+00  0.18832226149E+02  0.18875000443E+02  0.12700000000E+01 0.  1.
         -4   -1    0    0    0  501 -0.00000000000E+00 -0.00000000000E+00 -0.20713610385E+03  0.20713999715E+03  0.12700000000E+01 0.  1.
         25    2    1    2    0    0  0.00000000000E+00  0.00000000000E+00 -0.18830387770E+03  0.22601499759E+03  0.12499771509E+03 0.  0.
    9000005    1    3    3    0    0  0.28268796832E+02  0.46270155928E+02 -0.37981060565E+02  0.66208860174E+02  0.10000000000E+01 0.  0.
    9000005    1    3    3    0    0 -0.28268796832E+02 -0.46270155928E+02 -0.15032281714E+03  0.15980613741E+03  0.10000000000E+01 0.  0.
<mgrwt>
<rscale>  0 0.12499772E+03</rscale>
<asrwt>0</asrwt>
<pdfrwt beam="1">  1        4 0.29008555E-02 0.12499772E+03</pdfrwt>
<pdfrwt beam="2">  1       -4 0.31870681E-01 0.12499772E+03</pdfrwt>
<totfact> 0.85929661E+03</totfact>
</mgrwt>
</event>
<event>
 5    1  0.3286491E-002  0.1249946E+03  0.7818608E-02  0.1235078E+00
         -4   -1    0    0    0  501 -0.00000000000E+00  0.00000000000E+00  0.43302244532E+02  0.43320864275E+02  0.12700000000E+01 0. -1.
          4   -1    0    0  501    0  0.00000000000E+00 -0.00000000000E+00 -0.90158745053E+02  0.90167689388E+02  0.12700000000E+01 0. -1.
         25    2    1    2    0    0  0.00000000000E+00  0.00000000000E+00 -0.46856500521E+02  0.13348855366E+03  0.12499464916E+03 0.  0.
    9000005    1    3    3    0    0  0.60852560366E+02  0.13883623627E+02 -0.20201955429E+02  0.65611798568E+02  0.10000000000E+01 0.  0.
    9000005    1    3    3    0    0 -0.60852560366E+02 -0.13883623627E+02 -0.26654545092E+02  0.67876755095E+02  0.10000000000E+01 0.  0.
<mgrwt>
<rscale>  0 0.12499465E+03</rscale>
<asrwt>0</asrwt>
<pdfrwt beam="2">  1        4 0.13872696E-01 0.12499465E+03</pdfrwt>
<pdfrwt beam="1">  1       -4 0.66640041E-02 0.12499465E+03</pdfrwt>
<totfact> 0.10271267E+04</totfact>
</mgrwt>
</event>
<event>
 5    1  0.3286491E-002  0.1250029E+03  0.7818608E-02  0.1235065E+00
         -4   -1    0    0    0  501 -0.00000000000E+00  0.00000000000E+00  0.68967832730E+02  0.68979524872E+02  0.12700000000E+01 0. -1.
          4   -1    0    0  501    0  0.00000000000E+00 -0.00000000000E+00 -0.56617696275E+02  0.56631938263E+02  0.12700000000E+01 0. -1.
         25    2    1    2    0    0  0.00000000000E+00  0.00000000000E+00  0.12350136456E+02  0.12561146313E+03  0.12500285517E+03 0.  0.
    9000005    1    3    3    0    0  0.55919291164E+02 -0.29679713118E+01  0.34052751262E+02  0.65546669225E+02  0.10000000000E+01 0.  0.
    9000005    1    3    3    0    0 -0.55919291164E+02  0.29679713118E+01 -0.21702614806E+02  0.60064793910E+02  0.10000000000E+01 0.  0.
<mgrwt>
<rscale>  0 0.12500286E+03</rscale>
<asrwt>0</asrwt>
<pdfrwt beam="2">  1        4 0.87124097E-02 0.12500286E+03</pdfrwt>
<pdfrwt beam="1">  1       -4 0.10612431E-01 0.12500286E+03</pdfrwt>
<totfact> 0.10438822E+04</totfact>
</mgrwt>
</event>
<event>
 5    1  0.3286491E-002  0.1250030E+03  0.7818608E-02  0.1235065E+00
          4   -1    0    0  501    0  0.00000000000E+00  0.00000000000E+00  0.77038626672E+03  0.77038731353E+03  0.12700000000E+01 0.  1.
         -4   -1    0    0    0  501 -0.00000000000E+00 -0.00000000000E+00 -0.49901623375E+01  0.51492349096E+01  0.12700000000E+01 0.  1.
         25    2    1    2    0    0  0.00000000000E+00  0.00000000000E+00  0.76539610439E+03  0.77553654844E+03  0.12500296542E+03 0.  0.
    9000005    1    3    3    0    0 -0.15545452804E+01  0.26225200419E+02  0.73449319582E+03  0.73496355859E+03  0.10000000000E+01 0.  0.
    9000005    1    3    3    0    0  0.15545452804E+01 -0.26225200419E+02  0.30902908567E+02  0.40572989857E+02  0.10000000000E+01 0.  0.
<mgrwt>
<rscale>  0 0.12500297E+03</rscale>
<asrwt>0</asrwt>
<pdfrwt beam="1">  1        4 0.11853315E+00 0.12500297E+03</pdfrwt>
<pdfrwt beam="2">  1       -4 0.78003505E-03 0.12500297E+03</pdfrwt>
<totfact> 0.39377914E+03</totfact>
</mgrwt>
</event>
<event>
 5    1  0.3286491E-002  0.1250103E+03  0.7818608E-02  0.1235053E+00
         -4   -1    0    0    0  501 -0.00000000000E+00  0.00000000000E+00  0.53848750428E+03  0.53848900190E+03  0.12700000000E+01 0.  1.
          4   -1    0    0  501    0  0.00000000000E+00 -0.00000000000E+00 -0.71982107743E+01  0.73093870025E+01  0.12700000000E+01 0.  1.
         25    2    1    2    0    0  0.00000000000E+00  0.00000000000E+00  0.53128929351E+03  0.54579838890E+03  0.12501027131E+03 0.  0.
    9000005    1    3    3    0    0  0.24342780968E+02 -0.56874573980E+02  0.22693596220E+03  0.23521951257E+03  0.10000000000E+01 0.  0.
    9000005    1    3    3    0    0 -0.24342780968E+02  0.56874573980E+02  0.30435333130E+03  0.31057887633E+03  0.10000000000E+01 0.  0.
<mgrwt>
<rscale>  0 0.12501027E+03</rscale>
<asrwt>0</asrwt>
<pdfrwt beam="2">  1        4 0.11160842E-02 0.12501027E+03</pdfrwt>
<pdfrwt beam="1">  1       -4 0.82852902E-01 0.12501027E+03</pdfrwt>
<totfact> 0.52466365E+03</totfact>
</mgrwt>
</event>
<event>
 5    1  0.3286491E-002  0.1250360E+03  0.7818608E-02  0.1235013E+00
          4   -1    0    0  501    0  0.00000000000E+00  0.00000000000E+00  0.24703141489E+02  0.24735765592E+02  0.12700000000E+01 0. -1.
         -4   -1    0    0    0  501 -0.00000000000E+00 -0.00000000000E+00 -0.15807906061E+03  0.15808416209E+03  0.12700000000E+01 0. -1.
         25    2    1    2    0    0  0.00000000000E+00  0.00000000000E+00 -0.13337591912E+03  0.18281992768E+03  0.12503595545E+03 0.  0.
    9000005    1    3    3    0    0 -0.53480470471E+02  0.20325975892E+02 -0.29866683811E+02  0.64547074447E+02  0.10000000000E+01 0.  0.
    9000005    1    3    3    0    0  0.53480470471E+02 -0.20325975892E+02 -0.10350923531E+03  0.11827285323E+03  0.10000000000E+01 0.  0.
<mgrwt>
<rscale>  0 0.12503596E+03</rscale>
<asrwt>0</asrwt>
<pdfrwt beam="1">  1        4 0.38033854E-02 0.12503596E+03</pdfrwt>
<pdfrwt beam="2">  1       -4 0.24322757E-01 0.12503596E+03</pdfrwt>
<totfact> 0.93036851E+03</totfact>
</mgrwt>
</event>
<event>
 5    1  0.3286491E-002  0.1250047E+03  0.7818608E-02  0.1235062E+00
         -4   -1    0    0    0  501 -0.00000000000E+00  0.00000000000E+00  0.25124305527E+03  0.25124626509E+03  0.12700000000E+01 0.  1.
          4   -1    0    0  501    0  0.00000000000E+00 -0.00000000000E+00 -0.15519616128E+02  0.15571492695E+02  0.12700000000E+01 0.  1.
         25    2    1    2    0    0  0.00000000000E+00  0.00000000000E+00  0.23572343914E+03  0.26681775778E+03  0.12500470434E+03 0.  0.
    9000005    1    3    3    0    0 -0.32391317846E+02 -0.15670579157E+01  0.23188855068E+03  0.23414728928E+03  0.10000000000E+01 0.  0.
    9000005    1    3    3    0    0  0.32391317846E+02  0.15670579157E+01  0.38348884585E+01  0.32670468497E+02  0.10000000000E+01 0.  0.
<mgrwt>
<rscale>  0 0.12500470E+03</rscale>
<asrwt>0</asrwt>
<pdfrwt beam="2">  1        4 0.23918707E-02 0.12500470E+03</pdfrwt>
<pdfrwt beam="1">  1       -4 0.38657015E-01 0.12500470E+03</pdfrwt>
<totfact> 0.79950335E+03</totfact>
</mgrwt>
</event>
<event>
 5    1  0.3286491E-002  0.1249979E+03  0.7818608E-02  0.1235073E+00
         -4   -1    0    0    0  501 -0.00000000000E+00  0.00000000000E+00  0.13559221472E+02  0.13618567727E+02  0.12700000000E+01 0.  1.
          4   -1    0    0  501    0  0.00000000000E+00 -0.00000000000E+00 -0.28738852596E+03  0.28739133208E+03  0.12700000000E+01 0.  1.
         25    2    1    2    0    0  0.00000000000E+00  0.00000000000E+00 -0.27382930449E+03  0.30100989980E+03  0.12499788712E+03 0.  0.
    9000005    1    3    3    0    0 -0.59604921188E+01  0.42790114880E+02 -0.24564324056E+03  0.24941556293E+03  0.10000000000E+01 0.  0.
    9000005    1    3    3    0    0  0.59604921188E+01 -0.42790114880E+02 -0.28186063922E+02  0.51594336872E+02  0.10000000000E+01 0.  0.
<mgrwt>
<rscale>  0 0.12499789E+03</rscale>
<asrwt>0</asrwt>
<pdfrwt beam="2">  1        4 0.44218396E-01 0.12499789E+03</pdfrwt>
<pdfrwt beam="1">  1       -4 0.20908152E-02 0.12499789E+03</pdfrwt>
<totfact> 0.75475875E+03</totfact>
</mgrwt>
</event>
<event>
 5    1  0.3286491E-002  0.1249983E+03  0.7818608E-02  0.1235072E+00
          4   -1    0    0  501    0  0.00000000000E+00  0.00000000000E+00  0.20538008915E+02  0.20577237672E+02  0.12700000000E+01 0.  1.
         -4   -1    0    0    0  501 -0.00000000000E+00 -0.00000000000E+00 -0.18996801502E+03  0.18997226016E+03  0.12700000000E+01 0.  1.
         25    2    1    2    0    0  0.00000000000E+00  0.00000000000E+00 -0.16943000611E+03  0.21054949784E+03  0.12499825626E+03 0.  0.
    9000005    1    3    3    0    0  0.42660198161E+02  0.37516368570E+02 -0.40862779610E+02  0.69986692844E+02  0.10000000000E+01 0.  0.
    9000005    1    3    3    0    0 -0.42660198161E+02 -0.37516368570E+02 -0.12856722650E+03  0.14056280499E+03  0.10000000000E+01 0.  0.
<mgrwt>
<rscale>  0 0.12499826E+03</rscale>
<asrwt>0</asrwt>
<pdfrwt beam="1">  1        4 0.31630380E-02 0.12499826E+03</pdfrwt>
<pdfrwt beam="2">  1       -4 0.29229191E-01 0.12499826E+03</pdfrwt>
<totfact> 0.88389665E+03</totfact>
</mgrwt>
</event>
<event>
 5    1  0.3286491E-002  0.1250024E+03  0.7818608E-02  0.1235066E+00
         -4   -1    0    0    0  501 -0.00000000000E+00  0.00000000000E+00  0.15288487021E+03  0.15289014501E+03  0.12700000000E+01 0. -1.
          4   -1    0    0  501    0  0.00000000000E+00 -0.00000000000E+00 -0.25529738698E+02  0.25561307830E+02  0.12700000000E+01 0. -1.
         25    2    1    2    0    0  0.00000000000E+00  0.00000000000E+00  0.12735513152E+03  0.17845145284E+03  0.12500236596E+03 0.  0.
    9000005    1    3    3    0    0 -0.37526962854E+01 -0.17736376596E+02  0.14905543330E+03  0.15015719756E+03  0.10000000000E+01 0.  0.
    9000005    1    3    3    0    0  0.37526962854E+01  0.17736376596E+02 -0.21700301781E+02  0.28294255275E+02  0.10000000000E+01 0.  0.
<mgrwt>
<rscale>  0 0.12500237E+03</rscale>
<asrwt>0</asrwt>
<pdfrwt beam="2">  1        4 0.39304863E-02 0.12500237E+03</pdfrwt>
<pdfrwt beam="1">  1       -4 0.23523583E-01 0.12500237E+03</pdfrwt>
<totfact> 0.93891510E+03</totfact>
</mgrwt>
</event>
<event>
 5    1  0.3286491E-002  0.1249964E+03  0.7818608E-02  0.1235075E+00
         -4   -1    0    0    0  501 -0.00000000000E+00  0.00000000000E+00  0.95421106459E+01  0.96262544937E+01  0.12700000000E+01 0. -1.
          4   -1    0    0  501    0  0.00000000000E+00 -0.00000000000E+00 -0.40746369802E+03  0.40746567721E+03  0.12700000000E+01 0. -1.
         25    2    1    2    0    0  0.00000000000E+00  0.00000000000E+00 -0.39792158737E+03  0.41709193170E+03  0.12499635912E+03 0.  0.
    9000005    1    3    3    0    0  0.45730000288E+02 -0.24892465621E+02 -0.83651392242E+02  0.98536405430E+02  0.10000000000E+01 0.  0.
    9000005    1    3    3    0    0 -0.45730000288E+02  0.24892465621E+02 -0.31427019513E+03  0.31855552627E+03  0.10000000000E+01 0.  0.
<mgrwt>
<rscale>  0 0.12499636E+03</rscale>
<asrwt>0</asrwt>
<pdfrwt beam="2">  1        4 0.62693334E-01 0.12499636E+03</pdfrwt>
<pdfrwt beam="1">  1       -4 0.14746422E-02 0.12499636E+03</pdfrwt>
<totfact> 0.62928776E+03</totfact>
</mgrwt>
</event>
<event>
 5    1  0.3286491E-002  0.1250009E+03  0.7818608E-02  0.1235068E+00
         -4   -1    0    0    0  501 -0.00000000000E+00  0.00000000000E+00  0.90085223635E+01  0.90976027157E+01  0.12700000000E+01 0.  1.
          4   -1    0    0  501    0  0.00000000000E+00 -0.00000000000E+00 -0.43139998531E+03  0.43140185468E+03  0.12700000000E+01 0.  1.
         25    2    1    2    0    0  0.00000000000E+00  0.00000000000E+00 -0.42239146295E+03  0.44049945740E+03  0.12500089600E+03 0.  0.
    9000005    1    3    3    0    0 -0.24933257490E+02  0.19135083578E+02 -0.20852808164E+02  0.37731397548E+02  0.10000000000E+01 0.  0.
    9000005    1    3    3    0    0  0.24933257490E+02 -0.19135083578E+02 -0.40153865478E+03  0.40276805985E+03  0.10000000000E+01 0.  0.
<mgrwt>
<rscale>  0 0.12500090E+03</rscale>
<asrwt>0</asrwt>
<pdfrwt beam="2">  1        4 0.66376209E-01 0.12500090E+03</pdfrwt>
<pdfrwt beam="1">  1       -4 0.13929230E-02 0.12500090E+03</pdfrwt>
<totfact> 0.60794481E+03</totfact>
</mgrwt>
</event>
<event>
 5    1  0.3286491E-002  0.1249982E+03  0.7818608E-02  0.1235072E+00
         -4   -1    0    0    0  501 -0.00000000000E+00  0.00000000000E+00  0.25804911823E+03  0.25805224339E+03  0.12700000000E+01 0.  1.
          4   -1    0    0  501    0  0.00000000000E+00 -0.00000000000E+00 -0.15107325721E+02  0.15160613129E+02  0.12700000000E+01 0.  1.
         25    2    1    2    0    0  0.00000000000E+00  0.00000000000E+00  0.24294179251E+03  0.27321285652E+03  0.12499820167E+03 0.  0.
    9000005    1    3    3    0    0 -0.65647872022E+01  0.38279143152E+02  0.14464783460E+02  0.41456232245E+02  0.10000000000E+01 0.  0.
    9000005    1    3    3    0    0  0.65647872022E+01 -0.38279143152E+02  0.22847700905E+03  0.23175662428E+03  0.10000000000E+01 0.  0.
<mgrwt>
<rscale>  0 0.12499820E+03</rscale>
<asrwt>0</asrwt>
<pdfrwt beam="2">  1        4 0.23285437E-02 0.12499820E+03</pdfrwt>
<pdfrwt beam="1">  1       -4 0.39704198E-01 0.12499820E+03</pdfrwt>
<totfact> 0.79089890E+03</totfact>
</mgrwt>
</event>
<event>
 5    1  0.3286491E-002  0.1250047E+03  0.7818608E-02  0.1235062E+00
          4   -1    0    0  501    0  0.00000000000E+00  0.00000000000E+00  0.30979272652E+02  0.31005293646E+02  0.12700000000E+01 0.  1.
         -4   -1    0    0    0  501 -0.00000000000E+00 -0.00000000000E+00 -0.12601975204E+03  0.12602615127E+03  0.12700000000E+01 0.  1.
         25    2    1    2    0    0  0.00000000000E+00  0.00000000000E+00 -0.95040479389E+02  0.15703144492E+03  0.12500472779E+03 0.  0.
    9000005    1    3    3    0    0  0.46276347328E+02 -0.32830034426E+02 -0.80427847080E+02  0.98432464505E+02  0.10000000000E+01 0.  0.
    9000005    1    3    3    0    0 -0.46276347328E+02  0.32830034426E+02 -0.14612632308E+02  0.58598980413E+02  0.10000000000E+01 0.  0.
<mgrwt>
<rscale>  0 0.12500473E+03</rscale>
<asrwt>0</asrwt>
<pdfrwt beam="1">  1        4 0.47685359E-02 0.12500473E+03</pdfrwt>
<pdfrwt beam="2">  1       -4 0.19390148E-01 0.12500473E+03</pdfrwt>
<totfact> 0.97907763E+03</totfact>
</mgrwt>
</event>
<event>
 5    1  0.3286491E-002  0.1249981E+03  0.7818608E-02  0.1235072E+00
          4   -1    0    0  501    0  0.00000000000E+00  0.00000000000E+00  0.29217789012E+02  0.29245377322E+02  0.12700000000E+01 0. -1.
         -4   -1    0    0    0  501 -0.00000000000E+00 -0.00000000000E+00 -0.13359652105E+03  0.13360255737E+03  0.12700000000E+01 0. -1.
         25    2    1    2    0    0  0.00000000000E+00  0.00000000000E+00 -0.10437873204E+03  0.16284793469E+03  0.12499812052E+03 0.  0.
    9000005    1    3    3    0    0  0.17035317123E+02  0.40303540435E+02  0.59360236524E+01  0.44168017590E+02  0.10000000000E+01 0.  0.
    9000005    1    3    3    0    0 -0.17035317123E+02 -0.40303540435E+02 -0.11031475569E+03  0.11867991710E+03  0.10000000000E+01 0.  0.
<mgrwt>
<rscale>  0 0.12499812E+03</rscale>
<asrwt>0</asrwt>
<pdfrwt beam="1">  1        4 0.44976311E-02 0.12499812E+03</pdfrwt>
<pdfrwt beam="2">  1       -4 0.20555897E-01 0.12499812E+03</pdfrwt>
<totfact> 0.96800607E+03</totfact>
</mgrwt>
</event>
<event>
 5    1  0.3286491E-002  0.1250052E+03  0.7818608E-02  0.1235061E+00
          4   -1    0    0  501    0  0.00000000000E+00  0.00000000000E+00  0.25061209668E+03  0.25061531458E+03  0.12700000000E+01 0.  1.
         -4   -1    0    0    0  501 -0.00000000000E+00 -0.00000000000E+00 -0.15558949263E+02  0.15610695122E+02  0.12700000000E+01 0.  1.
         25    2    1    2    0    0  0.00000000000E+00  0.00000000000E+00  0.23505314742E+03  0.26622600971E+03  0.12500522442E+03 0.  0.
    9000005    1    3    3    0    0  0.47227139174E+02 -0.28217494263E+02  0.54386711160E+02  0.77366297623E+02  0.10000000000E+01 0.  0.
    9000005    1    3    3    0    0 -0.47227139174E+02  0.28217494263E+02  0.18066643626E+03  0.18885971208E+03  0.10000000000E+01 0.  0.
<mgrwt>
<rscale>  0 0.12500522E+03</rscale>
<asrwt>0</asrwt>
<pdfrwt beam="1">  1        4 0.38559934E-01 0.12500522E+03</pdfrwt>
<pdfrwt beam="2">  1       -4 0.23979126E-02 0.12500522E+03</pdfrwt>
<totfact> 0.80030888E+03</totfact>
</mgrwt>
</event>
<event>
 5    1  0.3286491E-002  0.1249974E+03  0.7818608E-02  0.1235073E+00
         -4   -1    0    0    0  501 -0.00000000000E+00  0.00000000000E+00  0.17442698762E+03  0.17443161099E+03  0.12700000000E+01 0. -1.
          4   -1    0    0  501    0  0.00000000000E+00 -0.00000000000E+00 -0.22370904806E+02  0.22406924864E+02  0.12700000000E+01 0. -1.
         25    2    1    2    0    0  0.00000000000E+00  0.00000000000E+00  0.15205608282E+03  0.19683853585E+03  0.12499742747E+03 0.  0.
    9000005    1    3    3    0    0  0.27434742505E+02  0.30944761018E+02  0.14980335541E+03  0.15541006603E+03  0.10000000000E+01 0.  0.
    9000005    1    3    3    0    0 -0.27434742505E+02 -0.30944761018E+02  0.22527274037E+01  0.41428469819E+02  0.10000000000E+01 0.  0.
<mgrwt>
<rscale>  0 0.12499743E+03</rscale>
<asrwt>0</asrwt>
<pdfrwt beam="2">  1        4 0.34448040E-02 0.12499743E+03</pdfrwt>
<pdfrwt beam="1">  1       -4 0.26838048E-01 0.12499743E+03</pdfrwt>
<totfact> 0.90676079E+03</totfact>
</mgrwt>
</event>
<event>
 5    1  0.3286491E-002  0.1250010E+03  0.7818608E-02  0.1235068E+00
          4   -1    0    0  501    0  0.00000000000E+00  0.00000000000E+00  0.69010660025E+02  0.69022344912E+02  0.12700000000E+01 0. -1.
         -4   -1    0    0    0  501 -0.00000000000E+00 -0.00000000000E+00 -0.56580898476E+02  0.56595149724E+02  0.12700000000E+01 0. -1.
         25    2    1    2    0    0  0.00000000000E+00  0.00000000000E+00  0.12429761550E+02  0.12561749464E+03  0.12500102394E+03 0.  0.
    9000005    1    3    3    0    0 -0.80874081565E+01 -0.50072280279E+02 -0.30470971488E+02  0.59178708388E+02  0.10000000000E+01 0.  0.
    9000005    1    3    3    0    0  0.80874081565E+01  0.50072280279E+02  0.42900733037E+02  0.66438786249E+02  0.10000000000E+01 0.  0.
<mgrwt>
<rscale>  0 0.12500102E+03</rscale>
<asrwt>0</asrwt>
<pdfrwt beam="1">  1        4 0.10619020E-01 0.12500102E+03</pdfrwt>
<pdfrwt beam="2">  1       -4 0.87067487E-02 0.12500102E+03</pdfrwt>
<totfact> 0.10439120E+04</totfact>
</mgrwt>
</event>
<event>
 5    1  0.3286491E-002  0.1249945E+03  0.7818608E-02  0.1235078E+00
         -4   -1    0    0    0  501 -0.00000000000E+00  0.00000000000E+00  0.15332235231E+03  0.15332761205E+03  0.12700000000E+01 0.  1.
          4   -1    0    0  501    0  0.00000000000E+00 -0.00000000000E+00 -0.25453588608E+02  0.25485252069E+02  0.12700000000E+01 0.  1.
         25    2    1    2    0    0  0.00000000000E+00  0.00000000000E+00  0.12786876370E+03  0.17881286412E+03  0.12499447846E+03 0.  0.
    9000005    1    3    3    0    0  0.25519725684E+02  0.94266174306E+00  0.14552381850E+03  0.14775089428E+03  0.10000000000E+01 0.  0.
    9000005    1    3    3    0    0 -0.25519725684E+02 -0.94266174306E+00 -0.17655054802E+02  0.31061969838E+02  0.10000000000E+01 0.  0.
<mgrwt>
<rscale>  0 0.12499448E+03</rscale>
<asrwt>0</asrwt>
<pdfrwt beam="2">  1        4 0.39187769E-02 0.12499448E+03</pdfrwt>
<pdfrwt beam="1">  1       -4 0.23590895E-01 0.12499448E+03</pdfrwt>
<totfact> 0.93842747E+03</totfact>
</mgrwt>
</event>
<event>
 5    1  0.3286491E-002  0.1249995E+03  0.7818608E-02  0.1235070E+00
          4   -1    0    0  501    0  0.00000000000E+00  0.00000000000E+00  0.18318418976E+04  0.18318423378E+04  0.12700000000E+01 0. -1.
         -4   -1    0    0    0  501 -0.00000000000E+00 -0.00000000000E+00 -0.19428269014E+01  0.23210937872E+01  0.12700000000E+01 0. -1.
         25    2    1    2    0    0  0.00000000000E+00  0.00000000000E+00  0.18298990707E+04  0.18341634316E+04  0.12499953990E+03 0.  0.
    9000005    1    3    3    0    0  0.17354278031E+02  0.51679708136E+02  0.13632100518E+04  0.13643000434E+04  0.10000000000E+01 0.  0.
    9000005    1    3    3    0    0 -0.17354278031E+02 -0.51679708136E+02  0.46668901889E+03  0.46986338818E+03  0.10000000000E+01 0.  0.
<mgrwt>
<rscale>  0 0.12499954E+03</rscale>
<asrwt>0</asrwt>
<pdfrwt beam="1">  1        4 0.28185148E+00 0.12499954E+03</pdfrwt>
<pdfrwt beam="2">  1       -4 0.32802716E-03 0.12499954E+03</pdfrwt>
<totfact> 0.12184547E+03</totfact>
</mgrwt>
</event>
<event>
 5    1  0.3286491E-002  0.1250004E+03  0.7818608E-02  0.1235069E+00
          4   -1    0    0  501    0  0.00000000000E+00  0.00000000000E+00  0.27096005289E+03  0.27096302914E+03  0.12700000000E+01 0. -1.
         -4   -1    0    0    0  501 -0.00000000000E+00 -0.00000000000E+00 -0.14385402509E+02  0.14441353999E+02  0.12700000000E+01 0. -1.
         25    2    1    2    0    0  0.00000000000E+00  0.00000000000E+00  0.25657465038E+03  0.28540438314E+03  0.12500044279E+03 0.  0.
    9000005    1    3    3    0    0  0.29210397083E+02  0.17038533422E+02  0.24827560076E+03  0.25057001586E+03  0.10000000000E+01 0.  0.
    9000005    1    3    3    0    0 -0.29210397083E+02 -0.17038533422E+02  0.82990496237E+01  0.34834367277E+02  0.10000000000E+01 0.  0.
<mgrwt>
<rscale>  0 0.12500044E+03</rscale>
<asrwt>0</asrwt>
<pdfrwt beam="1">  1        4 0.41690692E-01 0.12500044E+03</pdfrwt>
<pdfrwt beam="2">  1       -4 0.22176719E-02 0.12500044E+03</pdfrwt>
<totfact> 0.77466176E+03</totfact>
</mgrwt>
</event>
<event>
 5    1  0.3286491E-002  0.1250005E+03  0.7818608E-02  0.1235069E+00
          4   -1    0    0  501    0  0.00000000000E+00  0.00000000000E+00  0.12127385577E+02  0.12193702511E+02  0.12700000000E+01 0.  1.
         -4   -1    0    0    0  501 -0.00000000000E+00 -0.00000000000E+00 -0.32115815809E+03  0.32116066915E+03  0.12700000000E+01 0.  1.
         25    2    1    2    0    0  0.00000000000E+00  0.00000000000E+00 -0.30903077252E+03  0.33335437166E+03  0.12500047498E+03 0.  0.
    9000005    1    3    3    0    0 -0.38438498927E+02 -0.19263031570E+02 -0.33572686314E+02  0.54559214174E+02  0.10000000000E+01 0.  0.
    9000005    1    3    3    0    0  0.38438498927E+02  0.19263031570E+02 -0.27545808620E+03  0.27879515749E+03  0.10000000000E+01 0.  0.
<mgrwt>
<rscale>  0 0.12500047E+03</rscale>
<asrwt>0</asrwt>
<pdfrwt beam="1">  1        4 0.18710463E-02 0.12500047E+03</pdfrwt>
<pdfrwt beam="2">  1       -4 0.49414235E-01 0.12500047E+03</pdfrwt>
<totfact> 0.71594703E+03</totfact>
</mgrwt>
</event>
<event>
 5    1  0.3286491E-002  0.1250005E+03  0.7818608E-02  0.1235068E+00
         -4   -1    0    0    0  501 -0.00000000000E+00  0.00000000000E+00  0.15318995718E+03  0.15319522146E+03  0.12700000000E+01 0. -1.
          4   -1    0    0  501    0  0.00000000000E+00 -0.00000000000E+00 -0.25478080718E+02  0.25509713779E+02  0.12700000000E+01 0. -1.
         25    2    1    2    0    0  0.00000000000E+00  0.00000000000E+00  0.12771187646E+03  0.17870493524E+03  0.12500052197E+03 0.  0.
    9000005    1    3    3    0    0 -0.35621651132E+02  0.33270259236E+02  0.11976668133E+03  0.12930920360E+03  0.10000000000E+01 0.  0.
    9000005    1    3    3    0    0  0.35621651132E+02 -0.33270259236E+02  0.79451951291E+01  0.49395731644E+02  0.10000000000E+01 0.  0.
<mgrwt>
<rscale>  0 0.12500052E+03</rscale>
<asrwt>0</asrwt>
<pdfrwt beam="2">  1        4 0.39225430E-02 0.12500052E+03</pdfrwt>
<pdfrwt beam="1">  1       -4 0.23570524E-01 0.12500052E+03</pdfrwt>
<totfact> 0.93849541E+03</totfact>
</mgrwt>
</event>
<event>
 5    1  0.3286491E-002  0.1249932E+03  0.7818608E-02  0.1235080E+00
          4   -1    0    0  501    0  0.00000000000E+00  0.00000000000E+00  0.35765381536E+03  0.35765607018E+03  0.12700000000E+01 0.  1.
         -4   -1    0    0    0  501 -0.00000000000E+00 -0.00000000000E+00 -0.10881458967E+02  0.10955320591E+02  0.12700000000E+01 0.  1.
         25    2    1    2    0    0  0.00000000000E+00  0.00000000000E+00  0.34677235639E+03  0.36861139078E+03  0.12499316083E+03 0.  0.
    9000005    1    3    3    0    0  0.29257609445E+02  0.29942183003E+02  0.36571737476E+02  0.55597068407E+02  0.10000000000E+01 0.  0.
    9000005    1    3    3    0    0 -0.29257609445E+02 -0.29942183003E+02  0.31020061891E+03  0.31301432237E+03  0.10000000000E+01 0.  0.
<mgrwt>
<rscale>  0 0.12499316E+03</rscale>
<asrwt>0</asrwt>
<pdfrwt beam="1">  1        4 0.55029526E-01 0.12499316E+03</pdfrwt>
<pdfrwt beam="2">  1       -4 0.16799255E-02 0.12499316E+03</pdfrwt>
<totfact> 0.67734697E+03</totfact>
</mgrwt>
</event>
<event>
 5    1  0.3286491E-002  0.1250001E+03  0.7818608E-02  0.1235069E+00
         -4   -1    0    0    0  501 -0.00000000000E+00  0.00000000000E+00  0.84731901343E+02  0.84741418475E+02  0.12700000000E+01 0.  1.
          4   -1    0    0  501    0  0.00000000000E+00 -0.00000000000E+00 -0.46080484988E+02  0.46097982567E+02  0.12700000000E+01 0.  1.
         25    2    1    2    0    0  0.00000000000E+00  0.00000000000E+00  0.38651416355E+02  0.13083940104E+03  0.12500006752E+03 0.  0.
    9000005    1    3    3    0    0  0.37944230458E+02  0.14632387628E+02 -0.30339581662E+02  0.50748020731E+02  0.10000000000E+01 0.  0.
    9000005    1    3    3    0    0 -0.37944230458E+02 -0.14632387628E+02  0.68990998016E+02  0.80091380310E+02  0.10000000000E+01 0.  0.
<mgrwt>
<rscale>  0 0.12500007E+03</rscale>
<asrwt>0</asrwt>
<pdfrwt beam="2">  1        4 0.70913835E-02 0.12500007E+03</pdfrwt>
<pdfrwt beam="1">  1       -4 0.13037755E-01 0.12500007E+03</pdfrwt>
<totfact> 0.10326518E+04</totfact>
</mgrwt>
</event>
<event>
 5    1  0.3286491E-002  0.1250015E+03  0.7818608E-02  0.1235067E+00
          4   -1    0    0  501    0  0.00000000000E+00  0.00000000000E+00  0.36524041584E+02  0.36546114891E+02  0.12700000000E+01 0.  1.
         -4   -1    0    0    0  501 -0.00000000000E+00 -0.00000000000E+00 -0.10689452157E+03  0.10690206566E+03  0.12700000000E+01 0.  1.
         25    2    1    2    0    0  0.00000000000E+00  0.00000000000E+00 -0.70370479987E+02  0.14344818055E+03  0.12500150419E+03 0.  0.
    9000005    1    3    3    0    0  0.60158263867E+02 -0.38031768446E+01 -0.16263765581E+02  0.62441900487E+02  0.10000000000E+01 0.  0.
    9000005    1    3    3    0    0 -0.60158263867E+02  0.38031768446E+01 -0.54106714405E+02  0.81006280061E+02  0.10000000000E+01 0.  0.
<mgrwt>
<rscale>  0 0.12500150E+03</rscale>
<asrwt>0</asrwt>
<pdfrwt beam="1">  1        4 0.56213616E-02 0.12500150E+03</pdfrwt>
<pdfrwt beam="2">  1       -4 0.16447589E-01 0.12500150E+03</pdfrwt>
<totfact> 0.10062273E+04</totfact>
</mgrwt>
</event>
<event>
 5    1  0.3286491E-002  0.1249985E+03  0.7818608E-02  0.1235072E+00
          4   -1    0    0  501    0  0.00000000000E+00  0.00000000000E+00  0.21470061255E+03  0.21470436868E+03  0.12700000000E+01 0. -1.
         -4   -1    0    0    0  501 -0.00000000000E+00 -0.00000000000E+00 -0.18167413903E+02  0.18211749722E+02  0.12700000000E+01 0. -1.
         25    2    1    2    0    0  0.00000000000E+00  0.00000000000E+00  0.19653319865E+03  0.23291611840E+03  0.12499848015E+03 0.  0.
    9000005    1    3    3    0    0  0.12070242300E+02  0.29702737367E+01  0.21238287838E+03  0.21274867874E+03  0.10000000000E+01 0.  0.
    9000005    1    3    3    0    0 -0.12070242300E+02 -0.29702737367E+01 -0.15849679728E+02  0.20167439667E+02  0.10000000000E+01 0.  0.
<mgrwt>
<rscale>  0 0.12499848E+03</rscale>
<asrwt>0</asrwt>
<pdfrwt beam="1">  1        4 0.33034560E-01 0.12499848E+03</pdfrwt>
<pdfrwt beam="2">  1       -4 0.27986864E-02 0.12499848E+03</pdfrwt>
<totfact> 0.84866705E+03</totfact>
</mgrwt>
</event>
<event>
 5    1  0.3286491E-002  0.1249984E+03  0.7818608E-02  0.1235072E+00
         -4   -1    0    0    0  501 -0.00000000000E+00  0.00000000000E+00  0.10072614285E+03  0.10073414890E+03  0.12700000000E+01 0. -1.
          4   -1    0    0  501    0  0.00000000000E+00 -0.00000000000E+00 -0.38759981552E+02  0.38780782224E+02  0.12700000000E+01 0. -1.
         25    2    1    2    0    0  0.00000000000E+00  0.00000000000E+00  0.61966161300E+02  0.13951493112E+03  0.12499844343E+03 0.  0.
    9000005    1    3    3    0    0 -0.22637966798E+02  0.27375275757E+02  0.88366550104E+02  0.95244582212E+02  0.10000000000E+01 0.  0.
    9000005    1    3    3    0    0  0.22637966798E+02 -0.27375275757E+02 -0.26400388803E+02  0.44270348909E+02  0.10000000000E+01 0.  0.
<mgrwt>
<rscale>  0 0.12499844E+03</rscale>
<asrwt>0</asrwt>
<pdfrwt beam="2">  1        4 0.59652900E-02 0.12499844E+03</pdfrwt>
<pdfrwt beam="1">  1       -4 0.15498546E-01 0.12499844E+03</pdfrwt>
<totfact> 0.10144005E+04</totfact>
</mgrwt>
</event>
<event>
 5    1  0.3286491E-002  0.1249906E+03  0.7818608E-02  0.1235084E+00
         -4   -1    0    0    0  501 -0.00000000000E+00  0.00000000000E+00  0.44862313121E+03  0.44862492882E+03  0.12700000000E+01 0.  1.
          4   -1    0    0  501    0  0.00000000000E+00 -0.00000000000E+00 -0.86577511792E+01  0.87504031611E+01  0.12700000000E+01 0.  1.
         25    2    1    2    0    0  0.00000000000E+00  0.00000000000E+00  0.43996538003E+03  0.45737533198E+03  0.12499063436E+03 0.  0.
    9000005    1    3    3    0    0  0.44872723021E+02  0.37679310565E+02  0.14053567302E+03  0.15226479274E+03  0.10000000000E+01 0.  0.
    9000005    1    3    3    0    0 -0.44872723021E+02 -0.37679310565E+02  0.29942970701E+03  0.30511053924E+03  0.10000000000E+01 0.  0.
<mgrwt>
<rscale>  0 0.12499063E+03</rscale>
<asrwt>0</asrwt>
<pdfrwt beam="2">  1        4 0.13392270E-02 0.12499063E+03</pdfrwt>
<pdfrwt beam="1">  1       -4 0.69026214E-01 0.12499063E+03</pdfrwt>
<totfact> 0.59342387E+03</totfact>
</mgrwt>
</event>
<event>
 5    1  0.3286491E-002  0.1250000E+03  0.7818608E-02  0.1235069E+00
         -4   -1    0    0    0  501 -0.00000000000E+00  0.00000000000E+00  0.31446112302E+03  0.31446368755E+03  0.12700000000E+01 0. -1.
          4   -1    0    0  501    0  0.00000000000E+00 -0.00000000000E+00 -0.12386952717E+02  0.12451887311E+02  0.12700000000E+01 0. -1.
         25    2    1    2    0    0  0.00000000000E+00  0.00000000000E+00  0.30207417030E+03  0.32691557486E+03  0.12499995490E+03 0.  0.
    9000005    1    3    3    0    0  0.11864636467E+02 -0.61137939824E+02  0.16453325387E+03  0.17592841986E+03  0.10000000000E+01 0.  0.
    9000005    1    3    3    0    0 -0.11864636467E+02  0.61137939824E+02  0.13754091643E+03  0.15098715500E+03  0.10000000000E+01 0.  0.
<mgrwt>
<rscale>  0 0.12499995E+03</rscale>
<asrwt>0</asrwt>
<pdfrwt beam="2">  1        4 0.19108773E-02 0.12499995E+03</pdfrwt>
<pdfrwt beam="1">  1       -4 0.48383826E-01 0.12499995E+03</pdfrwt>
<totfact> 0.72341160E+03</totfact>
</mgrwt>
</event>
<event>
 5    1  0.3286491E-002  0.1249980E+03  0.7818608E-02  0.1235072E+00
         -4   -1    0    0    0  501 -0.00000000000E+00  0.00000000000E+00  0.34277480673E+01  0.36554557599E+01  0.12700000000E+01 0.  1.
          4   -1    0    0  501    0  0.00000000000E+00 -0.00000000000E+00 -0.11026984884E+04  0.11026992197E+04  0.12700000000E+01 0.  1.
         25    2    1    2    0    0  0.00000000000E+00  0.00000000000E+00 -0.10992707403E+04  0.11063546755E+04  0.12499802980E+03 0.  0.
    9000005    1    3    3    0    0  0.55416297634E+02  0.16441060335E+02 -0.33946382989E+03  0.34435151562E+03  0.10000000000E+01 0.  0.
    9000005    1    3    3    0    0 -0.55416297634E+02 -0.16441060335E+02 -0.75980691042E+03  0.76200315985E+03  0.10000000000E+01 0.  0.
<mgrwt>
<rscale>  0 0.12499803E+03</rscale>
<asrwt>0</asrwt>
<pdfrwt beam="2">  1        4 0.16966322E+00 0.12499803E+03</pdfrwt>
<pdfrwt beam="1">  1       -4 0.54491897E-03 0.12499803E+03</pdfrwt>
<totfact> 0.27299374E+03</totfact>
</mgrwt>
</event>
<event>
 5    1  0.3286491E-002  0.1249970E+03  0.7818608E-02  0.1235074E+00
          4   -1    0    0  501    0  0.00000000000E+00  0.00000000000E+00  0.13582334213E+03  0.13582927949E+03  0.12700000000E+01 0. -1.
         -4   -1    0    0    0  501 -0.00000000000E+00 -0.00000000000E+00 -0.28737797688E+02  0.28765846345E+02  0.12700000000E+01 0. -1.
         25    2    1    2    0    0  0.00000000000E+00  0.00000000000E+00  0.10708554444E+03  0.16459512584E+03  0.12499696645E+03 0.  0.
    9000005    1    3    3    0    0  0.61707863551E+02 -0.98532707407E+01  0.53985490773E+02  0.82585595489E+02  0.10000000000E+01 0.  0.
    9000005    1    3    3    0    0 -0.61707863551E+02  0.98532707407E+01  0.53100053669E+02  0.82009530348E+02  0.10000000000E+01 0.  0.
<mgrwt>
<rscale>  0 0.12499697E+03</rscale>
<asrwt>0</asrwt>
<pdfrwt beam="1">  1        4 0.20898513E-01 0.12499697E+03</pdfrwt>
<pdfrwt beam="2">  1       -4 0.44238139E-02 0.12499697E+03</pdfrwt>
<totfact> 0.96470698E+03</totfact>
</mgrwt>
</event>
<event>
 5    1  0.3286491E-002  0.1249979E+03  0.7818608E-02  0.1235072E+00
          4   -1    0    0  501    0  0.00000000000E+00  0.00000000000E+00  0.21088284251E+02  0.21126491253E+02  0.12700000000E+01 0. -1.
         -4   -1    0    0    0  501 -0.00000000000E+00 -0.00000000000E+00 -0.18501905389E+03  0.18502341258E+03  0.12700000000E+01 0. -1.
         25    2    1    2    0    0  0.00000000000E+00  0.00000000000E+00 -0.16393076964E+03  0.20614990383E+03  0.12499794244E+03 0.  0.
    9000005    1    3    3    0    0 -0.32961039275E+02 -0.42841756920E+02 -0.13368053684E+03  0.14419893265E+03  0.10000000000E+01 0.  0.
    9000005    1    3    3    0    0  0.32961039275E+02  0.42841756920E+02 -0.30250232792E+02  0.61950971180E+02  0.10000000000E+01 0.  0.
<mgrwt>
<rscale>  0 0.12499794E+03</rscale>
<asrwt>0</asrwt>
<pdfrwt beam="1">  1        4 0.32476258E-02 0.12499794E+03</pdfrwt>
<pdfrwt beam="2">  1       -4 0.28467743E-01 0.12499794E+03</pdfrwt>
<totfact> 0.89112639E+03</totfact>
</mgrwt>
</event>
<event>
 5    1  0.3286491E-002  0.1250034E+03  0.7818608E-02  0.1235064E+00
         -4   -1    0    0    0  501 -0.00000000000E+00  0.00000000000E+00  0.65597106530E+03  0.65597229470E+03  0.12700000000E+01 0.  1.
          4   -1    0    0  501    0  0.00000000000E+00 -0.00000000000E+00 -0.58862766979E+01  0.60217234547E+01  0.12700000000E+01 0.  1.
         25    2    1    2    0    0  0.00000000000E+00  0.00000000000E+00  0.65008478861E+03  0.66199401816E+03  0.12500339074E+03 0.  0.
    9000005    1    3    3    0    0 -0.17449773620E+02  0.54717644424E+01  0.64150969720E+03  0.64177108568E+03  0.10000000000E+01 0.  0.
    9000005    1    3    3    0    0  0.17449773620E+02 -0.54717644424E+01  0.85750914041E+01  0.20222932480E+02  0.10000000000E+01 0.  0.
<mgrwt>
<rscale>  0 0.12500339E+03</rscale>
<asrwt>0</asrwt>
<pdfrwt beam="2">  1        4 0.91609502E-03 0.12500339E+03</pdfrwt>
<pdfrwt beam="1">  1       -4 0.10092909E+00 0.12500339E+03</pdfrwt>
<totfact> 0.45166887E+03</totfact>
</mgrwt>
</event>
<event>
 5    1  0.3286491E-002  0.1250143E+03  0.7818608E-02  0.1235047E+00
         -4   -1    0    0    0  501 -0.00000000000E+00  0.00000000000E+00  0.23854642043E+02  0.23888424958E+02  0.12700000000E+01 0.  1.
          4   -1    0    0  501    0  0.00000000000E+00 -0.00000000000E+00 -0.16363764614E+03  0.16364257433E+03  0.12700000000E+01 0.  1.
         25    2    1    2    0    0  0.00000000000E+00  0.00000000000E+00 -0.13978300409E+03  0.18753099929E+03  0.12501434902E+03 0.  0.
    9000005    1    3    3    0    0 -0.49518106666E+02  0.32173081897E+02 -0.39185834316E+02  0.70877921086E+02  0.10000000000E+01 0.  0.
    9000005    1    3    3    0    0  0.49518106666E+02 -0.32173081897E+02 -0.10059716978E+03  0.11665307820E+03  0.10000000000E+01 0.  0.
<mgrwt>
<rscale>  0 0.12501435E+03</rscale>
<asrwt>0</asrwt>
<pdfrwt beam="2">  1        4 0.25178000E-01 0.12501435E+03</pdfrwt>
<pdfrwt beam="1">  1       -4 0.36729228E-02 0.12501435E+03</pdfrwt>
<totfact> 0.92249035E+03</totfact>
</mgrwt>
</event>
<event>
 5    1  0.3286491E-002  0.1250043E+03  0.7818608E-02  0.1235063E+00
         -4   -1    0    0    0  501 -0.00000000000E+00  0.00000000000E+00  0.12692307308E+03  0.12692942676E+03  0.12700000000E+01 0.  1.
          4   -1    0    0  501    0  0.00000000000E+00 -0.00000000000E+00 -0.30758413747E+02  0.30784621424E+02  0.12700000000E+01 0.  1.
         25    2    1    2    0    0  0.00000000000E+00  0.00000000000E+00  0.96164659328E+02  0.15771404819E+03  0.12500431710E+03 0.  0.
    9000005    1    3    3    0    0 -0.29908718667E+02 -0.42884986118E+02  0.91272449275E+02  0.10519179380E+03  0.10000000000E+01 0.  0.
    9000005    1    3    3    0    0  0.29908718667E+02  0.42884986118E+02  0.48922100530E+01  0.52522254387E+02  0.10000000000E+01 0.  0.
<mgrwt>
<rscale>  0 0.12500432E+03</rscale>
<asrwt>0</asrwt>
<pdfrwt beam="2">  1        4 0.47345685E-02 0.12500432E+03</pdfrwt>
<pdfrwt beam="1">  1       -4 0.19529131E-01 0.12500432E+03</pdfrwt>
<totfact> 0.97775827E+03</totfact>
</mgrwt>
</event>
<event>
 5    1  0.3286491E-002  0.1249996E+03  0.7818608E-02  0.1235070E+00
         -4   -1    0    0    0  501 -0.00000000000E+00  0.00000000000E+00  0.77713376221E+01  0.78744262291E+01  0.12700000000E+01 0.  1.
          4   -1    0    0  501    0  0.00000000000E+00 -0.00000000000E+00 -0.49922894225E+03  0.49923055764E+03  0.12700000000E+01 0.  1.
         25    2    1    2    0    0  0.00000000000E+00  0.00000000000E+00 -0.49145760463E+03  0.50710498387E+03  0.12499955007E+03 0.  0.
    9000005    1    3    3    0    0 -0.23490158975E+02  0.55644962935E+02 -0.31077428846E+03  0.31659091560E+03  0.10000000000E+01 0.  0.
    9000005    1    3    3    0    0  0.23490158975E+02 -0.55644962935E+02 -0.18068331616E+03  0.19051406827E+03  0.10000000000E+01 0.  0.
<mgrwt>
<rscale>  0 0.12499955E+03</rscale>
<asrwt>0</asrwt>
<pdfrwt beam="2">  1        4 0.76812482E-01 0.12499955E+03</pdfrwt>
<pdfrwt beam="1">  1       -4 0.12036450E-02 0.12499955E+03</pdfrwt>
<totfact> 0.55317849E+03</totfact>
</mgrwt>
</event>
<event>
 5    1  0.3286491E-002  0.1250010E+03  0.7818608E-02  0.1235068E+00
         -4   -1    0    0    0  501 -0.00000000000E+00  0.00000000000E+00  0.65907867511E+01  0.67120317340E+01  0.12700000000E+01 0. -1.
          4   -1    0    0  501    0  0.00000000000E+00 -0.00000000000E+00 -0.58716887603E+03  0.58717024948E+03  0.12700000000E+01 0. -1.
         25    2    1    2    0    0  0.00000000000E+00  0.00000000000E+00 -0.58057808928E+03  0.59388228121E+03  0.12500098477E+03 0.  0.
    9000005    1    3    3    0    0 -0.57658272881E+02 -0.20165297096E+02 -0.35299458435E+03  0.35824194649E+03  0.10000000000E+01 0.  0.
    9000005    1    3    3    0    0  0.57658272881E+02  0.20165297096E+02 -0.22758350492E+03  0.23564033473E+03  0.10000000000E+01 0.  0.
<mgrwt>
<rscale>  0 0.12500098E+03</rscale>
<asrwt>0</asrwt>
<pdfrwt beam="2">  1        4 0.90343065E-01 0.12500098E+03</pdfrwt>
<pdfrwt beam="1">  1       -4 0.10233998E-02 0.12500098E+03</pdfrwt>
<totfact> 0.49255022E+03</totfact>
</mgrwt>
</event>
<event>
 5    1  0.3286491E-002  0.1249628E+03  0.7818608E-02  0.1235127E+00
          4   -1    0    0  501    0  0.00000000000E+00  0.00000000000E+00  0.43434164739E+03  0.43434350411E+03  0.12700000000E+01 0.  1.
         -4   -1    0    0    0  501 -0.00000000000E+00 -0.00000000000E+00 -0.89414015073E+01  0.90311439428E+01  0.12700000000E+01 0.  1.
         25    2    1    2    0    0  0.00000000000E+00  0.00000000000E+00  0.42540024589E+03  0.44337464805E+03  0.12496283181E+03 0.  0.
    9000005    1    3    3    0    0 -0.32635664624E+02 -0.43372251421E+02  0.32244273251E+03  0.32698096971E+03  0.10000000000E+01 0.  0.
    9000005    1    3    3    0    0  0.32635664624E+02  0.43372251421E+02  0.10295751337E+03  0.11639367835E+03  0.10000000000E+01 0.  0.
<mgrwt>
<rscale>  0 0.12496283E+03</rscale>
<asrwt>0</asrwt>
<pdfrwt beam="1">  1        4 0.66828856E-01 0.12496283E+03</pdfrwt>
<pdfrwt beam="2">  1       -4 0.13826459E-02 0.12496283E+03</pdfrwt>
<totfact> 0.60591671E+03</totfact>
</mgrwt>
</event>
<event>
 5    1  0.3286491E-002  0.1249938E+03  0.7818608E-02  0.1235079E+00
          4   -1    0    0  501    0  0.00000000000E+00  0.00000000000E+00  0.83367669451E+02  0.83377342304E+02  0.12700000000E+01 0. -1.
         -4   -1    0    0    0  501 -0.00000000000E+00 -0.00000000000E+00 -0.46830036717E+02  0.46847254337E+02  0.12700000000E+01 0. -1.
         25    2    1    2    0    0  0.00000000000E+00  0.00000000000E+00  0.36537632734E+02  0.13022459664E+03  0.12499378770E+03 0.  0.
    9000005    1    3    3    0    0 -0.61725534875E+02  0.80221361323E+01  0.12518282592E+02  0.63498848201E+02  0.10000000000E+01 0.  0.
    9000005    1    3    3    0    0  0.61725534875E+02 -0.80221361323E+01  0.24019350142E+02  0.66725748441E+02  0.10000000000E+01 0.  0.
<mgrwt>
<rscale>  0 0.12499379E+03</rscale>
<asrwt>0</asrwt>
<pdfrwt beam="1">  1        4 0.12827864E-01 0.12499379E+03</pdfrwt>
<pdfrwt beam="2">  1       -4 0.72066895E-02 0.12499379E+03</pdfrwt>
<totfact> 0.10341155E+04</totfact>
</mgrwt>
</event>
<event>
 5    1  0.3286491E-002  0.1250055E+03  0.7818608E-02  0.1235061E+00
          4   -1    0    0  501    0  0.00000000000E+00  0.00000000000E+00  0.17641876834E+03  0.17642333951E+03  0.12700000000E+01 0. -1.
         -4   -1    0    0    0  501 -0.00000000000E+00 -0.00000000000E+00 -0.22120807218E+02  0.22157233852E+02  0.12700000000E+01 0. -1.
         25    2    1    2    0    0  0.00000000000E+00  0.00000000000E+00  0.15429796112E+03  0.19858057336E+03  0.12500553311E+03 0.  0.
    9000005    1    3    3    0    0  0.52163593737E+02 -0.69236271377E+01  0.13070581787E+03  0.14090418003E+03  0.10000000000E+01 0.  0.
    9000005    1    3    3    0    0 -0.52163593737E+02  0.69236271377E+01  0.23592143251E+02  0.57676393330E+02  0.10000000000E+01 0.  0.
<mgrwt>
<rscale>  0 0.12500553E+03</rscale>
<asrwt>0</asrwt>
<pdfrwt beam="1">  1        4 0.27144505E-01 0.12500553E+03</pdfrwt>
<pdfrwt beam="2">  1       -4 0.34063545E-02 0.12500553E+03</pdfrwt>
<totfact> 0.90364192E+03</totfact>
</mgrwt>
</event>
<event>
 5    1  0.3286491E-002  0.1249983E+03  0.7818608E-02  0.1235072E+00
         -4   -1    0    0    0  501 -0.00000000000E+00  0.00000000000E+00  0.53847752002E+02  0.53862726404E+02  0.12700000000E+01 0.  1.
          4   -1    0    0  501    0  0.00000000000E+00 -0.00000000000E+00 -0.72509941600E+02  0.72521062670E+02  0.12700000000E+01 0.  1.
         25    2    1    2    0    0  0.00000000000E+00  0.00000000000E+00 -0.18662189598E+02  0.12638378907E+03  0.12499833927E+03 0.  0.
    9000005    1    3    3    0    0  0.49047945006E+02  0.20371184581E+02  0.23965047927E+02  0.58275291443E+02  0.10000000000E+01 0.  0.
    9000005    1    3    3    0    0 -0.49047945006E+02 -0.20371184581E+02 -0.42627237525E+02  0.68108497631E+02  0.10000000000E+01 0.  0.
<mgrwt>
<rscale>  0 0.12499834E+03</rscale>
<asrwt>0</asrwt>
<pdfrwt beam="2">  1        4 0.11157383E-01 0.12499834E+03</pdfrwt>
<pdfrwt beam="1">  1       -4 0.82862768E-02 0.12499834E+03</pdfrwt>
<totfact> 0.10422954E+04</totfact>
</mgrwt>
</event>
<event>
 5    1  0.3286491E-002  0.1249595E+03  0.7818608E-02  0.1235133E+00
         -4   -1    0    0    0  501 -0.00000000000E+00  0.00000000000E+00  0.38872730077E+02  0.38893470450E+02  0.12700000000E+01 0.  1.
          4   -1    0    0  501    0  0.00000000000E+00 -0.00000000000E+00 -0.10037153784E+03  0.10037957217E+03  0.12700000000E+01 0.  1.
         25    2    1    2    0    0  0.00000000000E+00  0.00000000000E+00 -0.61498807763E+02  0.13927304262E+03  0.12495950161E+03 0.  0.
    9000005    1    3    3    0    0  0.46260816382E+02  0.26484693301E+02  0.55583939759E+01  0.53604084315E+02  0.10000000000E+01 0.  0.
    9000005    1    3    3    0    0 -0.46260816382E+02 -0.26484693301E+02 -0.67057201739E+02  0.85668958303E+02  0.10000000000E+01 0.  0.
<mgrwt>
<rscale>  0 0.12495950E+03</rscale>
<asrwt>0</asrwt>
<pdfrwt beam="2">  1        4 0.15443988E-01 0.12495950E+03</pdfrwt>
<pdfrwt beam="1">  1       -4 0.59826335E-02 0.12495950E+03</pdfrwt>
<totfact> 0.10157940E+04</totfact>
</mgrwt>
</event>
<event>
 5    1  0.3286491E-002  0.1250010E+03  0.7818608E-02  0.1235068E+00
          4   -1    0    0  501    0  0.00000000000E+00  0.00000000000E+00  0.50366916616E+02  0.50382925574E+02  0.12700000000E+01 0. -1.
         -4   -1    0    0    0  501 -0.00000000000E+00 -0.00000000000E+00 -0.77523519319E+02  0.77533921271E+02  0.12700000000E+01 0. -1.
         25    2    1    2    0    0  0.00000000000E+00  0.00000000000E+00 -0.27156602703E+02  0.12791684685E+03  0.12500095454E+03 0.  0.
    9000005    1    3    3    0    0  0.34348443545E+02  0.51487086206E+02 -0.47412322818E+01  0.62082323599E+02  0.10000000000E+01 0.  0.
    9000005    1    3    3    0    0 -0.34348443545E+02 -0.51487086206E+02 -0.22415370421E+02  0.65834523246E+02  0.10000000000E+01 0.  0.
<mgrwt>
<rscale>  0 0.12500095E+03</rscale>
<asrwt>0</asrwt>
<pdfrwt beam="1">  1        4 0.77507880E-02 0.12500095E+03</pdfrwt>
<pdfrwt beam="2">  1       -4 0.11928727E-01 0.12500095E+03</pdfrwt>
<totfact> 0.10389060E+04</totfact>
</mgrwt>
</event>
<event>
 5    1  0.3286491E-002  0.1249985E+03  0.7818608E-02  0.1235072E+00
          4   -1    0    0  501    0  0.00000000000E+00  0.00000000000E+00  0.92791406515E+02  0.92800097107E+02  0.12700000000E+01 0. -1.
         -4   -1    0    0    0  501 -0.00000000000E+00 -0.00000000000E+00 -0.42075886023E+02  0.42095048220E+02  0.12700000000E+01 0. -1.
         25    2    1    2    0    0  0.00000000000E+00  0.00000000000E+00  0.50715520492E+02  0.13489514533E+03  0.12499854485E+03 0.  0.
    9000005    1    3    3    0    0 -0.18472701973E+01 -0.59949218313E+02  0.44292196789E+02  0.74566211382E+02  0.10000000000E+01 0.  0.
    9000005    1    3    3    0    0  0.18472701973E+01  0.59949218313E+02  0.64233237031E+01  0.60328933945E+02  0.10000000000E+01 0.  0.
<mgrwt>
<rscale>  0 0.12499854E+03</rscale>
<asrwt>0</asrwt>
<pdfrwt beam="1">  1        4 0.14277743E-01 0.12499854E+03</pdfrwt>
<pdfrwt beam="2">  1       -4 0.64753559E-02 0.12499854E+03</pdfrwt>
<totfact> 0.10240618E+04</totfact>
</mgrwt>
</event>
<event>
 5    1  0.3286491E-002  0.1250009E+03  0.7818608E-02  0.1235068E+00
         -4   -1    0    0    0  501 -0.00000000000E+00  0.00000000000E+00  0.44504471661E+01  0.46281076022E+01  0.12700000000E+01 0.  1.
          4   -1    0    0  501    0  0.00000000000E+00 -0.00000000000E+00 -0.86037873935E+03  0.86037967667E+03  0.12700000000E+01 0.  1.
         25    2    1    2    0    0  0.00000000000E+00  0.00000000000E+00 -0.85592829218E+03  0.86500778427E+03  0.12500090195E+03 0.  0.
    9000005    1    3    3    0    0  0.22847896272E+02 -0.14031172256E+02 -0.37341480628E+02  0.45981369427E+02  0.10000000000E+01 0.  0.
    9000005    1    3    3    0    0 -0.22847896272E+02  0.14031172256E+02 -0.81858681156E+03  0.81902641484E+03  0.10000000000E+01 0.  0.
<mgrwt>
<rscale>  0 0.12500090E+03</rscale>
<asrwt>0</asrwt>
<pdfrwt beam="2">  1        4 0.13237957E+00 0.12500090E+03</pdfrwt>
<pdfrwt beam="1">  1       -4 0.69842315E-03 0.12500090E+03</pdfrwt>
<totfact> 0.35520275E+03</totfact>
</mgrwt>
</event>
<event>
 5    1  0.3286491E-002  0.1249988E+03  0.7818608E-02  0.1235071E+00
         -4   -1    0    0    0  501 -0.00000000000E+00  0.00000000000E+00  0.26465285885E+02  0.26495740355E+02  0.12700000000E+01 0.  1.
          4   -1    0    0  501    0  0.00000000000E+00 -0.00000000000E+00 -0.14747801809E+03  0.14748348627E+03  0.12700000000E+01 0.  1.
         25    2    1    2    0    0  0.00000000000E+00  0.00000000000E+00 -0.12101273221E+03  0.17397922662E+03  0.12499875975E+03 0.  0.
    9000005    1    3    3    0    0  0.16911313433E+02 -0.51554532784E+02 -0.10366060361E+03  0.11700591059E+03  0.10000000000E+01 0.  0.
    9000005    1    3    3    0    0 -0.16911313433E+02  0.51554532784E+02 -0.17352128602E+02  0.56973316032E+02  0.10000000000E+01 0.  0.
<mgrwt>
<rscale>  0 0.12499876E+03</rscale>
<asrwt>0</asrwt>
<pdfrwt beam="2">  1        4 0.22691689E-01 0.12499876E+03</pdfrwt>
<pdfrwt beam="1">  1       -4 0.40743458E-02 0.12499876E+03</pdfrwt>
<totfact> 0.94714762E+03</totfact>
</mgrwt>
</event>
<event>
 5    1  0.3286491E-002  0.1249991E+03  0.7818608E-02  0.1235071E+00
         -4   -1    0    0    0  501 -0.00000000000E+00  0.00000000000E+00  0.48115895943E+03  0.48116063548E+03  0.12700000000E+01 0. -1.
          4   -1    0    0  501    0  0.00000000000E+00 -0.00000000000E+00 -0.80669265230E+01  0.81662845608E+01  0.12700000000E+01 0. -1.
         25    2    1    2    0    0  0.00000000000E+00  0.00000000000E+00  0.47309203290E+03  0.48932692004E+03  0.12499905232E+03 0.  0.
    9000005    1    3    3    0    0  0.57088673762E+02  0.13602458775E+02  0.32060131389E+03  0.32592997104E+03  0.10000000000E+01 0.  0.
    9000005    1    3    3    0    0 -0.57088673762E+02 -0.13602458775E+02  0.15249071902E+03  0.16339694900E+03  0.10000000000E+01 0.  0.
<mgrwt>
<rscale>  0 0.12499905E+03</rscale>
<asrwt>0</asrwt>
<pdfrwt beam="2">  1        4 0.12488369E-02 0.12499905E+03</pdfrwt>
<pdfrwt beam="1">  1       -4 0.74032261E-01 0.12499905E+03</pdfrwt>
<totfact> 0.56703243E+03</totfact>
</mgrwt>
</event>
<event>
 5    1  0.3286491E-002  0.1249963E+03  0.7818608E-02  0.1235075E+00
          4   -1    0    0  501    0  0.00000000000E+00  0.00000000000E+00  0.14198758073E+04  0.14198763753E+04  0.12700000000E+01 0.  1.
         -4   -1    0    0    0  501 -0.00000000000E+00 -0.00000000000E+00 -0.26037837622E+01  0.28969967001E+01  0.12700000000E+01 0.  1.
         25    2    1    2    0    0  0.00000000000E+00  0.00000000000E+00  0.14172720235E+04  0.14227733720E+04  0.12499631711E+03 0.  0.
    9000005    1    3    3    0    0 -0.31993802588E+02 -0.27530894219E+02  0.12331549773E+04  0.12338775270E+04  0.10000000000E+01 0.  0.
    9000005    1    3    3    0    0  0.31993802588E+02  0.27530894219E+02  0.18411704620E+03  0.18889584496E+03  0.10000000000E+01 0.  0.
<mgrwt>
<rscale>  0 0.12499632E+03</rscale>
<asrwt>0</asrwt>
<pdfrwt beam="1">  1        4 0.21846468E+00 0.12499632E+03</pdfrwt>
<pdfrwt beam="2">  1       -4 0.42318132E-03 0.12499632E+03</pdfrwt>
<totfact> 0.19499050E+03</totfact>
</mgrwt>
</event>
<event>
 5    1  0.3286491E-002  0.1249997E+03  0.7818608E-02  0.1235070E+00
          4   -1    0    0  501    0  0.00000000000E+00  0.00000000000E+00  0.48114193047E+03  0.48114360658E+03  0.12700000000E+01 0. -1.
         -4   -1    0    0    0  501 -0.00000000000E+00 -0.00000000000E+00 -0.80672983819E+01  0.81666518956E+01  0.12700000000E+01 0. -1.
         25    2    1    2    0    0  0.00000000000E+00  0.00000000000E+00  0.47307463209E+03  0.48931025848E+03  0.12499968611E+03 0.  0.
    9000005    1    3    3    0    0  0.40525567113E+02 -0.47476784003E+02  0.24819157616E+03  0.25592269358E+03  0.10000000000E+01 0.  0.
    9000005    1    3    3    0    0 -0.40525567113E+02  0.47476784003E+02  0.22488305593E+03  0.23338756490E+03  0.10000000000E+01 0.  0.
<mgrwt>
<rscale>  0 0.12499969E+03</rscale>
<asrwt>0</asrwt>
<pdfrwt beam="1">  1        4 0.74029618E-01 0.12499969E+03</pdfrwt>
<pdfrwt beam="2">  1       -4 0.12488942E-02 0.12499969E+03</pdfrwt>
<totfact> 0.56703788E+03</totfact>
</mgrwt>
</event>
<event>
 5    1  0.3286491E-002  0.1249978E+03  0.7818608E-02  0.1235073E+00
         -4   -1    0    0    0  501 -0.00000000000E+00  0.00000000000E+00  0.49432264407E+03  0.49432427549E+03  0.12700000000E+01 0.  1.
          4   -1    0    0  501    0  0.00000000000E+00 -0.00000000000E+00 -0.78492668601E+01  0.79513451844E+01  0.12700000000E+01 0.  1.
         25    2    1    2    0    0  0.00000000000E+00  0.00000000000E+00  0.48647337721E+03  0.50227562068E+03  0.12499780955E+03 0.  0.
    9000005    1    3    3    0    0  0.18180741713E+02  0.45278935713E+02  0.40012405962E+03  0.40308930087E+03  0.10000000000E+01 0.  0.
    9000005    1    3    3    0    0 -0.18180741713E+02 -0.45278935713E+02  0.86349317587E+02  0.99186319804E+02  0.10000000000E+01 0.  0.
<mgrwt>
<rscale>  0 0.12499781E+03</rscale>
<asrwt>0</asrwt>
<pdfrwt beam="2">  1        4 0.12155573E-02 0.12499781E+03</pdfrwt>
<pdfrwt beam="1">  1       -4 0.76057611E-01 0.12499781E+03</pdfrwt>
<totfact> 0.55690921E+03</totfact>
</mgrwt>
</event>
<event>
 5    1  0.3286491E-002  0.1250063E+03  0.7818608E-02  0.1235059E+00
         -4   -1    0    0    0  501 -0.00000000000E+00  0.00000000000E+00  0.86732739133E+02  0.86742036739E+02  0.12700000000E+01 0. -1.
          4   -1    0    0  501    0  0.00000000000E+00 -0.00000000000E+00 -0.45021664388E+02  0.45039573313E+02  0.12700000000E+01 0. -1.
         25    2    1    2    0    0  0.00000000000E+00  0.00000000000E+00  0.41711074745E+02  0.13178161005E+03  0.12500631581E+03 0.  0.
    9000005    1    3    3    0    0 -0.38138868985E+02  0.23761275284E+02  0.66643168494E+02  0.80383352987E+02  0.10000000000E+01 0.  0.
    9000005    1    3    3    0    0  0.38138868985E+02 -0.23761275284E+02 -0.24932093749E+02  0.51398257065E+02  0.10000000000E+01 0.  0.
<mgrwt>
<rscale>  0 0.12500632E+03</rscale>
<asrwt>0</asrwt>
<pdfrwt beam="2">  1        4 0.69285027E-02 0.12500632E+03</pdfrwt>
<pdfrwt beam="1">  1       -4 0.13345591E-01 0.12500632E+03</pdfrwt>
<totfact> 0.10304894E+04</totfact>
</mgrwt>
</event>
<event>
 5    1  0.3286491E-002  0.1249988E+03  0.7818608E-02  0.1235071E+00
          4   -1    0    0  501    0  0.00000000000E+00  0.00000000000E+00  0.18460617639E+04  0.18460622008E+04  0.12700000000E+01 0.  1.
         -4   -1    0    0    0  501 -0.00000000000E+00 -0.00000000000E+00 -0.19249107210E+01  0.23061182285E+01  0.12700000000E+01 0.  1.
         25    2    1    2    0    0  0.00000000000E+00  0.00000000000E+00  0.18441368532E+04  0.18483683190E+04  0.12499883738E+03 0.  0.
    9000005    1    3    3    0    0 -0.17966044193E+01  0.59282417870E+01  0.25536638218E+01  0.67744399798E+01  0.10000000000E+01 0.  0.
    9000005    1    3    3    0    0  0.17966044193E+01 -0.59282417870E+01  0.18415831894E+04  0.18415938790E+04  0.10000000000E+01 0.  0.
<mgrwt>
<rscale>  0 0.12499884E+03</rscale>
<asrwt>0</asrwt>
<pdfrwt beam="1">  1        4 0.28404042E+00 0.12499884E+03</pdfrwt>
<pdfrwt beam="2">  1       -4 0.32549558E-03 0.12499884E+03</pdfrwt>
<totfact> 0.11973030E+03</totfact>
</mgrwt>
</event>
<event>
 5    1  0.3286491E-002  0.1249991E+03  0.7818608E-02  0.1235071E+00
         -4   -1    0    0    0  501 -0.00000000000E+00  0.00000000000E+00  0.38249364334E+02  0.38270442537E+02  0.12700000000E+01 0.  1.
          4   -1    0    0  501    0  0.00000000000E+00 -0.00000000000E+00 -0.10207132142E+03  0.10207922196E+03  0.12700000000E+01 0.  1.
         25    2    1    2    0    0  0.00000000000E+00  0.00000000000E+00 -0.63821957085E+02  0.14034966450E+03  0.12499914447E+03 0.  0.
    9000005    1    3    3    0    0 -0.70453067995E+01 -0.57481235881E+02 -0.58278200785E+02  0.82164940900E+02  0.10000000000E+01 0.  0.
    9000005    1    3    3    0    0  0.70453067995E+01  0.57481235881E+02 -0.55437563003E+01  0.58184723599E+02  0.10000000000E+01 0.  0.
<mgrwt>
<rscale>  0 0.12499914E+03</rscale>
<asrwt>0</asrwt>
<pdfrwt beam="2">  1        4 0.15705509E-01 0.12499914E+03</pdfrwt>
<pdfrwt beam="1">  1       -4 0.58867468E-02 0.12499914E+03</pdfrwt>
<totfact> 0.10126539E+04</totfact>
</mgrwt>
</event>
<event>
 5    1  0.3286491E-002  0.1250012E+03  0.7818608E-02  0.1235067E+00
          4   -1    0    0  501    0  0.00000000000E+00  0.00000000000E+00  0.72478846865E+01  0.73583104330E+01  0.12700000000E+01 0.  1.
         -4   -1    0    0    0  501 -0.00000000000E+00 -0.00000000000E+00 -0.53477518977E+03  0.53477669779E+03  0.12700000000E+01 0.  1.
         25    2    1    2    0    0  0.00000000000E+00  0.00000000000E+00 -0.52752730509E+03  0.54213500822E+03  0.12500123810E+03 0.  0.
    9000005    1    3    3    0    0 -0.30548575380E+01 -0.18386874105E+02 -0.52246048473E+03  0.52279380964E+03  0.10000000000E+01 0.  0.
    9000005    1    3    3    0    0  0.30548575380E+01  0.18386874105E+02 -0.50668203535E+01  0.19341198577E+02  0.10000000000E+01 0.  0.
<mgrwt>
<rscale>  0 0.12500124E+03</rscale>
<asrwt>0</asrwt>
<pdfrwt beam="1">  1        4 0.11236699E-02 0.12500124E+03</pdfrwt>
<pdfrwt beam="2">  1       -4 0.82281686E-01 0.12500124E+03</pdfrwt>
<totfact> 0.52735840E+03</totfact>
</mgrwt>
</event>
<event>
 5    1  0.3286491E-002  0.1249905E+03  0.7818608E-02  0.1235084E+00
         -4   -1    0    0    0  501 -0.00000000000E+00  0.00000000000E+00  0.17996569563E+03  0.17997017671E+03  0.12700000000E+01 0.  1.
          4   -1    0    0  501    0  0.00000000000E+00 -0.00000000000E+00 -0.21678897114E+02  0.21716065023E+02  0.12700000000E+01 0.  1.
         25    2    1    2    0    0  0.00000000000E+00  0.00000000000E+00  0.15828679852E+03  0.20168624173E+03  0.12499051771E+03 0.  0.
    9000005    1    3    3    0    0  0.77204823312E+01  0.59830904854E+02  0.10542668047E+03  0.12147068773E+03  0.10000000000E+01 0.  0.
    9000005    1    3    3    0    0 -0.77204823312E+01 -0.59830904854E+02  0.52860118044E+02  0.80215553995E+02  0.10000000000E+01 0.  0.
<mgrwt>
<rscale>  0 0.12499052E+03</rscale>
<asrwt>0</asrwt>
<pdfrwt beam="2">  1        4 0.33384188E-02 0.12499052E+03</pdfrwt>
<pdfrwt beam="1">  1       -4 0.27690233E-01 0.12499052E+03</pdfrwt>
<totfact> 0.89870951E+03</totfact>
</mgrwt>
</event>
<event>
 5    1  0.3286491E-002  0.1249990E+03  0.7818608E-02  0.1235071E+00
         -4   -1    0    0    0  501 -0.00000000000E+00  0.00000000000E+00  0.14796360336E+03  0.14796905359E+03  0.12700000000E+01 0.  1.
          4   -1    0    0  501    0  0.00000000000E+00 -0.00000000000E+00 -0.26378428472E+02  0.26408983105E+02  0.12700000000E+01 0.  1.
         25    2    1    2    0    0  0.00000000000E+00  0.00000000000E+00  0.12158517489E+03  0.17437803669E+03  0.12499897971E+03 0.  0.
    9000005    1    3    3    0    0  0.53539311544E+02  0.27335709743E+02  0.36975143471E+02  0.70582293406E+02  0.10000000000E+01 0.  0.
    9000005    1    3    3    0    0 -0.53539311544E+02 -0.27335709743E+02  0.84610031419E+02  0.10379574329E+03  0.10000000000E+01 0.  0.
<mgrwt>
<rscale>  0 0.12499898E+03</rscale>
<asrwt>0</asrwt>
<pdfrwt beam="2">  1        4 0.40609893E-02 0.12499898E+03</pdfrwt>
<pdfrwt beam="1">  1       -4 0.22766401E-01 0.12499898E+03</pdfrwt>
<totfact> 0.94641041E+03</totfact>
</mgrwt>
</event>
<event>
 5    1  0.3286491E-002  0.1250003E+03  0.7818608E-02  0.1235069E+00
         -4   -1    0    0    0  501 -0.00000000000E+00  0.00000000000E+00  0.17852655348E+03  0.17853107068E+03  0.12700000000E+01 0. -1.
          4   -1    0    0  501    0  0.00000000000E+00 -0.00000000000E+00 -0.21857369918E+02  0.21894234851E+02  0.12700000000E+01 0. -1.
         25    2    1    2    0    0  0.00000000000E+00  0.00000000000E+00  0.15666918357E+03  0.20042530553E+03  0.12500028008E+03 0.  0.
    9000005    1    3    3    0    0 -0.33120126681E+01 -0.54989399815E+02  0.31028510712E+02  0.63234262840E+02  0.10000000000E+01 0.  0.
    9000005    1    3    3    0    0  0.33120126681E+01  0.54989399815E+02  0.12564067286E+03  0.13719104269E+03  0.10000000000E+01 0.  0.
<mgrwt>
<rscale>  0 0.12500028E+03</rscale>
<asrwt>0</asrwt>
<pdfrwt beam="2">  1        4 0.33658555E-02 0.12500028E+03</pdfrwt>
<pdfrwt beam="1">  1       -4 0.27468807E-01 0.12500028E+03</pdfrwt>
<totfact> 0.90063259E+03</totfact>
</mgrwt>
</event>
<event>
 5    1  0.3286491E-002  0.1250093E+03  0.7818608E-02  0.1235055E+00
          4   -1    0    0  501    0  0.00000000000E+00  0.00000000000E+00  0.72023410502E+01  0.73134544918E+01  0.12700000000E+01 0. -1.
         -4   -1    0    0    0  501 -0.00000000000E+00 -0.00000000000E+00 -0.53817533429E+03  0.53817683277E+03  0.12700000000E+01 0. -1.
         25    2    1    2    0    0  0.00000000000E+00  0.00000000000E+00 -0.53097299324E+03  0.54549028727E+03  0.12500933547E+03 0.  0.
    9000005    1    3    3    0    0 -0.16452625228E+02 -0.51463676456E+02 -0.12842270228E+03  0.13932906851E+03  0.10000000000E+01 0.  0.
    9000005    1    3    3    0    0  0.16452625228E+02  0.51463676456E+02 -0.40255029095E+03  0.40616121875E+03  0.10000000000E+01 0.  0.
<mgrwt>
<rscale>  0 0.12500934E+03</rscale>
<asrwt>0</asrwt>
<pdfrwt beam="1">  1        4 0.11167154E-02 0.12500934E+03</pdfrwt>
<pdfrwt beam="2">  1       -4 0.82804836E-01 0.12500934E+03</pdfrwt>
<totfact> 0.52489167E+03</totfact>
</mgrwt>
</event>
<event>
 5    1  0.3286491E-002  0.1249968E+03  0.7818608E-02  0.1235074E+00
         -4   -1    0    0    0  501 -0.00000000000E+00  0.00000000000E+00  0.21403004876E+02  0.21440651057E+02  0.12700000000E+01 0. -1.
          4   -1    0    0  501    0  0.00000000000E+00 -0.00000000000E+00 -0.18229989090E+03  0.18230431460E+03  0.12700000000E+01 0. -1.
         25    2    1    2    0    0  0.00000000000E+00  0.00000000000E+00 -0.16089688602E+03  0.20374496566E+03  0.12499681235E+03 0.  0.
    9000005    1    3    3    0    0 -0.55918271446E+02  0.20451810179E+02 -0.49524729958E+02  0.77452104545E+02  0.10000000000E+01 0.  0.
    9000005    1    3    3    0    0  0.55918271446E+02 -0.20451810179E+02 -0.11137215607E+03  0.12629286111E+03  0.10000000000E+01 0.  0.
<mgrwt>
<rscale>  0 0.12499681E+03</rscale>
<asrwt>0</asrwt>
<pdfrwt beam="2">  1        4 0.28049372E-01 0.12499681E+03</pdfrwt>
<pdfrwt beam="1">  1       -4 0.32960063E-02 0.12499681E+03</pdfrwt>
<totfact> 0.89514092E+03</totfact>
</mgrwt>
</event>
<event>
 5    1  0.3286491E-002  0.1250208E+03  0.7818608E-02  0.1235037E+00
         -4   -1    0    0    0  501 -0.00000000000E+00  0.00000000000E+00  0.12644994609E+03  0.12645632355E+03  0.12700000000E+01 0.  1.
          4   -1    0    0  501    0  0.00000000000E+00 -0.00000000000E+00 -0.30881720504E+02  0.30907823625E+02  0.12700000000E+01 0.  1.
         25    2    1    2    0    0  0.00000000000E+00  0.00000000000E+00  0.95568225586E+02  0.15736414718E+03  0.12502075458E+03 0.  0.
    9000005    1    3    3    0    0  0.52945692507E+02 -0.25740835723E+01  0.89467466134E+02  0.10399663340E+03  0.10000000000E+01 0.  0.
    9000005    1    3    3    0    0 -0.52945692507E+02  0.25740835723E+01  0.61007594519E+01  0.53367513781E+02  0.10000000000E+01 0.  0.
<mgrwt>
<rscale>  0 0.12502075E+03</rscale>
<asrwt>0</asrwt>
<pdfrwt beam="2">  1        4 0.47535324E-02 0.12502075E+03</pdfrwt>
<pdfrwt beam="1">  1       -4 0.19456336E-01 0.12502075E+03</pdfrwt>
<totfact> 0.97807728E+03</totfact>
</mgrwt>
</event>
<event>
 5    1  0.3286491E-002  0.1250045E+03  0.7818608E-02  0.1235062E+00
         -4   -1    0    0    0  501 -0.00000000000E+00  0.00000000000E+00  0.46808684935E+02  0.46825910406E+02  0.12700000000E+01 0. -1.
          4   -1    0    0  501    0  0.00000000000E+00 -0.00000000000E+00 -0.83420005064E+02  0.83429671849E+02  0.12700000000E+01 0. -1.
         25    2    1    2    0    0  0.00000000000E+00  0.00000000000E+00 -0.36611320129E+02  0.13025558226E+03  0.12500451171E+03 0.  0.
    9000005    1    3    3    0    0 -0.33423730650E+02  0.45249210226E+02  0.10057136128E+02  0.57155776469E+02  0.10000000000E+01 0.  0.
    9000005    1    3    3    0    0  0.33423730650E+02 -0.45249210226E+02 -0.46668456257E+02  0.73099805787E+02  0.10000000000E+01 0.  0.
<mgrwt>
<rscale>  0 0.12500451E+03</rscale>
<asrwt>0</asrwt>
<pdfrwt beam="2">  1        4 0.12835916E-01 0.12500451E+03</pdfrwt>
<pdfrwt beam="1">  1       -4 0.72034048E-02 0.12500451E+03</pdfrwt>
<totfact> 0.10337990E+04</totfact>
</mgrwt>
</event>
<event>
 5    1  0.3286491E-002  0.1250013E+03  0.7818608E-02  0.1235067E+00
         -4   -1    0    0    0  501 -0.00000000000E+00  0.00000000000E+00  0.39236496636E+01  0.41240667651E+01  0.12700000000E+01 0. -1.
          4   -1    0    0  501    0  0.00000000000E+00 -0.00000000000E+00 -0.97059214567E+03  0.97059297656E+03  0.12700000000E+01 0. -1.
         25    2    1    2    0    0  0.00000000000E+00  0.00000000000E+00 -0.96666849601E+03  0.97471704332E+03  0.12500133346E+03 0.  0.
    9000005    1    3    3    0    0 -0.45681182814E+02  0.42539827394E+02 -0.50663079029E+03  0.51046269702E+03  0.10000000000E+01 0.  0.
    9000005    1    3    3    0    0  0.45681182814E+02 -0.42539827394E+02 -0.46003770572E+03  0.46425434630E+03  0.10000000000E+01 0.  0.
<mgrwt>
<rscale>  0 0.12500133E+03</rscale>
<asrwt>0</asrwt>
<pdfrwt beam="2">  1        4 0.14933716E+00 0.12500133E+03</pdfrwt>
<pdfrwt beam="1">  1       -4 0.61911980E-03 0.12500133E+03</pdfrwt>
<totfact> 0.31453479E+03</totfact>
</mgrwt>
</event>
<event>
 5    1  0.3286491E-002  0.1250004E+03  0.7818608E-02  0.1235069E+00
          4   -1    0    0  501    0  0.00000000000E+00  0.00000000000E+00  0.83014672408E+02  0.83024386387E+02  0.12700000000E+01 0.  1.
         -4   -1    0    0    0  501 -0.00000000000E+00 -0.00000000000E+00 -0.47034179542E+02  0.47051322459E+02  0.12700000000E+01 0.  1.
         25    2    1    2    0    0  0.00000000000E+00  0.00000000000E+00  0.35980492866E+02  0.13007570885E+03  0.12500037666E+03 0.  0.
    9000005    1    3    3    0    0  0.54634913405E+02  0.12217717199E+02  0.46885048199E+02  0.73030501306E+02  0.10000000000E+01 0.  0.
    9000005    1    3    3    0    0 -0.54634913405E+02 -0.12217717199E+02 -0.10904555334E+02  0.57045207540E+02  0.10000000000E+01 0.  0.
<mgrwt>
<rscale>  0 0.12500038E+03</rscale>
<asrwt>0</asrwt>
<pdfrwt beam="1">  1        4 0.12773554E-01 0.12500038E+03</pdfrwt>
<pdfrwt beam="2">  1       -4 0.72380937E-02 0.12500038E+03</pdfrwt>
<totfact> 0.10342800E+04</totfact>
</mgrwt>
</event>
<event>
 5    1  0.3286491E-002  0.1249993E+03  0.7818608E-02  0.1235070E+00
         -4   -1    0    0    0  501 -0.00000000000E+00  0.00000000000E+00  0.10967334405E+02  0.11040621539E+02  0.12700000000E+01 0.  1.
          4   -1    0    0  501    0  0.00000000000E+00 -0.00000000000E+00 -0.35490701632E+03  0.35490928859E+03  0.12700000000E+01 0.  1.
         25    2    1    2    0    0  0.00000000000E+00  0.00000000000E+00 -0.34393968191E+03  0.36594991013E+03  0.12499932773E+03 0.  0.
    9000005    1    3    3    0    0 -0.11148063270E+01 -0.59884033009E+02 -0.11977384095E+03  0.13391830786E+03  0.10000000000E+01 0.  0.
    9000005    1    3    3    0    0  0.11148063270E+01  0.59884033009E+02 -0.22416584096E+03  0.23203160228E+03  0.10000000000E+01 0.  0.
<mgrwt>
<rscale>  0 0.12499933E+03</rscale>
<asrwt>0</asrwt>
<pdfrwt beam="2">  1        4 0.54606883E-01 0.12499933E+03</pdfrwt>
<pdfrwt beam="1">  1       -4 0.16930947E-02 0.12499933E+03</pdfrwt>
<totfact> 0.68005806E+03</totfact>
</mgrwt>
</event>
<event>
 5    1  0.3286491E-002  0.1250012E+03  0.7818608E-02  0.1235067E+00
          4   -1    0    0  501    0  0.00000000000E+00  0.00000000000E+00  0.41369567651E+02  0.41389056859E+02  0.12700000000E+01 0.  1.
         -4   -1    0    0    0  501 -0.00000000000E+00 -0.00000000000E+00 -0.94379157562E+02  0.94387701965E+02  0.12700000000E+01 0.  1.
         25    2    1    2    0    0  0.00000000000E+00  0.00000000000E+00 -0.53009589911E+02  0.13577675882E+03  0.12500124645E+03 0.  0.
    9000005    1    3    3    0    0 -0.19876720113E+02 -0.45933328591E+02  0.14142625797E+02  0.52018924848E+02  0.10000000000E+01 0.  0.
    9000005    1    3    3    0    0  0.19876720113E+02  0.45933328591E+02 -0.67152215708E+02  0.83757833976E+02  0.10000000000E+01 0.  0.
<mgrwt>
<rscale>  0 0.12500125E+03</rscale>
<asrwt>0</asrwt>
<pdfrwt beam="1">  1        4 0.63667053E-02 0.12500125E+03</pdfrwt>
<pdfrwt beam="2">  1       -4 0.14522027E-01 0.12500125E+03</pdfrwt>
<totfact> 0.10221437E+04</totfact>
</mgrwt>
</event>
<event>
 5    1  0.3286491E-002  0.1250010E+03  0.7818608E-02  0.1235068E+00
          4   -1    0    0  501    0  0.00000000000E+00  0.00000000000E+00  0.11072642166E+03  0.11073370469E+03  0.12700000000E+01 0.  1.
         -4   -1    0    0    0  501 -0.00000000000E+00 -0.00000000000E+00 -0.35259074673E+02  0.35281939385E+02  0.12700000000E+01 0.  1.
         25    2    1    2    0    0  0.00000000000E+00  0.00000000000E+00  0.75467346986E+02  0.14601564407E+03  0.12500099140E+03 0.  0.
    9000005    1    3    3    0    0  0.54572388750E+02 -0.25640204485E+02  0.18548591948E+02  0.63092122830E+02  0.10000000000E+01 0.  0.
    9000005    1    3    3    0    0 -0.54572388750E+02  0.25640204485E+02  0.56918755038E+02  0.82923521241E+02  0.10000000000E+01 0.  0.
<mgrwt>
<rscale>  0 0.12500099E+03</rscale>
<asrwt>0</asrwt>
<pdfrwt beam="1">  1        4 0.17037153E-01 0.12500099E+03</pdfrwt>
<pdfrwt beam="2">  1       -4 0.54267922E-02 0.12500099E+03</pdfrwt>
<totfact> 0.10010170E+04</totfact>
</mgrwt>
</event>
<event>
 5    1  0.3286491E-002  0.1249959E+03  0.7818608E-02  0.1235076E+00
          4   -1    0    0  501    0  0.00000000000E+00  0.00000000000E+00  0.74811298931E+02  0.74822077943E+02  0.12700000000E+01 0. -1.
         -4   -1    0    0    0  501 -0.00000000000E+00 -0.00000000000E+00 -0.52188990735E+02  0.52204440941E+02  0.12700000000E+01 0. -1.
         25    2    1    2    0    0  0.00000000000E+00  0.00000000000E+00  0.22622308196E+02  0.12702651888E+03  0.12499587062E+03 0.  0.
    9000005    1    3    3    0    0 -0.88105232367E+01  0.29708257143E+02  0.66458625572E+02  0.73334540123E+02  0.10000000000E+01 0.  0.
    9000005    1    3    3    0    0  0.88105232367E+01 -0.29708257143E+02 -0.43836317376E+02  0.53691978761E+02  0.10000000000E+01 0.  0.
<mgrwt>
<rscale>  0 0.12499587E+03</rscale>
<asrwt>0</asrwt>
<pdfrwt beam="1">  1        4 0.11511448E-01 0.12499587E+03</pdfrwt>
<pdfrwt beam="2">  1       -4 0.80310932E-02 0.12499587E+03</pdfrwt>
<totfact> 0.10409540E+04</totfact>
</mgrwt>
</event>
<event>
 5    1  0.3286491E-002  0.1249993E+03  0.7818608E-02  0.1235070E+00
         -4   -1    0    0    0  501 -0.00000000000E+00  0.00000000000E+00  0.74376015526E+02  0.74386857613E+02  0.12700000000E+01 0. -1.
          4   -1    0    0  501    0  0.00000000000E+00 -0.00000000000E+00 -0.52497338844E+02  0.52512698328E+02  0.12700000000E+01 0. -1.
         25    2    1    2    0    0  0.00000000000E+00  0.00000000000E+00  0.21878676682E+02  0.12689955594E+03  0.12499928322E+03 0.  0.
    9000005    1    3    3    0    0  0.48075642796E+02 -0.31060949715E+02 -0.14524945460E+02  0.59059496002E+02  0.10000000000E+01 0.  0.
    9000005    1    3    3    0    0 -0.48075642796E+02  0.31060949715E+02  0.36403622142E+02  0.67840059938E+02  0.10000000000E+01 0.  0.
<mgrwt>
<rscale>  0 0.12499928E+03</rscale>
<asrwt>0</asrwt>
<pdfrwt beam="2">  1        4 0.80785292E-02 0.12499928E+03</pdfrwt>
<pdfrwt beam="1">  1       -4 0.11444479E-01 0.12499928E+03</pdfrwt>
<totfact> 0.10411497E+04</totfact>
</mgrwt>
</event>
<event>
 5    1  0.3286491E-002  0.1249844E+03  0.7818608E-02  0.1235094E+00
         -4   -1    0    0    0  501 -0.00000000000E+00  0.00000000000E+00  0.12201601199E+03  0.12202262119E+03  0.12700000000E+01 0. -1.
          4   -1    0    0  501    0  0.00000000000E+00 -0.00000000000E+00 -0.31986176534E+02  0.32011379059E+02  0.12700000000E+01 0. -1.
         25    2    1    2    0    0  0.00000000000E+00  0.00000000000E+00  0.90029835453E+02  0.15403400024E+03  0.12498440687E+03 0.  0.
    9000005    1    3    3    0    0 -0.60902858604E+01 -0.62146813954E+02  0.42270888281E+02  0.75413169026E+02  0.10000000000E+01 0.  0.
    9000005    1    3    3    0    0  0.60902858604E+01  0.62146813954E+02  0.47758947172E+02  0.78620831218E+02  0.10000000000E+01 0.  0.
<mgrwt>
<rscale>  0 0.12498441E+03</rscale>
<asrwt>0</asrwt>
<pdfrwt beam="2">  1        4 0.49233972E-02 0.12498441E+03</pdfrwt>
<pdfrwt beam="1">  1       -4 0.18774142E-01 0.12498441E+03</pdfrwt>
<totfact> 0.98540027E+03</totfact>
</mgrwt>
</event>
<event>
 5    1  0.3286491E-002  0.1249949E+03  0.7818608E-02  0.1235077E+00
          4   -1    0    0  501    0  0.00000000000E+00  0.00000000000E+00  0.27073671852E+02  0.27103442725E+02  0.12700000000E+01 0.  1.
         -4   -1    0    0    0  501 -0.00000000000E+00 -0.00000000000E+00 -0.14415869749E+03  0.14416429156E+03  0.12700000000E+01 0.  1.
         25    2    1    2    0    0  0.00000000000E+00  0.00000000000E+00 -0.11708502564E+03  0.17126773429E+03  0.12499493422E+03 0.  0.
    9000005    1    3    3    0    0  0.20864449189E+02  0.48862799454E+02 -0.13470828127E+02  0.54821178580E+02  0.10000000000E+01 0.  0.
    9000005    1    3    3    0    0 -0.20864449189E+02 -0.48862799454E+02 -0.10361419751E+03  0.11644655571E+03  0.10000000000E+01 0.  0.
<mgrwt>
<rscale>  0 0.12499493E+03</rscale>
<asrwt>0</asrwt>
<pdfrwt beam="1">  1        4 0.41679007E-02 0.12499493E+03</pdfrwt>
<pdfrwt beam="2">  1       -4 0.22180981E-01 0.12499493E+03</pdfrwt>
<totfact> 0.95223700E+03</totfact>
</mgrwt>
</event>
<event>
 5    1  0.3286491E-002  0.1249884E+03  0.7818608E-02  0.1235087E+00
         -4   -1    0    0    0  501 -0.00000000000E+00  0.00000000000E+00  0.35956463138E+02  0.35978884660E+02  0.12700000000E+01 0.  1.
          4   -1    0    0  501    0  0.00000000000E+00 -0.00000000000E+00 -0.10855819423E+03  0.10856562271E+03  0.12700000000E+01 0.  1.
         25    2    1    2    0    0  0.00000000000E+00  0.00000000000E+00 -0.72601731094E+02  0.14454450737E+03  0.12498841248E+03 0.  0.
    9000005    1    3    3    0    0 -0.65634044366E+01 -0.33145409198E+02 -0.97087608600E+02  0.10280418363E+03  0.10000000000E+01 0.  0.
    9000005    1    3    3    0    0  0.65634044366E+01  0.33145409198E+02  0.24485877506E+02  0.41740323740E+02  0.10000000000E+01 0.  0.
<mgrwt>
<rscale>  0 0.12498841E+03</rscale>
<asrwt>0</asrwt>
<pdfrwt beam="2">  1        4 0.16703557E-01 0.12498841E+03</pdfrwt>
<pdfrwt beam="1">  1       -4 0.55340598E-02 0.12498841E+03</pdfrwt>
<totfact> 0.10042872E+04</totfact>
</mgrwt>
</event>
<event>
 5    1  0.3286491E-002  0.1250079E+03  0.7818608E-02  0.1235057E+00
         -4   -1    0    0    0  501 -0.00000000000E+00  0.00000000000E+00  0.18770956724E+03  0.18771386346E+03  0.12700000000E+01 0.  1.
          4   -1    0    0  501    0  0.00000000000E+00 -0.00000000000E+00 -0.20788807007E+02  0.20827563390E+02  0.12700000000E+01 0.  1.
         25    2    1    2    0    0  0.00000000000E+00  0.00000000000E+00  0.16692076023E+03  0.20854142685E+03  0.12500794580E+03 0.  0.
    9000005    1    3    3    0    0 -0.58444800685E+02  0.17081971161E+02  0.10694376550E+03  0.12306728829E+03  0.10000000000E+01 0.  0.
    9000005    1    3    3    0    0  0.58444800685E+02 -0.17081971161E+02  0.59976994730E+02  0.85474138561E+02  0.10000000000E+01 0.  0.
<mgrwt>
<rscale>  0 0.12500795E+03</rscale>
<asrwt>0</asrwt>
<pdfrwt beam="2">  1        4 0.32015896E-02 0.12500795E+03</pdfrwt>
<pdfrwt beam="1">  1       -4 0.28881708E-01 0.12500795E+03</pdfrwt>
<totfact> 0.88698879E+03</totfact>
</mgrwt>
</event>
<event>
 5    1  0.3286491E-002  0.1249926E+03  0.7818608E-02  0.1235081E+00
         -4   -1    0    0    0  501 -0.00000000000E+00  0.00000000000E+00  0.20732718564E+03  0.20733107535E+03  0.12700000000E+01 0. -1.
          4   -1    0    0  501    0  0.00000000000E+00 -0.00000000000E+00 -0.18813276735E+02  0.18856094015E+02  0.12700000000E+01 0. -1.
         25    2    1    2    0    0  0.00000000000E+00  0.00000000000E+00  0.18851390891E+03  0.22618716937E+03  0.12499256672E+03 0.  0.
    9000005    1    3    3    0    0  0.33676276010E+02 -0.15001512603E+02  0.18555952323E+03  0.18918898913E+03  0.10000000000E+01 0.  0.
    9000005    1    3    3    0    0 -0.33676276010E+02  0.15001512603E+02  0.29543856805E+01  0.36998180240E+02  0.10000000000E+01 0.  0.
<mgrwt>
<rscale>  0 0.12499257E+03</rscale>
<asrwt>0</asrwt>
<pdfrwt beam="2">  1        4 0.28979430E-02 0.12499257E+03</pdfrwt>
<pdfrwt beam="1">  1       -4 0.31900084E-01 0.12499257E+03</pdfrwt>
<totfact> 0.85912771E+03</totfact>
</mgrwt>
</event>
<event>
 5    1  0.3286491E-002  0.1249981E+03  0.7818608E-02  0.1235072E+00
          4   -1    0    0  501    0  0.00000000000E+00  0.00000000000E+00  0.17452098055E+04  0.17452102676E+04  0.12700000000E+01 0. -1.
         -4   -1    0    0    0  501 -0.00000000000E+00 -0.00000000000E+00 -0.20575446314E+01  0.24179309151E+01  0.12700000000E+01 0. -1.
         25    2    1    2    0    0  0.00000000000E+00  0.00000000000E+00  0.17431522609E+04  0.17476281985E+04  0.12499806259E+03 0.  0.
    9000005    1    3    3    0    0  0.22416321330E+02 -0.38956613391E+02  0.14785971241E+04  0.14792804212E+04  0.10000000000E+01 0.  0.
    9000005    1    3    3    0    0 -0.22416321330E+02  0.38956613391E+02  0.26455513682E+03  0.26834777734E+03  0.10000000000E+01 0.  0.
<mgrwt>
<rscale>  0 0.12499806E+03</rscale>
<asrwt>0</asrwt>
<pdfrwt beam="1">  1        4 0.26852226E+00 0.12499806E+03</pdfrwt>
<pdfrwt beam="2">  1       -4 0.34430201E-03 0.12499806E+03</pdfrwt>
<totfact> 0.13528376E+03</totfact>
</mgrwt>
</event>
<event>
 5    1  0.3286491E-002  0.1250008E+03  0.7818608E-02  0.1235068E+00
         -4   -1    0    0    0  501 -0.00000000000E+00  0.00000000000E+00  0.54141100910E+01  0.55610689690E+01  0.12700000000E+01 0. -1.
          4   -1    0    0  501    0  0.00000000000E+00 -0.00000000000E+00 -0.71169456117E+03  0.71169569431E+03  0.12700000000E+01 0. -1.
         25    2    1    2    0    0  0.00000000000E+00  0.00000000000E+00 -0.70628045108E+03  0.71725676328E+03  0.12500075557E+03 0.  0.
    9000005    1    3    3    0    0  0.20159912985E+02  0.50391322844E+02 -0.53088825954E+03  0.53365630478E+03  0.10000000000E+01 0.  0.
    9000005    1    3    3    0    0 -0.20159912985E+02 -0.50391322844E+02 -0.17539219154E+03  0.18360045850E+03  0.10000000000E+01 0.  0.
<mgrwt>
<rscale>  0 0.12500076E+03</rscale>
<asrwt>0</asrwt>
<pdfrwt beam="2">  1        4 0.10950279E+00 0.12500076E+03</pdfrwt>
<pdfrwt beam="1">  1       -4 0.84433227E-03 0.12500076E+03</pdfrwt>
<totfact> 0.42190575E+03</totfact>
</mgrwt>
</event>
<event>
 5    1  0.3286491E-002  0.1250005E+03  0.7818608E-02  0.1235069E+00
         -4   -1    0    0    0  501 -0.00000000000E+00  0.00000000000E+00  0.14426820378E+02  0.14482611857E+02  0.12700000000E+01 0. -1.
          4   -1    0    0  501    0  0.00000000000E+00 -0.00000000000E+00 -0.27018519887E+03  0.27018818366E+03  0.12700000000E+01 0. -1.
         25    2    1    2    0    0  0.00000000000E+00  0.00000000000E+00 -0.25575837849E+03  0.28467079551E+03  0.12500045460E+03 0.  0.
    9000005    1    3    3    0    0 -0.34332951237E+02 -0.51970949850E+02 -0.13938993197E+03  0.15267705886E+03  0.10000000000E+01 0.  0.
    9000005    1    3    3    0    0  0.34332951237E+02  0.51970949850E+02 -0.11636844652E+03  0.13199373665E+03  0.10000000000E+01 0.  0.
<mgrwt>
<rscale>  0 0.12500045E+03</rscale>
<asrwt>0</asrwt>
<pdfrwt beam="2">  1        4 0.41571471E-01 0.12500045E+03</pdfrwt>
<pdfrwt beam="1">  1       -4 0.22240323E-02 0.12500045E+03</pdfrwt>
<totfact> 0.77562058E+03</totfact>
</mgrwt>
</event>
<event>
 5    1  0.3286491E-002  0.1249988E+03  0.7818608E-02  0.1235071E+00
          4   -1    0    0  501    0  0.00000000000E+00  0.00000000000E+00  0.10559526331E+04  0.10559533968E+04  0.12700000000E+01 0.  1.
         -4   -1    0    0    0  501 -0.00000000000E+00 -0.00000000000E+00 -0.35894037123E+01  0.38074557135E+01  0.12700000000E+01 0.  1.
         25    2    1    2    0    0  0.00000000000E+00  0.00000000000E+00  0.10523632294E+04  0.10597608525E+04  0.12499879195E+03 0.  0.
    9000005    1    3    3    0    0 -0.30386469624E+02  0.52497109833E+02  0.39875769397E+03  0.40334598371E+03  0.10000000000E+01 0.  0.
    9000005    1    3    3    0    0  0.30386469624E+02 -0.52497109833E+02  0.65360553540E+03  0.65641486880E+03  0.10000000000E+01 0.  0.
<mgrwt>
<rscale>  0 0.12499879E+03</rscale>
<asrwt>0</asrwt>
<pdfrwt beam="1">  1        4 0.16247096E+00 0.12499879E+03</pdfrwt>
<pdfrwt beam="2">  1       -4 0.56904837E-03 0.12499879E+03</pdfrwt>
<totfact> 0.28692725E+03</totfact>
</mgrwt>
</event>
<event>
 5    1  0.3286491E-002  0.1249964E+03  0.7818608E-02  0.1235075E+00
         -4   -1    0    0    0  501 -0.00000000000E+00  0.00000000000E+00  0.18259252487E+02  0.18303365848E+02  0.12700000000E+01 0. -1.
          4   -1    0    0  501    0  0.00000000000E+00 -0.00000000000E+00 -0.21361606559E+03  0.21361984079E+03  0.12700000000E+01 0. -1.
         25    2    1    2    0    0  0.00000000000E+00  0.00000000000E+00 -0.19535681310E+03  0.23192320664E+03  0.12499635735E+03 0.  0.
    9000005    1    3    3    0    0 -0.15544800630E+02 -0.54502478544E+02 -0.14651777236E+03  0.15710066395E+03  0.10000000000E+01 0.  0.
    9000005    1    3    3    0    0  0.15544800630E+02  0.54502478544E+02 -0.48839040738E+02  0.74822542688E+02  0.10000000000E+01 0.  0.
<mgrwt>
<rscale>  0 0.12499636E+03</rscale>
<asrwt>0</asrwt>
<pdfrwt beam="2">  1        4 0.32867692E-01 0.12499636E+03</pdfrwt>
<pdfrwt beam="1">  1       -4 0.28127996E-02 0.12499636E+03</pdfrwt>
<totfact> 0.85022069E+03</totfact>
</mgrwt>
</event>
<event>
 5    1  0.3286491E-002  0.1249999E+03  0.7818608E-02  0.1235069E+00
          4   -1    0    0  501    0  0.00000000000E+00  0.00000000000E+00  0.12731160075E+02  0.12794347848E+02  0.12700000000E+01 0.  1.
         -4   -1    0    0    0  501 -0.00000000000E+00 -0.00000000000E+00 -0.30600159434E+03  0.30600422977E+03  0.12700000000E+01 0.  1.
         25    2    1    2    0    0  0.00000000000E+00  0.00000000000E+00 -0.29327043426E+03  0.31879857762E+03  0.12499994191E+03 0.  0.
    9000005    1    3    3    0    0  0.46129128608E+02 -0.14012114553E+02 -0.24804361985E+03  0.25268730322E+03  0.10000000000E+01 0.  0.
    9000005    1    3    3    0    0 -0.46129128608E+02  0.14012114553E+02 -0.45226814409E+02  0.66111274394E+02  0.10000000000E+01 0.  0.
<mgrwt>
<rscale>  0 0.12499994E+03</rscale>
<asrwt>0</asrwt>
<pdfrwt beam="1">  1        4 0.19637036E-02 0.12499994E+03</pdfrwt>
<pdfrwt beam="2">  1       -4 0.47082226E-01 0.12499994E+03</pdfrwt>
<totfact> 0.73299343E+03</totfact>
</mgrwt>
</event>
<event>
 5    1  0.3286491E-002  0.1249970E+03  0.7818608E-02  0.1235074E+00
          4   -1    0    0  501    0  0.00000000000E+00  0.00000000000E+00  0.12330109051E+03  0.12330763083E+03  0.12700000000E+01 0.  1.
         -4   -1    0    0    0  501 -0.00000000000E+00 -0.00000000000E+00 -0.31658925779E+02  0.31684388609E+02  0.12700000000E+01 0.  1.
         25    2    1    2    0    0  0.00000000000E+00  0.00000000000E+00  0.91642164729E+02  0.15499201944E+03  0.12499695890E+03 0.  0.
    9000005    1    3    3    0    0  0.15181602203E+01  0.62235728658E+02  0.39089857923E+02  0.73516037193E+02  0.10000000000E+01 0.  0.
    9000005    1    3    3    0    0 -0.15181602203E+01 -0.62235728658E+02  0.52552306806E+02  0.81475982244E+02  0.10000000000E+01 0.  0.
<mgrwt>
<rscale>  0 0.12499696E+03</rscale>
<asrwt>0</asrwt>
<pdfrwt beam="1">  1        4 0.18971860E-01 0.12499696E+03</pdfrwt>
<pdfrwt beam="2">  1       -4 0.48730657E-02 0.12499696E+03</pdfrwt>
<totfact> 0.98323790E+03</totfact>
</mgrwt>
</event>
<event>
 5    1  0.3286491E-002  0.1249976E+03  0.7818608E-02  0.1235073E+00
         -4   -1    0    0    0  501 -0.00000000000E+00  0.00000000000E+00  0.25073750910E+02  0.25105893425E+02  0.12700000000E+01 0. -1.
          4   -1    0    0  501    0  0.00000000000E+00 -0.00000000000E+00 -0.15564982156E+03  0.15565500265E+03  0.12700000000E+01 0. -1.
         25    2    1    2    0    0  0.00000000000E+00  0.00000000000E+00 -0.13057607065E+03  0.18076089608E+03  0.12499756528E+03 0.  0.
    9000005    1    3    3    0    0 -0.36593669023E+01  0.22405615917E+02  0.18906374792E+02  0.29561014843E+02  0.10000000000E+01 0.  0.
    9000005    1    3    3    0    0  0.36593669023E+01 -0.22405615917E+02 -0.14948244544E+03  0.15119988124E+03  0.10000000000E+01 0.  0.
<mgrwt>
<rscale>  0 0.12499757E+03</rscale>
<asrwt>0</asrwt>
<pdfrwt beam="2">  1        4 0.23948997E-01 0.12499757E+03</pdfrwt>
<pdfrwt beam="1">  1       -4 0.38603713E-02 0.12499757E+03</pdfrwt>
<totfact> 0.93485322E+03</totfact>
</mgrwt>
</event>
<event>
 5    1  0.3286491E-002  0.1250006E+03  0.7818608E-02  0.1235068E+00
         -4   -1    0    0    0  501 -0.00000000000E+00  0.00000000000E+00  0.15840947024E+02  0.15891774684E+02  0.12700000000E+01 0. -1.
          4   -1    0    0  501    0  0.00000000000E+00 -0.00000000000E+00 -0.24614687708E+03  0.24615015335E+03  0.12700000000E+01 0. -1.
         25    2    1    2    0    0  0.00000000000E+00  0.00000000000E+00 -0.23030593006E+03  0.26204192804E+03  0.12500060252E+03 0.  0.
    9000005    1    3    3    0    0 -0.71876430518E+01 -0.28851370938E+02  0.72940900509E-01  0.29750111563E+02  0.10000000000E+01 0.  0.
    9000005    1    3    3    0    0  0.71876430518E+01  0.28851370938E+02 -0.23037887096E+03  0.23229181647E+03  0.10000000000E+01 0.  0.
<mgrwt>
<rscale>  0 0.12500060E+03</rscale>
<asrwt>0</asrwt>
<pdfrwt beam="2">  1        4 0.37872909E-01 0.12500060E+03</pdfrwt>
<pdfrwt beam="1">  1       -4 0.24412308E-02 0.12500060E+03</pdfrwt>
<totfact> 0.80619277E+03</totfact>
</mgrwt>
</event>
<event>
 5    1  0.3286491E-002  0.1250020E+03  0.7818608E-02  0.1235066E+00
         -4   -1    0    0    0  501 -0.00000000000E+00  0.00000000000E+00  0.24594248393E+03  0.24594576293E+03  0.12700000000E+01 0. -1.
          4   -1    0    0  501    0  0.00000000000E+00 -0.00000000000E+00 -0.15854501732E+02  0.15905286077E+02  0.12700000000E+01 0. -1.
         25    2    1    2    0    0  0.00000000000E+00  0.00000000000E+00  0.23008798220E+03  0.26185104900E+03  0.12500196923E+03 0.  0.
    9000005    1    3    3    0    0 -0.22411322893E+01  0.27069515920E+02 -0.28528210659E+01  0.27329836336E+02  0.10000000000E+01 0.  0.
    9000005    1    3    3    0    0  0.22411322893E+01 -0.27069515920E+02  0.23294080326E+03  0.23452121267E+03  0.10000000000E+01 0.  0.
<mgrwt>
<rscale>  0 0.12500197E+03</rscale>
<asrwt>0</asrwt>
<pdfrwt beam="2">  1        4 0.24433132E-02 0.12500197E+03</pdfrwt>
<pdfrwt beam="1">  1       -4 0.37841458E-01 0.12500197E+03</pdfrwt>
<totfact> 0.80643461E+03</totfact>
</mgrwt>
</event>
<event>
 5    1  0.3286491E-002  0.1250030E+03  0.7818608E-02  0.1235065E+00
         -4   -1    0    0    0  501 -0.00000000000E+00  0.00000000000E+00  0.10772289863E+03  0.10773038471E+03  0.12700000000E+01 0. -1.
          4   -1    0    0  501    0  0.00000000000E+00 -0.00000000000E+00 -0.36243908827E+02  0.36266152637E+02  0.12700000000E+01 0. -1.
         25    2    1    2    0    0  0.00000000000E+00  0.00000000000E+00  0.71478989803E+02  0.14399653734E+03  0.12500302710E+03 0.  0.
    9000005    1    3    3    0    0  0.43194502794E+02 -0.80510672479E+01  0.86931137390E+02  0.97409483129E+02  0.10000000000E+01 0.  0.
    9000005    1    3    3    0    0 -0.43194502794E+02  0.80510672479E+01 -0.15452147587E+02  0.46587054216E+02  0.10000000000E+01 0.  0.
<mgrwt>
<rscale>  0 0.12500303E+03</rscale>
<asrwt>0</asrwt>
<pdfrwt beam="2">  1        4 0.55782730E-02 0.12500303E+03</pdfrwt>
<pdfrwt beam="1">  1       -4 0.16575040E-01 0.12500303E+03</pdfrwt>
<totfact> 0.10050731E+04</totfact>
</mgrwt>
</event>
<event>
 5    1  0.3286491E-002  0.1249993E+03  0.7818608E-02  0.1235070E+00
          4   -1    0    0  501    0  0.00000000000E+00  0.00000000000E+00  0.19949037131E+02  0.19989421763E+02  0.12700000000E+01 0.  1.
         -4   -1    0    0    0  501 -0.00000000000E+00 -0.00000000000E+00 -0.19556882328E+03  0.19557294685E+03  0.12700000000E+01 0.  1.
         25    2    1    2    0    0  0.00000000000E+00  0.00000000000E+00 -0.17561978615E+03  0.21556236861E+03  0.12499930190E+03 0.  0.
    9000005    1    3    3    0    0  0.29880176663E+02 -0.53839048112E+02 -0.69418325626E+02  0.92797478369E+02  0.10000000000E+01 0.  0.
    9000005    1    3    3    0    0 -0.29880176663E+02  0.53839048112E+02 -0.10620146052E+03  0.12276489024E+03  0.10000000000E+01 0.  0.
<mgrwt>
<rscale>  0 0.12499930E+03</rscale>
<asrwt>0</asrwt>
<pdfrwt beam="1">  1        4 0.30725065E-02 0.12499930E+03</pdfrwt>
<pdfrwt beam="2">  1       -4 0.30090934E-01 0.12499930E+03</pdfrwt>
<totfact> 0.87576821E+03</totfact>
</mgrwt>
</event>
<event>
 5    1  0.3286491E-002  0.1249996E+03  0.7818608E-02  0.1235070E+00
          4   -1    0    0  501    0  0.00000000000E+00  0.00000000000E+00  0.43132662160E+03  0.43132849129E+03  0.12700000000E+01 0. -1.
         -4   -1    0    0    0  501 -0.00000000000E+00 -0.00000000000E+00 -0.90098819436E+01  0.90989489853E+01  0.12700000000E+01 0. -1.
         25    2    1    2    0    0  0.00000000000E+00  0.00000000000E+00  0.42231673966E+03  0.44042744028E+03  0.12499960622E+03 0.  0.
    9000005    1    3    3    0    0 -0.21061044083E+02 -0.55573814889E+02  0.27922617170E+03  0.28548252388E+03  0.10000000000E+01 0.  0.
    9000005    1    3    3    0    0  0.21061044083E+02  0.55573814889E+02  0.14309056796E+03  0.15494491640E+03  0.10000000000E+01 0.  0.
<mgrwt>
<rscale>  0 0.12499961E+03</rscale>
<asrwt>0</asrwt>
<pdfrwt beam="1">  1        4 0.66364924E-01 0.12499961E+03</pdfrwt>
<pdfrwt beam="2">  1       -4 0.13931311E-02 0.12499961E+03</pdfrwt>
<totfact> 0.60802581E+03</totfact>
</mgrwt>
</event>
<event>
 5    1  0.3286491E-002  0.1250011E+03  0.7818608E-02  0.1235067E+00
         -4   -1    0    0    0  501 -0.00000000000E+00  0.00000000000E+00  0.69727480555E+01  0.70874618479E+01  0.12700000000E+01 0.  1.
          4   -1    0    0  501    0  0.00000000000E+00 -0.00000000000E+00 -0.55554074930E+03  0.55554220094E+03  0.12700000000E+01 0.  1.
         25    2    1    2    0    0  0.00000000000E+00  0.00000000000E+00 -0.54856800124E+03  0.56262966279E+03  0.12500114186E+03 0.  0.
    9000005    1    3    3    0    0  0.40072588802E+02  0.21807607096E+02 -0.46651064883E+03  0.46873720737E+03  0.10000000000E+01 0.  0.
    9000005    1    3    3    0    0 -0.40072588802E+02 -0.21807607096E+02 -0.82057352414E+02  0.93892455425E+02  0.10000000000E+01 0.  0.
<mgrwt>
<rscale>  0 0.12500114E+03</rscale>
<asrwt>0</asrwt>
<pdfrwt beam="2">  1        4 0.85476709E-01 0.12500114E+03</pdfrwt>
<pdfrwt beam="1">  1       -4 0.10816667E-02 0.12500114E+03</pdfrwt>
<totfact> 0.51313552E+03</totfact>
</mgrwt>
</event>
<event>
 5    1  0.3286491E-002  0.1249991E+03  0.7818608E-02  0.1235071E+00
          4   -1    0    0  501    0  0.00000000000E+00  0.00000000000E+00  0.10629659715E+02  0.10705258786E+02  0.12700000000E+01 0. -1.
         -4   -1    0    0    0  501 -0.00000000000E+00 -0.00000000000E+00 -0.36610180706E+03  0.36610400986E+03  0.12700000000E+01 0. -1.
         25    2    1    2    0    0  0.00000000000E+00  0.00000000000E+00 -0.35547214735E+03  0.37680926864E+03  0.12499910958E+03 0.  0.
    9000005    1    3    3    0    0 -0.31999627558E+02  0.23833477226E+02 -0.32752198011E+02  0.51630584686E+02  0.10000000000E+01 0.  0.
    9000005    1    3    3    0    0  0.31999627558E+02 -0.23833477226E+02 -0.32271994934E+03  0.32517868396E+03  0.10000000000E+01 0.  0.
<mgrwt>
<rscale>  0 0.12499911E+03</rscale>
<asrwt>0</asrwt>
<pdfrwt beam="1">  1        4 0.16413173E-02 0.12499911E+03</pdfrwt>
<pdfrwt beam="2">  1       -4 0.56329330E-01 0.12499911E+03</pdfrwt>
<totfact> 0.66873846E+03</totfact>
</mgrwt>
</event>
<event>
 5    1  0.3286491E-002  0.1250099E+03  0.7818608E-02  0.1235054E+00
          4   -1    0    0  501    0  0.00000000000E+00  0.00000000000E+00  0.56822033263E+01  0.58223993887E+01  0.12700000000E+01 0.  1.
         -4   -1    0    0    0  501 -0.00000000000E+00 -0.00000000000E+00 -0.67904273231E+03  0.67904391993E+03  0.12700000000E+01 0.  1.
         25    2    1    2    0    0  0.00000000000E+00  0.00000000000E+00 -0.67336052898E+03  0.68486631932E+03  0.12500989302E+03 0.  0.
    9000005    1    3    3    0    0  0.30094558317E+02  0.27380639802E+02 -0.59657628377E+03  0.59796291209E+03  0.10000000000E+01 0.  0.
    9000005    1    3    3    0    0 -0.30094558317E+02 -0.27380639802E+02 -0.76784245209E+02  0.86903407232E+02  0.10000000000E+01 0.  0.
<mgrwt>
<rscale>  0 0.12500989E+03</rscale>
<asrwt>0</asrwt>
<pdfrwt beam="1">  1        4 0.88506133E-03 0.12500989E+03</pdfrwt>
<pdfrwt beam="2">  1       -4 0.10447892E+00 0.12500989E+03</pdfrwt>
<totfact> 0.43888231E+03</totfact>
</mgrwt>
</event>
<event>
 5    1  0.3286491E-002  0.1249997E+03  0.7818608E-02  0.1235070E+00
         -4   -1    0    0    0  501 -0.00000000000E+00  0.00000000000E+00  0.21751724350E+02  0.21788768028E+02  0.12700000000E+01 0.  1.
          4   -1    0    0  501    0  0.00000000000E+00 -0.00000000000E+00 -0.17939048897E+03  0.17939498441E+03  0.12700000000E+01 0.  1.
         25    2    1    2    0    0  0.00000000000E+00  0.00000000000E+00 -0.15763876462E+03  0.20118375244E+03  0.12499968854E+03 0.  0.
    9000005    1    3    3    0    0  0.22754826192E+02 -0.13354575689E+02  0.12355634243E+02  0.29151132129E+02  0.10000000000E+01 0.  0.
    9000005    1    3    3    0    0 -0.22754826192E+02  0.13354575689E+02 -0.16999439886E+03  0.17203262031E+03  0.10000000000E+01 0.  0.
<mgrwt>
<rscale>  0 0.12499969E+03</rscale>
<asrwt>0</asrwt>
<pdfrwt beam="2">  1        4 0.27601731E-01 0.12499969E+03</pdfrwt>
<pdfrwt beam="1">  1       -4 0.33496146E-02 0.12499969E+03</pdfrwt>
<totfact> 0.89936868E+03</totfact>
</mgrwt>
</event>
<event>
 5    1  0.3286491E-002  0.1250002E+03  0.7818608E-02  0.1235069E+00
         -4   -1    0    0    0  501 -0.00000000000E+00  0.00000000000E+00  0.11650229585E+02  0.11719246963E+02  0.12700000000E+01 0. -1.
          4   -1    0    0  501    0  0.00000000000E+00 -0.00000000000E+00 -0.33423429941E+03  0.33423671223E+03  0.12700000000E+01 0. -1.
         25    2    1    2    0    0  0.00000000000E+00  0.00000000000E+00 -0.32258406983E+03  0.34595595920E+03  0.12500017438E+03 0.  0.
    9000005    1    3    3    0    0 -0.60351768766E+02  0.15185977867E+02 -0.17702408338E+03  0.18764721158E+03  0.10000000000E+01 0.  0.
    9000005    1    3    3    0    0  0.60351768766E+02 -0.15185977867E+02 -0.14555998645E+03  0.15830874761E+03  0.10000000000E+01 0.  0.
<mgrwt>
<rscale>  0 0.12500017E+03</rscale>
<asrwt>0</asrwt>
<pdfrwt beam="2">  1        4 0.51426149E-01 0.12500017E+03</pdfrwt>
<pdfrwt beam="1">  1       -4 0.17978379E-02 0.12500017E+03</pdfrwt>
<totfact> 0.70171485E+03</totfact>
</mgrwt>
</event>
<event>
 5    1  0.3286491E-002  0.1249991E+03  0.7818608E-02  0.1235071E+00
         -4   -1    0    0    0  501 -0.00000000000E+00  0.00000000000E+00  0.94362167777E+03  0.94362253240E+03  0.12700000000E+01 0. -1.
          4   -1    0    0  501    0  0.00000000000E+00 -0.00000000000E+00 -0.40412905158E+01  0.42361455397E+01  0.12700000000E+01 0. -1.
         25    2    1    2    0    0  0.00000000000E+00  0.00000000000E+00  0.93958038726E+03  0.94785867794E+03  0.12499907695E+03 0.  0.
    9000005    1    3    3    0    0 -0.23315586272E+02 -0.51616322157E+02  0.67003270390E+03  0.67242299601E+03  0.10000000000E+01 0.  0.
    9000005    1    3    3    0    0  0.23315586272E+02  0.51616322157E+02  0.26954768336E+03  0.27543568193E+03  0.10000000000E+01 0.  0.
<mgrwt>
<rscale>  0 0.12499908E+03</rscale>
<asrwt>0</asrwt>
<pdfrwt beam="2">  1        4 0.63679163E-03 0.12499908E+03</pdfrwt>
<pdfrwt beam="1">  1       -4 0.14518761E+00 0.12499908E+03</pdfrwt>
<totfact> 0.32392771E+03</totfact>
</mgrwt>
</event>
<event>
 5    1  0.3286491E-002  0.1250008E+03  0.7818608E-02  0.1235068E+00
          4   -1    0    0  501    0  0.00000000000E+00  0.00000000000E+00  0.26083157061E+02  0.26114057178E+02  0.12700000000E+01 0. -1.
         -4   -1    0    0    0  501 -0.00000000000E+00 -0.00000000000E+00 -0.14964112918E+03  0.14964651831E+03  0.12700000000E+01 0. -1.
         25    2    1    2    0    0  0.00000000000E+00  0.00000000000E+00 -0.12355797212E+03  0.17576057549E+03  0.12500082968E+03 0.  0.
    9000005    1    3    3    0    0 -0.13345357730E+02  0.60536750296E+02 -0.72895444733E+02  0.95695049883E+02  0.10000000000E+01 0.  0.
    9000005    1    3    3    0    0  0.13345357730E+02 -0.60536750296E+02 -0.50662527387E+02  0.80065525606E+02  0.10000000000E+01 0.  0.
<mgrwt>
<rscale>  0 0.12500083E+03</rscale>
<asrwt>0</asrwt>
<pdfrwt beam="1">  1        4 0.40155850E-02 0.12500083E+03</pdfrwt>
<pdfrwt beam="2">  1       -4 0.23024503E-01 0.12500083E+03</pdfrwt>
<totfact> 0.94383971E+03</totfact>
</mgrwt>
</event>
<event>
 5    1  0.3286491E-002  0.1249945E+03  0.7818608E-02  0.1235078E+00
          4   -1    0    0  501    0  0.00000000000E+00  0.00000000000E+00  0.10219799276E+03  0.10220588351E+03  0.12700000000E+01 0. -1.
         -4   -1    0    0    0  501 -0.00000000000E+00 -0.00000000000E+00 -0.38199093157E+02  0.38220199084E+02  0.12700000000E+01 0. -1.
         25    2    1    2    0    0  0.00000000000E+00  0.00000000000E+00  0.63998899600E+02  0.14042608259E+03  0.12499450197E+03 0.  0.
    9000005    1    3    3    0    0  0.11928267357E+02 -0.36874518384E+02 -0.23071689397E+02  0.45114482373E+02  0.10000000000E+01 0.  0.
    9000005    1    3    3    0    0 -0.11928267357E+02  0.36874518384E+02  0.87070588997E+02  0.95311600220E+02  0.10000000000E+01 0.  0.
<mgrwt>
<rscale>  0 0.12499450E+03</rscale>
<asrwt>0</asrwt>
<pdfrwt beam="1">  1        4 0.15724998E-01 0.12499450E+03</pdfrwt>
<pdfrwt beam="2">  1       -4 0.58790142E-02 0.12499450E+03</pdfrwt>
<totfact> 0.10126017E+04</totfact>
</mgrwt>
</event>
<event>
 5    1  0.3286491E-002  0.1250007E+03  0.7818608E-02  0.1235068E+00
          4   -1    0    0  501    0  0.00000000000E+00  0.00000000000E+00  0.24887848865E+02  0.24920231161E+02  0.12700000000E+01 0. -1.
         -4   -1    0    0    0  501 -0.00000000000E+00 -0.00000000000E+00 -0.15681897996E+03  0.15682412243E+03  0.12700000000E+01 0. -1.
         25    2    1    2    0    0  0.00000000000E+00  0.00000000000E+00 -0.13193113110E+03  0.18174435360E+03  0.12500074684E+03 0.  0.
    9000005    1    3    3    0    0  0.19006330371E+02 -0.44520036684E+02 -0.85020819647E+01  0.49158515623E+02  0.10000000000E+01 0.  0.
    9000005    1    3    3    0    0 -0.19006330371E+02  0.44520036684E+02 -0.12342904914E+03  0.13258583797E+03  0.10000000000E+01 0.  0.
<mgrwt>
<rscale>  0 0.12500075E+03</rscale>
<asrwt>0</asrwt>
<pdfrwt beam="1">  1        4 0.38317865E-02 0.12500075E+03</pdfrwt>
<pdfrwt beam="2">  1       -4 0.24128883E-01 0.12500075E+03</pdfrwt>
<totfact> 0.93302391E+03</totfact>
</mgrwt>
</event>
<event>
 5    1  0.3286491E-002  0.1250504E+03  0.7818608E-02  0.1234991E+00
          4   -1    0    0  501    0  0.00000000000E+00  0.00000000000E+00  0.17920267459E+01  0.21964197819E+01  0.12700000000E+01 0. -1.
         -4   -1    0    0    0  501 -0.00000000000E+00 -0.00000000000E+00 -0.19599572994E+04  0.19599577108E+04  0.12700000000E+01 0. -1.
         25    2    1    2    0    0  0.00000000000E+00  0.00000000000E+00 -0.19581652726E+04  0.19621541306E+04  0.12505037936E+03 0.  0.
    9000005    1    3    3    0    0 -0.14012426049E+02  0.34351882090E+02 -0.17686331302E+04  0.17690224841E+04  0.10000000000E+01 0.  0.
    9000005    1    3    3    0    0  0.14012426049E+02 -0.34351882090E+02 -0.18953214239E+03  0.19313164652E+03  0.10000000000E+01 0.  0.
<mgrwt>
<rscale>  0 0.12505038E+03</rscale>
<asrwt>0</asrwt>
<pdfrwt beam="1">  1        4 0.30683680E-03 0.12505038E+03</pdfrwt>
<pdfrwt beam="2">  1       -4 0.30156149E+00 0.12505038E+03</pdfrwt>
<totfact> 0.10352066E+03</totfact>
</mgrwt>
</event>
<event>
 5    1  0.3286491E-002  0.1249979E+03  0.7818608E-02  0.1235073E+00
         -4   -1    0    0    0  501 -0.00000000000E+00  0.00000000000E+00  0.71322033490E+02  0.71333339759E+02  0.12700000000E+01 0.  1.
          4   -1    0    0  501    0  0.00000000000E+00 -0.00000000000E+00 -0.54744340141E+02  0.54759069363E+02  0.12700000000E+01 0.  1.
         25    2    1    2    0    0  0.00000000000E+00  0.00000000000E+00  0.16577693349E+02  0.12609240912E+03  0.12499790287E+03 0.  0.
    9000005    1    3    3    0    0 -0.46418621980E+02  0.39741441491E+02 -0.49042148202E+01  0.61311678832E+02  0.10000000000E+01 0.  0.
    9000005    1    3    3    0    0  0.46418621980E+02 -0.39741441491E+02  0.21481908169E+02  0.64780730289E+02  0.10000000000E+01 0.  0.
<mgrwt>
<rscale>  0 0.12499790E+03</rscale>
<asrwt>0</asrwt>
<pdfrwt beam="2">  1        4 0.84242090E-02 0.12499790E+03</pdfrwt>
<pdfrwt beam="1">  1       -4 0.10974623E-01 0.12499790E+03</pdfrwt>
<totfact> 0.10429426E+04</totfact>
</mgrwt>
</event>
<event>
 5    1  0.3286491E-002  0.1250025E+03  0.7818608E-02  0.1235065E+00
          4   -1    0    0  501    0  0.00000000000E+00  0.00000000000E+00  0.26921015214E+02  0.26950954717E+02  0.12700000000E+01 0.  1.
         -4   -1    0    0    0  501 -0.00000000000E+00 -0.00000000000E+00 -0.14499285125E+03  0.14499841315E+03  0.12700000000E+01 0.  1.
         25    2    1    2    0    0  0.00000000000E+00  0.00000000000E+00 -0.11807183604E+03  0.17194936786E+03  0.12500250655E+03 0.  0.
    9000005    1    3    3    0    0 -0.38265100612E+02  0.51938821351E+01  0.85520816551E+01  0.39564282340E+02  0.10000000000E+01 0.  0.
    9000005    1    3    3    0    0  0.38265100612E+02 -0.51938821351E+01 -0.12662391770E+03  0.13238508552E+03  0.10000000000E+01 0.  0.
<mgrwt>
<rscale>  0 0.12500251E+03</rscale>
<asrwt>0</asrwt>
<pdfrwt beam="1">  1        4 0.41444256E-02 0.12500251E+03</pdfrwt>
<pdfrwt beam="2">  1       -4 0.22309323E-01 0.12500251E+03</pdfrwt>
<totfact> 0.95081197E+03</totfact>
</mgrwt>
</event>
<event>
 5    1  0.3286491E-002  0.1250012E+03  0.7818608E-02  0.1235067E+00
          4   -1    0    0  501    0  0.00000000000E+00  0.00000000000E+00  0.22031247955E+02  0.22067822422E+02  0.12700000000E+01 0. -1.
         -4   -1    0    0    0  501 -0.00000000000E+00 -0.00000000000E+00 -0.17712247064E+03  0.17712702365E+03  0.12700000000E+01 0. -1.
         25    2    1    2    0    0  0.00000000000E+00  0.00000000000E+00 -0.15509122269E+03  0.19919484607E+03  0.12500119738E+03 0.  0.
    9000005    1    3    3    0    0  0.61088114184E+02  0.89891539682E+01 -0.62197689872E+02  0.87647676575E+02  0.10000000000E+01 0.  0.
    9000005    1    3    3    0    0 -0.61088114184E+02 -0.89891539682E+01 -0.92893532814E+02  0.11154716950E+03  0.10000000000E+01 0.  0.
<mgrwt>
<rscale>  0 0.12500120E+03</rscale>
<asrwt>0</asrwt>
<pdfrwt beam="1">  1        4 0.33925865E-02 0.12500120E+03</pdfrwt>
<pdfrwt beam="2">  1       -4 0.27252774E-01 0.12500120E+03</pdfrwt>
<totfact> 0.90269061E+03</totfact>
</mgrwt>
</event>
<event>
 5    1  0.3286491E-002  0.1249954E+03  0.7818608E-02  0.1235076E+00
          4   -1    0    0  501    0  0.00000000000E+00  0.00000000000E+00  0.49960632448E+02  0.49976771551E+02  0.12700000000E+01 0. -1.
         -4   -1    0    0    0  501 -0.00000000000E+00 -0.00000000000E+00 -0.78146907009E+02  0.78157225994E+02  0.12700000000E+01 0. -1.
         25    2    1    2    0    0  0.00000000000E+00  0.00000000000E+00 -0.28186274561E+02  0.12813399754E+03  0.12499542093E+03 0.  0.
    9000005    1    3    3    0    0 -0.16059111473E+02 -0.55485268418E+02  0.10347798869E+02  0.58690604138E+02  0.10000000000E+01 0.  0.
    9000005    1    3    3    0    0  0.16059111473E+02  0.55485268418E+02 -0.38534073430E+02  0.69443393406E+02  0.10000000000E+01 0.  0.
<mgrwt>
<rscale>  0 0.12499542E+03</rscale>
<asrwt>0</asrwt>
<pdfrwt beam="1">  1        4 0.76882864E-02 0.12499542E+03</pdfrwt>
<pdfrwt beam="2">  1       -4 0.12024636E-01 0.12499542E+03</pdfrwt>
<totfact> 0.10385668E+04</totfact>
</mgrwt>
</event>
<event>
 5    1  0.3286491E-002  0.1250000E+03  0.7818608E-02  0.1235069E+00
          4   -1    0    0  501    0  0.00000000000E+00  0.00000000000E+00  0.26268111077E+03  0.26268418082E+03  0.12700000000E+01 0. -1.
         -4   -1    0    0    0  501 -0.00000000000E+00 -0.00000000000E+00 -0.14840406828E+02  0.14894649201E+02  0.12700000000E+01 0. -1.
         25    2    1    2    0    0  0.00000000000E+00  0.00000000000E+00  0.24784070394E+03  0.27757883003E+03  0.12499996939E+03 0.  0.
    9000005    1    3    3    0    0  0.53789724685E+02  0.15837037506E+02  0.62657413680E+02  0.84089819406E+02  0.10000000000E+01 0.  0.
    9000005    1    3    3    0    0 -0.53789724685E+02 -0.15837037506E+02  0.18518329026E+03  0.19348901062E+03  0.10000000000E+01 0.  0.
<mgrwt>
<rscale>  0 0.12499997E+03</rscale>
<asrwt>0</asrwt>
<pdfrwt beam="1">  1        4 0.40416883E-01 0.12499997E+03</pdfrwt>
<pdfrwt beam="2">  1       -4 0.22875484E-02 0.12499997E+03</pdfrwt>
<totfact> 0.78500290E+03</totfact>
</mgrwt>
</event>
<event>
 5    1  0.3286491E-002  0.1250017E+03  0.7818608E-02  0.1235067E+00
          4   -1    0    0  501    0  0.00000000000E+00  0.00000000000E+00  0.47001495031E+02  0.47018649865E+02  0.12700000000E+01 0.  1.
         -4   -1    0    0    0  501 -0.00000000000E+00 -0.00000000000E+00 -0.83074161563E+02  0.83083868587E+02  0.12700000000E+01 0.  1.
         25    2    1    2    0    0  0.00000000000E+00  0.00000000000E+00 -0.36072666531E+02  0.13010251845E+03  0.12500171214E+03 0.  0.
    9000005    1    3    3    0    0 -0.33031382910E+02  0.36746325763E+02 -0.57859806759E+02  0.76092850861E+02  0.10000000000E+01 0.  0.
    9000005    1    3    3    0    0  0.33031382910E+02 -0.36746325763E+02  0.21787140228E+02  0.54009667591E+02  0.10000000000E+01 0.  0.
<mgrwt>
<rscale>  0 0.12500171E+03</rscale>
<asrwt>0</asrwt>
<pdfrwt beam="1">  1        4 0.72330655E-02 0.12500171E+03</pdfrwt>
<pdfrwt beam="2">  1       -4 0.12782707E-01 0.12500171E+03</pdfrwt>
<totfact> 0.10341915E+04</totfact>
</mgrwt>
</event>
<event>
 5    1  0.3286491E-002  0.1250012E+03  0.7818608E-02  0.1235067E+00
          4   -1    0    0  501    0  0.00000000000E+00  0.00000000000E+00  0.80066710024E+03  0.80066810746E+03  0.12700000000E+01 0. -1.
         -4   -1    0    0    0  501 -0.00000000000E+00 -0.00000000000E+00 -0.47951625779E+01  0.49604923293E+01  0.12700000000E+01 0. -1.
         25    2    1    2    0    0  0.00000000000E+00  0.00000000000E+00  0.79587193766E+03  0.80562859979E+03  0.12500119857E+03 0.  0.
    9000005    1    3    3    0    0  0.18178924463E+02 -0.51740020474E+02  0.59105087382E+03  0.59359046359E+03  0.10000000000E+01 0.  0.
    9000005    1    3    3    0    0 -0.18178924463E+02  0.51740020474E+02  0.20482106384E+03  0.21203813621E+03  0.10000000000E+01 0.  0.
<mgrwt>
<rscale>  0 0.12500120E+03</rscale>
<asrwt>0</asrwt>
<pdfrwt beam="1">  1        4 0.12319239E+00 0.12500120E+03</pdfrwt>
<pdfrwt beam="2">  1       -4 0.75051225E-03 0.12500120E+03</pdfrwt>
<totfact> 0.38013675E+03</totfact>
</mgrwt>
</event>
<event>
 5    1  0.3286491E-002  0.1250019E+03  0.7818608E-02  0.1235066E+00
          4   -1    0    0  501    0  0.00000000000E+00  0.00000000000E+00  0.17539940315E+02  0.17585858133E+02  0.12700000000E+01 0.  1.
         -4   -1    0    0    0  501 -0.00000000000E+00 -0.00000000000E+00 -0.22237388921E+03  0.22237751573E+03  0.12700000000E+01 0.  1.
         25    2    1    2    0    0  0.00000000000E+00  0.00000000000E+00 -0.20483394889E+03  0.23996337386E+03  0.12500189669E+03 0.  0.
    9000005    1    3    3    0    0  0.59368612048E+02  0.13304168972E+01 -0.65046489662E+02  0.88082052219E+02  0.10000000000E+01 0.  0.
    9000005    1    3    3    0    0 -0.59368612048E+02 -0.13304168972E+01 -0.13978745923E+03  0.15188132164E+03  0.10000000000E+01 0.  0.
<mgrwt>
<rscale>  0 0.12500190E+03</rscale>
<asrwt>0</asrwt>
<pdfrwt beam="1">  1        4 0.27022636E-02 0.12500190E+03</pdfrwt>
<pdfrwt beam="2">  1       -4 0.34215177E-01 0.12500190E+03</pdfrwt>
<totfact> 0.83799280E+03</totfact>
</mgrwt>
</event>
<event>
 5    1  0.3286491E-002  0.1249983E+03  0.7818608E-02  0.1235072E+00
          4   -1    0    0  501    0  0.00000000000E+00  0.00000000000E+00  0.14439756443E+02  0.14495498133E+02  0.12700000000E+01 0.  1.
         -4   -1    0    0    0  501 -0.00000000000E+00 -0.00000000000E+00 -0.26993476118E+03  0.26993774874E+03  0.12700000000E+01 0.  1.
         25    2    1    2    0    0  0.00000000000E+00  0.00000000000E+00 -0.25549500474E+03  0.28443324687E+03  0.12499829791E+03 0.  0.
    9000005    1    3    3    0    0  0.61227409198E+02 -0.10580987509E+02 -0.11258669991E+03  0.12859828121E+03  0.10000000000E+01 0.  0.
    9000005    1    3    3    0    0 -0.61227409198E+02  0.10580987509E+02 -0.14290830483E+03  0.15583496566E+03  0.10000000000E+01 0.  0.
<mgrwt>
<rscale>  0 0.12499830E+03</rscale>
<asrwt>0</asrwt>
<pdfrwt beam="1">  1        4 0.22260188E-02 0.12499830E+03</pdfrwt>
<pdfrwt beam="2">  1       -4 0.41532939E-01 0.12499830E+03</pdfrwt>
<totfact> 0.77596874E+03</totfact>
</mgrwt>
</event>
<event>
 5    1  0.3286491E-002  0.1250010E+03  0.7818608E-02  0.1235068E+00
          4   -1    0    0  501    0  0.00000000000E+00  0.00000000000E+00  0.11161031181E+03  0.11161753716E+03  0.12700000000E+01 0.  1.
         -4   -1    0    0    0  501 -0.00000000000E+00 -0.00000000000E+00 -0.34979694389E+02  0.35002741601E+02  0.12700000000E+01 0.  1.
         25    2    1    2    0    0  0.00000000000E+00  0.00000000000E+00  0.76630617417E+02  0.14662027876E+03  0.12500101847E+03 0.  0.
    9000005    1    3    3    0    0  0.25260236960E+02 -0.56480151671E+02  0.48623057061E+02  0.78697450924E+02  0.10000000000E+01 0.  0.
    9000005    1    3    3    0    0 -0.25260236960E+02  0.56480151671E+02  0.28007560356E+02  0.67922827835E+02  0.10000000000E+01 0.  0.
<mgrwt>
<rscale>  0 0.12500102E+03</rscale>
<asrwt>0</asrwt>
<pdfrwt beam="1">  1        4 0.17173145E-01 0.12500102E+03</pdfrwt>
<pdfrwt beam="2">  1       -4 0.53838203E-02 0.12500102E+03</pdfrwt>
<totfact> 0.99979421E+03</totfact>
</mgrwt>
</event>
<event>
 5    1  0.3286491E-002  0.1249963E+03  0.7818608E-02  0.1235075E+00
         -4   -1    0    0    0  501 -0.00000000000E+00  0.00000000000E+00  0.15067604755E+04  0.15067610107E+04  0.12700000000E+01 0.  1.
          4   -1    0    0  501    0  0.00000000000E+00 -0.00000000000E+00 -0.24362142928E+01  0.27473696658E+01  0.12700000000E+01 0.  1.
         25    2    1    2    0    0  0.00000000000E+00  0.00000000000E+00  0.15043242612E+04  0.15095083804E+04  0.12499627035E+03 0.  0.
    9000005    1    3    3    0    0 -0.52801114693E+02  0.33417459376E+02  0.75912674747E+03  0.76169488841E+03  0.10000000000E+01 0.  0.
    9000005    1    3    3    0    0  0.52801114693E+02 -0.33417459376E+02  0.74519751373E+03  0.74781349197E+03  0.10000000000E+01 0.  0.
<mgrwt>
<rscale>  0 0.12499627E+03</rscale>
<asrwt>0</asrwt>
<pdfrwt beam="2">  1        4 0.39877862E-03 0.12499627E+03</pdfrwt>
<pdfrwt beam="1">  1       -4 0.23183315E+00 0.12499627E+03</pdfrwt>
<totfact> 0.17745719E+03</totfact>
</mgrwt>
</event>
<event>
 5    1  0.3286491E-002  0.1249986E+03  0.7818608E-02  0.1235071E+00
         -4   -1    0    0    0  501 -0.00000000000E+00  0.00000000000E+00  0.25266330257E+01  0.28278568646E+01  0.12700000000E+01 0. -1.
          4   -1    0    0  501    0  0.00000000000E+00 -0.00000000000E+00 -0.14587222862E+04  0.14587228391E+04  0.12700000000E+01 0. -1.
         25    2    1    2    0    0  0.00000000000E+00  0.00000000000E+00 -0.14561956532E+04  0.14615506959E+04  0.12499862557E+03 0.  0.
    9000005    1    3    3    0    0  0.61824909330E+02 -0.86375106478E+01 -0.69453781956E+03  0.69733830298E+03  0.10000000000E+01 0.  0.
    9000005    1    3    3    0    0 -0.61824909330E+02  0.86375106478E+01 -0.76165783363E+03  0.76421239295E+03  0.10000000000E+01 0.  0.
<mgrwt>
<rscale>  0 0.12499863E+03</rscale>
<asrwt>0</asrwt>
<pdfrwt beam="2">  1        4 0.22444139E+00 0.12499863E+03</pdfrwt>
<pdfrwt beam="1">  1       -4 0.41192753E-03 0.12499863E+03</pdfrwt>
<totfact> 0.18698036E+03</totfact>
</mgrwt>
</event>
<event>
 5    1  0.3286491E-002  0.1249568E+03  0.7818608E-02  0.1235137E+00
          4   -1    0    0  501    0  0.00000000000E+00  0.00000000000E+00  0.48889542394E+03  0.48889707347E+03  0.12700000000E+01 0.  1.
         -4   -1    0    0    0  501 -0.00000000000E+00 -0.00000000000E+00 -0.79322514746E+01  0.80332753878E+01  0.12700000000E+01 0.  1.
         25    2    1    2    0    0  0.00000000000E+00  0.00000000000E+00  0.48096317246E+03  0.49693034886E+03  0.12495678593E+03 0.  0.
    9000005    1    3    3    0    0  0.21638892134E+02  0.48829681681E+02  0.36934337199E+03  0.37318642245E+03  0.10000000000E+01 0.  0.
    9000005    1    3    3    0    0 -0.21638892134E+02 -0.48829681681E+02  0.11161980048E+03  0.12374392641E+03  0.10000000000E+01 0.  0.
<mgrwt>
<rscale>  0 0.12495679E+03</rscale>
<asrwt>0</asrwt>
<pdfrwt beam="1">  1        4 0.75222556E-01 0.12495679E+03</pdfrwt>
<pdfrwt beam="2">  1       -4 0.12282447E-02 0.12495679E+03</pdfrwt>
<totfact> 0.56156681E+03</totfact>
</mgrwt>
</event>
<event>
 5    1  0.3286491E-002  0.1250024E+03  0.7818608E-02  0.1235066E+00
         -4   -1    0    0    0  501 -0.00000000000E+00  0.00000000000E+00  0.15887566033E+03  0.15888073623E+03  0.12700000000E+01 0. -1.
          4   -1    0    0  501    0  0.00000000000E+00 -0.00000000000E+00 -0.24565907146E+02  0.24598713257E+02  0.12700000000E+01 0. -1.
         25    2    1    2    0    0  0.00000000000E+00  0.00000000000E+00  0.13430975319E+03  0.18347944949E+03  0.12500239432E+03 0.  0.
    9000005    1    3    3    0    0 -0.44744951814E+02  0.36295044522E+02  0.10268548069E+03  0.11774866842E+03  0.10000000000E+01 0.  0.
    9000005    1    3    3    0    0  0.44744951814E+02 -0.36295044522E+02  0.31624272500E+02  0.65730781076E+02  0.10000000000E+01 0.  0.
<mgrwt>
<rscale>  0 0.12500239E+03</rscale>
<asrwt>0</asrwt>
<pdfrwt beam="2">  1        4 0.37822842E-02 0.12500239E+03</pdfrwt>
<pdfrwt beam="1">  1       -4 0.24445324E-01 0.12500239E+03</pdfrwt>
<totfact> 0.92989423E+03</totfact>
</mgrwt>
</event>
<event>
 5    1  0.3286491E-002  0.1250004E+03  0.7818608E-02  0.1235069E+00
         -4   -1    0    0    0  501 -0.00000000000E+00  0.00000000000E+00  0.21520971548E+02  0.21558411731E+02  0.12700000000E+01 0. -1.
          4   -1    0    0  501    0  0.00000000000E+00 -0.00000000000E+00 -0.18131283875E+03  0.18131728653E+03  0.12700000000E+01 0. -1.
         25    2    1    2    0    0  0.00000000000E+00  0.00000000000E+00 -0.15979186720E+03  0.20287569826E+03  0.12500043249E+03 0.  0.
    9000005    1    3    3    0    0 -0.56085136997E+02  0.24299779213E+01 -0.12445695311E+03  0.13653563843E+03  0.10000000000E+01 0.  0.
    9000005    1    3    3    0    0  0.56085136997E+02 -0.24299779213E+01 -0.35334914095E+02  0.66340059834E+02  0.10000000000E+01 0.  0.
<mgrwt>
<rscale>  0 0.12500043E+03</rscale>
<asrwt>0</asrwt>
<pdfrwt beam="2">  1        4 0.27897504E-01 0.12500043E+03</pdfrwt>
<pdfrwt beam="1">  1       -4 0.33141410E-02 0.12500043E+03</pdfrwt>
<totfact> 0.89651886E+03</totfact>
</mgrwt>
</event>
<event>
 5    1  0.3286491E-002  0.1249975E+03  0.7818608E-02  0.1235073E+00
          4   -1    0    0  501    0  0.00000000000E+00  0.00000000000E+00  0.76080502426E+01  0.77133214956E+01  0.12700000000E+01 0.  1.
         -4   -1    0    0    0  501 -0.00000000000E+00 -0.00000000000E+00 -0.50978254143E+03  0.50978412338E+03  0.12700000000E+01 0.  1.
         25    2    1    2    0    0  0.00000000000E+00  0.00000000000E+00 -0.50217449119E+03  0.51749744487E+03  0.12499754338E+03 0.  0.
    9000005    1    3    3    0    0  0.12118459628E+02 -0.29628347934E+02 -0.28892817959E+02  0.43133409264E+02  0.10000000000E+01 0.  0.
    9000005    1    3    3    0    0 -0.12118459628E+02  0.29628347934E+02 -0.47328167323E+03  0.47436403561E+03  0.10000000000E+01 0.  0.
<mgrwt>
<rscale>  0 0.12499754E+03</rscale>
<asrwt>0</asrwt>
<pdfrwt beam="1">  1        4 0.11786892E-02 0.12499754E+03</pdfrwt>
<pdfrwt beam="2">  1       -4 0.78436276E-01 0.12499754E+03</pdfrwt>
<totfact> 0.54534841E+03</totfact>
</mgrwt>
</event>
<event>
 5    1  0.3286491E-002  0.1250028E+03  0.7818608E-02  0.1235065E+00
         -4   -1    0    0    0  501 -0.00000000000E+00  0.00000000000E+00  0.50971253428E+02  0.50987072636E+02  0.12700000000E+01 0. -1.
          4   -1    0    0  501    0  0.00000000000E+00 -0.00000000000E+00 -0.76606788662E+02  0.76617315074E+02  0.12700000000E+01 0. -1.
         25    2    1    2    0    0  0.00000000000E+00  0.00000000000E+00 -0.25635535235E+02  0.12760438771E+03  0.12500279635E+03 0.  0.
    9000005    1    3    3    0    0 -0.36991485085E+02  0.23931625992E+02 -0.58060969699E+02  0.72891487115E+02  0.10000000000E+01 0.  0.
    9000005    1    3    3    0    0  0.36991485085E+02 -0.23931625992E+02  0.32425434464E+02  0.54712900596E+02  0.10000000000E+01 0.  0.
<mgrwt>
<rscale>  0 0.12500280E+03</rscale>
<asrwt>0</asrwt>
<pdfrwt beam="2">  1        4 0.11787686E-01 0.12500280E+03</pdfrwt>
<pdfrwt beam="1">  1       -4 0.78437579E-02 0.12500280E+03</pdfrwt>
<totfact> 0.10395384E+04</totfact>
</mgrwt>
</event>
<event>
 5    1  0.3286491E-002  0.1249991E+03  0.7818608E-02  0.1235071E+00
          4   -1    0    0  501    0  0.00000000000E+00  0.00000000000E+00  0.93845837836E+03  0.93845923769E+03  0.12700000000E+01 0.  1.
         -4   -1    0    0    0  501 -0.00000000000E+00 -0.00000000000E+00 -0.40645966125E+01  0.42583853304E+01  0.12700000000E+01 0.  1.
         25    2    1    2    0    0  0.00000000000E+00  0.00000000000E+00  0.93439378175E+03  0.94271762302E+03  0.12499910957E+03 0.  0.
    9000005    1    3    3    0    0  0.30413702595E+02  0.45415348695E+02  0.23873563201E+03  0.24491477945E+03  0.10000000000E+01 0.  0.
    9000005    1    3    3    0    0 -0.30413702595E+02 -0.45415348695E+02  0.69565814974E+03  0.69780284357E+03  0.10000000000E+01 0.  0.
<mgrwt>
<rscale>  0 0.12499911E+03</rscale>
<asrwt>0</asrwt>
<pdfrwt beam="1">  1        4 0.14439305E+00 0.12499911E+03</pdfrwt>
<pdfrwt beam="2">  1       -4 0.64029610E-03 0.12499911E+03</pdfrwt>
<totfact> 0.32576608E+03</totfact>
</mgrwt>
</event>
<event>
 5    1  0.3286491E-002  0.1249995E+03  0.7818608E-02  0.1235070E+00
          4   -1    0    0  501    0  0.00000000000E+00  0.00000000000E+00  0.17065997976E+03  0.17066470517E+03  0.12700000000E+01 0. -1.
         -4   -1    0    0    0  501 -0.00000000000E+00 -0.00000000000E+00 -0.22866221669E+02  0.22901462692E+02  0.12700000000E+01 0. -1.
         25    2    1    2    0    0  0.00000000000E+00  0.00000000000E+00  0.14779375809E+03  0.19356616786E+03  0.12499946564E+03 0.  0.
    9000005    1    3    3    0    0  0.55749657436E+02  0.27621233543E+02  0.64833014045E+02  0.89862542568E+02  0.10000000000E+01 0.  0.
    9000005    1    3    3    0    0 -0.55749657436E+02 -0.27621233543E+02  0.82960744043E+02  0.10370362529E+03  0.10000000000E+01 0.  0.
<mgrwt>
<rscale>  0 0.12499947E+03</rscale>
<asrwt>0</asrwt>
<pdfrwt beam="1">  1        4 0.26258455E-01 0.12499947E+03</pdfrwt>
<pdfrwt beam="2">  1       -4 0.35209547E-02 0.12499947E+03</pdfrwt>
<totfact> 0.91231581E+03</totfact>
</mgrwt>
</event>
<event>
 5    1  0.3286491E-002  0.1249996E+03  0.7818608E-02  0.1235070E+00
         -4   -1    0    0    0  501 -0.00000000000E+00  0.00000000000E+00  0.32294194198E+02  0.32319156532E+02  0.12700000000E+01 0.  1.
          4   -1    0    0  501    0  0.00000000000E+00 -0.00000000000E+00 -0.12088250222E+03  0.12088917339E+03  0.12700000000E+01 0.  1.
         25    2    1    2    0    0  0.00000000000E+00  0.00000000000E+00 -0.88588308021E+02  0.15320832992E+03  0.12499961616E+03 0.  0.
    9000005    1    3    3    0    0 -0.24331195451E+02  0.51842988964E+02 -0.74948742531E+02  0.94329298649E+02  0.10000000000E+01 0.  0.
    9000005    1    3    3    0    0  0.24331195451E+02 -0.51842988964E+02 -0.13639565491E+02  0.58879031272E+02  0.10000000000E+01 0.  0.
<mgrwt>
<rscale>  0 0.12499962E+03</rscale>
<asrwt>0</asrwt>
<pdfrwt beam="2">  1        4 0.18599741E-01 0.12499962E+03</pdfrwt>
<pdfrwt beam="1">  1       -4 0.49707710E-02 0.12499962E+03</pdfrwt>
<totfact> 0.98668819E+03</totfact>
</mgrwt>
</event>
<event>
 5    1  0.3286491E-002  0.1249994E+03  0.7818608E-02  0.1235070E+00
         -4   -1    0    0    0  501 -0.00000000000E+00  0.00000000000E+00  0.51826494009E+02  0.51842052248E+02  0.12700000000E+01 0.  1.
          4   -1    0    0  501    0  0.00000000000E+00 -0.00000000000E+00 -0.75338770530E+02  0.75349474086E+02  0.12700000000E+01 0.  1.
         25    2    1    2    0    0  0.00000000000E+00  0.00000000000E+00 -0.23512276521E+02  0.12719152633E+03  0.12499942889E+03 0.  0.
    9000005    1    3    3    0    0 -0.52760817700E+02 -0.33488931182E+02 -0.11711669821E+02  0.63587542853E+02  0.10000000000E+01 0.  0.
    9000005    1    3    3    0    0  0.52760817700E+02  0.33488931182E+02 -0.11800606700E+02  0.63603983481E+02  0.10000000000E+01 0.  0.
<mgrwt>
<rscale>  0 0.12499943E+03</rscale>
<asrwt>0</asrwt>
<pdfrwt beam="2">  1        4 0.11592600E-01 0.12499943E+03</pdfrwt>
<pdfrwt beam="1">  1       -4 0.79753269E-02 0.12499943E+03</pdfrwt>
<totfact> 0.10405121E+04</totfact>
</mgrwt>
</event>
<event>
 5    1  0.3286491E-002  0.1250029E+03  0.7818608E-02  0.1235065E+00
          4   -1    0    0  501    0  0.00000000000E+00  0.00000000000E+00  0.10085983666E+02  0.10165626716E+02  0.12700000000E+01 0.  1.
         -4   -1    0    0    0  501 -0.00000000000E+00 -0.00000000000E+00 -0.38570896699E+03  0.38571105781E+03  0.12700000000E+01 0.  1.
         25    2    1    2    0    0  0.00000000000E+00  0.00000000000E+00 -0.37562298332E+03  0.39587668452E+03  0.12500289496E+03 0.  0.
    9000005    1    3    3    0    0 -0.23689362682E+01  0.38037365955E+02 -0.30960716842E+02  0.49112310628E+02  0.10000000000E+01 0.  0.
    9000005    1    3    3    0    0  0.23689362682E+01 -0.38037365955E+02 -0.34466226648E+03  0.34676437389E+03  0.10000000000E+01 0.  0.
<mgrwt>
<rscale>  0 0.12500289E+03</rscale>
<asrwt>0</asrwt>
<pdfrwt beam="1">  1        4 0.15579773E-02 0.12500289E+03</pdfrwt>
<pdfrwt beam="2">  1       -4 0.59346117E-01 0.12500289E+03</pdfrwt>
<totfact> 0.64951656E+03</totfact>
</mgrwt>
</event>
<event>
 5    1  0.3286491E-002  0.1249872E+03  0.7818608E-02  0.1235089E+00
         -4   -1    0    0    0  501 -0.00000000000E+00  0.00000000000E+00  0.36353952371E+02  0.36376128890E+02  0.12700000000E+01 0.  1.
          4   -1    0    0  501    0  0.00000000000E+00 -0.00000000000E+00 -0.10736982937E+03  0.10737734006E+03  0.12700000000E+01 0.  1.
         25    2    1    2    0    0  0.00000000000E+00  0.00000000000E+00 -0.71015876998E+02  0.14375346895E+03  0.12498721955E+03 0.  0.
    9000005    1    3    3    0    0  0.55038033814E+02 -0.30064584290E+01 -0.16571599946E+01  0.55154058216E+02  0.10000000000E+01 0.  0.
    9000005    1    3    3    0    0 -0.55038033814E+02  0.30064584290E+01 -0.69358717003E+02  0.88599410736E+02  0.10000000000E+01 0.  0.
<mgrwt>
<rscale>  0 0.12498722E+03</rscale>
<asrwt>0</asrwt>
<pdfrwt beam="2">  1        4 0.16520719E-01 0.12498722E+03</pdfrwt>
<pdfrwt beam="1">  1       -4 0.55951994E-02 0.12498722E+03</pdfrwt>
<totfact> 0.10059272E+04</totfact>
</mgrwt>
</event>
<event>
 5    1  0.3286491E-002  0.1249974E+03  0.7818608E-02  0.1235073E+00
         -4   -1    0    0    0  501 -0.00000000000E+00  0.00000000000E+00  0.50103119542E+03  0.50103280500E+03  0.12700000000E+01 0. -1.
          4   -1    0    0  501    0  0.00000000000E+00 -0.00000000000E+00 -0.77427396643E+01  0.78462040191E+01  0.12700000000E+01 0. -1.
         25    2    1    2    0    0  0.00000000000E+00  0.00000000000E+00  0.49328845576E+03  0.50887900902E+03  0.12499738092E+03 0.  0.
    9000005    1    3    3    0    0  0.40925382879E+02 -0.36638584734E+02  0.36794804985E+03  0.37202693483E+03  0.10000000000E+01 0.  0.
    9000005    1    3    3    0    0 -0.40925382879E+02  0.36638584734E+02  0.12534040591E+03  0.13685207419E+03  0.10000000000E+01 0.  0.
<mgrwt>
<rscale>  0 0.12499738E+03</rscale>
<asrwt>0</asrwt>
<pdfrwt beam="2">  1        4 0.11992729E-02 0.12499738E+03</pdfrwt>
<pdfrwt beam="1">  1       -4 0.77089832E-01 0.12499738E+03</pdfrwt>
<totfact> 0.55185149E+03</totfact>
</mgrwt>
</event>
<event>
 5    1  0.3286491E-002  0.1250015E+03  0.7818608E-02  0.1235067E+00
          4   -1    0    0  501    0  0.00000000000E+00  0.00000000000E+00  0.75837129202E+03  0.75837235542E+03  0.12700000000E+01 0.  1.
         -4   -1    0    0    0  501 -0.00000000000E+00 -0.00000000000E+00 -0.50715997567E+01  0.52281951084E+01  0.12700000000E+01 0.  1.
         25    2    1    2    0    0  0.00000000000E+00  0.00000000000E+00  0.75329969226E+03  0.76360055053E+03  0.12500149758E+03 0.  0.
    9000005    1    3    3    0    0 -0.42338093011E+01  0.21525582564E+02  0.19194175086E+02  0.29166628244E+02  0.10000000000E+01 0.  0.
    9000005    1    3    3    0    0  0.42338093011E+01 -0.21525582564E+02  0.73410551718E+03  0.73443392228E+03  0.10000000000E+01 0.  0.
<mgrwt>
<rscale>  0 0.12500150E+03</rscale>
<asrwt>0</asrwt>
<pdfrwt beam="1">  1        4 0.11668467E+00 0.12500150E+03</pdfrwt>
<pdfrwt beam="2">  1       -4 0.79237346E-03 0.12500150E+03</pdfrwt>
<totfact> 0.39930600E+03</totfact>
</mgrwt>
</event>
<event>
 5    1  0.3286491E-002  0.1249462E+03  0.7818608E-02  0.1235153E+00
          4   -1    0    0  501    0  0.00000000000E+00  0.00000000000E+00  0.25491273064E+02  0.25522889774E+02  0.12700000000E+01 0.  1.
         -4   -1    0    0    0  501 -0.00000000000E+00 -0.00000000000E+00 -0.15297768133E+03  0.15298295292E+03  0.12700000000E+01 0.  1.
         25    2    1    2    0    0  0.00000000000E+00  0.00000000000E+00 -0.12748640826E+03  0.17850584270E+03  0.12494619476E+03 0.  0.
    9000005    1    3    3    0    0  0.16424099886E+02 -0.59363132176E+02 -0.78600968266E+02  0.99864131354E+02  0.10000000000E+01 0.  0.
    9000005    1    3    3    0    0 -0.16424099886E+02  0.59363132176E+02 -0.48885439998E+02  0.78641711341E+02  0.10000000000E+01 0.  0.
<mgrwt>
<rscale>  0 0.12494619E+03</rscale>
<asrwt>0</asrwt>
<pdfrwt beam="1">  1        4 0.39245720E-02 0.12494619E+03</pdfrwt>
<pdfrwt beam="2">  1       -4 0.23537865E-01 0.12494619E+03</pdfrwt>
<totfact> 0.94000023E+03</totfact>
</mgrwt>
</event>
<event>
 5    1  0.3286491E-002  0.1249979E+03  0.7818608E-02  0.1235072E+00
         -4   -1    0    0    0  501 -0.00000000000E+00  0.00000000000E+00  0.62397884104E+03  0.62398013347E+03  0.12700000000E+01 0.  1.
          4   -1    0    0  501    0  0.00000000000E+00 -0.00000000000E+00 -0.61942972740E+01  0.63231494304E+01  0.12700000000E+01 0.  1.
         25    2    1    2    0    0  0.00000000000E+00  0.00000000000E+00  0.61778454376E+03  0.63030328290E+03  0.12499794366E+03 0.  0.
    9000005    1    3    3    0    0 -0.46278566081E+02  0.20350503369E+02  0.12366855897E+03  0.13360674064E+03  0.10000000000E+01 0.  0.
    9000005    1    3    3    0    0  0.46278566081E+02 -0.20350503369E+02  0.49411598479E+03  0.49669654226E+03  0.10000000000E+01 0.  0.
<mgrwt>
<rscale>  0 0.12499794E+03</rscale>
<asrwt>0</asrwt>
<pdfrwt beam="2">  1        4 0.96297963E-03 0.12499794E+03</pdfrwt>
<pdfrwt beam="1">  1       -4 0.96006786E-01 0.12499794E+03</pdfrwt>
<totfact> 0.47011102E+03</totfact>
</mgrwt>
</event>
<event>
 5    1  0.3286491E-002  0.1250077E+03  0.7818608E-02  0.1235057E+00
         -4   -1    0    0    0  501 -0.00000000000E+00  0.00000000000E+00  0.42450532961E+01  0.44309567237E+01  0.12700000000E+01 0. -1.
          4   -1    0    0  501    0  0.00000000000E+00 -0.00000000000E+00 -0.90039668539E+03  0.90039758105E+03  0.12700000000E+01 0. -1.
         25    2    1    2    0    0  0.00000000000E+00  0.00000000000E+00 -0.89615163209E+03  0.90482853777E+03  0.12500774002E+03 0.  0.
    9000005    1    3    3    0    0  0.36408197303E+02 -0.43709234293E+02 -0.63538668415E+03  0.63792890857E+03  0.10000000000E+01 0.  0.
    9000005    1    3    3    0    0 -0.36408197303E+02  0.43709234293E+02 -0.26076494794E+03  0.26689962920E+03  0.10000000000E+01 0.  0.
<mgrwt>
<rscale>  0 0.12500774E+03</rscale>
<asrwt>0</asrwt>
<pdfrwt beam="2">  1        4 0.13853679E+00 0.12500774E+03</pdfrwt>
<pdfrwt beam="1">  1       -4 0.66745500E-03 0.12500774E+03</pdfrwt>
<totfact> 0.33969997E+03</totfact>
</mgrwt>
</event>
<event>
 5    1  0.3286491E-002  0.1250072E+03  0.7818608E-02  0.1235058E+00
          4   -1    0    0  501    0  0.00000000000E+00  0.00000000000E+00  0.47667937321E+03  0.47668106501E+03  0.12700000000E+01 0.  1.
         -4   -1    0    0    0  501 -0.00000000000E+00 -0.00000000000E+00 -0.81447345661E+01  0.82431548058E+01  0.12700000000E+01 0.  1.
         25    2    1    2    0    0  0.00000000000E+00  0.00000000000E+00  0.46853463864E+03  0.48492421982E+03  0.12500716523E+03 0.  0.
    9000005    1    3    3    0    0  0.50450990715E+02  0.28766997733E+01  0.37690904462E+03  0.38028279711E+03  0.10000000000E+01 0.  0.
    9000005    1    3    3    0    0 -0.50450990715E+02 -0.28766997733E+01  0.91625594028E+02  0.10464142271E+03  0.10000000000E+01 0.  0.
<mgrwt>
<rscale>  0 0.12500717E+03</rscale>
<asrwt>0</asrwt>
<pdfrwt beam="1">  1        4 0.73343005E-01 0.12500717E+03</pdfrwt>
<pdfrwt beam="2">  1       -4 0.12607367E-02 0.12500717E+03</pdfrwt>
<totfact> 0.57044330E+03</totfact>
</mgrwt>
</event>
<event>
 5    1  0.3286491E-002  0.1250016E+03  0.7818608E-02  0.1235067E+00
          4   -1    0    0  501    0  0.00000000000E+00  0.00000000000E+00  0.25202085801E+03  0.25202405792E+03  0.12700000000E+01 0. -1.
         -4   -1    0    0    0  501 -0.00000000000E+00 -0.00000000000E+00 -0.15470784616E+02  0.15522824377E+02  0.12700000000E+01 0. -1.
         25    2    1    2    0    0  0.00000000000E+00  0.00000000000E+00  0.23655007340E+03  0.26754688230E+03  0.12500158801E+03 0.  0.
    9000005    1    3    3    0    0 -0.11506122845E+02 -0.58126586984E+02  0.75776422131E+02  0.96198529762E+02  0.10000000000E+01 0.  0.
    9000005    1    3    3    0    0  0.11506122845E+02  0.58126586984E+02  0.16077365126E+03  0.17134835254E+03  0.10000000000E+01 0.  0.
<mgrwt>
<rscale>  0 0.12500159E+03</rscale>
<asrwt>0</asrwt>
<pdfrwt beam="1">  1        4 0.38776686E-01 0.12500159E+03</pdfrwt>
<pdfrwt beam="2">  1       -4 0.23843701E-02 0.12500159E+03</pdfrwt>
<totfact> 0.79855671E+03</totfact>
</mgrwt>
</event>
<event>
 5    1  0.3286491E-002  0.1250038E+03  0.7818608E-02  0.1235063E+00
         -4   -1    0    0    0  501 -0.00000000000E+00  0.00000000000E+00  0.27853759075E+03  0.27854048604E+03  0.12700000000E+01 0. -1.
          4   -1    0    0  501    0  0.00000000000E+00 -0.00000000000E+00 -0.13993270702E+02  0.14050783783E+02  0.12700000000E+01 0. -1.
         25    2    1    2    0    0  0.00000000000E+00  0.00000000000E+00  0.26454432005E+03  0.29259126982E+03  0.12500381556E+03 0.  0.
    9000005    1    3    3    0    0  0.51688891288E+01 -0.60915071190E+02  0.10192245644E+03  0.11885516581E+03  0.10000000000E+01 0.  0.
    9000005    1    3    3    0    0 -0.51688891288E+01  0.60915071190E+02  0.16262186361E+03  0.17373610401E+03  0.10000000000E+01 0.  0.
<mgrwt>
<rscale>  0 0.12500382E+03</rscale>
<asrwt>0</asrwt>
<pdfrwt beam="2">  1        4 0.21574576E-02 0.12500382E+03</pdfrwt>
<pdfrwt beam="1">  1       -4 0.42856586E-01 0.12500382E+03</pdfrwt>
<totfact> 0.76531185E+03</totfact>
</mgrwt>
</event>
<event>
 5    1  0.3286491E-002  0.1250007E+03  0.7818608E-02  0.1235068E+00
         -4   -1    0    0    0  501 -0.00000000000E+00  0.00000000000E+00  0.10383773776E+03  0.10384550391E+03  0.12700000000E+01 0. -1.
          4   -1    0    0  501    0  0.00000000000E+00 -0.00000000000E+00 -0.37599321172E+02  0.37620763584E+02  0.12700000000E+01 0. -1.
         25    2    1    2    0    0  0.00000000000E+00  0.00000000000E+00  0.66238416585E+02  0.14146626750E+03  0.12500070803E+03 0.  0.
    9000005    1    3    3    0    0 -0.54861377717E+02  0.26498644326E+02  0.17382739967E+02  0.63364884320E+02  0.10000000000E+01 0.  0.
    9000005    1    3    3    0    0  0.54861377717E+02 -0.26498644326E+02  0.48855676618E+02  0.78101383175E+02  0.10000000000E+01 0.  0.
<mgrwt>
<rscale>  0 0.12500071E+03</rscale>
<asrwt>0</asrwt>
<pdfrwt beam="2">  1        4 0.57867577E-02 0.12500071E+03</pdfrwt>
<pdfrwt beam="1">  1       -4 0.15977284E-01 0.12500071E+03</pdfrwt>
<totfact> 0.10103125E+04</totfact>
</mgrwt>
</event>
<event>
 5    1  0.3286491E-002  0.1249872E+03  0.7818608E-02  0.1235089E+00
          4   -1    0    0  501    0  0.00000000000E+00  0.00000000000E+00  0.37034912960E+01  0.39151944754E+01  0.12700000000E+01 0.  1.
         -4   -1    0    0    0  501 -0.00000000000E+00 -0.00000000000E+00 -0.10250176050E+04  0.10250183918E+04  0.12700000000E+01 0.  1.
         25    2    1    2    0    0  0.00000000000E+00  0.00000000000E+00 -0.10213141137E+04  0.10289335863E+04  0.12498722353E+03 0.  0.
    9000005    1    3    3    0    0  0.33888573525E+02 -0.49117126854E+01 -0.80374817265E+02  0.87370885239E+02  0.10000000000E+01 0.  0.
    9000005    1    3    3    0    0 -0.33888573525E+02  0.49117126854E+01 -0.94093929647E+03  0.94156270103E+03  0.10000000000E+01 0.  0.
<mgrwt>
<rscale>  0 0.12498722E+03</rscale>
<asrwt>0</asrwt>
<pdfrwt beam="1">  1        4 0.58611409E-03 0.12498722E+03</pdfrwt>
<pdfrwt beam="2">  1       -4 0.15771114E+00 0.12498722E+03</pdfrwt>
<totfact> 0.29670077E+03</totfact>
</mgrwt>
</event>
<event>
 5    1  0.3286491E-002  0.1250014E+03  0.7818608E-02  0.1235067E+00
         -4   -1    0    0    0  501 -0.00000000000E+00  0.00000000000E+00  0.20180469377E+03  0.20180868992E+03  0.12700000000E+01 0.  1.
          4   -1    0    0  501    0  0.00000000000E+00 -0.00000000000E+00 -0.19331992363E+02  0.19373663275E+02  0.12700000000E+01 0.  1.
         25    2    1    2    0    0  0.00000000000E+00  0.00000000000E+00  0.18247270141E+03  0.22118235319E+03  0.12500138642E+03 0.  0.
    9000005    1    3    3    0    0 -0.42089322397E+02 -0.32016678584E+01  0.96965890519E+01  0.43321883340E+02  0.10000000000E+01 0.  0.
    9000005    1    3    3    0    0  0.42089322397E+02  0.32016678584E+01  0.17277611235E+03  0.17786046985E+03  0.10000000000E+01 0.  0.
<mgrwt>
<rscale>  0 0.12500139E+03</rscale>
<asrwt>0</asrwt>
<pdfrwt beam="2">  1        4 0.29776654E-02 0.12500139E+03</pdfrwt>
<pdfrwt beam="1">  1       -4 0.31050390E-01 0.12500139E+03</pdfrwt>
<totfact> 0.86678917E+03</totfact>
</mgrwt>
</event>
<event>
 5    1  0.3286491E-002  0.1250021E+03  0.7818608E-02  0.1235066E+00
          4   -1    0    0  501    0  0.00000000000E+00  0.00000000000E+00  0.20743878151E+03  0.20744266912E+03  0.12700000000E+01 0.  1.
         -4   -1    0    0    0  501 -0.00000000000E+00 -0.00000000000E+00 -0.18806014756E+02  0.18848848533E+02  0.12700000000E+01 0.  1.
         25    2    1    2    0    0  0.00000000000E+00  0.00000000000E+00  0.18863276675E+03  0.22629151766E+03  0.12500212107E+03 0.  0.
    9000005    1    3    3    0    0  0.40233966121E+02  0.47286919358E+02  0.81444415192E+02  0.10241590471E+03  0.10000000000E+01 0.  0.
    9000005    1    3    3    0    0 -0.40233966121E+02 -0.47286919358E+02  0.10718835156E+03  0.12387561294E+03  0.10000000000E+01 0.  0.
<mgrwt>
<rscale>  0 0.12500212E+03</rscale>
<asrwt>0</asrwt>
<pdfrwt beam="1">  1        4 0.31917253E-01 0.12500212E+03</pdfrwt>
<pdfrwt beam="2">  1       -4 0.28968270E-02 0.12500212E+03</pdfrwt>
<totfact> 0.85878243E+03</totfact>
</mgrwt>
</event>
<event>
 5    1  0.3286491E-002  0.1250006E+03  0.7818608E-02  0.1235068E+00
         -4   -1    0    0    0  501 -0.00000000000E+00  0.00000000000E+00  0.12041525386E+03  0.12042195091E+03  0.12700000000E+01 0. -1.
          4   -1    0    0  501    0  0.00000000000E+00 -0.00000000000E+00 -0.32420117142E+02  0.32444982593E+02  0.12700000000E+01 0. -1.
         25    2    1    2    0    0  0.00000000000E+00  0.00000000000E+00  0.87995136715E+02  0.15286693351E+03  0.12500062109E+03 0.  0.
    9000005    1    3    3    0    0  0.36393800286E+02  0.22326138535E+02  0.99802875075E+02  0.10855680096E+03  0.10000000000E+01 0.  0.
    9000005    1    3    3    0    0 -0.36393800286E+02 -0.22326138535E+02 -0.11807738360E+02  0.44310132547E+02  0.10000000000E+01 0.  0.
<mgrwt>
<rscale>  0 0.12500062E+03</rscale>
<asrwt>0</asrwt>
<pdfrwt beam="2">  1        4 0.49901382E-02 0.12500062E+03</pdfrwt>
<pdfrwt beam="1">  1       -4 0.18527852E-01 0.12500062E+03</pdfrwt>
<totfact> 0.98733878E+03</totfact>
</mgrwt>
</event>
<event>
 5    1  0.3286491E-002  0.1250048E+03  0.7818608E-02  0.1235062E+00
          4   -1    0    0  501    0  0.00000000000E+00  0.00000000000E+00  0.93914964563E+02  0.93923551194E+02  0.12700000000E+01 0. -1.
         -4   -1    0    0    0  501 -0.00000000000E+00 -0.00000000000E+00 -0.41576513790E+02  0.41595906036E+02  0.12700000000E+01 0. -1.
         25    2    1    2    0    0  0.00000000000E+00  0.00000000000E+00  0.52338450773E+02  0.13551945723E+03  0.12500483934E+03 0.  0.
    9000005    1    3    3    0    0  0.36016581565E+02  0.50864569703E+02  0.21183025314E+02  0.65834027373E+02  0.10000000000E+01 0.  0.
    9000005    1    3    3    0    0 -0.36016581565E+02 -0.50864569703E+02  0.31155425459E+02  0.69685429856E+02  0.10000000000E+01 0.  0.
<mgrwt>
<rscale>  0 0.12500484E+03</rscale>
<asrwt>0</asrwt>
<pdfrwt beam="1">  1        4 0.14450608E-01 0.12500484E+03</pdfrwt>
<pdfrwt beam="2">  1       -4 0.63985389E-02 0.12500484E+03</pdfrwt>
<totfact> 0.10226018E+04</totfact>
</mgrwt>
</event>
<event>
 5    1  0.3286491E-002  0.1250046E+03  0.7818608E-02  0.1235062E+00
          4   -1    0    0  501    0  0.00000000000E+00  0.00000000000E+00  0.58454523930E+01  0.59818236082E+01  0.12700000000E+01 0.  1.
         -4   -1    0    0    0  501 -0.00000000000E+00 -0.00000000000E+00 -0.66046088108E+03  0.66046210212E+03  0.12700000000E+01 0.  1.
         25    2    1    2    0    0  0.00000000000E+00  0.00000000000E+00 -0.65461542868E+03  0.66644392573E+03  0.12500458658E+03 0.  0.
    9000005    1    3    3    0    0 -0.56985723800E+02  0.25067634197E+02 -0.35640034448E+03  0.36179823735E+03  0.10000000000E+01 0.  0.
    9000005    1    3    3    0    0  0.56985723800E+02 -0.25067634197E+02 -0.29821508420E+03  0.30464568838E+03  0.10000000000E+01 0.  0.
<mgrwt>
<rscale>  0 0.12500459E+03</rscale>
<asrwt>0</asrwt>
<pdfrwt beam="1">  1        4 0.90988491E-03 0.12500459E+03</pdfrwt>
<pdfrwt beam="2">  1       -4 0.10161989E+00 0.12500459E+03</pdfrwt>
<totfact> 0.44913712E+03</totfact>
</mgrwt>
</event>
<event>
 5    1  0.3286491E-002  0.1249994E+03  0.7818608E-02  0.1235070E+00
         -4   -1    0    0    0  501 -0.00000000000E+00  0.00000000000E+00  0.20003073513E+03  0.20003476672E+03  0.12700000000E+01 0. -1.
          4   -1    0    0  501    0  0.00000000000E+00 -0.00000000000E+00 -0.19503176074E+02  0.19544482008E+02  0.12700000000E+01 0. -1.
         25    2    1    2    0    0  0.00000000000E+00  0.00000000000E+00  0.18052755906E+03  0.21957924873E+03  0.12499938757E+03 0.  0.
    9000005    1    3    3    0    0 -0.69036630996E+01  0.40778950701E+02  0.17255697019E+03  0.17744715085E+03  0.10000000000E+01 0.  0.
    9000005    1    3    3    0    0  0.69036630996E+01 -0.40778950701E+02  0.79705888652E+01  0.42132097875E+02  0.10000000000E+01 0.  0.
<mgrwt>
<rscale>  0 0.12499939E+03</rscale>
<asrwt>0</asrwt>
<pdfrwt beam="2">  1        4 0.30039762E-02 0.12499939E+03</pdfrwt>
<pdfrwt beam="1">  1       -4 0.30777446E-01 0.12499939E+03</pdfrwt>
<totfact> 0.86936161E+03</totfact>
</mgrwt>
</event>
<event>
 5    1  0.3286491E-002  0.1250001E+03  0.7818608E-02  0.1235069E+00
          4   -1    0    0  501    0  0.00000000000E+00  0.00000000000E+00  0.13713714037E+02  0.13772394588E+02  0.12700000000E+01 0. -1.
         -4   -1    0    0    0  501 -0.00000000000E+00 -0.00000000000E+00 -0.28417496773E+03  0.28417780558E+03  0.12700000000E+01 0. -1.
         25    2    1    2    0    0  0.00000000000E+00  0.00000000000E+00 -0.27046125370E+03  0.29795020017E+03  0.12500012812E+03 0.  0.
    9000005    1    3    3    0    0  0.62007936284E+02  0.40858026120E+01 -0.15096600368E+03  0.16325872783E+03  0.10000000000E+01 0.  0.
    9000005    1    3    3    0    0 -0.62007936284E+02 -0.40858026120E+01 -0.11949525002E+03  0.13469147234E+03  0.10000000000E+01 0.  0.
<mgrwt>
<rscale>  0 0.12500013E+03</rscale>
<asrwt>0</asrwt>
<pdfrwt beam="1">  1        4 0.21145346E-02 0.12500013E+03</pdfrwt>
<pdfrwt beam="2">  1       -4 0.43723954E-01 0.12500013E+03</pdfrwt>
<totfact> 0.75856469E+03</totfact>
</mgrwt>
</event>
<event>
 5    1  0.3286491E-002  0.1249970E+03  0.7818608E-02  0.1235074E+00
         -4   -1    0    0    0  501 -0.00000000000E+00  0.00000000000E+00  0.69185208634E+01  0.70341190590E+01  0.12700000000E+01 0. -1.
          4   -1    0    0  501    0  0.00000000000E+00 -0.00000000000E+00 -0.55978695141E+03  0.55978839205E+03  0.12700000000E+01 0. -1.
         25    2    1    2    0    0  0.00000000000E+00  0.00000000000E+00 -0.55286843055E+03  0.56682251111E+03  0.12499703036E+03 0.  0.
    9000005    1    3    3    0    0 -0.59096987761E+02 -0.16225143809E+01 -0.36825216895E+03  0.37296882772E+03  0.10000000000E+01 0.  0.
    9000005    1    3    3    0    0  0.59096987761E+02  0.16225143809E+01 -0.18461626160E+03  0.19385368338E+03  0.10000000000E+01 0.  0.
<mgrwt>
<rscale>  0 0.12499703E+03</rscale>
<asrwt>0</asrwt>
<pdfrwt beam="2">  1        4 0.86130038E-01 0.12499703E+03</pdfrwt>
<pdfrwt beam="1">  1       -4 0.10733912E-02 0.12499703E+03</pdfrwt>
<totfact> 0.51034495E+03</totfact>
</mgrwt>
</event>
<event>
 5    1  0.3286491E-002  0.1250089E+03  0.7818608E-02  0.1235055E+00
         -4   -1    0    0    0  501 -0.00000000000E+00  0.00000000000E+00  0.13319819591E+02  0.13380227723E+02  0.12700000000E+01 0.  1.
          4   -1    0    0  501    0  0.00000000000E+00 -0.00000000000E+00 -0.29258218810E+03  0.29258494441E+03  0.12700000000E+01 0.  1.
         25    2    1    2    0    0  0.00000000000E+00  0.00000000000E+00 -0.27926236851E+03  0.30596517213E+03  0.12500886405E+03 0.  0.
    9000005    1    3    3    0    0  0.34273366039E+02 -0.57012263082E+00 -0.11729178912E+02  0.36243099997E+02  0.10000000000E+01 0.  0.
    9000005    1    3    3    0    0 -0.34273366039E+02  0.57012263082E+00 -0.26753318960E+03  0.26972207213E+03  0.10000000000E+01 0.  0.
<mgrwt>
<rscale>  0 0.12500886E+03</rscale>
<asrwt>0</asrwt>
<pdfrwt beam="2">  1        4 0.45017498E-01 0.12500886E+03</pdfrwt>
<pdfrwt beam="1">  1       -4 0.20540620E-02 0.12500886E+03</pdfrwt>
<totfact> 0.74841899E+03</totfact>
</mgrwt>
</event>
<event>
 5    1  0.3286491E-002  0.1250097E+03  0.7818608E-02  0.1235054E+00
          4   -1    0    0  501    0  0.00000000000E+00  0.00000000000E+00  0.48572421406E+01  0.50205279814E+01  0.12700000000E+01 0. -1.
         -4   -1    0    0    0  501 -0.00000000000E+00 -0.00000000000E+00 -0.79087615089E+03  0.79087717058E+03  0.12700000000E+01 0. -1.
         25    2    1    2    0    0  0.00000000000E+00  0.00000000000E+00 -0.78601890875E+03  0.79589769856E+03  0.12500968629E+03 0.  0.
    9000005    1    3    3    0    0  0.34986261812E+02  0.50837115617E+02 -0.45584469246E+03  0.46000416790E+03  0.10000000000E+01 0.  0.
    9000005    1    3    3    0    0 -0.34986261812E+02 -0.50837115617E+02 -0.33017421629E+03  0.33589353066E+03  0.10000000000E+01 0.  0.
<mgrwt>
<rscale>  0 0.12500969E+03</rscale>
<asrwt>0</asrwt>
<pdfrwt beam="1">  1        4 0.75990754E-03 0.12500969E+03</pdfrwt>
<pdfrwt beam="2">  1       -4 0.12168579E+00 0.12500969E+03</pdfrwt>
<totfact> 0.38440413E+03</totfact>
</mgrwt>
</event>
<event>
 5    1  0.3286491E-002  0.1249936E+03  0.7818608E-02  0.1235079E+00
         -4   -1    0    0    0  501 -0.00000000000E+00  0.00000000000E+00  0.11004600992E+02  0.11077641581E+02  0.12700000000E+01 0.  1.
          4   -1    0    0  501    0  0.00000000000E+00 -0.00000000000E+00 -0.35368045258E+03  0.35368273274E+03  0.12700000000E+01 0.  1.
         25    2    1    2    0    0  0.00000000000E+00  0.00000000000E+00 -0.34267585159E+03  0.36476037432E+03  0.12499356548E+03 0.  0.
    9000005    1    3    3    0    0  0.22424069292E+02  0.75463131874E+01 -0.34011835625E+03  0.34094175747E+03  0.10000000000E+01 0.  0.
    9000005    1    3    3    0    0 -0.22424069292E+02 -0.75463131874E+01 -0.25574953384E+01  0.23818616852E+02  0.10000000000E+01 0.  0.
<mgrwt>
<rscale>  0 0.12499357E+03</rscale>
<asrwt>0</asrwt>
<pdfrwt beam="2">  1        4 0.54418163E-01 0.12499357E+03</pdfrwt>
<pdfrwt beam="1">  1       -4 0.16988097E-02 0.12499357E+03</pdfrwt>
<totfact> 0.68140385E+03</totfact>
</mgrwt>
</event>
<event>
 5    1  0.3286491E-002  0.1250058E+03  0.7818608E-02  0.1235060E+00
         -4   -1    0    0    0  501 -0.00000000000E+00  0.00000000000E+00  0.20702991921E+02  0.20741908651E+02  0.12700000000E+01 0. -1.
          4   -1    0    0  501    0  0.00000000000E+00 -0.00000000000E+00 -0.18847965338E+03  0.18848393205E+03  0.12700000000E+01 0. -1.
         25    2    1    2    0    0  0.00000000000E+00  0.00000000000E+00 -0.16777666146E+03  0.20922584070E+03  0.12500577700E+03 0.  0.
    9000005    1    3    3    0    0  0.13503519348E+02 -0.48552971405E+02 -0.22031065382E+02  0.55010034620E+02  0.10000000000E+01 0.  0.
    9000005    1    3    3    0    0 -0.13503519348E+02  0.48552971405E+02 -0.14574559608E+03  0.15421580608E+03  0.10000000000E+01 0.  0.
<mgrwt>
<rscale>  0 0.12500578E+03</rscale>
<asrwt>0</asrwt>
<pdfrwt beam="2">  1        4 0.29000191E-01 0.12500578E+03</pdfrwt>
<pdfrwt beam="1">  1       -4 0.31883985E-02 0.12500578E+03</pdfrwt>
<totfact> 0.88591025E+03</totfact>
</mgrwt>
</event>
<event>
 5    1  0.3286491E-002  0.1250107E+03  0.7818608E-02  0.1235053E+00
         -4   -1    0    0    0  501 -0.00000000000E+00  0.00000000000E+00  0.80594077747E+01  0.81588573758E+01  0.12700000000E+01 0. -1.
          4   -1    0    0  501    0  0.00000000000E+00 -0.00000000000E+00 -0.48169223100E+03  0.48169390520E+03  0.12700000000E+01 0. -1.
         25    2    1    2    0    0  0.00000000000E+00  0.00000000000E+00 -0.47363282323E+03  0.48985276258E+03  0.12501071060E+03 0.  0.
    9000005    1    3    3    0    0  0.30591325457E+02  0.90293242590E+01 -0.26216031407E+02  0.41299372786E+02  0.10000000000E+01 0.  0.
    9000005    1    3    3    0    0 -0.30591325457E+02 -0.90293242590E+01 -0.44741679182E+03  0.44855338979E+03  0.10000000000E+01 0.  0.
<mgrwt>
<rscale>  0 0.12501071E+03</rscale>
<asrwt>0</asrwt>
<pdfrwt beam="2">  1        4 0.74114253E-01 0.12501071E+03</pdfrwt>
<pdfrwt beam="1">  1       -4 0.12476880E-02 0.12501071E+03</pdfrwt>
<totfact> 0.56647016E+03</totfact>
</mgrwt>
</event>
<event>
 5    1  0.3286491E-002  0.1249971E+03  0.7818608E-02  0.1235074E+00
          4   -1    0    0  501    0  0.00000000000E+00  0.00000000000E+00  0.22849427623E+02  0.22884694508E+02  0.12700000000E+01 0. -1.
         -4   -1    0    0    0  501 -0.00000000000E+00 -0.00000000000E+00 -0.17077882465E+03  0.17078354678E+03  0.12700000000E+01 0. -1.
         25    2    1    2    0    0  0.00000000000E+00  0.00000000000E+00 -0.14792939703E+03  0.19366824128E+03  0.12499712467E+03 0.  0.
    9000005    1    3    3    0    0  0.43514381400E+02 -0.11204094149E+02 -0.14125206183E+03  0.14823015242E+03  0.10000000000E+01 0.  0.
    9000005    1    3    3    0    0 -0.43514381400E+02  0.11204094149E+02 -0.66773351952E+01  0.45438088864E+02  0.10000000000E+01 0.  0.
<mgrwt>
<rscale>  0 0.12499712E+03</rscale>
<asrwt>0</asrwt>
<pdfrwt beam="1">  1        4 0.35183727E-02 0.12499712E+03</pdfrwt>
<pdfrwt beam="2">  1       -4 0.26276741E-01 0.12499712E+03</pdfrwt>
<totfact> 0.91218815E+03</totfact>
</mgrwt>
</event>
<event>
 5    1  0.3286491E-002  0.1249996E+03  0.7818608E-02  0.1235070E+00
         -4   -1    0    0    0  501 -0.00000000000E+00  0.00000000000E+00  0.27181208064E+02  0.27210861284E+02  0.12700000000E+01 0. -1.
          4   -1    0    0  501    0  0.00000000000E+00 -0.00000000000E+00 -0.14359964387E+03  0.14360525972E+03  0.12700000000E+01 0. -1.
         25    2    1    2    0    0  0.00000000000E+00  0.00000000000E+00 -0.11641843580E+03  0.17081612100E+03  0.12499958000E+03 0.  0.
    9000005    1    3    3    0    0  0.19908494230E+02 -0.41154636049E+02 -0.11643014789E+03  0.12508809515E+03  0.10000000000E+01 0.  0.
    9000005    1    3    3    0    0 -0.19908494230E+02  0.41154636049E+02  0.11712089328E-01  0.45728025848E+02  0.10000000000E+01 0.  0.
<mgrwt>
<rscale>  0 0.12499958E+03</rscale>
<asrwt>0</asrwt>
<pdfrwt beam="2">  1        4 0.22094966E-01 0.12499958E+03</pdfrwt>
<pdfrwt beam="1">  1       -4 0.41844374E-02 0.12499958E+03</pdfrwt>
<totfact> 0.95297639E+03</totfact>
</mgrwt>
</event>
<event>
 5    1  0.3286491E-002  0.1249956E+03  0.7818608E-02  0.1235076E+00
          4   -1    0    0  501    0  0.00000000000E+00  0.00000000000E+00  0.41750485948E+03  0.41750679107E+03  0.12700000000E+01 0. -1.
         -4   -1    0    0    0  501 -0.00000000000E+00 -0.00000000000E+00 -0.93104513741E+01  0.93966698776E+01  0.12700000000E+01 0. -1.
         25    2    1    2    0    0  0.00000000000E+00  0.00000000000E+00  0.40819440810E+03  0.42690346094E+03  0.12499556056E+03 0.  0.
    9000005    1    3    3    0    0  0.44104708054E+01 -0.13905601866E+02  0.41162440167E+03  0.41188404445E+03  0.10000000000E+01 0.  0.
    9000005    1    3    3    0    0 -0.44104708054E+01  0.13905601866E+02 -0.34299935727E+01  0.15019416497E+02  0.10000000000E+01 0.  0.
<mgrwt>
<rscale>  0 0.12499556E+03</rscale>
<asrwt>0</asrwt>
<pdfrwt beam="1">  1        4 0.64238299E-01 0.12499556E+03</pdfrwt>
<pdfrwt beam="2">  1       -4 0.14391579E-02 0.12499556E+03</pdfrwt>
<totfact> 0.62023749E+03</totfact>
</mgrwt>
</event>
<event>
 5    1  0.3286491E-002  0.1249991E+03  0.7818608E-02  0.1235071E+00
         -4   -1    0    0    0  501 -0.00000000000E+00  0.00000000000E+00  0.80644219151E+02  0.80654218628E+02  0.12700000000E+01 0. -1.
          4   -1    0    0  501    0  0.00000000000E+00 -0.00000000000E+00 -0.48416037799E+02  0.48432691606E+02  0.12700000000E+01 0. -1.
         25    2    1    2    0    0  0.00000000000E+00  0.00000000000E+00  0.32228181352E+02  0.12908691023E+03  0.12499909888E+03 0.  0.
    9000005    1    3    3    0    0  0.39327101711E+02  0.17743266560E+02  0.62800355396E+02  0.76199272142E+02  0.10000000000E+01 0.  0.
    9000005    1    3    3    0    0 -0.39327101711E+02 -0.17743266560E+02 -0.30572174044E+02  0.52887638092E+02  0.10000000000E+01 0.  0.
<mgrwt>
<rscale>  0 0.12499910E+03</rscale>
<asrwt>0</asrwt>
<pdfrwt beam="2">  1        4 0.74506715E-02 0.12499910E+03</pdfrwt>
<pdfrwt beam="1">  1       -4 0.12408853E-01 0.12499910E+03</pdfrwt>
<totfact> 0.10364290E+04</totfact>
</mgrwt>
</event>
<event>
 5    1  0.3286491E-002  0.1250000E+03  0.7818608E-02  0.1235069E+00
          4   -1    0    0  501    0  0.00000000000E+00  0.00000000000E+00  0.14897499304E+03  0.14898040626E+03  0.12700000000E+01 0. -1.
         -4   -1    0    0    0  501 -0.00000000000E+00 -0.00000000000E+00 -0.26199585821E+02  0.26230348782E+02  0.12700000000E+01 0. -1.
         25    2    1    2    0    0  0.00000000000E+00  0.00000000000E+00  0.12277540722E+03  0.17521075505E+03  0.12500003227E+03 0.  0.
    9000005    1    3    3    0    0  0.56954118002E+02  0.25717023839E+02  0.60912071116E+02  0.87272087635E+02  0.10000000000E+01 0.  0.
    9000005    1    3    3    0    0 -0.56954118002E+02 -0.25717023839E+02  0.61863336101E+02  0.87938667411E+02  0.10000000000E+01 0.  0.
<mgrwt>
<rscale>  0 0.12500003E+03</rscale>
<asrwt>0</asrwt>
<pdfrwt beam="1">  1        4 0.22922013E-01 0.12500003E+03</pdfrwt>
<pdfrwt beam="2">  1       -4 0.40334882E-02 0.12500003E+03</pdfrwt>
<totfact> 0.94486186E+03</totfact>
</mgrwt>
</event>
<event>
 5    1  0.3286491E-002  0.1250074E+03  0.7818608E-02  0.1235058E+00
          4   -1    0    0  501    0  0.00000000000E+00  0.00000000000E+00  0.37594169399E+02  0.37615614747E+02  0.12700000000E+01 0. -1.
         -4   -1    0    0    0  501 -0.00000000000E+00 -0.00000000000E+00 -0.10386312491E+03  0.10387088916E+03  0.12700000000E+01 0. -1.
         25    2    1    2    0    0  0.00000000000E+00  0.00000000000E+00 -0.66268955506E+02  0.14148650391E+03  0.12500742508E+03 0.  0.
    9000005    1    3    3    0    0 -0.11760083311E+02  0.57372733366E+02 -0.84465796150E+01  0.59180020282E+02  0.10000000000E+01 0.  0.
    9000005    1    3    3    0    0  0.11760083311E+02 -0.57372733366E+02 -0.57822375891E+02  0.82306483627E+02  0.10000000000E+01 0.  0.
<mgrwt>
<rscale>  0 0.12500743E+03</rscale>
<asrwt>0</asrwt>
<pdfrwt beam="1">  1        4 0.57859653E-02 0.12500743E+03</pdfrwt>
<pdfrwt beam="2">  1       -4 0.15981189E-01 0.12500743E+03</pdfrwt>
<totfact> 0.10101180E+04</totfact>
</mgrwt>
</event>
<event>
 5    1  0.3286491E-002  0.1250121E+03  0.7818608E-02  0.1235050E+00
          4   -1    0    0  501    0  0.00000000000E+00  0.00000000000E+00  0.13755953369E+02  0.13814454499E+02  0.12700000000E+01 0. -1.
         -4   -1    0    0    0  501 -0.00000000000E+00 -0.00000000000E+00 -0.28336025162E+03  0.28336309763E+03  0.12700000000E+01 0. -1.
         25    2    1    2    0    0  0.00000000000E+00  0.00000000000E+00 -0.26960429825E+03  0.29717755213E+03  0.12501207883E+03 0.  0.
    9000005    1    3    3    0    0  0.40415632455E+02 -0.31971922966E+02 -0.50743066918E+02  0.72329012471E+02  0.10000000000E+01 0.  0.
    9000005    1    3    3    0    0 -0.40415632455E+02  0.31971922966E+02 -0.21886123133E+03  0.22484853966E+03  0.10000000000E+01 0.  0.
<mgrwt>
<rscale>  0 0.12501208E+03</rscale>
<asrwt>0</asrwt>
<pdfrwt beam="1">  1        4 0.21210197E-02 0.12501208E+03</pdfrwt>
<pdfrwt beam="2">  1       -4 0.43598600E-01 0.12501208E+03</pdfrwt>
<totfact> 0.75933886E+03</totfact>
</mgrwt>
</event>
<event>
 5    1  0.3286491E-002  0.1249974E+03  0.7818608E-02  0.1235073E+00
          4   -1    0    0  501    0  0.00000000000E+00  0.00000000000E+00  0.16100017665E+02  0.16150029994E+02  0.12700000000E+01 0. -1.
         -4   -1    0    0    0  501 -0.00000000000E+00 -0.00000000000E+00 -0.24218587122E+03  0.24218920107E+03  0.12700000000E+01 0. -1.
         25    2    1    2    0    0  0.00000000000E+00  0.00000000000E+00 -0.22608585355E+03  0.25833923107E+03  0.12499738050E+03 0.  0.
    9000005    1    3    3    0    0  0.15714794398E+02 -0.36533881640E+02 -0.21266420245E+03  0.21635328117E+03  0.10000000000E+01 0.  0.
    9000005    1    3    3    0    0 -0.15714794398E+02  0.36533881640E+02 -0.13421651107E+02  0.41985949901E+02  0.10000000000E+01 0.  0.
<mgrwt>
<rscale>  0 0.12499738E+03</rscale>
<asrwt>0</asrwt>
<pdfrwt beam="1">  1        4 0.24810292E-02 0.12499738E+03</pdfrwt>
<pdfrwt beam="2">  1       -4 0.37263466E-01 0.12499738E+03</pdfrwt>
<totfact> 0.81144425E+03</totfact>
</mgrwt>
</event>
<event>
 5    1  0.3286491E-002  0.1250009E+03  0.7818608E-02  0.1235068E+00
         -4   -1    0    0    0  501 -0.00000000000E+00  0.00000000000E+00  0.64436590631E+03  0.64436715785E+03  0.12700000000E+01 0. -1.
          4   -1    0    0  501    0  0.00000000000E+00 -0.00000000000E+00 -0.59944655093E+01  0.61275212560E+01  0.12700000000E+01 0. -1.
         25    2    1    2    0    0  0.00000000000E+00  0.00000000000E+00  0.63837144080E+03  0.65049467911E+03  0.12500092445E+03 0.  0.
    9000005    1    3    3    0    0  0.52097336745E+02  0.34477896519E+02  0.32733103273E+03  0.33324084808E+03  0.10000000000E+01 0.  0.
    9000005    1    3    3    0    0 -0.52097336745E+02 -0.34477896519E+02  0.31104040807E+03  0.31725383102E+03  0.10000000000E+01 0.  0.
<mgrwt>
<rscale>  0 0.12500092E+03</rscale>
<asrwt>0</asrwt>
<pdfrwt beam="2">  1        4 0.93255658E-03 0.12500092E+03</pdfrwt>
<pdfrwt beam="1">  1       -4 0.99143570E-01 0.12500092E+03</pdfrwt>
<totfact> 0.45826741E+03</totfact>
</mgrwt>
</event>
<event>
 5    1  0.3286491E-002  0.1250029E+03  0.7818608E-02  0.1235065E+00
          4   -1    0    0  501    0  0.00000000000E+00  0.00000000000E+00  0.67283916493E+01  0.68472004634E+01  0.12700000000E+01 0. -1.
         -4   -1    0    0    0  501 -0.00000000000E+00 -0.00000000000E+00 -0.57538828057E+03  0.57538968214E+03  0.12700000000E+01 0. -1.
         25    2    1    2    0    0  0.00000000000E+00  0.00000000000E+00 -0.56865988892E+03  0.58223688260E+03  0.12500287277E+03 0.  0.
    9000005    1    3    3    0    0 -0.13491314510E+02 -0.26639268003E+02 -0.54003204461E+03  0.54085790682E+03  0.10000000000E+01 0.  0.
    9000005    1    3    3    0    0  0.13491314510E+02  0.26639268003E+02 -0.28627844305E+02  0.41378975778E+02  0.10000000000E+01 0.  0.
<mgrwt>
<rscale>  0 0.12500287E+03</rscale>
<asrwt>0</asrwt>
<pdfrwt beam="1">  1        4 0.10443846E-02 0.12500287E+03</pdfrwt>
<pdfrwt beam="2">  1       -4 0.88530482E-01 0.12500287E+03</pdfrwt>
<totfact> 0.50005280E+03</totfact>
</mgrwt>
</event>
<event>
 5    1  0.3286491E-002  0.1249967E+03  0.7818608E-02  0.1235074E+00
          4   -1    0    0  501    0  0.00000000000E+00  0.00000000000E+00  0.49162875299E+02  0.49179276201E+02  0.12700000000E+01 0. -1.
         -4   -1    0    0    0  501 -0.00000000000E+00 -0.00000000000E+00 -0.79416368957E+02  0.79426523015E+02  0.12700000000E+01 0. -1.
         25    2    1    2    0    0  0.00000000000E+00  0.00000000000E+00 -0.30253493657E+02  0.12860579922E+03  0.12499671081E+03 0.  0.
    9000005    1    3    3    0    0  0.25434200433E+02  0.46187830232E+02 -0.49633607837E+02  0.72420364816E+02  0.10000000000E+01 0.  0.
    9000005    1    3    3    0    0 -0.25434200433E+02 -0.46187830232E+02  0.19380114180E+02  0.56185434401E+02  0.10000000000E+01 0.  0.
<mgrwt>
<rscale>  0 0.12499671E+03</rscale>
<asrwt>0</asrwt>
<pdfrwt beam="1">  1        4 0.75655620E-02 0.12499671E+03</pdfrwt>
<pdfrwt beam="2">  1       -4 0.12219946E-01 0.12499671E+03</pdfrwt>
<totfact> 0.10375196E+04</totfact>
</mgrwt>
</event>
<event>
 5    1  0.3286491E-002  0.1250012E+03  0.7818608E-02  0.1235067E+00
          4   -1    0    0  501    0  0.00000000000E+00  0.00000000000E+00  0.70728506813E+03  0.70728620833E+03  0.12700000000E+01 0. -1.
         -4   -1    0    0    0  501 -0.00000000000E+00 -0.00000000000E+00 -0.54488163222E+01  0.55948636545E+01  0.12700000000E+01 0. -1.
         25    2    1    2    0    0  0.00000000000E+00  0.00000000000E+00  0.70183625181E+03  0.71288107199E+03  0.12500119379E+03 0.  0.
    9000005    1    3    3    0    0  0.51569511657E+02  0.34442897376E+02  0.39494468633E+03  0.39978498343E+03  0.10000000000E+01 0.  0.
    9000005    1    3    3    0    0 -0.51569511657E+02 -0.34442897376E+02  0.30689156547E+03  0.31309608856E+03  0.10000000000E+01 0.  0.
<mgrwt>
<rscale>  0 0.12500119E+03</rscale>
<asrwt>0</asrwt>
<pdfrwt beam="1">  1        4 0.10882444E+00 0.12500119E+03</pdfrwt>
<pdfrwt beam="2">  1       -4 0.84960135E-03 0.12500119E+03</pdfrwt>
<totfact> 0.42414274E+03</totfact>
</mgrwt>
</event>
<event>
 5    1  0.3286491E-002  0.1250014E+03  0.7818608E-02  0.1235067E+00
         -4   -1    0    0    0  501 -0.00000000000E+00  0.00000000000E+00  0.13017749627E+04  0.13017755822E+04  0.12700000000E+01 0.  1.
          4   -1    0    0  501    0  0.00000000000E+00 -0.00000000000E+00 -0.28657573324E+01  0.31345597918E+01  0.12700000000E+01 0.  1.
         25    2    1    2    0    0  0.00000000000E+00  0.00000000000E+00  0.12989092054E+04  0.13049101420E+04  0.12500141953E+03 0.  0.
    9000005    1    3    3    0    0 -0.41856341184E+02 -0.13849241817E+02  0.18710646937E+03  0.19223315447E+03  0.10000000000E+01 0.  0.
    9000005    1    3    3    0    0  0.41856341184E+02  0.13849241817E+02  0.11118027360E+04  0.11126769875E+04  0.10000000000E+01 0.  0.
<mgrwt>
<rscale>  0 0.12500142E+03</rscale>
<asrwt>0</asrwt>
<pdfrwt beam="2">  1        4 0.46160956E-03 0.12500142E+03</pdfrwt>
<pdfrwt beam="1">  1       -4 0.20029421E+00 0.12500142E+03</pdfrwt>
<totfact> 0.22112175E+03</totfact>
</mgrwt>
</event>
<event>
 5    1  0.3286491E-002  0.1250045E+03  0.7818608E-02  0.1235062E+00
          4   -1    0    0  501    0  0.00000000000E+00  0.00000000000E+00  0.47299576775E+02  0.47316623539E+02  0.12700000000E+01 0. -1.
         -4   -1    0    0    0  501 -0.00000000000E+00 -0.00000000000E+00 -0.82554422141E+02  0.82564190271E+02  0.12700000000E+01 0. -1.
         25    2    1    2    0    0  0.00000000000E+00  0.00000000000E+00 -0.35254845366E+02  0.12988081381E+03  0.12500448662E+03 0.  0.
    9000005    1    3    3    0    0 -0.39509332104E+02  0.12056205242E+02  0.31097468304E+02  0.51714523521E+02  0.10000000000E+01 0.  0.
    9000005    1    3    3    0    0  0.39509332104E+02 -0.12056205242E+02 -0.66352313670E+02  0.78166290288E+02  0.10000000000E+01 0.  0.
<mgrwt>
<rscale>  0 0.12500449E+03</rscale>
<asrwt>0</asrwt>
<pdfrwt beam="1">  1        4 0.72789206E-02 0.12500449E+03</pdfrwt>
<pdfrwt beam="2">  1       -4 0.12702743E-01 0.12500449E+03</pdfrwt>
<totfact> 0.10346010E+04</totfact>
</mgrwt>
</event>
<event>
 5    1  0.3286491E-002  0.1249953E+03  0.7818608E-02  0.1235077E+00
          4   -1    0    0  501    0  0.00000000000E+00  0.00000000000E+00  0.54622566150E+02  0.54637328200E+02  0.12700000000E+01 0. -1.
         -4   -1    0    0    0  501 -0.00000000000E+00 -0.00000000000E+00 -0.71478003491E+02  0.71489285093E+02  0.12700000000E+01 0. -1.
         25    2    1    2    0    0  0.00000000000E+00  0.00000000000E+00 -0.16855437341E+02  0.12612661329E+03  0.12499526716E+03 0.  0.
    9000005    1    3    3    0    0 -0.22914551914E+02 -0.33012586549E+01 -0.66995979830E+02  0.70890311831E+02  0.10000000000E+01 0.  0.
    9000005    1    3    3    0    0  0.22914551914E+02  0.33012586549E+01  0.50140542489E+02  0.55236301462E+02  0.10000000000E+01 0.  0.
<mgrwt>
<rscale>  0 0.12499527E+03</rscale>
<asrwt>0</asrwt>
<pdfrwt beam="1">  1        4 0.84054751E-02 0.12499527E+03</pdfrwt>
<pdfrwt beam="2">  1       -4 0.10998619E-01 0.12499527E+03</pdfrwt>
<totfact> 0.10429298E+04</totfact>
</mgrwt>
</event>
<event>
 5    1  0.3286491E-002  0.1250008E+03  0.7818608E-02  0.1235068E+00
         -4   -1    0    0    0  501 -0.00000000000E+00  0.00000000000E+00  0.95221571407E+02  0.95230040225E+02  0.12700000000E+01 0.  1.
          4   -1    0    0  501    0  0.00000000000E+00 -0.00000000000E+00 -0.41003135143E+02  0.41022798436E+02  0.12700000000E+01 0.  1.
         25    2    1    2    0    0  0.00000000000E+00  0.00000000000E+00  0.54218436265E+02  0.13625283866E+03  0.12500078885E+03 0.  0.
    9000005    1    3    3    0    0  0.28042000488E+01 -0.49215725286E+01 -0.40728080521E+02  0.41132249598E+02  0.10000000000E+01 0.  0.
    9000005    1    3    3    0    0 -0.28042000488E+01  0.49215725286E+01  0.94946516786E+02  0.95120589064E+02  0.10000000000E+01 0.  0.
<mgrwt>
<rscale>  0 0.12500079E+03</rscale>
<asrwt>0</asrwt>
<pdfrwt beam="2">  1        4 0.63103387E-02 0.12500079E+03</pdfrwt>
<pdfrwt beam="1">  1       -4 0.14651636E-01 0.12500079E+03</pdfrwt>
<totfact> 0.10211550E+04</totfact>
</mgrwt>
</event>
<event>
 5    1  0.3286491E-002  0.1249974E+03  0.7818608E-02  0.1235073E+00
         -4   -1    0    0    0  501 -0.00000000000E+00  0.00000000000E+00  0.57009284115E+03  0.57009425575E+03  0.12700000000E+01 0. -1.
          4   -1    0    0  501    0  0.00000000000E+00 -0.00000000000E+00 -0.67913839404E+01  0.69091096261E+01  0.12700000000E+01 0. -1.
         25    2    1    2    0    0  0.00000000000E+00  0.00000000000E+00  0.56330145721E+03  0.57700336537E+03  0.12499740778E+03 0.  0.
    9000005    1    3    3    0    0  0.80742889146E+01 -0.32865855242E+02  0.39151372306E+02  0.51760878429E+02  0.10000000000E+01 0.  0.
    9000005    1    3    3    0    0 -0.80742889146E+01  0.32865855242E+02  0.52415008491E+03  0.52524248694E+03  0.10000000000E+01 0.  0.
<mgrwt>
<rscale>  0 0.12499741E+03</rscale>
<asrwt>0</asrwt>
<pdfrwt beam="2">  1        4 0.10539936E-02 0.12499741E+03</pdfrwt>
<pdfrwt beam="1">  1       -4 0.87715702E-01 0.12499741E+03</pdfrwt>
<totfact> 0.50355048E+03</totfact>
</mgrwt>
</event>
<event>
 5    1  0.3286491E-002  0.1249997E+03  0.7818608E-02  0.1235070E+00
         -4   -1    0    0    0  501 -0.00000000000E+00  0.00000000000E+00  0.95950343741E+01  0.96787181300E+01  0.12700000000E+01 0.  1.
          4   -1    0    0  501    0  0.00000000000E+00 -0.00000000000E+00 -0.40525719350E+03  0.40525918346E+03  0.12700000000E+01 0.  1.
         25    2    1    2    0    0  0.00000000000E+00  0.00000000000E+00 -0.39566215912E+03  0.41493790159E+03  0.12499967207E+03 0.  0.
    9000005    1    3    3    0    0  0.38825324828E+02 -0.32563456567E+01 -0.35642435533E+02  0.52814702932E+02  0.10000000000E+01 0.  0.
    9000005    1    3    3    0    0 -0.38825324828E+02  0.32563456567E+01 -0.36001972359E+03  0.36212319866E+03  0.10000000000E+01 0.  0.
<mgrwt>
<rscale>  0 0.12499967E+03</rscale>
<asrwt>0</asrwt>
<pdfrwt beam="2">  1        4 0.62353837E-01 0.12499967E+03</pdfrwt>
<pdfrwt beam="1">  1       -4 0.14827497E-02 0.12499967E+03</pdfrwt>
<totfact> 0.63125884E+03</totfact>
</mgrwt>
</event>
<event>
 4    1  0.3286491E-002  0.1252783E+03  0.7818608E-02  0.1234635E+00
         -4   -1    0    0    0  501 -0.00000000000E+00  0.00000000000E+00  0.81250469341E+02  0.81260394216E+02  0.12700000000E+01 0. -1.
          4   -1    0    0  501    0  0.00000000000E+00 -0.00000000000E+00 -0.48269747833E+02  0.48286452095E+02  0.12700000000E+01 0. -1.
    9000005    1    1    2    0    0  0.39511223047E+02  0.11299958650E+02 -0.32383518837E+02  0.52330852319E+02  0.10000000000E+01 0.  0.
    9000005    1    1    2    0    0 -0.39511223047E+02 -0.11299958650E+02  0.65364240345E+02  0.77215993991E+02  0.10000000000E+01 0.  0.
<mgrwt>
<rscale>  0 0.12527832E+03</rscale>
<asrwt>0</asrwt>
<pdfrwt beam="2">  1        4 0.74281634E-02 0.12527832E+03</pdfrwt>
<pdfrwt beam="1">  1       -4 0.12502121E-01 0.12527832E+03</pdfrwt>
<totfact> 0.10289427E+04</totfact>
</mgrwt>
</event>
<event>
 5    1  0.3286491E-002  0.1249988E+03  0.7818608E-02  0.1235071E+00
          4   -1    0    0  501    0  0.00000000000E+00  0.00000000000E+00  0.14310525259E+03  0.14311088784E+03  0.12700000000E+01 0.  1.
         -4   -1    0    0    0  501 -0.00000000000E+00 -0.00000000000E+00 -0.27274867264E+02  0.27304418769E+02  0.12700000000E+01 0.  1.
         25    2    1    2    0    0  0.00000000000E+00  0.00000000000E+00  0.11583038532E+03  0.17041530661E+03  0.12499879424E+03 0.  0.
    9000005    1    3    3    0    0 -0.54218072531E+02  0.28704415576E+02  0.74140133803E+02  0.96235660245E+02  0.10000000000E+01 0.  0.
    9000005    1    3    3    0    0  0.54218072531E+02 -0.28704415576E+02  0.41690251519E+02  0.74179646362E+02  0.10000000000E+01 0.  0.
<mgrwt>
<rscale>  0 0.12499879E+03</rscale>
<asrwt>0</asrwt>
<pdfrwt beam="1">  1        4 0.22018899E-01 0.12499879E+03</pdfrwt>
<pdfrwt beam="2">  1       -4 0.41988401E-02 0.12499879E+03</pdfrwt>
<totfact> 0.95373866E+03</totfact>
</mgrwt>
</event>
<event>
 5    1  0.3286491E-002  0.1250056E+03  0.7818608E-02  0.1235061E+00
         -4   -1    0    0    0  501 -0.00000000000E+00  0.00000000000E+00  0.79204012111E+01  0.80215743682E+01  0.12700000000E+01 0. -1.
          4   -1    0    0  501    0  0.00000000000E+00 -0.00000000000E+00 -0.49000004914E+03  0.49000169495E+03  0.12700000000E+01 0. -1.
         25    2    1    2    0    0  0.00000000000E+00  0.00000000000E+00 -0.48207964792E+03  0.49802326932E+03  0.12500555923E+03 0.  0.
    9000005    1    3    3    0    0 -0.45241010310E+02  0.39465670472E+02 -0.31019530011E+03  0.31595318066E+03  0.10000000000E+01 0.  0.
    9000005    1    3    3    0    0  0.45241010310E+02 -0.39465670472E+02 -0.17188434782E+03  0.18207008866E+03  0.10000000000E+01 0.  0.
<mgrwt>
<rscale>  0 0.12500556E+03</rscale>
<asrwt>0</asrwt>
<pdfrwt beam="2">  1        4 0.75392509E-01 0.12500556E+03</pdfrwt>
<pdfrwt beam="1">  1       -4 0.12264328E-02 0.12500556E+03</pdfrwt>
<totfact> 0.56011226E+03</totfact>
</mgrwt>
</event>
<event>
 5    1  0.3286491E-002  0.1250004E+03  0.7818608E-02  0.1235069E+00
         -4   -1    0    0    0  501 -0.00000000000E+00  0.00000000000E+00  0.27046639656E+03  0.27046937824E+03  0.12700000000E+01 0.  1.
          4   -1    0    0  501    0  0.00000000000E+00 -0.00000000000E+00 -0.14411759251E+02  0.14467608811E+02  0.12700000000E+01 0.  1.
         25    2    1    2    0    0  0.00000000000E+00  0.00000000000E+00  0.25605463731E+03  0.28493698705E+03  0.12500043722E+03 0.  0.
    9000005    1    3    3    0    0 -0.32270070863E+02 -0.31458963039E+02  0.22671239027E+03  0.23115045258E+03  0.10000000000E+01 0.  0.
    9000005    1    3    3    0    0  0.32270070863E+02  0.31458963039E+02  0.29342247039E+02  0.53786534470E+02  0.10000000000E+01 0.  0.
<mgrwt>
<rscale>  0 0.12500044E+03</rscale>
<asrwt>0</asrwt>
<pdfrwt beam="2">  1        4 0.22217192E-02 0.12500044E+03</pdfrwt>
<pdfrwt beam="1">  1       -4 0.41614741E-01 0.12500044E+03</pdfrwt>
<totfact> 0.77527263E+03</totfact>
</mgrwt>
</event>
<event>
 5    1  0.3286491E-002  0.1250056E+03  0.7818608E-02  0.1235061E+00
          4   -1    0    0  501    0  0.00000000000E+00  0.00000000000E+00  0.70471814606E+01  0.71607029361E+01  0.12700000000E+01 0.  1.
         -4   -1    0    0    0  501 -0.00000000000E+00 -0.00000000000E+00 -0.54980546412E+03  0.54980693091E+03  0.12700000000E+01 0.  1.
         25    2    1    2    0    0  0.00000000000E+00  0.00000000000E+00 -0.54275828266E+03  0.55696763385E+03  0.12500556690E+03 0.  0.
    9000005    1    3    3    0    0  0.24580554053E+02 -0.53275365958E+02 -0.36726441523E+03  0.37192286693E+03  0.10000000000E+01 0.  0.
    9000005    1    3    3    0    0 -0.24580554053E+02  0.53275365958E+02 -0.17549386743E+03  0.18504476691E+03  0.10000000000E+01 0.  0.
<mgrwt>
<rscale>  0 0.12500557E+03</rscale>
<asrwt>0</asrwt>
<pdfrwt beam="1">  1        4 0.10930275E-02 0.12500557E+03</pdfrwt>
<pdfrwt beam="2">  1       -4 0.84594267E-01 0.12500557E+03</pdfrwt>
<totfact> 0.51695405E+03</totfact>
</mgrwt>
</event>
<event>
 5    1  0.3286491E-002  0.1250008E+03  0.7818608E-02  0.1235068E+00
          4   -1    0    0  501    0  0.00000000000E+00  0.00000000000E+00  0.20492130352E+03  0.20492523889E+03  0.12700000000E+01 0. -1.
         -4   -1    0    0    0  501 -0.00000000000E+00 -0.00000000000E+00 -0.19037157794E+02  0.19079472658E+02  0.12700000000E+01 0. -1.
         25    2    1    2    0    0  0.00000000000E+00  0.00000000000E+00  0.18588414572E+03  0.22400471155E+03  0.12500078066E+03 0.  0.
    9000005    1    3    3    0    0  0.51447068928E+02 -0.34554743984E+02  0.10733055687E+03  0.12394224329E+03  0.10000000000E+01 0.  0.
    9000005    1    3    3    0    0 -0.51447068928E+02  0.34554743984E+02  0.78553588853E+02  0.10006246826E+03  0.10000000000E+01 0.  0.
<mgrwt>
<rscale>  0 0.12500078E+03</rscale>
<asrwt>0</asrwt>
<pdfrwt beam="1">  1        4 0.31529913E-01 0.12500078E+03</pdfrwt>
<pdfrwt beam="2">  1       -4 0.29323511E-02 0.12500078E+03</pdfrwt>
<totfact> 0.86237091E+03</totfact>
</mgrwt>
</event>
<event>
 5    1  0.3286491E-002  0.1249989E+03  0.7818608E-02  0.1235071E+00
          4   -1    0    0  501    0  0.00000000000E+00  0.00000000000E+00  0.13008028554E+02  0.13069877844E+02  0.12700000000E+01 0.  1.
         -4   -1    0    0    0  501 -0.00000000000E+00 -0.00000000000E+00 -0.29951463325E+03  0.29951732576E+03  0.12700000000E+01 0.  1.
         25    2    1    2    0    0  0.00000000000E+00  0.00000000000E+00 -0.28650660469E+03  0.31258720360E+03  0.12499890129E+03 0.  0.
    9000005    1    3    3    0    0 -0.35878448362E+02  0.17999428218E+02 -0.26302547252E+03  0.26607262480E+03  0.10000000000E+01 0.  0.
    9000005    1    3    3    0    0  0.35878448362E+02 -0.17999428218E+02 -0.23481132171E+02  0.46514578801E+02  0.10000000000E+01 0.  0.
<mgrwt>
<rscale>  0 0.12499890E+03</rscale>
<asrwt>0</asrwt>
<pdfrwt beam="1">  1        4 0.20062001E-02 0.12499890E+03</pdfrwt>
<pdfrwt beam="2">  1       -4 0.46084134E-01 0.12499890E+03</pdfrwt>
<totfact> 0.74048347E+03</totfact>
</mgrwt>
</event>
<event>
 5    1  0.3286491E-002  0.1249953E+03  0.7818608E-02  0.1235077E+00
          4   -1    0    0  501    0  0.00000000000E+00  0.00000000000E+00  0.14210073872E+02  0.14266712986E+02  0.12700000000E+01 0.  1.
         -4   -1    0    0    0  501 -0.00000000000E+00 -0.00000000000E+00 -0.27426755240E+03  0.27427049276E+03  0.12700000000E+01 0.  1.
         25    2    1    2    0    0  0.00000000000E+00  0.00000000000E+00 -0.26005747852E+03  0.28853720574E+03  0.12499530776E+03 0.  0.
    9000005    1    3    3    0    0  0.48443984549E+02  0.38144027670E+02 -0.15347563556E+03  0.16540120071E+03  0.10000000000E+01 0.  0.
    9000005    1    3    3    0    0 -0.48443984549E+02 -0.38144027670E+02 -0.10658184296E+03  0.12313600503E+03  0.10000000000E+01 0.  0.
<mgrwt>
<rscale>  0 0.12499531E+03</rscale>
<asrwt>0</asrwt>
<pdfrwt beam="1">  1        4 0.21907484E-02 0.12499531E+03</pdfrwt>
<pdfrwt beam="2">  1       -4 0.42199587E-01 0.12499531E+03</pdfrwt>
<totfact> 0.77067617E+03</totfact>
</mgrwt>
</event>
<event>
 5    1  0.3286491E-002  0.1249996E+03  0.7818608E-02  0.1235070E+00
          4   -1    0    0  501    0  0.00000000000E+00  0.00000000000E+00  0.13422718326E+02  0.13482665436E+02  0.12700000000E+01 0. -1.
         -4   -1    0    0    0  501 -0.00000000000E+00 -0.00000000000E+00 -0.29030599084E+03  0.29030876876E+03  0.12700000000E+01 0. -1.
         25    2    1    2    0    0  0.00000000000E+00  0.00000000000E+00 -0.27688327251E+03  0.30379143419E+03  0.12499955556E+03 0.  0.
    9000005    1    3    3    0    0  0.38160752949E+02  0.27161600906E+02 -0.37905818297E+02  0.60264804738E+02  0.10000000000E+01 0.  0.
    9000005    1    3    3    0    0 -0.38160752949E+02 -0.27161600906E+02 -0.23897745422E+03  0.24352662945E+03  0.10000000000E+01 0.  0.
<mgrwt>
<rscale>  0 0.12499956E+03</rscale>
<asrwt>0</asrwt>
<pdfrwt beam="1">  1        4 0.20698588E-02 0.12499956E+03</pdfrwt>
<pdfrwt beam="2">  1       -4 0.44667280E-01 0.12499956E+03</pdfrwt>
<totfact> 0.75126439E+03</totfact>
</mgrwt>
</event>
<event>
 5    1  0.3286491E-002  0.1250028E+03  0.7818608E-02  0.1235065E+00
         -4   -1    0    0    0  501 -0.00000000000E+00  0.00000000000E+00  0.34103232291E+02  0.34126871416E+02  0.12700000000E+01 0.  1.
          4   -1    0    0  501    0  0.00000000000E+00 -0.00000000000E+00 -0.11448025080E+03  0.11448729503E+03  0.12700000000E+01 0.  1.
         25    2    1    2    0    0  0.00000000000E+00  0.00000000000E+00 -0.80377018505E+02  0.14861416644E+03  0.12500282142E+03 0.  0.
    9000005    1    3    3    0    0 -0.52541215698E+02 -0.71559860574E+01 -0.79505236587E+02  0.95571282968E+02  0.10000000000E+01 0.  0.
    9000005    1    3    3    0    0  0.52541215698E+02  0.71559860574E+01 -0.87178191813E+00  0.53042883473E+02  0.10000000000E+01 0.  0.
<mgrwt>
<rscale>  0 0.12500282E+03</rscale>
<asrwt>0</asrwt>
<pdfrwt beam="2">  1        4 0.17614706E-01 0.12500282E+03</pdfrwt>
<pdfrwt beam="1">  1       -4 0.52490114E-02 0.12500282E+03</pdfrwt>
<totfact> 0.99574339E+03</totfact>
</mgrwt>
</event>
<event>
 5    1  0.3286491E-002  0.1250118E+03  0.7818608E-02  0.1235051E+00
          4   -1    0    0  501    0  0.00000000000E+00  0.00000000000E+00  0.98632042777E+01  0.99446316485E+01  0.12700000000E+01 0. -1.
         -4   -1    0    0    0  501 -0.00000000000E+00 -0.00000000000E+00 -0.39440679018E+03  0.39440883489E+03  0.12700000000E+01 0. -1.
         25    2    1    2    0    0  0.00000000000E+00  0.00000000000E+00 -0.38454358590E+03  0.40435346653E+03  0.12501182522E+03 0.  0.
    9000005    1    3    3    0    0  0.56589659762E+02  0.15222052626E+02 -0.12200828433E+03  0.13535553895E+03  0.10000000000E+01 0.  0.
    9000005    1    3    3    0    0 -0.56589659762E+02 -0.15222052626E+02 -0.26253530157E+03  0.26899792759E+03  0.10000000000E+01 0.  0.
<mgrwt>
<rscale>  0 0.12501183E+03</rscale>
<asrwt>0</asrwt>
<pdfrwt beam="1">  1        4 0.15238373E-02 0.12501183E+03</pdfrwt>
<pdfrwt beam="2">  1       -4 0.60684377E-01 0.12501183E+03</pdfrwt>
<totfact> 0.64114837E+03</totfact>
</mgrwt>
</event>
<event>
 5    1  0.3286491E-002  0.1250012E+03  0.7818608E-02  0.1235067E+00
         -4   -1    0    0    0  501 -0.00000000000E+00  0.00000000000E+00  0.66791181239E+02  0.66803254346E+02  0.12700000000E+01 0. -1.
          4   -1    0    0  501    0  0.00000000000E+00 -0.00000000000E+00 -0.58461390640E+02  0.58475183587E+02  0.12700000000E+01 0. -1.
         25    2    1    2    0    0  0.00000000000E+00  0.00000000000E+00  0.83297905989E+01  0.12527843793E+03  0.12500120639E+03 0.  0.
    9000005    1    3    3    0    0 -0.25623863868E+02 -0.46286892487E+02 -0.29169457106E+02  0.60422810621E+02  0.10000000000E+01 0.  0.
    9000005    1    3    3    0    0  0.25623863868E+02  0.46286892487E+02  0.37499247705E+02  0.64855627312E+02  0.10000000000E+01 0.  0.
<mgrwt>
<rscale>  0 0.12500121E+03</rscale>
<asrwt>0</asrwt>
<pdfrwt beam="2">  1        4 0.89960498E-02 0.12500121E+03</pdfrwt>
<pdfrwt beam="1">  1       -4 0.10277556E-01 0.12500121E+03</pdfrwt>
<totfact> 0.10446533E+04</totfact>
</mgrwt>
</event>
<event>
 5    1  0.3286491E-002  0.1249992E+03  0.7818608E-02  0.1235071E+00
         -4   -1    0    0    0  501 -0.00000000000E+00  0.00000000000E+00  0.15858980326E+02  0.15909750375E+02  0.12700000000E+01 0.  1.
          4   -1    0    0  501    0  0.00000000000E+00 -0.00000000000E+00 -0.24586216493E+03  0.24586544500E+03  0.12700000000E+01 0.  1.
         25    2    1    2    0    0  0.00000000000E+00  0.00000000000E+00 -0.23000318461E+03  0.26177519538E+03  0.12499915194E+03 0.  0.
    9000005    1    3    3    0    0 -0.59027434676E+02 -0.53128546409E+01 -0.15650367219E+03  0.16735251381E+03  0.10000000000E+01 0.  0.
    9000005    1    3    3    0    0  0.59027434676E+02  0.53128546409E+01 -0.73499512417E+02  0.94422681568E+02  0.10000000000E+01 0.  0.
<mgrwt>
<rscale>  0 0.12499915E+03</rscale>
<asrwt>0</asrwt>
<pdfrwt beam="2">  1        4 0.37829103E-01 0.12499915E+03</pdfrwt>
<pdfrwt beam="1">  1       -4 0.24440010E-02 0.12499915E+03</pdfrwt>
<totfact> 0.80659105E+03</totfact>
</mgrwt>
</event>
<event>
 5    1  0.3286491E-002  0.1250012E+03  0.7818608E-02  0.1235067E+00
         -4   -1    0    0    0  501 -0.00000000000E+00  0.00000000000E+00  0.10530557669E+02  0.10606863100E+02  0.12700000000E+01 0.  1.
          4   -1    0    0  501    0  0.00000000000E+00 -0.00000000000E+00 -0.36953470030E+03  0.36953688264E+03  0.12700000000E+01 0.  1.
         25    2    1    2    0    0  0.00000000000E+00  0.00000000000E+00 -0.35900414264E+03  0.38014374574E+03  0.12500117197E+03 0.  0.
    9000005    1    3    3    0    0 -0.53276297155E+02  0.44349422481E+01 -0.27791845159E+03  0.28301536758E+03  0.10000000000E+01 0.  0.
    9000005    1    3    3    0    0  0.53276297155E+02 -0.44349422481E+01 -0.81085691041E+02  0.97128378155E+02  0.10000000000E+01 0.  0.
<mgrwt>
<rscale>  0 0.12500117E+03</rscale>
<asrwt>0</asrwt>
<pdfrwt beam="2">  1        4 0.56857520E-01 0.12500117E+03</pdfrwt>
<pdfrwt beam="1">  1       -4 0.16261236E-02 0.12500117E+03</pdfrwt>
<totfact> 0.66529177E+03</totfact>
</mgrwt>
</event>
<event>
 5    1  0.3286491E-002  0.1249986E+03  0.7818608E-02  0.1235072E+00
         -4   -1    0    0    0  501 -0.00000000000E+00  0.00000000000E+00  0.26084199984E+02  0.26115098867E+02  0.12700000000E+01 0.  1.
          4   -1    0    0  501    0  0.00000000000E+00 -0.00000000000E+00 -0.14962971409E+03  0.14963510363E+03  0.12700000000E+01 0.  1.
         25    2    1    2    0    0  0.00000000000E+00  0.00000000000E+00 -0.12354551411E+03  0.17575020250E+03  0.12499855848E+03 0.  0.
    9000005    1    3    3    0    0 -0.27255444115E+02 -0.56099455184E+02 -0.56299788641E+02  0.84027818649E+02  0.10000000000E+01 0.  0.
    9000005    1    3    3    0    0  0.27255444115E+02  0.56099455184E+02 -0.67245725468E+02  0.91722383852E+02  0.10000000000E+01 0.  0.
<mgrwt>
<rscale>  0 0.12499856E+03</rscale>
<asrwt>0</asrwt>
<pdfrwt beam="2">  1        4 0.23022747E-01 0.12499856E+03</pdfrwt>
<pdfrwt beam="1">  1       -4 0.40157454E-02 0.12499856E+03</pdfrwt>
<totfact> 0.94390675E+03</totfact>
</mgrwt>
</event>
<event>
 5    1  0.3286491E-002  0.1249970E+03  0.7818608E-02  0.1235074E+00
          4   -1    0    0  501    0  0.00000000000E+00  0.00000000000E+00  0.18080942113E+03  0.18081388130E+03  0.12700000000E+01 0.  1.
         -4   -1    0    0    0  501 -0.00000000000E+00 -0.00000000000E+00 -0.21579798219E+02  0.21617136517E+02  0.12700000000E+01 0.  1.
         25    2    1    2    0    0  0.00000000000E+00  0.00000000000E+00  0.15922962291E+03  0.20243101781E+03  0.12499697661E+03 0.  0.
    9000005    1    3    3    0    0 -0.51136177618E+02  0.18245256164E+02  0.12972120996E+03  0.14062855452E+03  0.10000000000E+01 0.  0.
    9000005    1    3    3    0    0  0.51136177618E+02 -0.18245256164E+02  0.29508412952E+02  0.61802463290E+02  0.10000000000E+01 0.  0.
<mgrwt>
<rscale>  0 0.12499698E+03</rscale>
<asrwt>0</asrwt>
<pdfrwt beam="1">  1        4 0.27820049E-01 0.12499698E+03</pdfrwt>
<pdfrwt beam="2">  1       -4 0.33231843E-02 0.12499698E+03</pdfrwt>
<totfact> 0.89733178E+03</totfact>
</mgrwt>
</event>
<event>
 5    1  0.3286491E-002  0.1249779E+03  0.7818608E-02  0.1235104E+00
         -4   -1    0    0    0  501 -0.00000000000E+00  0.00000000000E+00  0.94169772009E+01  0.95022291912E+01  0.12700000000E+01 0.  1.
          4   -1    0    0  501    0  0.00000000000E+00 -0.00000000000E+00 -0.41270773260E+03  0.41270968664E+03  0.12700000000E+01 0.  1.
         25    2    1    2    0    0  0.00000000000E+00  0.00000000000E+00 -0.40329075539E+03  0.42221191583E+03  0.12497787196E+03 0.  0.
    9000005    1    3    3    0    0  0.45008469710E+02 -0.37888209174E+02 -0.13057356960E+03  0.14321918802E+03  0.10000000000E+01 0.  0.
    9000005    1    3    3    0    0 -0.45008469710E+02  0.37888209174E+02 -0.27271718580E+03  0.27899272781E+03  0.10000000000E+01 0.  0.
<mgrwt>
<rscale>  0 0.12497787E+03</rscale>
<asrwt>0</asrwt>
<pdfrwt beam="2">  1        4 0.63500192E-01 0.12497787E+03</pdfrwt>
<pdfrwt beam="1">  1       -4 0.14554742E-02 0.12497787E+03</pdfrwt>
<totfact> 0.62478828E+03</totfact>
</mgrwt>
</event>
<event>
 5    1  0.3286491E-002  0.1250019E+03  0.7818608E-02  0.1235066E+00
         -4   -1    0    0    0  501 -0.00000000000E+00  0.00000000000E+00  0.97090771354E+01  0.97917862937E+01  0.12700000000E+01 0. -1.
          4   -1    0    0  501    0  0.00000000000E+00 -0.00000000000E+00 -0.40055172903E+03  0.40055374238E+03  0.12700000000E+01 0. -1.
         25    2    1    2    0    0  0.00000000000E+00  0.00000000000E+00 -0.39084265190E+03  0.41034552867E+03  0.12500189741E+03 0.  0.
    9000005    1    3    3    0    0 -0.47381844292E+02 -0.19037376459E+02 -0.31368599145E+03  0.31781655417E+03  0.10000000000E+01 0.  0.
    9000005    1    3    3    0    0  0.47381844292E+02  0.19037376459E+02 -0.77156660448E+02  0.92528974503E+02  0.10000000000E+01 0.  0.
<mgrwt>
<rscale>  0 0.12500190E+03</rscale>
<asrwt>0</asrwt>
<pdfrwt beam="2">  1        4 0.61629847E-01 0.12500190E+03</pdfrwt>
<pdfrwt beam="1">  1       -4 0.15002216E-02 0.12500190E+03</pdfrwt>
<totfact> 0.63556226E+03</totfact>
</mgrwt>
</event>
<event>
 5    1  0.3286491E-002  0.1250039E+03  0.7818608E-02  0.1235063E+00
         -4   -1    0    0    0  501 -0.00000000000E+00  0.00000000000E+00  0.43948887460E+02  0.43967233355E+02  0.12700000000E+01 0.  1.
          4   -1    0    0  501    0  0.00000000000E+00 -0.00000000000E+00 -0.88845818848E+02  0.88854895345E+02  0.12700000000E+01 0.  1.
         25    2    1    2    0    0  0.00000000000E+00  0.00000000000E+00 -0.44896931389E+02  0.13282212870E+03  0.12500393364E+03 0.  0.
    9000005    1    3    3    0    0  0.71575358381E+01 -0.57318530500E+02  0.28938471521E+01  0.57844780312E+02  0.10000000000E+01 0.  0.
    9000005    1    3    3    0    0 -0.71575358381E+01  0.57318530500E+02 -0.47790778541E+02  0.74977348389E+02  0.10000000000E+01 0.  0.
<mgrwt>
<rscale>  0 0.12500393E+03</rscale>
<asrwt>0</asrwt>
<pdfrwt beam="2">  1        4 0.13670697E-01 0.12500393E+03</pdfrwt>
<pdfrwt beam="1">  1       -4 0.67634767E-02 0.12500393E+03</pdfrwt>
<totfact> 0.10283269E+04</totfact>
</mgrwt>
</event>
<event>
 5    1  0.3286491E-002  0.1249944E+03  0.7818608E-02  0.1235078E+00
          4   -1    0    0  501    0  0.00000000000E+00  0.00000000000E+00  0.84296272893E+02  0.84305839203E+02  0.12700000000E+01 0. -1.
         -4   -1    0    0    0  501 -0.00000000000E+00 -0.00000000000E+00 -0.46314476392E+02  0.46331885602E+02  0.12700000000E+01 0. -1.
         25    2    1    2    0    0  0.00000000000E+00  0.00000000000E+00  0.37981796501E+02  0.13063772480E+03  0.12499439298E+03 0.  0.
    9000005    1    3    3    0    0  0.12116427824E+02 -0.77907971319E+01 -0.44560632296E+02  0.46841800710E+02  0.10000000000E+01 0.  0.
    9000005    1    3    3    0    0 -0.12116427824E+02  0.77907971319E+01  0.82542428797E+02  0.83795924095E+02  0.10000000000E+01 0.  0.
<mgrwt>
<rscale>  0 0.12499439E+03</rscale>
<asrwt>0</asrwt>
<pdfrwt beam="1">  1        4 0.12970732E-01 0.12499439E+03</pdfrwt>
<pdfrwt beam="2">  1       -4 0.71273791E-02 0.12499439E+03</pdfrwt>
<totfact> 0.10332169E+04</totfact>
</mgrwt>
</event>
<event>
 5    1  0.3286491E-002  0.1249736E+03  0.7818608E-02  0.1235111E+00
         -4   -1    0    0    0  501 -0.00000000000E+00  0.00000000000E+00  0.34171505281E+02  0.34195097210E+02  0.12700000000E+01 0.  1.
          4   -1    0    0  501    0  0.00000000000E+00 -0.00000000000E+00 -0.11419825568E+03  0.11420531730E+03  0.12700000000E+01 0.  1.
         25    2    1    2    0    0  0.00000000000E+00  0.00000000000E+00 -0.80026750397E+02  0.14840041451E+03  0.12497360621E+03 0.  0.
    9000005    1    3    3    0    0 -0.40054816844E+02 -0.47463979417E+02 -0.31926223141E+02  0.69839110952E+02  0.10000000000E+01 0.  0.
    9000005    1    3    3    0    0  0.40054816844E+02  0.47463979417E+02 -0.48100527256E+02  0.78561303559E+02  0.10000000000E+01 0.  0.
<mgrwt>
<rscale>  0 0.12497361E+03</rscale>
<asrwt>0</asrwt>
<pdfrwt beam="2">  1        4 0.17571320E-01 0.12497361E+03</pdfrwt>
<pdfrwt beam="1">  1       -4 0.52595127E-02 0.12497361E+03</pdfrwt>
<totfact> 0.99682722E+03</totfact>
</mgrwt>
</event>
<event>
 5    1  0.3286491E-002  0.1249983E+03  0.7818608E-02  0.1235072E+00
         -4   -1    0    0    0  501 -0.00000000000E+00  0.00000000000E+00  0.86570298133E+01  0.87496894338E+01  0.12700000000E+01 0. -1.
          4   -1    0    0  501    0  0.00000000000E+00 -0.00000000000E+00 -0.44871487642E+03  0.44871667366E+03  0.12700000000E+01 0. -1.
         25    2    1    2    0    0  0.00000000000E+00  0.00000000000E+00 -0.44005784661E+03  0.45746636310E+03  0.12499826000E+03 0.  0.
    9000005    1    3    3    0    0 -0.22869814386E+02 -0.43545093238E+02 -0.36110569043E+03  0.36444138516E+03  0.10000000000E+01 0.  0.
    9000005    1    3    3    0    0  0.22869814386E+02  0.43545093238E+02 -0.78952156182E+02  0.93024977941E+02  0.10000000000E+01 0.  0.
<mgrwt>
<rscale>  0 0.12499826E+03</rscale>
<asrwt>0</asrwt>
<pdfrwt beam="2">  1        4 0.69040306E-01 0.12499826E+03</pdfrwt>
<pdfrwt beam="1">  1       -4 0.13391170E-02 0.12499826E+03</pdfrwt>
<totfact> 0.59324679E+03</totfact>
</mgrwt>
</event>
<event>
 5    1  0.3286491E-002  0.1249934E+03  0.7818608E-02  0.1235080E+00
         -4   -1    0    0    0  501 -0.00000000000E+00  0.00000000000E+00  0.24401405327E+03  0.24401735818E+03  0.12700000000E+01 0.  1.
          4   -1    0    0  501    0  0.00000000000E+00 -0.00000000000E+00 -0.15977999315E+02  0.16028392374E+02  0.12700000000E+01 0.  1.
         25    2    1    2    0    0  0.00000000000E+00  0.00000000000E+00  0.22803605396E+03  0.26004575056E+03  0.12499340174E+03 0.  0.
    9000005    1    3    3    0    0 -0.87106601418E+01 -0.26654585600E+02  0.23019905250E+03  0.23190288119E+03  0.10000000000E+01 0.  0.
    9000005    1    3    3    0    0  0.87106601418E+01  0.26654585600E+02 -0.21629985385E+01  0.28142869368E+02  0.10000000000E+01 0.  0.
<mgrwt>
<rscale>  0 0.12499340E+03</rscale>
<asrwt>0</asrwt>
<pdfrwt beam="2">  1        4 0.24622842E-02 0.12499340E+03</pdfrwt>
<pdfrwt beam="1">  1       -4 0.37544756E-01 0.12499340E+03</pdfrwt>
<totfact> 0.80911522E+03</totfact>
</mgrwt>
</event>
<event>
 5    1  0.3286491E-002  0.1250036E+03  0.7818608E-02  0.1235064E+00
         -4   -1    0    0    0  501 -0.00000000000E+00  0.00000000000E+00  0.76614305311E+02  0.76624830690E+02  0.12700000000E+01 0.  1.
          4   -1    0    0  501    0  0.00000000000E+00 -0.00000000000E+00 -0.50966868480E+02  0.50982689049E+02  0.12700000000E+01 0.  1.
         25    2    1    2    0    0  0.00000000000E+00  0.00000000000E+00  0.25647436831E+02  0.12760751974E+03  0.12500355226E+03 0.  0.
    9000005    1    3    3    0    0 -0.55656266023E+02 -0.21722176152E+02 -0.58884015295E+01  0.60042869326E+02  0.10000000000E+01 0.  0.
    9000005    1    3    3    0    0  0.55656266023E+02  0.21722176152E+02  0.31535838360E+02  0.67564650413E+02  0.10000000000E+01 0.  0.
<mgrwt>
<rscale>  0 0.12500355E+03</rscale>
<asrwt>0</asrwt>
<pdfrwt beam="2">  1        4 0.78430834E-02 0.12500355E+03</pdfrwt>
<pdfrwt beam="1">  1       -4 0.11788843E-01 0.12500355E+03</pdfrwt>
<totfact> 0.10395139E+04</totfact>
</mgrwt>
</event>
<event>
 5    1  0.3286491E-002  0.1250026E+03  0.7818608E-02  0.1235065E+00
         -4   -1    0    0    0  501 -0.00000000000E+00  0.00000000000E+00  0.22852933104E+01  0.26144723204E+01  0.12700000000E+01 0. -1.
          4   -1    0    0  501    0  0.00000000000E+00 -0.00000000000E+00 -0.15942008970E+04  0.15942014029E+04  0.12700000000E+01 0. -1.
         25    2    1    2    0    0  0.00000000000E+00  0.00000000000E+00 -0.15919156037E+04  0.15968158752E+04  0.12500259986E+03 0.  0.
    9000005    1    3    3    0    0 -0.61308435700E+02 -0.98341819713E+01 -0.70565084828E+03  0.70837811591E+03  0.10000000000E+01 0.  0.
    9000005    1    3    3    0    0  0.61308435700E+02  0.98341819713E+01 -0.88626475545E+03  0.88843775931E+03  0.10000000000E+01 0.  0.
<mgrwt>
<rscale>  0 0.12500260E+03</rscale>
<asrwt>0</asrwt>
<pdfrwt beam="2">  1        4 0.24528621E+00 0.12500260E+03</pdfrwt>
<pdfrwt beam="1">  1       -4 0.37694524E-03 0.12500260E+03</pdfrwt>
<totfact> 0.16102886E+03</totfact>
</mgrwt>
</event>
<event>
 5    1  0.3286491E-002  0.1249993E+03  0.7818608E-02  0.1235070E+00
          4   -1    0    0  501    0  0.00000000000E+00  0.00000000000E+00  0.14732343659E+03  0.14732891049E+03  0.12700000000E+01 0.  1.
         -4   -1    0    0    0  501 -0.00000000000E+00 -0.00000000000E+00 -0.26493295182E+02  0.26523717492E+02  0.12700000000E+01 0.  1.
         25    2    1    2    0    0  0.00000000000E+00  0.00000000000E+00  0.12083014140E+03  0.17385262799E+03  0.12499925274E+03 0.  0.
    9000005    1    3    3    0    0  0.11626865466E+02 -0.61393444233E+02  0.61708094117E+02  0.87824984344E+02  0.10000000000E+01 0.  0.
    9000005    1    3    3    0    0 -0.11626865466E+02  0.61393444233E+02  0.59122047285E+02  0.86027643642E+02  0.10000000000E+01 0.  0.
<mgrwt>
<rscale>  0 0.12499925E+03</rscale>
<asrwt>0</asrwt>
<pdfrwt beam="1">  1        4 0.22667905E-01 0.12499925E+03</pdfrwt>
<pdfrwt beam="2">  1       -4 0.40786529E-02 0.12499925E+03</pdfrwt>
<totfact> 0.94736988E+03</totfact>
</mgrwt>
</event>
<event>
 5    1  0.3286491E-002  0.1250010E+03  0.7818608E-02  0.1235068E+00
          4   -1    0    0  501    0  0.00000000000E+00  0.00000000000E+00  0.24151509119E+03  0.24151843030E+03  0.12700000000E+01 0.  1.
         -4   -1    0    0    0  501 -0.00000000000E+00 -0.00000000000E+00 -0.16145820690E+02  0.16195691580E+02  0.12700000000E+01 0.  1.
         25    2    1    2    0    0  0.00000000000E+00  0.00000000000E+00  0.22536927050E+03  0.25771412188E+03  0.12500104211E+03 0.  0.
    9000005    1    3    3    0    0 -0.18093250711E+02  0.29015339520E+02  0.22052649058E+03  0.22316403988E+03  0.10000000000E+01 0.  0.
    9000005    1    3    3    0    0  0.18093250711E+02 -0.29015339520E+02  0.48427799247E+01  0.34550081999E+02  0.10000000000E+01 0.  0.
<mgrwt>
<rscale>  0 0.12500104E+03</rscale>
<asrwt>0</asrwt>
<pdfrwt beam="1">  1        4 0.37160260E-01 0.12500104E+03</pdfrwt>
<pdfrwt beam="2">  1       -4 0.24880656E-02 0.12500104E+03</pdfrwt>
<totfact> 0.81226041E+03</totfact>
</mgrwt>
</event>
<event>
 5    1  0.3286491E-002  0.1249985E+03  0.7818608E-02  0.1235072E+00
          4   -1    0    0  501    0  0.00000000000E+00  0.00000000000E+00  0.75240982533E+01  0.76305278012E+01  0.12700000000E+01 0.  1.
         -4   -1    0    0    0  501 -0.00000000000E+00 -0.00000000000E+00 -0.51539977159E+03  0.51540133629E+03  0.12700000000E+01 0.  1.
         25    2    1    2    0    0  0.00000000000E+00  0.00000000000E+00 -0.50787567334E+03  0.52303186410E+03  0.12499852516E+03 0.  0.
    9000005    1    3    3    0    0 -0.36924145578E+02  0.31569181792E+02 -0.89459437243E+02  0.10180371642E+03  0.10000000000E+01 0.  0.
    9000005    1    3    3    0    0  0.36924145578E+02 -0.31569181792E+02 -0.41841623609E+03  0.42122814767E+03  0.10000000000E+01 0.  0.
<mgrwt>
<rscale>  0 0.12499853E+03</rscale>
<asrwt>0</asrwt>
<pdfrwt beam="1">  1        4 0.11658612E-02 0.12499853E+03</pdfrwt>
<pdfrwt beam="2">  1       -4 0.79300552E-01 0.12499853E+03</pdfrwt>
<totfact> 0.54122400E+03</totfact>
</mgrwt>
</event>
<event>
 5    1  0.3286491E-002  0.1250054E+03  0.7818608E-02  0.1235061E+00
          4   -1    0    0  501    0  0.00000000000E+00  0.00000000000E+00  0.31011516201E+02  0.31037510163E+02  0.12700000000E+01 0.  1.
         -4   -1    0    0    0  501 -0.00000000000E+00 -0.00000000000E+00 -0.12589021363E+03  0.12589661945E+03  0.12700000000E+01 0.  1.
         25    2    1    2    0    0  0.00000000000E+00  0.00000000000E+00 -0.94878697434E+02  0.15693412961E+03  0.12500541513E+03 0.  0.
    9000005    1    3    3    0    0  0.51459217182E+02  0.33273978755E+02 -0.32044222053E+02  0.69159531969E+02  0.10000000000E+01 0.  0.
    9000005    1    3    3    0    0 -0.51459217182E+02 -0.33273978755E+02 -0.62834475381E+02  0.87774597644E+02  0.10000000000E+01 0.  0.
<mgrwt>
<rscale>  0 0.12500542E+03</rscale>
<asrwt>0</asrwt>
<pdfrwt beam="1">  1        4 0.47734948E-02 0.12500542E+03</pdfrwt>
<pdfrwt beam="2">  1       -4 0.19370217E-01 0.12500542E+03</pdfrwt>
<totfact> 0.97925214E+03</totfact>
</mgrwt>
</event>
<event>
 5    1  0.3286491E-002  0.1249987E+03  0.7818608E-02  0.1235071E+00
         -4   -1    0    0    0  501 -0.00000000000E+00  0.00000000000E+00  0.15762417910E+03  0.15762929531E+03  0.12700000000E+01 0.  1.
          4   -1    0    0  501    0  0.00000000000E+00 -0.00000000000E+00 -0.24759747261E+02  0.24792296877E+02  0.12700000000E+01 0.  1.
         25    2    1    2    0    0  0.00000000000E+00  0.00000000000E+00  0.13286443184E+03  0.18242159218E+03  0.12499872017E+03 0.  0.
    9000005    1    3    3    0    0 -0.33185240014E+02  0.51039373913E+02  0.45850597831E+02  0.76220437979E+02  0.10000000000E+01 0.  0.
    9000005    1    3    3    0    0  0.33185240014E+02 -0.51039373913E+02  0.87013834013E+02  0.10620115420E+03  0.10000000000E+01 0.  0.
<mgrwt>
<rscale>  0 0.12499872E+03</rscale>
<asrwt>0</asrwt>
<pdfrwt beam="2">  1        4 0.38120893E-02 0.12499872E+03</pdfrwt>
<pdfrwt beam="1">  1       -4 0.24252771E-01 0.12499872E+03</pdfrwt>
<totfact> 0.93185590E+03</totfact>
</mgrwt>
</event>
<event>
 5    1  0.3286491E-002  0.1249939E+03  0.7818608E-02  0.1235079E+00
          4   -1    0    0  501    0  0.00000000000E+00  0.00000000000E+00  0.54898690599E+01  0.56348524643E+01  0.12700000000E+01 0. -1.
         -4   -1    0    0    0  501 -0.00000000000E+00 -0.00000000000E+00 -0.70205045904E+03  0.70205160775E+03  0.12700000000E+01 0. -1.
         25    2    1    2    0    0  0.00000000000E+00  0.00000000000E+00 -0.69656058998E+03  0.70768646021E+03  0.12499388166E+03 0.  0.
    9000005    1    3    3    0    0  0.57666042555E+02 -0.22436443602E+02 -0.39767128526E+03  0.40245772149E+03  0.10000000000E+01 0.  0.
    9000005    1    3    3    0    0 -0.57666042555E+02  0.22436443602E+02 -0.29888930473E+03  0.30522873873E+03  0.10000000000E+01 0.  0.
<mgrwt>
<rscale>  0 0.12499388E+03</rscale>
<asrwt>0</asrwt>
<pdfrwt beam="1">  1        4 0.85583673E-03 0.12499388E+03</pdfrwt>
<pdfrwt beam="2">  1       -4 0.10801893E+00 0.12499388E+03</pdfrwt>
<totfact> 0.42689770E+03</totfact>
</mgrwt>
</event>
<event>
 5    1  0.3286491E-002  0.1250030E+03  0.7818608E-02  0.1235065E+00
         -4   -1    0    0    0  501 -0.00000000000E+00  0.00000000000E+00  0.34581687963E+03  0.34581921163E+03  0.12700000000E+01 0.  1.
          4   -1    0    0  501    0  0.00000000000E+00 -0.00000000000E+00 -0.11258186644E+02  0.11329592513E+02  0.12700000000E+01 0.  1.
         25    2    1    2    0    0  0.00000000000E+00  0.00000000000E+00  0.33455869298E+03  0.35714880415E+03  0.12500299698E+03 0.  0.
    9000005    1    3    3    0    0 -0.16505892528E+02 -0.43708955624E+02  0.28585920134E+03  0.28965393192E+03  0.10000000000E+01 0.  0.
    9000005    1    3    3    0    0  0.16505892528E+02  0.43708955624E+02  0.48699491649E+02  0.67494872226E+02  0.10000000000E+01 0.  0.
<mgrwt>
<rscale>  0 0.12500300E+03</rscale>
<asrwt>0</asrwt>
<pdfrwt beam="2">  1        4 0.17377010E-02 0.12500300E+03</pdfrwt>
<pdfrwt beam="1">  1       -4 0.53208264E-01 0.12500300E+03</pdfrwt>
<totfact> 0.68940626E+03</totfact>
</mgrwt>
</event>
<event>
 5    1  0.3286491E-002  0.1249942E+03  0.7818608E-02  0.1235078E+00
         -4   -1    0    0    0  501 -0.00000000000E+00  0.00000000000E+00  0.16197506609E+02  0.16247218850E+02  0.12700000000E+01 0. -1.
          4   -1    0    0  501    0  0.00000000000E+00 -0.00000000000E+00 -0.24072034019E+03  0.24072369032E+03  0.12700000000E+01 0. -1.
         25    2    1    2    0    0  0.00000000000E+00  0.00000000000E+00 -0.22452283358E+03  0.25697090917E+03  0.12499418131E+03 0.  0.
    9000005    1    3    3    0    0  0.58406775436E+02  0.19995831670E+02 -0.92360744020E+02  0.11109766756E+03  0.10000000000E+01 0.  0.
    9000005    1    3    3    0    0 -0.58406775436E+02 -0.19995831670E+02 -0.13216208956E+03  0.14587324161E+03  0.10000000000E+01 0.  0.
<mgrwt>
<rscale>  0 0.12499418E+03</rscale>
<asrwt>0</asrwt>
<pdfrwt beam="2">  1        4 0.37037978E-01 0.12499418E+03</pdfrwt>
<pdfrwt beam="1">  1       -4 0.24960060E-02 0.12499418E+03</pdfrwt>
<totfact> 0.81343578E+03</totfact>
</mgrwt>
</event>
<event>
 5    1  0.3286491E-002  0.1250437E+03  0.7818608E-02  0.1235001E+00
          4   -1    0    0  501    0  0.00000000000E+00  0.00000000000E+00  0.95879997078E+03  0.95880081188E+03  0.12700000000E+01 0. -1.
         -4   -1    0    0    0  501 -0.00000000000E+00 -0.00000000000E+00 -0.39771847054E+01  0.41750327162E+01  0.12700000000E+01 0. -1.
         25    2    1    2    0    0  0.00000000000E+00  0.00000000000E+00  0.95482278608E+03  0.96297584460E+03  0.12504369026E+03 0.  0.
    9000005    1    3    3    0    0 -0.62175457287E+01 -0.20589941816E+02  0.92944634930E+03  0.92969571356E+03  0.10000000000E+01 0.  0.
    9000005    1    3    3    0    0  0.62175457287E+01  0.20589941816E+02  0.25376436776E+02  0.33280131044E+02  0.10000000000E+01 0.  0.
<mgrwt>
<rscale>  0 0.12504369E+03</rscale>
<asrwt>0</asrwt>
<pdfrwt beam="1">  1        4 0.14752302E+00 0.12504369E+03</pdfrwt>
<pdfrwt beam="2">  1       -4 0.62715814E-03 0.12504369E+03</pdfrwt>
<totfact> 0.31829350E+03</totfact>
</mgrwt>
</event>
<event>
 5    1  0.3286491E-002  0.1249972E+03  0.7818608E-02  0.1235074E+00
         -4   -1    0    0    0  501 -0.00000000000E+00  0.00000000000E+00  0.23498391573E+02  0.23532685918E+02  0.12700000000E+01 0. -1.
          4   -1    0    0  501    0  0.00000000000E+00 -0.00000000000E+00 -0.16606938783E+03  0.16607424386E+03  0.12700000000E+01 0. -1.
         25    2    1    2    0    0  0.00000000000E+00  0.00000000000E+00 -0.14257099626E+03  0.18960692978E+03  0.12499719536E+03 0.  0.
    9000005    1    3    3    0    0 -0.54599864775E+01 -0.59619141320E+02 -0.44115757088E+02  0.74373741923E+02  0.10000000000E+01 0.  0.
    9000005    1    3    3    0    0  0.54599864775E+01  0.59619141320E+02 -0.98455239168E+02  0.11523318786E+03  0.10000000000E+01 0.  0.
<mgrwt>
<rscale>  0 0.12499720E+03</rscale>
<asrwt>0</asrwt>
<pdfrwt beam="2">  1        4 0.25552147E-01 0.12499720E+03</pdfrwt>
<pdfrwt beam="1">  1       -4 0.36181489E-02 0.12499720E+03</pdfrwt>
<totfact> 0.91921528E+03</totfact>
</mgrwt>
</event>
<event>
 5    1  0.3286491E-002  0.1249834E+03  0.7818608E-02  0.1235095E+00
         -4   -1    0    0    0  501 -0.00000000000E+00  0.00000000000E+00  0.41065687997E+02  0.41085321353E+02  0.12700000000E+01 0. -1.
          4   -1    0    0  501    0  0.00000000000E+00 -0.00000000000E+00 -0.95050082905E+02  0.95058567000E+02  0.12700000000E+01 0. -1.
         25    2    1    2    0    0  0.00000000000E+00  0.00000000000E+00 -0.53984394908E+02  0.13614388835E+03  0.12498337266E+03 0.  0.
    9000005    1    3    3    0    0  0.55629726714E+01  0.18316471543E+02 -0.91782614154E+02  0.93762935404E+02  0.10000000000E+01 0.  0.
    9000005    1    3    3    0    0 -0.55629726714E+01 -0.18316471543E+02  0.37798219246E+02  0.42380952949E+02  0.10000000000E+01 0.  0.
<mgrwt>
<rscale>  0 0.12498337E+03</rscale>
<asrwt>0</asrwt>
<pdfrwt beam="2">  1        4 0.14625253E-01 0.12498337E+03</pdfrwt>
<pdfrwt beam="1">  1       -4 0.63199611E-02 0.12498337E+03</pdfrwt>
<totfact> 0.10217847E+04</totfact>
</mgrwt>
</event>
<event>
 5    1  0.3286491E-002  0.1249997E+03  0.7818608E-02  0.1235070E+00
          4   -1    0    0  501    0  0.00000000000E+00  0.00000000000E+00  0.41918287189E+02  0.41937521396E+02  0.12700000000E+01 0.  1.
         -4   -1    0    0    0  501 -0.00000000000E+00 -0.00000000000E+00 -0.93141845623E+02  0.93150503520E+02  0.12700000000E+01 0.  1.
         25    2    1    2    0    0  0.00000000000E+00  0.00000000000E+00 -0.51223558435E+02  0.13508802492E+03  0.12499968615E+03 0.  0.
    9000005    1    3    3    0    0  0.49874167714E+02  0.24216445400E+02 -0.56772170119E+02  0.79359612732E+02  0.10000000000E+01 0.  0.
    9000005    1    3    3    0    0 -0.49874167714E+02 -0.24216445400E+02  0.55486116838E+01  0.55728412184E+02  0.10000000000E+01 0.  0.
<mgrwt>
<rscale>  0 0.12499969E+03</rscale>
<asrwt>0</asrwt>
<pdfrwt beam="1">  1        4 0.64511128E-02 0.12499969E+03</pdfrwt>
<pdfrwt beam="2">  1       -4 0.14331660E-01 0.12499969E+03</pdfrwt>
<totfact> 0.10236288E+04</totfact>
</mgrwt>
</event>
<event>
 5    1  0.3286491E-002  0.1250023E+03  0.7818608E-02  0.1235066E+00
         -4   -1    0    0    0  501 -0.00000000000E+00  0.00000000000E+00  0.53928160325E+03  0.53928309866E+03  0.12700000000E+01 0. -1.
          4   -1    0    0  501    0  0.00000000000E+00 -0.00000000000E+00 -0.71865223580E+01  0.72978766502E+01  0.12700000000E+01 0. -1.
         25    2    1    2    0    0  0.00000000000E+00  0.00000000000E+00  0.53209508089E+03  0.54658097531E+03  0.12500234984E+03 0.  0.
    9000005    1    3    3    0    0 -0.32886909799E+02 -0.37161102332E+02  0.99953317702E+02  0.11159821720E+03  0.10000000000E+01 0.  0.
    9000005    1    3    3    0    0  0.32886909799E+02  0.37161102332E+02  0.43214176319E+03  0.43498275811E+03  0.10000000000E+01 0.  0.
<mgrwt>
<rscale>  0 0.12500235E+03</rscale>
<asrwt>0</asrwt>
<pdfrwt beam="2">  1        4 0.11142994E-02 0.12500235E+03</pdfrwt>
<pdfrwt beam="1">  1       -4 0.82975094E-01 0.12500235E+03</pdfrwt>
<totfact> 0.52420403E+03</totfact>
</mgrwt>
</event>
<event>
 5    1  0.3286491E-002  0.1249448E+03  0.7818608E-02  0.1235156E+00
          4   -1    0    0  501    0  0.00000000000E+00  0.00000000000E+00  0.14914993069E+03  0.14915533757E+03  0.12700000000E+01 0. -1.
         -4   -1    0    0    0  501 -0.00000000000E+00 -0.00000000000E+00 -0.26145652766E+02  0.26176479109E+02  0.12700000000E+01 0. -1.
         25    2    1    2    0    0  0.00000000000E+00  0.00000000000E+00  0.12300427793E+03  0.17533181668E+03  0.12494476200E+03 0.  0.
    9000005    1    3    3    0    0 -0.73404508385E+01 -0.60973649939E+02  0.45494337176E+02  0.76435612907E+02  0.10000000000E+01 0.  0.
    9000005    1    3    3    0    0  0.73404508385E+01  0.60973649939E+02  0.77509940752E+02  0.98896203774E+02  0.10000000000E+01 0.  0.
<mgrwt>
<rscale>  0 0.12494476E+03</rscale>
<asrwt>0</asrwt>
<pdfrwt beam="1">  1        4 0.22948931E-01 0.12494476E+03</pdfrwt>
<pdfrwt beam="2">  1       -4 0.40251952E-02 0.12494476E+03</pdfrwt>
<totfact> 0.94581252E+03</totfact>
</mgrwt>
</event>
<event>
 5    1  0.3286491E-002  0.1249986E+03  0.7818608E-02  0.1235072E+00
         -4   -1    0    0    0  501 -0.00000000000E+00  0.00000000000E+00  0.15649042022E+02  0.15700490954E+02  0.12700000000E+01 0. -1.
          4   -1    0    0  501    0  0.00000000000E+00 -0.00000000000E+00 -0.24914744634E+03  0.24915068316E+03  0.12700000000E+01 0. -1.
         25    2    1    2    0    0  0.00000000000E+00  0.00000000000E+00 -0.23349840432E+03  0.26485117411E+03  0.12499855843E+03 0.  0.
    9000005    1    3    3    0    0 -0.40832555834E+02  0.46156054316E+02 -0.13871579088E+03  0.15179179690E+03  0.10000000000E+01 0.  0.
    9000005    1    3    3    0    0  0.40832555834E+02 -0.46156054316E+02 -0.94782613441E+02  0.11305937722E+03  0.10000000000E+01 0.  0.
<mgrwt>
<rscale>  0 0.12499856E+03</rscale>
<asrwt>0</asrwt>
<pdfrwt beam="2">  1        4 0.38334580E-01 0.12499856E+03</pdfrwt>
<pdfrwt beam="1">  1       -4 0.24117517E-02 0.12499856E+03</pdfrwt>
<totfact> 0.80232626E+03</totfact>
</mgrwt>
</event>
<event>
 5    1  0.3286491E-002  0.1250008E+03  0.7818608E-02  0.1235068E+00
          4   -1    0    0  501    0  0.00000000000E+00  0.00000000000E+00  0.44511745883E+03  0.44511927059E+03  0.12700000000E+01 0.  1.
         -4   -1    0    0    0  501 -0.00000000000E+00 -0.00000000000E+00 -0.87280936746E+01  0.88200067570E+01  0.12700000000E+01 0.  1.
         25    2    1    2    0    0  0.00000000000E+00  0.00000000000E+00  0.43638936515E+03  0.45393927735E+03  0.12500075801E+03 0.  0.
    9000005    1    3    3    0    0  0.10513145471E+02  0.52435575542E+02  0.33560378312E+03  0.33983954310E+03  0.10000000000E+01 0.  0.
    9000005    1    3    3    0    0 -0.10513145471E+02 -0.52435575542E+02  0.10078558203E+03  0.11409973425E+03  0.10000000000E+01 0.  0.
<mgrwt>
<rscale>  0 0.12500076E+03</rscale>
<asrwt>0</asrwt>
<pdfrwt beam="1">  1        4 0.68486812E-01 0.12500076E+03</pdfrwt>
<pdfrwt beam="2">  1       -4 0.13499934E-02 0.12500076E+03</pdfrwt>
<totfact> 0.59623055E+03</totfact>
</mgrwt>
</event>
<event>
 5    1  0.3286491E-002  0.1249983E+03  0.7818608E-02  0.1235072E+00
         -4   -1    0    0    0  501 -0.00000000000E+00  0.00000000000E+00  0.22142921096E+02  0.22179311411E+02  0.12700000000E+01 0.  1.
          4   -1    0    0  501    0  0.00000000000E+00 -0.00000000000E+00 -0.17622252444E+03  0.17622710069E+03  0.12700000000E+01 0.  1.
         25    2    1    2    0    0  0.00000000000E+00  0.00000000000E+00 -0.15407960334E+03  0.19840641210E+03  0.12499832078E+03 0.  0.
    9000005    1    3    3    0    0 -0.19856204949E+02 -0.26053613366E+02  0.74306269296E+01  0.33604670226E+02  0.10000000000E+01 0.  0.
    9000005    1    3    3    0    0  0.19856204949E+02  0.26053613366E+02 -0.16151023027E+03  0.16480174188E+03  0.10000000000E+01 0.  0.
<mgrwt>
<rscale>  0 0.12499832E+03</rscale>
<asrwt>0</asrwt>
<pdfrwt beam="2">  1        4 0.27114308E-01 0.12499832E+03</pdfrwt>
<pdfrwt beam="1">  1       -4 0.34097546E-02 0.12499832E+03</pdfrwt>
<totfact> 0.90408248E+03</totfact>
</mgrwt>
</event>
<event>
 5    1  0.3286491E-002  0.1249975E+03  0.7818608E-02  0.1235073E+00
          4   -1    0    0  501    0  0.00000000000E+00  0.00000000000E+00  0.80269723695E+02  0.80279769818E+02  0.12700000000E+01 0. -1.
         -4   -1    0    0    0  501 -0.00000000000E+00 -0.00000000000E+00 -0.48640763218E+02  0.48657340108E+02  0.12700000000E+01 0. -1.
         25    2    1    2    0    0  0.00000000000E+00  0.00000000000E+00  0.31628960477E+02  0.12893710993E+03  0.12499754868E+03 0.  0.
    9000005    1    3    3    0    0 -0.72207814796E+01 -0.42252879001E+02 -0.31090082028E+02  0.52962615773E+02  0.10000000000E+01 0.  0.
    9000005    1    3    3    0    0  0.72207814796E+01  0.42252879001E+02  0.62719042505E+02  0.75974494153E+02  0.10000000000E+01 0.  0.
<mgrwt>
<rscale>  0 0.12499755E+03</rscale>
<asrwt>0</asrwt>
<pdfrwt beam="1">  1        4 0.12351236E-01 0.12499755E+03</pdfrwt>
<pdfrwt beam="2">  1       -4 0.74852424E-02 0.12499755E+03</pdfrwt>
<totfact> 0.10367872E+04</totfact>
</mgrwt>
</event>
<event>
 5    1  0.3286491E-002  0.1249985E+03  0.7818608E-02  0.1235072E+00
         -4   -1    0    0    0  501 -0.00000000000E+00  0.00000000000E+00  0.16349111676E+03  0.16349604937E+03  0.12700000000E+01 0. -1.
          4   -1    0    0  501    0  0.00000000000E+00 -0.00000000000E+00 -0.23869980675E+02  0.23903741912E+02  0.12700000000E+01 0. -1.
         25    2    1    2    0    0  0.00000000000E+00  0.00000000000E+00  0.13962113608E+03  0.18739979128E+03  0.12499848051E+03 0.  0.
    9000005    1    3    3    0    0 -0.33210079105E+02 -0.40567316092E+02  0.12079580294E+03  0.13168615151E+03  0.10000000000E+01 0.  0.
    9000005    1    3    3    0    0  0.33210079105E+02  0.40567316092E+02  0.18825333137E+02  0.55713639774E+02  0.10000000000E+01 0.  0.
<mgrwt>
<rscale>  0 0.12499848E+03</rscale>
<asrwt>0</asrwt>
<pdfrwt beam="2">  1        4 0.36752813E-02 0.12499848E+03</pdfrwt>
<pdfrwt beam="1">  1       -4 0.25155455E-01 0.12499848E+03</pdfrwt>
<totfact> 0.92304863E+03</totfact>
</mgrwt>
</event>
<event>
 5    1  0.3286491E-002  0.1249457E+03  0.7818608E-02  0.1235154E+00
          4   -1    0    0  501    0  0.00000000000E+00  0.00000000000E+00  0.33911525364E+02  0.33935298032E+02  0.12700000000E+01 0. -1.
         -4   -1    0    0    0  501 -0.00000000000E+00 -0.00000000000E+00 -0.11502174765E+03  0.11502875871E+03  0.12700000000E+01 0. -1.
         25    2    1    2    0    0  0.00000000000E+00  0.00000000000E+00 -0.81110222281E+02  0.14896405675E+03  0.12494567637E+03 0.  0.
    9000005    1    3    3    0    0 -0.30249482093E+02  0.54582673593E+02 -0.37277867345E+02  0.72697584673E+02  0.10000000000E+01 0.  0.
    9000005    1    3    3    0    0  0.30249482093E+02 -0.54582673593E+02 -0.43832354935E+02  0.76266472074E+02  0.10000000000E+01 0.  0.
<mgrwt>
<rscale>  0 0.12494568E+03</rscale>
<asrwt>0</asrwt>
<pdfrwt beam="1">  1        4 0.52195258E-02 0.12494568E+03</pdfrwt>
<pdfrwt beam="2">  1       -4 0.17698021E-01 0.12494568E+03</pdfrwt>
<totfact> 0.99632371E+03</totfact>
</mgrwt>
</event>
<event>
 5    1  0.3286491E-002  0.1250021E+03  0.7818608E-02  0.1235066E+00
         -4   -1    0    0    0  501 -0.00000000000E+00  0.00000000000E+00  0.12089731845E+03  0.12090398880E+03  0.12700000000E+01 0.  1.
          4   -1    0    0  501    0  0.00000000000E+00 -0.00000000000E+00 -0.32291521297E+02  0.32316485695E+02  0.12700000000E+01 0.  1.
         25    2    1    2    0    0  0.00000000000E+00  0.00000000000E+00  0.88605797149E+02  0.15322047449E+03  0.12500210604E+03 0.  0.
    9000005    1    3    3    0    0  0.56301009179E+02 -0.19062824881E+02  0.20655689087E+02  0.62935303437E+02  0.10000000000E+01 0.  0.
    9000005    1    3    3    0    0 -0.56301009179E+02  0.19062824881E+02  0.67950108062E+02  0.90285171056E+02  0.10000000000E+01 0.  0.
<mgrwt>
<rscale>  0 0.12500211E+03</rscale>
<asrwt>0</asrwt>
<pdfrwt beam="2">  1        4 0.49703599E-02 0.12500211E+03</pdfrwt>
<pdfrwt beam="1">  1       -4 0.18602021E-01 0.12500211E+03</pdfrwt>
<totfact> 0.98660901E+03</totfact>
</mgrwt>
</event>
<event>
 5    1  0.3286491E-002  0.1249974E+03  0.7818608E-02  0.1235073E+00
         -4   -1    0    0    0  501 -0.00000000000E+00  0.00000000000E+00  0.21628134706E+02  0.21665389700E+02  0.12700000000E+01 0.  1.
          4   -1    0    0  501    0  0.00000000000E+00 -0.00000000000E+00 -0.18040724163E+03  0.18041171174E+03  0.12700000000E+01 0.  1.
         25    2    1    2    0    0  0.00000000000E+00  0.00000000000E+00 -0.15877910692E+03  0.20207710144E+03  0.12499740050E+03 0.  0.
    9000005    1    3    3    0    0 -0.40998910809E+02  0.21786081827E+01 -0.15555130068E+03  0.16088152213E+03  0.10000000000E+01 0.  0.
    9000005    1    3    3    0    0  0.40998910809E+02 -0.21786081827E+01 -0.32278062449E+01  0.41195579306E+02  0.10000000000E+01 0.  0.
<mgrwt>
<rscale>  0 0.12499740E+03</rscale>
<asrwt>0</asrwt>
<pdfrwt beam="2">  1        4 0.27758169E-01 0.12499740E+03</pdfrwt>
<pdfrwt beam="1">  1       -4 0.33306151E-02 0.12499740E+03</pdfrwt>
<totfact> 0.89791588E+03</totfact>
</mgrwt>
</event>
<event>
 5    1  0.3286491E-002  0.1250015E+03  0.7818608E-02  0.1235067E+00
         -4   -1    0    0    0  501 -0.00000000000E+00  0.00000000000E+00  0.67778542607E+02  0.67790439871E+02  0.12700000000E+01 0.  1.
          4   -1    0    0  501    0  0.00000000000E+00 -0.00000000000E+00 -0.57609970005E+02  0.57623966750E+02  0.12700000000E+01 0.  1.
         25    2    1    2    0    0  0.00000000000E+00  0.00000000000E+00  0.10168572602E+02  0.12541440662E+03  0.12500149407E+03 0.  0.
    9000005    1    3    3    0    0 -0.10129295520E+02  0.36947371456E+02 -0.44451189524E+02  0.58690877787E+02  0.10000000000E+01 0.  0.
    9000005    1    3    3    0    0  0.10129295520E+02 -0.36947371456E+02  0.54619762127E+02  0.66723528834E+02  0.10000000000E+01 0.  0.
<mgrwt>
<rscale>  0 0.12500149E+03</rscale>
<asrwt>0</asrwt>
<pdfrwt beam="2">  1        4 0.88650641E-02 0.12500149E+03</pdfrwt>
<pdfrwt beam="1">  1       -4 0.10429460E-01 0.12500149E+03</pdfrwt>
<totfact> 0.10443496E+04</totfact>
</mgrwt>
</event>
<event>
 5    1  0.3286491E-002  0.1250004E+03  0.7818608E-02  0.1235069E+00
         -4   -1    0    0    0  501 -0.00000000000E+00  0.00000000000E+00  0.77252634886E+01  0.78289588049E+01  0.12700000000E+01 0.  1.
          4   -1    0    0  501    0  0.00000000000E+00 -0.00000000000E+00 -0.50217415651E+03  0.50217576243E+03  0.12700000000E+01 0.  1.
         25    2    1    2    0    0  0.00000000000E+00  0.00000000000E+00 -0.49444889303E+03  0.51000472123E+03  0.12500043146E+03 0.  0.
    9000005    1    3    3    0    0 -0.57267588373E+02 -0.21477567493E+02 -0.19490868058E+03  0.20428229573E+03  0.10000000000E+01 0.  0.
    9000005    1    3    3    0    0  0.57267588373E+02  0.21477567493E+02 -0.29954021244E+03  0.30572242550E+03  0.10000000000E+01 0.  0.
<mgrwt>
<rscale>  0 0.12500043E+03</rscale>
<asrwt>0</asrwt>
<pdfrwt beam="2">  1        4 0.77265637E-01 0.12500043E+03</pdfrwt>
<pdfrwt beam="1">  1       -4 0.11966026E-02 0.12500043E+03</pdfrwt>
<totfact> 0.55095882E+03</totfact>
</mgrwt>
</event>
<event>
 5    1  0.3286491E-002  0.1249901E+03  0.7818608E-02  0.1235085E+00
          4   -1    0    0  501    0  0.00000000000E+00  0.00000000000E+00  0.19529353452E+01  0.23295614313E+01  0.12700000000E+01 0.  1.
         -4   -1    0    0    0  501 -0.00000000000E+00 -0.00000000000E+00 -0.18236191157E+04  0.18236195580E+04  0.12700000000E+01 0.  1.
         25    2    1    2    0    0  0.00000000000E+00  0.00000000000E+00 -0.18216661804E+04  0.18259491194E+04  0.12499005492E+03 0.  0.
    9000005    1    3    3    0    0  0.40136725701E+02  0.46898870487E+02 -0.10525964800E+04  0.10544054299E+04  0.10000000000E+01 0.  0.
    9000005    1    3    3    0    0 -0.40136725701E+02 -0.46898870487E+02 -0.76906970037E+03  0.77154368951E+03  0.10000000000E+01 0.  0.
<mgrwt>
<rscale>  0 0.12499005E+03</rscale>
<asrwt>0</asrwt>
<pdfrwt beam="1">  1        4 0.32945831E-03 0.12499005E+03</pdfrwt>
<pdfrwt beam="2">  1       -4 0.28058455E+00 0.12499005E+03</pdfrwt>
<totfact> 0.12310749E+03</totfact>
</mgrwt>
</event>
<event>
 5    1  0.3286491E-002  0.1250017E+03  0.7818608E-02  0.1235067E+00
         -4   -1    0    0    0  501 -0.00000000000E+00  0.00000000000E+00  0.95983820872E+01  0.96820369082E+01  0.12700000000E+01 0. -1.
          4   -1    0    0  501    0  0.00000000000E+00 -0.00000000000E+00 -0.40513027798E+03  0.40513226857E+03  0.12700000000E+01 0. -1.
         25    2    1    2    0    0  0.00000000000E+00  0.00000000000E+00 -0.39553189589E+03  0.41481430548E+03  0.12500170943E+03 0.  0.
    9000005    1    3    3    0    0  0.48189945404E+02  0.11587141189E+02 -0.32407823916E+03  0.32784788817E+03  0.10000000000E+01 0.  0.
    9000005    1    3    3    0    0 -0.48189945404E+02 -0.11587141189E+02 -0.71453656726E+02  0.86966417303E+02  0.10000000000E+01 0.  0.
<mgrwt>
<rscale>  0 0.12500171E+03</rscale>
<asrwt>0</asrwt>
<pdfrwt beam="2">  1        4 0.62334310E-01 0.12500171E+03</pdfrwt>
<pdfrwt beam="1">  1       -4 0.14832626E-02 0.12500171E+03</pdfrwt>
<totfact> 0.63134651E+03</totfact>
</mgrwt>
</event>
<event>
 5    1  0.3286491E-002  0.1249988E+03  0.7818608E-02  0.1235071E+00
          4   -1    0    0  501    0  0.00000000000E+00  0.00000000000E+00  0.46944039420E+03  0.46944211210E+03  0.12700000000E+01 0.  1.
         -4   -1    0    0    0  501 -0.00000000000E+00 -0.00000000000E+00 -0.82707196839E+01  0.83676582201E+01  0.12700000000E+01 0.  1.
         25    2    1    2    0    0  0.00000000000E+00  0.00000000000E+00  0.46116967452E+03  0.47780977032E+03  0.12499883165E+03 0.  0.
    9000005    1    3    3    0    0 -0.88596357167E+00 -0.33057517684E+02  0.43327154381E+03  0.43453286996E+03  0.10000000000E+01 0.  0.
    9000005    1    3    3    0    0  0.88596357167E+00  0.33057517684E+02  0.27898130715E+02  0.43276900355E+02  0.10000000000E+01 0.  0.
<mgrwt>
<rscale>  0 0.12499883E+03</rscale>
<asrwt>0</asrwt>
<pdfrwt beam="1">  1        4 0.72229176E-01 0.12499883E+03</pdfrwt>
<pdfrwt beam="2">  1       -4 0.12800076E-02 0.12499883E+03</pdfrwt>
<totfact> 0.57629606E+03</totfact>
</mgrwt>
</event>
<event>
 5    1  0.3286491E-002  0.1249966E+03  0.7818608E-02  0.1235075E+00
         -4   -1    0    0    0  501 -0.00000000000E+00  0.00000000000E+00  0.10004783126E+02  0.10085067446E+02  0.12700000000E+01 0. -1.
          4   -1    0    0  501    0  0.00000000000E+00 -0.00000000000E+00 -0.38877566030E+03  0.38877773463E+03  0.12700000000E+01 0. -1.
         25    2    1    2    0    0  0.00000000000E+00  0.00000000000E+00 -0.37877087718E+03  0.39886280208E+03  0.12499662988E+03 0.  0.
    9000005    1    3    3    0    0 -0.29697231257E+02  0.76926017973E+01 -0.15661459672E+02  0.34458424017E+02  0.10000000000E+01 0.  0.
    9000005    1    3    3    0    0  0.29697231257E+02 -0.76926017973E+01 -0.36310941751E+03  0.36440437806E+03  0.10000000000E+01 0.  0.
<mgrwt>
<rscale>  0 0.12499663E+03</rscale>
<asrwt>0</asrwt>
<pdfrwt beam="2">  1        4 0.59817964E-01 0.12499663E+03</pdfrwt>
<pdfrwt beam="1">  1       -4 0.15455330E-02 0.12499663E+03</pdfrwt>
<totfact> 0.64668359E+03</totfact>
</mgrwt>
</event>
<event>
 5    1  0.3286491E-002  0.1249893E+03  0.7818608E-02  0.1235086E+00
         -4   -1    0    0    0  501 -0.00000000000E+00  0.00000000000E+00  0.11120192051E+04  0.11120199303E+04  0.12700000000E+01 0. -1.
          4   -1    0    0  501    0  0.00000000000E+00 -0.00000000000E+00 -0.33965951475E+01  0.36262595875E+01  0.12700000000E+01 0. -1.
         25    2    1    2    0    0  0.00000000000E+00  0.00000000000E+00  0.11086226099E+04  0.11156461899E+04  0.12498931850E+03 0.  0.
    9000005    1    3    3    0    0  0.10895925547E+02 -0.25498310718E+02  0.10541393942E+04  0.10545045033E+04  0.10000000000E+01 0.  0.
    9000005    1    3    3    0    0 -0.10895925547E+02  0.25498310718E+02  0.54483215723E+02  0.61141686585E+02  0.10000000000E+01 0.  0.
<mgrwt>
<rscale>  0 0.12498932E+03</rscale>
<asrwt>0</asrwt>
<pdfrwt beam="2">  1        4 0.54027414E-03 0.12498932E+03</pdfrwt>
<pdfrwt beam="1">  1       -4 0.17109799E+00 0.12498932E+03</pdfrwt>
<totfact> 0.27036157E+03</totfact>
</mgrwt>
</event>
<event>
 5    1  0.3286491E-002  0.1249877E+03  0.7818608E-02  0.1235088E+00
         -4   -1    0    0    0  501 -0.00000000000E+00  0.00000000000E+00  0.56242674960E+03  0.56242818347E+03  0.12700000000E+01 0.  1.
          4   -1    0    0  501    0  0.00000000000E+00 -0.00000000000E+00 -0.68844626325E+01  0.70006232393E+01  0.12700000000E+01 0.  1.
         25    2    1    2    0    0  0.00000000000E+00  0.00000000000E+00  0.55554228697E+03  0.56942880671E+03  0.12498773262E+03 0.  0.
    9000005    1    3    3    0    0  0.49250253374E+01 -0.61901764966E+02  0.24607619897E+03  0.25379239563E+03  0.10000000000E+01 0.  0.
    9000005    1    3    3    0    0 -0.49250253374E+01  0.61901764966E+02  0.30946608799E+03  0.31563641108E+03  0.10000000000E+01 0.  0.
<mgrwt>
<rscale>  0 0.12498773E+03</rscale>
<asrwt>0</asrwt>
<pdfrwt beam="2">  1        4 0.10681933E-02 0.12498773E+03</pdfrwt>
<pdfrwt beam="1">  1       -4 0.86536277E-01 0.12498773E+03</pdfrwt>
<totfact> 0.50869695E+03</totfact>
</mgrwt>
</event>
<event>
 5    1  0.3286491E-002  0.1250007E+03  0.7818608E-02  0.1235068E+00
         -4   -1    0    0    0  501 -0.00000000000E+00  0.00000000000E+00  0.58682004718E+01  0.60040550278E+01  0.12700000000E+01 0.  1.
          4   -1    0    0  501    0  0.00000000000E+00 -0.00000000000E+00 -0.65791764534E+03  0.65791887110E+03  0.12700000000E+01 0.  1.
         25    2    1    2    0    0  0.00000000000E+00  0.00000000000E+00 -0.65204944487E+03  0.66392292613E+03  0.12500069314E+03 0.  0.
    9000005    1    3    3    0    0 -0.44701284926E+02  0.43548862909E+02 -0.30874445731E+03  0.31499023518E+03  0.10000000000E+01 0.  0.
    9000005    1    3    3    0    0  0.44701284926E+02 -0.43548862909E+02 -0.34330498755E+03  0.34893269095E+03  0.10000000000E+01 0.  0.
<mgrwt>
<rscale>  0 0.12500069E+03</rscale>
<asrwt>0</asrwt>
<pdfrwt beam="2">  1        4 0.10122859E+00 0.12500069E+03</pdfrwt>
<pdfrwt beam="1">  1       -4 0.91334523E-03 0.12500069E+03</pdfrwt>
<totfact> 0.45060051E+03</totfact>
</mgrwt>
</event>
<event>
 5    1  0.3286491E-002  0.1250495E+03  0.7818608E-02  0.1234992E+00
         -4   -1    0    0    0  501 -0.00000000000E+00  0.00000000000E+00  0.48840471942E+01  0.50464657925E+01  0.12700000000E+01 0.  1.
          4   -1    0    0  501    0  0.00000000000E+00 -0.00000000000E+00 -0.78717709137E+03  0.78717811585E+03  0.12700000000E+01 0.  1.
         25    2    1    2    0    0  0.00000000000E+00  0.00000000000E+00 -0.78229304417E+03  0.79222458164E+03  0.12504951338E+03 0.  0.
    9000005    1    3    3    0    0  0.43187896982E+02 -0.36715443399E+02 -0.22411502367E+03  0.23117474357E+03  0.10000000000E+01 0.  0.
    9000005    1    3    3    0    0 -0.43187896982E+02  0.36715443399E+02 -0.55817802050E+03  0.56104983807E+03  0.10000000000E+01 0.  0.
<mgrwt>
<rscale>  0 0.12504951E+03</rscale>
<asrwt>0</asrwt>
<pdfrwt beam="2">  1        4 0.12111664E+00 0.12504951E+03</pdfrwt>
<pdfrwt beam="1">  1       -4 0.76396504E-03 0.12504951E+03</pdfrwt>
<totfact> 0.38572492E+03</totfact>
</mgrwt>
</event>
<event>
 5    1  0.3286491E-002  0.1250015E+03  0.7818608E-02  0.1235067E+00
         -4   -1    0    0    0  501 -0.00000000000E+00  0.00000000000E+00  0.15443334302E+02  0.15495466252E+02  0.12700000000E+01 0.  1.
          4   -1    0    0  501    0  0.00000000000E+00 -0.00000000000E+00 -0.25246682492E+03  0.25247001918E+03  0.12700000000E+01 0.  1.
         25    2    1    2    0    0  0.00000000000E+00  0.00000000000E+00 -0.23702349062E+03  0.26796548543E+03  0.12500146511E+03 0.  0.
    9000005    1    3    3    0    0  0.27081628158E+02 -0.23849182505E+02 -0.91380691789E+01  0.37238453219E+02  0.10000000000E+01 0.  0.
    9000005    1    3    3    0    0 -0.27081628158E+02  0.23849182505E+02 -0.22788542144E+03  0.23072703222E+03  0.10000000000E+01 0.  0.
<mgrwt>
<rscale>  0 0.12500147E+03</rscale>
<asrwt>0</asrwt>
<pdfrwt beam="2">  1        4 0.38845303E-01 0.12500147E+03</pdfrwt>
<pdfrwt beam="1">  1       -4 0.23801536E-02 0.12500147E+03</pdfrwt>
<totfact> 0.79798453E+03</totfact>
</mgrwt>
</event>
<event>
 5    1  0.3286491E-002  0.1249981E+03  0.7818608E-02  0.1235072E+00
         -4   -1    0    0    0  501 -0.00000000000E+00  0.00000000000E+00  0.75023434991E+02  0.75034183529E+02  0.12700000000E+01 0.  1.
          4   -1    0    0  501    0  0.00000000000E+00 -0.00000000000E+00 -0.52043229570E+02  0.52058723036E+02  0.12700000000E+01 0.  1.
         25    2    1    2    0    0  0.00000000000E+00  0.00000000000E+00  0.22980205420E+02  0.12709290656E+03  0.12499806822E+03 0.  0.
    9000005    1    3    3    0    0 -0.13686319938E+02  0.57921483459E+02  0.30859712331E+02  0.67048754237E+02  0.10000000000E+01 0.  0.
    9000005    1    3    3    0    0  0.13686319938E+02 -0.57921483459E+02 -0.78795069107E+01  0.60044152327E+02  0.10000000000E+01 0.  0.
<mgrwt>
<rscale>  0 0.12499807E+03</rscale>
<asrwt>0</asrwt>
<pdfrwt beam="2">  1        4 0.80086693E-02 0.12499807E+03</pdfrwt>
<pdfrwt beam="1">  1       -4 0.11544086E-01 0.12499807E+03</pdfrwt>
<totfact> 0.10407582E+04</totfact>
</mgrwt>
</event>
<event>
 5    1  0.3286491E-002  0.1249994E+03  0.7818608E-02  0.1235070E+00
          4   -1    0    0  501    0  0.00000000000E+00  0.00000000000E+00  0.21565147369E+02  0.21602510989E+02  0.12700000000E+01 0.  1.
         -4   -1    0    0    0  501 -0.00000000000E+00 -0.00000000000E+00 -0.18093900168E+03  0.18094345866E+03  0.12700000000E+01 0.  1.
         25    2    1    2    0    0  0.00000000000E+00  0.00000000000E+00 -0.15937385431E+03  0.20254596965E+03  0.12499937752E+03 0.  0.
    9000005    1    3    3    0    0 -0.37900985793E+02  0.44020796391E+02 -0.42351560281E+02  0.71895548521E+02  0.10000000000E+01 0.  0.
    9000005    1    3    3    0    0  0.37900985793E+02 -0.44020796391E+02 -0.11702229403E+03  0.13065042112E+03  0.10000000000E+01 0.  0.
<mgrwt>
<rscale>  0 0.12499938E+03</rscale>
<asrwt>0</asrwt>
<pdfrwt beam="1">  1        4 0.33209321E-02 0.12499938E+03</pdfrwt>
<pdfrwt beam="2">  1       -4 0.27839985E-01 0.12499938E+03</pdfrwt>
<totfact> 0.89709127E+03</totfact>
</mgrwt>
</event>
<event>
 5    1  0.3286491E-002  0.1249997E+03  0.7818608E-02  0.1235070E+00
          4   -1    0    0  501    0  0.00000000000E+00  0.00000000000E+00  0.58282905003E+02  0.58296740180E+02  0.12700000000E+01 0.  1.
         -4   -1    0    0    0  501 -0.00000000000E+00 -0.00000000000E+00 -0.66994070745E+02  0.67006107296E+02  0.12700000000E+01 0.  1.
         25    2    1    2    0    0  0.00000000000E+00  0.00000000000E+00 -0.87111657421E+01  0.12530284748E+03  0.12499967671E+03 0.  0.
    9000005    1    3    3    0    0 -0.15729135913E+02 -0.47880565035E+02  0.32683669337E+02  0.60076421881E+02  0.10000000000E+01 0.  0.
    9000005    1    3    3    0    0  0.15729135913E+02  0.47880565035E+02 -0.41394835079E+02  0.65226425595E+02  0.10000000000E+01 0.  0.
<mgrwt>
<rscale>  0 0.12499968E+03</rscale>
<asrwt>0</asrwt>
<pdfrwt beam="1">  1        4 0.89685910E-02 0.12499968E+03</pdfrwt>
<pdfrwt beam="2">  1       -4 0.10308770E-01 0.12499968E+03</pdfrwt>
<totfact> 0.10446365E+04</totfact>
</mgrwt>
</event>
<event>
 5    1  0.3286491E-002  0.1250030E+03  0.7818608E-02  0.1235065E+00
         -4   -1    0    0    0  501 -0.00000000000E+00  0.00000000000E+00  0.66493911602E+02  0.66506038675E+02  0.12700000000E+01 0.  1.
          4   -1    0    0  501    0  0.00000000000E+00 -0.00000000000E+00 -0.58724457729E+02  0.58738188903E+02  0.12700000000E+01 0.  1.
         25    2    1    2    0    0  0.00000000000E+00  0.00000000000E+00  0.77694538733E+01  0.12524422758E+03  0.12500300848E+03 0.  0.
    9000005    1    3    3    0    0  0.21210938121E+02  0.27964887644E+02  0.55690395424E+02  0.65835848741E+02  0.10000000000E+01 0.  0.
    9000005    1    3    3    0    0 -0.21210938121E+02 -0.27964887644E+02 -0.47920941551E+02  0.59408378837E+02  0.10000000000E+01 0.  0.
<mgrwt>
<rscale>  0 0.12500301E+03</rscale>
<asrwt>0</asrwt>
<pdfrwt beam="2">  1        4 0.90365211E-02 0.12500301E+03</pdfrwt>
<pdfrwt beam="1">  1       -4 0.10231822E-01 0.12500301E+03</pdfrwt>
<totfact> 0.10446850E+04</totfact>
</mgrwt>
</event>
<event>
 5    1  0.3286491E-002  0.1250041E+03  0.7818608E-02  0.1235063E+00
         -4   -1    0    0    0  501 -0.00000000000E+00  0.00000000000E+00  0.46502665363E+03  0.46502838782E+03  0.12700000000E+01 0. -1.
          4   -1    0    0  501    0  0.00000000000E+00 -0.00000000000E+00 -0.83508484789E+01  0.84468674855E+01  0.12700000000E+01 0. -1.
         25    2    1    2    0    0  0.00000000000E+00  0.00000000000E+00  0.45667580515E+03  0.47347525531E+03  0.12500410547E+03 0.  0.
    9000005    1    3    3    0    0 -0.25342441552E+02 -0.54199355095E+02  0.15998137458E+03  0.17080646840E+03  0.10000000000E+01 0.  0.
    9000005    1    3    3    0    0  0.25342441552E+02  0.54199355095E+02  0.29669443057E+03  0.30266878691E+03  0.10000000000E+01 0.  0.
<mgrwt>
<rscale>  0 0.12500411E+03</rscale>
<asrwt>0</asrwt>
<pdfrwt beam="2">  1        4 0.12922654E-02 0.12500411E+03</pdfrwt>
<pdfrwt beam="1">  1       -4 0.71550079E-01 0.12500411E+03</pdfrwt>
<totfact> 0.57977500E+03</totfact>
</mgrwt>
</event>
<event>
 5    1  0.3286491E-002  0.1250006E+03  0.7818608E-02  0.1235068E+00
         -4   -1    0    0    0  501 -0.00000000000E+00  0.00000000000E+00  0.39032492287E+01  0.41046625369E+01  0.12700000000E+01 0.  1.
          4   -1    0    0  501    0  0.00000000000E+00 -0.00000000000E+00 -0.97540507628E+03  0.97540590306E+03  0.12700000000E+01 0.  1.
         25    2    1    2    0    0  0.00000000000E+00  0.00000000000E+00 -0.97150182705E+03  0.97951056560E+03  0.12500059264E+03 0.  0.
    9000005    1    3    3    0    0 -0.48172683355E+02  0.22740635392E+02 -0.74178027079E+03  0.74369127604E+03  0.10000000000E+01 0.  0.
    9000005    1    3    3    0    0  0.48172683355E+02 -0.22740635392E+02 -0.22972155626E+03  0.23581928956E+03  0.10000000000E+01 0.  0.
<mgrwt>
<rscale>  0 0.12500059E+03</rscale>
<asrwt>0</asrwt>
<pdfrwt beam="2">  1        4 0.15007769E+00 0.12500059E+03</pdfrwt>
<pdfrwt beam="1">  1       -4 0.61605759E-03 0.12500059E+03</pdfrwt>
<totfact> 0.31290486E+03</totfact>
</mgrwt>
</event>
<event>
 5    1  0.3286491E-002  0.1249988E+03  0.7818608E-02  0.1235071E+00
         -4   -1    0    0    0  501 -0.00000000000E+00  0.00000000000E+00  0.26486850924E+03  0.26487155394E+03  0.12700000000E+01 0.  1.
          4   -1    0    0  501    0  0.00000000000E+00 -0.00000000000E+00 -0.14717134859E+02  0.14771829896E+02  0.12700000000E+01 0.  1.
         25    2    1    2    0    0  0.00000000000E+00  0.00000000000E+00  0.25015137438E+03  0.27964338383E+03  0.12499884807E+03 0.  0.
    9000005    1    3    3    0    0 -0.32487766273E+02 -0.33452848326E+02  0.21814374482E+03  0.22307451988E+03  0.10000000000E+01 0.  0.
    9000005    1    3    3    0    0  0.32487766273E+02  0.33452848326E+02  0.32007629561E+02  0.56568863950E+02  0.10000000000E+01 0.  0.
<mgrwt>
<rscale>  0 0.12499885E+03</rscale>
<asrwt>0</asrwt>
<pdfrwt beam="2">  1        4 0.22686162E-02 0.12499885E+03</pdfrwt>
<pdfrwt beam="1">  1       -4 0.40753442E-01 0.12499885E+03</pdfrwt>
<totfact> 0.78227416E+03</totfact>
</mgrwt>
</event>
<event>
 5    1  0.3286491E-002  0.1250004E+03  0.7818608E-02  0.1235069E+00
         -4   -1    0    0    0  501 -0.00000000000E+00  0.00000000000E+00  0.25669389891E+02  0.25700787485E+02  0.12700000000E+01 0. -1.
          4   -1    0    0  501    0  0.00000000000E+00 -0.00000000000E+00 -0.15204944277E+03  0.15205474654E+03  0.12700000000E+01 0. -1.
         25    2    1    2    0    0  0.00000000000E+00  0.00000000000E+00 -0.12638005288E+03  0.17775553403E+03  0.12500044845E+03 0.  0.
    9000005    1    3    3    0    0  0.49686010357E+02 -0.26229095493E+02 -0.24281908123E+02  0.61214999286E+02  0.10000000000E+01 0.  0.
    9000005    1    3    3    0    0 -0.49686010357E+02  0.26229095493E+02 -0.10209814475E+03  0.11654053474E+03  0.10000000000E+01 0.  0.
<mgrwt>
<rscale>  0 0.12500045E+03</rscale>
<asrwt>0</asrwt>
<pdfrwt beam="2">  1        4 0.23395044E-01 0.12500045E+03</pdfrwt>
<pdfrwt beam="1">  1       -4 0.39519602E-02 0.12500045E+03</pdfrwt>
<totfact> 0.94021636E+03</totfact>
</mgrwt>
</event>
<event>
 5    1  0.3286491E-002  0.1249975E+03  0.7818608E-02  0.1235073E+00
          4   -1    0    0  501    0  0.00000000000E+00  0.00000000000E+00  0.15344181221E+03  0.15344706786E+03  0.12700000000E+01 0.  1.
         -4   -1    0    0    0  501 -0.00000000000E+00 -0.00000000000E+00 -0.25434998963E+02  0.25466685537E+02  0.12700000000E+01 0.  1.
         25    2    1    2    0    0  0.00000000000E+00  0.00000000000E+00  0.12800681325E+03  0.17891375340E+03  0.12499754764E+03 0.  0.
    9000005    1    3    3    0    0 -0.16768526377E+02 -0.49785009670E+02  0.11244455051E+03  0.12411489678E+03  0.10000000000E+01 0.  0.
    9000005    1    3    3    0    0  0.16768526377E+02  0.49785009670E+02  0.15562262744E+02  0.54798856616E+02  0.10000000000E+01 0.  0.
<mgrwt>
<rscale>  0 0.12499755E+03</rscale>
<asrwt>0</asrwt>
<pdfrwt beam="1">  1        4 0.23609274E-01 0.12499755E+03</pdfrwt>
<pdfrwt beam="2">  1       -4 0.39159185E-02 0.12499755E+03</pdfrwt>
<totfact> 0.93818056E+03</totfact>
</mgrwt>
</event>
<event>
 5    1  0.3286491E-002  0.1249980E+03  0.7818608E-02  0.1235072E+00
          4   -1    0    0  501    0  0.00000000000E+00  0.00000000000E+00  0.21591285737E+02  0.21628604203E+02  0.12700000000E+01 0. -1.
         -4   -1    0    0    0  501 -0.00000000000E+00 -0.00000000000E+00 -0.18071633689E+03  0.18072079936E+03  0.12700000000E+01 0. -1.
         25    2    1    2    0    0  0.00000000000E+00  0.00000000000E+00 -0.15912505116E+03  0.20234940356E+03  0.12499799685E+03 0.  0.
    9000005    1    3    3    0    0  0.20209572795E+02  0.58607207041E+02 -0.92298158531E+02  0.11118984494E+03  0.10000000000E+01 0.  0.
    9000005    1    3    3    0    0 -0.20209572795E+02 -0.58607207041E+02 -0.66826892626E+02  0.91159558620E+02  0.10000000000E+01 0.  0.
<mgrwt>
<rscale>  0 0.12499800E+03</rscale>
<asrwt>0</asrwt>
<pdfrwt beam="1">  1        4 0.33249503E-02 0.12499800E+03</pdfrwt>
<pdfrwt beam="2">  1       -4 0.27805726E-01 0.12499800E+03</pdfrwt>
<totfact> 0.89744790E+03</totfact>
</mgrwt>
</event>
<event>
 5    1  0.3286491E-002  0.1250122E+03  0.7818608E-02  0.1235050E+00
          4   -1    0    0  501    0  0.00000000000E+00  0.00000000000E+00  0.10746040206E+02  0.10820826221E+02  0.12700000000E+01 0. -1.
         -4   -1    0    0    0  501 -0.00000000000E+00 -0.00000000000E+00 -0.36224035057E+03  0.36224257685E+03  0.12700000000E+01 0. -1.
         25    2    1    2    0    0  0.00000000000E+00  0.00000000000E+00 -0.35149431037E+03  0.37306340307E+03  0.12501220937E+03 0.  0.
    9000005    1    3    3    0    0  0.51756896164E+01  0.48415101225E+02 -0.58820596158E+02  0.76365386937E+02  0.10000000000E+01 0.  0.
    9000005    1    3    3    0    0 -0.51756896164E+01 -0.48415101225E+02 -0.29267371421E+03  0.29669801613E+03  0.10000000000E+01 0.  0.
<mgrwt>
<rscale>  0 0.12501221E+03</rscale>
<asrwt>0</asrwt>
<pdfrwt beam="1">  1        4 0.16591613E-02 0.12501221E+03</pdfrwt>
<pdfrwt beam="2">  1       -4 0.55735199E-01 0.12501221E+03</pdfrwt>
<totfact> 0.67241516E+03</totfact>
</mgrwt>
</event>
<event>
 4    1  0.3286491E-002  0.1260057E+03  0.7818608E-02  0.1233506E+00
          4   -1    0    0  501    0  0.00000000000E+00  0.00000000000E+00  0.10377498472E+02  0.10454921068E+02  0.12700000000E+01 0.  1.
         -4   -1    0    0    0  501 -0.00000000000E+00 -0.00000000000E+00 -0.38099682731E+03  0.38099894399E+03  0.12700000000E+01 0.  1.
    9000005    1    1    2    0    0  0.18502564195E+02 -0.23091856382E+02 -0.35807832085E+03  0.35930024015E+03  0.10000000000E+01 0.  0.
    9000005    1    1    2    0    0 -0.18502564195E+02  0.23091856382E+02 -0.12541007990E+02  0.32153624902E+02  0.10000000000E+01 0.  0.
<mgrwt>
<rscale>  0 0.12600572E+03</rscale>
<asrwt>0</asrwt>
<pdfrwt beam="1">  1        4 0.16026569E-02 0.12600572E+03</pdfrwt>
<pdfrwt beam="2">  1       -4 0.58621004E-01 0.12600572E+03</pdfrwt>
<totfact> 0.63961121E+03</totfact>
</mgrwt>
</event>
<event>
 4    1  0.3286491E-002  0.1251436E+03  0.7818608E-02  0.1234845E+00
          4   -1    0    0  501    0  0.00000000000E+00  0.00000000000E+00  0.87818049117E+02  0.87827231829E+02  0.12700000000E+01 0. -1.
         -4   -1    0    0    0  501 -0.00000000000E+00 -0.00000000000E+00 -0.44562902591E+02  0.44580995809E+02  0.12700000000E+01 0. -1.
    9000005    1    1    2    0    0 -0.26504351503E+02  0.35986281553E+02  0.67949620739E+02  0.81336609636E+02  0.10000000000E+01 0.  0.
    9000005    1    1    2    0    0  0.26504351503E+02 -0.35986281553E+02 -0.24694474213E+02  0.51071618001E+02  0.10000000000E+01 0.  0.
<mgrwt>
<rscale>  0 0.12514364E+03</rscale>
<asrwt>0</asrwt>
<pdfrwt beam="1">  1        4 0.13512567E-01 0.12514364E+03</pdfrwt>
<pdfrwt beam="2">  1       -4 0.68579293E-02 0.12514364E+03</pdfrwt>
<totfact> 0.10259711E+04</totfact>
</mgrwt>
</event>
<event>
 5    1  0.3286491E-002  0.1250004E+03  0.7818608E-02  0.1235069E+00
          4   -1    0    0  501    0  0.00000000000E+00  0.00000000000E+00  0.30745310806E+03  0.30745573105E+03  0.12700000000E+01 0. -1.
         -4   -1    0    0    0  501 -0.00000000000E+00 -0.00000000000E+00 -0.12670840514E+02  0.12734327596E+02  0.12700000000E+01 0. -1.
         25    2    1    2    0    0  0.00000000000E+00  0.00000000000E+00  0.29478226755E+03  0.32019005865E+03  0.12500035359E+03 0.  0.
    9000005    1    3    3    0    0  0.27301585599E+02 -0.25260998858E+02  0.27602341790E+03  0.27852005650E+03  0.10000000000E+01 0.  0.
    9000005    1    3    3    0    0 -0.27301585599E+02  0.25260998858E+02  0.18758849647E+02  0.41670002155E+02  0.10000000000E+01 0.  0.
<mgrwt>
<rscale>  0 0.12500035E+03</rscale>
<asrwt>0</asrwt>
<pdfrwt beam="1">  1        4 0.47305565E-01 0.12500035E+03</pdfrwt>
<pdfrwt beam="2">  1       -4 0.19544454E-02 0.12500035E+03</pdfrwt>
<totfact> 0.73132950E+03</totfact>
</mgrwt>
</event>
<event>
 5    1  0.3286491E-002  0.1249999E+03  0.7818608E-02  0.1235069E+00
         -4   -1    0    0    0  501 -0.00000000000E+00  0.00000000000E+00  0.19613659397E+02  0.19654733143E+02  0.12700000000E+01 0.  1.
          4   -1    0    0  501    0  0.00000000000E+00 -0.00000000000E+00 -0.19890802993E+03  0.19891208427E+03  0.12700000000E+01 0.  1.
         25    2    1    2    0    0  0.00000000000E+00  0.00000000000E+00 -0.17929437053E+03  0.21856681741E+03  0.12499992948E+03 0.  0.
    9000005    1    3    3    0    0 -0.45523698946E+02 -0.40501148186E+02 -0.65387527836E+02  0.89382766609E+02  0.10000000000E+01 0.  0.
    9000005    1    3    3    0    0  0.45523698946E+02  0.40501148186E+02 -0.11390684269E+03  0.12918405081E+03  0.10000000000E+01 0.  0.
<mgrwt>
<rscale>  0 0.12499993E+03</rscale>
<asrwt>0</asrwt>
<pdfrwt beam="2">  1        4 0.30604705E-01 0.12499993E+03</pdfrwt>
<pdfrwt beam="1">  1       -4 0.30209576E-02 0.12499993E+03</pdfrwt>
<totfact> 0.87095779E+03</totfact>
</mgrwt>
</event>
<event>
 5    1  0.3286491E-002  0.1249998E+03  0.7818608E-02  0.1235070E+00
          4   -1    0    0  501    0  0.00000000000E+00  0.00000000000E+00  0.35014613573E+02  0.35037637815E+02  0.12700000000E+01 0.  1.
         -4   -1    0    0    0  501 -0.00000000000E+00 -0.00000000000E+00 -0.11149681605E+03  0.11150404876E+03  0.12700000000E+01 0.  1.
         25    2    1    2    0    0  0.00000000000E+00  0.00000000000E+00 -0.76482202476E+02  0.14654168657E+03  0.12499975443E+03 0.  0.
    9000005    1    3    3    0    0  0.49628863882E+02 -0.36259446987E+02 -0.51476716607E+02  0.80178700280E+02  0.10000000000E+01 0.  0.
    9000005    1    3    3    0    0 -0.49628863882E+02  0.36259446987E+02 -0.25005485869E+02  0.66362986292E+02  0.10000000000E+01 0.  0.
<mgrwt>
<rscale>  0 0.12499975E+03</rscale>
<asrwt>0</asrwt>
<pdfrwt beam="1">  1        4 0.53891911E-02 0.12499975E+03</pdfrwt>
<pdfrwt beam="2">  1       -4 0.17155684E-01 0.12499975E+03</pdfrwt>
<totfact> 0.99998136E+03</totfact>
</mgrwt>
</event>
<event>
 5    1  0.3286491E-002  0.1250010E+03  0.7818608E-02  0.1235068E+00
         -4   -1    0    0    0  501 -0.00000000000E+00  0.00000000000E+00  0.38361472296E+03  0.38361682519E+03  0.12700000000E+01 0. -1.
          4   -1    0    0  501    0  0.00000000000E+00 -0.00000000000E+00 -0.10141169874E+02  0.10220382890E+02  0.12700000000E+01 0. -1.
         25    2    1    2    0    0  0.00000000000E+00  0.00000000000E+00  0.37347355308E+03  0.39383720808E+03  0.12500100646E+03 0.  0.
    9000005    1    3    3    0    0 -0.47692749397E+02  0.30531912388E+02  0.10346617758E+03  0.11795357528E+03  0.10000000000E+01 0.  0.
    9000005    1    3    3    0    0  0.47692749397E+02 -0.30531912388E+02  0.27000737551E+03  0.27588363280E+03  0.10000000000E+01 0.  0.
<mgrwt>
<rscale>  0 0.12500101E+03</rscale>
<asrwt>0</asrwt>
<pdfrwt beam="2">  1        4 0.15664351E-02 0.12500101E+03</pdfrwt>
<pdfrwt beam="1">  1       -4 0.59023900E-01 0.12500101E+03</pdfrwt>
<totfact> 0.65155174E+03</totfact>
</mgrwt>
</event>
<event>
 5    1  0.3286491E-002  0.1250013E+03  0.7818608E-02  0.1235067E+00
         -4   -1    0    0    0  501 -0.00000000000E+00  0.00000000000E+00  0.64864911546E+02  0.64877343116E+02  0.12700000000E+01 0.  1.
          4   -1    0    0  501    0  0.00000000000E+00 -0.00000000000E+00 -0.60197667065E+02  0.60211062273E+02  0.12700000000E+01 0.  1.
         25    2    1    2    0    0  0.00000000000E+00  0.00000000000E+00  0.46672444805E+01  0.12508840539E+03  0.12500130396E+03 0.  0.
    9000005    1    3    3    0    0  0.12328580660E+02 -0.41574492445E+01 -0.58832231155E+02  0.60262008828E+02  0.10000000000E+01 0.  0.
    9000005    1    3    3    0    0 -0.12328580660E+02  0.41574492445E+01  0.63499475635E+02  0.64826396562E+02  0.10000000000E+01 0.  0.
<mgrwt>
<rscale>  0 0.12500130E+03</rscale>
<asrwt>0</asrwt>
<pdfrwt beam="2">  1        4 0.92631661E-02 0.12500130E+03</pdfrwt>
<pdfrwt beam="1">  1       -4 0.99812039E-02 0.12500130E+03</pdfrwt>
<totfact> 0.10450635E+04</totfact>
</mgrwt>
</event>
<event>
 5    1  0.3286491E-002  0.1249985E+03  0.7818608E-02  0.1235072E+00
         -4   -1    0    0    0  501 -0.00000000000E+00  0.00000000000E+00  0.76690247224E+03  0.76690352380E+03  0.12700000000E+01 0. -1.
          4   -1    0    0  501    0  0.00000000000E+00 -0.00000000000E+00 -0.50131784675E+01  0.51715431302E+01  0.12700000000E+01 0. -1.
         25    2    1    2    0    0  0.00000000000E+00  0.00000000000E+00  0.76188929377E+03  0.77207506693E+03  0.12499845207E+03 0.  0.
    9000005    1    3    3    0    0 -0.35554031680E+02  0.51117714468E+02  0.34823545071E+03  0.35375986069E+03  0.10000000000E+01 0.  0.
    9000005    1    3    3    0    0  0.35554031680E+02 -0.51117714468E+02  0.41365384306E+03  0.41831520624E+03  0.10000000000E+01 0.  0.
<mgrwt>
<rscale>  0 0.12499845E+03</rscale>
<asrwt>0</asrwt>
<pdfrwt beam="2">  1        4 0.78352141E-03 0.12499845E+03</pdfrwt>
<pdfrwt beam="1">  1       -4 0.11799720E+00 0.12499845E+03</pdfrwt>
<totfact> 0.39541222E+03</totfact>
</mgrwt>
</event>
<event>
 5    1  0.3286491E-002  0.1250007E+03  0.7818608E-02  0.1235068E+00
         -4   -1    0    0    0  501 -0.00000000000E+00  0.00000000000E+00  0.62828014286E+03  0.62828142645E+03  0.12700000000E+01 0. -1.
          4   -1    0    0  501    0  0.00000000000E+00 -0.00000000000E+00 -0.61512774140E+01  0.62810121656E+01  0.12700000000E+01 0. -1.
         25    2    1    2    0    0  0.00000000000E+00  0.00000000000E+00  0.62212886545E+03  0.63456243861E+03  0.12500065308E+03 0.  0.
    9000005    1    3    3    0    0 -0.14166739833E+02 -0.22129127831E+00  0.20850251402E+01  0.14355933169E+02  0.10000000000E+01 0.  0.
    9000005    1    3    3    0    0  0.14166739833E+02  0.22129127831E+00  0.62004384031E+03  0.62020650544E+03  0.10000000000E+01 0.  0.
<mgrwt>
<rscale>  0 0.12500065E+03</rscale>
<asrwt>0</asrwt>
<pdfrwt beam="2">  1        4 0.95642886E-03 0.12500065E+03</pdfrwt>
<pdfrwt beam="1">  1       -4 0.96668546E-01 0.12500065E+03</pdfrwt>
<totfact> 0.46755502E+03</totfact>
</mgrwt>
</event>
<event>
 5    1  0.3286491E-002  0.1250031E+03  0.7818608E-02  0.1235064E+00
         -4   -1    0    0    0  501 -0.00000000000E+00  0.00000000000E+00  0.17590207814E+03  0.17590666273E+03  0.12700000000E+01 0. -1.
          4   -1    0    0  501    0  0.00000000000E+00 -0.00000000000E+00 -0.22185035848E+02  0.22221357195E+02  0.12700000000E+01 0. -1.
         25    2    1    2    0    0  0.00000000000E+00  0.00000000000E+00  0.15371704229E+03  0.19812801992E+03  0.12500313272E+03 0.  0.
    9000005    1    3    3    0    0 -0.48878974559E+02  0.38700675745E+02  0.70032160393E+02  0.93767798025E+02  0.10000000000E+01 0.  0.
    9000005    1    3    3    0    0  0.48878974559E+02 -0.38700675745E+02  0.83684881894E+02  0.10436022190E+03  0.10000000000E+01 0.  0.
<mgrwt>
<rscale>  0 0.12500313E+03</rscale>
<asrwt>0</asrwt>
<pdfrwt beam="2">  1        4 0.34162290E-02 0.12500313E+03</pdfrwt>
<pdfrwt beam="1">  1       -4 0.27065005E-01 0.12500313E+03</pdfrwt>
<totfact> 0.90445640E+03</totfact>
</mgrwt>
</event>
<event>
 5    1  0.3286491E-002  0.1249966E+03  0.7818608E-02  0.1235075E+00
          4   -1    0    0  501    0  0.00000000000E+00  0.00000000000E+00  0.17503922547E+03  0.17504383266E+03  0.12700000000E+01 0.  1.
         -4   -1    0    0    0  501 -0.00000000000E+00 -0.00000000000E+00 -0.22292229877E+02  0.22328376853E+02  0.12700000000E+01 0.  1.
         25    2    1    2    0    0  0.00000000000E+00  0.00000000000E+00  0.15274699559E+03  0.19737220951E+03  0.12499657766E+03 0.  0.
    9000005    1    3    3    0    0  0.45275536838E+02 -0.43022295992E+02  0.73120592812E+02  0.96168670998E+02  0.10000000000E+01 0.  0.
    9000005    1    3    3    0    0 -0.45275536838E+02  0.43022295992E+02  0.79626402779E+02  0.10120353852E+03  0.10000000000E+01 0.  0.
<mgrwt>
<rscale>  0 0.12499658E+03</rscale>
<asrwt>0</asrwt>
<pdfrwt beam="1">  1        4 0.26932247E-01 0.12499658E+03</pdfrwt>
<pdfrwt beam="2">  1       -4 0.34327087E-02 0.12499658E+03</pdfrwt>
<totfact> 0.90587100E+03</totfact>
</mgrwt>
</event>
<event>
 5    1  0.3286491E-002  0.1249989E+03  0.7818608E-02  0.1235071E+00
         -4   -1    0    0    0  501 -0.00000000000E+00  0.00000000000E+00  0.36642396780E+03  0.36642616866E+03  0.12700000000E+01 0. -1.
          4   -1    0    0  501    0  0.00000000000E+00 -0.00000000000E+00 -0.10620217783E+02  0.10695883589E+02  0.12700000000E+01 0. -1.
         25    2    1    2    0    0  0.00000000000E+00  0.00000000000E+00  0.35580375001E+03  0.37712205224E+03  0.12499893506E+03 0.  0.
    9000005    1    3    3    0    0 -0.37373512741E+02 -0.49214441066E+02  0.20593610438E+03  0.21501051080E+03  0.10000000000E+01 0.  0.
    9000005    1    3    3    0    0  0.37373512741E+02  0.49214441066E+02  0.14986764563E+03  0.16211154145E+03  0.10000000000E+01 0.  0.
<mgrwt>
<rscale>  0 0.12499894E+03</rscale>
<asrwt>0</asrwt>
<pdfrwt beam="2">  1        4 0.16398693E-02 0.12499894E+03</pdfrwt>
<pdfrwt beam="1">  1       -4 0.56378910E-01 0.12499894E+03</pdfrwt>
<totfact> 0.66841931E+03</totfact>
</mgrwt>
</event>
<event>
 5    1  0.3286491E-002  0.1249954E+03  0.7818608E-02  0.1235077E+00
          4   -1    0    0  501    0  0.00000000000E+00  0.00000000000E+00  0.73523893518E+01  0.74612686040E+01  0.12700000000E+01 0. -1.
         -4   -1    0    0    0  501 -0.00000000000E+00 -0.00000000000E+00 -0.52723612381E+03  0.52723765339E+03  0.12700000000E+01 0. -1.
         25    2    1    2    0    0  0.00000000000E+00  0.00000000000E+00 -0.51988373446E+03  0.53469892199E+03  0.12499535921E+03 0.  0.
    9000005    1    3    3    0    0 -0.42530000248E+02  0.25540515888E+02 -0.97396304956E+02  0.10930763510E+03  0.10000000000E+01 0.  0.
    9000005    1    3    3    0    0  0.42530000248E+02 -0.25540515888E+02 -0.42248742950E+03  0.42539128689E+03  0.10000000000E+01 0.  0.
<mgrwt>
<rscale>  0 0.12499536E+03</rscale>
<asrwt>0</asrwt>
<pdfrwt beam="1">  1        4 0.11396302E-02 0.12499536E+03</pdfrwt>
<pdfrwt beam="2">  1       -4 0.81121714E-01 0.12499536E+03</pdfrwt>
<totfact> 0.53274646E+03</totfact>
</mgrwt>
</event>
<event>
 5    1  0.3286491E-002  0.1249947E+03  0.7818608E-02  0.1235078E+00
          4   -1    0    0  501    0  0.00000000000E+00  0.00000000000E+00  0.24741522061E+02  0.24774095622E+02  0.12700000000E+01 0. -1.
         -4   -1    0    0    0  501 -0.00000000000E+00 -0.00000000000E+00 -0.15773001016E+03  0.15773512293E+03  0.12700000000E+01 0. -1.
         25    2    1    2    0    0  0.00000000000E+00  0.00000000000E+00 -0.13298848810E+03  0.18250921855E+03  0.12499470745E+03 0.  0.
    9000005    1    3    3    0    0  0.14186744211E+02 -0.59448631081E+02 -0.47483538328E+02  0.77402130854E+02  0.10000000000E+01 0.  0.
    9000005    1    3    3    0    0 -0.14186744211E+02  0.59448631081E+02 -0.85504949775E+02  0.10510708770E+03  0.10000000000E+01 0.  0.
<mgrwt>
<rscale>  0 0.12499471E+03</rscale>
<asrwt>0</asrwt>
<pdfrwt beam="1">  1        4 0.38092871E-02 0.12499471E+03</pdfrwt>
<pdfrwt beam="2">  1       -4 0.24269054E-01 0.12499471E+03</pdfrwt>
<totfact> 0.93178330E+03</totfact>
</mgrwt>
</event>
<event>
 5    1  0.3286491E-002  0.1250080E+03  0.7818608E-02  0.1235057E+00
          4   -1    0    0  501    0  0.00000000000E+00  0.00000000000E+00  0.47640274824E+03  0.47640444103E+03  0.12700000000E+01 0. -1.
         -4   -1    0    0    0  501 -0.00000000000E+00 -0.00000000000E+00 -0.81496272783E+01  0.82479891352E+01  0.12700000000E+01 0. -1.
         25    2    1    2    0    0  0.00000000000E+00  0.00000000000E+00  0.46825312096E+03  0.48465243016E+03  0.12500797083E+03 0.  0.
    9000005    1    3    3    0    0 -0.30282761113E+02  0.49704301546E+02  0.32238070294E+03  0.32759407937E+03  0.10000000000E+01 0.  0.
    9000005    1    3    3    0    0  0.30282761113E+02 -0.49704301546E+02  0.14587241802E+03  0.15705835079E+03  0.10000000000E+01 0.  0.
<mgrwt>
<rscale>  0 0.12500797E+03</rscale>
<asrwt>0</asrwt>
<pdfrwt beam="1">  1        4 0.73300433E-01 0.12500797E+03</pdfrwt>
<pdfrwt beam="2">  1       -4 0.12614852E-02 0.12500797E+03</pdfrwt>
<totfact> 0.57065114E+03</totfact>
</mgrwt>
</event>
<event>
 5    1  0.3286491E-002  0.1249955E+03  0.7818608E-02  0.1235076E+00
         -4   -1    0    0    0  501 -0.00000000000E+00  0.00000000000E+00  0.37421408277E+02  0.37442952573E+02  0.12700000000E+01 0. -1.
          4   -1    0    0  501    0  0.00000000000E+00 -0.00000000000E+00 -0.10432240850E+03  0.10433013857E+03  0.12700000000E+01 0. -1.
         25    2    1    2    0    0  0.00000000000E+00  0.00000000000E+00 -0.66901000222E+02  0.14177309115E+03  0.12499546209E+03 0.  0.
    9000005    1    3    3    0    0 -0.32959528296E+02 -0.43827837312E+01  0.26560952941E+02  0.42567869572E+02  0.10000000000E+01 0.  0.
    9000005    1    3    3    0    0  0.32959528296E+02  0.43827837312E+01 -0.93461953163E+02  0.99205221575E+02  0.10000000000E+01 0.  0.
<mgrwt>
<rscale>  0 0.12499546E+03</rscale>
<asrwt>0</asrwt>
<pdfrwt beam="2">  1        4 0.16051853E-01 0.12499546E+03</pdfrwt>
<pdfrwt beam="1">  1       -4 0.57593916E-02 0.12499546E+03</pdfrwt>
<totfact> 0.10098001E+04</totfact>
</mgrwt>
</event>
<event>
 5    1  0.3286491E-002  0.1250002E+03  0.7818608E-02  0.1235069E+00
          4   -1    0    0  501    0  0.00000000000E+00  0.00000000000E+00  0.40738312474E+01  0.42672006084E+01  0.12700000000E+01 0. -1.
         -4   -1    0    0    0  501 -0.00000000000E+00 -0.00000000000E+00 -0.93644359030E+03  0.93644445149E+03  0.12700000000E+01 0. -1.
         25    2    1    2    0    0  0.00000000000E+00  0.00000000000E+00 -0.93236975905E+03  0.94071165209E+03  0.12500017914E+03 0.  0.
    9000005    1    3    3    0    0 -0.61410800303E+02 -0.67869205039E+01 -0.39562282229E+03  0.40041948778E+03  0.10000000000E+01 0.  0.
    9000005    1    3    3    0    0  0.61410800303E+02  0.67869205039E+01 -0.53674693677E+03  0.54029216431E+03  0.10000000000E+01 0.  0.
<mgrwt>
<rscale>  0 0.12500018E+03</rscale>
<asrwt>0</asrwt>
<pdfrwt beam="1">  1        4 0.64168483E-03 0.12500018E+03</pdfrwt>
<pdfrwt beam="2">  1       -4 0.14408302E+00 0.12500018E+03</pdfrwt>
<totfact> 0.32647969E+03</totfact>
</mgrwt>
</event>
<event>
 5    1  0.3286491E-002  0.1250049E+03  0.7818608E-02  0.1235062E+00
          4   -1    0    0  501    0  0.00000000000E+00  0.00000000000E+00  0.56448110651E+03  0.56448253516E+03  0.12700000000E+01 0.  1.
         -4   -1    0    0    0  501 -0.00000000000E+00 -0.00000000000E+00 -0.68608984744E+01  0.69774513883E+01  0.12700000000E+01 0.  1.
         25    2    1    2    0    0  0.00000000000E+00  0.00000000000E+00  0.55762020804E+03  0.57145998655E+03  0.12500487919E+03 0.  0.
    9000005    1    3    3    0    0  0.45580909520E+02  0.41967267923E+02  0.24147908042E+03  0.24930306290E+03  0.10000000000E+01 0.  0.
    9000005    1    3    3    0    0 -0.45580909520E+02 -0.41967267923E+02  0.31614112762E+03  0.32215692366E+03  0.10000000000E+01 0.  0.
<mgrwt>
<rscale>  0 0.12500488E+03</rscale>
<asrwt>0</asrwt>
<pdfrwt beam="1">  1        4 0.86852384E-01 0.12500488E+03</pdfrwt>
<pdfrwt beam="2">  1       -4 0.10645976E-02 0.12500488E+03</pdfrwt>
<totfact> 0.50714704E+03</totfact>
</mgrwt>
</event>
<event>
 5    1  0.3286491E-002  0.1249950E+03  0.7818608E-02  0.1235077E+00
          4   -1    0    0  501    0  0.00000000000E+00  0.00000000000E+00  0.11736556963E+03  0.11737244069E+03  0.12700000000E+01 0.  1.
         -4   -1    0    0    0  501 -0.00000000000E+00 -0.00000000000E+00 -0.33260110212E+02  0.33284348143E+02  0.12700000000E+01 0.  1.
         25    2    1    2    0    0  0.00000000000E+00  0.00000000000E+00  0.84105459418E+02  0.15065678884E+03  0.12499495877E+03 0.  0.
    9000005    1    3    3    0    0  0.11738174985E+02  0.30658685706E+02  0.10614034383E+03  0.11110586101E+03  0.10000000000E+01 0.  0.
    9000005    1    3    3    0    0 -0.11738174985E+02 -0.30658685706E+02 -0.22034884414E+02  0.39550927831E+02  0.10000000000E+01 0.  0.
<mgrwt>
<rscale>  0 0.12499496E+03</rscale>
<asrwt>0</asrwt>
<pdfrwt beam="1">  1        4 0.18058635E-01 0.12499496E+03</pdfrwt>
<pdfrwt beam="2">  1       -4 0.51193329E-02 0.12499496E+03</pdfrwt>
<totfact> 0.99184189E+03</totfact>
</mgrwt>
</event>
<event>
 4    1  0.3286491E-002  0.1247148E+03  0.7818608E-02  0.1235516E+00
          4   -1    0    0  501    0  0.00000000000E+00  0.00000000000E+00  0.76835288574E+02  0.76845783686E+02  0.12700000000E+01 0.  1.
         -4   -1    0    0    0  501 -0.00000000000E+00 -0.00000000000E+00 -0.50585645402E+02  0.50601585160E+02  0.12700000000E+01 0.  1.
    9000005    1    1    2    0    0 -0.57920105844E+01 -0.36924679113E+02 -0.37873189884E+02  0.53219900659E+02  0.10000000000E+01 0.  0.
    9000005    1    1    2    0    0  0.57920105844E+01  0.36924679113E+02  0.64122833057E+02  0.74227468187E+02  0.10000000000E+01 0.  0.
<mgrwt>
<rscale>  0 0.12471483E+03</rscale>
<asrwt>0</asrwt>
<pdfrwt beam="1">  1        4 0.11822847E-01 0.12471483E+03</pdfrwt>
<pdfrwt beam="2">  1       -4 0.77844404E-02 0.12471483E+03</pdfrwt>
<totfact> 0.10466673E+04</totfact>
</mgrwt>
</event>
<event>
 5    1  0.3286491E-002  0.1249986E+03  0.7818608E-02  0.1235071E+00
         -4   -1    0    0    0  501 -0.00000000000E+00  0.00000000000E+00  0.28941257665E+02  0.28969109328E+02  0.12700000000E+01 0.  1.
          4   -1    0    0  501    0  0.00000000000E+00 -0.00000000000E+00 -0.13487298030E+03  0.13487895949E+03  0.12700000000E+01 0.  1.
         25    2    1    2    0    0  0.00000000000E+00  0.00000000000E+00 -0.10593172263E+03  0.16384806882E+03  0.12499863918E+03 0.  0.
    9000005    1    3    3    0    0  0.25952127160E+02 -0.28963998450E+02  0.11152688540E+02  0.40469847689E+02  0.10000000000E+01 0.  0.
    9000005    1    3    3    0    0 -0.25952127160E+02  0.28963998450E+02 -0.11708441117E+03  0.12337822113E+03  0.10000000000E+01 0.  0.
<mgrwt>
<rscale>  0 0.12499864E+03</rscale>
<asrwt>0</asrwt>
<pdfrwt beam="2">  1        4 0.20752291E-01 0.12499864E+03</pdfrwt>
<pdfrwt beam="1">  1       -4 0.44551036E-02 0.12499864E+03</pdfrwt>
<totfact> 0.96608949E+03</totfact>
</mgrwt>
</event>
<event>
 5    1  0.3286491E-002  0.1249996E+03  0.7818608E-02  0.1235070E+00
          4   -1    0    0  501    0  0.00000000000E+00  0.00000000000E+00  0.56387456952E+02  0.56401757078E+02  0.12700000000E+01 0. -1.
         -4   -1    0    0    0  501 -0.00000000000E+00 -0.00000000000E+00 -0.69245807383E+02  0.69257452596E+02  0.12700000000E+01 0. -1.
         25    2    1    2    0    0  0.00000000000E+00  0.00000000000E+00 -0.12858350431E+02  0.12565920967E+03  0.12499959920E+03 0.  0.
    9000005    1    3    3    0    0  0.42169568988E+02 -0.35139606460E+02  0.23597496036E+02  0.59757060754E+02  0.10000000000E+01 0.  0.
    9000005    1    3    3    0    0 -0.42169568988E+02  0.35139606460E+02 -0.36455846466E+02  0.65902148921E+02  0.10000000000E+01 0.  0.
<mgrwt>
<rscale>  0 0.12499960E+03</rscale>
<asrwt>0</asrwt>
<pdfrwt beam="1">  1        4 0.86769892E-02 0.12499960E+03</pdfrwt>
<pdfrwt beam="2">  1       -4 0.10655197E-01 0.12499960E+03</pdfrwt>
<totfact> 0.10438537E+04</totfact>
</mgrwt>
</event>
<event>
 5    1  0.3286491E-002  0.1250024E+03  0.7818608E-02  0.1235066E+00
          4   -1    0    0  501    0  0.00000000000E+00  0.00000000000E+00  0.34215824353E+02  0.34239385744E+02  0.12700000000E+01 0.  1.
         -4   -1    0    0    0  501 -0.00000000000E+00 -0.00000000000E+00 -0.11410298809E+03  0.11411005561E+03  0.12700000000E+01 0.  1.
         25    2    1    2    0    0  0.00000000000E+00  0.00000000000E+00 -0.79887163741E+02  0.14834944136E+03  0.12500239126E+03 0.  0.
    9000005    1    3    3    0    0 -0.45415597012E+02 -0.29845093975E+02 -0.76562656413E+02  0.93894336588E+02  0.10000000000E+01 0.  0.
    9000005    1    3    3    0    0  0.45415597012E+02  0.29845093975E+02 -0.33245073280E+01  0.54455104768E+02  0.10000000000E+01 0.  0.
<mgrwt>
<rscale>  0 0.12500239E+03</rscale>
<asrwt>0</asrwt>
<pdfrwt beam="1">  1        4 0.52663291E-02 0.12500239E+03</pdfrwt>
<pdfrwt beam="2">  1       -4 0.17556662E-01 0.12500239E+03</pdfrwt>
<totfact> 0.99628372E+03</totfact>
</mgrwt>
</event>
<event>
 5    1  0.3286491E-002  0.1249996E+03  0.7818608E-02  0.1235070E+00
         -4   -1    0    0    0  501 -0.00000000000E+00  0.00000000000E+00  0.28020198657E+02  0.28048964915E+02  0.12700000000E+01 0.  1.
          4   -1    0    0  501    0  0.00000000000E+00 -0.00000000000E+00 -0.13930437422E+03  0.13931016322E+03  0.12700000000E+01 0.  1.
         25    2    1    2    0    0  0.00000000000E+00  0.00000000000E+00 -0.11128417556E+03  0.16735912813E+03  0.12499964016E+03 0.  0.
    9000005    1    3    3    0    0 -0.43814157898E+02 -0.42887882993E+02 -0.39454597329E+02  0.72915815777E+02  0.10000000000E+01 0.  0.
    9000005    1    3    3    0    0  0.43814157898E+02  0.42887882993E+02 -0.71829578231E+02  0.94443312356E+02  0.10000000000E+01 0.  0.
<mgrwt>
<rscale>  0 0.12499964E+03</rscale>
<asrwt>0</asrwt>
<pdfrwt beam="2">  1        4 0.21434100E-01 0.12499964E+03</pdfrwt>
<pdfrwt beam="1">  1       -4 0.43134580E-02 0.12499964E+03</pdfrwt>
<totfact> 0.95943243E+03</totfact>
</mgrwt>
</event>
<event>
 5    1  0.3286491E-002  0.1250010E+03  0.7818608E-02  0.1235068E+00
          4   -1    0    0  501    0  0.00000000000E+00  0.00000000000E+00  0.47330583014E+01  0.49004837398E+01  0.12700000000E+01 0.  1.
         -4   -1    0    0    0  501 -0.00000000000E+00 -0.00000000000E+00 -0.81081354494E+03  0.81081453956E+03  0.12700000000E+01 0.  1.
         25    2    1    2    0    0  0.00000000000E+00  0.00000000000E+00 -0.80608048664E+03  0.81571502330E+03  0.12500099317E+03 0.  0.
    9000005    1    3    3    0    0  0.46728192873E+02  0.23324950513E+02 -0.62698904433E+03  0.62916121864E+03  0.10000000000E+01 0.  0.
    9000005    1    3    3    0    0 -0.46728192873E+02 -0.23324950513E+02 -0.17909144231E+03  0.18655380466E+03  0.10000000000E+01 0.  0.
<mgrwt>
<rscale>  0 0.12500099E+03</rscale>
<asrwt>0</asrwt>
<pdfrwt beam="1">  1        4 0.74111885E-03 0.12500099E+03</pdfrwt>
<pdfrwt beam="2">  1       -4 0.12475339E+00 0.12500099E+03</pdfrwt>
<totfact> 0.37571939E+03</totfact>
</mgrwt>
</event>
<event>
 5    1  0.3286491E-002  0.1249990E+03  0.7818608E-02  0.1235071E+00
          4   -1    0    0  501    0  0.00000000000E+00  0.00000000000E+00  0.19664455675E+03  0.19664865776E+03  0.12700000000E+01 0.  1.
         -4   -1    0    0    0  501 -0.00000000000E+00 -0.00000000000E+00 -0.19839605481E+02  0.19880212415E+02  0.12700000000E+01 0.  1.
         25    2    1    2    0    0  0.00000000000E+00  0.00000000000E+00  0.17680495127E+03  0.21652887018E+03  0.12499904330E+03 0.  0.
    9000005    1    3    3    0    0 -0.56451094072E+01 -0.20259326578E+02 -0.13533622743E+02  0.25029313178E+02  0.10000000000E+01 0.  0.
    9000005    1    3    3    0    0  0.56451094072E+01  0.20259326578E+02  0.19033857401E+03  0.19149955700E+03  0.10000000000E+01 0.  0.
<mgrwt>
<rscale>  0 0.12499904E+03</rscale>
<asrwt>0</asrwt>
<pdfrwt beam="1">  1        4 0.30256449E-01 0.12499904E+03</pdfrwt>
<pdfrwt beam="2">  1       -4 0.30556860E-02 0.12499904E+03</pdfrwt>
<totfact> 0.87422475E+03</totfact>
</mgrwt>
</event>
<event>
 5    1  0.3286491E-002  0.1250024E+03  0.7818608E-02  0.1235066E+00
          4   -1    0    0  501    0  0.00000000000E+00  0.00000000000E+00  0.16509724208E+02  0.16558499129E+02  0.12700000000E+01 0. -1.
         -4   -1    0    0    0  501 -0.00000000000E+00 -0.00000000000E+00 -0.23621257281E+03  0.23621598687E+03  0.12700000000E+01 0. -1.
         25    2    1    2    0    0  0.00000000000E+00  0.00000000000E+00 -0.21970284860E+03  0.25277448600E+03  0.12500239633E+03 0.  0.
    9000005    1    3    3    0    0 -0.23011855682E+02  0.27667756165E+02 -0.21316662651E+03  0.21618524670E+03  0.10000000000E+01 0.  0.
    9000005    1    3    3    0    0  0.23011855682E+02 -0.27667756165E+02 -0.65362220890E+01  0.36589239297E+02  0.10000000000E+01 0.  0.
<mgrwt>
<rscale>  0 0.12500240E+03</rscale>
<asrwt>0</asrwt>
<pdfrwt beam="1">  1        4 0.25439723E-02 0.12500240E+03</pdfrwt>
<pdfrwt beam="2">  1       -4 0.36344408E-01 0.12500240E+03</pdfrwt>
<totfact> 0.81926503E+03</totfact>
</mgrwt>
</event>
<event>
 5    1  0.3286491E-002  0.1250015E+03  0.7818608E-02  0.1235067E+00
          4   -1    0    0  501    0  0.00000000000E+00  0.00000000000E+00  0.32978463063E+03  0.32978707600E+03  0.12700000000E+01 0.  1.
         -4   -1    0    0    0  501 -0.00000000000E+00 -0.00000000000E+00 -0.11808605402E+02  0.11876702469E+02  0.12700000000E+01 0.  1.
         25    2    1    2    0    0  0.00000000000E+00  0.00000000000E+00  0.31797602523E+03  0.34166377847E+03  0.12500153960E+03 0.  0.
    9000005    1    3    3    0    0  0.49779233911E+02  0.26941535267E+02  0.86593439386E+02  0.10345647489E+03  0.10000000000E+01 0.  0.
    9000005    1    3    3    0    0 -0.49779233911E+02 -0.26941535267E+02  0.23138258584E+03  0.23820730358E+03  0.10000000000E+01 0.  0.
<mgrwt>
<rscale>  0 0.12500154E+03</rscale>
<asrwt>0</asrwt>
<pdfrwt beam="1">  1        4 0.50741513E-01 0.12500154E+03</pdfrwt>
<pdfrwt beam="2">  1       -4 0.18221352E-02 0.12500154E+03</pdfrwt>
<totfact> 0.70649081E+03</totfact>
</mgrwt>
</event>
<event>
 5    1  0.3286491E-002  0.1249771E+03  0.7818608E-02  0.1235105E+00
          4   -1    0    0  501    0  0.00000000000E+00  0.00000000000E+00  0.72467123487E+03  0.72467234772E+03  0.12700000000E+01 0. -1.
         -4   -1    0    0    0  501 -0.00000000000E+00 -0.00000000000E+00 -0.53124376783E+01  0.54621327415E+01  0.12700000000E+01 0. -1.
         25    2    1    2    0    0  0.00000000000E+00  0.00000000000E+00  0.71935879719E+03  0.73013448046E+03  0.12497711974E+03 0.  0.
    9000005    1    3    3    0    0 -0.24941320231E+02  0.56921663487E+02  0.39739400298E+03  0.40222523396E+03  0.10000000000E+01 0.  0.
    9000005    1    3    3    0    0  0.24941320231E+02 -0.56921663487E+02  0.32196479421E+03  0.32790924650E+03  0.10000000000E+01 0.  0.
<mgrwt>
<rscale>  0 0.12497712E+03</rscale>
<asrwt>0</asrwt>
<pdfrwt beam="1">  1        4 0.11149943E+00 0.12497712E+03</pdfrwt>
<pdfrwt beam="2">  1       -4 0.82889908E-03 0.12497712E+03</pdfrwt>
<totfact> 0.41563611E+03</totfact>
</mgrwt>
</event>
<event>
 5    1  0.3286491E-002  0.1250033E+03  0.7818608E-02  0.1235064E+00
          4   -1    0    0  501    0  0.00000000000E+00  0.00000000000E+00  0.12686266052E+03  0.12686901724E+03  0.12700000000E+01 0.  1.
         -4   -1    0    0    0  501 -0.00000000000E+00 -0.00000000000E+00 -0.30772568178E+02  0.30798763811E+02  0.12700000000E+01 0.  1.
         25    2    1    2    0    0  0.00000000000E+00  0.00000000000E+00  0.96090092344E+02  0.15766778105E+03  0.12500329329E+03 0.  0.
    9000005    1    3    3    0    0 -0.17332821840E+02 -0.20290953691E+02 -0.23230703002E+02  0.35395127865E+02  0.10000000000E+01 0.  0.
    9000005    1    3    3    0    0  0.17332821840E+02  0.20290953691E+02  0.11932079535E+03  0.12227265318E+03  0.10000000000E+01 0.  0.
<mgrwt>
<rscale>  0 0.12500329E+03</rscale>
<asrwt>0</asrwt>
<pdfrwt beam="1">  1        4 0.19519836E-01 0.12500329E+03</pdfrwt>
<pdfrwt beam="2">  1       -4 0.47367453E-02 0.12500329E+03</pdfrwt>
<totfact> 0.97787071E+03</totfact>
</mgrwt>
</event>
<event>
 5    1  0.3286491E-002  0.1249991E+03  0.7818608E-02  0.1235071E+00
          4   -1    0    0  501    0  0.00000000000E+00  0.00000000000E+00  0.60510048478E+02  0.60523374549E+02  0.12700000000E+01 0. -1.
         -4   -1    0    0    0  501 -0.00000000000E+00 -0.00000000000E+00 -0.64527813854E+02  0.64540310356E+02  0.12700000000E+01 0. -1.
         25    2    1    2    0    0  0.00000000000E+00  0.00000000000E+00 -0.40177653762E+01  0.12506368490E+03  0.12499913137E+03 0.  0.
    9000005    1    3    3    0    0 -0.29625924769E+02 -0.22643059365E+02  0.48164718571E+02  0.60919977601E+02  0.10000000000E+01 0.  0.
    9000005    1    3    3    0    0  0.29625924769E+02  0.22643059365E+02 -0.52182483947E+02  0.64143707304E+02  0.10000000000E+01 0.  0.
<mgrwt>
<rscale>  0 0.12499913E+03</rscale>
<asrwt>0</asrwt>
<pdfrwt beam="1">  1        4 0.93112246E-02 0.12499913E+03</pdfrwt>
<pdfrwt beam="2">  1       -4 0.99293424E-02 0.12499913E+03</pdfrwt>
<totfact> 0.10451685E+04</totfact>
</mgrwt>
</event>
<event>
 5    1  0.3286491E-002  0.1249976E+03  0.7818608E-02  0.1235073E+00
         -4   -1    0    0    0  501 -0.00000000000E+00  0.00000000000E+00  0.63852620483E+02  0.63865249100E+02  0.12700000000E+01 0. -1.
          4   -1    0    0  501    0  0.00000000000E+00 -0.00000000000E+00 -0.61148458844E+02  0.61161645817E+02  0.12700000000E+01 0. -1.
         25    2    1    2    0    0  0.00000000000E+00  0.00000000000E+00  0.27041616387E+01  0.12502689492E+03  0.12499764783E+03 0.  0.
    9000005    1    3    3    0    0 -0.95369709863E+01 -0.31670940263E+02 -0.51680139205E+02  0.61366432689E+02  0.10000000000E+01 0.  0.
    9000005    1    3    3    0    0  0.95369709863E+01  0.31670940263E+02  0.54384300844E+02  0.63660462227E+02  0.10000000000E+01 0.  0.
<mgrwt>
<rscale>  0 0.12499765E+03</rscale>
<asrwt>0</asrwt>
<pdfrwt beam="2">  1        4 0.94094411E-02 0.12499765E+03</pdfrwt>
<pdfrwt beam="1">  1       -4 0.98254658E-02 0.12499765E+03</pdfrwt>
<totfact> 0.10452834E+04</totfact>
</mgrwt>
</event>
<event>
 5    1  0.3286491E-002  0.1250016E+03  0.7818608E-02  0.1235067E+00
         -4   -1    0    0    0  501 -0.00000000000E+00  0.00000000000E+00  0.35565276283E+02  0.35587944266E+02  0.12700000000E+01 0.  1.
          4   -1    0    0  501    0  0.00000000000E+00 -0.00000000000E+00 -0.10977466199E+03  0.10978200816E+03  0.12700000000E+01 0.  1.
         25    2    1    2    0    0  0.00000000000E+00  0.00000000000E+00 -0.74209385706E+02  0.14536995242E+03  0.12500156055E+03 0.  0.
    9000005    1    3    3    0    0  0.11867904704E+02 -0.59882626360E+02 -0.52645200649E+02  0.80618194306E+02  0.10000000000E+01 0.  0.
    9000005    1    3    3    0    0 -0.11867904704E+02  0.59882626360E+02 -0.21564185057E+02  0.64751758115E+02  0.10000000000E+01 0.  0.
<mgrwt>
<rscale>  0 0.12500156E+03</rscale>
<asrwt>0</asrwt>
<pdfrwt beam="2">  1        4 0.16890718E-01 0.12500156E+03</pdfrwt>
<pdfrwt beam="1">  1       -4 0.54738898E-02 0.12500156E+03</pdfrwt>
<totfact> 0.10023125E+04</totfact>
</mgrwt>
</event>
<event>
 5    1  0.3286491E-002  0.1250016E+03  0.7818608E-02  0.1235067E+00
          4   -1    0    0  501    0  0.00000000000E+00  0.00000000000E+00  0.39308066411E+02  0.39328577205E+02  0.12700000000E+01 0. -1.
         -4   -1    0    0    0  501 -0.00000000000E+00 -0.00000000000E+00 -0.99327288547E+02  0.99335407333E+02  0.12700000000E+01 0. -1.
         25    2    1    2    0    0  0.00000000000E+00  0.00000000000E+00 -0.60019222136E+02  0.13866398454E+03  0.12500157432E+03 0.  0.
    9000005    1    3    3    0    0 -0.49972299303E+02 -0.36594151252E+02 -0.20796039358E+02  0.65343996331E+02  0.10000000000E+01 0.  0.
    9000005    1    3    3    0    0  0.49972299303E+02  0.36594151252E+02 -0.39223182778E+02  0.73319988207E+02  0.10000000000E+01 0.  0.
<mgrwt>
<rscale>  0 0.12500157E+03</rscale>
<asrwt>0</asrwt>
<pdfrwt beam="1">  1        4 0.60495972E-02 0.12500157E+03</pdfrwt>
<pdfrwt beam="2">  1       -4 0.15283323E-01 0.12500157E+03</pdfrwt>
<totfact> 0.10160990E+04</totfact>
</mgrwt>
</event>
<event>
 5    1  0.3286491E-002  0.1250075E+03  0.7818608E-02  0.1235058E+00
         -4   -1    0    0    0  501 -0.00000000000E+00  0.00000000000E+00  0.46551057868E+02  0.46568378635E+02  0.12700000000E+01 0.  1.
          4   -1    0    0  501    0  0.00000000000E+00 -0.00000000000E+00 -0.83885578652E+02  0.83895191791E+02  0.12700000000E+01 0.  1.
         25    2    1    2    0    0  0.00000000000E+00  0.00000000000E+00 -0.37334520783E+02  0.13046357043E+03  0.12500750684E+03 0.  0.
    9000005    1    3    3    0    0  0.46067981677E+02 -0.41396873241E+02 -0.27383993125E+02  0.67726236640E+02  0.10000000000E+01 0.  0.
    9000005    1    3    3    0    0 -0.46067981677E+02  0.41396873241E+02 -0.99505276590E+01  0.62737333786E+02  0.10000000000E+01 0.  0.
<mgrwt>
<rscale>  0 0.12500751E+03</rscale>
<asrwt>0</asrwt>
<pdfrwt beam="2">  1        4 0.12907545E-01 0.12500751E+03</pdfrwt>
<pdfrwt beam="1">  1       -4 0.71637731E-02 0.12500751E+03</pdfrwt>
<totfact> 0.10332850E+04</totfact>
</mgrwt>
</event>
<event>
 5    1  0.3286491E-002  0.1249872E+03  0.7818608E-02  0.1235089E+00
         -4   -1    0    0    0  501 -0.00000000000E+00  0.00000000000E+00  0.55829052992E+03  0.55829197442E+03  0.12700000000E+01 0. -1.
          4   -1    0    0  501    0  0.00000000000E+00 -0.00000000000E+00 -0.69362649566E+01  0.70515722749E+01  0.12700000000E+01 0. -1.
         25    2    1    2    0    0  0.00000000000E+00  0.00000000000E+00  0.55135426496E+03  0.56534354669E+03  0.12498720052E+03 0.  0.
    9000005    1    3    3    0    0  0.47794517611E+02  0.40126492136E+02  0.26137434824E+03  0.26872290784E+03  0.10000000000E+01 0.  0.
    9000005    1    3    3    0    0 -0.47794517611E+02 -0.40126492136E+02  0.28997991673E+03  0.29662063885E+03  0.10000000000E+01 0.  0.
<mgrwt>
<rscale>  0 0.12498720E+03</rscale>
<asrwt>0</asrwt>
<pdfrwt beam="2">  1        4 0.10760984E-02 0.12498720E+03</pdfrwt>
<pdfrwt beam="1">  1       -4 0.85899845E-01 0.12498720E+03</pdfrwt>
<totfact> 0.51145302E+03</totfact>
</mgrwt>
</event>
<event>
 5    1  0.3286491E-002  0.1249998E+03  0.7818608E-02  0.1235070E+00
          4   -1    0    0  501    0  0.00000000000E+00  0.00000000000E+00  0.54654444318E+01  0.56110589764E+01  0.12700000000E+01 0. -1.
         -4   -1    0    0    0  501 -0.00000000000E+00 -0.00000000000E+00 -0.70517359909E+03  0.70517474271E+03  0.12700000000E+01 0. -1.
         25    2    1    2    0    0  0.00000000000E+00  0.00000000000E+00 -0.69970815466E+03  0.71078580168E+03  0.12499981672E+03 0.  0.
    9000005    1    3    3    0    0  0.25455867018E+02  0.56688815030E+02 -0.38740757938E+03  0.39236112891E+03  0.10000000000E+01 0.  0.
    9000005    1    3    3    0    0 -0.25455867018E+02 -0.56688815030E+02 -0.31230057528E+03  0.31842467278E+03  0.10000000000E+01 0.  0.
<mgrwt>
<rscale>  0 0.12499982E+03</rscale>
<asrwt>0</asrwt>
<pdfrwt beam="1">  1        4 0.85212725E-03 0.12499982E+03</pdfrwt>
<pdfrwt beam="2">  1       -4 0.10849946E+00 0.12499982E+03</pdfrwt>
<totfact> 0.42523607E+03</totfact>
</mgrwt>
</event>
<event>
 5    1  0.3286491E-002  0.1249986E+03  0.7818608E-02  0.1235071E+00
         -4   -1    0    0    0  501 -0.00000000000E+00  0.00000000000E+00  0.55831429797E+02  0.55845872302E+02  0.12700000000E+01 0.  1.
          4   -1    0    0  501    0  0.00000000000E+00 -0.00000000000E+00 -0.69934263855E+02  0.69945794447E+02  0.12700000000E+01 0.  1.
         25    2    1    2    0    0  0.00000000000E+00  0.00000000000E+00 -0.14102834057E+02  0.12579166675E+03  0.12499861397E+03 0.  0.
    9000005    1    3    3    0    0 -0.52308184344E+02 -0.28617619122E+02 -0.25879719090E+02  0.65006723757E+02  0.10000000000E+01 0.  0.
    9000005    1    3    3    0    0  0.52308184344E+02  0.28617619122E+02  0.11776885032E+02  0.60784942992E+02  0.10000000000E+01 0.  0.
<mgrwt>
<rscale>  0 0.12499861E+03</rscale>
<asrwt>0</asrwt>
<pdfrwt beam="2">  1        4 0.10761115E-01 0.12499861E+03</pdfrwt>
<pdfrwt beam="1">  1       -4 0.85914487E-02 0.12499861E+03</pdfrwt>
<totfact> 0.10435855E+04</totfact>
</mgrwt>
</event>
<event>
 5    1  0.3286491E-002  0.1250029E+03  0.7818608E-02  0.1235065E+00
          4   -1    0    0  501    0  0.00000000000E+00  0.00000000000E+00  0.17257741425E+02  0.17304408083E+02  0.12700000000E+01 0.  1.
         -4   -1    0    0    0  501 -0.00000000000E+00 -0.00000000000E+00 -0.22600394920E+03  0.22600751748E+03  0.12700000000E+01 0.  1.
         25    2    1    2    0    0  0.00000000000E+00  0.00000000000E+00 -0.20874620778E+03  0.24331192556E+03  0.12500285540E+03 0.  0.
    9000005    1    3    3    0    0 -0.25074187799E+02  0.49417410107E+01 -0.21537701443E+03  0.21689028112E+03  0.10000000000E+01 0.  0.
    9000005    1    3    3    0    0  0.25074187799E+02 -0.49417410107E+01  0.66308066546E+01  0.26421644439E+02  0.10000000000E+01 0.  0.
<mgrwt>
<rscale>  0 0.12500286E+03</rscale>
<asrwt>0</asrwt>
<pdfrwt beam="1">  1        4 0.26589015E-02 0.12500286E+03</pdfrwt>
<pdfrwt beam="2">  1       -4 0.34773700E-01 0.12500286E+03</pdfrwt>
<totfact> 0.83301274E+03</totfact>
</mgrwt>
</event>
<event>
 5    1  0.3286491E-002  0.1250015E+03  0.7818608E-02  0.1235067E+00
          4   -1    0    0  501    0  0.00000000000E+00  0.00000000000E+00  0.13711959775E+02  0.13770647801E+02  0.12700000000E+01 0.  1.
         -4   -1    0    0    0  501 -0.00000000000E+00 -0.00000000000E+00 -0.28421749177E+03  0.28422032920E+03  0.12700000000E+01 0.  1.
         25    2    1    2    0    0  0.00000000000E+00  0.00000000000E+00 -0.27050553200E+03  0.29799097700E+03  0.12500151812E+03 0.  0.
    9000005    1    3    3    0    0 -0.21108046611E+02  0.40821497804E+02 -0.34298080974E+02  0.57352442608E+02  0.10000000000E+01 0.  0.
    9000005    1    3    3    0    0  0.21108046611E+02 -0.40821497804E+02 -0.23620745102E+03  0.24063853439E+03  0.10000000000E+01 0.  0.
<mgrwt>
<rscale>  0 0.12500152E+03</rscale>
<asrwt>0</asrwt>
<pdfrwt beam="1">  1        4 0.21142652E-02 0.12500152E+03</pdfrwt>
<pdfrwt beam="2">  1       -4 0.43730496E-01 0.12500152E+03</pdfrwt>
<totfact> 0.75848985E+03</totfact>
</mgrwt>
</event>
<event>
 5    1  0.3286491E-002  0.1250019E+03  0.7818608E-02  0.1235066E+00
         -4   -1    0    0    0  501 -0.00000000000E+00  0.00000000000E+00  0.72397679506E+02  0.72408817819E+02  0.12700000000E+01 0.  1.
          4   -1    0    0  501    0  0.00000000000E+00 -0.00000000000E+00 -0.53934329113E+02  0.53949279484E+02  0.12700000000E+01 0.  1.
         25    2    1    2    0    0  0.00000000000E+00  0.00000000000E+00  0.18463350393E+02  0.12635809730E+03  0.12500189377E+03 0.  0.
    9000005    1    3    3    0    0 -0.48271565930E+02  0.28374738924E+02  0.37283403048E+02  0.67277946083E+02  0.10000000000E+01 0.  0.
    9000005    1    3    3    0    0  0.48271565930E+02 -0.28374738924E+02 -0.18820052655E+02  0.59080151220E+02  0.10000000000E+01 0.  0.
<mgrwt>
<rscale>  0 0.12500189E+03</rscale>
<asrwt>0</asrwt>
<pdfrwt beam="2">  1        4 0.82995959E-02 0.12500189E+03</pdfrwt>
<pdfrwt beam="1">  1       -4 0.11140111E-01 0.12500189E+03</pdfrwt>
<totfact> 0.10422679E+04</totfact>
</mgrwt>
</event>
<event>
 5    1  0.3286491E-002  0.1249998E+03  0.7818608E-02  0.1235070E+00
         -4   -1    0    0    0  501 -0.00000000000E+00  0.00000000000E+00  0.25745086482E+03  0.25745399725E+03  0.12700000000E+01 0.  1.
          4   -1    0    0  501    0  0.00000000000E+00 -0.00000000000E+00 -0.15142934736E+02  0.15196097276E+02  0.12700000000E+01 0.  1.
         25    2    1    2    0    0  0.00000000000E+00  0.00000000000E+00  0.24230793009E+03  0.27265009452E+03  0.12499976424E+03 0.  0.
    9000005    1    3    3    0    0 -0.20028798132E+01 -0.20982126964E+02 -0.71664135948E+01  0.22284942524E+02  0.10000000000E+01 0.  0.
    9000005    1    3    3    0    0  0.20028798132E+01  0.20982126964E+02  0.24947434368E+03  0.25036515200E+03  0.10000000000E+01 0.  0.
<mgrwt>
<rscale>  0 0.12499976E+03</rscale>
<asrwt>0</asrwt>
<pdfrwt beam="2">  1        4 0.23340127E-02 0.12499976E+03</pdfrwt>
<pdfrwt beam="1">  1       -4 0.39612155E-01 0.12499976E+03</pdfrwt>
<totfact> 0.79163267E+03</totfact>
</mgrwt>
</event>
<event>
 5    1  0.3286491E-002  0.1249960E+03  0.7818608E-02  0.1235076E+00
          4   -1    0    0  501    0  0.00000000000E+00  0.00000000000E+00  0.10365055590E+04  0.10365063370E+04  0.12700000000E+01 0.  1.
         -4   -1    0    0    0  501 -0.00000000000E+00 -0.00000000000E+00 -0.36606295965E+01  0.38746753468E+01  0.12700000000E+01 0.  1.
         25    2    1    2    0    0  0.00000000000E+00  0.00000000000E+00  0.10328449294E+04  0.10403810124E+04  0.12499601095E+03 0.  0.
    9000005    1    3    3    0    0 -0.16209305613E+02 -0.59893877884E+02  0.57813998575E+03  0.58146097145E+03  0.10000000000E+01 0.  0.
    9000005    1    3    3    0    0  0.16209305613E+02  0.59893877884E+02  0.45470494362E+03  0.45892004091E+03  0.10000000000E+01 0.  0.
<mgrwt>
<rscale>  0 0.12499601E+03</rscale>
<asrwt>0</asrwt>
<pdfrwt beam="1">  1        4 0.15947902E+00 0.12499601E+03</pdfrwt>
<pdfrwt beam="2">  1       -4 0.57969833E-03 0.12499601E+03</pdfrwt>
<totfact> 0.29299548E+03</totfact>
</mgrwt>
</event>
<event>
 5    1  0.3286491E-002  0.1250017E+03  0.7818608E-02  0.1235067E+00
         -4   -1    0    0    0  501 -0.00000000000E+00  0.00000000000E+00  0.18522794291E+02  0.18566281489E+02  0.12700000000E+01 0. -1.
          4   -1    0    0  501    0  0.00000000000E+00 -0.00000000000E+00 -0.21060170163E+03  0.21060553086E+03  0.12700000000E+01 0. -1.
         25    2    1    2    0    0  0.00000000000E+00  0.00000000000E+00 -0.19207890733E+03  0.22917181235E+03  0.12500165171E+03 0.  0.
    9000005    1    3    3    0    0 -0.34559081723E+02  0.51825018035E+02 -0.86837823360E+02  0.10687361784E+03  0.10000000000E+01 0.  0.
    9000005    1    3    3    0    0  0.34559081723E+02 -0.51825018035E+02 -0.10524108397E+03  0.12229819451E+03  0.10000000000E+01 0.  0.
<mgrwt>
<rscale>  0 0.12500165E+03</rscale>
<asrwt>0</asrwt>
<pdfrwt beam="2">  1        4 0.32403900E-01 0.12500165E+03</pdfrwt>
<pdfrwt beam="1">  1       -4 0.28533005E-02 0.12500165E+03</pdfrwt>
<totfact> 0.85433780E+03</totfact>
</mgrwt>
</event>
<event>
 5    1  0.3286491E-002  0.1250004E+03  0.7818608E-02  0.1235069E+00
         -4   -1    0    0    0  501 -0.00000000000E+00  0.00000000000E+00  0.11530859133E+02  0.11600586725E+02  0.12700000000E+01 0. -1.
          4   -1    0    0  501    0  0.00000000000E+00 -0.00000000000E+00 -0.33767491127E+03  0.33767729951E+03  0.12700000000E+01 0. -1.
         25    2    1    2    0    0  0.00000000000E+00  0.00000000000E+00 -0.32614405214E+03  0.34927788623E+03  0.12500039626E+03 0.  0.
    9000005    1    3    3    0    0  0.18494311145E+02  0.37785500168E+02 -0.33947543783E+02  0.54066804016E+02  0.10000000000E+01 0.  0.
    9000005    1    3    3    0    0 -0.18494311145E+02 -0.37785500168E+02 -0.29219650835E+03  0.29521108221E+03  0.10000000000E+01 0.  0.
<mgrwt>
<rscale>  0 0.12500040E+03</rscale>
<asrwt>0</asrwt>
<pdfrwt beam="2">  1        4 0.51955526E-01 0.12500040E+03</pdfrwt>
<pdfrwt beam="1">  1       -4 0.17795260E-02 0.12500040E+03</pdfrwt>
<totfact> 0.69803461E+03</totfact>
</mgrwt>
</event>
<event>
 5    1  0.3286491E-002  0.1250030E+03  0.7818608E-02  0.1235065E+00
         -4   -1    0    0    0  501 -0.00000000000E+00  0.00000000000E+00  0.65607959271E+01  0.66825850684E+01  0.12700000000E+01 0.  1.
          4   -1    0    0  501    0  0.00000000000E+00 -0.00000000000E+00 -0.58982275291E+03  0.58982412018E+03  0.12700000000E+01 0.  1.
         25    2    1    2    0    0  0.00000000000E+00  0.00000000000E+00 -0.58326195698E+03  0.59650670525E+03  0.12500295575E+03 0.  0.
    9000005    1    3    3    0    0 -0.56467487332E+02 -0.24632096098E+02 -0.34170622854E+03  0.34721673909E+03  0.10000000000E+01 0.  0.
    9000005    1    3    3    0    0  0.56467487332E+02  0.24632096098E+02 -0.24155572844E+03  0.24928996616E+03  0.10000000000E+01 0.  0.
<mgrwt>
<rscale>  0 0.12500296E+03</rscale>
<asrwt>0</asrwt>
<pdfrwt beam="2">  1        4 0.90751394E-01 0.12500296E+03</pdfrwt>
<pdfrwt beam="1">  1       -4 0.10188273E-02 0.12500296E+03</pdfrwt>
<totfact> 0.49085697E+03</totfact>
</mgrwt>
</event>
<event>
 5    1  0.3286491E-002  0.1249990E+03  0.7818608E-02  0.1235071E+00
         -4   -1    0    0    0  501 -0.00000000000E+00  0.00000000000E+00  0.28904218979E+03  0.28904497985E+03  0.12700000000E+01 0. -1.
          4   -1    0    0  501    0  0.00000000000E+00 -0.00000000000E+00 -0.13481549510E+02  0.13541236177E+02  0.12700000000E+01 0. -1.
         25    2    1    2    0    0  0.00000000000E+00  0.00000000000E+00  0.27556064028E+03  0.30258621603E+03  0.12499900663E+03 0.  0.
    9000005    1    3    3    0    0  0.51831390818E+02  0.34381691413E+02  0.12313670421E+03  0.13795739089E+03  0.10000000000E+01 0.  0.
    9000005    1    3    3    0    0 -0.51831390818E+02 -0.34381691413E+02  0.15242393607E+03  0.16462882513E+03  0.10000000000E+01 0.  0.
<mgrwt>
<rscale>  0 0.12499901E+03</rscale>
<asrwt>0</asrwt>
<pdfrwt beam="2">  1        4 0.20788908E-02 0.12499901E+03</pdfrwt>
<pdfrwt beam="1">  1       -4 0.44472828E-01 0.12499901E+03</pdfrwt>
<totfact> 0.75277234E+03</totfact>
</mgrwt>
</event>
<event>
 5    1  0.3286491E-002  0.1249999E+03  0.7818608E-02  0.1235069E+00
         -4   -1    0    0    0  501 -0.00000000000E+00  0.00000000000E+00  0.82649815057E+03  0.82649912631E+03  0.12700000000E+01 0.  1.
          4   -1    0    0  501    0  0.00000000000E+00 -0.00000000000E+00 -0.46399496606E+01  0.48106166811E+01  0.12700000000E+01 0.  1.
         25    2    1    2    0    0  0.00000000000E+00  0.00000000000E+00  0.82185820091E+03  0.83130974300E+03  0.12499994558E+03 0.  0.
    9000005    1    3    3    0    0 -0.72569065112E+01  0.11033955689E+02  0.81714424440E+03  0.81725156899E+03  0.10000000000E+01 0.  0.
    9000005    1    3    3    0    0  0.72569065112E+01 -0.11033955689E+02  0.47139565138E+01  0.14058174002E+02  0.10000000000E+01 0.  0.
<mgrwt>
<rscale>  0 0.12499995E+03</rscale>
<asrwt>0</asrwt>
<pdfrwt beam="2">  1        4 0.72704129E-03 0.12499995E+03</pdfrwt>
<pdfrwt beam="1">  1       -4 0.12716684E+00 0.12499995E+03</pdfrwt>
<totfact> 0.36904608E+03</totfact>
</mgrwt>
</event>
<event>
 5    1  0.3286491E-002  0.1250000E+03  0.7818608E-02  0.1235069E+00
          4   -1    0    0  501    0  0.00000000000E+00  0.00000000000E+00  0.31654427447E+03  0.31654682213E+03  0.12700000000E+01 0. -1.
         -4   -1    0    0    0  501 -0.00000000000E+00 -0.00000000000E+00 -0.12305012826E+02  0.12370377546E+02  0.12700000000E+01 0. -1.
         25    2    1    2    0    0  0.00000000000E+00  0.00000000000E+00  0.30423926165E+03  0.32891719968E+03  0.12499998367E+03 0.  0.
    9000005    1    3    3    0    0 -0.22315816337E+02  0.53726780083E+02  0.92076303024E+02  0.10892019159E+03  0.10000000000E+01 0.  0.
    9000005    1    3    3    0    0  0.22315816337E+02 -0.53726780083E+02  0.21216295862E+03  0.21999700809E+03  0.10000000000E+01 0.  0.
<mgrwt>
<rscale>  0 0.12499998E+03</rscale>
<asrwt>0</asrwt>
<pdfrwt beam="1">  1        4 0.48704344E-01 0.12499998E+03</pdfrwt>
<pdfrwt beam="2">  1       -4 0.18983029E-02 0.12499998E+03</pdfrwt>
<totfact> 0.72107970E+03</totfact>
</mgrwt>
</event>
<event>
 5    1  0.3286491E-002  0.1249858E+03  0.7818608E-02  0.1235092E+00
          4   -1    0    0  501    0  0.00000000000E+00  0.00000000000E+00  0.51704824884E+03  0.51704980856E+03  0.12700000000E+01 0. -1.
         -4   -1    0    0    0  501 -0.00000000000E+00 -0.00000000000E+00 -0.74982176825E+01  0.76050094289E+01  0.12700000000E+01 0. -1.
         25    2    1    2    0    0  0.00000000000E+00  0.00000000000E+00  0.50955003116E+03  0.52465481798E+03  0.12498577432E+03 0.  0.
    9000005    1    3    3    0    0 -0.70220326705E+01  0.16655093658E+01 -0.57634764217E+01  0.92898075726E+01  0.10000000000E+01 0.  0.
    9000005    1    3    3    0    0  0.70220326705E+01 -0.16655093658E+01  0.51531350758E+03  0.51536501041E+03  0.10000000000E+01 0.  0.
<mgrwt>
<rscale>  0 0.12498577E+03</rscale>
<asrwt>0</asrwt>
<pdfrwt beam="1">  1        4 0.79554249E-01 0.12498577E+03</pdfrwt>
<pdfrwt beam="2">  1       -4 0.11619062E-02 0.12498577E+03</pdfrwt>
<totfact> 0.54017810E+03</totfact>
</mgrwt>
</event>
<event>
 5    1  0.3286491E-002  0.1249936E+03  0.7818608E-02  0.1235079E+00
         -4   -1    0    0    0  501 -0.00000000000E+00  0.00000000000E+00  0.61341270689E+02  0.61354416221E+02  0.12700000000E+01 0.  1.
          4   -1    0    0  501    0  0.00000000000E+00 -0.00000000000E+00 -0.63647804221E+02  0.63660473468E+02  0.12700000000E+01 0.  1.
         25    2    1    2    0    0  0.00000000000E+00  0.00000000000E+00 -0.23065335321E+01  0.12501488969E+03  0.12499361002E+03 0.  0.
    9000005    1    3    3    0    0 -0.48074972221E+02  0.33904539930E+02 -0.22231243196E+02  0.62896334996E+02  0.10000000000E+01 0.  0.
    9000005    1    3    3    0    0  0.48074972221E+02 -0.33904539930E+02  0.19924709664E+02  0.62118554693E+02  0.10000000000E+01 0.  0.
<mgrwt>
<rscale>  0 0.12499361E+03</rscale>
<asrwt>0</asrwt>
<pdfrwt beam="2">  1        4 0.97939556E-02 0.12499361E+03</pdfrwt>
<pdfrwt beam="1">  1       -4 0.94391043E-02 0.12499361E+03</pdfrwt>
<totfact> 0.10454049E+04</totfact>
</mgrwt>
</event>
<event>
 5    1  0.3286491E-002  0.1249996E+03  0.7818608E-02  0.1235070E+00
          4   -1    0    0  501    0  0.00000000000E+00  0.00000000000E+00  0.57769964144E+01  0.59149461174E+01  0.12700000000E+01 0. -1.
         -4   -1    0    0    0  501 -0.00000000000E+00 -0.00000000000E+00 -0.66805192847E+03  0.66805313564E+03  0.12700000000E+01 0. -1.
         25    2    1    2    0    0  0.00000000000E+00  0.00000000000E+00 -0.66227493206E+03  0.67396808176E+03  0.12499955837E+03 0.  0.
    9000005    1    3    3    0    0  0.30110591378E+02  0.23080282742E+02 -0.63395529559E+02  0.73887348935E+02  0.10000000000E+01 0.  0.
    9000005    1    3    3    0    0 -0.30110591378E+02 -0.23080282742E+02 -0.59887940250E+03  0.60008073282E+03  0.10000000000E+01 0.  0.
<mgrwt>
<rscale>  0 0.12499956E+03</rscale>
<asrwt>0</asrwt>
<pdfrwt beam="1">  1        4 0.89947358E-03 0.12499956E+03</pdfrwt>
<pdfrwt beam="2">  1       -4 0.10278786E+00 0.12499956E+03</pdfrwt>
<totfact> 0.44497419E+03</totfact>
</mgrwt>
</event>
<event>
 5    1  0.3286491E-002  0.1249988E+03  0.7818608E-02  0.1235071E+00
          4   -1    0    0  501    0  0.00000000000E+00  0.00000000000E+00  0.65500115629E+02  0.65512426664E+02  0.12700000000E+01 0. -1.
         -4   -1    0    0    0  501 -0.00000000000E+00 -0.00000000000E+00 -0.59611446035E+02  0.59624972942E+02  0.12700000000E+01 0. -1.
         25    2    1    2    0    0  0.00000000000E+00  0.00000000000E+00  0.58886695941E+01  0.12513739961E+03  0.12499876940E+03 0.  0.
    9000005    1    3    3    0    0 -0.36894379276E+02 -0.10154938118E+02 -0.46515468811E+02  0.60241238608E+02  0.10000000000E+01 0.  0.
    9000005    1    3    3    0    0  0.36894379276E+02  0.10154938118E+02  0.52404138405E+02  0.64896160998E+02  0.10000000000E+01 0.  0.
<mgrwt>
<rscale>  0 0.12499877E+03</rscale>
<asrwt>0</asrwt>
<pdfrwt beam="1">  1        4 0.10078928E-01 0.12499877E+03</pdfrwt>
<pdfrwt beam="2">  1       -4 0.91729792E-02 0.12499877E+03</pdfrwt>
<totfact> 0.10450170E+04</totfact>
</mgrwt>
</event>
<event>
 5    1  0.3286491E-002  0.1250071E+03  0.7818608E-02  0.1235058E+00
          4   -1    0    0  501    0  0.00000000000E+00  0.00000000000E+00  0.27857745574E+02  0.27886679409E+02  0.12700000000E+01 0.  1.
         -4   -1    0    0    0  501 -0.00000000000E+00 -0.00000000000E+00 -0.14013267855E+03  0.14013843333E+03  0.12700000000E+01 0.  1.
         25    2    1    2    0    0  0.00000000000E+00  0.00000000000E+00 -0.11227493297E+03  0.16802511274E+03  0.12500711155E+03 0.  0.
    9000005    1    3    3    0    0 -0.41780258634E+02  0.46058234603E+02 -0.64503871592E+02  0.89603015779E+02  0.10000000000E+01 0.  0.
    9000005    1    3    3    0    0  0.41780258634E+02 -0.46058234603E+02 -0.47771061380E+02  0.78422096960E+02  0.10000000000E+01 0.  0.
<mgrwt>
<rscale>  0 0.12500711E+03</rscale>
<asrwt>0</asrwt>
<pdfrwt beam="1">  1        4 0.42884754E-02 0.12500711E+03</pdfrwt>
<pdfrwt beam="2">  1       -4 0.21561542E-01 0.12500711E+03</pdfrwt>
<totfact> 0.95802231E+03</totfact>
</mgrwt>
</event>
<event>
 5    1  0.3286491E-002  0.1249997E+03  0.7818608E-02  0.1235070E+00
          4   -1    0    0  501    0  0.00000000000E+00  0.00000000000E+00  0.44380937101E+01  0.46162296065E+01  0.12700000000E+01 0.  1.
         -4   -1    0    0    0  501 -0.00000000000E+00 -0.00000000000E+00 -0.86266448429E+03  0.86266541913E+03  0.12700000000E+01 0.  1.
         25    2    1    2    0    0  0.00000000000E+00  0.00000000000E+00 -0.85822639058E+03  0.86728164873E+03  0.12499968296E+03 0.  0.
    9000005    1    3    3    0    0 -0.26530992260E+02 -0.12715891448E+02 -0.81164056717E+03  0.81217424099E+03  0.10000000000E+01 0.  0.
    9000005    1    3    3    0    0  0.26530992260E+02  0.12715891448E+02 -0.46585823406E+02  0.55107407742E+02  0.10000000000E+01 0.  0.
<mgrwt>
<rscale>  0 0.12499968E+03</rscale>
<asrwt>0</asrwt>
<pdfrwt beam="1">  1        4 0.69655901E-03 0.12499968E+03</pdfrwt>
<pdfrwt beam="2">  1       -4 0.13273126E+00 0.12499968E+03</pdfrwt>
<totfact> 0.35430672E+03</totfact>
</mgrwt>
</event>
<event>
 4    1  0.3286491E-002  0.1250789E+03  0.7818608E-02  0.1234946E+00
         -4   -1    0    0    0  501 -0.00000000000E+00  0.00000000000E+00  0.13254293847E+02  0.13314999263E+02  0.12700000000E+01 0.  1.
          4   -1    0    0  501    0  0.00000000000E+00 -0.00000000000E+00 -0.29435157266E+03  0.29435431240E+03  0.12700000000E+01 0.  1.
    9000005    1    1    2    0    0 -0.55248020201E+02  0.25454540475E+02 -0.10491087159E+03  0.12127476384E+03  0.10000000000E+01 0.  0.
    9000005    1    1    2    0    0  0.55248020201E+02 -0.25454540475E+02 -0.17618640722E+03  0.18639454782E+03  0.10000000000E+01 0.  0.
<mgrwt>
<rscale>  0 0.12507888E+03</rscale>
<asrwt>0</asrwt>
<pdfrwt beam="2">  1        4 0.45289733E-01 0.12507888E+03</pdfrwt>
<pdfrwt beam="1">  1       -4 0.20440027E-02 0.12507888E+03</pdfrwt>
<totfact> 0.74516287E+03</totfact>
</mgrwt>
</event>
<event>
 5    1  0.3286491E-002  0.1249996E+03  0.7818608E-02  0.1235070E+00
         -4   -1    0    0    0  501 -0.00000000000E+00  0.00000000000E+00  0.91284232189E+02  0.91293066256E+02  0.12700000000E+01 0. -1.
          4   -1    0    0  501    0  0.00000000000E+00 -0.00000000000E+00 -0.42771567753E+02  0.42790418414E+02  0.12700000000E+01 0. -1.
         25    2    1    2    0    0  0.00000000000E+00  0.00000000000E+00  0.48512664436E+02  0.13408348467E+03  0.12499960900E+03 0.  0.
    9000005    1    3    3    0    0  0.15025208139E+02  0.13853824891E+02 -0.39090696039E+02  0.44122192381E+02  0.10000000000E+01 0.  0.
    9000005    1    3    3    0    0 -0.15025208139E+02 -0.13853824891E+02  0.87603360475E+02  0.89961292289E+02  0.10000000000E+01 0.  0.
<mgrwt>
<rscale>  0 0.12499961E+03</rscale>
<asrwt>0</asrwt>
<pdfrwt beam="2">  1        4 0.65823709E-02 0.12499961E+03</pdfrwt>
<pdfrwt beam="1">  1       -4 0.14045857E-01 0.12499961E+03</pdfrwt>
<totfact> 0.10257515E+04</totfact>
</mgrwt>
</event>
<event>
 5    1  0.3286491E-002  0.1250025E+03  0.7818608E-02  0.1235065E+00
         -4   -1    0    0    0  501 -0.00000000000E+00  0.00000000000E+00  0.14095975552E+02  0.14153071284E+02  0.12700000000E+01 0. -1.
          4   -1    0    0  501    0  0.00000000000E+00 -0.00000000000E+00 -0.27651058471E+03  0.27651350122E+03  0.12700000000E+01 0. -1.
         25    2    1    2    0    0  0.00000000000E+00  0.00000000000E+00 -0.26241460916E+03  0.29066657251E+03  0.12500251706E+03 0.  0.
    9000005    1    3    3    0    0 -0.32950541289E+02  0.41299886680E+02 -0.53597482728E+02  0.75266918137E+02  0.10000000000E+01 0.  0.
    9000005    1    3    3    0    0  0.32950541289E+02 -0.41299886680E+02 -0.20881712643E+03  0.21539965437E+03  0.10000000000E+01 0.  0.
<mgrwt>
<rscale>  0 0.12500252E+03</rscale>
<asrwt>0</asrwt>
<pdfrwt beam="2">  1        4 0.42544702E-01 0.12500252E+03</pdfrwt>
<pdfrwt beam="1">  1       -4 0.21732282E-02 0.12500252E+03</pdfrwt>
<totfact> 0.76780432E+03</totfact>
</mgrwt>
</event>
<event>
 5    1  0.3286491E-002  0.1249964E+03  0.7818608E-02  0.1235075E+00
          4   -1    0    0  501    0  0.00000000000E+00  0.00000000000E+00  0.63263284067E+03  0.63263411542E+03  0.12700000000E+01 0.  1.
         -4   -1    0    0    0  501 -0.00000000000E+00 -0.00000000000E+00 -0.61076374580E+01  0.62382798365E+01  0.12700000000E+01 0.  1.
         25    2    1    2    0    0  0.00000000000E+00  0.00000000000E+00  0.62652520321E+03  0.63887239526E+03  0.12499642860E+03 0.  0.
    9000005    1    3    3    0    0  0.15308592623E+02  0.50102400821E+02  0.13915219772E+03  0.14869074519E+03  0.10000000000E+01 0.  0.
    9000005    1    3    3    0    0 -0.15308592623E+02 -0.50102400821E+02  0.48737300549E+03  0.49018165006E+03  0.10000000000E+01 0.  0.
<mgrwt>
<rscale>  0 0.12499643E+03</rscale>
<asrwt>0</asrwt>
<pdfrwt beam="1">  1        4 0.97338293E-01 0.12499643E+03</pdfrwt>
<pdfrwt beam="2">  1       -4 0.94978384E-03 0.12499643E+03</pdfrwt>
<totfact> 0.46505936E+03</totfact>
</mgrwt>
</event>
<event>
 5    1  0.3286491E-002  0.1249974E+03  0.7818608E-02  0.1235073E+00
          4   -1    0    0  501    0  0.00000000000E+00  0.00000000000E+00  0.55512109528E+01  0.56946328277E+01  0.12700000000E+01 0.  1.
         -4   -1    0    0    0  501 -0.00000000000E+00 -0.00000000000E+00 -0.69452774568E+03  0.69452890683E+03  0.12700000000E+01 0.  1.
         25    2    1    2    0    0  0.00000000000E+00  0.00000000000E+00 -0.68897653473E+03  0.70022353966E+03  0.12499736030E+03 0.  0.
    9000005    1    3    3    0    0  0.56208460291E+02  0.97328407464E+01 -0.48741549142E+03  0.49074329387E+03  0.10000000000E+01 0.  0.
    9000005    1    3    3    0    0 -0.56208460291E+02 -0.97328407464E+01 -0.20156104331E+03  0.20948024579E+03  0.10000000000E+01 0.  0.
<mgrwt>
<rscale>  0 0.12499736E+03</rscale>
<asrwt>0</asrwt>
<pdfrwt beam="1">  1        4 0.86515477E-03 0.12499736E+03</pdfrwt>
<pdfrwt beam="2">  1       -4 0.10686148E+00 0.12499736E+03</pdfrwt>
<totfact> 0.43077402E+03</totfact>
</mgrwt>
</event>
<event>
 5    1  0.3286491E-002  0.1250073E+03  0.7818608E-02  0.1235058E+00
         -4   -1    0    0    0  501 -0.00000000000E+00  0.00000000000E+00  0.21129583180E+02  0.21167715639E+02  0.12700000000E+01 0.  1.
          4   -1    0    0  501    0  0.00000000000E+00 -0.00000000000E+00 -0.18468563291E+03  0.18468999947E+03  0.12700000000E+01 0.  1.
         25    2    1    2    0    0  0.00000000000E+00  0.00000000000E+00 -0.16355604973E+03  0.20585771511E+03  0.12500726965E+03 0.  0.
    9000005    1    3    3    0    0  0.45422541769E+02 -0.29869748010E+02 -0.13254264616E+03  0.14326186582E+03  0.10000000000E+01 0.  0.
    9000005    1    3    3    0    0 -0.45422541769E+02  0.29869748010E+02 -0.31013403568E+02  0.62595849286E+02  0.10000000000E+01 0.  0.
<mgrwt>
<rscale>  0 0.12500727E+03</rscale>
<asrwt>0</asrwt>
<pdfrwt beam="2">  1        4 0.28416442E-01 0.12500727E+03</pdfrwt>
<pdfrwt beam="1">  1       -4 0.32539744E-02 0.12500727E+03</pdfrwt>
<totfact> 0.89142376E+03</totfact>
</mgrwt>
</event>
<event>
 5    1  0.3286491E-002  0.1250028E+03  0.7818608E-02  0.1235065E+00
          4   -1    0    0  501    0  0.00000000000E+00  0.00000000000E+00  0.49147227538E+02  0.49163633660E+02  0.12700000000E+01 0.  1.
         -4   -1    0    0    0  501 -0.00000000000E+00 -0.00000000000E+00 -0.79449330863E+02  0.79459480709E+02  0.12700000000E+01 0.  1.
         25    2    1    2    0    0  0.00000000000E+00  0.00000000000E+00 -0.30302103324E+02  0.12862311437E+03  0.12500275231E+03 0.  0.
    9000005    1    3    3    0    0 -0.51958065582E+02  0.20776742950E+01 -0.50817096844E+02  0.72714060821E+02  0.10000000000E+01 0.  0.
    9000005    1    3    3    0    0  0.51958065582E+02 -0.20776742950E+01  0.20514993520E+02  0.55909053548E+02  0.10000000000E+01 0.  0.
<mgrwt>
<rscale>  0 0.12500275E+03</rscale>
<asrwt>0</asrwt>
<pdfrwt beam="1">  1        4 0.75631547E-02 0.12500275E+03</pdfrwt>
<pdfrwt beam="2">  1       -4 0.12225017E-01 0.12500275E+03</pdfrwt>
<totfact> 0.10373408E+04</totfact>
</mgrwt>
</event>
<event>
 5    1  0.3286491E-002  0.1250007E+03  0.7818608E-02  0.1235068E+00
         -4   -1    0    0    0  501 -0.00000000000E+00  0.00000000000E+00  0.15176962801E+03  0.15177494156E+03  0.12700000000E+01 0. -1.
          4   -1    0    0  501    0  0.00000000000E+00 -0.00000000000E+00 -0.25716866330E+02  0.25748206032E+02  0.12700000000E+01 0. -1.
         25    2    1    2    0    0  0.00000000000E+00  0.00000000000E+00  0.12605276168E+03  0.17752314760E+03  0.12500067682E+03 0.  0.
    9000005    1    3    3    0    0 -0.18276711555E+02  0.42726872158E+02  0.36896637984E+01  0.46628718711E+02  0.10000000000E+01 0.  0.
    9000005    1    3    3    0    0  0.18276711555E+02 -0.42726872158E+02  0.12236309788E+03  0.13089442888E+03  0.10000000000E+01 0.  0.
<mgrwt>
<rscale>  0 0.12500068E+03</rscale>
<asrwt>0</asrwt>
<pdfrwt beam="2">  1        4 0.39592604E-02 0.12500068E+03</pdfrwt>
<pdfrwt beam="1">  1       -4 0.23351994E-01 0.12500068E+03</pdfrwt>
<totfact> 0.94063325E+03</totfact>
</mgrwt>
</event>
<event>
 5    1  0.3286491E-002  0.1250047E+03  0.7818608E-02  0.1235062E+00
          4   -1    0    0  501    0  0.00000000000E+00  0.00000000000E+00  0.12110423414E+02  0.12176832727E+02  0.12700000000E+01 0.  1.
         -4   -1    0    0    0  501 -0.00000000000E+00 -0.00000000000E+00 -0.32162752548E+03  0.32163003287E+03  0.12700000000E+01 0.  1.
         25    2    1    2    0    0  0.00000000000E+00  0.00000000000E+00 -0.30951710206E+03  0.33380686560E+03  0.12500474811E+03 0.  0.
    9000005    1    3    3    0    0 -0.88706733486E+01  0.53708836049E+02 -0.72790492418E+02  0.90899855345E+02  0.10000000000E+01 0.  0.
    9000005    1    3    3    0    0  0.88706733486E+01 -0.53708836049E+02 -0.23672660965E+03  0.24290701025E+03  0.10000000000E+01 0.  0.
<mgrwt>
<rscale>  0 0.12500475E+03</rscale>
<asrwt>0</asrwt>
<pdfrwt beam="1">  1        4 0.18684436E-02 0.12500475E+03</pdfrwt>
<pdfrwt beam="2">  1       -4 0.49486453E-01 0.12500475E+03</pdfrwt>
<totfact> 0.71536003E+03</totfact>
</mgrwt>
</event>
<event>
 5    1  0.3286491E-002  0.1249939E+03  0.7818608E-02  0.1235079E+00
         -4   -1    0    0    0  501 -0.00000000000E+00  0.00000000000E+00  0.70136203556E+02  0.70147700955E+02  0.12700000000E+01 0.  1.
          4   -1    0    0  501    0  0.00000000000E+00 -0.00000000000E+00 -0.55666451746E+02  0.55680937043E+02  0.12700000000E+01 0.  1.
         25    2    1    2    0    0  0.00000000000E+00  0.00000000000E+00  0.14469751810E+02  0.12582863800E+03  0.12499388954E+03 0.  0.
    9000005    1    3    3    0    0  0.22368766164E+02 -0.54173628549E+02  0.29052741505E+02  0.65423279640E+02  0.10000000000E+01 0.  0.
    9000005    1    3    3    0    0 -0.22368766164E+02  0.54173628549E+02 -0.14582989694E+02  0.60405358358E+02  0.10000000000E+01 0.  0.
<mgrwt>
<rscale>  0 0.12499389E+03</rscale>
<asrwt>0</asrwt>
<pdfrwt beam="2">  1        4 0.85660682E-02 0.12499389E+03</pdfrwt>
<pdfrwt beam="1">  1       -4 0.10792184E-01 0.12499389E+03</pdfrwt>
<totfact> 0.10436155E+04</totfact>
</mgrwt>
</event>
<event>
 5    1  0.3286491E-002  0.1250005E+03  0.7818608E-02  0.1235069E+00
          4   -1    0    0  501    0  0.00000000000E+00  0.00000000000E+00  0.22845003005E+03  0.22845356012E+03  0.12700000000E+01 0.  1.
         -4   -1    0    0    0  501 -0.00000000000E+00 -0.00000000000E+00 -0.17071806271E+02  0.17118979799E+02  0.12700000000E+01 0.  1.
         25    2    1    2    0    0  0.00000000000E+00  0.00000000000E+00  0.21137822378E+03  0.24557253992E+03  0.12500047549E+03 0.  0.
    9000005    1    3    3    0    0  0.70389213186E+01 -0.61085422861E+02  0.83785717618E+02  0.10393277527E+03  0.10000000000E+01 0.  0.
    9000005    1    3    3    0    0 -0.70389213186E+01  0.61085422861E+02  0.12759250616E+03  0.14163976464E+03  0.10000000000E+01 0.  0.
<mgrwt>
<rscale>  0 0.12500048E+03</rscale>
<asrwt>0</asrwt>
<pdfrwt beam="1">  1        4 0.35150057E-01 0.12500048E+03</pdfrwt>
<pdfrwt beam="2">  1       -4 0.26303321E-02 0.12500048E+03</pdfrwt>
<totfact> 0.82973495E+03</totfact>
</mgrwt>
</event>
<event>
 5    1  0.3286491E-002  0.1250029E+03  0.7818608E-02  0.1235065E+00
         -4   -1    0    0    0  501 -0.00000000000E+00  0.00000000000E+00  0.17364343721E+02  0.17410724650E+02  0.12700000000E+01 0. -1.
          4   -1    0    0  501    0  0.00000000000E+00 -0.00000000000E+00 -0.22462014941E+03  0.22462373966E+03  0.12700000000E+01 0. -1.
         25    2    1    2    0    0  0.00000000000E+00  0.00000000000E+00 -0.20725580569E+03  0.24203446432E+03  0.12500285167E+03 0.  0.
    9000005    1    3    3    0    0 -0.25696418344E+02 -0.52598136705E+02 -0.14598485781E+03  0.15728778913E+03  0.10000000000E+01 0.  0.
    9000005    1    3    3    0    0  0.25696418344E+02  0.52598136705E+02 -0.61270947882E+02  0.84746675184E+02  0.10000000000E+01 0.  0.
<mgrwt>
<rscale>  0 0.12500285E+03</rscale>
<asrwt>0</asrwt>
<pdfrwt beam="2">  1        4 0.34560788E-01 0.12500285E+03</pdfrwt>
<pdfrwt beam="1">  1       -4 0.26752816E-02 0.12500285E+03</pdfrwt>
<totfact> 0.83489994E+03</totfact>
</mgrwt>
</event>
<event>
 5    1  0.3286491E-002  0.1250015E+03  0.7818608E-02  0.1235067E+00
          4   -1    0    0  501    0  0.00000000000E+00  0.00000000000E+00  0.41639017232E+02  0.41658380382E+02  0.12700000000E+01 0. -1.
         -4   -1    0    0    0  501 -0.00000000000E+00 -0.00000000000E+00 -0.93768958275E+02  0.93777558275E+02  0.12700000000E+01 0. -1.
         25    2    1    2    0    0  0.00000000000E+00  0.00000000000E+00 -0.52129941043E+02  0.13543593866E+03  0.12500145090E+03 0.  0.
    9000005    1    3    3    0    0 -0.44516099067E+02 -0.39238852966E+02 -0.48341133695E+01  0.59546110791E+02  0.10000000000E+01 0.  0.
    9000005    1    3    3    0    0  0.44516099067E+02  0.39238852966E+02 -0.47295827673E+02  0.75889827866E+02  0.10000000000E+01 0.  0.
<mgrwt>
<rscale>  0 0.12500145E+03</rscale>
<asrwt>0</asrwt>
<pdfrwt beam="1">  1        4 0.64081537E-02 0.12500145E+03</pdfrwt>
<pdfrwt beam="2">  1       -4 0.14428145E-01 0.12500145E+03</pdfrwt>
<totfact> 0.10228556E+04</totfact>
</mgrwt>
</event>
<event>
 5    1  0.3286491E-002  0.1250021E+03  0.7818608E-02  0.1235066E+00
          4   -1    0    0  501    0  0.00000000000E+00  0.00000000000E+00  0.18186829054E+02  0.18231117658E+02  0.12700000000E+01 0. -1.
         -4   -1    0    0    0  501 -0.00000000000E+00 -0.00000000000E+00 -0.21448438107E+03  0.21448814098E+03  0.12700000000E+01 0. -1.
         25    2    1    2    0    0  0.00000000000E+00  0.00000000000E+00 -0.19629755201E+03  0.23271925864E+03  0.12500209764E+03 0.  0.
    9000005    1    3    3    0    0 -0.10535576932E+02 -0.28705557765E+02  0.33172304452E+01  0.30773551075E+02  0.10000000000E+01 0.  0.
    9000005    1    3    3    0    0  0.10535576932E+02  0.28705557765E+02 -0.19961478246E+03  0.20194570757E+03  0.10000000000E+01 0.  0.
<mgrwt>
<rscale>  0 0.12500210E+03</rscale>
<asrwt>0</asrwt>
<pdfrwt beam="1">  1        4 0.28016699E-02 0.12500210E+03</pdfrwt>
<pdfrwt beam="2">  1       -4 0.33001291E-01 0.12500210E+03</pdfrwt>
<totfact> 0.84889822E+03</totfact>
</mgrwt>
</event>
<event>
 5    1  0.3286491E-002  0.1250102E+03  0.7818608E-02  0.1235053E+00
         -4   -1    0    0    0  501 -0.00000000000E+00  0.00000000000E+00  0.19199635195E+02  0.19241592752E+02  0.12700000000E+01 0.  1.
          4   -1    0    0  501    0  0.00000000000E+00 -0.00000000000E+00 -0.20322143600E+03  0.20322540429E+03  0.12700000000E+01 0.  1.
         25    2    1    2    0    0  0.00000000000E+00  0.00000000000E+00 -0.18402180080E+03  0.22246699704E+03  0.12501016600E+03 0.  0.
    9000005    1    3    3    0    0  0.48514513793E+02 -0.39008403267E+02 -0.82171220867E+02  0.10309424384E+03  0.10000000000E+01 0.  0.
    9000005    1    3    3    0    0 -0.48514513793E+02  0.39008403267E+02 -0.10185057993E+03  0.11937275320E+03  0.10000000000E+01 0.  0.
<mgrwt>
<rscale>  0 0.12501017E+03</rscale>
<asrwt>0</asrwt>
<pdfrwt beam="2">  1        4 0.31268368E-01 0.12501017E+03</pdfrwt>
<pdfrwt beam="1">  1       -4 0.29573229E-02 0.12501017E+03</pdfrwt>
<totfact> 0.86459849E+03</totfact>
</mgrwt>
</event>
<event>
 5    1  0.3286491E-002  0.1249994E+03  0.7818608E-02  0.1235070E+00
         -4   -1    0    0    0  501 -0.00000000000E+00  0.00000000000E+00  0.17638457935E+02  0.17684119948E+02  0.12700000000E+01 0.  1.
          4   -1    0    0  501    0  0.00000000000E+00 -0.00000000000E+00 -0.22112614096E+03  0.22112978794E+03  0.12700000000E+01 0.  1.
         25    2    1    2    0    0  0.00000000000E+00  0.00000000000E+00 -0.20348768302E+03  0.23881390789E+03  0.12499938183E+03 0.  0.
    9000005    1    3    3    0    0 -0.47060276969E+02 -0.40776101802E+02 -0.11182647192E+03  0.12799812486E+03  0.10000000000E+01 0.  0.
    9000005    1    3    3    0    0  0.47060276969E+02  0.40776101802E+02 -0.91661211104E+02  0.11081578303E+03  0.10000000000E+01 0.  0.
<mgrwt>
<rscale>  0 0.12499938E+03</rscale>
<asrwt>0</asrwt>
<pdfrwt beam="2">  1        4 0.34023197E-01 0.12499938E+03</pdfrwt>
<pdfrwt beam="1">  1       -4 0.27174021E-02 0.12499938E+03</pdfrwt>
<totfact> 0.83975491E+03</totfact>
</mgrwt>
</event>
<event>
 5    1  0.3286491E-002  0.1249925E+03  0.7818608E-02  0.1235081E+00
         -4   -1    0    0    0  501 -0.00000000000E+00  0.00000000000E+00  0.65446786663E+01  0.66667622460E+01  0.12700000000E+01 0. -1.
          4   -1    0    0  501    0  0.00000000000E+00 -0.00000000000E+00 -0.59115009379E+03  0.59115145799E+03  0.12700000000E+01 0. -1.
         25    2    1    2    0    0  0.00000000000E+00  0.00000000000E+00 -0.58460541512E+03  0.59781822024E+03  0.12499253201E+03 0.  0.
    9000005    1    3    3    0    0 -0.61519531976E+02 -0.95203539062E+01 -0.31827718687E+03  0.32430950901E+03  0.10000000000E+01 0.  0.
    9000005    1    3    3    0    0  0.61519531976E+02  0.95203539062E+01 -0.26632822825E+03  0.27350871122E+03  0.10000000000E+01 0.  0.
<mgrwt>
<rscale>  0 0.12499253E+03</rscale>
<asrwt>0</asrwt>
<pdfrwt beam="2">  1        4 0.90955623E-01 0.12499253E+03</pdfrwt>
<pdfrwt beam="1">  1       -4 0.10163701E-02 0.12499253E+03</pdfrwt>
<totfact> 0.49013664E+03</totfact>
</mgrwt>
</event>
<event>
 5    1  0.3286491E-002  0.1249967E+03  0.7818608E-02  0.1235075E+00
         -4   -1    0    0    0  501 -0.00000000000E+00  0.00000000000E+00  0.74124319490E+03  0.74124428287E+03  0.12700000000E+01 0.  1.
          4   -1    0    0  501    0  0.00000000000E+00 -0.00000000000E+00 -0.51919534226E+01  0.53450238860E+01  0.12700000000E+01 0.  1.
         25    2    1    2    0    0  0.00000000000E+00  0.00000000000E+00  0.73605124147E+03  0.74658930675E+03  0.12499665148E+03 0.  0.
    9000005    1    3    3    0    0  0.59281656142E+02  0.49713848338E+01  0.25375604049E+03  0.26063798171E+03  0.10000000000E+01 0.  0.
    9000005    1    3    3    0    0 -0.59281656142E+02 -0.49713848338E+01  0.48229520098E+03  0.48595132505E+03  0.10000000000E+01 0.  0.
<mgrwt>
<rscale>  0 0.12499665E+03</rscale>
<asrwt>0</asrwt>
<pdfrwt beam="2">  1        4 0.81062071E-03 0.12499665E+03</pdfrwt>
<pdfrwt beam="1">  1       -4 0.11404923E+00 0.12499665E+03</pdfrwt>
<totfact> 0.40740797E+03</totfact>
</mgrwt>
</event>
<event>
 5    1  0.3286491E-002  0.1249951E+03  0.7818608E-02  0.1235077E+00
         -4   -1    0    0    0  501 -0.00000000000E+00  0.00000000000E+00  0.35817084578E+03  0.35817309735E+03  0.12700000000E+01 0.  1.
          4   -1    0    0  501    0  0.00000000000E+00 -0.00000000000E+00 -0.10865988434E+02  0.10939954508E+02  0.12700000000E+01 0.  1.
         25    2    1    2    0    0  0.00000000000E+00  0.00000000000E+00  0.34730485735E+03  0.36911305186E+03  0.12499512437E+03 0.  0.
    9000005    1    3    3    0    0 -0.49012863119E+02  0.15999876693E+02  0.27791905012E+03  0.28266279420E+03  0.10000000000E+01 0.  0.
    9000005    1    3    3    0    0  0.49012863119E+02 -0.15999876693E+02  0.69385807233E+02  0.86450257667E+02  0.10000000000E+01 0.  0.
<mgrwt>
<rscale>  0 0.12499512E+03</rscale>
<asrwt>0</asrwt>
<pdfrwt beam="2">  1        4 0.16775535E-02 0.12499512E+03</pdfrwt>
<pdfrwt beam="1">  1       -4 0.55109067E-01 0.12499512E+03</pdfrwt>
<totfact> 0.67679126E+03</totfact>
</mgrwt>
</event>
<event>
 5    1  0.3286491E-002  0.1250004E+03  0.7818608E-02  0.1235069E+00
          4   -1    0    0  501    0  0.00000000000E+00  0.00000000000E+00  0.84110757753E+02  0.84120345160E+02  0.12700000000E+01 0. -1.
         -4   -1    0    0    0  501 -0.00000000000E+00 -0.00000000000E+00 -0.46421142763E+02  0.46438511985E+02  0.12700000000E+01 0. -1.
         25    2    1    2    0    0  0.00000000000E+00  0.00000000000E+00  0.37689614990E+02  0.13055885715E+03  0.12500043240E+03 0.  0.
    9000005    1    3    3    0    0  0.25951151856E+02  0.56476656892E+02  0.25629984485E+02  0.67238167443E+02  0.10000000000E+01 0.  0.
    9000005    1    3    3    0    0 -0.25951151856E+02 -0.56476656892E+02  0.12059630505E+02  0.63320689702E+02  0.10000000000E+01 0.  0.
<mgrwt>
<rscale>  0 0.12500043E+03</rscale>
<asrwt>0</asrwt>
<pdfrwt beam="1">  1        4 0.12942190E-01 0.12500043E+03</pdfrwt>
<pdfrwt beam="2">  1       -4 0.71437879E-02 0.12500043E+03</pdfrwt>
<totfact> 0.10332455E+04</totfact>
</mgrwt>
</event>
<event>
 5    1  0.3286491E-002  0.1250035E+03  0.7818608E-02  0.1235064E+00
         -4   -1    0    0    0  501 -0.00000000000E+00  0.00000000000E+00  0.34991893608E+02  0.35014932790E+02  0.12700000000E+01 0.  1.
          4   -1    0    0  501    0  0.00000000000E+00 -0.00000000000E+00 -0.11157587460E+03  0.11158310219E+03  0.12700000000E+01 0.  1.
         25    2    1    2    0    0  0.00000000000E+00  0.00000000000E+00 -0.76583980996E+02  0.14659803498E+03  0.12500351081E+03 0.  0.
    9000005    1    3    3    0    0  0.17133999502E+02 -0.26778721178E+02 -0.10138988809E+03  0.10626186171E+03  0.10000000000E+01 0.  0.
    9000005    1    3    3    0    0 -0.17133999502E+02  0.26778721178E+02  0.24805907096E+02  0.40336173266E+02  0.10000000000E+01 0.  0.
<mgrwt>
<rscale>  0 0.12500351E+03</rscale>
<asrwt>0</asrwt>
<pdfrwt beam="2">  1        4 0.17167847E-01 0.12500351E+03</pdfrwt>
<pdfrwt beam="1">  1       -4 0.53856965E-02 0.12500351E+03</pdfrwt>
<totfact> 0.99978302E+03</totfact>
</mgrwt>
</event>
<event>
 5    1  0.3286491E-002  0.1249974E+03  0.7818608E-02  0.1235073E+00
         -4   -1    0    0    0  501 -0.00000000000E+00  0.00000000000E+00  0.21859892479E+01  0.25281315219E+01  0.12700000000E+01 0. -1.
          4   -1    0    0  501    0  0.00000000000E+00 -0.00000000000E+00 -0.16568431882E+04  0.16568436749E+04  0.12700000000E+01 0. -1.
         25    2    1    2    0    0  0.00000000000E+00  0.00000000000E+00 -0.16546571989E+04  0.16593718064E+04  0.12499738410E+03 0.  0.
    9000005    1    3    3    0    0 -0.76916323116E+01 -0.49124436460E+02 -0.32484407254E+03  0.32862903543E+03  0.10000000000E+01 0.  0.
    9000005    1    3    3    0    0  0.76916323116E+01  0.49124436460E+02 -0.13298131264E+04  0.13307427710E+04  0.10000000000E+01 0.  0.
<mgrwt>
<rscale>  0 0.12499738E+03</rscale>
<asrwt>0</asrwt>
<pdfrwt beam="2">  1        4 0.25492438E+00 0.12499738E+03</pdfrwt>
<pdfrwt beam="1">  1       -4 0.36266344E-03 0.12499738E+03</pdfrwt>
<totfact> 0.14998104E+03</totfact>
</mgrwt>
</event>
<event>
 5    1  0.3286491E-002  0.1250023E+03  0.7818608E-02  0.1235066E+00
         -4   -1    0    0    0  501 -0.00000000000E+00  0.00000000000E+00  0.62158204811E+02  0.62171177609E+02  0.12700000000E+01 0.  1.
          4   -1    0    0  501    0  0.00000000000E+00 -0.00000000000E+00 -0.62819996437E+02  0.62832832599E+02  0.12700000000E+01 0.  1.
         25    2    1    2    0    0  0.00000000000E+00  0.00000000000E+00 -0.66179162629E+00  0.12500401021E+03  0.12500225838E+03 0.  0.
    9000005    1    3    3    0    0  0.37149496845E+02 -0.27947147474E+01  0.49844458360E+02  0.62236368592E+02  0.10000000000E+01 0.  0.
    9000005    1    3    3    0    0 -0.37149496845E+02  0.27947147474E+01 -0.50506249986E+02  0.62767641616E+02  0.10000000000E+01 0.  0.
<mgrwt>
<rscale>  0 0.12500226E+03</rscale>
<asrwt>0</asrwt>
<pdfrwt beam="2">  1        4 0.96666001E-02 0.12500226E+03</pdfrwt>
<pdfrwt beam="1">  1       -4 0.95647861E-02 0.12500226E+03</pdfrwt>
<totfact> 0.10452242E+04</totfact>
</mgrwt>
</event>
<event>
 5    1  0.3286491E-002  0.1250004E+03  0.7818608E-02  0.1235069E+00
          4   -1    0    0  501    0  0.00000000000E+00  0.00000000000E+00  0.52923157863E+01  0.54425643204E+01  0.12700000000E+01 0. -1.
         -4   -1    0    0    0  501 -0.00000000000E+00 -0.00000000000E+00 -0.72762129139E+03  0.72762239973E+03  0.12700000000E+01 0. -1.
         25    2    1    2    0    0  0.00000000000E+00  0.00000000000E+00 -0.72232897561E+03  0.73306496405E+03  0.12500037007E+03 0.  0.
    9000005    1    3    3    0    0 -0.37969874716E+02  0.45563165596E+02 -0.47661622212E+03  0.48029338600E+03  0.10000000000E+01 0.  0.
    9000005    1    3    3    0    0  0.37969874716E+02 -0.45563165596E+02 -0.24571275348E+03  0.25277157805E+03  0.10000000000E+01 0.  0.
<mgrwt>
<rscale>  0 0.12500037E+03</rscale>
<asrwt>0</asrwt>
<pdfrwt beam="1">  1        4 0.82584584E-03 0.12500037E+03</pdfrwt>
<pdfrwt beam="2">  1       -4 0.11195330E+00 0.12500037E+03</pdfrwt>
<totfact> 0.41397223E+03</totfact>
</mgrwt>
</event>
<event>
 5    1  0.3286491E-002  0.1250005E+03  0.7818608E-02  0.1235069E+00
         -4   -1    0    0    0  501 -0.00000000000E+00  0.00000000000E+00  0.13853158595E+03  0.13853740725E+03  0.12700000000E+01 0.  1.
          4   -1    0    0  501    0  0.00000000000E+00 -0.00000000000E+00 -0.28177039738E+02  0.28205646037E+02  0.12700000000E+01 0.  1.
         25    2    1    2    0    0  0.00000000000E+00  0.00000000000E+00  0.11035454622E+03  0.16674305329E+03  0.12500047979E+03 0.  0.
    9000005    1    3    3    0    0 -0.37670577542E+02 -0.36110943661E+02  0.93121152827E+01  0.53016866707E+02  0.10000000000E+01 0.  0.
    9000005    1    3    3    0    0  0.37670577542E+02  0.36110943661E+02  0.10104243093E+03  0.11372618658E+03  0.10000000000E+01 0.  0.
<mgrwt>
<rscale>  0 0.12500048E+03</rscale>
<asrwt>0</asrwt>
<pdfrwt beam="2">  1        4 0.43375774E-02 0.12500048E+03</pdfrwt>
<pdfrwt beam="1">  1       -4 0.21315200E-01 0.12500048E+03</pdfrwt>
<totfact> 0.96057265E+03</totfact>
</mgrwt>
</event>
<event>
 5    1  0.3286491E-002  0.1250067E+03  0.7818608E-02  0.1235059E+00
         -4   -1    0    0    0  501 -0.00000000000E+00  0.00000000000E+00  0.46484405228E+02  0.46501750821E+02  0.12700000000E+01 0. -1.
          4   -1    0    0  501    0  0.00000000000E+00 -0.00000000000E+00 -0.84004776803E+02  0.84014376304E+02  0.12700000000E+01 0. -1.
         25    2    1    2    0    0  0.00000000000E+00  0.00000000000E+00 -0.37520371575E+02  0.13051612713E+03  0.12500672445E+03 0.  0.
    9000005    1    3    3    0    0  0.27399180601E+02  0.56128732315E+02 -0.16540309079E+02  0.64619900289E+02  0.10000000000E+01 0.  0.
    9000005    1    3    3    0    0 -0.27399180601E+02 -0.56128732315E+02 -0.20980062496E+02  0.65896226836E+02  0.10000000000E+01 0.  0.
<mgrwt>
<rscale>  0 0.12500672E+03</rscale>
<asrwt>0</asrwt>
<pdfrwt beam="2">  1        4 0.12925885E-01 0.12500672E+03</pdfrwt>
<pdfrwt beam="1">  1       -4 0.71535197E-02 0.12500672E+03</pdfrwt>
<totfact> 0.10331906E+04</totfact>
</mgrwt>
</event>
<event>
 5    1  0.3286491E-002  0.1250227E+03  0.7818608E-02  0.1235034E+00
          4   -1    0    0  501    0  0.00000000000E+00  0.00000000000E+00  0.68754115684E+02  0.68765844163E+02  0.12700000000E+01 0. -1.
         -4   -1    0    0    0  501 -0.00000000000E+00 -0.00000000000E+00 -0.56811709780E+02  0.56825903144E+02  0.12700000000E+01 0. -1.
         25    2    1    2    0    0  0.00000000000E+00  0.00000000000E+00  0.11942405904E+02  0.12559174731E+03  0.12502266168E+03 0.  0.
    9000005    1    3    3    0    0  0.35982362914E+02 -0.45538417667E+02  0.29275692379E+02  0.65011876521E+02  0.10000000000E+01 0.  0.
    9000005    1    3    3    0    0 -0.35982362914E+02  0.45538417667E+02 -0.17333286475E+02  0.60579870786E+02  0.10000000000E+01 0.  0.
<mgrwt>
<rscale>  0 0.12502266E+03</rscale>
<asrwt>0</asrwt>
<pdfrwt beam="1">  1        4 0.10579550E-01 0.12502266E+03</pdfrwt>
<pdfrwt beam="2">  1       -4 0.87422570E-02 0.12502266E+03</pdfrwt>
<totfact> 0.10434594E+04</totfact>
</mgrwt>
</event>
<event>
 5    1  0.3286491E-002  0.1250011E+03  0.7818608E-02  0.1235068E+00
         -4   -1    0    0    0  501 -0.00000000000E+00  0.00000000000E+00  0.64086798043E+02  0.64099380523E+02  0.12700000000E+01 0. -1.
          4   -1    0    0  501    0  0.00000000000E+00 -0.00000000000E+00 -0.60928391562E+02  0.60941626155E+02  0.12700000000E+01 0. -1.
         25    2    1    2    0    0  0.00000000000E+00  0.00000000000E+00  0.31584064812E+01  0.12504100668E+03  0.12500111127E+03 0.  0.
    9000005    1    3    3    0    0 -0.59302057858E+02 -0.25552066114E+01 -0.17973295865E+02  0.62026627437E+02  0.10000000000E+01 0.  0.
    9000005    1    3    3    0    0  0.59302057858E+02  0.25552066114E+01  0.21131702346E+02  0.63014379240E+02  0.10000000000E+01 0.  0.
<mgrwt>
<rscale>  0 0.12500111E+03</rscale>
<asrwt>0</asrwt>
<pdfrwt beam="2">  1        4 0.93755846E-02 0.12500111E+03</pdfrwt>
<pdfrwt beam="1">  1       -4 0.98614933E-02 0.12500111E+03</pdfrwt>
<totfact> 0.10451709E+04</totfact>
</mgrwt>
</event>
<event>
 5    1  0.3286491E-002  0.1250002E+03  0.7818608E-02  0.1235069E+00
         -4   -1    0    0    0  501 -0.00000000000E+00  0.00000000000E+00  0.47885446274E+02  0.47902284548E+02  0.12700000000E+01 0. -1.
          4   -1    0    0  501    0  0.00000000000E+00 -0.00000000000E+00 -0.81538977145E+02  0.81548866907E+02  0.12700000000E+01 0. -1.
         25    2    1    2    0    0  0.00000000000E+00  0.00000000000E+00 -0.33653530870E+02  0.12945115145E+03  0.12500016189E+03 0.  0.
    9000005    1    3    3    0    0  0.14613991715E+02  0.50923478343E+02 -0.51150421226E+02  0.73648727022E+02  0.10000000000E+01 0.  0.
    9000005    1    3    3    0    0 -0.14613991715E+02 -0.50923478343E+02  0.17496890356E+02  0.55802424432E+02  0.10000000000E+01 0.  0.
<mgrwt>
<rscale>  0 0.12500016E+03</rscale>
<asrwt>0</asrwt>
<pdfrwt beam="2">  1        4 0.12546514E-01 0.12500016E+03</pdfrwt>
<pdfrwt beam="1">  1       -4 0.73690477E-02 0.12500016E+03</pdfrwt>
<totfact> 0.10356225E+04</totfact>
</mgrwt>
</event>
<event>
 5    1  0.3286491E-002  0.1249986E+03  0.7818608E-02  0.1235072E+00
         -4   -1    0    0    0  501 -0.00000000000E+00  0.00000000000E+00  0.13723656509E+03  0.13724244131E+03  0.12700000000E+01 0. -1.
          4   -1    0    0  501    0  0.00000000000E+00 -0.00000000000E+00 -0.28442311582E+02  0.28470651347E+02  0.12700000000E+01 0. -1.
         25    2    1    2    0    0  0.00000000000E+00  0.00000000000E+00  0.10879425350E+03  0.16571309266E+03  0.12499855792E+03 0.  0.
    9000005    1    3    3    0    0  0.39513632163E+02  0.48369261839E+02  0.57129285231E+02  0.84650267859E+02  0.10000000000E+01 0.  0.
    9000005    1    3    3    0    0 -0.39513632163E+02 -0.48369261839E+02  0.51664968273E+02  0.81062824798E+02  0.10000000000E+01 0.  0.
<mgrwt>
<rscale>  0 0.12499856E+03</rscale>
<asrwt>0</asrwt>
<pdfrwt beam="2">  1        4 0.43783723E-02 0.12499856E+03</pdfrwt>
<pdfrwt beam="1">  1       -4 0.21115950E-01 0.12499856E+03</pdfrwt>
<totfact> 0.96255632E+03</totfact>
</mgrwt>
</event>
<event>
 5    1  0.3286491E-002  0.1249990E+03  0.7818608E-02  0.1235071E+00
         -4   -1    0    0    0  501 -0.00000000000E+00  0.00000000000E+00  0.17448396078E+02  0.17494554173E+02  0.12700000000E+01 0.  1.
          4   -1    0    0  501    0  0.00000000000E+00 -0.00000000000E+00 -0.22352728213E+03  0.22353088994E+03  0.12700000000E+01 0.  1.
         25    2    1    2    0    0  0.00000000000E+00  0.00000000000E+00 -0.20607888605E+03  0.24102544411E+03  0.12499902973E+03 0.  0.
    9000005    1    3    3    0    0  0.52614055372E+02  0.24431317062E+02 -0.14784973476E+03  0.15882591774E+03  0.10000000000E+01 0.  0.
    9000005    1    3    3    0    0 -0.52614055372E+02 -0.24431317062E+02 -0.58229151292E+02  0.82199526375E+02  0.10000000000E+01 0.  0.
<mgrwt>
<rscale>  0 0.12499903E+03</rscale>
<asrwt>0</asrwt>
<pdfrwt beam="2">  1        4 0.34392639E-01 0.12499903E+03</pdfrwt>
<pdfrwt beam="1">  1       -4 0.26881969E-02 0.12499903E+03</pdfrwt>
<totfact> 0.83646692E+03</totfact>
</mgrwt>
</event>
<event>
 5    1  0.3286491E-002  0.1250018E+03  0.7818608E-02  0.1235066E+00
          4   -1    0    0  501    0  0.00000000000E+00  0.00000000000E+00  0.36313691657E+02  0.36335892747E+02  0.12700000000E+01 0.  1.
         -4   -1    0    0    0  501 -0.00000000000E+00 -0.00000000000E+00 -0.10751389675E+03  0.10752139738E+03  0.12700000000E+01 0.  1.
         25    2    1    2    0    0  0.00000000000E+00  0.00000000000E+00 -0.71200205092E+02  0.14385729012E+03  0.12500180285E+03 0.  0.
    9000005    1    3    3    0    0 -0.56507923896E+02  0.22044460115E+02 -0.52910957787E+02  0.80496416931E+02  0.10000000000E+01 0.  0.
    9000005    1    3    3    0    0  0.56507923896E+02 -0.22044460115E+02 -0.18289247305E+02  0.63360873193E+02  0.10000000000E+01 0.  0.
<mgrwt>
<rscale>  0 0.12500180E+03</rscale>
<asrwt>0</asrwt>
<pdfrwt beam="1">  1        4 0.55890066E-02 0.12500180E+03</pdfrwt>
<pdfrwt beam="2">  1       -4 0.16542884E-01 0.12500180E+03</pdfrwt>
<totfact> 0.10053849E+04</totfact>
</mgrwt>
</event>
<event>
 5    1  0.3286491E-002  0.1249866E+03  0.7818608E-02  0.1235090E+00
          4   -1    0    0  501    0  0.00000000000E+00  0.00000000000E+00  0.81843788831E+02  0.81853641765E+02  0.12700000000E+01 0. -1.
         -4   -1    0    0    0  501 -0.00000000000E+00 -0.00000000000E+00 -0.47696742075E+02  0.47713646943E+02  0.12700000000E+01 0. -1.
         25    2    1    2    0    0  0.00000000000E+00  0.00000000000E+00  0.34147046756E+02  0.12956728871E+03  0.12498664529E+03 0.  0.
    9000005    1    3    3    0    0 -0.36415981680E+02  0.15517589864E+02 -0.33046031238E+02  0.51574795177E+02  0.10000000000E+01 0.  0.
    9000005    1    3    3    0    0  0.36415981680E+02 -0.15517589864E+02  0.67193077995E+02  0.77992493532E+02  0.10000000000E+01 0.  0.
<mgrwt>
<rscale>  0 0.12498665E+03</rscale>
<asrwt>0</asrwt>
<pdfrwt beam="1">  1        4 0.12593410E-01 0.12498665E+03</pdfrwt>
<pdfrwt beam="2">  1       -4 0.73400187E-02 0.12498665E+03</pdfrwt>
<totfact> 0.10356895E+04</totfact>
</mgrwt>
</event>
<event>
 5    1  0.3286491E-002  0.1250020E+03  0.7818608E-02  0.1235066E+00
          4   -1    0    0  501    0  0.00000000000E+00  0.00000000000E+00  0.39939379515E+03  0.39939581433E+03  0.12700000000E+01 0.  1.
         -4   -1    0    0    0  501 -0.00000000000E+00 -0.00000000000E+00 -0.97374850304E+01  0.98199549244E+01  0.12700000000E+01 0.  1.
         25    2    1    2    0    0  0.00000000000E+00  0.00000000000E+00  0.38965631012E+03  0.40921576925E+03  0.12500202315E+03 0.  0.
    9000005    1    3    3    0    0 -0.51808749678E+02 -0.22420217407E+02  0.28258236747E+03  0.28816767185E+03  0.10000000000E+01 0.  0.
    9000005    1    3    3    0    0  0.51808749678E+02  0.22420217407E+02  0.10707394265E+03  0.12104809741E+03  0.10000000000E+01 0.  0.
<mgrwt>
<rscale>  0 0.12500202E+03</rscale>
<asrwt>0</asrwt>
<pdfrwt beam="1">  1        4 0.61451695E-01 0.12500202E+03</pdfrwt>
<pdfrwt beam="2">  1       -4 0.15045739E-02 0.12500202E+03</pdfrwt>
<totfact> 0.63663394E+03</totfact>
</mgrwt>
</event>
<event>
 5    1  0.3286491E-002  0.1250022E+03  0.7818608E-02  0.1235066E+00
          4   -1    0    0  501    0  0.00000000000E+00  0.00000000000E+00  0.26846327074E+03  0.26846627467E+03  0.12700000000E+01 0.  1.
         -4   -1    0    0    0  501 -0.00000000000E+00 -0.00000000000E+00 -0.14520112469E+02  0.14575546854E+02  0.12700000000E+01 0.  1.
         25    2    1    2    0    0  0.00000000000E+00  0.00000000000E+00  0.25394315827E+03  0.28304182153E+03  0.12500218038E+03 0.  0.
    9000005    1    3    3    0    0  0.90327100338E+01  0.53781119982E+02  0.57868366533E+02  0.79521987917E+02  0.10000000000E+01 0.  0.
    9000005    1    3    3    0    0 -0.90327100338E+01 -0.53781119982E+02  0.19607479174E+03  0.20351983361E+03  0.10000000000E+01 0.  0.
<mgrwt>
<rscale>  0 0.12500218E+03</rscale>
<asrwt>0</asrwt>
<pdfrwt beam="1">  1        4 0.41306530E-01 0.12500218E+03</pdfrwt>
<pdfrwt beam="2">  1       -4 0.22383591E-02 0.12500218E+03</pdfrwt>
<totfact> 0.77772738E+03</totfact>
</mgrwt>
</event>
<event>
 5    1  0.3286491E-002  0.1250004E+03  0.7818608E-02  0.1235069E+00
         -4   -1    0    0    0  501 -0.00000000000E+00  0.00000000000E+00  0.15242321677E+02  0.15295138774E+02  0.12700000000E+01 0.  1.
          4   -1    0    0  501    0  0.00000000000E+00 -0.00000000000E+00 -0.25578036402E+03  0.25578351690E+03  0.12700000000E+01 0.  1.
         25    2    1    2    0    0  0.00000000000E+00  0.00000000000E+00 -0.24053804235E+03  0.27107865568E+03  0.12500035099E+03 0.  0.
    9000005    1    3    3    0    0  0.51417990774E+02  0.35259908858E+01 -0.43626382668E+02  0.67531501181E+02  0.10000000000E+01 0.  0.
    9000005    1    3    3    0    0 -0.51417990774E+02 -0.35259908858E+01 -0.19691165968E+03  0.20354715450E+03  0.10000000000E+01 0.  0.
<mgrwt>
<rscale>  0 0.12500035E+03</rscale>
<asrwt>0</asrwt>
<pdfrwt beam="2">  1        4 0.39355128E-01 0.12500035E+03</pdfrwt>
<pdfrwt beam="1">  1       -4 0.23492781E-02 0.12500035E+03</pdfrwt>
<totfact> 0.79375418E+03</totfact>
</mgrwt>
</event>
<event>
 5    1  0.3286491E-002  0.1250003E+03  0.7818608E-02  0.1235069E+00
         -4   -1    0    0    0  501 -0.00000000000E+00  0.00000000000E+00  0.43946614218E+02  0.43964961063E+02  0.12700000000E+01 0.  1.
          4   -1    0    0  501    0  0.00000000000E+00 -0.00000000000E+00 -0.88845234388E+02  0.88854310944E+02  0.12700000000E+01 0.  1.
         25    2    1    2    0    0  0.00000000000E+00  0.00000000000E+00 -0.44898620169E+02  0.13281927201E+03  0.12500029169E+03 0.  0.
    9000005    1    3    3    0    0  0.33107624487E+02 -0.23404940001E+02  0.28079042023E+02  0.49328882174E+02  0.10000000000E+01 0.  0.
    9000005    1    3    3    0    0 -0.33107624487E+02  0.23404940001E+02 -0.72977662192E+02  0.83490389834E+02  0.10000000000E+01 0.  0.
<mgrwt>
<rscale>  0 0.12500029E+03</rscale>
<asrwt>0</asrwt>
<pdfrwt beam="2">  1        4 0.13670607E-01 0.12500029E+03</pdfrwt>
<pdfrwt beam="1">  1       -4 0.67631271E-02 0.12500029E+03</pdfrwt>
<totfact> 0.10284175E+04</totfact>
</mgrwt>
</event>
<event>
 5    1  0.3286491E-002  0.1249999E+03  0.7818608E-02  0.1235069E+00
          4   -1    0    0  501    0  0.00000000000E+00  0.00000000000E+00  0.56532667825E+02  0.56546931229E+02  0.12700000000E+01 0. -1.
         -4   -1    0    0    0  501 -0.00000000000E+00 -0.00000000000E+00 -0.69068332020E+02  0.69080007151E+02  0.12700000000E+01 0. -1.
         25    2    1    2    0    0  0.00000000000E+00  0.00000000000E+00 -0.12535664195E+02  0.12562693838E+03  0.12499993908E+03 0.  0.
    9000005    1    3    3    0    0 -0.53191542947E+02 -0.16145972191E+02  0.22427328842E+02  0.59950127090E+02  0.10000000000E+01 0.  0.
    9000005    1    3    3    0    0  0.53191542947E+02  0.16145972191E+02 -0.34962993037E+02  0.65676811290E+02  0.10000000000E+01 0.  0.
<mgrwt>
<rscale>  0 0.12499994E+03</rscale>
<asrwt>0</asrwt>
<pdfrwt beam="1">  1        4 0.86993287E-02 0.12499994E+03</pdfrwt>
<pdfrwt beam="2">  1       -4 0.10627893E-01 0.12499994E+03</pdfrwt>
<totfact> 0.10439168E+04</totfact>
</mgrwt>
</event>
<event>
 5    1  0.3286491E-002  0.1250001E+03  0.7818608E-02  0.1235069E+00
         -4   -1    0    0    0  501 -0.00000000000E+00  0.00000000000E+00  0.43922989676E+03  0.43923173281E+03  0.12700000000E+01 0. -1.
          4   -1    0    0  501    0  0.00000000000E+00 -0.00000000000E+00 -0.88462159373E+01  0.89369142555E+01  0.12700000000E+01 0. -1.
         25    2    1    2    0    0  0.00000000000E+00  0.00000000000E+00  0.43038368082E+03  0.44816864707E+03  0.12500009398E+03 0.  0.
    9000005    1    3    3    0    0 -0.18513166819E+02 -0.59685198194E+02  0.21360597993E+03  0.22256139578E+03  0.10000000000E+01 0.  0.
    9000005    1    3    3    0    0  0.18513166819E+02  0.59685198194E+02  0.21677770089E+03  0.22560725129E+03  0.10000000000E+01 0.  0.
<mgrwt>
<rscale>  0 0.12500009E+03</rscale>
<asrwt>0</asrwt>
<pdfrwt beam="2">  1        4 0.13680742E-02 0.12500009E+03</pdfrwt>
<pdfrwt beam="1">  1       -4 0.67580952E-01 0.12500009E+03</pdfrwt>
<totfact> 0.60122645E+03</totfact>
</mgrwt>
</event>
<event>
 5    1  0.3286491E-002  0.1250007E+03  0.7818608E-02  0.1235068E+00
          4   -1    0    0  501    0  0.00000000000E+00  0.00000000000E+00  0.24369272456E+02  0.24402342921E+02  0.12700000000E+01 0. -1.
         -4   -1    0    0    0  501 -0.00000000000E+00 -0.00000000000E+00 -0.16015158061E+03  0.16015661607E+03  0.12700000000E+01 0. -1.
         25    2    1    2    0    0  0.00000000000E+00  0.00000000000E+00 -0.13578230815E+03  0.18455895899E+03  0.12500069655E+03 0.  0.
    9000005    1    3    3    0    0 -0.34438409101E+02 -0.52044258877E+02 -0.63064985832E+02  0.88728807844E+02  0.10000000000E+01 0.  0.
    9000005    1    3    3    0    0  0.34438409101E+02  0.52044258877E+02 -0.72717322321E+02  0.95830151148E+02  0.10000000000E+01 0.  0.
<mgrwt>
<rscale>  0 0.12500070E+03</rscale>
<asrwt>0</asrwt>
<pdfrwt beam="1">  1        4 0.37520502E-02 0.12500070E+03</pdfrwt>
<pdfrwt beam="2">  1       -4 0.24641635E-01 0.12500070E+03</pdfrwt>
<totfact> 0.92801305E+03</totfact>
</mgrwt>
</event>
<event>
 5    1  0.3286491E-002  0.1250012E+03  0.7818608E-02  0.1235067E+00
          4   -1    0    0  501    0  0.00000000000E+00  0.00000000000E+00  0.77027717512E+02  0.77038186408E+02  0.12700000000E+01 0. -1.
         -4   -1    0    0    0  501 -0.00000000000E+00 -0.00000000000E+00 -0.50691365012E+02  0.50707271537E+02  0.12700000000E+01 0. -1.
         25    2    1    2    0    0  0.00000000000E+00  0.00000000000E+00  0.26336352500E+02  0.12774545795E+03  0.12500119425E+03 0.  0.
    9000005    1    3    3    0    0 -0.59635933530E+02  0.17587176919E+02  0.67395029095E+01  0.62547376119E+02  0.10000000000E+01 0.  0.
    9000005    1    3    3    0    0  0.59635933530E+02 -0.17587176919E+02  0.19596849590E+02  0.65198081826E+02  0.10000000000E+01 0.  0.
<mgrwt>
<rscale>  0 0.12500119E+03</rscale>
<asrwt>0</asrwt>
<pdfrwt beam="1">  1        4 0.11852447E-01 0.12500119E+03</pdfrwt>
<pdfrwt beam="2">  1       -4 0.78007004E-02 0.12500119E+03</pdfrwt>
<totfact> 0.10392708E+04</totfact>
</mgrwt>
</event>
<event>
 5    1  0.3286491E-002  0.1250002E+03  0.7818608E-02  0.1235069E+00
          4   -1    0    0  501    0  0.00000000000E+00  0.00000000000E+00  0.37353022039E+02  0.37374605757E+02  0.12700000000E+01 0.  1.
         -4   -1    0    0    0  501 -0.00000000000E+00 -0.00000000000E+00 -0.10452123332E+03  0.10452894869E+03  0.12700000000E+01 0.  1.
         25    2    1    2    0    0  0.00000000000E+00  0.00000000000E+00 -0.67168211282E+02  0.14190355445E+03  0.12500020064E+03 0.  0.
    9000005    1    3    3    0    0  0.46737501515E+02 -0.36532994445E+02 -0.55893801585E+02  0.81511783115E+02  0.10000000000E+01 0.  0.
    9000005    1    3    3    0    0 -0.46737501515E+02  0.36532994445E+02 -0.11274409697E+02  0.60391771335E+02  0.10000000000E+01 0.  0.
<mgrwt>
<rscale>  0 0.12500020E+03</rscale>
<asrwt>0</asrwt>
<pdfrwt beam="1">  1        4 0.57488726E-02 0.12500020E+03</pdfrwt>
<pdfrwt beam="2">  1       -4 0.16082443E-01 0.12500020E+03</pdfrwt>
<totfact> 0.10094239E+04</totfact>
</mgrwt>
</event>
<event>
 5    1  0.3286491E-002  0.1249990E+03  0.7818608E-02  0.1235071E+00
          4   -1    0    0  501    0  0.00000000000E+00  0.00000000000E+00  0.11057849518E+03  0.11058578795E+03  0.12700000000E+01 0. -1.
         -4   -1    0    0    0  501 -0.00000000000E+00 -0.00000000000E+00 -0.35305143424E+02  0.35327978321E+02  0.12700000000E+01 0. -1.
         25    2    1    2    0    0  0.00000000000E+00  0.00000000000E+00  0.75273351760E+02  0.14591376627E+03  0.12499899881E+03 0.  0.
    9000005    1    3    3    0    0  0.38690422199E+01  0.60608741525E+02  0.20448976141E+02  0.64090168217E+02  0.10000000000E+01 0.  0.
    9000005    1    3    3    0    0 -0.38690422199E+01 -0.60608741525E+02  0.54824375620E+02  0.81823598057E+02  0.10000000000E+01 0.  0.
<mgrwt>
<rscale>  0 0.12499900E+03</rscale>
<asrwt>0</asrwt>
<pdfrwt beam="1">  1        4 0.17014393E-01 0.12499900E+03</pdfrwt>
<pdfrwt beam="2">  1       -4 0.54338782E-02 0.12499900E+03</pdfrwt>
<totfact> 0.10012681E+04</totfact>
</mgrwt>
</event>
<event>
 5    1  0.3286491E-002  0.1249984E+03  0.7818608E-02  0.1235072E+00
          4   -1    0    0  501    0  0.00000000000E+00  0.00000000000E+00  0.16922031783E+03  0.16922508344E+03  0.12700000000E+01 0.  1.
         -4   -1    0    0    0  501 -0.00000000000E+00 -0.00000000000E+00 -0.23060658937E+02  0.23095603274E+02  0.12700000000E+01 0.  1.
         25    2    1    2    0    0  0.00000000000E+00  0.00000000000E+00  0.14615965889E+03  0.19232068671E+03  0.12499840260E+03 0.  0.
    9000005    1    3    3    0    0 -0.77515009713E+01  0.17037379021E+02 -0.18653813768E+02  0.26444712502E+02  0.10000000000E+01 0.  0.
    9000005    1    3    3    0    0  0.77515009713E+01 -0.17037379021E+02  0.16481347266E+03  0.16587597421E+03  0.10000000000E+01 0.  0.
<mgrwt>
<rscale>  0 0.12499840E+03</rscale>
<asrwt>0</asrwt>
<pdfrwt beam="1">  1        4 0.26036950E-01 0.12499840E+03</pdfrwt>
<pdfrwt beam="2">  1       -4 0.35508482E-02 0.12499840E+03</pdfrwt>
<totfact> 0.91448354E+03</totfact>
</mgrwt>
</event>
<event>
 5    1  0.3286491E-002  0.1250036E+03  0.7818608E-02  0.1235064E+00
         -4   -1    0    0    0  501 -0.00000000000E+00  0.00000000000E+00  0.37527243329E+02  0.37548726901E+02  0.12700000000E+01 0.  1.
          4   -1    0    0  501    0  0.00000000000E+00 -0.00000000000E+00 -0.10404184421E+03  0.10404959512E+03  0.12700000000E+01 0.  1.
         25    2    1    2    0    0  0.00000000000E+00  0.00000000000E+00 -0.66514600876E+02  0.14159832203E+03  0.12500357063E+03 0.  0.
    9000005    1    3    3    0    0 -0.47409221712E+02  0.77572346444E+01 -0.78534383173E+02  0.92067683435E+02  0.10000000000E+01 0.  0.
    9000005    1    3    3    0    0  0.47409221712E+02 -0.77572346444E+01  0.12019782297E+02  0.49530638590E+02  0.10000000000E+01 0.  0.
<mgrwt>
<rscale>  0 0.12500357E+03</rscale>
<asrwt>0</asrwt>
<pdfrwt beam="2">  1        4 0.16008686E-01 0.12500357E+03</pdfrwt>
<pdfrwt beam="1">  1       -4 0.57756709E-02 0.12500357E+03</pdfrwt>
<totfact> 0.10099754E+04</totfact>
</mgrwt>
</event>
<event>
 5    1  0.3286491E-002  0.1250233E+03  0.7818608E-02  0.1235033E+00
          4   -1    0    0  501    0  0.00000000000E+00  0.00000000000E+00  0.55109158194E+03  0.55109304530E+03  0.12700000000E+01 0.  1.
         -4   -1    0    0    0  501 -0.00000000000E+00 -0.00000000000E+00 -0.70324990666E+01  0.71462537824E+01  0.12700000000E+01 0.  1.
         25    2    1    2    0    0  0.00000000000E+00  0.00000000000E+00  0.54405908287E+03  0.55823929908E+03  0.12502331539E+03 0.  0.
    9000005    1    3    3    0    0  0.56089105171E+02 -0.17840577067E+02  0.17811056153E+03  0.18758636954E+03  0.10000000000E+01 0.  0.
    9000005    1    3    3    0    0 -0.56089105171E+02  0.17840577067E+02  0.36594852134E+03  0.37065292954E+03  0.10000000000E+01 0.  0.
<mgrwt>
<rscale>  0 0.12502332E+03</rscale>
<asrwt>0</asrwt>
<pdfrwt beam="1">  1        4 0.84792190E-01 0.12502332E+03</pdfrwt>
<pdfrwt beam="2">  1       -4 0.10907858E-02 0.12502332E+03</pdfrwt>
<totfact> 0.51588020E+03</totfact>
</mgrwt>
</event>
<event>
 5    1  0.3286491E-002  0.1249986E+03  0.7818608E-02  0.1235071E+00
         -4   -1    0    0    0  501 -0.00000000000E+00  0.00000000000E+00  0.51162065241E+02  0.51177825468E+02  0.12700000000E+01 0.  1.
          4   -1    0    0  501    0  0.00000000000E+00 -0.00000000000E+00 -0.76316007530E+02  0.76326574044E+02  0.12700000000E+01 0.  1.
         25    2    1    2    0    0  0.00000000000E+00  0.00000000000E+00 -0.25153942290E+02  0.12750439951E+03  0.12499860432E+03 0.  0.
    9000005    1    3    3    0    0 -0.33955029982E+02  0.11510822867E+02 -0.64786216585E+02  0.74051988248E+02  0.10000000000E+01 0.  0.
    9000005    1    3    3    0    0  0.33955029982E+02 -0.11510822867E+02  0.39632274296E+02  0.53452411264E+02  0.10000000000E+01 0.  0.
<mgrwt>
<rscale>  0 0.12499860E+03</rscale>
<asrwt>0</asrwt>
<pdfrwt beam="2">  1        4 0.11742949E-01 0.12499860E+03</pdfrwt>
<pdfrwt beam="1">  1       -4 0.78731121E-02 0.12499860E+03</pdfrwt>
<totfact> 0.10398533E+04</totfact>
</mgrwt>
</event>
<event>
 5    1  0.3286491E-002  0.1249967E+03  0.7818608E-02  0.1235074E+00
          4   -1    0    0  501    0  0.00000000000E+00  0.00000000000E+00  0.46034506542E+02  0.46052021590E+02  0.12700000000E+01 0. -1.
         -4   -1    0    0    0  501 -0.00000000000E+00 -0.00000000000E+00 -0.84811917650E+02  0.84821425804E+02  0.12700000000E+01 0. -1.
         25    2    1    2    0    0  0.00000000000E+00  0.00000000000E+00 -0.38777411108E+02  0.13087344739E+03  0.12499668644E+03 0.  0.
    9000005    1    3    3    0    0 -0.20407228928E+02 -0.15545298127E+02  0.40272168730E+02  0.47759385052E+02  0.10000000000E+01 0.  0.
    9000005    1    3    3    0    0  0.20407228928E+02  0.15545298127E+02 -0.79049579838E+02  0.83114062342E+02  0.10000000000E+01 0.  0.
<mgrwt>
<rscale>  0 0.12499669E+03</rscale>
<asrwt>0</asrwt>
<pdfrwt beam="1">  1        4 0.70843105E-02 0.12499669E+03</pdfrwt>
<pdfrwt beam="2">  1       -4 0.13050066E-01 0.12499669E+03</pdfrwt>
<totfact> 0.10326575E+04</totfact>
</mgrwt>
</event>
<event>
 5    1  0.3286491E-002  0.1249978E+03  0.7818608E-02  0.1235073E+00
         -4   -1    0    0    0  501 -0.00000000000E+00  0.00000000000E+00  0.47604188018E+02  0.47621125741E+02  0.12700000000E+01 0.  1.
          4   -1    0    0  501    0  0.00000000000E+00 -0.00000000000E+00 -0.82017547814E+02  0.82027379876E+02  0.12700000000E+01 0.  1.
         25    2    1    2    0    0  0.00000000000E+00  0.00000000000E+00 -0.34413359795E+02  0.12964850562E+03  0.12499782269E+03 0.  0.
    9000005    1    3    3    0    0  0.28547131674E+02 -0.49713087483E+02  0.85942078232E+01  0.57975772543E+02  0.10000000000E+01 0.  0.
    9000005    1    3    3    0    0 -0.28547131674E+02  0.49713087483E+02 -0.43007567618E+02  0.71672733074E+02  0.10000000000E+01 0.  0.
<mgrwt>
<rscale>  0 0.12499782E+03</rscale>
<asrwt>0</asrwt>
<pdfrwt beam="2">  1        4 0.12620143E-01 0.12499782E+03</pdfrwt>
<pdfrwt beam="1">  1       -4 0.73257805E-02 0.12499782E+03</pdfrwt>
<totfact> 0.10352541E+04</totfact>
</mgrwt>
</event>
<event>
 5    1  0.3286491E-002  0.1250050E+03  0.7818608E-02  0.1235061E+00
          4   -1    0    0  501    0  0.00000000000E+00  0.00000000000E+00  0.15246232711E+02  0.15299036306E+02  0.12700000000E+01 0. -1.
         -4   -1    0    0    0  501 -0.00000000000E+00 -0.00000000000E+00 -0.25573398081E+03  0.25573713426E+03  0.12700000000E+01 0. -1.
         25    2    1    2    0    0  0.00000000000E+00  0.00000000000E+00 -0.24048774809E+03  0.27103617056E+03  0.12500499498E+03 0.  0.
    9000005    1    3    3    0    0  0.26376858957E+02 -0.61790584812E+01 -0.24235128316E+03  0.24386279729E+03  0.10000000000E+01 0.  0.
    9000005    1    3    3    0    0 -0.26376858957E+02  0.61790584812E+01  0.18635350676E+01  0.27173373274E+02  0.10000000000E+01 0.  0.
<mgrwt>
<rscale>  0 0.12500499E+03</rscale>
<asrwt>0</asrwt>
<pdfrwt beam="1">  1        4 0.23498788E-02 0.12500499E+03</pdfrwt>
<pdfrwt beam="2">  1       -4 0.39347991E-01 0.12500499E+03</pdfrwt>
<totfact> 0.79372994E+03</totfact>
</mgrwt>
</event>
<event>
 5    1  0.3286491E-002  0.1250026E+03  0.7818608E-02  0.1235065E+00
         -4   -1    0    0    0  501 -0.00000000000E+00  0.00000000000E+00  0.73073688593E+03  0.73073798954E+03  0.12700000000E+01 0. -1.
          4   -1    0    0  501    0  0.00000000000E+00 -0.00000000000E+00 -0.52692993678E+01  0.54201859587E+01  0.12700000000E+01 0. -1.
         25    2    1    2    0    0  0.00000000000E+00  0.00000000000E+00  0.72546758656E+03  0.73615817550E+03  0.12500256079E+03 0.  0.
    9000005    1    3    3    0    0  0.15522562169E+02  0.34397119870E+02  0.69379995507E+02  0.78985413642E+02  0.10000000000E+01 0.  0.
    9000005    1    3    3    0    0 -0.15522562169E+02 -0.34397119870E+02  0.65608759106E+03  0.65717276186E+03  0.10000000000E+01 0.  0.
<mgrwt>
<rscale>  0 0.12500256E+03</rscale>
<asrwt>0</asrwt>
<pdfrwt beam="2">  1        4 0.82235357E-03 0.12500256E+03</pdfrwt>
<pdfrwt beam="1">  1       -4 0.11243267E+00 0.12500256E+03</pdfrwt>
<totfact> 0.41242819E+03</totfact>
</mgrwt>
</event>
<event>
 5    1  0.3286491E-002  0.1249966E+03  0.7818608E-02  0.1235075E+00
         -4   -1    0    0    0  501 -0.00000000000E+00  0.00000000000E+00  0.64550833628E+02  0.64563325674E+02  0.12700000000E+01 0. -1.
          4   -1    0    0  501    0  0.00000000000E+00 -0.00000000000E+00 -0.60485999224E+02  0.60499330592E+02  0.12700000000E+01 0. -1.
         25    2    1    2    0    0  0.00000000000E+00  0.00000000000E+00  0.40648344045E+01  0.12506265627E+03  0.12499658041E+03 0.  0.
    9000005    1    3    3    0    0 -0.15951315247E+02  0.60066883386E+02  0.85597711999E+01  0.62743482696E+02  0.10000000000E+01 0.  0.
    9000005    1    3    3    0    0  0.15951315247E+02 -0.60066883386E+02 -0.44949367954E+01  0.62319173571E+02  0.10000000000E+01 0.  0.
<mgrwt>
<rscale>  0 0.12499658E+03</rscale>
<asrwt>0</asrwt>
<pdfrwt beam="2">  1        4 0.93075247E-02 0.12499658E+03</pdfrwt>
<pdfrwt beam="1">  1       -4 0.99328839E-02 0.12499658E+03</pdfrwt>
<totfact> 0.10452310E+04</totfact>
</mgrwt>
</event>
<event>
 5    1  0.3286491E-002  0.1250012E+03  0.7818608E-02  0.1235067E+00
          4   -1    0    0  501    0  0.00000000000E+00  0.00000000000E+00  0.11084322309E+03  0.11085049844E+03  0.12700000000E+01 0.  1.
         -4   -1    0    0    0  501 -0.00000000000E+00 -0.00000000000E+00 -0.35222019043E+02  0.35244907795E+02  0.12700000000E+01 0.  1.
         25    2    1    2    0    0  0.00000000000E+00  0.00000000000E+00  0.75621204048E+02  0.14609540624E+03  0.12500120488E+03 0.  0.
    9000005    1    3    3    0    0 -0.19022436448E+02 -0.20304286079E+02  0.10321069006E+03  0.10689978327E+03  0.10000000000E+01 0.  0.
    9000005    1    3    3    0    0  0.19022436448E+02  0.20304286079E+02 -0.27589486008E+02  0.39195622967E+02  0.10000000000E+01 0.  0.
<mgrwt>
<rscale>  0 0.12500120E+03</rscale>
<asrwt>0</asrwt>
<pdfrwt beam="1">  1        4 0.17055124E-01 0.12500120E+03</pdfrwt>
<pdfrwt beam="2">  1       -4 0.54210925E-02 0.12500120E+03</pdfrwt>
<totfact> 0.10008508E+04</totfact>
</mgrwt>
</event>
<event>
 5    1  0.3286491E-002  0.1249816E+03  0.7818608E-02  0.1235098E+00
          4   -1    0    0  501    0  0.00000000000E+00  0.00000000000E+00  0.27074069433E+02  0.27103839870E+02  0.12700000000E+01 0.  1.
         -4   -1    0    0    0  501 -0.00000000000E+00 -0.00000000000E+00 -0.14412572866E+03  0.14413132402E+03  0.12700000000E+01 0.  1.
         25    2    1    2    0    0  0.00000000000E+00  0.00000000000E+00 -0.11705165923E+03  0.17123516389E+03  0.12498156033E+03 0.  0.
    9000005    1    3    3    0    0  0.13085599277E+02 -0.36128031581E+02  0.89795310786E+01  0.39472769763E+02  0.10000000000E+01 0.  0.
    9000005    1    3    3    0    0 -0.13085599277E+02  0.36128031581E+02 -0.12603119031E+03  0.13176239412E+03  0.10000000000E+01 0.  0.
<mgrwt>
<rscale>  0 0.12498156E+03</rscale>
<asrwt>0</asrwt>
<pdfrwt beam="1">  1        4 0.41679620E-02 0.12498156E+03</pdfrwt>
<pdfrwt beam="2">  1       -4 0.22175909E-01 0.12498156E+03</pdfrwt>
<totfact> 0.95258334E+03</totfact>
</mgrwt>
</event>
<event>
 5    1  0.3286491E-002  0.1250023E+03  0.7818608E-02  0.1235066E+00
          4   -1    0    0  501    0  0.00000000000E+00  0.00000000000E+00  0.12709010934E+02  0.12772308285E+02  0.12700000000E+01 0. -1.
         -4   -1    0    0    0  501 -0.00000000000E+00 -0.00000000000E+00 -0.30654380614E+03  0.30654643691E+03  0.12700000000E+01 0. -1.
         25    2    1    2    0    0  0.00000000000E+00  0.00000000000E+00 -0.29383479520E+03  0.31931874519E+03  0.12500229662E+03 0.  0.
    9000005    1    3    3    0    0 -0.41875615301E+02  0.31386039454E+02 -0.59661657389E+02  0.79367272801E+02  0.10000000000E+01 0.  0.
    9000005    1    3    3    0    0  0.41875615301E+02 -0.31386039454E+02 -0.23417313781E+03  0.23995147239E+03  0.10000000000E+01 0.  0.
<mgrwt>
<rscale>  0 0.12500230E+03</rscale>
<asrwt>0</asrwt>
<pdfrwt beam="1">  1        4 0.19603041E-02 0.12500230E+03</pdfrwt>
<pdfrwt beam="2">  1       -4 0.47165651E-01 0.12500230E+03</pdfrwt>
<totfact> 0.73233498E+03</totfact>
</mgrwt>
</event>
<event>
 5    1  0.3286491E-002  0.1249984E+03  0.7818608E-02  0.1235072E+00
          4   -1    0    0  501    0  0.00000000000E+00  0.00000000000E+00  0.40940322061E+03  0.40940519042E+03  0.12700000000E+01 0. -1.
         -4   -1    0    0    0  501 -0.00000000000E+00 -0.00000000000E+00 -0.94968202876E+01  0.95813618852E+01  0.12700000000E+01 0. -1.
         25    2    1    2    0    0  0.00000000000E+00  0.00000000000E+00  0.39990640032E+03  0.41898655230E+03  0.12499840798E+03 0.  0.
    9000005    1    3    3    0    0 -0.22643104322E+02  0.50144710453E+02  0.10063471582E+03  0.11469763811E+03  0.10000000000E+01 0.  0.
    9000005    1    3    3    0    0  0.22643104322E+02 -0.50144710453E+02  0.29927168450E+03  0.30428891419E+03  0.10000000000E+01 0.  0.
<mgrwt>
<rscale>  0 0.12499841E+03</rscale>
<asrwt>0</asrwt>
<pdfrwt beam="1">  1        4 0.62991780E-01 0.12499841E+03</pdfrwt>
<pdfrwt beam="2">  1       -4 0.14677037E-02 0.12499841E+03</pdfrwt>
<totfact> 0.62749334E+03</totfact>
</mgrwt>
</event>
<event>
 5    1  0.3286491E-002  0.1249930E+03  0.7818608E-02  0.1235080E+00
         -4   -1    0    0    0  501 -0.00000000000E+00  0.00000000000E+00  0.55158908717E+03  0.55159054922E+03  0.12700000000E+01 0. -1.
          4   -1    0    0  501    0  0.00000000000E+00 -0.00000000000E+00 -0.70225917251E+01  0.71365043640E+01  0.12700000000E+01 0. -1.
         25    2    1    2    0    0  0.00000000000E+00  0.00000000000E+00  0.54456649545E+03  0.55872705358E+03  0.12499300957E+03 0.  0.
    9000005    1    3    3    0    0 -0.54590350494E+02 -0.30406360838E+02  0.27407107265E+03  0.28110604051E+03  0.10000000000E+01 0.  0.
    9000005    1    3    3    0    0  0.54590350494E+02  0.30406360838E+02  0.27049542280E+03  0.27762101307E+03  0.10000000000E+01 0.  0.
<mgrwt>
<rscale>  0 0.12499301E+03</rscale>
<asrwt>0</asrwt>
<pdfrwt beam="2">  1        4 0.10892732E-02 0.12499301E+03</pdfrwt>
<pdfrwt beam="1">  1       -4 0.84868774E-01 0.12499301E+03</pdfrwt>
<totfact> 0.51588912E+03</totfact>
</mgrwt>
</event>
<event>
 5    1  0.3286491E-002  0.1250054E+03  0.7818608E-02  0.1235061E+00
          4   -1    0    0  501    0  0.00000000000E+00  0.00000000000E+00  0.15563837875E+03  0.15564356022E+03  0.12700000000E+01 0.  1.
         -4   -1    0    0    0  501 -0.00000000000E+00 -0.00000000000E+00 -0.25078755872E+02  0.25110891982E+02  0.12700000000E+01 0.  1.
         25    2    1    2    0    0  0.00000000000E+00  0.00000000000E+00  0.13055962287E+03  0.18075445221E+03  0.12500542735E+03 0.  0.
    9000005    1    3    3    0    0 -0.38736453519E+02  0.45304417815E+02  0.38128379732E+02  0.70765644530E+02  0.10000000000E+01 0.  0.
    9000005    1    3    3    0    0  0.38736453519E+02 -0.45304417815E+02  0.92431243143E+02  0.10998880767E+03  0.10000000000E+01 0.  0.
<mgrwt>
<rscale>  0 0.12500543E+03</rscale>
<asrwt>0</asrwt>
<pdfrwt beam="1">  1        4 0.23947237E-01 0.12500543E+03</pdfrwt>
<pdfrwt beam="2">  1       -4 0.38611407E-02 0.12500543E+03</pdfrwt>
<totfact> 0.93470001E+03</totfact>
</mgrwt>
</event>
<event>
 5    1  0.3286491E-002  0.1249980E+03  0.7818608E-02  0.1235072E+00
         -4   -1    0    0    0  501 -0.00000000000E+00  0.00000000000E+00  0.40573055077E+02  0.40592926703E+02  0.12700000000E+01 0.  1.
          4   -1    0    0  501    0  0.00000000000E+00 -0.00000000000E+00 -0.96226196338E+02  0.96234576747E+02  0.12700000000E+01 0.  1.
         25    2    1    2    0    0  0.00000000000E+00  0.00000000000E+00 -0.55653141261E+02  0.13682750345E+03  0.12499797426E+03 0.  0.
    9000005    1    3    3    0    0  0.38550869092E+02  0.24825467321E+01  0.25942219746E+02  0.46543864379E+02  0.10000000000E+01 0.  0.
    9000005    1    3    3    0    0 -0.38550869092E+02 -0.24825467321E+01 -0.81595361007E+02  0.90283639070E+02  0.10000000000E+01 0.  0.
<mgrwt>
<rscale>  0 0.12499797E+03</rscale>
<asrwt>0</asrwt>
<pdfrwt beam="2">  1        4 0.14806203E-01 0.12499797E+03</pdfrwt>
<pdfrwt beam="1">  1       -4 0.62441817E-02 0.12499797E+03</pdfrwt>
<totfact> 0.10200160E+04</totfact>
</mgrwt>
</event>
<event>
 5    1  0.3286491E-002  0.1249984E+03  0.7818608E-02  0.1235072E+00
         -4   -1    0    0    0  501 -0.00000000000E+00  0.00000000000E+00  0.71536200060E+03  0.71536312793E+03  0.12700000000E+01 0. -1.
          4   -1    0    0  501    0  0.00000000000E+00 -0.00000000000E+00 -0.53853903681E+01  0.55331120915E+01  0.12700000000E+01 0. -1.
         25    2    1    2    0    0  0.00000000000E+00  0.00000000000E+00  0.70997661023E+03  0.72089624002E+03  0.12499840720E+03 0.  0.
    9000005    1    3    3    0    0  0.45390477912E+01 -0.22954598587E+02  0.68917176560E+03  0.68956960421E+03  0.10000000000E+01 0.  0.
    9000005    1    3    3    0    0 -0.45390477912E+01  0.22954598587E+02  0.20804844634E+02  0.31326635813E+02  0.10000000000E+01 0.  0.
<mgrwt>
<rscale>  0 0.12499841E+03</rscale>
<asrwt>0</asrwt>
<pdfrwt beam="2">  1        4 0.83997202E-03 0.12499841E+03</pdfrwt>
<pdfrwt beam="1">  1       -4 0.11006708E+00 0.12499841E+03</pdfrwt>
<totfact> 0.42007786E+03</totfact>
</mgrwt>
</event>
<event>
 4    1  0.3286491E-002  0.1250930E+03  0.7818608E-02  0.1234924E+00
         -4   -1    0    0    0  501 -0.00000000000E+00  0.00000000000E+00  0.28794083992E+02  0.28822077874E+02  0.12700000000E+01 0. -1.
          4   -1    0    0  501    0  0.00000000000E+00 -0.00000000000E+00 -0.13576644912E+03  0.13577238897E+03  0.12700000000E+01 0. -1.
    9000005    1    1    2    0    0 -0.15786648378E+02 -0.57746192338E+02 -0.77287637580E+02  0.97766149148E+02  0.10000000000E+01 0.  0.
    9000005    1    1    2    0    0  0.15786648378E+02  0.57746192338E+02 -0.29684727548E+02  0.66828317696E+02  0.10000000000E+01 0.  0.
<mgrwt>
<rscale>  0 0.12509297E+03</rscale>
<asrwt>0</asrwt>
<pdfrwt beam="2">  1        4 0.20889756E-01 0.12509297E+03</pdfrwt>
<pdfrwt beam="1">  1       -4 0.44324694E-02 0.12509297E+03</pdfrwt>
<totfact> 0.96263041E+03</totfact>
</mgrwt>
</event>
<event>
 5    1  0.3286491E-002  0.1249975E+03  0.7818608E-02  0.1235073E+00
         -4   -1    0    0    0  501 -0.00000000000E+00  0.00000000000E+00  0.25831337417E+02  0.25862538406E+02  0.12700000000E+01 0.  1.
          4   -1    0    0  501    0  0.00000000000E+00 -0.00000000000E+00 -0.15109017354E+03  0.15109551098E+03  0.12700000000E+01 0.  1.
         25    2    1    2    0    0  0.00000000000E+00  0.00000000000E+00 -0.12525883612E+03  0.17695804939E+03  0.12499750085E+03 0.  0.
    9000005    1    3    3    0    0 -0.30491912775E+01  0.64963563137E+01  0.25252989901E+02  0.26271918691E+02  0.10000000000E+01 0.  0.
    9000005    1    3    3    0    0  0.30491912775E+01 -0.64963563137E+01 -0.15051182602E+03  0.15068613070E+03  0.10000000000E+01 0.  0.
<mgrwt>
<rscale>  0 0.12499750E+03</rscale>
<asrwt>0</asrwt>
<pdfrwt beam="2">  1        4 0.23247452E-01 0.12499750E+03</pdfrwt>
<pdfrwt beam="1">  1       -4 0.39768627E-02 0.12499750E+03</pdfrwt>
<totfact> 0.94172726E+03</totfact>
</mgrwt>
</event>
<event>
 5    1  0.3286491E-002  0.1250030E+03  0.7818608E-02  0.1235065E+00
         -4   -1    0    0    0  501 -0.00000000000E+00  0.00000000000E+00  0.52536948113E+02  0.52552296020E+02  0.12700000000E+01 0. -1.
          4   -1    0    0  501    0  0.00000000000E+00 -0.00000000000E+00 -0.74324394933E+02  0.74335244549E+02  0.12700000000E+01 0. -1.
         25    2    1    2    0    0  0.00000000000E+00  0.00000000000E+00 -0.21787446820E+02  0.12688754057E+03  0.12500302042E+03 0.  0.
    9000005    1    3    3    0    0 -0.18465925122E+02 -0.35694991197E+01  0.49600936879E+02  0.53056428958E+02  0.10000000000E+01 0.  0.
    9000005    1    3    3    0    0  0.18465925122E+02  0.35694991197E+01 -0.71388383699E+02  0.73831111611E+02  0.10000000000E+01 0.  0.
<mgrwt>
<rscale>  0 0.12500302E+03</rscale>
<asrwt>0</asrwt>
<pdfrwt beam="2">  1        4 0.11436538E-01 0.12500302E+03</pdfrwt>
<pdfrwt beam="1">  1       -4 0.80846226E-02 0.12500302E+03</pdfrwt>
<totfact> 0.10410880E+04</totfact>
</mgrwt>
</event>
<event>
 5    1  0.3286491E-002  0.1250051E+03  0.7818608E-02  0.1235061E+00
         -4   -1    0    0    0  501 -0.00000000000E+00  0.00000000000E+00  0.11621593358E+04  0.11621600297E+04  0.12700000000E+01 0. -1.
          4   -1    0    0  501    0  0.00000000000E+00 -0.00000000000E+00 -0.32407976964E+01  0.34807570598E+01  0.12700000000E+01 0. -1.
         25    2    1    2    0    0  0.00000000000E+00  0.00000000000E+00  0.11589185381E+04  0.11656407868E+04  0.12500506331E+03 0.  0.
    9000005    1    3    3    0    0 -0.33828328433E+02  0.49686469150E+02  0.41999095258E+03  0.42427173047E+03  0.10000000000E+01 0.  0.
    9000005    1    3    3    0    0  0.33828328433E+02 -0.49686469150E+02  0.73892758551E+03  0.74136905631E+03  0.10000000000E+01 0.  0.
<mgrwt>
<rscale>  0 0.12500506E+03</rscale>
<asrwt>0</asrwt>
<pdfrwt beam="2">  1        4 0.51709517E-03 0.12500506E+03</pdfrwt>
<pdfrwt beam="1">  1       -4 0.17881256E+00 0.12500506E+03</pdfrwt>
<totfact> 0.25627339E+03</totfact>
</mgrwt>
</event>
<event>
 5    1  0.3286491E-002  0.1250326E+03  0.7818608E-02  0.1235018E+00
          4   -1    0    0  501    0  0.00000000000E+00  0.00000000000E+00  0.77719459101E+02  0.77729834832E+02  0.12700000000E+01 0. -1.
         -4   -1    0    0    0  501 -0.00000000000E+00 -0.00000000000E+00 -0.50265391889E+02  0.50281433171E+02  0.12700000000E+01 0. -1.
         25    2    1    2    0    0  0.00000000000E+00  0.00000000000E+00  0.27454067213E+02  0.12801126800E+03  0.12503263146E+03 0.  0.
    9000005    1    3    3    0    0 -0.28714121466E+02  0.23172686413E+02 -0.37931050695E+02  0.52926730241E+02  0.10000000000E+01 0.  0.
    9000005    1    3    3    0    0  0.28714121466E+02 -0.23172686413E+02  0.65385117908E+02  0.75084537762E+02  0.10000000000E+01 0.  0.
<mgrwt>
<rscale>  0 0.12503263E+03</rscale>
<asrwt>0</asrwt>
<pdfrwt beam="1">  1        4 0.11958872E-01 0.12503263E+03</pdfrwt>
<pdfrwt beam="2">  1       -4 0.77351693E-02 0.12503263E+03</pdfrwt>
<totfact> 0.10379596E+04</totfact>
</mgrwt>
</event>
<event>
 5    1  0.3286491E-002  0.1250029E+03  0.7818608E-02  0.1235065E+00
         -4   -1    0    0    0  501 -0.00000000000E+00  0.00000000000E+00  0.19525874606E+02  0.19567132624E+02  0.12700000000E+01 0.  1.
          4   -1    0    0  501    0  0.00000000000E+00 -0.00000000000E+00 -0.19980978583E+03  0.19981382188E+03  0.12700000000E+01 0.  1.
         25    2    1    2    0    0  0.00000000000E+00  0.00000000000E+00 -0.18028391123E+03  0.21938095450E+03  0.12500285817E+03 0.  0.
    9000005    1    3    3    0    0  0.14027802240E+02 -0.60622616604E+02 -0.10030703399E+03  0.11804398311E+03  0.10000000000E+01 0.  0.
    9000005    1    3    3    0    0 -0.14027802240E+02  0.60622616604E+02 -0.79976877234E+02  0.10133697140E+03  0.10000000000E+01 0.  0.
<mgrwt>
<rscale>  0 0.12500286E+03</rscale>
<asrwt>0</asrwt>
<pdfrwt beam="2">  1        4 0.30743450E-01 0.12500286E+03</pdfrwt>
<pdfrwt beam="1">  1       -4 0.30074650E-02 0.12500286E+03</pdfrwt>
<totfact> 0.86960849E+03</totfact>
</mgrwt>
</event>
<event>
 5    1  0.3286491E-002  0.1250043E+03  0.7818608E-02  0.1235063E+00
          4   -1    0    0  501    0  0.00000000000E+00  0.00000000000E+00  0.11400604563E+03  0.11401311916E+03  0.12700000000E+01 0. -1.
         -4   -1    0    0    0  501 -0.00000000000E+00 -0.00000000000E+00 -0.34245971258E+02  0.34269511923E+02  0.12700000000E+01 0. -1.
         25    2    1    2    0    0  0.00000000000E+00  0.00000000000E+00  0.79760074371E+02  0.14828263108E+03  0.12500427679E+03 0.  0.
    9000005    1    3    3    0    0  0.20095966114E+02 -0.50924314508E+02  0.41280600432E+01  0.54910605004E+02  0.10000000000E+01 0.  0.
    9000005    1    3    3    0    0 -0.20095966114E+02  0.50924314508E+02  0.75632014328E+02  0.93372026076E+02  0.10000000000E+01 0.  0.
<mgrwt>
<rscale>  0 0.12500428E+03</rscale>
<asrwt>0</asrwt>
<pdfrwt beam="1">  1        4 0.17541746E-01 0.12500428E+03</pdfrwt>
<pdfrwt beam="2">  1       -4 0.52709660E-02 0.12500428E+03</pdfrwt>
<totfact> 0.99637545E+03</totfact>
</mgrwt>
</event>
<event>
 5    1  0.3286491E-002  0.1249998E+03  0.7818608E-02  0.1235070E+00
         -4   -1    0    0    0  501 -0.00000000000E+00  0.00000000000E+00  0.25656821286E+02  0.25688234243E+02  0.12700000000E+01 0.  1.
          4   -1    0    0  501    0  0.00000000000E+00 -0.00000000000E+00 -0.15212231482E+03  0.15212761606E+03  0.12700000000E+01 0.  1.
         25    2    1    2    0    0  0.00000000000E+00  0.00000000000E+00 -0.12646549354E+03  0.17781585030E+03  0.12499982225E+03 0.  0.
    9000005    1    3    3    0    0  0.39898672574E+02  0.44862842619E+02 -0.38566729887E+02  0.71365057103E+02  0.10000000000E+01 0.  0.
    9000005    1    3    3    0    0 -0.39898672574E+02 -0.44862842619E+02 -0.87898763650E+02  0.10645079320E+03  0.10000000000E+01 0.  0.
<mgrwt>
<rscale>  0 0.12499982E+03</rscale>
<asrwt>0</asrwt>
<pdfrwt beam="2">  1        4 0.23406257E-01 0.12499982E+03</pdfrwt>
<pdfrwt beam="1">  1       -4 0.39500275E-02 0.12499982E+03</pdfrwt>
<totfact> 0.94012016E+03</totfact>
</mgrwt>
</event>
<event>
 5    1  0.3286491E-002  0.1249990E+03  0.7818608E-02  0.1235071E+00
          4   -1    0    0  501    0  0.00000000000E+00  0.00000000000E+00  0.13460451268E+03  0.13461050380E+03  0.12700000000E+01 0.  1.
         -4   -1    0    0    0  501 -0.00000000000E+00 -0.00000000000E+00 -0.28999203578E+02  0.29026999641E+02  0.12700000000E+01 0.  1.
         25    2    1    2    0    0  0.00000000000E+00  0.00000000000E+00  0.10560530910E+03  0.16363750344E+03  0.12499900488E+03 0.  0.
    9000005    1    3    3    0    0 -0.58813271128E+02 -0.84051246390E+01  0.78171743260E+02  0.98190979347E+02  0.10000000000E+01 0.  0.
    9000005    1    3    3    0    0  0.58813271128E+02  0.84051246390E+01  0.27433565838E+02  0.65446524090E+02  0.10000000000E+01 0.  0.
<mgrwt>
<rscale>  0 0.12499900E+03</rscale>
<asrwt>0</asrwt>
<pdfrwt beam="1">  1        4 0.20710986E-01 0.12499900E+03</pdfrwt>
<pdfrwt beam="2">  1       -4 0.44640149E-02 0.12499900E+03</pdfrwt>
<totfact> 0.96648212E+03</totfact>
</mgrwt>
</event>
<event>
 5    1  0.3286491E-002  0.1250052E+03  0.7818608E-02  0.1235061E+00
          4   -1    0    0  501    0  0.00000000000E+00  0.00000000000E+00  0.90293557887E+01  0.91182326115E+01  0.12700000000E+01 0. -1.
         -4   -1    0    0    0  501 -0.00000000000E+00 -0.00000000000E+00 -0.43044393854E+03  0.43044581207E+03  0.12700000000E+01 0. -1.
         25    2    1    2    0    0  0.00000000000E+00  0.00000000000E+00 -0.42141458275E+03  0.43956404468E+03  0.12500519517E+03 0.  0.
    9000005    1    3    3    0    0  0.41095594205E+02 -0.23811253400E+01 -0.37605343716E+03  0.37830107748E+03  0.10000000000E+01 0.  0.
    9000005    1    3    3    0    0 -0.41095594205E+02  0.23811253400E+01 -0.45361145594E+02  0.61262967203E+02  0.10000000000E+01 0.  0.
<mgrwt>
<rscale>  0 0.12500520E+03</rscale>
<asrwt>0</asrwt>
<pdfrwt beam="1">  1        4 0.13961128E-02 0.12500520E+03</pdfrwt>
<pdfrwt beam="2">  1       -4 0.66229109E-01 0.12500520E+03</pdfrwt>
<totfact> 0.60871571E+03</totfact>
</mgrwt>
</event>
<event>
 5    1  0.3286491E-002  0.1249945E+03  0.7818608E-02  0.1235078E+00
         -4   -1    0    0    0  501 -0.00000000000E+00  0.00000000000E+00  0.70909387980E+02  0.70920760033E+02  0.12700000000E+01 0. -1.
          4   -1    0    0  501    0  0.00000000000E+00 -0.00000000000E+00 -0.55059956731E+02  0.55074601544E+02  0.12700000000E+01 0. -1.
         25    2    1    2    0    0  0.00000000000E+00  0.00000000000E+00  0.15849431249E+02  0.12599536158E+03  0.12499450655E+03 0.  0.
    9000005    1    3    3    0    0  0.52572403476E+02  0.10188282670E+02 -0.24539500776E+02  0.58913884691E+02  0.10000000000E+01 0.  0.
    9000005    1    3    3    0    0 -0.52572403476E+02 -0.10188282670E+02  0.40388932025E+02  0.67081476886E+02  0.10000000000E+01 0.  0.
<mgrwt>
<rscale>  0 0.12499451E+03</rscale>
<asrwt>0</asrwt>
<pdfrwt beam="2">  1        4 0.84727638E-02 0.12499451E+03</pdfrwt>
<pdfrwt beam="1">  1       -4 0.10911138E-01 0.12499451E+03</pdfrwt>
<totfact> 0.10432352E+04</totfact>
</mgrwt>
</event>
<event>
 5    1  0.3286491E-002  0.1249997E+03  0.7818608E-02  0.1235070E+00
         -4   -1    0    0    0  501 -0.00000000000E+00  0.00000000000E+00  0.53633020076E+01  0.55116157726E+01  0.12700000000E+01 0. -1.
          4   -1    0    0  501    0  0.00000000000E+00 -0.00000000000E+00 -0.71824385025E+03  0.71824497305E+03  0.12700000000E+01 0. -1.
         25    2    1    2    0    0  0.00000000000E+00  0.00000000000E+00 -0.71288054824E+03  0.72375658883E+03  0.12499969525E+03 0.  0.
    9000005    1    3    3    0    0 -0.30818296768E+02  0.21638254699E+02 -0.67676140660E+02  0.77453479565E+02  0.10000000000E+01 0.  0.
    9000005    1    3    3    0    0  0.30818296768E+02 -0.21638254699E+02 -0.64520440758E+03  0.64630310926E+03  0.10000000000E+01 0.  0.
<mgrwt>
<rscale>  0 0.12499970E+03</rscale>
<asrwt>0</asrwt>
<pdfrwt beam="2">  1        4 0.11051047E+00 0.12499970E+03</pdfrwt>
<pdfrwt beam="1">  1       -4 0.83661907E-03 0.12499970E+03</pdfrwt>
<totfact> 0.41862187E+03</totfact>
</mgrwt>
</event>
<event>
 5    1  0.3286491E-002  0.1250012E+03  0.7818608E-02  0.1235067E+00
         -4   -1    0    0    0  501 -0.00000000000E+00  0.00000000000E+00  0.56793936923E+03  0.56794078918E+03  0.12700000000E+01 0. -1.
          4   -1    0    0  501    0  0.00000000000E+00 -0.00000000000E+00 -0.68179978295E+01  0.69352717613E+01  0.12700000000E+01 0. -1.
         25    2    1    2    0    0  0.00000000000E+00  0.00000000000E+00  0.56112137140E+03  0.57487606094E+03  0.12500116803E+03 0.  0.
    9000005    1    3    3    0    0  0.52110694167E+01  0.53477481674E+02  0.13380203141E+03  0.14419077606E+03  0.10000000000E+01 0.  0.
    9000005    1    3    3    0    0 -0.52110694167E+01 -0.53477481674E+02  0.42731933999E+03  0.43068528489E+03  0.10000000000E+01 0.  0.
<mgrwt>
<rscale>  0 0.12500117E+03</rscale>
<asrwt>0</asrwt>
<pdfrwt beam="2">  1        4 0.10580525E-02 0.12500117E+03</pdfrwt>
<pdfrwt beam="1">  1       -4 0.87384459E-01 0.12500117E+03</pdfrwt>
<totfact> 0.50491594E+03</totfact>
</mgrwt>
</event>
<event>
 5    1  0.3286491E-002  0.1250021E+03  0.7818608E-02  0.1235066E+00
         -4   -1    0    0    0  501 -0.00000000000E+00  0.00000000000E+00  0.16627267937E+03  0.16627752946E+03  0.12700000000E+01 0.  1.
          4   -1    0    0  501    0  0.00000000000E+00 -0.00000000000E+00 -0.23471453911E+02  0.23505787557E+02  0.12700000000E+01 0.  1.
         25    2    1    2    0    0  0.00000000000E+00  0.00000000000E+00  0.14280122546E+03  0.18978331702E+03  0.12500206969E+03 0.  0.
    9000005    1    3    3    0    0 -0.33250419762E+02 -0.39306901100E+02  0.12518058212E+03  0.13535804752E+03  0.10000000000E+01 0.  0.
    9000005    1    3    3    0    0  0.33250419762E+02  0.39306901100E+02  0.17620643335E+02  0.54425269498E+02  0.10000000000E+01 0.  0.
<mgrwt>
<rscale>  0 0.12500207E+03</rscale>
<asrwt>0</asrwt>
<pdfrwt beam="2">  1        4 0.36140069E-02 0.12500207E+03</pdfrwt>
<pdfrwt beam="1">  1       -4 0.25583428E-01 0.12500207E+03</pdfrwt>
<totfact> 0.91880769E+03</totfact>
</mgrwt>
</event>
<event>
 5    1  0.3286491E-002  0.1250016E+03  0.7818608E-02  0.1235067E+00
         -4   -1    0    0    0  501 -0.00000000000E+00  0.00000000000E+00  0.25083780725E+03  0.25084102225E+03  0.12700000000E+01 0. -1.
          4   -1    0    0  501    0  0.00000000000E+00 -0.00000000000E+00 -0.15544000887E+02  0.15595796343E+02  0.12700000000E+01 0. -1.
         25    2    1    2    0    0  0.00000000000E+00  0.00000000000E+00  0.23529380636E+03  0.26643681859E+03  0.12500161196E+03 0.  0.
    9000005    1    3    3    0    0  0.52044935797E+02  0.34414966638E+02  0.12511783268E+03  0.13981608393E+03  0.10000000000E+01 0.  0.
    9000005    1    3    3    0    0 -0.52044935797E+02 -0.34414966638E+02  0.11017597368E+03  0.12662073467E+03  0.10000000000E+01 0.  0.
<mgrwt>
<rscale>  0 0.12500161E+03</rscale>
<asrwt>0</asrwt>
<pdfrwt beam="2">  1        4 0.23956164E-02 0.12500161E+03</pdfrwt>
<pdfrwt beam="1">  1       -4 0.38594663E-01 0.12500161E+03</pdfrwt>
<totfact> 0.80008276E+03</totfact>
</mgrwt>
</event>
<event>
 5    1  0.3286491E-002  0.1250071E+03  0.7818608E-02  0.1235058E+00
          4   -1    0    0  501    0  0.00000000000E+00  0.00000000000E+00  0.74812974124E+02  0.74823752895E+02  0.12700000000E+01 0. -1.
         -4   -1    0    0    0  501 -0.00000000000E+00 -0.00000000000E+00 -0.52197245744E+02  0.52212693507E+02  0.12700000000E+01 0. -1.
         25    2    1    2    0    0  0.00000000000E+00  0.00000000000E+00  0.22615728380E+02  0.12703644640E+03  0.12500714997E+03 0.  0.
    9000005    1    3    3    0    0  0.38405996080E+02  0.28783892074E+02  0.51984680567E+02  0.70759734252E+02  0.10000000000E+01 0.  0.
    9000005    1    3    3    0    0 -0.38405996080E+02 -0.28783892074E+02 -0.29368952187E+02  0.56276712150E+02  0.10000000000E+01 0.  0.
<mgrwt>
<rscale>  0 0.12500715E+03</rscale>
<asrwt>0</asrwt>
<pdfrwt beam="1">  1        4 0.11511706E-01 0.12500715E+03</pdfrwt>
<pdfrwt beam="2">  1       -4 0.80323629E-02 0.12500715E+03</pdfrwt>
<totfact> 0.10406674E+04</totfact>
</mgrwt>
</event>
<event>
 5    1  0.3286491E-002  0.1250051E+03  0.7818608E-02  0.1235061E+00
         -4   -1    0    0    0  501 -0.00000000000E+00  0.00000000000E+00  0.13656154547E+03  0.13656745074E+03  0.12700000000E+01 0.  1.
          4   -1    0    0  501    0  0.00000000000E+00 -0.00000000000E+00 -0.28586018485E+02  0.28614215922E+02  0.12700000000E+01 0.  1.
         25    2    1    2    0    0  0.00000000000E+00  0.00000000000E+00  0.10797552699E+03  0.16518166666E+03  0.12500507419E+03 0.  0.
    9000005    1    3    3    0    0  0.45441064239E+02 -0.93525767663E+01  0.10931649227E+03  0.11875797444E+03  0.10000000000E+01 0.  0.
    9000005    1    3    3    0    0 -0.45441064239E+02  0.93525767663E+01 -0.13409652840E+01  0.46423692219E+02  0.10000000000E+01 0.  0.
<mgrwt>
<rscale>  0 0.12500507E+03</rscale>
<asrwt>0</asrwt>
<pdfrwt beam="2">  1        4 0.44004723E-02 0.12500507E+03</pdfrwt>
<pdfrwt beam="1">  1       -4 0.21012092E-01 0.12500507E+03</pdfrwt>
<totfact> 0.96342016E+03</totfact>
</mgrwt>
</event>
<event>
 5    1  0.3286491E-002  0.1249989E+03  0.7818608E-02  0.1235071E+00
          4   -1    0    0  501    0  0.00000000000E+00  0.00000000000E+00  0.30313570217E+01  0.32866434844E+01  0.12700000000E+01 0.  1.
         -4   -1    0    0    0  501 -0.00000000000E+00 -0.00000000000E+00 -0.12362695498E+04  0.12362702021E+04  0.12700000000E+01 0.  1.
         25    2    1    2    0    0  0.00000000000E+00  0.00000000000E+00 -0.12332381928E+04  0.12395568456E+04  0.12499893348E+03 0.  0.
    9000005    1    3    3    0    0  0.30435901471E+02 -0.52132873924E+02 -0.77682652175E+03  0.77916918929E+03  0.10000000000E+01 0.  0.
    9000005    1    3    3    0    0 -0.30435901471E+02  0.52132873924E+02 -0.45641167100E+03  0.46038765629E+03  0.10000000000E+01 0.  0.
<mgrwt>
<rscale>  0 0.12499893E+03</rscale>
<asrwt>0</asrwt>
<pdfrwt beam="1">  1        4 0.48605121E-03 0.12499893E+03</pdfrwt>
<pdfrwt beam="2">  1       -4 0.19021462E+00 0.12499893E+03</pdfrwt>
<totfact> 0.23700805E+03</totfact>
</mgrwt>
</event>
<event>
 5    1  0.3286491E-002  0.1250057E+03  0.7818608E-02  0.1235060E+00
          4   -1    0    0  501    0  0.00000000000E+00  0.00000000000E+00  0.21542197862E+02  0.21579601218E+02  0.12700000000E+01 0.  1.
         -4   -1    0    0    0  501 -0.00000000000E+00 -0.00000000000E+00 -0.18114963639E+03  0.18115408818E+03  0.12700000000E+01 0.  1.
         25    2    1    2    0    0  0.00000000000E+00  0.00000000000E+00 -0.15960743853E+03  0.20273368940E+03  0.12500565741E+03 0.  0.
    9000005    1    3    3    0    0  0.54578150260E+02 -0.30142314355E+02 -0.86735829733E+02  0.10682433131E+03  0.10000000000E+01 0.  0.
    9000005    1    3    3    0    0 -0.54578150260E+02  0.30142314355E+02 -0.72871608799E+02  0.95909358091E+02  0.10000000000E+01 0.  0.
<mgrwt>
<rscale>  0 0.12500566E+03</rscale>
<asrwt>0</asrwt>
<pdfrwt beam="1">  1        4 0.33174040E-02 0.12500566E+03</pdfrwt>
<pdfrwt beam="2">  1       -4 0.27872393E-01 0.12500566E+03</pdfrwt>
<totfact> 0.89665139E+03</totfact>
</mgrwt>
</event>
<event>
 5    1  0.3286491E-002  0.1250029E+03  0.7818608E-02  0.1235065E+00
          4   -1    0    0  501    0  0.00000000000E+00  0.00000000000E+00  0.17898724449E+02  0.17943724165E+02  0.12700000000E+01 0.  1.
         -4   -1    0    0    0  501 -0.00000000000E+00 -0.00000000000E+00 -0.21793106670E+03  0.21793476715E+03  0.12700000000E+01 0.  1.
         25    2    1    2    0    0  0.00000000000E+00  0.00000000000E+00 -0.20003234225E+03  0.23587849131E+03  0.12500289884E+03 0.  0.
    9000005    1    3    3    0    0 -0.28993210604E+02  0.55331170459E+02 -0.96595315919E+02  0.11503825339E+03  0.10000000000E+01 0.  0.
    9000005    1    3    3    0    0  0.28993210604E+02 -0.55331170459E+02 -0.10343702633E+03  0.12084023792E+03  0.10000000000E+01 0.  0.
<mgrwt>
<rscale>  0 0.12500290E+03</rscale>
<asrwt>0</asrwt>
<pdfrwt beam="1">  1        4 0.27573962E-02 0.12500290E+03</pdfrwt>
<pdfrwt beam="2">  1       -4 0.33531601E-01 0.12500290E+03</pdfrwt>
<totfact> 0.84409591E+03</totfact>
</mgrwt>
</event>
<event>
 5    1  0.3286491E-002  0.1249831E+03  0.7818608E-02  0.1235096E+00
          4   -1    0    0  501    0  0.00000000000E+00  0.00000000000E+00  0.58944257211E+03  0.58944394026E+03  0.12700000000E+01 0. -1.
         -4   -1    0    0    0  501 -0.00000000000E+00 -0.00000000000E+00 -0.65629787470E+01  0.66847281197E+01  0.12700000000E+01 0. -1.
         25    2    1    2    0    0  0.00000000000E+00  0.00000000000E+00  0.58287959336E+03  0.59612866838E+03  0.12498307450E+03 0.  0.
    9000005    1    3    3    0    0  0.59272603566E+02  0.83447332023E+01  0.20594197249E+03  0.21446671569E+03  0.10000000000E+01 0.  0.
    9000005    1    3    3    0    0 -0.59272603566E+02 -0.83447332023E+01  0.37693762087E+03  0.38166195270E+03  0.10000000000E+01 0.  0.
<mgrwt>
<rscale>  0 0.12498307E+03</rscale>
<asrwt>0</asrwt>
<pdfrwt beam="1">  1        4 0.90692947E-01 0.12498307E+03</pdfrwt>
<pdfrwt beam="2">  1       -4 0.10191596E-02 0.12498307E+03</pdfrwt>
<totfact> 0.49131127E+03</totfact>
</mgrwt>
</event>
<event>
 5    1  0.3286491E-002  0.1250063E+03  0.7818608E-02  0.1235060E+00
          4   -1    0    0  501    0  0.00000000000E+00  0.00000000000E+00  0.26159188101E+02  0.26189998513E+02  0.12700000000E+01 0. -1.
         -4   -1    0    0    0  501 -0.00000000000E+00 -0.00000000000E+00 -0.14921964126E+03  0.14922504561E+03  0.12700000000E+01 0. -1.
         25    2    1    2    0    0  0.00000000000E+00  0.00000000000E+00 -0.12306045316E+03  0.17541504412E+03  0.12500625014E+03 0.  0.
    9000005    1    3    3    0    0 -0.54050789047E+02 -0.49350589717E+01 -0.18056683280E+02  0.57209146250E+02  0.10000000000E+01 0.  0.
    9000005    1    3    3    0    0  0.54050789047E+02  0.49350589717E+01 -0.10500376988E+03  0.11820589787E+03  0.10000000000E+01 0.  0.
<mgrwt>
<rscale>  0 0.12500625E+03</rscale>
<asrwt>0</asrwt>
<pdfrwt beam="1">  1        4 0.40272763E-02 0.12500625E+03</pdfrwt>
<pdfrwt beam="2">  1       -4 0.22959653E-01 0.12500625E+03</pdfrwt>
<totfact> 0.94435640E+03</totfact>
</mgrwt>
</event>
<event>
 5    1  0.3286491E-002  0.1250085E+03  0.7818608E-02  0.1235056E+00
         -4   -1    0    0    0  501 -0.00000000000E+00  0.00000000000E+00  0.25837195521E+03  0.25837507647E+03  0.12700000000E+01 0.  1.
          4   -1    0    0  501    0  0.00000000000E+00 -0.00000000000E+00 -0.15090871368E+02  0.15144216673E+02  0.12700000000E+01 0.  1.
         25    2    1    2    0    0  0.00000000000E+00  0.00000000000E+00  0.24328108385E+03  0.27351929314E+03  0.12500847157E+03 0.  0.
    9000005    1    3    3    0    0 -0.12281372708E+02 -0.33986480450E+02  0.10076549875E+02  0.37529319556E+02  0.10000000000E+01 0.  0.
    9000005    1    3    3    0    0  0.12281372708E+02  0.33986480450E+02  0.23320453397E+03  0.23598997359E+03  0.10000000000E+01 0.  0.
<mgrwt>
<rscale>  0 0.12500847E+03</rscale>
<asrwt>0</asrwt>
<pdfrwt beam="2">  1        4 0.23260162E-02 0.12500847E+03</pdfrwt>
<pdfrwt beam="1">  1       -4 0.39753873E-01 0.12500847E+03</pdfrwt>
<totfact> 0.79030433E+03</totfact>
</mgrwt>
</event>
<event>
 5    1  0.3286491E-002  0.1249998E+03  0.7818608E-02  0.1235070E+00
         -4   -1    0    0    0  501 -0.00000000000E+00  0.00000000000E+00  0.47647995915E+02  0.47664918071E+02  0.12700000000E+01 0. -1.
          4   -1    0    0  501    0  0.00000000000E+00 -0.00000000000E+00 -0.81944783398E+02  0.81954624190E+02  0.12700000000E+01 0. -1.
         25    2    1    2    0    0  0.00000000000E+00  0.00000000000E+00 -0.34296787483E+02  0.12961954226E+03  0.12499982442E+03 0.  0.
    9000005    1    3    3    0    0  0.50527555026E+02 -0.15425526524E+02  0.17465784628E+02  0.55651004646E+02  0.10000000000E+01 0.  0.
    9000005    1    3    3    0    0 -0.50527555026E+02  0.15425526524E+02 -0.51762572111E+02  0.73968537615E+02  0.10000000000E+01 0.  0.
<mgrwt>
<rscale>  0 0.12499982E+03</rscale>
<asrwt>0</asrwt>
<pdfrwt beam="2">  1        4 0.12608948E-01 0.12499982E+03</pdfrwt>
<pdfrwt beam="1">  1       -4 0.73325196E-02 0.12499982E+03</pdfrwt>
<totfact> 0.10352694E+04</totfact>
</mgrwt>
</event>
<event>
 5    1  0.3286491E-002  0.1249651E+03  0.7818608E-02  0.1235124E+00
          4   -1    0    0  501    0  0.00000000000E+00  0.00000000000E+00  0.22877661429E+03  0.22878013932E+03  0.12700000000E+01 0. -1.
         -4   -1    0    0    0  501 -0.00000000000E+00 -0.00000000000E+00 -0.17037700591E+02  0.17084968288E+02  0.12700000000E+01 0. -1.
         25    2    1    2    0    0  0.00000000000E+00  0.00000000000E+00  0.21173891370E+03  0.24586510760E+03  0.12496512939E+03 0.  0.
    9000005    1    3    3    0    0 -0.28482959756E+02  0.46575780814E+02  0.46112490041E+02  0.71469882417E+02  0.10000000000E+01 0.  0.
    9000005    1    3    3    0    0  0.28482959756E+02 -0.46575780814E+02  0.16562642366E+03  0.17439522519E+03  0.10000000000E+01 0.  0.
<mgrwt>
<rscale>  0 0.12496513E+03</rscale>
<asrwt>0</asrwt>
<pdfrwt beam="1">  1        4 0.35200306E-01 0.12496513E+03</pdfrwt>
<pdfrwt beam="2">  1       -4 0.26250921E-02 0.12496513E+03</pdfrwt>
<totfact> 0.82996021E+03</totfact>
</mgrwt>
</event>
<event>
 5    1  0.3286491E-002  0.1250080E+03  0.7818608E-02  0.1235057E+00
         -4   -1    0    0    0  501 -0.00000000000E+00  0.00000000000E+00  0.50679285662E+03  0.50679444790E+03  0.12700000000E+01 0. -1.
          4   -1    0    0  501    0  0.00000000000E+00 -0.00000000000E+00 -0.76548471690E+01  0.77594835640E+01  0.12700000000E+01 0. -1.
         25    2    1    2    0    0  0.00000000000E+00  0.00000000000E+00  0.49913800945E+03  0.51455393146E+03  0.12500798337E+03 0.  0.
    9000005    1    3    3    0    0 -0.39483002216E+02 -0.33896662186E+02  0.10710807146E+03  0.11908413053E+03  0.10000000000E+01 0.  0.
    9000005    1    3    3    0    0  0.39483002216E+02  0.33896662186E+02  0.39202993799E+03  0.39546980094E+03  0.10000000000E+01 0.  0.
<mgrwt>
<rscale>  0 0.12500798E+03</rscale>
<asrwt>0</asrwt>
<pdfrwt beam="2">  1        4 0.11858403E-02 0.12500798E+03</pdfrwt>
<pdfrwt beam="1">  1       -4 0.77976294E-01 0.12500798E+03</pdfrwt>
<totfact> 0.54742979E+03</totfact>
</mgrwt>
</event>
<event>
 5    1  0.3286491E-002  0.1249981E+03  0.7818608E-02  0.1235072E+00
         -4   -1    0    0    0  501 -0.00000000000E+00  0.00000000000E+00  0.14790044369E+03  0.14790589624E+03  0.12700000000E+01 0.  1.
          4   -1    0    0  501    0  0.00000000000E+00 -0.00000000000E+00 -0.26389339562E+02  0.26419881576E+02  0.12700000000E+01 0.  1.
         25    2    1    2    0    0  0.00000000000E+00  0.00000000000E+00  0.12151110412E+03  0.17432577782E+03  0.12499811353E+03 0.  0.
    9000005    1    3    3    0    0  0.10846718915E+02 -0.45705979030E+02  0.11823119036E+03  0.12722539921E+03  0.10000000000E+01 0.  0.
    9000005    1    3    3    0    0 -0.10846718915E+02  0.45705979030E+02  0.32799137617E+01  0.47100378604E+02  0.10000000000E+01 0.  0.
<mgrwt>
<rscale>  0 0.12499811E+03</rscale>
<asrwt>0</asrwt>
<pdfrwt beam="2">  1        4 0.40626672E-02 0.12499811E+03</pdfrwt>
<pdfrwt beam="1">  1       -4 0.22756683E-01 0.12499811E+03</pdfrwt>
<totfact> 0.94652474E+03</totfact>
</mgrwt>
</event>
<event>
 5    1  0.3286491E-002  0.1250022E+03  0.7818608E-02  0.1235066E+00
          4   -1    0    0  501    0  0.00000000000E+00  0.00000000000E+00  0.19241264569E+01  0.23054636458E+01  0.12700000000E+01 0. -1.
         -4   -1    0    0    0  501 -0.00000000000E+00 -0.00000000000E+00 -0.18467890203E+04  0.18467894570E+04  0.12700000000E+01 0. -1.
         25    2    1    2    0    0  0.00000000000E+00  0.00000000000E+00 -0.18448648939E+04  0.18490949207E+04  0.12500219573E+03 0.  0.
    9000005    1    3    3    0    0  0.44444242138E+02  0.21270928510E+01 -0.27331773734E+03  0.27691767861E+03  0.10000000000E+01 0.  0.
    9000005    1    3    3    0    0 -0.44444242138E+02 -0.21270928510E+01 -0.15715471565E+04  0.15721772420E+04  0.10000000000E+01 0.  0.
<mgrwt>
<rscale>  0 0.12500220E+03</rscale>
<asrwt>0</asrwt>
<pdfrwt beam="1">  1        4 0.32538815E-03 0.12500220E+03</pdfrwt>
<pdfrwt beam="2">  1       -4 0.28414946E+00 0.12500220E+03</pdfrwt>
<totfact> 0.11961653E+03</totfact>
</mgrwt>
</event>
<event>
 5    1  0.3286491E-002  0.1250029E+03  0.7818608E-02  0.1235065E+00
         -4   -1    0    0    0  501 -0.00000000000E+00  0.00000000000E+00  0.45756550572E+02  0.45774171978E+02  0.12700000000E+01 0.  1.
          4   -1    0    0  501    0  0.00000000000E+00 -0.00000000000E+00 -0.85335459400E+02  0.85344909227E+02  0.12700000000E+01 0.  1.
         25    2    1    2    0    0  0.00000000000E+00  0.00000000000E+00 -0.39578908828E+02  0.13111908121E+03  0.12500289369E+03 0.  0.
    9000005    1    3    3    0    0  0.12546991251E+01  0.62259121292E+02 -0.25305900637E+02  0.67224705734E+02  0.10000000000E+01 0.  0.
    9000005    1    3    3    0    0 -0.12546991251E+01 -0.62259121292E+02 -0.14273008191E+02  0.63894375471E+02  0.10000000000E+01 0.  0.
<mgrwt>
<rscale>  0 0.12500289E+03</rscale>
<asrwt>0</asrwt>
<pdfrwt beam="2">  1        4 0.13130615E-01 0.12500289E+03</pdfrwt>
<pdfrwt beam="1">  1       -4 0.70415518E-02 0.12500289E+03</pdfrwt>
<totfact> 0.10319863E+04</totfact>
</mgrwt>
</event>
<event>
 5    1  0.3286491E-002  0.1249983E+03  0.7818608E-02  0.1235072E+00
         -4   -1    0    0    0  501 -0.00000000000E+00  0.00000000000E+00  0.58502214477E+02  0.58515997801E+02  0.12700000000E+01 0. -1.
          4   -1    0    0  501    0  0.00000000000E+00 -0.00000000000E+00 -0.66741481145E+02  0.66753563241E+02  0.12700000000E+01 0. -1.
         25    2    1    2    0    0  0.00000000000E+00  0.00000000000E+00 -0.82392666679E+01  0.12526956104E+03  0.12499830962E+03 0.  0.
    9000005    1    3    3    0    0 -0.26084201013E+02 -0.55012451815E+02 -0.18235259902E+02  0.63563197692E+02  0.10000000000E+01 0.  0.
    9000005    1    3    3    0    0  0.26084201013E+02  0.55012451815E+02  0.99959932343E+01  0.61706363350E+02  0.10000000000E+01 0.  0.
<mgrwt>
<rscale>  0 0.12499831E+03</rscale>
<asrwt>0</asrwt>
<pdfrwt beam="2">  1        4 0.10269910E-01 0.12499831E+03</pdfrwt>
<pdfrwt beam="1">  1       -4 0.90023304E-02 0.12499831E+03</pdfrwt>
<totfact> 0.10447410E+04</totfact>
</mgrwt>
</event>
<event>
 5    1  0.3286491E-002  0.1249750E+03  0.7818608E-02  0.1235108E+00
          4   -1    0    0  501    0  0.00000000000E+00  0.00000000000E+00  0.83871889633E+02  0.83881504342E+02  0.12700000000E+01 0. -1.
         -4   -1    0    0    0  501 -0.00000000000E+00 -0.00000000000E+00 -0.46534404279E+02  0.46551731242E+02  0.12700000000E+01 0. -1.
         25    2    1    2    0    0  0.00000000000E+00  0.00000000000E+00  0.37337485354E+02  0.13043323558E+03  0.12497496202E+03 0.  0.
    9000005    1    3    3    0    0 -0.50163654474E+02  0.23252950937E+02  0.49035797562E+02  0.73909413473E+02  0.10000000000E+01 0.  0.
    9000005    1    3    3    0    0  0.50163654474E+02 -0.23252950937E+02 -0.11698312208E+02  0.56523822110E+02  0.10000000000E+01 0.  0.
<mgrwt>
<rscale>  0 0.12497496E+03</rscale>
<asrwt>0</asrwt>
<pdfrwt beam="1">  1        4 0.12905440E-01 0.12497496E+03</pdfrwt>
<pdfrwt beam="2">  1       -4 0.71612116E-02 0.12497496E+03</pdfrwt>
<totfact> 0.10341092E+04</totfact>
</mgrwt>
</event>
<event>
 5    1  0.3286491E-002  0.1250008E+03  0.7818608E-02  0.1235068E+00
          4   -1    0    0  501    0  0.00000000000E+00  0.00000000000E+00  0.12268508917E+02  0.12334067092E+02  0.12700000000E+01 0. -1.
         -4   -1    0    0    0  501 -0.00000000000E+00 -0.00000000000E+00 -0.31748531829E+03  0.31748785840E+03  0.12700000000E+01 0. -1.
         25    2    1    2    0    0  0.00000000000E+00  0.00000000000E+00 -0.30521680937E+03  0.32982192549E+03  0.12500080723E+03 0.  0.
    9000005    1    3    3    0    0 -0.38919911842E+02  0.47562451352E+02 -0.18250155176E+03  0.19257404475E+03  0.10000000000E+01 0.  0.
    9000005    1    3    3    0    0  0.38919911842E+02 -0.47562451352E+02 -0.12271525762E+03  0.13724788074E+03  0.10000000000E+01 0.  0.
<mgrwt>
<rscale>  0 0.12500081E+03</rscale>
<asrwt>0</asrwt>
<pdfrwt beam="1">  1        4 0.18927015E-02 0.12500081E+03</pdfrwt>
<pdfrwt beam="2">  1       -4 0.48849127E-01 0.12500081E+03</pdfrwt>
<totfact> 0.72001682E+03</totfact>
</mgrwt>
</event>
<event>
 5    1  0.3286491E-002  0.1249881E+03  0.7818608E-02  0.1235088E+00
          4   -1    0    0  501    0  0.00000000000E+00  0.00000000000E+00  0.13989589558E+03  0.13990166011E+03  0.12700000000E+01 0.  1.
         -4   -1    0    0    0  501 -0.00000000000E+00 -0.00000000000E+00 -0.27896439282E+02  0.27925333026E+02  0.12700000000E+01 0.  1.
         25    2    1    2    0    0  0.00000000000E+00  0.00000000000E+00  0.11199945630E+03  0.16782699313E+03  0.12498808508E+03 0.  0.
    9000005    1    3    3    0    0  0.24111719410E+01 -0.61320171927E+02  0.71803551476E+02  0.94460188650E+02  0.10000000000E+01 0.  0.
    9000005    1    3    3    0    0 -0.24111719410E+01  0.61320171927E+02  0.40195904824E+02  0.73366804482E+02  0.10000000000E+01 0.  0.
<mgrwt>
<rscale>  0 0.12498809E+03</rscale>
<asrwt>0</asrwt>
<pdfrwt beam="1">  1        4 0.21525111E-01 0.12498809E+03</pdfrwt>
<pdfrwt beam="2">  1       -4 0.42944260E-02 0.12498809E+03</pdfrwt>
<totfact> 0.95880321E+03</totfact>
</mgrwt>
</event>
<event>
 5    1  0.3286491E-002  0.1249988E+03  0.7818608E-02  0.1235071E+00
         -4   -1    0    0    0  501 -0.00000000000E+00  0.00000000000E+00  0.29779944685E+03  0.29780215487E+03  0.12700000000E+01 0. -1.
          4   -1    0    0  501    0  0.00000000000E+00 -0.00000000000E+00 -0.13083285628E+02  0.13144780821E+02  0.12700000000E+01 0. -1.
         25    2    1    2    0    0  0.00000000000E+00  0.00000000000E+00  0.28471616122E+03  0.31094693569E+03  0.12499881741E+03 0.  0.
    9000005    1    3    3    0    0 -0.44144663223E+02 -0.34044491924E+02  0.21260346215E+03  0.21979310917E+03  0.10000000000E+01 0.  0.
    9000005    1    3    3    0    0  0.44144663223E+02  0.34044491924E+02  0.72112699074E+02  0.91153826520E+02  0.10000000000E+01 0.  0.
<mgrwt>
<rscale>  0 0.12499882E+03</rscale>
<asrwt>0</asrwt>
<pdfrwt beam="2">  1        4 0.20177521E-02 0.12499882E+03</pdfrwt>
<pdfrwt beam="1">  1       -4 0.45820233E-01 0.12499882E+03</pdfrwt>
<totfact> 0.74247827E+03</totfact>
</mgrwt>
</event>
<event>
 4    1  0.3286491E-002  0.1250941E+03  0.7818608E-02  0.1234922E+00
         -4   -1    0    0    0  501 -0.00000000000E+00  0.00000000000E+00  0.26427643563E+03  0.26427948715E+03  0.12700000000E+01 0.  1.
          4   -1    0    0  501    0  0.00000000000E+00 -0.00000000000E+00 -0.14772804940E+02  0.14827294621E+02  0.12700000000E+01 0.  1.
    9000005    1    1    2    0    0  0.18913622889E+02 -0.57860305623E+02  0.15674357463E+03  0.16815197972E+03  0.10000000000E+01 0.  0.
    9000005    1    1    2    0    0 -0.18913622889E+02  0.57860305623E+02  0.92760056066E+02  0.11095480205E+03  0.10000000000E+01 0.  0.
<mgrwt>
<rscale>  0 0.12509410E+03</rscale>
<asrwt>0</asrwt>
<pdfrwt beam="2">  1        4 0.22771655E-02 0.12509410E+03</pdfrwt>
<pdfrwt beam="1">  1       -4 0.40662339E-01 0.12509410E+03</pdfrwt>
<totfact> 0.78133131E+03</totfact>
</mgrwt>
</event>
<event>
 5    1  0.3286491E-002  0.1249977E+03  0.7818608E-02  0.1235073E+00
          4   -1    0    0  501    0  0.00000000000E+00  0.00000000000E+00  0.40504893772E+02  0.40524798821E+02  0.12700000000E+01 0. -1.
         -4   -1    0    0    0  501 -0.00000000000E+00 -0.00000000000E+00 -0.96387710987E+02  0.96396077354E+02  0.12700000000E+01 0. -1.
         25    2    1    2    0    0  0.00000000000E+00  0.00000000000E+00 -0.55882817214E+02  0.13692087618E+03  0.12499774827E+03 0.  0.
    9000005    1    3    3    0    0 -0.25975563547E+02  0.56547321252E+02 -0.34212899568E+02  0.71020081239E+02  0.10000000000E+01 0.  0.
    9000005    1    3    3    0    0  0.25975563547E+02 -0.56547321252E+02 -0.21669917646E+02  0.65900794936E+02  0.10000000000E+01 0.  0.
<mgrwt>
<rscale>  0 0.12499775E+03</rscale>
<asrwt>0</asrwt>
<pdfrwt beam="1">  1        4 0.62336969E-02 0.12499775E+03</pdfrwt>
<pdfrwt beam="2">  1       -4 0.14831053E-01 0.12499775E+03</pdfrwt>
<totfact> 0.10198258E+04</totfact>
</mgrwt>
</event>
<event>
 5    1  0.3286491E-002  0.1250021E+03  0.7818608E-02  0.1235066E+00
          4   -1    0    0  501    0  0.00000000000E+00  0.00000000000E+00  0.12908587015E+02  0.12970910482E+02  0.12700000000E+01 0.  1.
         -4   -1    0    0    0  501 -0.00000000000E+00 -0.00000000000E+00 -0.30182645019E+03  0.30182912207E+03  0.12700000000E+01 0.  1.
         25    2    1    2    0    0  0.00000000000E+00  0.00000000000E+00 -0.28891786317E+03  0.31480003256E+03  0.12500211533E+03 0.  0.
    9000005    1    3    3    0    0  0.47325844505E+02  0.31983534702E+02 -0.20830315520E+03  0.21599510762E+03  0.10000000000E+01 0.  0.
    9000005    1    3    3    0    0 -0.47325844505E+02 -0.31983534702E+02 -0.80614707976E+02  0.98804924939E+02  0.10000000000E+01 0.  0.
<mgrwt>
<rscale>  0 0.12500212E+03</rscale>
<asrwt>0</asrwt>
<pdfrwt beam="1">  1        4 0.19909363E-02 0.12500212E+03</pdfrwt>
<pdfrwt beam="2">  1       -4 0.46439833E-01 0.12500212E+03</pdfrwt>
<totfact> 0.73775432E+03</totfact>
</mgrwt>
</event>
<event>
 5    1  0.3286491E-002  0.1250055E+03  0.7818608E-02  0.1235061E+00
          4   -1    0    0  501    0  0.00000000000E+00  0.00000000000E+00  0.36032694610E+02  0.36055068727E+02  0.12700000000E+01 0. -1.
         -4   -1    0    0    0  501 -0.00000000000E+00 -0.00000000000E+00 -0.10835828464E+03  0.10836572683E+03  0.12700000000E+01 0. -1.
         25    2    1    2    0    0  0.00000000000E+00  0.00000000000E+00 -0.72325590032E+02  0.14442079555E+03  0.12500550074E+03 0.  0.
    9000005    1    3    3    0    0  0.41571928850E+02 -0.20407095561E+02 -0.84643652979E+02  0.96489495839E+02  0.10000000000E+01 0.  0.
    9000005    1    3    3    0    0 -0.41571928850E+02  0.20407095561E+02  0.12318062947E+02  0.47931299715E+02  0.10000000000E+01 0.  0.
<mgrwt>
<rscale>  0 0.12500550E+03</rscale>
<asrwt>0</asrwt>
<pdfrwt beam="1">  1        4 0.55457851E-02 0.12500550E+03</pdfrwt>
<pdfrwt beam="2">  1       -4 0.16672799E-01 0.12500550E+03</pdfrwt>
<totfact> 0.10041526E+04</totfact>
</mgrwt>
</event>
<event>
 5    1  0.3286491E-002  0.1249994E+03  0.7818608E-02  0.1235070E+00
         -4   -1    0    0    0  501 -0.00000000000E+00  0.00000000000E+00  0.39038674102E+02  0.39059326359E+02  0.12700000000E+01 0. -1.
          4   -1    0    0  501    0  0.00000000000E+00 -0.00000000000E+00 -0.10000894354E+03  0.10001700699E+03  0.12700000000E+01 0. -1.
         25    2    1    2    0    0  0.00000000000E+00  0.00000000000E+00 -0.60970269438E+02  0.13907633335E+03  0.12499941097E+03 0.  0.
    9000005    1    3    3    0    0 -0.38136711129E+02 -0.49336623824E+02 -0.25938087101E+02  0.67544766996E+02  0.10000000000E+01 0.  0.
    9000005    1    3    3    0    0  0.38136711129E+02  0.49336623824E+02 -0.35032182337E+02  0.71531566357E+02  0.10000000000E+01 0.  0.
<mgrwt>
<rscale>  0 0.12499941E+03</rscale>
<asrwt>0</asrwt>
<pdfrwt beam="2">  1        4 0.15388200E-01 0.12499941E+03</pdfrwt>
<pdfrwt beam="1">  1       -4 0.60081588E-02 0.12499941E+03</pdfrwt>
<totfact> 0.10152900E+04</totfact>
</mgrwt>
</event>
<event>
 4    1  0.3286491E-002  0.1251205E+03  0.7818608E-02  0.1234881E+00
         -4   -1    0    0    0  501 -0.00000000000E+00  0.00000000000E+00  0.35390418079E+03  0.35390645951E+03  0.12700000000E+01 0. -1.
          4   -1    0    0  501    0  0.00000000000E+00 -0.00000000000E+00 -0.11020098454E+02  0.11093037002E+02  0.12700000000E+01 0. -1.
    9000005    1    1    2    0    0 -0.94881591872E+01  0.29813788090E+02  0.32945266111E+03  0.33093646374E+03  0.10000000000E+01 0.  0.
    9000005    1    1    2    0    0  0.94881591872E+01 -0.29813788090E+02  0.13431421233E+02  0.34063032769E+02  0.10000000000E+01 0.  0.
<mgrwt>
<rscale>  0 0.12512050E+03</rscale>
<asrwt>0</asrwt>
<pdfrwt beam="2">  1        4 0.17011856E-02 0.12512050E+03</pdfrwt>
<pdfrwt beam="1">  1       -4 0.54452586E-01 0.12512050E+03</pdfrwt>
<totfact> 0.67924191E+03</totfact>
</mgrwt>
</event>
<event>
 5    1  0.3286491E-002  0.1249989E+03  0.7818608E-02  0.1235071E+00
          4   -1    0    0  501    0  0.00000000000E+00  0.00000000000E+00  0.19888920141E+03  0.19889325614E+03  0.12700000000E+01 0.  1.
         -4   -1    0    0    0  501 -0.00000000000E+00 -0.00000000000E+00 -0.19615189988E+02  0.19656260536E+02  0.12700000000E+01 0.  1.
         25    2    1    2    0    0  0.00000000000E+00  0.00000000000E+00  0.17927401142E+03  0.21854951667E+03  0.12499888027E+03 0.  0.
    9000005    1    3    3    0    0  0.59213441003E+02 -0.14189594206E+02  0.11421471569E+03  0.12943561125E+03  0.10000000000E+01 0.  0.
    9000005    1    3    3    0    0 -0.59213441003E+02  0.14189594206E+02  0.65059295727E+02  0.89113905423E+02  0.10000000000E+01 0.  0.
<mgrwt>
<rscale>  0 0.12499888E+03</rscale>
<asrwt>0</asrwt>
<pdfrwt beam="1">  1        4 0.30601810E-01 0.12499888E+03</pdfrwt>
<pdfrwt beam="2">  1       -4 0.30211927E-02 0.12499888E+03</pdfrwt>
<totfact> 0.87100569E+03</totfact>
</mgrwt>
</event>
<event>
 5    1  0.3286491E-002  0.1250019E+03  0.7818608E-02  0.1235066E+00
          4   -1    0    0  501    0  0.00000000000E+00  0.00000000000E+00  0.89748664124E+02  0.89757649323E+02  0.12700000000E+01 0.  1.
         -4   -1    0    0    0  501 -0.00000000000E+00 -0.00000000000E+00 -0.43505238452E+02  0.43523771353E+02  0.12700000000E+01 0.  1.
         25    2    1    2    0    0  0.00000000000E+00  0.00000000000E+00  0.46243425672E+02  0.13328142068E+03  0.12500193070E+03 0.  0.
    9000005    1    3    3    0    0  0.54082125083E+02  0.10114049527E+00  0.56508389358E+02  0.78224577665E+02  0.10000000000E+01 0.  0.
    9000005    1    3    3    0    0 -0.54082125083E+02 -0.10114049527E+00 -0.10264963687E+02  0.55056843012E+02  0.10000000000E+01 0.  0.
<mgrwt>
<rscale>  0 0.12500193E+03</rscale>
<asrwt>0</asrwt>
<pdfrwt beam="1">  1        4 0.13809604E-01 0.12500193E+03</pdfrwt>
<pdfrwt beam="2">  1       -4 0.66952303E-02 0.12500193E+03</pdfrwt>
<totfact> 0.10273975E+04</totfact>
</mgrwt>
</event>
<event>
 5    1  0.3286491E-002  0.1249989E+03  0.7818608E-02  0.1235071E+00
          4   -1    0    0  501    0  0.00000000000E+00  0.00000000000E+00  0.23156633944E+02  0.23191433669E+02  0.12700000000E+01 0.  1.
         -4   -1    0    0    0  501 -0.00000000000E+00 -0.00000000000E+00 -0.16852122328E+03  0.16852600866E+03  0.12700000000E+01 0.  1.
         25    2    1    2    0    0  0.00000000000E+00  0.00000000000E+00 -0.14536458933E+03  0.19171744233E+03  0.12499885544E+03 0.  0.
    9000005    1    3    3    0    0  0.53854993788E+01 -0.62218022305E+02 -0.69221118030E+02  0.93234377160E+02  0.10000000000E+01 0.  0.
    9000005    1    3    3    0    0 -0.53854993788E+01  0.62218022305E+02 -0.76143471301E+02  0.98483065168E+02  0.10000000000E+01 0.  0.
<mgrwt>
<rscale>  0 0.12499886E+03</rscale>
<asrwt>0</asrwt>
<pdfrwt beam="1">  1        4 0.35656042E-02 0.12499886E+03</pdfrwt>
<pdfrwt beam="2">  1       -4 0.25929386E-01 0.12499886E+03</pdfrwt>
<totfact> 0.91551688E+03</totfact>
</mgrwt>
</event>
<event>
 5    1  0.3286491E-002  0.1250009E+03  0.7818608E-02  0.1235068E+00
          4   -1    0    0  501    0  0.00000000000E+00  0.00000000000E+00  0.43962058630E+02  0.43980399032E+02  0.12700000000E+01 0. -1.
         -4   -1    0    0    0  501 -0.00000000000E+00 -0.00000000000E+00 -0.88814865112E+02  0.88823944772E+02  0.12700000000E+01 0. -1.
         25    2    1    2    0    0  0.00000000000E+00  0.00000000000E+00 -0.44852806482E+02  0.13280434380E+03  0.12500087793E+03 0.  0.
    9000005    1    3    3    0    0  0.38995822608E+02  0.43262653788E+02 -0.46489231563E+02  0.74529055038E+02  0.10000000000E+01 0.  0.
    9000005    1    3    3    0    0 -0.38995822608E+02 -0.43262653788E+02  0.16364250809E+01  0.58275288765E+02  0.10000000000E+01 0.  0.
<mgrwt>
<rscale>  0 0.12500088E+03</rscale>
<asrwt>0</asrwt>
<pdfrwt beam="1">  1        4 0.67655029E-02 0.12500088E+03</pdfrwt>
<pdfrwt beam="2">  1       -4 0.13665935E-01 0.12500088E+03</pdfrwt>
<totfact> 0.10284356E+04</totfact>
</mgrwt>
</event>
<event>
 5    1  0.3286491E-002  0.1249989E+03  0.7818608E-02  0.1235071E+00
          4   -1    0    0  501    0  0.00000000000E+00  0.00000000000E+00  0.36315891943E+03  0.36316114007E+03  0.12700000000E+01 0. -1.
         -4   -1    0    0    0  501 -0.00000000000E+00 -0.00000000000E+00 -0.10716364433E+02  0.10791356108E+02  0.12700000000E+01 0. -1.
         25    2    1    2    0    0  0.00000000000E+00  0.00000000000E+00  0.35244255499E+03  0.37395249618E+03  0.12499885931E+03 0.  0.
    9000005    1    3    3    0    0  0.41491356857E+01 -0.56306375156E+02  0.96083344825E+02  0.11144789080E+03  0.10000000000E+01 0.  0.
    9000005    1    3    3    0    0 -0.41491356857E+01  0.56306375156E+02  0.25635921017E+03  0.26250460538E+03  0.10000000000E+01 0.  0.
<mgrwt>
<rscale>  0 0.12499886E+03</rscale>
<asrwt>0</asrwt>
<pdfrwt beam="1">  1        4 0.55876544E-01 0.12499886E+03</pdfrwt>
<pdfrwt beam="2">  1       -4 0.16546108E-02 0.12499886E+03</pdfrwt>
<totfact> 0.67169140E+03</totfact>
</mgrwt>
</event>
<event>
 5    1  0.3286491E-002  0.1250011E+03  0.7818608E-02  0.1235068E+00
         -4   -1    0    0    0  501 -0.00000000000E+00  0.00000000000E+00  0.23327243276E+03  0.23327588985E+03  0.12700000000E+01 0.  1.
          4   -1    0    0  501    0  0.00000000000E+00 -0.00000000000E+00 -0.16718074140E+02  0.16766242958E+02  0.12700000000E+01 0.  1.
         25    2    1    2    0    0  0.00000000000E+00  0.00000000000E+00  0.21655435862E+03  0.25004213281E+03  0.12500111176E+03 0.  0.
    9000005    1    3    3    0    0  0.20382563622E+02  0.40148227510E+02  0.21591769925E+02  0.49945306091E+02  0.10000000000E+01 0.  0.
    9000005    1    3    3    0    0 -0.20382563622E+02 -0.40148227510E+02  0.19496258869E+03  0.20009682671E+03  0.10000000000E+01 0.  0.
<mgrwt>
<rscale>  0 0.12500111E+03</rscale>
<asrwt>0</asrwt>
<pdfrwt beam="2">  1        4 0.25759829E-02 0.12500111E+03</pdfrwt>
<pdfrwt beam="1">  1       -4 0.35892035E-01 0.12500111E+03</pdfrwt>
<totfact> 0.82322102E+03</totfact>
</mgrwt>
</event>
<event>
 5    1  0.3286491E-002  0.1249982E+03  0.7818608E-02  0.1235072E+00
         -4   -1    0    0    0  501 -0.00000000000E+00  0.00000000000E+00  0.36084146889E+02  0.36106489122E+02  0.12700000000E+01 0. -1.
          4   -1    0    0  501    0  0.00000000000E+00 -0.00000000000E+00 -0.10819120667E+03  0.10819866035E+03  0.12700000000E+01 0. -1.
         25    2    1    2    0    0  0.00000000000E+00  0.00000000000E+00 -0.72107059780E+02  0.14430514947E+03  0.12499819236E+03 0.  0.
    9000005    1    3    3    0    0  0.55892353472E+02  0.15212410281E+02 -0.89848914546E+01  0.58626793172E+02  0.10000000000E+01 0.  0.
    9000005    1    3    3    0    0 -0.55892353472E+02 -0.15212410281E+02 -0.63122168325E+02  0.85678356294E+02  0.10000000000E+01 0.  0.
<mgrwt>
<rscale>  0 0.12499819E+03</rscale>
<asrwt>0</asrwt>
<pdfrwt beam="2">  1        4 0.16647093E-01 0.12499819E+03</pdfrwt>
<pdfrwt beam="1">  1       -4 0.55536993E-02 0.12499819E+03</pdfrwt>
<totfact> 0.10045534E+04</totfact>
</mgrwt>
</event>
<event>
 5    1  0.3286491E-002  0.1250551E+03  0.7818608E-02  0.1234983E+00
         -4   -1    0    0    0  501 -0.00000000000E+00  0.00000000000E+00  0.34469192969E+02  0.34492581288E+02  0.12700000000E+01 0.  1.
          4   -1    0    0  501    0  0.00000000000E+00 -0.00000000000E+00 -0.11336040116E+03  0.11336751497E+03  0.12700000000E+01 0.  1.
         25    2    1    2    0    0  0.00000000000E+00  0.00000000000E+00 -0.78891208187E+02  0.14786009626E+03  0.12505512919E+03 0.  0.
    9000005    1    3    3    0    0  0.28758790833E+02  0.70692029429E+01 -0.10454685586E+03  0.10866502083E+03  0.10000000000E+01 0.  0.
    9000005    1    3    3    0    0 -0.28758790833E+02 -0.70692029429E+01  0.25655647675E+02  0.39195075431E+02  0.10000000000E+01 0.  0.
<mgrwt>
<rscale>  0 0.12505513E+03</rscale>
<asrwt>0</asrwt>
<pdfrwt beam="2">  1        4 0.17442408E-01 0.12505513E+03</pdfrwt>
<pdfrwt beam="1">  1       -4 0.53052991E-02 0.12505513E+03</pdfrwt>
<totfact> 0.99608311E+03</totfact>
</mgrwt>
</event>
<event>
 5    1  0.3286491E-002  0.1250023E+03  0.7818608E-02  0.1235066E+00
          4   -1    0    0  501    0  0.00000000000E+00  0.00000000000E+00  0.31498169032E+02  0.31523761711E+02  0.12700000000E+01 0.  1.
         -4   -1    0    0    0  501 -0.00000000000E+00 -0.00000000000E+00 -0.12394047447E+03  0.12394698105E+03  0.12700000000E+01 0.  1.
         25    2    1    2    0    0  0.00000000000E+00  0.00000000000E+00 -0.92442305439E+02  0.15547074276E+03  0.12500228806E+03 0.  0.
    9000005    1    3    3    0    0  0.52237553185E+02 -0.10941184019E+02 -0.57866520537E+01  0.53693172867E+02  0.10000000000E+01 0.  0.
    9000005    1    3    3    0    0 -0.52237553185E+02  0.10941184019E+02 -0.86655653385E+02  0.10177756990E+03  0.10000000000E+01 0.  0.
<mgrwt>
<rscale>  0 0.12500229E+03</rscale>
<asrwt>0</asrwt>
<pdfrwt beam="1">  1        4 0.48483414E-02 0.12500229E+03</pdfrwt>
<pdfrwt beam="2">  1       -4 0.19070234E-01 0.12500229E+03</pdfrwt>
<totfact> 0.98218111E+03</totfact>
</mgrwt>
</event>
<event>
 5    1  0.3286491E-002  0.1249999E+03  0.7818608E-02  0.1235069E+00
          4   -1    0    0  501    0  0.00000000000E+00  0.00000000000E+00  0.31426066361E+03  0.31426322978E+03  0.12700000000E+01 0. -1.
         -4   -1    0    0    0  501 -0.00000000000E+00 -0.00000000000E+00 -0.12394887627E+02  0.12459780868E+02  0.12700000000E+01 0. -1.
         25    2    1    2    0    0  0.00000000000E+00  0.00000000000E+00  0.30186577598E+03  0.32672301065E+03  0.12499991591E+03 0.  0.
    9000005    1    3    3    0    0  0.41952362833E+02 -0.37622223941E+02  0.22154441114E+03  0.22860087181E+03  0.10000000000E+01 0.  0.
    9000005    1    3    3    0    0 -0.41952362833E+02  0.37622223941E+02  0.80321364842E+02  0.98122138846E+02  0.10000000000E+01 0.  0.
<mgrwt>
<rscale>  0 0.12499992E+03</rscale>
<asrwt>0</asrwt>
<pdfrwt beam="1">  1        4 0.48352978E-01 0.12499992E+03</pdfrwt>
<pdfrwt beam="2">  1       -4 0.19120952E-02 0.12499992E+03</pdfrwt>
<totfact> 0.72363720E+03</totfact>
</mgrwt>
</event>
<event>
 5    1  0.3286491E-002  0.1249999E+03  0.7818608E-02  0.1235069E+00
         -4   -1    0    0    0  501 -0.00000000000E+00  0.00000000000E+00  0.25295081441E+03  0.25295400256E+03  0.12700000000E+01 0.  1.
          4   -1    0    0  501    0  0.00000000000E+00 -0.00000000000E+00 -0.15413292268E+02  0.15465525485E+02  0.12700000000E+01 0.  1.
         25    2    1    2    0    0  0.00000000000E+00  0.00000000000E+00  0.23753752214E+03  0.26841952804E+03  0.12499987444E+03 0.  0.
    9000005    1    3    3    0    0  0.60626232207E+02  0.13242296040E+02  0.13459869856E+03  0.14821844720E+03  0.10000000000E+01 0.  0.
    9000005    1    3    3    0    0 -0.60626232207E+02 -0.13242296040E+02  0.10293882358E+03  0.12020108085E+03  0.10000000000E+01 0.  0.
<mgrwt>
<rscale>  0 0.12499987E+03</rscale>
<asrwt>0</asrwt>
<pdfrwt beam="2">  1        4 0.23755391E-02 0.12499987E+03</pdfrwt>
<pdfrwt beam="1">  1       -4 0.38919770E-01 0.12499987E+03</pdfrwt>
<totfact> 0.79739053E+03</totfact>
</mgrwt>
</event>
<event>
 5    1  0.3286491E-002  0.1250063E+03  0.7818608E-02  0.1235059E+00
         -4   -1    0    0    0  501 -0.00000000000E+00  0.00000000000E+00  0.14894363889E+03  0.14894905326E+03  0.12700000000E+01 0. -1.
          4   -1    0    0  501    0  0.00000000000E+00 -0.00000000000E+00 -0.26207756687E+02  0.26238510067E+02  0.12700000000E+01 0. -1.
         25    2    1    2    0    0  0.00000000000E+00  0.00000000000E+00  0.12273588220E+03  0.17518756332E+03  0.12500634209E+03 0.  0.
    9000005    1    3    3    0    0 -0.10555411833E+02 -0.58566120544E+02  0.34621588577E+02  0.68855367185E+02  0.10000000000E+01 0.  0.
    9000005    1    3    3    0    0  0.10555411833E+02  0.58566120544E+02  0.88114293626E+02  0.10633219614E+03  0.10000000000E+01 0.  0.
<mgrwt>
<rscale>  0 0.12500634E+03</rscale>
<asrwt>0</asrwt>
<pdfrwt beam="2">  1        4 0.40347448E-02 0.12500634E+03</pdfrwt>
<pdfrwt beam="1">  1       -4 0.22917188E-01 0.12500634E+03</pdfrwt>
<totfact> 0.94477058E+03</totfact>
</mgrwt>
</event>
<event>
 5    1  0.3286491E-002  0.1249920E+03  0.7818608E-02  0.1235082E+00
         -4   -1    0    0    0  501 -0.00000000000E+00  0.00000000000E+00  0.35835894320E+02  0.35858391231E+02  0.12700000000E+01 0.  1.
          4   -1    0    0  501    0  0.00000000000E+00 -0.00000000000E+00 -0.10892942356E+03  0.10893682673E+03  0.12700000000E+01 0.  1.
         25    2    1    2    0    0  0.00000000000E+00  0.00000000000E+00 -0.73093529245E+02  0.14479521796E+03  0.12499196425E+03 0.  0.
    9000005    1    3    3    0    0  0.55860758154E+02  0.46922326545E+01 -0.68531069630E+02  0.88543485663E+02  0.10000000000E+01 0.  0.
    9000005    1    3    3    0    0 -0.55860758154E+02 -0.46922326545E+01 -0.45624596145E+01  0.56251732298E+02  0.10000000000E+01 0.  0.
<mgrwt>
<rscale>  0 0.12499196E+03</rscale>
<asrwt>0</asrwt>
<pdfrwt beam="2">  1        4 0.16760673E-01 0.12499196E+03</pdfrwt>
<pdfrwt beam="1">  1       -4 0.55155146E-02 0.12499196E+03</pdfrwt>
<totfact> 0.10036967E+04</totfact>
</mgrwt>
</event>
<event>
 5    1  0.3286491E-002  0.1249997E+03  0.7818608E-02  0.1235070E+00
          4   -1    0    0  501    0  0.00000000000E+00  0.00000000000E+00  0.59796720234E+02  0.59810205239E+02  0.12700000000E+01 0. -1.
         -4   -1    0    0    0  501 -0.00000000000E+00 -0.00000000000E+00 -0.65298142941E+02  0.65310492048E+02  0.12700000000E+01 0. -1.
         25    2    1    2    0    0  0.00000000000E+00  0.00000000000E+00 -0.55014227071E+01  0.12512069729E+03  0.12499969295E+03 0.  0.
    9000005    1    3    3    0    0  0.50150025438E+02  0.28136621649E+02  0.21737972803E+02  0.61483607497E+02  0.10000000000E+01 0.  0.
    9000005    1    3    3    0    0 -0.50150025438E+02 -0.28136621649E+02 -0.27239395510E+02  0.63637089790E+02  0.10000000000E+01 0.  0.
<mgrwt>
<rscale>  0 0.12499969E+03</rscale>
<asrwt>0</asrwt>
<pdfrwt beam="1">  1        4 0.92014827E-02 0.12499969E+03</pdfrwt>
<pdfrwt beam="2">  1       -4 0.10047855E-01 0.12499969E+03</pdfrwt>
<totfact> 0.10450314E+04</totfact>
</mgrwt>
</event>
<event>
 5    1  0.3286491E-002  0.1250091E+03  0.7818608E-02  0.1235055E+00
          4   -1    0    0  501    0  0.00000000000E+00  0.00000000000E+00  0.11772426841E+04  0.11772433691E+04  0.12700000000E+01 0. -1.
         -4   -1    0    0    0  501 -0.00000000000E+00 -0.00000000000E+00 -0.31964055871E+01  0.34394634287E+01  0.12700000000E+01 0. -1.
         25    2    1    2    0    0  0.00000000000E+00  0.00000000000E+00  0.11740462785E+04  0.11806828325E+04  0.12500914772E+03 0.  0.
    9000005    1    3    3    0    0  0.27022656111E+02  0.55793656776E+02  0.51225676645E+03  0.51599530119E+03  0.10000000000E+01 0.  0.
    9000005    1    3    3    0    0 -0.27022656111E+02 -0.55793656776E+02  0.66178951202E+03  0.66468753133E+03  0.10000000000E+01 0.  0.
<mgrwt>
<rscale>  0 0.12500915E+03</rscale>
<asrwt>0</asrwt>
<pdfrwt beam="1">  1        4 0.18113261E+00 0.12500915E+03</pdfrwt>
<pdfrwt beam="2">  1       -4 0.51050528E-03 0.12500915E+03</pdfrwt>
<totfact> 0.25219084E+03</totfact>
</mgrwt>
</event>
<event>
 5    1  0.3286491E-002  0.1249990E+03  0.7818608E-02  0.1235071E+00
         -4   -1    0    0    0  501 -0.00000000000E+00  0.00000000000E+00  0.31375691123E+02  0.31401383623E+02  0.12700000000E+01 0. -1.
          4   -1    0    0  501    0  0.00000000000E+00 -0.00000000000E+00 -0.12441734372E+03  0.12442382536E+03  0.12700000000E+01 0. -1.
         25    2    1    2    0    0  0.00000000000E+00  0.00000000000E+00 -0.93041652596E+02  0.15582520899E+03  0.12499898655E+03 0.  0.
    9000005    1    3    3    0    0  0.51895805644E+02  0.10156903285E+02 -0.50094152905E+01  0.53126561806E+02  0.10000000000E+01 0.  0.
    9000005    1    3    3    0    0 -0.51895805644E+02 -0.10156903285E+02 -0.88032237305E+02  0.10269864718E+03  0.10000000000E+01 0.  0.
<mgrwt>
<rscale>  0 0.12499899E+03</rscale>
<asrwt>0</asrwt>
<pdfrwt beam="2">  1        4 0.19143605E-01 0.12499899E+03</pdfrwt>
<pdfrwt beam="1">  1       -4 0.48295044E-02 0.12499899E+03</pdfrwt>
<totfact> 0.98155980E+03</totfact>
</mgrwt>
</event>
<event>
 5    1  0.3286491E-002  0.1250007E+03  0.7818608E-02  0.1235068E+00
          4   -1    0    0  501    0  0.00000000000E+00  0.00000000000E+00  0.48498961867E+02  0.48515587209E+02  0.12700000000E+01 0.  1.
         -4   -1    0    0    0  501 -0.00000000000E+00 -0.00000000000E+00 -0.80508427440E+02  0.80518443781E+02  0.12700000000E+01 0.  1.
         25    2    1    2    0    0  0.00000000000E+00  0.00000000000E+00 -0.32009465572E+02  0.12903403099E+03  0.12500070107E+03 0.  0.
    9000005    1    3    3    0    0 -0.45002741031E+02 -0.18450307805E+02 -0.56508970010E+02  0.74564899584E+02  0.10000000000E+01 0.  0.
    9000005    1    3    3    0    0  0.45002741031E+02  0.18450307805E+02  0.24499504437E+02  0.54469131406E+02  0.10000000000E+01 0.  0.
<mgrwt>
<rscale>  0 0.12500070E+03</rscale>
<asrwt>0</asrwt>
<pdfrwt beam="1">  1        4 0.74634281E-02 0.12500070E+03</pdfrwt>
<pdfrwt beam="2">  1       -4 0.12387961E-01 0.12500070E+03</pdfrwt>
<totfact> 0.10365052E+04</totfact>
</mgrwt>
</event>
<event>
 5    1  0.3286491E-002  0.1249836E+03  0.7818608E-02  0.1235095E+00
         -4   -1    0    0    0  501 -0.00000000000E+00  0.00000000000E+00  0.42055581683E+02  0.42074753127E+02  0.12700000000E+01 0.  1.
          4   -1    0    0  501    0  0.00000000000E+00 -0.00000000000E+00 -0.92813963927E+02  0.92822652407E+02  0.12700000000E+01 0.  1.
         25    2    1    2    0    0  0.00000000000E+00  0.00000000000E+00 -0.50758382244E+02  0.13489740553E+03  0.12498358553E+03 0.  0.
    9000005    1    3    3    0    0 -0.32436795253E+02 -0.52996747059E+02 -0.32491521454E+02  0.70124887533E+02  0.10000000000E+01 0.  0.
    9000005    1    3    3    0    0  0.32436795253E+02  0.52996747059E+02 -0.18266860790E+02  0.64772518001E+02  0.10000000000E+01 0.  0.
<mgrwt>
<rscale>  0 0.12498359E+03</rscale>
<asrwt>0</asrwt>
<pdfrwt beam="2">  1        4 0.14281214E-01 0.12498359E+03</pdfrwt>
<pdfrwt beam="1">  1       -4 0.64722326E-02 0.12498359E+03</pdfrwt>
<totfact> 0.10244026E+04</totfact>
</mgrwt>
</event>
<event>
 5    1  0.3286491E-002  0.1249988E+03  0.7818608E-02  0.1235071E+00
         -4   -1    0    0    0  501 -0.00000000000E+00  0.00000000000E+00  0.39454837190E+02  0.39475271724E+02  0.12700000000E+01 0.  1.
          4   -1    0    0  501    0  0.00000000000E+00 -0.00000000000E+00 -0.98953624581E+02  0.98961774023E+02  0.12700000000E+01 0.  1.
         25    2    1    2    0    0  0.00000000000E+00  0.00000000000E+00 -0.59498787391E+02  0.13843704575E+03  0.12499883973E+03 0.  0.
    9000005    1    3    3    0    0  0.29326276567E+02  0.55182547716E+02 -0.29951839930E+02  0.69305532138E+02  0.10000000000E+01 0.  0.
    9000005    1    3    3    0    0 -0.29326276567E+02 -0.55182547716E+02 -0.29546947460E+02  0.69131513609E+02  0.10000000000E+01 0.  0.
<mgrwt>
<rscale>  0 0.12499884E+03</rscale>
<asrwt>0</asrwt>
<pdfrwt beam="2">  1        4 0.15225833E-01 0.12499884E+03</pdfrwt>
<pdfrwt beam="1">  1       -4 0.60721738E-02 0.12499884E+03</pdfrwt>
<totfact> 0.10166348E+04</totfact>
</mgrwt>
</event>
<event>
 5    1  0.3286491E-002  0.1249866E+03  0.7818608E-02  0.1235090E+00
          4   -1    0    0  501    0  0.00000000000E+00  0.00000000000E+00  0.17865244071E+03  0.17865695472E+03  0.12700000000E+01 0. -1.
         -4   -1    0    0    0  501 -0.00000000000E+00 -0.00000000000E+00 -0.21837141116E+02  0.21874040142E+02  0.12700000000E+01 0. -1.
         25    2    1    2    0    0  0.00000000000E+00  0.00000000000E+00  0.15681529959E+03  0.20053099487E+03  0.12498656614E+03 0.  0.
    9000005    1    3    3    0    0 -0.13371116358E+02  0.47382048712E+02  0.14014271785E+03  0.14854233961E+03  0.10000000000E+01 0.  0.
    9000005    1    3    3    0    0  0.13371116358E+02 -0.47382048712E+02  0.16672581746E+02  0.51988655252E+02  0.10000000000E+01 0.  0.
<mgrwt>
<rscale>  0 0.12498657E+03</rscale>
<asrwt>0</asrwt>
<pdfrwt beam="1">  1        4 0.27488175E-01 0.12498657E+03</pdfrwt>
<pdfrwt beam="2">  1       -4 0.33627460E-02 0.12498657E+03</pdfrwt>
<totfact> 0.90073101E+03</totfact>
</mgrwt>
</event>
<event>
 5    1  0.3286491E-002  0.1249993E+03  0.7818608E-02  0.1235070E+00
          4   -1    0    0  501    0  0.00000000000E+00  0.00000000000E+00  0.55900784019E+01  0.57325279362E+01  0.12700000000E+01 0. -1.
         -4   -1    0    0    0  501 -0.00000000000E+00 -0.00000000000E+00 -0.68984090946E+03  0.68984207850E+03  0.12700000000E+01 0. -1.
         25    2    1    2    0    0  0.00000000000E+00  0.00000000000E+00 -0.68425083106E+03  0.69557460644E+03  0.12499933324E+03 0.  0.
    9000005    1    3    3    0    0  0.36786223773E+02 -0.37646607141E+02 -0.52957281845E+03  0.53218311072E+03  0.10000000000E+01 0.  0.
    9000005    1    3    3    0    0 -0.36786223773E+02  0.37646607141E+02 -0.15467801261E+03  0.16339149572E+03  0.10000000000E+01 0.  0.
<mgrwt>
<rscale>  0 0.12499933E+03</rscale>
<asrwt>0</asrwt>
<pdfrwt beam="1">  1        4 0.87106019E-03 0.12499933E+03</pdfrwt>
<pdfrwt beam="2">  1       -4 0.10614035E+00 0.12499933E+03</pdfrwt>
<totfact> 0.43321984E+03</totfact>
</mgrwt>
</event>
<event>
 5    1  0.3286491E-002  0.1250002E+03  0.7818608E-02  0.1235069E+00
          4   -1    0    0  501    0  0.00000000000E+00  0.00000000000E+00  0.16876182352E+03  0.16876660208E+03  0.12700000000E+01 0. -1.
         -4   -1    0    0    0  501 -0.00000000000E+00 -0.00000000000E+00 -0.23124072615E+02  0.23158921268E+02  0.12700000000E+01 0. -1.
         25    2    1    2    0    0  0.00000000000E+00  0.00000000000E+00  0.14563775090E+03  0.19192552335E+03  0.12500020810E+03 0.  0.
    9000005    1    3    3    0    0 -0.12563113669E+02  0.59008089999E+02  0.47801886569E+02  0.76979262597E+02  0.10000000000E+01 0.  0.
    9000005    1    3    3    0    0  0.12563113669E+02 -0.59008089999E+02  0.97835864333E+02  0.11494626075E+03  0.10000000000E+01 0.  0.
<mgrwt>
<rscale>  0 0.12500021E+03</rscale>
<asrwt>0</asrwt>
<pdfrwt beam="1">  1        4 0.25966405E-01 0.12500021E+03</pdfrwt>
<pdfrwt beam="2">  1       -4 0.35605980E-02 0.12500021E+03</pdfrwt>
<totfact> 0.91512929E+03</totfact>
</mgrwt>
</event>
<event>
 5    1  0.3286491E-002  0.1249910E+03  0.7818608E-02  0.1235083E+00
         -4   -1    0    0    0  501 -0.00000000000E+00  0.00000000000E+00  0.23993409488E+03  0.23993745599E+03  0.12700000000E+01 0.  1.
          4   -1    0    0  501    0  0.00000000000E+00 -0.00000000000E+00 -0.16249925025E+02  0.16299477394E+02  0.12700000000E+01 0.  1.
         25    2    1    2    0    0  0.00000000000E+00  0.00000000000E+00  0.22368416986E+03  0.25623693339E+03  0.12499103242E+03 0.  0.
    9000005    1    3    3    0    0  0.60945879480E+02 -0.40650787006E+01  0.13886569373E+03  0.15170895156E+03  0.10000000000E+01 0.  0.
    9000005    1    3    3    0    0 -0.60945879480E+02  0.40650787006E+01  0.84818476131E+02  0.10452798182E+03  0.10000000000E+01 0.  0.
<mgrwt>
<rscale>  0 0.12499103E+03</rscale>
<asrwt>0</asrwt>
<pdfrwt beam="2">  1        4 0.25040589E-02 0.12499103E+03</pdfrwt>
<pdfrwt beam="1">  1       -4 0.36917005E-01 0.12499103E+03</pdfrwt>
<totfact> 0.81453335E+03</totfact>
</mgrwt>
</event>
<event>
 5    1  0.3286491E-002  0.1249934E+03  0.7818608E-02  0.1235080E+00
          4   -1    0    0  501    0  0.00000000000E+00  0.00000000000E+00  0.67817242761E+01  0.68996147832E+01  0.12700000000E+01 0.  1.
         -4   -1    0    0    0  501 -0.00000000000E+00 -0.00000000000E+00 -0.57085469963E+03  0.57085611233E+03  0.12700000000E+01 0.  1.
         25    2    1    2    0    0  0.00000000000E+00  0.00000000000E+00 -0.56407297535E+03  0.57775572711E+03  0.12499343460E+03 0.  0.
    9000005    1    3    3    0    0  0.53186681636E+02  0.15812658987E+02 -0.14919281530E+03  0.15918027335E+03  0.10000000000E+01 0.  0.
    9000005    1    3    3    0    0 -0.53186681636E+02 -0.15812658987E+02 -0.41488016005E+03  0.41857545376E+03  0.10000000000E+01 0.  0.
<mgrwt>
<rscale>  0 0.12499343E+03</rscale>
<asrwt>0</asrwt>
<pdfrwt beam="1">  1        4 0.10525198E-02 0.12499343E+03</pdfrwt>
<pdfrwt beam="2">  1       -4 0.87832940E-01 0.12499343E+03</pdfrwt>
<totfact> 0.50309788E+03</totfact>
</mgrwt>
</event>
<event>
 5    1  0.3286491E-002  0.1250038E+03  0.7818608E-02  0.1235063E+00
          4   -1    0    0  501    0  0.00000000000E+00  0.00000000000E+00  0.34638469263E+03  0.34638702082E+03  0.12700000000E+01 0. -1.
         -4   -1    0    0    0  501 -0.00000000000E+00 -0.00000000000E+00 -0.11239751960E+02  0.11311274204E+02  0.12700000000E+01 0. -1.
         25    2    1    2    0    0  0.00000000000E+00  0.00000000000E+00  0.33514494067E+03  0.35769829502E+03  0.12500375595E+03 0.  0.
    9000005    1    3    3    0    0 -0.61239347011E+02  0.12218503381E+02  0.17454379434E+03  0.18538092024E+03  0.10000000000E+01 0.  0.
    9000005    1    3    3    0    0  0.61239347011E+02 -0.12218503381E+02  0.16060114633E+03  0.17231737478E+03  0.10000000000E+01 0.  0.
<mgrwt>
<rscale>  0 0.12500376E+03</rscale>
<asrwt>0</asrwt>
<pdfrwt beam="1">  1        4 0.53295622E-01 0.12500376E+03</pdfrwt>
<pdfrwt beam="2">  1       -4 0.17348738E-02 0.12500376E+03</pdfrwt>
<totfact> 0.68880153E+03</totfact>
</mgrwt>
</event>
<event>
 5    1  0.3286491E-002  0.1250029E+03  0.7818608E-02  0.1235065E+00
          4   -1    0    0  501    0  0.00000000000E+00  0.00000000000E+00  0.11759147003E+04  0.11759153862E+04  0.12700000000E+01 0.  1.
         -4   -1    0    0    0  501 -0.00000000000E+00 -0.00000000000E+00 -0.31999463899E+01  0.34427542605E+01  0.12700000000E+01 0.  1.
         25    2    1    2    0    0  0.00000000000E+00  0.00000000000E+00  0.11727147540E+04  0.11793581404E+04  0.12500291681E+03 0.  0.
    9000005    1    3    3    0    0 -0.60393853116E+02  0.31984566299E+01  0.43784495141E+03  0.44200322295E+03  0.10000000000E+01 0.  0.
    9000005    1    3    3    0    0  0.60393853116E+02 -0.31984566299E+01  0.73486980254E+03  0.73735491746E+03  0.10000000000E+01 0.  0.
<mgrwt>
<rscale>  0 0.12500292E+03</rscale>
<asrwt>0</asrwt>
<pdfrwt beam="1">  1        4 0.18092831E+00 0.12500292E+03</pdfrwt>
<pdfrwt beam="2">  1       -4 0.51103078E-03 0.12500292E+03</pdfrwt>
<totfact> 0.25257989E+03</totfact>
</mgrwt>
</event>
<event>
 5    1  0.3286491E-002  0.1249997E+03  0.7818608E-02  0.1235070E+00
         -4   -1    0    0    0  501 -0.00000000000E+00  0.00000000000E+00  0.90725781189E+02  0.90734669628E+02  0.12700000000E+01 0. -1.
          4   -1    0    0  501    0  0.00000000000E+00 -0.00000000000E+00 -0.43035023537E+02  0.43053758846E+02  0.12700000000E+01 0. -1.
         25    2    1    2    0    0  0.00000000000E+00  0.00000000000E+00  0.47690757653E+02  0.13378842847E+03  0.12499974091E+03 0.  0.
    9000005    1    3    3    0    0 -0.16438939050E+02  0.47953946362E+02 -0.15267287341E+02  0.52951957013E+02  0.10000000000E+01 0.  0.
    9000005    1    3    3    0    0  0.16438939050E+02 -0.47953946362E+02  0.62958044994E+02  0.80836471461E+02  0.10000000000E+01 0.  0.
<mgrwt>
<rscale>  0 0.12499974E+03</rscale>
<asrwt>0</asrwt>
<pdfrwt beam="2">  1        4 0.66228977E-02 0.12499974E+03</pdfrwt>
<pdfrwt beam="1">  1       -4 0.13959937E-01 0.12499974E+03</pdfrwt>
<totfact> 0.10263731E+04</totfact>
</mgrwt>
</event>
<event>
 5    1  0.3286491E-002  0.1249997E+03  0.7818608E-02  0.1235070E+00
         -4   -1    0    0    0  501 -0.00000000000E+00  0.00000000000E+00  0.13607996731E+02  0.13667131193E+02  0.12700000000E+01 0. -1.
          4   -1    0    0  501    0  0.00000000000E+00 -0.00000000000E+00 -0.28637097524E+03  0.28637379133E+03  0.12700000000E+01 0. -1.
         25    2    1    2    0    0  0.00000000000E+00  0.00000000000E+00 -0.27276297851E+03  0.30004092252E+03  0.12499965097E+03 0.  0.
    9000005    1    3    3    0    0 -0.58119272850E+02 -0.21316369979E+02 -0.15688864344E+03  0.16866322642E+03  0.10000000000E+01 0.  0.
    9000005    1    3    3    0    0  0.58119272850E+02  0.21316369979E+02 -0.11587433507E+03  0.13137769610E+03  0.10000000000E+01 0.  0.
<mgrwt>
<rscale>  0 0.12499965E+03</rscale>
<asrwt>0</asrwt>
<pdfrwt beam="2">  1        4 0.44061834E-01 0.12499965E+03</pdfrwt>
<pdfrwt beam="1">  1       -4 0.20983036E-02 0.12499965E+03</pdfrwt>
<totfact> 0.75594293E+03</totfact>
</mgrwt>
</event>
<event>
 5    1  0.3286491E-002  0.1249958E+03  0.7818608E-02  0.1235076E+00
          4   -1    0    0  501    0  0.00000000000E+00  0.00000000000E+00  0.27928977003E+01  0.30680902145E+01  0.12700000000E+01 0.  1.
         -4   -1    0    0    0  501 -0.00000000000E+00 -0.00000000000E+00 -0.13326007390E+04  0.13326013442E+04  0.12700000000E+01 0.  1.
         25    2    1    2    0    0  0.00000000000E+00  0.00000000000E+00 -0.13298078413E+04  0.13356694344E+04  0.12499577260E+03 0.  0.
    9000005    1    3    3    0    0  0.46482004154E+01  0.59572487017E+02 -0.86033829567E+03  0.86241142732E+03  0.10000000000E+01 0.  0.
    9000005    1    3    3    0    0 -0.46482004154E+01 -0.59572487017E+02 -0.46946954565E+03  0.47325800708E+03  0.10000000000E+01 0.  0.
<mgrwt>
<rscale>  0 0.12499577E+03</rscale>
<asrwt>0</asrwt>
<pdfrwt beam="1">  1        4 0.45089284E-03 0.12499577E+03</pdfrwt>
<pdfrwt beam="2">  1       -4 0.20503623E+00 0.12499577E+03</pdfrwt>
<totfact> 0.21404029E+03</totfact>
</mgrwt>
</event>
<event>
 5    1  0.3286491E-002  0.1250028E+03  0.7818608E-02  0.1235065E+00
         -4   -1    0    0    0  501 -0.00000000000E+00  0.00000000000E+00  0.52833881950E+02  0.52849143625E+02  0.12700000000E+01 0.  1.
          4   -1    0    0  501    0  0.00000000000E+00 -0.00000000000E+00 -0.73906534663E+02  0.73917445613E+02  0.12700000000E+01 0.  1.
         25    2    1    2    0    0  0.00000000000E+00  0.00000000000E+00 -0.21072652713E+02  0.12676658924E+03  0.12500284579E+03 0.  0.
    9000005    1    3    3    0    0 -0.13900714533E+02  0.25840479308E+01  0.51195556989E+02  0.53121485519E+02  0.10000000000E+01 0.  0.
    9000005    1    3    3    0    0  0.13900714533E+02 -0.25840479308E+01 -0.72268209702E+02  0.73645103719E+02  0.10000000000E+01 0.  0.
<mgrwt>
<rscale>  0 0.12500285E+03</rscale>
<asrwt>0</asrwt>
<pdfrwt beam="2">  1        4 0.11372249E-01 0.12500285E+03</pdfrwt>
<pdfrwt beam="1">  1       -4 0.81303028E-02 0.12500285E+03</pdfrwt>
<totfact> 0.10413552E+04</totfact>
</mgrwt>
</event>
<event>
 5    1  0.3286491E-002  0.1250005E+03  0.7818608E-02  0.1235068E+00
         -4   -1    0    0    0  501 -0.00000000000E+00  0.00000000000E+00  0.59498387790E+02  0.59511940396E+02  0.12700000000E+01 0.  1.
          4   -1    0    0  501    0  0.00000000000E+00 -0.00000000000E+00 -0.65626417026E+02  0.65638704373E+02  0.12700000000E+01 0.  1.
         25    2    1    2    0    0  0.00000000000E+00  0.00000000000E+00 -0.61280292362E+01  0.12515064477E+03  0.12500052457E+03 0.  0.
    9000005    1    3    3    0    0 -0.22321845301E+02  0.15475517639E+01 -0.61483237575E+02  0.65435832667E+02  0.10000000000E+01 0.  0.
    9000005    1    3    3    0    0  0.22321845301E+02 -0.15475517639E+01  0.55355208339E+02  0.59714812102E+02  0.10000000000E+01 0.  0.
<mgrwt>
<rscale>  0 0.12500052E+03</rscale>
<asrwt>0</asrwt>
<pdfrwt beam="2">  1        4 0.10098360E-01 0.12500052E+03</pdfrwt>
<pdfrwt beam="1">  1       -4 0.91555858E-02 0.12500052E+03</pdfrwt>
<totfact> 0.10449468E+04</totfact>
</mgrwt>
</event>
<event>
 4    1  0.3286491E-002  0.1248457E+03  0.7818608E-02  0.1235311E+00
         -4   -1    0    0    0  501 -0.00000000000E+00  0.00000000000E+00  0.26053971853E+02  0.26084906542E+02  0.12700000000E+01 0.  1.
          4   -1    0    0  501    0  0.00000000000E+00 -0.00000000000E+00 -0.14943692163E+03  0.14944231813E+03  0.12700000000E+01 0.  1.
    9000005    1    1    2    0    0 -0.42401010208E+02 -0.44882626356E+02 -0.48858137413E+02  0.78742703832E+02  0.10000000000E+01 0.  0.
    9000005    1    1    2    0    0  0.42401010208E+02  0.44882626356E+02 -0.74524812366E+02  0.96784520836E+02  0.10000000000E+01 0.  0.
<mgrwt>
<rscale>  0 0.12484572E+03</rscale>
<asrwt>0</asrwt>
<pdfrwt beam="2">  1        4 0.22993090E-01 0.12484572E+03</pdfrwt>
<pdfrwt beam="1">  1       -4 0.40110981E-02 0.12484572E+03</pdfrwt>
<totfact> 0.94755910E+03</totfact>
</mgrwt>
</event>
<event>
 5    1  0.3286491E-002  0.1249985E+03  0.7818608E-02  0.1235072E+00
         -4   -1    0    0    0  501 -0.00000000000E+00  0.00000000000E+00  0.38112036022E+02  0.38133190134E+02  0.12700000000E+01 0.  1.
          4   -1    0    0  501    0  0.00000000000E+00 -0.00000000000E+00 -0.10243792033E+03  0.10244579260E+03  0.12700000000E+01 0.  1.
         25    2    1    2    0    0  0.00000000000E+00  0.00000000000E+00 -0.64325884310E+02  0.14057898274E+03  0.12499852397E+03 0.  0.
    9000005    1    3    3    0    0 -0.51148440804E+02  0.29085587462E+02 -0.84912762903E+01  0.59457852028E+02  0.10000000000E+01 0.  0.
    9000005    1    3    3    0    0  0.51148440804E+02 -0.29085587462E+02 -0.55834608019E+02  0.81121130708E+02  0.10000000000E+01 0.  0.
<mgrwt>
<rscale>  0 0.12499852E+03</rscale>
<asrwt>0</asrwt>
<pdfrwt beam="2">  1        4 0.15761913E-01 0.12499852E+03</pdfrwt>
<pdfrwt beam="1">  1       -4 0.58656230E-02 0.12499852E+03</pdfrwt>
<totfact> 0.10121937E+04</totfact>
</mgrwt>
</event>
<event>
 5    1  0.3286491E-002  0.1250028E+03  0.7818608E-02  0.1235065E+00
         -4   -1    0    0    0  501 -0.00000000000E+00  0.00000000000E+00  0.24274308425E+02  0.24307508089E+02  0.12700000000E+01 0.  1.
          4   -1    0    0  501    0  0.00000000000E+00 -0.00000000000E+00 -0.16078268172E+03  0.16078769742E+03  0.12700000000E+01 0.  1.
         25    2    1    2    0    0  0.00000000000E+00  0.00000000000E+00 -0.13650837330E+03  0.18509520551E+03  0.12500279646E+03 0.  0.
    9000005    1    3    3    0    0 -0.41756168625E+01 -0.47262543290E+02 -0.12847891250E+03  0.13696355257E+03  0.10000000000E+01 0.  0.
    9000005    1    3    3    0    0  0.41756168625E+01  0.47262543290E+02 -0.80294607970E+01  0.48131652944E+02  0.10000000000E+01 0.  0.
<mgrwt>
<rscale>  0 0.12500280E+03</rscale>
<asrwt>0</asrwt>
<pdfrwt beam="2">  1        4 0.24738736E-01 0.12500280E+03</pdfrwt>
<pdfrwt beam="1">  1       -4 0.37374487E-02 0.12500280E+03</pdfrwt>
<totfact> 0.92701997E+03</totfact>
</mgrwt>
</event>
<event>
 5    1  0.3286491E-002  0.1250045E+03  0.7818608E-02  0.1235062E+00
          4   -1    0    0  501    0  0.00000000000E+00  0.00000000000E+00  0.40827480861E+02  0.40847228712E+02  0.12700000000E+01 0. -1.
         -4   -1    0    0    0  501 -0.00000000000E+00 -0.00000000000E+00 -0.95636782619E+02  0.95645214673E+02  0.12700000000E+01 0. -1.
         25    2    1    2    0    0  0.00000000000E+00  0.00000000000E+00 -0.54809301758E+02  0.13649244339E+03  0.12500451009E+03 0.  0.
    9000005    1    3    3    0    0 -0.17493445388E+02 -0.38730093201E+02 -0.77435739002E+02  0.88336484114E+02  0.10000000000E+01 0.  0.
    9000005    1    3    3    0    0  0.17493445388E+02  0.38730093201E+02  0.22626437244E+02  0.48155959271E+02  0.10000000000E+01 0.  0.
<mgrwt>
<rscale>  0 0.12500451E+03</rscale>
<asrwt>0</asrwt>
<pdfrwt beam="1">  1        4 0.62833186E-02 0.12500451E+03</pdfrwt>
<pdfrwt beam="2">  1       -4 0.14715519E-01 0.12500451E+03</pdfrwt>
<totfact> 0.10205671E+04</totfact>
</mgrwt>
</event>
<event>
 5    1  0.3286491E-002  0.1250002E+03  0.7818608E-02  0.1235069E+00
          4   -1    0    0  501    0  0.00000000000E+00  0.00000000000E+00  0.18834472915E+03  0.18834901087E+03  0.12700000000E+01 0. -1.
         -4   -1    0    0    0  501 -0.00000000000E+00 -0.00000000000E+00 -0.20715983326E+02  0.20754875696E+02  0.12700000000E+01 0. -1.
         25    2    1    2    0    0  0.00000000000E+00  0.00000000000E+00  0.16762874582E+03  0.20910388657E+03  0.12500015581E+03 0.  0.
    9000005    1    3    3    0    0  0.20351081121E+02 -0.31718971326E+02  0.16720452298E+03  0.17140190241E+03  0.10000000000E+01 0.  0.
    9000005    1    3    3    0    0 -0.20351081121E+02  0.31718971326E+02  0.42422284235E+00  0.37701984163E+02  0.10000000000E+01 0.  0.
<mgrwt>
<rscale>  0 0.12500016E+03</rscale>
<asrwt>0</asrwt>
<pdfrwt beam="1">  1        4 0.28979433E-01 0.12500016E+03</pdfrwt>
<pdfrwt beam="2">  1       -4 0.31903955E-02 0.12500016E+03</pdfrwt>
<totfact> 0.88622128E+03</totfact>
</mgrwt>
</event>
<event>
 5    1  0.3286491E-002  0.1249996E+03  0.7818608E-02  0.1235070E+00
          4   -1    0    0  501    0  0.00000000000E+00  0.00000000000E+00  0.55419246499E+02  0.55433796393E+02  0.12700000000E+01 0. -1.
         -4   -1    0    0    0  501 -0.00000000000E+00 -0.00000000000E+00 -0.70455495308E+02  0.70466940611E+02  0.12700000000E+01 0. -1.
         25    2    1    2    0    0  0.00000000000E+00  0.00000000000E+00 -0.15036248809E+02  0.12590073700E+03  0.12499962720E+03 0.  0.
    9000005    1    3    3    0    0 -0.31113324551E+01  0.61675283792E+02 -0.17163467294E+02  0.64102305965E+02  0.10000000000E+01 0.  0.
    9000005    1    3    3    0    0  0.31113324551E+01 -0.61675283792E+02  0.21272184853E+01  0.61798431039E+02  0.10000000000E+01 0.  0.
<mgrwt>
<rscale>  0 0.12499963E+03</rscale>
<asrwt>0</asrwt>
<pdfrwt beam="1">  1        4 0.85280375E-02 0.12499963E+03</pdfrwt>
<pdfrwt beam="2">  1       -4 0.10841307E-01 0.12499963E+03</pdfrwt>
<totfact> 0.10433221E+04</totfact>
</mgrwt>
</event>
<event>
 5    1  0.3286491E-002  0.1250564E+03  0.7818608E-02  0.1234981E+00
          4   -1    0    0  501    0  0.00000000000E+00  0.00000000000E+00  0.77497650068E+02  0.77508055491E+02  0.12700000000E+01 0. -1.
         -4   -1    0    0    0  501 -0.00000000000E+00 -0.00000000000E+00 -0.50428432633E+02  0.50444422069E+02  0.12700000000E+01 0. -1.
         25    2    1    2    0    0  0.00000000000E+00  0.00000000000E+00  0.27069217435E+02  0.12795247756E+03  0.12505636322E+03 0.  0.
    9000005    1    3    3    0    0  0.61038983089E+02  0.20936621354E+01 -0.14026378839E+00  0.61083226434E+02  0.10000000000E+01 0.  0.
    9000005    1    3    3    0    0 -0.61038983089E+02 -0.20936621354E+01  0.27209481223E+02  0.66869251126E+02  0.10000000000E+01 0.  0.
<mgrwt>
<rscale>  0 0.12505636E+03</rscale>
<asrwt>0</asrwt>
<pdfrwt beam="1">  1        4 0.11924746E-01 0.12505636E+03</pdfrwt>
<pdfrwt beam="2">  1       -4 0.77602507E-02 0.12505636E+03</pdfrwt>
<totfact> 0.10375307E+04</totfact>
</mgrwt>
</event>
<event>
 5    1  0.3286491E-002  0.1249996E+03  0.7818608E-02  0.1235070E+00
          4   -1    0    0  501    0  0.00000000000E+00  0.00000000000E+00  0.65023297674E+02  0.65035698969E+02  0.12700000000E+01 0.  1.
         -4   -1    0    0    0  501 -0.00000000000E+00 -0.00000000000E+00 -0.60049370248E+02  0.60062798530E+02  0.12700000000E+01 0.  1.
         25    2    1    2    0    0  0.00000000000E+00  0.00000000000E+00  0.49739274255E+01  0.12509849750E+03  0.12499957649E+03 0.  0.
    9000005    1    3    3    0    0 -0.44041151775E+02  0.43399918470E+02 -0.65782152254E+01  0.62188816425E+02  0.10000000000E+01 0.  0.
    9000005    1    3    3    0    0  0.44041151775E+02 -0.43399918470E+02  0.11552142651E+02  0.62909681073E+02  0.10000000000E+01 0.  0.
<mgrwt>
<rscale>  0 0.12499958E+03</rscale>
<asrwt>0</asrwt>
<pdfrwt beam="1">  1        4 0.10005571E-01 0.12499958E+03</pdfrwt>
<pdfrwt beam="2">  1       -4 0.92403515E-02 0.12499958E+03</pdfrwt>
<totfact> 0.10450824E+04</totfact>
</mgrwt>
</event>
<event>
 5    1  0.3286491E-002  0.1250010E+03  0.7818608E-02  0.1235068E+00
         -4   -1    0    0    0  501 -0.00000000000E+00  0.00000000000E+00  0.42450566301E+01  0.44309599178E+01  0.12700000000E+01 0.  1.
          4   -1    0    0  501    0  0.00000000000E+00 -0.00000000000E+00 -0.90029848299E+03  0.90029937875E+03  0.12700000000E+01 0.  1.
         25    2    1    2    0    0  0.00000000000E+00  0.00000000000E+00 -0.89605342636E+03  0.90473033866E+03  0.12500097124E+03 0.  0.
    9000005    1    3    3    0    0  0.62317894533E+02 -0.26695269700E+01 -0.47574313530E+03  0.47981577416E+03  0.10000000000E+01 0.  0.
    9000005    1    3    3    0    0 -0.62317894533E+02  0.26695269700E+01 -0.42031029106E+03  0.42491456450E+03  0.10000000000E+01 0.  0.
<mgrwt>
<rscale>  0 0.12500097E+03</rscale>
<asrwt>0</asrwt>
<pdfrwt beam="2">  1        4 0.13852168E+00 0.12500097E+03</pdfrwt>
<pdfrwt beam="1">  1       -4 0.66745551E-03 0.12500097E+03</pdfrwt>
<totfact> 0.33978749E+03</totfact>
</mgrwt>
</event>
<event>
 5    1  0.3286491E-002  0.1249965E+03  0.7818608E-02  0.1235075E+00
          4   -1    0    0  501    0  0.00000000000E+00  0.00000000000E+00  0.13982636719E+02  0.14040193361E+02  0.12700000000E+01 0. -1.
         -4   -1    0    0    0  501 -0.00000000000E+00 -0.00000000000E+00 -0.27871606147E+03  0.27871895490E+03  0.12700000000E+01 0. -1.
         25    2    1    2    0    0  0.00000000000E+00  0.00000000000E+00 -0.26473342475E+03  0.29275914827E+03  0.12499653080E+03 0.  0.
    9000005    1    3    3    0    0 -0.13326609872E+02 -0.13016395376E+02 -0.27207300936E+03  0.27271183968E+03  0.10000000000E+01 0.  0.
    9000005    1    3    3    0    0  0.13326609872E+02  0.13016395376E+02  0.73395846077E+01  0.20047308584E+02  0.10000000000E+01 0.  0.
<mgrwt>
<rscale>  0 0.12499653E+03</rscale>
<asrwt>0</asrwt>
<pdfrwt beam="1">  1        4 0.21558251E-02 0.12499653E+03</pdfrwt>
<pdfrwt beam="2">  1       -4 0.42884040E-01 0.12499653E+03</pdfrwt>
<totfact> 0.76522086E+03</totfact>
</mgrwt>
</event>
<event>
 5    1  0.3286491E-002  0.1250021E+03  0.7818608E-02  0.1235066E+00
         -4   -1    0    0    0  501 -0.00000000000E+00  0.00000000000E+00  0.30672087043E+02  0.30698368418E+02  0.12700000000E+01 0.  1.
          4   -1    0    0  501    0  0.00000000000E+00 -0.00000000000E+00 -0.12727553830E+03  0.12728187439E+03  0.12700000000E+01 0.  1.
         25    2    1    2    0    0  0.00000000000E+00  0.00000000000E+00 -0.96603451255E+02  0.15798024281E+03  0.12500212128E+03 0.  0.
    9000005    1    3    3    0    0  0.12074252103E+02  0.53700099050E+02 -0.85705141297E+02  0.10186196271E+03  0.10000000000E+01 0.  0.
    9000005    1    3    3    0    0 -0.12074252103E+02 -0.53700099050E+02 -0.10898309958E+02  0.56118280103E+02  0.10000000000E+01 0.  0.
<mgrwt>
<rscale>  0 0.12500212E+03</rscale>
<asrwt>0</asrwt>
<pdfrwt beam="2">  1        4 0.19583361E-01 0.12500212E+03</pdfrwt>
<pdfrwt beam="1">  1       -4 0.47212917E-02 0.12500212E+03</pdfrwt>
<totfact> 0.97728936E+03</totfact>
</mgrwt>
</event>
<event>
 5    1  0.3286491E-002  0.1250002E+03  0.7818608E-02  0.1235069E+00
         -4   -1    0    0    0  501 -0.00000000000E+00  0.00000000000E+00  0.32267984932E+03  0.32268234853E+03  0.12700000000E+01 0.  1.
          4   -1    0    0  501    0  0.00000000000E+00 -0.00000000000E+00 -0.12069829076E+02  0.12136460518E+02  0.12700000000E+01 0.  1.
         25    2    1    2    0    0  0.00000000000E+00  0.00000000000E+00  0.31061002024E+03  0.33481880905E+03  0.12500020088E+03 0.  0.
    9000005    1    3    3    0    0  0.93345965017E+01 -0.22892717128E+01  0.32070143172E+03  0.32084697874E+03  0.10000000000E+01 0.  0.
    9000005    1    3    3    0    0 -0.93345965017E+01  0.22892717128E+01 -0.10091411477E+02  0.13971830318E+02  0.10000000000E+01 0.  0.
<mgrwt>
<rscale>  0 0.12500020E+03</rscale>
<asrwt>0</asrwt>
<pdfrwt beam="2">  1        4 0.18622144E-02 0.12500020E+03</pdfrwt>
<pdfrwt beam="1">  1       -4 0.49648374E-01 0.12500020E+03</pdfrwt>
<totfact> 0.71427288E+03</totfact>
</mgrwt>
</event>
<event>
 5    1  0.3286491E-002  0.1250012E+03  0.7818608E-02  0.1235067E+00
         -4   -1    0    0    0  501 -0.00000000000E+00  0.00000000000E+00  0.24763588889E+02  0.24796133462E+02  0.12700000000E+01 0.  1.
          4   -1    0    0  501    0  0.00000000000E+00 -0.00000000000E+00 -0.15760592948E+03  0.15761104627E+03  0.12700000000E+01 0.  1.
         25    2    1    2    0    0  0.00000000000E+00  0.00000000000E+00 -0.13284234059E+03  0.18240717973E+03  0.12500116705E+03 0.  0.
    9000005    1    3    3    0    0  0.36222385900E+02 -0.29644778680E+02 -0.59998625828E+01  0.47200344218E+02  0.10000000000E+01 0.  0.
    9000005    1    3    3    0    0 -0.36222385900E+02  0.29644778680E+02 -0.12684247801E+03  0.13520683551E+03  0.10000000000E+01 0.  0.
<mgrwt>
<rscale>  0 0.12500117E+03</rscale>
<asrwt>0</asrwt>
<pdfrwt beam="2">  1        4 0.24249962E-01 0.12500117E+03</pdfrwt>
<pdfrwt beam="1">  1       -4 0.38126800E-02 0.12500117E+03</pdfrwt>
<totfact> 0.93183051E+03</totfact>
</mgrwt>
</event>
<event>
 5    1  0.3286491E-002  0.1249980E+03  0.7818608E-02  0.1235072E+00
          4   -1    0    0  501    0  0.00000000000E+00  0.00000000000E+00  0.11253461822E+03  0.11254178424E+03  0.12700000000E+01 0.  1.
         -4   -1    0    0    0  501 -0.00000000000E+00 -0.00000000000E+00 -0.34690566179E+02  0.34713805349E+02  0.12700000000E+01 0.  1.
         25    2    1    2    0    0  0.00000000000E+00  0.00000000000E+00  0.77844052045E+02  0.14725558958E+03  0.12499804889E+03 0.  0.
    9000005    1    3    3    0    0  0.92055878925E+01  0.50399980004E+02 -0.32293817537E+01  0.51345201717E+02  0.10000000000E+01 0.  0.
    9000005    1    3    3    0    0 -0.92055878925E+01 -0.50399980004E+02  0.81073433799E+02  0.95910387867E+02  0.10000000000E+01 0.  0.
<mgrwt>
<rscale>  0 0.12499805E+03</rscale>
<asrwt>0</asrwt>
<pdfrwt beam="1">  1        4 0.17315357E-01 0.12499805E+03</pdfrwt>
<pdfrwt beam="2">  1       -4 0.53393492E-02 0.12499805E+03</pdfrwt>
<totfact> 0.99857982E+03</totfact>
</mgrwt>
</event>
<event>
 5    1  0.3286491E-002  0.1249946E+03  0.7818608E-02  0.1235078E+00
          4   -1    0    0  501    0  0.00000000000E+00  0.00000000000E+00  0.65440174952E+03  0.65440298186E+03  0.12700000000E+01 0.  1.
         -4   -1    0    0    0  501 -0.00000000000E+00 -0.00000000000E+00 -0.58998671465E+01  0.60350088936E+01  0.12700000000E+01 0.  1.
         25    2    1    2    0    0  0.00000000000E+00  0.00000000000E+00  0.64850188237E+03  0.66043799076E+03  0.12499459267E+03 0.  0.
    9000005    1    3    3    0    0 -0.55958234429E+02  0.18122832707E+02  0.21277157512E+03  0.22075439801E+03  0.10000000000E+01 0.  0.
    9000005    1    3    3    0    0  0.55958234429E+02 -0.18122832707E+02  0.43573030725E+03  0.43968359274E+03  0.10000000000E+01 0.  0.
<mgrwt>
<rscale>  0 0.12499459E+03</rscale>
<asrwt>0</asrwt>
<pdfrwt beam="1">  1        4 0.10068769E+00 0.12499459E+03</pdfrwt>
<pdfrwt beam="2">  1       -4 0.91816214E-03 0.12499459E+03</pdfrwt>
<totfact> 0.45264213E+03</totfact>
</mgrwt>
</event>
<event>
 5    1  0.3286491E-002  0.1250012E+03  0.7818608E-02  0.1235067E+00
          4   -1    0    0  501    0  0.00000000000E+00  0.00000000000E+00  0.29507990178E+02  0.29535307419E+02  0.12700000000E+01 0.  1.
         -4   -1    0    0    0  501 -0.00000000000E+00 -0.00000000000E+00 -0.13229023656E+03  0.13229633248E+03  0.12700000000E+01 0.  1.
         25    2    1    2    0    0  0.00000000000E+00  0.00000000000E+00 -0.10278224638E+03  0.16183163990E+03  0.12500115800E+03 0.  0.
    9000005    1    3    3    0    0 -0.38586070728E+02 -0.36431461980E+02 -0.94117930662E+02  0.10805240001E+03  0.10000000000E+01 0.  0.
    9000005    1    3    3    0    0  0.38586070728E+02  0.36431461980E+02 -0.86643157167E+01  0.53779239889E+02  0.10000000000E+01 0.  0.
<mgrwt>
<rscale>  0 0.12500116E+03</rscale>
<asrwt>0</asrwt>
<pdfrwt beam="1">  1        4 0.45422611E-02 0.12500116E+03</pdfrwt>
<pdfrwt beam="2">  1       -4 0.20354914E-01 0.12500116E+03</pdfrwt>
<totfact> 0.96988293E+03</totfact>
</mgrwt>
</event>
<event>
 5    1  0.3286491E-002  0.1249974E+03  0.7818608E-02  0.1235073E+00
          4   -1    0    0  501    0  0.00000000000E+00  0.00000000000E+00  0.54664698205E+02  0.54679448880E+02  0.12700000000E+01 0. -1.
         -4   -1    0    0    0  501 -0.00000000000E+00 -0.00000000000E+00 -0.71425322323E+02  0.71436612244E+02  0.12700000000E+01 0. -1.
         25    2    1    2    0    0  0.00000000000E+00  0.00000000000E+00 -0.16760624118E+02  0.12611606112E+03  0.12499736938E+03 0.  0.
    9000005    1    3    3    0    0  0.19144120027E+02  0.53214152798E+02  0.18444133836E+02  0.59493104328E+02  0.10000000000E+01 0.  0.
    9000005    1    3    3    0    0 -0.19144120027E+02 -0.53214152798E+02 -0.35204757954E+02  0.66622956796E+02  0.10000000000E+01 0.  0.
<mgrwt>
<rscale>  0 0.12499737E+03</rscale>
<asrwt>0</asrwt>
<pdfrwt beam="1">  1        4 0.84119567E-02 0.12499737E+03</pdfrwt>
<pdfrwt beam="2">  1       -4 0.10990514E-01 0.12499737E+03</pdfrwt>
<totfact> 0.10429034E+04</totfact>
</mgrwt>
</event>
<event>
 5    1  0.3286491E-002  0.1249838E+03  0.7818608E-02  0.1235095E+00
         -4   -1    0    0    0  501 -0.00000000000E+00  0.00000000000E+00  0.48092118970E+03  0.48092286659E+03  0.12700000000E+01 0.  1.
          4   -1    0    0  501    0  0.00000000000E+00 -0.00000000000E+00 -0.80689736748E+01  0.81683068114E+01  0.12700000000E+01 0.  1.
         25    2    1    2    0    0  0.00000000000E+00  0.00000000000E+00  0.47285221603E+03  0.48909117340E+03  0.12498382972E+03 0.  0.
    9000005    1    3    3    0    0  0.26216246776E+02 -0.55463424063E+02  0.18999916353E+03  0.19966012407E+03  0.10000000000E+01 0.  0.
    9000005    1    3    3    0    0 -0.26216246776E+02  0.55463424063E+02  0.28285305250E+03  0.28943104933E+03  0.10000000000E+01 0.  0.
<mgrwt>
<rscale>  0 0.12498383E+03</rscale>
<asrwt>0</asrwt>
<pdfrwt beam="2">  1        4 0.12491508E-02 0.12498383E+03</pdfrwt>
<pdfrwt beam="1">  1       -4 0.73995631E-01 0.12498383E+03</pdfrwt>
<totfact> 0.56740988E+03</totfact>
</mgrwt>
</event>
<event>
 5    1  0.3286491E-002  0.1249862E+03  0.7818608E-02  0.1235091E+00
          4   -1    0    0  501    0  0.00000000000E+00  0.00000000000E+00  0.17899656360E+02  0.17944653738E+02  0.12700000000E+01 0. -1.
         -4   -1    0    0    0  501 -0.00000000000E+00 -0.00000000000E+00 -0.21786166106E+03  0.21786536269E+03  0.12700000000E+01 0. -1.
         25    2    1    2    0    0  0.00000000000E+00  0.00000000000E+00 -0.19996200470E+03  0.23581001643E+03  0.12498624134E+03 0.  0.
    9000005    1    3    3    0    0  0.50187842307E+02  0.34095772086E+02 -0.71803653818E+02  0.94011200881E+02  0.10000000000E+01 0.  0.
    9000005    1    3    3    0    0 -0.50187842307E+02 -0.34095772086E+02 -0.12815835088E+03  0.14179881555E+03  0.10000000000E+01 0.  0.
<mgrwt>
<rscale>  0 0.12498624E+03</rscale>
<asrwt>0</asrwt>
<pdfrwt beam="1">  1        4 0.27575395E-02 0.12498624E+03</pdfrwt>
<pdfrwt beam="2">  1       -4 0.33520923E-01 0.12498624E+03</pdfrwt>
<totfact> 0.84451285E+03</totfact>
</mgrwt>
</event>
<event>
 5    1  0.3286491E-002  0.1250003E+03  0.7818608E-02  0.1235069E+00
         -4   -1    0    0    0  501 -0.00000000000E+00  0.00000000000E+00  0.48908068084E+01  0.50530081374E+01  0.12700000000E+01 0. -1.
          4   -1    0    0  501    0  0.00000000000E+00 -0.00000000000E+00 -0.78550531309E+03  0.78550633975E+03  0.12700000000E+01 0. -1.
         25    2    1    2    0    0  0.00000000000E+00  0.00000000000E+00 -0.78061450628E+03  0.79055934789E+03  0.12500030048E+03 0.  0.
    9000005    1    3    3    0    0  0.51134199619E+02  0.23427176651E+02 -0.21806238707E+03  0.22520156223E+03  0.10000000000E+01 0.  0.
    9000005    1    3    3    0    0 -0.51134199619E+02 -0.23427176651E+02 -0.56255211921E+03  0.56535778566E+03  0.10000000000E+01 0.  0.
<mgrwt>
<rscale>  0 0.12500030E+03</rscale>
<asrwt>0</asrwt>
<pdfrwt beam="2">  1        4 0.12085943E+00 0.12500030E+03</pdfrwt>
<pdfrwt beam="1">  1       -4 0.76498844E-03 0.12500030E+03</pdfrwt>
<totfact> 0.38689447E+03</totfact>
</mgrwt>
</event>
<event>
 5    1  0.3286491E-002  0.1250012E+03  0.7818608E-02  0.1235067E+00
          4   -1    0    0  501    0  0.00000000000E+00  0.00000000000E+00  0.12548017727E+02  0.12612123091E+02  0.12700000000E+01 0. -1.
         -4   -1    0    0    0  501 -0.00000000000E+00 -0.00000000000E+00 -0.31045145842E+03  0.31045405607E+03  0.12700000000E+01 0. -1.
         25    2    1    2    0    0  0.00000000000E+00  0.00000000000E+00 -0.29790344069E+03  0.32306617917E+03  0.12500118458E+03 0.  0.
    9000005    1    3    3    0    0 -0.61648296669E+02  0.41767345142E+01 -0.12479434796E+03  0.13925726867E+03  0.10000000000E+01 0.  0.
    9000005    1    3    3    0    0  0.61648296669E+02 -0.41767345142E+01 -0.17310909273E+03  0.18380891050E+03  0.10000000000E+01 0.  0.
<mgrwt>
<rscale>  0 0.12500118E+03</rscale>
<asrwt>0</asrwt>
<pdfrwt beam="1">  1        4 0.19355955E-02 0.12500118E+03</pdfrwt>
<pdfrwt beam="2">  1       -4 0.47766888E-01 0.12500118E+03</pdfrwt>
<totfact> 0.72791013E+03</totfact>
</mgrwt>
</event>
<event>
 5    1  0.3286491E-002  0.1250001E+03  0.7818608E-02  0.1235069E+00
         -4   -1    0    0    0  501 -0.00000000000E+00  0.00000000000E+00  0.58163193231E+02  0.58177056877E+02  0.12700000000E+01 0.  1.
          4   -1    0    0  501    0  0.00000000000E+00 -0.00000000000E+00 -0.67132370313E+02  0.67144382072E+02  0.12700000000E+01 0.  1.
         25    2    1    2    0    0  0.00000000000E+00  0.00000000000E+00 -0.89691770818E+01  0.12532143895E+03  0.12500006769E+03 0.  0.
    9000005    1    3    3    0    0 -0.89873302733E+01 -0.56183815825E+02  0.21424859124E+02  0.60806396494E+02  0.10000000000E+01 0.  0.
    9000005    1    3    3    0    0  0.89873302733E+01  0.56183815825E+02 -0.30394036206E+02  0.64515042455E+02  0.10000000000E+01 0.  0.
<mgrwt>
<rscale>  0 0.12500007E+03</rscale>
<asrwt>0</asrwt>
<pdfrwt beam="2">  1        4 0.10330047E-01 0.12500007E+03</pdfrwt>
<pdfrwt beam="1">  1       -4 0.89501740E-02 0.12500007E+03</pdfrwt>
<totfact> 0.10445869E+04</totfact>
</mgrwt>
</event>
<event>
 5    1  0.3286491E-002  0.1250012E+03  0.7818608E-02  0.1235067E+00
         -4   -1    0    0    0  501 -0.00000000000E+00  0.00000000000E+00  0.13023131776E+03  0.13023751006E+03  0.12700000000E+01 0.  1.
          4   -1    0    0  501    0  0.00000000000E+00 -0.00000000000E+00 -0.29974929238E+02  0.30001821325E+02  0.12700000000E+01 0.  1.
         25    2    1    2    0    0  0.00000000000E+00  0.00000000000E+00  0.10025638852E+03  0.16023933138E+03  0.12500119952E+03 0.  0.
    9000005    1    3    3    0    0 -0.29589502554E+02  0.47423750105E+02  0.85947542593E+02  0.10253063354E+03  0.10000000000E+01 0.  0.
    9000005    1    3    3    0    0  0.29589502554E+02 -0.47423750105E+02  0.14308845932E+02  0.57708697848E+02  0.10000000000E+01 0.  0.
<mgrwt>
<rscale>  0 0.12500120E+03</rscale>
<asrwt>0</asrwt>
<pdfrwt beam="2">  1        4 0.46140725E-02 0.12500120E+03</pdfrwt>
<pdfrwt beam="1">  1       -4 0.20038132E-01 0.12500120E+03</pdfrwt>
<totfact> 0.97294040E+03</totfact>
</mgrwt>
</event>
<event>
 5    1  0.3286491E-002  0.1250009E+03  0.7818608E-02  0.1235068E+00
         -4   -1    0    0    0  501 -0.00000000000E+00  0.00000000000E+00  0.82235876169E+02  0.82245682131E+02  0.12700000000E+01 0. -1.
          4   -1    0    0  501    0  0.00000000000E+00 -0.00000000000E+00 -0.47480128782E+02  0.47497110745E+02  0.12700000000E+01 0. -1.
         25    2    1    2    0    0  0.00000000000E+00  0.00000000000E+00  0.34755747387E+02  0.12974279288E+03  0.12500092130E+03 0.  0.
    9000005    1    3    3    0    0  0.18315998757E+02 -0.22781601249E+02  0.74707493577E+02  0.80228964610E+02  0.10000000000E+01 0.  0.
    9000005    1    3    3    0    0 -0.18315998757E+02  0.22781601249E+02 -0.39951746190E+02  0.49513828266E+02  0.10000000000E+01 0.  0.
<mgrwt>
<rscale>  0 0.12500092E+03</rscale>
<asrwt>0</asrwt>
<pdfrwt beam="2">  1        4 0.73066958E-02 0.12500092E+03</pdfrwt>
<pdfrwt beam="1">  1       -4 0.12653734E-01 0.12500092E+03</pdfrwt>
<totfact> 0.10349797E+04</totfact>
</mgrwt>
</event>
<event>
 5    1  0.3286491E-002  0.1249986E+03  0.7818608E-02  0.1235071E+00
          4   -1    0    0  501    0  0.00000000000E+00  0.00000000000E+00  0.45468238756E+02  0.45485971855E+02  0.12700000000E+01 0. -1.
         -4   -1    0    0    0  501 -0.00000000000E+00 -0.00000000000E+00 -0.85870554177E+02  0.85879945125E+02  0.12700000000E+01 0. -1.
         25    2    1    2    0    0  0.00000000000E+00  0.00000000000E+00 -0.40402315421E+02  0.13136591698E+03  0.12499862820E+03 0.  0.
    9000005    1    3    3    0    0 -0.12249448667E+02 -0.29121981469E+02 -0.76864458918E+02  0.83110070642E+02  0.10000000000E+01 0.  0.
    9000005    1    3    3    0    0  0.12249448667E+02  0.29121981469E+02  0.36462143498E+02  0.48255846338E+02  0.10000000000E+01 0.  0.
<mgrwt>
<rscale>  0 0.12499863E+03</rscale>
<asrwt>0</asrwt>
<pdfrwt beam="1">  1        4 0.69972001E-02 0.12499863E+03</pdfrwt>
<pdfrwt beam="2">  1       -4 0.13212941E-01 0.12499863E+03</pdfrwt>
<totfact> 0.10315570E+04</totfact>
</mgrwt>
</event>
<event>
 5    1  0.3286491E-002  0.1250063E+03  0.7818608E-02  0.1235059E+00
         -4   -1    0    0    0  501 -0.00000000000E+00  0.00000000000E+00  0.88779675147E+01  0.89683447298E+01  0.12700000000E+01 0. -1.
          4   -1    0    0  501    0  0.00000000000E+00 -0.00000000000E+00 -0.43771817317E+03  0.43772001556E+03  0.12700000000E+01 0. -1.
         25    2    1    2    0    0  0.00000000000E+00  0.00000000000E+00 -0.42884020565E+03  0.44668836029E+03  0.12500627678E+03 0.  0.
    9000005    1    3    3    0    0 -0.37728523566E+02 -0.11389955888E+02 -0.41105627426E+02  0.56954764434E+02  0.10000000000E+01 0.  0.
    9000005    1    3    3    0    0  0.37728523566E+02  0.11389955888E+02 -0.38773457823E+03  0.38973359586E+03  0.10000000000E+01 0.  0.
<mgrwt>
<rscale>  0 0.12500628E+03</rscale>
<asrwt>0</asrwt>
<pdfrwt beam="2">  1        4 0.67348334E-01 0.12500628E+03</pdfrwt>
<pdfrwt beam="1">  1       -4 0.13729353E-02 0.12500628E+03</pdfrwt>
<totfact> 0.60243436E+03</totfact>
</mgrwt>
</event>
<event>
 5    1  0.3286491E-002  0.1250019E+03  0.7818608E-02  0.1235066E+00
         -4   -1    0    0    0  501 -0.00000000000E+00  0.00000000000E+00  0.73567934184E+03  0.73568043804E+03  0.12700000000E+01 0. -1.
          4   -1    0    0  501    0  0.00000000000E+00 -0.00000000000E+00 -0.52328213640E+01  0.53847302094E+01  0.12700000000E+01 0. -1.
         25    2    1    2    0    0  0.00000000000E+00  0.00000000000E+00  0.73044652048E+03  0.74106516825E+03  0.12500185724E+03 0.  0.
    9000005    1    3    3    0    0 -0.99667982305E+01  0.53334565244E+02  0.54904801749E+03  0.55172333503E+03  0.10000000000E+01 0.  0.
    9000005    1    3    3    0    0  0.99667982305E+01 -0.53334565244E+02  0.18139850299E+03  0.18934183321E+03  0.10000000000E+01 0.  0.
<mgrwt>
<rscale>  0 0.12500186E+03</rscale>
<asrwt>0</asrwt>
<pdfrwt beam="2">  1        4 0.81681876E-03 0.12500186E+03</pdfrwt>
<pdfrwt beam="1">  1       -4 0.11319325E+00 0.12500186E+03</pdfrwt>
<totfact> 0.41003500E+03</totfact>
</mgrwt>
</event>
<event>
 5    1  0.3286491E-002  0.1250011E+03  0.7818608E-02  0.1235068E+00
         -4   -1    0    0    0  501 -0.00000000000E+00  0.00000000000E+00  0.11824791076E+03  0.11825473055E+03  0.12700000000E+01 0. -1.
          4   -1    0    0  501    0  0.00000000000E+00 -0.00000000000E+00 -0.33014996245E+02  0.33039413994E+02  0.12700000000E+01 0. -1.
         25    2    1    2    0    0  0.00000000000E+00  0.00000000000E+00  0.85232914512E+02  0.15129414455E+03  0.12500107383E+03 0.  0.
    9000005    1    3    3    0    0 -0.33477110219E+02  0.24687902240E+02 -0.13831568601E+02  0.43846570169E+02  0.10000000000E+01 0.  0.
    9000005    1    3    3    0    0  0.33477110219E+02 -0.24687902240E+02  0.99064483113E+02  0.10744757438E+03  0.10000000000E+01 0.  0.
<mgrwt>
<rscale>  0 0.12500107E+03</rscale>
<asrwt>0</asrwt>
<pdfrwt beam="2">  1        4 0.50816331E-02 0.12500107E+03</pdfrwt>
<pdfrwt beam="1">  1       -4 0.18194389E-01 0.12500107E+03</pdfrwt>
<totfact> 0.99043959E+03</totfact>
</mgrwt>
</event>
<event>
 5    1  0.3286491E-002  0.1249612E+03  0.7818608E-02  0.1235130E+00
         -4   -1    0    0    0  501 -0.00000000000E+00  0.00000000000E+00  0.66345321288E+02  0.66357475516E+02  0.12700000000E+01 0.  1.
          4   -1    0    0  501    0  0.00000000000E+00 -0.00000000000E+00 -0.58816612261E+02  0.58830321926E+02  0.12700000000E+01 0.  1.
         25    2    1    2    0    0  0.00000000000E+00  0.00000000000E+00  0.75287090272E+01  0.12518779744E+03  0.12496120665E+03 0.  0.
    9000005    1    3    3    0    0 -0.64732072518E+01  0.29743611142E+02  0.58418213778E+02  0.65880744660E+02  0.10000000000E+01 0.  0.
    9000005    1    3    3    0    0  0.64732072518E+01 -0.29743611142E+02 -0.50889504751E+02  0.59307052782E+02  0.10000000000E+01 0.  0.
<mgrwt>
<rscale>  0 0.12496121E+03</rscale>
<asrwt>0</asrwt>
<pdfrwt beam="2">  1        4 0.90506992E-02 0.12496121E+03</pdfrwt>
<pdfrwt beam="1">  1       -4 0.10208962E-01 0.12496121E+03</pdfrwt>
<totfact> 0.10457951E+04</totfact>
</mgrwt>
</event>
<event>
 5    1  0.3286491E-002  0.1249669E+03  0.7818608E-02  0.1235121E+00
          4   -1    0    0  501    0  0.00000000000E+00  0.00000000000E+00  0.58221998651E+02  0.58235848298E+02  0.12700000000E+01 0.  1.
         -4   -1    0    0    0  501 -0.00000000000E+00 -0.00000000000E+00 -0.67028981916E+02  0.67041012199E+02  0.12700000000E+01 0.  1.
         25    2    1    2    0    0  0.00000000000E+00  0.00000000000E+00 -0.88069832645E+01  0.12527686050E+03  0.12496691091E+03 0.  0.
    9000005    1    3    3    0    0 -0.37149142867E+02 -0.11104016820E+02  0.44706011589E+02  0.59186024343E+02  0.10000000000E+01 0.  0.
    9000005    1    3    3    0    0  0.37149142867E+02  0.11104016820E+02 -0.53512994854E+02  0.66090836154E+02  0.10000000000E+01 0.  0.
<mgrwt>
<rscale>  0 0.12496691E+03</rscale>
<asrwt>0</asrwt>
<pdfrwt beam="1">  1        4 0.89592214E-02 0.12496691E+03</pdfrwt>
<pdfrwt beam="2">  1       -4 0.10314142E-01 0.12496691E+03</pdfrwt>
<totfact> 0.10454668E+04</totfact>
</mgrwt>
</event>
<event>
 5    1  0.3286491E-002  0.1250012E+03  0.7818608E-02  0.1235067E+00
          4   -1    0    0  501    0  0.00000000000E+00  0.00000000000E+00  0.32805909889E+03  0.32806155713E+03  0.12700000000E+01 0.  1.
         -4   -1    0    0    0  501 -0.00000000000E+00 -0.00000000000E+00 -0.11870999371E+02  0.11938740556E+02  0.12700000000E+01 0.  1.
         25    2    1    2    0    0  0.00000000000E+00  0.00000000000E+00  0.31618809952E+03  0.34000029768E+03  0.12500115258E+03 0.  0.
    9000005    1    3    3    0    0  0.15665908551E+02  0.58546774324E+02  0.19953927154E+03  0.20854272071E+03  0.10000000000E+01 0.  0.
    9000005    1    3    3    0    0 -0.15665908551E+02 -0.58546774324E+02  0.11664882798E+03  0.13145757697E+03  0.10000000000E+01 0.  0.
<mgrwt>
<rscale>  0 0.12500115E+03</rscale>
<asrwt>0</asrwt>
<pdfrwt beam="1">  1        4 0.50476024E-01 0.12500115E+03</pdfrwt>
<pdfrwt beam="2">  1       -4 0.18317078E-02 0.12500115E+03</pdfrwt>
<totfact> 0.70837033E+03</totfact>
</mgrwt>
</event>
<event>
 5    1  0.3286491E-002  0.1249997E+03  0.7818608E-02  0.1235070E+00
         -4   -1    0    0    0  501 -0.00000000000E+00  0.00000000000E+00  0.36502870073E+02  0.36524956174E+02  0.12700000000E+01 0. -1.
          4   -1    0    0  501    0  0.00000000000E+00 -0.00000000000E+00 -0.10695336136E+03  0.10696090130E+03  0.12700000000E+01 0. -1.
         25    2    1    2    0    0  0.00000000000E+00  0.00000000000E+00 -0.70450491291E+02  0.14348585748E+03  0.12499967829E+03 0.  0.
    9000005    1    3    3    0    0  0.24685049459E+02 -0.50239814596E+02 -0.33345763753E+01  0.56084846769E+02  0.10000000000E+01 0.  0.
    9000005    1    3    3    0    0 -0.24685049459E+02  0.50239814596E+02 -0.67115914916E+02  0.87401010706E+02  0.10000000000E+01 0.  0.
<mgrwt>
<rscale>  0 0.12499968E+03</rscale>
<asrwt>0</asrwt>
<pdfrwt beam="2">  1        4 0.16456642E-01 0.12499968E+03</pdfrwt>
<pdfrwt beam="1">  1       -4 0.56181051E-02 0.12499968E+03</pdfrwt>
<totfact> 0.10061916E+04</totfact>
</mgrwt>
</event>
<event>
 5    1  0.3286491E-002  0.1250020E+03  0.7818608E-02  0.1235066E+00
         -4   -1    0    0    0  501 -0.00000000000E+00  0.00000000000E+00  0.28455943091E+03  0.28456226492E+03  0.12700000000E+01 0. -1.
          4   -1    0    0  501    0  0.00000000000E+00 -0.00000000000E+00 -0.13695511419E+02  0.13754269629E+02  0.12700000000E+01 0. -1.
         25    2    1    2    0    0  0.00000000000E+00  0.00000000000E+00  0.27086391949E+03  0.29831653455E+03  0.12500196761E+03 0.  0.
    9000005    1    3    3    0    0 -0.45588338268E+02 -0.41250150186E+02  0.10869666754E+03  0.12488329356E+03  0.10000000000E+01 0.  0.
    9000005    1    3    3    0    0  0.45588338268E+02  0.41250150186E+02  0.16216725195E+03  0.17343324099E+03  0.10000000000E+01 0.  0.
<mgrwt>
<rscale>  0 0.12500197E+03</rscale>
<asrwt>0</asrwt>
<pdfrwt beam="2">  1        4 0.21117396E-02 0.12500197E+03</pdfrwt>
<pdfrwt beam="1">  1       -4 0.43783112E-01 0.12500197E+03</pdfrwt>
<totfact> 0.75807183E+03</totfact>
</mgrwt>
</event>
<event>
 5    1  0.3286491E-002  0.1250124E+03  0.7818608E-02  0.1235050E+00
         -4   -1    0    0    0  501 -0.00000000000E+00  0.00000000000E+00  0.66681113437E+01  0.67879753161E+01  0.12700000000E+01 0.  1.
          4   -1    0    0  501    0  0.00000000000E+00 -0.00000000000E+00 -0.58058734591E+03  0.58058873493E+03  0.12700000000E+01 0.  1.
         25    2    1    2    0    0  0.00000000000E+00  0.00000000000E+00 -0.57391923456E+03  0.58737671025E+03  0.12501244713E+03 0.  0.
    9000005    1    3    3    0    0 -0.24395345814E+02  0.55748321360E+02 -0.22001238719E+03  0.22827496303E+03  0.10000000000E+01 0.  0.
    9000005    1    3    3    0    0  0.24395345814E+02 -0.55748321360E+02 -0.35390684738E+03  0.35910174721E+03  0.10000000000E+01 0.  0.
<mgrwt>
<rscale>  0 0.12501245E+03</rscale>
<asrwt>0</asrwt>
<pdfrwt beam="2">  1        4 0.89330417E-01 0.12501245E+03</pdfrwt>
<pdfrwt beam="1">  1       -4 0.10351909E-02 0.12501245E+03</pdfrwt>
<totfact> 0.49660705E+03</totfact>
</mgrwt>
</event>
<event>
 5    1  0.3286491E-002  0.1250055E+03  0.7818608E-02  0.1235061E+00
          4   -1    0    0  501    0  0.00000000000E+00  0.00000000000E+00  0.47421236408E+02  0.47438239453E+02  0.12700000000E+01 0. -1.
         -4   -1    0    0    0  501 -0.00000000000E+00 -0.00000000000E+00 -0.82344030700E+02  0.82353823784E+02  0.12700000000E+01 0. -1.
         25    2    1    2    0    0  0.00000000000E+00  0.00000000000E+00 -0.34922794292E+02  0.12979206324E+03  0.12500551235E+03 0.  0.
    9000005    1    3    3    0    0  0.38647481431E+02  0.49109859977E+02 -0.17912022005E+02  0.65017280013E+02  0.10000000000E+01 0.  0.
    9000005    1    3    3    0    0 -0.38647481431E+02 -0.49109859977E+02 -0.17010772287E+02  0.64774783224E+02  0.10000000000E+01 0.  0.
<mgrwt>
<rscale>  0 0.12500551E+03</rscale>
<asrwt>0</asrwt>
<pdfrwt beam="1">  1        4 0.72976361E-02 0.12500551E+03</pdfrwt>
<pdfrwt beam="2">  1       -4 0.12670374E-01 0.12500551E+03</pdfrwt>
<totfact> 0.10347670E+04</totfact>
</mgrwt>
</event>
<event>
 5    1  0.3286491E-002  0.1250094E+03  0.7818608E-02  0.1235055E+00
         -4   -1    0    0    0  501 -0.00000000000E+00  0.00000000000E+00  0.19907315948E+03  0.19907721046E+03  0.12700000000E+01 0. -1.
          4   -1    0    0  501    0  0.00000000000E+00 -0.00000000000E+00 -0.19600334305E+02  0.19641435917E+02  0.12700000000E+01 0. -1.
         25    2    1    2    0    0  0.00000000000E+00  0.00000000000E+00  0.17947282517E+03  0.21871864638E+03  0.12500940484E+03 0.  0.
    9000005    1    3    3    0    0  0.43503296886E+02 -0.44818154483E+02  0.93502771914E+02  0.11244986513E+03  0.10000000000E+01 0.  0.
    9000005    1    3    3    0    0 -0.43503296886E+02  0.44818154483E+02  0.85970053260E+02  0.10626878125E+03  0.10000000000E+01 0.  0.
<mgrwt>
<rscale>  0 0.12500940E+03</rscale>
<asrwt>0</asrwt>
<pdfrwt beam="2">  1        4 0.30189092E-02 0.12500940E+03</pdfrwt>
<pdfrwt beam="1">  1       -4 0.30630114E-01 0.12500940E+03</pdfrwt>
<totfact> 0.87053222E+03</totfact>
</mgrwt>
</event>
<event>
 5    1  0.3286491E-002  0.1250001E+03  0.7818608E-02  0.1235069E+00
          4   -1    0    0  501    0  0.00000000000E+00  0.00000000000E+00  0.14216101988E+02  0.14272717181E+02  0.12700000000E+01 0.  1.
         -4   -1    0    0    0  501 -0.00000000000E+00 -0.00000000000E+00 -0.27417275846E+03  0.27417569984E+03  0.12700000000E+01 0.  1.
         25    2    1    2    0    0  0.00000000000E+00  0.00000000000E+00 -0.25995665648E+03  0.28844841702E+03  0.12500010415E+03 0.  0.
    9000005    1    3    3    0    0  0.41611213949E+01 -0.43876090245E+02 -0.23221322433E+03  0.23636075770E+03  0.10000000000E+01 0.  0.
    9000005    1    3    3    0    0 -0.41611213949E+01  0.43876090245E+02 -0.27743432146E+02  0.52087659323E+02  0.10000000000E+01 0.  0.
<mgrwt>
<rscale>  0 0.12500010E+03</rscale>
<asrwt>0</asrwt>
<pdfrwt beam="1">  1        4 0.21916741E-02 0.12500010E+03</pdfrwt>
<pdfrwt beam="2">  1       -4 0.42185002E-01 0.12500010E+03</pdfrwt>
<totfact> 0.77070901E+03</totfact>
</mgrwt>
</event>
<event>
 5    1  0.3286491E-002  0.1249985E+03  0.7818608E-02  0.1235072E+00
         -4   -1    0    0    0  501 -0.00000000000E+00  0.00000000000E+00  0.73156852134E+02  0.73167874878E+02  0.12700000000E+01 0. -1.
          4   -1    0    0  501    0  0.00000000000E+00 -0.00000000000E+00 -0.53371633764E+02  0.53386741712E+02  0.12700000000E+01 0. -1.
         25    2    1    2    0    0  0.00000000000E+00  0.00000000000E+00  0.19785218370E+02  0.12655461659E+03  0.12499846445E+03 0.  0.
    9000005    1    3    3    0    0 -0.46369074738E+02 -0.39637532437E+02 -0.38382707839E+01  0.61130658367E+02  0.10000000000E+01 0.  0.
    9000005    1    3    3    0    0  0.46369074738E+02  0.39637532437E+02  0.23623489154E+02  0.65423958223E+02  0.10000000000E+01 0.  0.
<mgrwt>
<rscale>  0 0.12499846E+03</rscale>
<asrwt>0</asrwt>
<pdfrwt beam="2">  1        4 0.82130306E-02 0.12499846E+03</pdfrwt>
<pdfrwt beam="1">  1       -4 0.11256910E-01 0.12499846E+03</pdfrwt>
<totfact> 0.10419198E+04</totfact>
</mgrwt>
</event>
<event>
 5    1  0.3286491E-002  0.1249989E+03  0.7818608E-02  0.1235071E+00
         -4   -1    0    0    0  501 -0.00000000000E+00  0.00000000000E+00  0.45116334890E+02  0.45134206251E+02  0.12700000000E+01 0. -1.
          4   -1    0    0  501    0  0.00000000000E+00 -0.00000000000E+00 -0.86540508144E+02  0.86549826399E+02  0.12700000000E+01 0. -1.
         25    2    1    2    0    0  0.00000000000E+00  0.00000000000E+00 -0.41424173254E+02  0.13168403265E+03  0.12499888930E+03 0.  0.
    9000005    1    3    3    0    0 -0.13213730997E+02  0.57049575889E+02 -0.43694501959E+02  0.73071651805E+02  0.10000000000E+01 0.  0.
    9000005    1    3    3    0    0  0.13213730997E+02 -0.57049575889E+02  0.22703287052E+01  0.58612380846E+02  0.10000000000E+01 0.  0.
<mgrwt>
<rscale>  0 0.12499889E+03</rscale>
<asrwt>0</asrwt>
<pdfrwt beam="2">  1        4 0.13316016E-01 0.12499889E+03</pdfrwt>
<pdfrwt beam="1">  1       -4 0.69430661E-02 0.12499889E+03</pdfrwt>
<totfact> 0.10308705E+04</totfact>
</mgrwt>
</event>
<event>
 5    1  0.3286491E-002  0.1249968E+03  0.7818608E-02  0.1235074E+00
         -4   -1    0    0    0  501 -0.00000000000E+00  0.00000000000E+00  0.40928412697E+02  0.40948111873E+02  0.12700000000E+01 0.  1.
          4   -1    0    0  501    0  0.00000000000E+00 -0.00000000000E+00 -0.95389304497E+02  0.95397758425E+02  0.12700000000E+01 0.  1.
         25    2    1    2    0    0  0.00000000000E+00  0.00000000000E+00 -0.54460891800E+02  0.13634587030E+03  0.12499683041E+03 0.  0.
    9000005    1    3    3    0    0  0.42149986231E+02  0.30170141229E+02  0.10841148314E+02  0.52965925442E+02  0.10000000000E+01 0.  0.
    9000005    1    3    3    0    0 -0.42149986231E+02 -0.30170141229E+02 -0.65302040114E+02  0.83379944856E+02  0.10000000000E+01 0.  0.
<mgrwt>
<rscale>  0 0.12499683E+03</rscale>
<asrwt>0</asrwt>
<pdfrwt beam="2">  1        4 0.14677443E-01 0.12499683E+03</pdfrwt>
<pdfrwt beam="1">  1       -4 0.62988445E-02 0.12499683E+03</pdfrwt>
<totfact> 0.10210510E+04</totfact>
</mgrwt>
</event>
<event>
 5    1  0.3286491E-002  0.1250013E+03  0.7818608E-02  0.1235067E+00
          4   -1    0    0  501    0  0.00000000000E+00  0.00000000000E+00  0.28245735860E+03  0.28246021370E+03  0.12700000000E+01 0.  1.
         -4   -1    0    0    0  501 -0.00000000000E+00 -0.00000000000E+00 -0.13797731571E+02  0.13856056312E+02  0.12700000000E+01 0.  1.
         25    2    1    2    0    0  0.00000000000E+00  0.00000000000E+00  0.26865962702E+03  0.29631627001E+03  0.12500134672E+03 0.  0.
    9000005    1    3    3    0    0 -0.21783262465E+01 -0.38874118663E+02  0.18456212025E+02  0.43099582009E+02  0.10000000000E+01 0.  0.
    9000005    1    3    3    0    0  0.21783262465E+01  0.38874118663E+02  0.25020341500E+03  0.25321668800E+03  0.10000000000E+01 0.  0.
<mgrwt>
<rscale>  0 0.12500135E+03</rscale>
<asrwt>0</asrwt>
<pdfrwt beam="1">  1        4 0.43459682E-01 0.12500135E+03</pdfrwt>
<pdfrwt beam="2">  1       -4 0.21274342E-02 0.12500135E+03</pdfrwt>
<totfact> 0.76060980E+03</totfact>
</mgrwt>
</event>
<event>
 5    1  0.3286491E-002  0.1250066E+03  0.7818608E-02  0.1235059E+00
          4   -1    0    0  501    0  0.00000000000E+00  0.00000000000E+00  0.66007995508E+01  0.67218639312E+01  0.12700000000E+01 0. -1.
         -4   -1    0    0    0  501 -0.00000000000E+00 -0.00000000000E+00 -0.58634668549E+03  0.58634806087E+03  0.12700000000E+01 0. -1.
         25    2    1    2    0    0  0.00000000000E+00  0.00000000000E+00 -0.57974588594E+03  0.59306992480E+03  0.12500657358E+03 0.  0.
    9000005    1    3    3    0    0 -0.17024188703E+02 -0.59479385960E+02 -0.24796145456E+03  0.25556506667E+03  0.10000000000E+01 0.  0.
    9000005    1    3    3    0    0  0.17024188703E+02  0.59479385960E+02 -0.33178443137E+03  0.33750485812E+03  0.10000000000E+01 0.  0.
<mgrwt>
<rscale>  0 0.12500657E+03</rscale>
<asrwt>0</asrwt>
<pdfrwt beam="1">  1        4 0.10249265E-02 0.12500657E+03</pdfrwt>
<pdfrwt beam="2">  1       -4 0.90216560E-01 0.12500657E+03</pdfrwt>
<totfact> 0.49300908E+03</totfact>
</mgrwt>
</event>
<event>
 5    1  0.3286491E-002  0.1250608E+03  0.7818608E-02  0.1234974E+00
          4   -1    0    0  501    0  0.00000000000E+00  0.00000000000E+00  0.62786536129E+03  0.62786664572E+03  0.12700000000E+01 0. -1.
         -4   -1    0    0    0  501 -0.00000000000E+00 -0.00000000000E+00 -0.61614775800E+01  0.62910019844E+01  0.12700000000E+01 0. -1.
         25    2    1    2    0    0  0.00000000000E+00  0.00000000000E+00  0.62170388371E+03  0.63415764770E+03  0.12506079770E+03 0.  0.
    9000005    1    3    3    0    0 -0.30560121411E+01 -0.49138149875E+02  0.11543520602E+03  0.12549973615E+03  0.10000000000E+01 0.  0.
    9000005    1    3    3    0    0  0.30560121411E+01  0.49138149875E+02  0.50626867768E+03  0.50865791155E+03  0.10000000000E+01 0.  0.
<mgrwt>
<rscale>  0 0.12506080E+03</rscale>
<asrwt>0</asrwt>
<pdfrwt beam="1">  1        4 0.96604713E-01 0.12506080E+03</pdfrwt>
<pdfrwt beam="2">  1       -4 0.95798204E-03 0.12506080E+03</pdfrwt>
<totfact> 0.46717856E+03</totfact>
</mgrwt>
</event>
<event>
 5    1  0.3286491E-002  0.1250006E+03  0.7818608E-02  0.1235068E+00
          4   -1    0    0  501    0  0.00000000000E+00  0.00000000000E+00  0.77941647862E+02  0.77951994018E+02  0.12700000000E+01 0.  1.
         -4   -1    0    0    0  501 -0.00000000000E+00 -0.00000000000E+00 -0.50096389447E+02  0.50112484828E+02  0.12700000000E+01 0.  1.
         25    2    1    2    0    0  0.00000000000E+00  0.00000000000E+00  0.27845258415E+02  0.12806447885E+03  0.12500060930E+03 0.  0.
    9000005    1    3    3    0    0  0.40085100691E+02  0.31701277033E+02  0.50769454772E+02  0.72043901899E+02  0.10000000000E+01 0.  0.
    9000005    1    3    3    0    0 -0.40085100691E+02 -0.31701277033E+02 -0.22924196357E+02  0.56020576947E+02  0.10000000000E+01 0.  0.
<mgrwt>
<rscale>  0 0.12500061E+03</rscale>
<asrwt>0</asrwt>
<pdfrwt beam="1">  1        4 0.11993057E-01 0.12500061E+03</pdfrwt>
<pdfrwt beam="2">  1       -4 0.77091708E-02 0.12500061E+03</pdfrwt>
<totfact> 0.10385952E+04</totfact>
</mgrwt>
</event>
<event>
 5    1  0.3286491E-002  0.1250029E+03  0.7818608E-02  0.1235065E+00
         -4   -1    0    0    0  501 -0.00000000000E+00  0.00000000000E+00  0.10930867525E+03  0.10931605273E+03  0.12700000000E+01 0.  1.
          4   -1    0    0  501    0  0.00000000000E+00 -0.00000000000E+00 -0.35717764913E+02  0.35740336182E+02  0.12700000000E+01 0.  1.
         25    2    1    2    0    0  0.00000000000E+00  0.00000000000E+00  0.73590910339E+02  0.14505638892E+03  0.12500293549E+03 0.  0.
    9000005    1    3    3    0    0 -0.58867733211E+02  0.88067138790E+01  0.14702702191E+02  0.61319961469E+02  0.10000000000E+01 0.  0.
    9000005    1    3    3    0    0  0.58867733211E+02 -0.88067138790E+01  0.58888208148E+02  0.83736427447E+02  0.10000000000E+01 0.  0.
<mgrwt>
<rscale>  0 0.12500294E+03</rscale>
<asrwt>0</asrwt>
<pdfrwt beam="2">  1        4 0.54973446E-02 0.12500294E+03</pdfrwt>
<pdfrwt beam="1">  1       -4 0.16819023E-01 0.12500294E+03</pdfrwt>
<totfact> 0.10029180E+04</totfact>
</mgrwt>
</event>
<event>
 5    1  0.3286491E-002  0.1249996E+03  0.7818608E-02  0.1235070E+00
          4   -1    0    0  501    0  0.00000000000E+00  0.00000000000E+00  0.11417370418E+03  0.11418076732E+03  0.12700000000E+01 0.  1.
         -4   -1    0    0    0  501 -0.00000000000E+00 -0.00000000000E+00 -0.34193106000E+02  0.34216683035E+02  0.12700000000E+01 0.  1.
         25    2    1    2    0    0  0.00000000000E+00  0.00000000000E+00  0.79980598181E+02  0.14839745036E+03  0.12499962875E+03 0.  0.
    9000005    1    3    3    0    0  0.42953419232E+02  0.34361085460E+02  0.75198763877E+02  0.93174752516E+02  0.10000000000E+01 0.  0.
    9000005    1    3    3    0    0 -0.42953419232E+02 -0.34361085460E+02  0.47818343045E+01  0.55222697843E+02  0.10000000000E+01 0.  0.
<mgrwt>
<rscale>  0 0.12499963E+03</rscale>
<asrwt>0</asrwt>
<pdfrwt beam="1">  1        4 0.17567542E-01 0.12499963E+03</pdfrwt>
<pdfrwt beam="2">  1       -4 0.52628347E-02 0.12499963E+03</pdfrwt>
<totfact> 0.99624938E+03</totfact>
</mgrwt>
</event>
<event>
 5    1  0.3286491E-002  0.1250014E+03  0.7818608E-02  0.1235067E+00
          4   -1    0    0  501    0  0.00000000000E+00  0.00000000000E+00  0.11907603123E+03  0.11908280361E+03  0.12700000000E+01 0. -1.
         -4   -1    0    0    0  501 -0.00000000000E+00 -0.00000000000E+00 -0.32785394355E+02  0.32809982978E+02  0.12700000000E+01 0. -1.
         25    2    1    2    0    0  0.00000000000E+00  0.00000000000E+00  0.86290636879E+02  0.15189278658E+03  0.12500137840E+03 0.  0.
    9000005    1    3    3    0    0  0.21127996688E+02  0.36929137631E+02 -0.12474977764E+02  0.44348376751E+02  0.10000000000E+01 0.  0.
    9000005    1    3    3    0    0 -0.21127996688E+02 -0.36929137631E+02  0.98765614643E+02  0.10754440983E+03  0.10000000000E+01 0.  0.
<mgrwt>
<rscale>  0 0.12500138E+03</rscale>
<asrwt>0</asrwt>
<pdfrwt beam="1">  1        4 0.18321802E-01 0.12500138E+03</pdfrwt>
<pdfrwt beam="2">  1       -4 0.50463192E-02 0.12500138E+03</pdfrwt>
<totfact> 0.98924661E+03</totfact>
</mgrwt>
</event>
<event>
 5    1  0.3286491E-002  0.1249685E+03  0.7818608E-02  0.1235118E+00
          4   -1    0    0  501    0  0.00000000000E+00  0.00000000000E+00  0.18471011635E+03  0.18471448233E+03  0.12700000000E+01 0. -1.
         -4   -1    0    0    0  501 -0.00000000000E+00 -0.00000000000E+00 -0.21113654347E+02  0.21151815522E+02  0.12700000000E+01 0. -1.
         25    2    1    2    0    0  0.00000000000E+00  0.00000000000E+00  0.16359646201E+03  0.20586629786E+03  0.12496851688E+03 0.  0.
    9000005    1    3    3    0    0  0.59036331507E+02 -0.51143299469E+01  0.11440725292E+03  0.12884666984E+03  0.10000000000E+01 0.  0.
    9000005    1    3    3    0    0 -0.59036331507E+02  0.51143299469E+01  0.49189209085E+02  0.77019628011E+02  0.10000000000E+01 0.  0.
<mgrwt>
<rscale>  0 0.12496852E+03</rscale>
<asrwt>0</asrwt>
<pdfrwt beam="1">  1        4 0.28420214E-01 0.12496852E+03</pdfrwt>
<pdfrwt beam="2">  1       -4 0.32515257E-02 0.12496852E+03</pdfrwt>
<totfact> 0.89218253E+03</totfact>
</mgrwt>
</event>
<event>
 5    1  0.3286491E-002  0.1250007E+03  0.7818608E-02  0.1235068E+00
         -4   -1    0    0    0  501 -0.00000000000E+00  0.00000000000E+00  0.49479038830E+02  0.49495334967E+02  0.12700000000E+01 0. -1.
          4   -1    0    0  501    0  0.00000000000E+00 -0.00000000000E+00 -0.78914098891E+02  0.78924317569E+02  0.12700000000E+01 0. -1.
         25    2    1    2    0    0  0.00000000000E+00  0.00000000000E+00 -0.29435060061E+02  0.12841965254E+03  0.12500073759E+03 0.  0.
    9000005    1    3    3    0    0  0.10611550240E+02 -0.21956011374E+02 -0.73829289731E+02  0.77758828798E+02  0.10000000000E+01 0.  0.
    9000005    1    3    3    0    0 -0.10611550240E+02  0.21956011374E+02  0.44394229669E+02  0.50660823739E+02  0.10000000000E+01 0.  0.
<mgrwt>
<rscale>  0 0.12500074E+03</rscale>
<asrwt>0</asrwt>
<pdfrwt beam="2">  1        4 0.12142670E-01 0.12500074E+03</pdfrwt>
<pdfrwt beam="1">  1       -4 0.76141994E-02 0.12500074E+03</pdfrwt>
<totfact> 0.10378262E+04</totfact>
</mgrwt>
</event>
<event>
 5    1  0.3286491E-002  0.1249979E+03  0.7818608E-02  0.1235073E+00
          4   -1    0    0  501    0  0.00000000000E+00  0.00000000000E+00  0.29571238353E+01  0.32183041151E+01  0.12700000000E+01 0. -1.
         -4   -1    0    0    0  501 -0.00000000000E+00 -0.00000000000E+00 -0.12647901811E+04  0.12647908187E+04  0.12700000000E+01 0. -1.
         25    2    1    2    0    0  0.00000000000E+00  0.00000000000E+00 -0.12618330573E+04  0.12680091229E+04  0.12499788469E+03 0.  0.
    9000005    1    3    3    0    0 -0.23195247567E+02  0.48787803131E+02 -0.94958930804E+03  0.95112518797E+03  0.10000000000E+01 0.  0.
    9000005    1    3    3    0    0  0.23195247567E+02 -0.48787803131E+02 -0.31224374924E+03  0.31688393488E+03  0.10000000000E+01 0.  0.
<mgrwt>
<rscale>  0 0.12499788E+03</rscale>
<asrwt>0</asrwt>
<pdfrwt beam="1">  1        4 0.47508298E-03 0.12499788E+03</pdfrwt>
<pdfrwt beam="2">  1       -4 0.19460283E+00 0.12499788E+03</pdfrwt>
<totfact> 0.22997502E+03</totfact>
</mgrwt>
</event>
<event>
 5    1  0.3286491E-002  0.1250067E+03  0.7818608E-02  0.1235059E+00
          4   -1    0    0  501    0  0.00000000000E+00  0.00000000000E+00  0.22528465291E+02  0.22564233831E+02  0.12700000000E+01 0. -1.
         -4   -1    0    0    0  501 -0.00000000000E+00 -0.00000000000E+00 -0.17323461271E+03  0.17323926790E+03  0.12700000000E+01 0. -1.
         25    2    1    2    0    0  0.00000000000E+00  0.00000000000E+00 -0.15070614742E+03  0.19580350173E+03  0.12500667350E+03 0.  0.
    9000005    1    3    3    0    0  0.40464134453E+02  0.45074833461E+02 -0.51260868169E+02  0.79358448788E+02  0.10000000000E+01 0.  0.
    9000005    1    3    3    0    0 -0.40464134453E+02 -0.45074833461E+02 -0.99445279253E+02  0.11644505294E+03  0.10000000000E+01 0.  0.
<mgrwt>
<rscale>  0 0.12500667E+03</rscale>
<asrwt>0</asrwt>
<pdfrwt beam="1">  1        4 0.34690274E-02 0.12500667E+03</pdfrwt>
<pdfrwt beam="2">  1       -4 0.26654588E-01 0.12500667E+03</pdfrwt>
<totfact> 0.90833644E+03</totfact>
</mgrwt>
</event>
<event>
 5    1  0.3286491E-002  0.1250059E+03  0.7818608E-02  0.1235060E+00
         -4   -1    0    0    0  501 -0.00000000000E+00  0.00000000000E+00  0.13535583802E+02  0.13595033243E+02  0.12700000000E+01 0.  1.
          4   -1    0    0  501    0  0.00000000000E+00 -0.00000000000E+00 -0.28792508966E+03  0.28792789055E+03  0.12700000000E+01 0.  1.
         25    2    1    2    0    0  0.00000000000E+00  0.00000000000E+00 -0.27438950586E+03  0.30152292379E+03  0.12500589045E+03 0.  0.
    9000005    1    3    3    0    0  0.48332175607E+02 -0.37367586718E+02 -0.16894646276E+03  0.17965590170E+03  0.10000000000E+01 0.  0.
    9000005    1    3    3    0    0 -0.48332175607E+02  0.37367586718E+02 -0.10544304310E+03  0.12186702209E+03  0.10000000000E+01 0.  0.
<mgrwt>
<rscale>  0 0.12500589E+03</rscale>
<asrwt>0</asrwt>
<pdfrwt beam="2">  1        4 0.44300951E-01 0.12500589E+03</pdfrwt>
<pdfrwt beam="1">  1       -4 0.20871862E-02 0.12500589E+03</pdfrwt>
<totfact> 0.75398346E+03</totfact>
</mgrwt>
</event>
<event>
 5    1  0.3286491E-002  0.1250012E+03  0.7818608E-02  0.1235067E+00
         -4   -1    0    0    0  501 -0.00000000000E+00  0.00000000000E+00  0.46623439059E+01  0.48322200588E+01  0.12700000000E+01 0. -1.
          4   -1    0    0  501    0  0.00000000000E+00 -0.00000000000E+00 -0.82268532944E+03  0.82268630970E+03  0.12700000000E+01 0. -1.
         25    2    1    2    0    0  0.00000000000E+00  0.00000000000E+00 -0.81802298553E+03  0.82751852976E+03  0.12500124895E+03 0.  0.
    9000005    1    3    3    0    0  0.14797627100E+02 -0.50271289114E+02 -0.63440130310E+03  0.63656279003E+03  0.10000000000E+01 0.  0.
    9000005    1    3    3    0    0 -0.14797627100E+02  0.50271289114E+02 -0.18362168244E+03  0.19095573973E+03  0.10000000000E+01 0.  0.
<mgrwt>
<rscale>  0 0.12500125E+03</rscale>
<asrwt>0</asrwt>
<pdfrwt beam="2">  1        4 0.12658000E+00 0.12500125E+03</pdfrwt>
<pdfrwt beam="1">  1       -4 0.73042713E-03 0.12500125E+03</pdfrwt>
<totfact> 0.37064364E+03</totfact>
</mgrwt>
</event>
<event>
 5    1  0.3286491E-002  0.1249989E+03  0.7818608E-02  0.1235071E+00
         -4   -1    0    0    0  501 -0.00000000000E+00  0.00000000000E+00  0.82534145969E+01  0.83505540240E+01  0.12700000000E+01 0.  1.
          4   -1    0    0  501    0  0.00000000000E+00 -0.00000000000E+00 -0.47041349015E+03  0.47041520449E+03  0.12700000000E+01 0.  1.
         25    2    1    2    0    0  0.00000000000E+00  0.00000000000E+00 -0.46216007555E+03  0.47876575851E+03  0.12499886435E+03 0.  0.
    9000005    1    3    3    0    0  0.22376444200E+01  0.61144869407E+02 -0.18240881731E+03  0.19239978882E+03  0.10000000000E+01 0.  0.
    9000005    1    3    3    0    0 -0.22376444200E+01 -0.61144869407E+02 -0.27975125824E+03  0.28636596969E+03  0.10000000000E+01 0.  0.
<mgrwt>
<rscale>  0 0.12499886E+03</rscale>
<asrwt>0</asrwt>
<pdfrwt beam="2">  1        4 0.72378889E-01 0.12499886E+03</pdfrwt>
<pdfrwt beam="1">  1       -4 0.12773606E-02 0.12499886E+03</pdfrwt>
<totfact> 0.57551808E+03</totfact>
</mgrwt>
</event>
<event>
 5    1  0.3286491E-002  0.1250038E+03  0.7818608E-02  0.1235063E+00
          4   -1    0    0  501    0  0.00000000000E+00  0.00000000000E+00  0.15982827370E+02  0.16033205254E+02  0.12700000000E+01 0. -1.
         -4   -1    0    0    0  501 -0.00000000000E+00 -0.00000000000E+00 -0.24398119004E+03  0.24398449540E+03  0.12700000000E+01 0. -1.
         25    2    1    2    0    0  0.00000000000E+00  0.00000000000E+00 -0.22799836267E+03  0.26001770065E+03  0.12500380503E+03 0.  0.
    9000005    1    3    3    0    0 -0.48805166006E+02  0.27199202979E+02 -0.55766389550E+02  0.78947014352E+02  0.10000000000E+01 0.  0.
    9000005    1    3    3    0    0  0.48805166006E+02 -0.27199202979E+02 -0.17223197312E+03  0.18107068630E+03  0.10000000000E+01 0.  0.
<mgrwt>
<rscale>  0 0.12500381E+03</rscale>
<asrwt>0</asrwt>
<pdfrwt beam="1">  1        4 0.24630262E-02 0.12500381E+03</pdfrwt>
<pdfrwt beam="2">  1       -4 0.37539694E-01 0.12500381E+03</pdfrwt>
<totfact> 0.80896726E+03</totfact>
</mgrwt>
</event>
<event>
 5    1  0.3286491E-002  0.1250011E+03  0.7818608E-02  0.1235068E+00
          4   -1    0    0  501    0  0.00000000000E+00  0.00000000000E+00  0.40516590604E+02  0.40536489910E+02  0.12700000000E+01 0.  1.
         -4   -1    0    0    0  501 -0.00000000000E+00 -0.00000000000E+00 -0.96365046501E+02  0.96373414835E+02  0.12700000000E+01 0.  1.
         25    2    1    2    0    0  0.00000000000E+00  0.00000000000E+00 -0.55848455896E+02  0.13690990475E+03  0.12500108796E+03 0.  0.
    9000005    1    3    3    0    0 -0.30209109020E+02  0.24913392765E+02 -0.81267917302E+02  0.90214975417E+02  0.10000000000E+01 0.  0.
    9000005    1    3    3    0    0  0.30209109020E+02 -0.24913392765E+02  0.25419461405E+02  0.46694929328E+02  0.10000000000E+01 0.  0.
<mgrwt>
<rscale>  0 0.12500109E+03</rscale>
<asrwt>0</asrwt>
<pdfrwt beam="1">  1        4 0.62354961E-02 0.12500109E+03</pdfrwt>
<pdfrwt beam="2">  1       -4 0.14827566E-01 0.12500109E+03</pdfrwt>
<totfact> 0.10197720E+04</totfact>
</mgrwt>
</event>
<event>
 5    1  0.3286491E-002  0.1250019E+03  0.7818608E-02  0.1235066E+00
          4   -1    0    0  501    0  0.00000000000E+00  0.00000000000E+00  0.25547451194E+03  0.25547766860E+03  0.12700000000E+01 0.  1.
         -4   -1    0    0    0  501 -0.00000000000E+00 -0.00000000000E+00 -0.15261023598E+02  0.15313776192E+02  0.12700000000E+01 0.  1.
         25    2    1    2    0    0  0.00000000000E+00  0.00000000000E+00  0.24021348835E+03  0.27079144479E+03  0.12500194634E+03 0.  0.
    9000005    1    3    3    0    0 -0.11539015616E+02 -0.46066135874E+02  0.20810574809E+03  0.21345781818E+03  0.10000000000E+01 0.  0.
    9000005    1    3    3    0    0  0.11539015616E+02  0.46066135874E+02  0.32107740259E+02  0.57333626611E+02  0.10000000000E+01 0.  0.
<mgrwt>
<rscale>  0 0.12500195E+03</rscale>
<asrwt>0</asrwt>
<pdfrwt beam="1">  1        4 0.39308073E-01 0.12500195E+03</pdfrwt>
<pdfrwt beam="2">  1       -4 0.23521504E-02 0.12500195E+03</pdfrwt>
<totfact> 0.79411648E+03</totfact>
</mgrwt>
</event>
<event>
 5    1  0.3286491E-002  0.1249993E+03  0.7818608E-02  0.1235070E+00
          4   -1    0    0  501    0  0.00000000000E+00  0.00000000000E+00  0.11418279026E+02  0.11488689913E+02  0.12700000000E+01 0.  1.
         -4   -1    0    0    0  501 -0.00000000000E+00 -0.00000000000E+00 -0.34097820065E+03  0.34098056575E+03  0.12700000000E+01 0.  1.
         25    2    1    2    0    0  0.00000000000E+00  0.00000000000E+00 -0.32955992163E+03  0.35246925566E+03  0.12499933698E+03 0.  0.
    9000005    1    3    3    0    0 -0.23745941579E+01  0.19700746593E+01  0.11217196455E+02  0.11676702783E+02  0.10000000000E+01 0.  0.
    9000005    1    3    3    0    0  0.23745941579E+01 -0.19700746593E+01 -0.34077711808E+03  0.34079255288E+03  0.10000000000E+01 0.  0.
<mgrwt>
<rscale>  0 0.12499934E+03</rscale>
<asrwt>0</asrwt>
<pdfrwt beam="1">  1        4 0.17622567E-02 0.12499934E+03</pdfrwt>
<pdfrwt beam="2">  1       -4 0.52463775E-01 0.12499934E+03</pdfrwt>
<totfact> 0.69454782E+03</totfact>
</mgrwt>
</event>
<event>
 5    1  0.3286491E-002  0.1250011E+03  0.7818608E-02  0.1235068E+00
          4   -1    0    0  501    0  0.00000000000E+00  0.00000000000E+00  0.19182293719E+03  0.19182714128E+03  0.12700000000E+01 0. -1.
         -4   -1    0    0    0  501 -0.00000000000E+00 -0.00000000000E+00 -0.20339966869E+02  0.20379576841E+02  0.12700000000E+01 0. -1.
         25    2    1    2    0    0  0.00000000000E+00  0.00000000000E+00  0.17148297032E+03  0.21220671812E+03  0.12500112842E+03 0.  0.
    9000005    1    3    3    0    0 -0.22449861997E+02  0.56330906576E+02  0.60099097273E+02  0.85381899910E+02  0.10000000000E+01 0.  0.
    9000005    1    3    3    0    0  0.22449861997E+02 -0.56330906576E+02  0.11138387305E+03  0.12682481821E+03  0.10000000000E+01 0.  0.
<mgrwt>
<rscale>  0 0.12500113E+03</rscale>
<asrwt>0</asrwt>
<pdfrwt beam="1">  1        4 0.29514591E-01 0.12500113E+03</pdfrwt>
<pdfrwt beam="2">  1       -4 0.31325960E-02 0.12500113E+03</pdfrwt>
<totfact> 0.88114535E+03</totfact>
</mgrwt>
</event>
<event>
 5    1  0.3286491E-002  0.1249997E+03  0.7818608E-02  0.1235070E+00
         -4   -1    0    0    0  501 -0.00000000000E+00  0.00000000000E+00  0.10393306981E+02  0.10470612685E+02  0.12700000000E+01 0.  1.
          4   -1    0    0  501    0  0.00000000000E+00 -0.00000000000E+00 -0.37437030784E+03  0.37437246198E+03  0.12700000000E+01 0.  1.
         25    2    1    2    0    0  0.00000000000E+00  0.00000000000E+00 -0.36397700085E+03  0.38484307466E+03  0.12499973986E+03 0.  0.
    9000005    1    3    3    0    0  0.41070687648E+02 -0.45507793991E+02 -0.21937638459E+03  0.22778226185E+03  0.10000000000E+01 0.  0.
    9000005    1    3    3    0    0 -0.41070687648E+02  0.45507793991E+02 -0.14460061627E+03  0.15706081282E+03  0.10000000000E+01 0.  0.
<mgrwt>
<rscale>  0 0.12499974E+03</rscale>
<asrwt>0</asrwt>
<pdfrwt beam="2">  1        4 0.57601534E-01 0.12499974E+03</pdfrwt>
<pdfrwt beam="1">  1       -4 0.16050829E-02 0.12499974E+03</pdfrwt>
<totfact> 0.66054505E+03</totfact>
</mgrwt>
</event>
<event>
 5    1  0.3286491E-002  0.1249683E+03  0.7818608E-02  0.1235119E+00
          4   -1    0    0  501    0  0.00000000000E+00  0.00000000000E+00  0.29745998450E+02  0.29773097316E+02  0.12700000000E+01 0.  1.
         -4   -1    0    0    0  501 -0.00000000000E+00 -0.00000000000E+00 -0.13116360507E+03  0.13116975335E+03  0.12700000000E+01 0.  1.
         25    2    1    2    0    0  0.00000000000E+00  0.00000000000E+00 -0.10141760662E+03  0.16094285067E+03  0.12496827697E+03 0.  0.
    9000005    1    3    3    0    0  0.55882805813E+02 -0.74208821157E+01 -0.16024436890E+02  0.58615186211E+02  0.10000000000E+01 0.  0.
    9000005    1    3    3    0    0 -0.55882805813E+02  0.74208821157E+01 -0.85393169727E+02  0.10232766446E+03  0.10000000000E+01 0.  0.
<mgrwt>
<rscale>  0 0.12496828E+03</rscale>
<asrwt>0</asrwt>
<pdfrwt beam="1">  1        4 0.45788650E-02 0.12496828E+03</pdfrwt>
<pdfrwt beam="2">  1       -4 0.20181573E-01 0.12496828E+03</pdfrwt>
<totfact> 0.97230624E+03</totfact>
</mgrwt>
</event>
<event>
 5    1  0.3286491E-002  0.1249997E+03  0.7818608E-02  0.1235070E+00
         -4   -1    0    0    0  501 -0.00000000000E+00  0.00000000000E+00  0.51683379276E+02  0.51698980584E+02  0.12700000000E+01 0. -1.
          4   -1    0    0  501    0  0.00000000000E+00 -0.00000000000E+00 -0.75547672018E+02  0.75558345981E+02  0.12700000000E+01 0. -1.
         25    2    1    2    0    0  0.00000000000E+00  0.00000000000E+00 -0.23864292742E+02  0.12725732657E+03  0.12499969079E+03 0.  0.
    9000005    1    3    3    0    0 -0.50991667918E+01 -0.42068942960E+02 -0.58690234608E+02  0.72397107001E+02  0.10000000000E+01 0.  0.
    9000005    1    3    3    0    0  0.50991667918E+01  0.42068942960E+02  0.34825941866E+02  0.54860219564E+02  0.10000000000E+01 0.  0.
<mgrwt>
<rscale>  0 0.12499969E+03</rscale>
<asrwt>0</asrwt>
<pdfrwt beam="2">  1        4 0.11624740E-01 0.12499969E+03</pdfrwt>
<pdfrwt beam="1">  1       -4 0.79533103E-02 0.12499969E+03</pdfrwt>
<totfact> 0.10403632E+04</totfact>
</mgrwt>
</event>
<event>
 5    1  0.3286491E-002  0.1249986E+03  0.7818608E-02  0.1235071E+00
         -4   -1    0    0    0  501 -0.00000000000E+00  0.00000000000E+00  0.33180309048E+02  0.33204605231E+02  0.12700000000E+01 0.  1.
          4   -1    0    0  501    0  0.00000000000E+00 -0.00000000000E+00 -0.11765450447E+03  0.11766135866E+03  0.12700000000E+01 0.  1.
         25    2    1    2    0    0  0.00000000000E+00  0.00000000000E+00 -0.84474195424E+02  0.15086596389E+03  0.12499859747E+03 0.  0.
    9000005    1    3    3    0    0 -0.34507756177E+02 -0.42686681884E+02 -0.78288582367E+02  0.95619245843E+02  0.10000000000E+01 0.  0.
    9000005    1    3    3    0    0  0.34507756177E+02  0.42686681884E+02 -0.61856130570E+01  0.55246718052E+02  0.10000000000E+01 0.  0.
<mgrwt>
<rscale>  0 0.12499860E+03</rscale>
<asrwt>0</asrwt>
<pdfrwt beam="2">  1        4 0.18103089E-01 0.12499860E+03</pdfrwt>
<pdfrwt beam="1">  1       -4 0.51070592E-02 0.12499860E+03</pdfrwt>
<totfact> 0.99134490E+03</totfact>
</mgrwt>
</event>
<event>
 5    1  0.3286491E-002  0.1249988E+03  0.7818608E-02  0.1235071E+00
          4   -1    0    0  501    0  0.00000000000E+00  0.00000000000E+00  0.11182368905E+02  0.11254255832E+02  0.12700000000E+01 0.  1.
         -4   -1    0    0    0  501 -0.00000000000E+00 -0.00000000000E+00 -0.34812347195E+03  0.34812578851E+03  0.12700000000E+01 0.  1.
         25    2    1    2    0    0  0.00000000000E+00  0.00000000000E+00 -0.33694110305E+03  0.35938004434E+03  0.12499883738E+03 0.  0.
    9000005    1    3    3    0    0 -0.51987490677E+02  0.10265274970E+02 -0.73241042983E+02  0.90406445757E+02  0.10000000000E+01 0.  0.
    9000005    1    3    3    0    0  0.51987490677E+02 -0.10265274970E+02 -0.26370006007E+03  0.26897359859E+03  0.10000000000E+01 0.  0.
<mgrwt>
<rscale>  0 0.12499884E+03</rscale>
<asrwt>0</asrwt>
<pdfrwt beam="1">  1        4 0.17260727E-02 0.12499884E+03</pdfrwt>
<pdfrwt beam="2">  1       -4 0.53563157E-01 0.12499884E+03</pdfrwt>
<totfact> 0.68706586E+03</totfact>
</mgrwt>
</event>
<event>
 5    1  0.3286491E-002  0.1249900E+03  0.7818608E-02  0.1235085E+00
          4   -1    0    0  501    0  0.00000000000E+00  0.00000000000E+00  0.24133124989E+01  0.27270821802E+01  0.12700000000E+01 0. -1.
         -4   -1    0    0    0  501 -0.00000000000E+00 -0.00000000000E+00 -0.15192679017E+04  0.15192684325E+04  0.12700000000E+01 0. -1.
         25    2    1    2    0    0  0.00000000000E+00  0.00000000000E+00 -0.15168545892E+04  0.15219955146E+04  0.12499000748E+03 0.  0.
    9000005    1    3    3    0    0 -0.29245450420E+02 -0.83736681007E+01 -0.14230706933E+04  0.14233961546E+04  0.10000000000E+01 0.  0.
    9000005    1    3    3    0    0  0.29245450420E+02  0.83736681007E+01 -0.93783895814E+02  0.98599360048E+02  0.10000000000E+01 0.  0.
<mgrwt>
<rscale>  0 0.12499001E+03</rscale>
<asrwt>0</asrwt>
<pdfrwt beam="1">  1        4 0.39545702E-03 0.12499001E+03</pdfrwt>
<pdfrwt beam="2">  1       -4 0.23375698E+00 0.12499001E+03</pdfrwt>
<totfact> 0.17505967E+03</totfact>
</mgrwt>
</event>
<event>
 5    1  0.3286491E-002  0.1249991E+03  0.7818608E-02  0.1235071E+00
          4   -1    0    0  501    0  0.00000000000E+00  0.00000000000E+00  0.21727260950E+02  0.21764346266E+02  0.12700000000E+01 0. -1.
         -4   -1    0    0    0  501 -0.00000000000E+00 -0.00000000000E+00 -0.17959053282E+03  0.17959502326E+03  0.12700000000E+01 0. -1.
         25    2    1    2    0    0  0.00000000000E+00  0.00000000000E+00 -0.15786327187E+03  0.20135936952E+03  0.12499913235E+03 0.  0.
    9000005    1    3    3    0    0 -0.25841109108E+02  0.14015659847E+02  0.99010176136E+01  0.31035975749E+02  0.10000000000E+01 0.  0.
    9000005    1    3    3    0    0  0.25841109108E+02 -0.14015659847E+02 -0.16776428948E+03  0.17032339377E+03  0.10000000000E+01 0.  0.
<mgrwt>
<rscale>  0 0.12499913E+03</rscale>
<asrwt>0</asrwt>
<pdfrwt beam="1">  1        4 0.33458538E-02 0.12499913E+03</pdfrwt>
<pdfrwt beam="2">  1       -4 0.27632510E-01 0.12499913E+03</pdfrwt>
<totfact> 0.89908489E+03</totfact>
</mgrwt>
</event>
<event>
 5    1  0.3286491E-002  0.1250191E+03  0.7818608E-02  0.1235039E+00
         -4   -1    0    0    0  501 -0.00000000000E+00  0.00000000000E+00  0.36429892154E+03  0.36430113524E+03  0.12700000000E+01 0.  1.
          4   -1    0    0  501    0  0.00000000000E+00 -0.00000000000E+00 -0.10686084777E+02  0.10761287463E+02  0.12700000000E+01 0.  1.
         25    2    1    2    0    0  0.00000000000E+00  0.00000000000E+00  0.35361283676E+03  0.37506242270E+03  0.12501912893E+03 0.  0.
    9000005    1    3    3    0    0 -0.46072918465E+02  0.48188180488E+01  0.50929403277E+02  0.68853024200E+02  0.10000000000E+01 0.  0.
    9000005    1    3    3    0    0  0.46072918465E+02 -0.48188180488E+01  0.30268343348E+03  0.30620939850E+03  0.10000000000E+01 0.  0.
<mgrwt>
<rscale>  0 0.12501913E+03</rscale>
<asrwt>0</asrwt>
<pdfrwt beam="2">  1        4 0.16499680E-02 0.12501913E+03</pdfrwt>
<pdfrwt beam="1">  1       -4 0.56051948E-01 0.12501913E+03</pdfrwt>
<totfact> 0.67024271E+03</totfact>
</mgrwt>
</event>
<event>
 5    1  0.3286491E-002  0.1249988E+03  0.7818608E-02  0.1235071E+00
         -4   -1    0    0    0  501 -0.00000000000E+00  0.00000000000E+00  0.62896772975E+03  0.62896901192E+03  0.12700000000E+01 0. -1.
          4   -1    0    0  501    0  0.00000000000E+00 -0.00000000000E+00 -0.61442244537E+01  0.62741050468E+01  0.12700000000E+01 0. -1.
         25    2    1    2    0    0  0.00000000000E+00  0.00000000000E+00  0.62282350529E+03  0.63524311697E+03  0.12499879566E+03 0.  0.
    9000005    1    3    3    0    0  0.36668091418E+02  0.42010541678E+02  0.16805446164E+03  0.17706703990E+03  0.10000000000E+01 0.  0.
    9000005    1    3    3    0    0 -0.36668091418E+02 -0.42010541678E+02  0.45476904365E+03  0.45817607707E+03  0.10000000000E+01 0.  0.
<mgrwt>
<rscale>  0 0.12499880E+03</rscale>
<asrwt>0</asrwt>
<pdfrwt beam="2">  1        4 0.95535430E-03 0.12499880E+03</pdfrwt>
<pdfrwt beam="1">  1       -4 0.96774401E-01 0.12499880E+03</pdfrwt>
<totfact> 0.46717159E+03</totfact>
</mgrwt>
</event>
<event>
 5    1  0.3286491E-002  0.1249994E+03  0.7818608E-02  0.1235070E+00
         -4   -1    0    0    0  501 -0.00000000000E+00  0.00000000000E+00  0.53158269244E+02  0.53173437815E+02  0.12700000000E+01 0. -1.
          4   -1    0    0  501    0  0.00000000000E+00 -0.00000000000E+00 -0.73451549539E+02  0.73462528065E+02  0.12700000000E+01 0. -1.
         25    2    1    2    0    0  0.00000000000E+00  0.00000000000E+00 -0.20293280295E+02  0.12663596588E+03  0.12499940252E+03 0.  0.
    9000005    1    3    3    0    0 -0.50222846632E+02  0.21892977705E+02 -0.40599735343E+02  0.68198059404E+02  0.10000000000E+01 0.  0.
    9000005    1    3    3    0    0  0.50222846632E+02 -0.21892977705E+02  0.20306455048E+02  0.58437906475E+02  0.10000000000E+01 0.  0.
<mgrwt>
<rscale>  0 0.12499940E+03</rscale>
<asrwt>0</asrwt>
<pdfrwt beam="2">  1        4 0.11302250E-01 0.12499940E+03</pdfrwt>
<pdfrwt beam="1">  1       -4 0.81802066E-02 0.12499940E+03</pdfrwt>
<totfact> 0.10417205E+04</totfact>
</mgrwt>
</event>
<event>
 5    1  0.3286491E-002  0.1249973E+03  0.7818608E-02  0.1235074E+00
          4   -1    0    0  501    0  0.00000000000E+00  0.00000000000E+00  0.43441696098E+02  0.43460256095E+02  0.12700000000E+01 0.  1.
         -4   -1    0    0    0  501 -0.00000000000E+00 -0.00000000000E+00 -0.89873213512E+02  0.89882186261E+02  0.12700000000E+01 0.  1.
         25    2    1    2    0    0  0.00000000000E+00  0.00000000000E+00 -0.46431517414E+02  0.13334244236E+03  0.12499728447E+03 0.  0.
    9000005    1    3    3    0    0 -0.59845715453E+02  0.86363470123E+01 -0.63830633512E+01  0.60809864706E+02  0.10000000000E+01 0.  0.
    9000005    1    3    3    0    0  0.59845715453E+02 -0.86363470123E+01 -0.40048454063E+02  0.72532577650E+02  0.10000000000E+01 0.  0.
<mgrwt>
<rscale>  0 0.12499728E+03</rscale>
<asrwt>0</asrwt>
<pdfrwt beam="1">  1        4 0.66854558E-02 0.12499728E+03</pdfrwt>
<pdfrwt beam="2">  1       -4 0.13828766E-01 0.12499728E+03</pdfrwt>
<totfact> 0.10273757E+04</totfact>
</mgrwt>
</event>
<event>
 5    1  0.3286491E-002  0.1249995E+03  0.7818608E-02  0.1235070E+00
         -4   -1    0    0    0  501 -0.00000000000E+00  0.00000000000E+00  0.54319642459E+03  0.54319790922E+03  0.12700000000E+01 0. -1.
          4   -1    0    0  501    0  0.00000000000E+00 -0.00000000000E+00 -0.71335985074E+01  0.72457661890E+01  0.12700000000E+01 0. -1.
         25    2    1    2    0    0  0.00000000000E+00  0.00000000000E+00  0.53606282608E+03  0.55044367541E+03  0.12499954519E+03 0.  0.
    9000005    1    3    3    0    0 -0.54859808791E+02  0.26803086388E+02  0.20940979887E+03  0.21813176734E+03  0.10000000000E+01 0.  0.
    9000005    1    3    3    0    0  0.54859808791E+02 -0.26803086388E+02  0.32665302721E+03  0.33231190807E+03  0.10000000000E+01 0.  0.
<mgrwt>
<rscale>  0 0.12499955E+03</rscale>
<asrwt>0</asrwt>
<pdfrwt beam="2">  1        4 0.11062193E-02 0.12499955E+03</pdfrwt>
<pdfrwt beam="1">  1       -4 0.83577413E-01 0.12499955E+03</pdfrwt>
<totfact> 0.52153544E+03</totfact>
</mgrwt>
</event>
<event>
 5    1  0.3286491E-002  0.1250007E+03  0.7818608E-02  0.1235068E+00
          4   -1    0    0  501    0  0.00000000000E+00  0.00000000000E+00  0.20102647017E+03  0.20103048179E+03  0.12700000000E+01 0. -1.
         -4   -1    0    0    0  501 -0.00000000000E+00 -0.00000000000E+00 -0.19406780477E+02  0.19448291146E+02  0.12700000000E+01 0. -1.
         25    2    1    2    0    0  0.00000000000E+00  0.00000000000E+00  0.18161968969E+03  0.22047877294E+03  0.12500071052E+03 0.  0.
    9000005    1    3    3    0    0 -0.40819582284E+02 -0.17576070731E+02  0.13319344519E+02  0.46406481214E+02  0.10000000000E+01 0.  0.
    9000005    1    3    3    0    0  0.40819582284E+02  0.17576070731E+02  0.16830034517E+03  0.17407229172E+03  0.10000000000E+01 0.  0.
<mgrwt>
<rscale>  0 0.12500071E+03</rscale>
<asrwt>0</asrwt>
<pdfrwt beam="1">  1        4 0.30930652E-01 0.12500071E+03</pdfrwt>
<pdfrwt beam="2">  1       -4 0.29891601E-02 0.12500071E+03</pdfrwt>
<totfact> 0.86791267E+03</totfact>
</mgrwt>
</event>
<event>
 5    1  0.3286491E-002  0.1250000E+03  0.7818608E-02  0.1235069E+00
         -4   -1    0    0    0  501 -0.00000000000E+00  0.00000000000E+00  0.15265836131E+03  0.15266364393E+03  0.12700000000E+01 0.  1.
          4   -1    0    0  501    0  0.00000000000E+00 -0.00000000000E+00 -0.25566702478E+02  0.25598226025E+02  0.12700000000E+01 0.  1.
         25    2    1    2    0    0  0.00000000000E+00  0.00000000000E+00  0.12709165883E+03  0.17826186996E+03  0.12500001814E+03 0.  0.
    9000005    1    3    3    0    0 -0.30048275091E+02 -0.33430113495E+02  0.16332793341E+01  0.44990431490E+02  0.10000000000E+01 0.  0.
    9000005    1    3    3    0    0  0.30048275091E+02  0.33430113495E+02  0.12545837950E+03  0.13327143847E+03  0.10000000000E+01 0.  0.
<mgrwt>
<rscale>  0 0.12500002E+03</rscale>
<asrwt>0</asrwt>
<pdfrwt beam="2">  1        4 0.39361701E-02 0.12500002E+03</pdfrwt>
<pdfrwt beam="1">  1       -4 0.23488733E-01 0.12500002E+03</pdfrwt>
<totfact> 0.93930773E+03</totfact>
</mgrwt>
</event>
<event>
 5    1  0.3286491E-002  0.1249974E+03  0.7818608E-02  0.1235073E+00
          4   -1    0    0  501    0  0.00000000000E+00  0.00000000000E+00  0.21683557751E+02  0.21720717685E+02  0.12700000000E+01 0.  1.
         -4   -1    0    0    0  501 -0.00000000000E+00 -0.00000000000E+00 -0.17994694128E+03  0.17995142282E+03  0.12700000000E+01 0.  1.
         25    2    1    2    0    0  0.00000000000E+00  0.00000000000E+00 -0.15826338352E+03  0.20167214050E+03  0.12499741474E+03 0.  0.
    9000005    1    3    3    0    0 -0.36927695990E+02  0.39332630219E+02 -0.13000858774E+03  0.14076200985E+03  0.10000000000E+01 0.  0.
    9000005    1    3    3    0    0  0.36927695990E+02 -0.39332630219E+02 -0.28254795781E+02  0.60910130650E+02  0.10000000000E+01 0.  0.
<mgrwt>
<rscale>  0 0.12499741E+03</rscale>
<asrwt>0</asrwt>
<pdfrwt beam="1">  1        4 0.33391353E-02 0.12499741E+03</pdfrwt>
<pdfrwt beam="2">  1       -4 0.27687347E-01 0.12499741E+03</pdfrwt>
<totfact> 0.89859449E+03</totfact>
</mgrwt>
</event>
<event>
 5    1  0.3286491E-002  0.1250001E+03  0.7818608E-02  0.1235069E+00
          4   -1    0    0  501    0  0.00000000000E+00  0.00000000000E+00  0.53271403392E+02  0.53286539758E+02  0.12700000000E+01 0.  1.
         -4   -1    0    0    0  501 -0.00000000000E+00 -0.00000000000E+00 -0.73296420119E+02  0.73307421877E+02  0.12700000000E+01 0.  1.
         25    2    1    2    0    0  0.00000000000E+00  0.00000000000E+00 -0.20025016727E+02  0.12659396163E+03  0.12500011931E+03 0.  0.
    9000005    1    3    3    0    0  0.59242276324E+02 -0.19322453372E+02 -0.52350562245E+01  0.62541268951E+02  0.10000000000E+01 0.  0.
    9000005    1    3    3    0    0 -0.59242276324E+02  0.19322453372E+02 -0.14789960503E+02  0.64052692684E+02  0.10000000000E+01 0.  0.
<mgrwt>
<rscale>  0 0.12500012E+03</rscale>
<asrwt>0</asrwt>
<pdfrwt beam="1">  1        4 0.81976112E-02 0.12500012E+03</pdfrwt>
<pdfrwt beam="2">  1       -4 0.11278383E-01 0.12500012E+03</pdfrwt>
<totfact> 0.10417952E+04</totfact>
</mgrwt>
</event>
<event>
 5    1  0.3286491E-002  0.1249976E+03  0.7818608E-02  0.1235073E+00
          4   -1    0    0  501    0  0.00000000000E+00  0.00000000000E+00  0.30908476183E+03  0.30908737098E+03  0.12700000000E+01 0.  1.
         -4   -1    0    0    0  501 -0.00000000000E+00 -0.00000000000E+00 -0.12603047558E+02  0.12666874427E+02  0.12700000000E+01 0.  1.
         25    2    1    2    0    0  0.00000000000E+00  0.00000000000E+00  0.29648171427E+03  0.32175424540E+03  0.12499755012E+03 0.  0.
    9000005    1    3    3    0    0  0.56242074691E+02 -0.19279653556E+02  0.98712578134E+02  0.11523909531E+03  0.10000000000E+01 0.  0.
    9000005    1    3    3    0    0 -0.56242074691E+02  0.19279653556E+02  0.19776913614E+03  0.20651515009E+03  0.10000000000E+01 0.  0.
<mgrwt>
<rscale>  0 0.12499755E+03</rscale>
<asrwt>0</asrwt>
<pdfrwt beam="1">  1        4 0.47556613E-01 0.12499755E+03</pdfrwt>
<pdfrwt beam="2">  1       -4 0.19440408E-02 0.12499755E+03</pdfrwt>
<totfact> 0.72951925E+03</totfact>
</mgrwt>
</event>
<event>
 5    1  0.3286491E-002  0.1249986E+03  0.7818608E-02  0.1235071E+00
         -4   -1    0    0    0  501 -0.00000000000E+00  0.00000000000E+00  0.47062415602E+02  0.47079548238E+02  0.12700000000E+01 0. -1.
          4   -1    0    0  501    0  0.00000000000E+00 -0.00000000000E+00 -0.82962545514E+02  0.82972265596E+02  0.12700000000E+01 0. -1.
         25    2    1    2    0    0  0.00000000000E+00  0.00000000000E+00 -0.35900129912E+02  0.13005181383E+03  0.12499861981E+03 0.  0.
    9000005    1    3    3    0    0 -0.32034939894E+02 -0.47833897721E+01 -0.73552493483E+02  0.80374669450E+02  0.10000000000E+01 0.  0.
    9000005    1    3    3    0    0  0.32034939894E+02  0.47833897721E+01  0.37652363571E+02  0.49677144384E+02  0.10000000000E+01 0.  0.
<mgrwt>
<rscale>  0 0.12499862E+03</rscale>
<asrwt>0</asrwt>
<pdfrwt beam="2">  1        4 0.12765534E-01 0.12499862E+03</pdfrwt>
<pdfrwt beam="1">  1       -4 0.72424372E-02 0.12499862E+03</pdfrwt>
<totfact> 0.10343721E+04</totfact>
</mgrwt>
</event>
<event>
 5    1  0.3286491E-002  0.1250021E+03  0.7818608E-02  0.1235066E+00
         -4   -1    0    0    0  501 -0.00000000000E+00  0.00000000000E+00  0.49287611417E+02  0.49303970826E+02  0.12700000000E+01 0.  1.
          4   -1    0    0  501    0  0.00000000000E+00 -0.00000000000E+00 -0.79222255366E+02  0.79232434302E+02  0.12700000000E+01 0.  1.
         25    2    1    2    0    0  0.00000000000E+00  0.00000000000E+00 -0.29934643950E+02  0.12853640513E+03  0.12500209812E+03 0.  0.
    9000005    1    3    3    0    0  0.56525125281E+02 -0.22074787879E+02  0.38791393527E+00  0.60692145498E+02  0.10000000000E+01 0.  0.
    9000005    1    3    3    0    0 -0.56525125281E+02  0.22074787879E+02 -0.30322557885E+02  0.67844259629E+02  0.10000000000E+01 0.  0.
<mgrwt>
<rscale>  0 0.12500210E+03</rscale>
<asrwt>0</asrwt>
<pdfrwt beam="2">  1        4 0.12190081E-01 0.12500210E+03</pdfrwt>
<pdfrwt beam="1">  1       -4 0.75847509E-02 0.12500210E+03</pdfrwt>
<totfact> 0.10375428E+04</totfact>
</mgrwt>
</event>
<event>
 5    1  0.3286491E-002  0.1250000E+03  0.7818608E-02  0.1235069E+00
         -4   -1    0    0    0  501 -0.00000000000E+00  0.00000000000E+00  0.13858284096E+03  0.13858866010E+03  0.12700000000E+01 0. -1.
          4   -1    0    0  501    0  0.00000000000E+00 -0.00000000000E+00 -0.28166385318E+02  0.28195002427E+02  0.12700000000E+01 0. -1.
         25    2    1    2    0    0  0.00000000000E+00  0.00000000000E+00  0.11041645564E+03  0.16678366253E+03  0.12499998564E+03 0.  0.
    9000005    1    3    3    0    0  0.43940858489E+02  0.17412239363E+02  0.66183072713E+00  0.47280261678E+02  0.10000000000E+01 0.  0.
    9000005    1    3    3    0    0 -0.43940858489E+02 -0.17412239363E+02  0.10975462491E+03  0.11950340085E+03  0.10000000000E+01 0.  0.
<mgrwt>
<rscale>  0 0.12499999E+03</rscale>
<asrwt>0</asrwt>
<pdfrwt beam="2">  1        4 0.43359389E-02 0.12499999E+03</pdfrwt>
<pdfrwt beam="1">  1       -4 0.21323086E-01 0.12499999E+03</pdfrwt>
<totfact> 0.96050688E+03</totfact>
</mgrwt>
</event>
<event>
 5    1  0.3286491E-002  0.1250010E+03  0.7818608E-02  0.1235068E+00
         -4   -1    0    0    0  501 -0.00000000000E+00  0.00000000000E+00  0.11825282965E+04  0.11825289784E+04  0.12700000000E+01 0.  1.
          4   -1    0    0  501    0  0.00000000000E+00 -0.00000000000E+00 -0.31805811875E+01  0.34247622823E+01  0.12700000000E+01 0.  1.
         25    2    1    2    0    0  0.00000000000E+00  0.00000000000E+00  0.11793477153E+04  0.11859537407E+04  0.12500096637E+03 0.  0.
    9000005    1    3    3    0    0  0.39455608362E+02 -0.25914622066E+02  0.97820033111E+03  0.97933916517E+03  0.10000000000E+01 0.  0.
    9000005    1    3    3    0    0 -0.39455608362E+02  0.25914622066E+02  0.20114738416E+03  0.20661457553E+03  0.10000000000E+01 0.  0.
<mgrwt>
<rscale>  0 0.12500097E+03</rscale>
<asrwt>0</asrwt>
<pdfrwt beam="2">  1        4 0.50815574E-03 0.12500097E+03</pdfrwt>
<pdfrwt beam="1">  1       -4 0.18194629E+00 0.12500097E+03</pdfrwt>
<totfact> 0.25082863E+03</totfact>
</mgrwt>
</event>
<event>
 5    1  0.3286491E-002  0.1249994E+03  0.7818608E-02  0.1235070E+00
         -4   -1    0    0    0  501 -0.00000000000E+00  0.00000000000E+00  0.10677433350E+03  0.10678188608E+03  0.12700000000E+01 0.  1.
          4   -1    0    0  501    0  0.00000000000E+00 -0.00000000000E+00 -0.36563941295E+02  0.36585990529E+02  0.12700000000E+01 0.  1.
         25    2    1    2    0    0  0.00000000000E+00  0.00000000000E+00  0.70210392204E+02  0.14336787661E+03  0.12499939547E+03 0.  0.
    9000005    1    3    3    0    0 -0.45407370998E+02 -0.18982351038E+02 -0.90642862193E+01  0.50053174490E+02  0.10000000000E+01 0.  0.
    9000005    1    3    3    0    0  0.45407370998E+02  0.18982351038E+02  0.79274678423E+02  0.93314702115E+02  0.10000000000E+01 0.  0.
<mgrwt>
<rscale>  0 0.12499940E+03</rscale>
<asrwt>0</asrwt>
<pdfrwt beam="2">  1        4 0.56274989E-02 0.12499940E+03</pdfrwt>
<pdfrwt beam="1">  1       -4 0.16429097E-01 0.12499940E+03</pdfrwt>
<totfact> 0.10064392E+04</totfact>
</mgrwt>
</event>
<event>
 5    1  0.3286491E-002  0.1249977E+03  0.7818608E-02  0.1235073E+00
          4   -1    0    0  501    0  0.00000000000E+00  0.00000000000E+00  0.69831634225E+02  0.69843181762E+02  0.12700000000E+01 0. -1.
         -4   -1    0    0    0  501 -0.00000000000E+00 -0.00000000000E+00 -0.55912667248E+02  0.55927088775E+02  0.12700000000E+01 0. -1.
         25    2    1    2    0    0  0.00000000000E+00  0.00000000000E+00  0.13918966977E+02  0.12577027054E+03  0.12499769322E+03 0.  0.
    9000005    1    3    3    0    0 -0.54055858497E+02 -0.31347541718E+02  0.63218334256E+01  0.62814566682E+02  0.10000000000E+01 0.  0.
    9000005    1    3    3    0    0  0.54055858497E+02  0.31347541718E+02  0.75971335512E+01  0.62955703854E+02  0.10000000000E+01 0.  0.
<mgrwt>
<rscale>  0 0.12499769E+03</rscale>
<asrwt>0</asrwt>
<pdfrwt beam="1">  1        4 0.10745326E-01 0.12499769E+03</pdfrwt>
<pdfrwt beam="2">  1       -4 0.86039464E-02 0.12499769E+03</pdfrwt>
<totfact> 0.10436542E+04</totfact>
</mgrwt>
</event>
<event>
 5    1  0.3286491E-002  0.1250024E+03  0.7818608E-02  0.1235065E+00
          4   -1    0    0  501    0  0.00000000000E+00  0.00000000000E+00  0.12769171944E+03  0.12769803489E+03  0.12700000000E+01 0.  1.
         -4   -1    0    0    0  501 -0.00000000000E+00 -0.00000000000E+00 -0.30572187898E+02  0.30598555078E+02  0.12700000000E+01 0.  1.
         25    2    1    2    0    0  0.00000000000E+00  0.00000000000E+00  0.97119531543E+02  0.15829658996E+03  0.12500242792E+03 0.  0.
    9000005    1    3    3    0    0 -0.29049068310E+02 -0.44077660290E+02  0.62040037008E+01  0.53161811183E+02  0.10000000000E+01 0.  0.
    9000005    1    3    3    0    0  0.29049068310E+02  0.44077660290E+02  0.90915527842E+02  0.10513477878E+03  0.10000000000E+01 0.  0.
<mgrwt>
<rscale>  0 0.12500243E+03</rscale>
<asrwt>0</asrwt>
<pdfrwt beam="1">  1        4 0.19647394E-01 0.12500243E+03</pdfrwt>
<pdfrwt beam="2">  1       -4 0.47059276E-02 0.12500243E+03</pdfrwt>
<totfact> 0.97666866E+03</totfact>
</mgrwt>
</event>
<event>
 5    1  0.3286491E-002  0.1250000E+03  0.7818608E-02  0.1235069E+00
         -4   -1    0    0    0  501 -0.00000000000E+00  0.00000000000E+00  0.13112044081E+04  0.13112050231E+04  0.12700000000E+01 0.  1.
          4   -1    0    0  501    0  0.00000000000E+00 -0.00000000000E+00 -0.28431367394E+01  0.31138925028E+01  0.12700000000E+01 0.  1.
         25    2    1    2    0    0  0.00000000000E+00  0.00000000000E+00  0.13083612713E+04  0.13143189156E+04  0.12499998253E+03 0.  0.
    9000005    1    3    3    0    0  0.40173784665E+02  0.16476486219E+02  0.11267324488E+04  0.11275692523E+04  0.10000000000E+01 0.  0.
    9000005    1    3    3    0    0 -0.40173784665E+02 -0.16476486219E+02  0.18162882254E+03  0.18674966332E+03  0.10000000000E+01 0.  0.
<mgrwt>
<rscale>  0 0.12499998E+03</rscale>
<asrwt>0</asrwt>
<pdfrwt beam="2">  1        4 0.45828050E-03 0.12499998E+03</pdfrwt>
<pdfrwt beam="1">  1       -4 0.20174455E+00 0.12499998E+03</pdfrwt>
<totfact> 0.21893089E+03</totfact>
</mgrwt>
</event>
<event>
 5    1  0.3286491E-002  0.1249913E+03  0.7818608E-02  0.1235083E+00
          4   -1    0    0  501    0  0.00000000000E+00  0.00000000000E+00  0.16564255615E+03  0.16564742470E+03  0.12700000000E+01 0. -1.
         -4   -1    0    0    0  501 -0.00000000000E+00 -0.00000000000E+00 -0.23556815459E+02  0.23591024873E+02  0.12700000000E+01 0. -1.
         25    2    1    2    0    0  0.00000000000E+00  0.00000000000E+00  0.14208574069E+03  0.18923844957E+03  0.12499133205E+03 0.  0.
    9000005    1    3    3    0    0 -0.36767008298E+02 -0.26976506719E+01  0.14743104035E+03  0.15197368811E+03  0.10000000000E+01 0.  0.
    9000005    1    3    3    0    0  0.36767008298E+02  0.26976506719E+01 -0.53452996567E+01  0.37264761462E+02  0.10000000000E+01 0.  0.
<mgrwt>
<rscale>  0 0.12499133E+03</rscale>
<asrwt>0</asrwt>
<pdfrwt beam="1">  1        4 0.25486476E-01 0.12499133E+03</pdfrwt>
<pdfrwt beam="2">  1       -4 0.36271315E-02 0.12499133E+03</pdfrwt>
<totfact> 0.91997853E+03</totfact>
</mgrwt>
</event>
<event>
 5    1  0.3286491E-002  0.1249980E+03  0.7818608E-02  0.1235072E+00
          4   -1    0    0  501    0  0.00000000000E+00  0.00000000000E+00  0.35438207184E+02  0.35460956394E+02  0.12700000000E+01 0. -1.
         -4   -1    0    0    0  501 -0.00000000000E+00 -0.00000000000E+00 -0.11016174929E+03  0.11016906965E+03  0.12700000000E+01 0. -1.
         25    2    1    2    0    0  0.00000000000E+00  0.00000000000E+00 -0.74723542111E+02  0.14563002604E+03  0.12499798694E+03 0.  0.
    9000005    1    3    3    0    0  0.37759954807E+02  0.90890423593E+01 -0.94398509545E+02  0.10208086737E+03  0.10000000000E+01 0.  0.
    9000005    1    3    3    0    0 -0.37759954807E+02 -0.90890423593E+01  0.19674967434E+02  0.43549158678E+02  0.10000000000E+01 0.  0.
<mgrwt>
<rscale>  0 0.12499799E+03</rscale>
<asrwt>0</asrwt>
<pdfrwt beam="1">  1        4 0.54543450E-02 0.12499799E+03</pdfrwt>
<pdfrwt beam="2">  1       -4 0.16950274E-01 0.12499799E+03</pdfrwt>
<totfact> 0.10018658E+04</totfact>
</mgrwt>
</event>
<event>
 5    1  0.3286491E-002  0.1250003E+03  0.7818608E-02  0.1235069E+00
          4   -1    0    0  501    0  0.00000000000E+00  0.00000000000E+00  0.14630419201E+03  0.14630970405E+03  0.12700000000E+01 0. -1.
         -4   -1    0    0    0  501 -0.00000000000E+00 -0.00000000000E+00 -0.26678495346E+02  0.26708706706E+02  0.12700000000E+01 0. -1.
         25    2    1    2    0    0  0.00000000000E+00  0.00000000000E+00  0.11962569667E+03  0.17301841076E+03  0.12500025264E+03 0.  0.
    9000005    1    3    3    0    0  0.53894605180E+02 -0.74934756648E+01  0.17274659623E+02  0.57098113017E+02  0.10000000000E+01 0.  0.
    9000005    1    3    3    0    0 -0.53894605180E+02  0.74934756648E+01  0.10235103704E+03  0.11592029774E+03  0.10000000000E+01 0.  0.
<mgrwt>
<rscale>  0 0.12500025E+03</rscale>
<asrwt>0</asrwt>
<pdfrwt beam="1">  1        4 0.22511085E-01 0.12500025E+03</pdfrwt>
<pdfrwt beam="2">  1       -4 0.41071319E-02 0.12500025E+03</pdfrwt>
<totfact> 0.94888484E+03</totfact>
</mgrwt>
</event>
<event>
 5    1  0.3286491E-002  0.1250011E+03  0.7818608E-02  0.1235068E+00
         -4   -1    0    0    0  501 -0.00000000000E+00  0.00000000000E+00  0.39368755957E+02  0.39389235148E+02  0.12700000000E+01 0. -1.
          4   -1    0    0  501    0  0.00000000000E+00 -0.00000000000E+00 -0.99173482481E+02  0.99181613858E+02  0.12700000000E+01 0. -1.
         25    2    1    2    0    0  0.00000000000E+00  0.00000000000E+00 -0.59804726525E+02  0.13857084901E+03  0.12500109951E+03 0.  0.
    9000005    1    3    3    0    0 -0.18778773098E+02 -0.51106808069E+02  0.40992799746E+01  0.54610916915E+02  0.10000000000E+01 0.  0.
    9000005    1    3    3    0    0  0.18778773098E+02  0.51106808069E+02 -0.63904006499E+02  0.83959932091E+02  0.10000000000E+01 0.  0.
<mgrwt>
<rscale>  0 0.12500110E+03</rscale>
<asrwt>0</asrwt>
<pdfrwt beam="2">  1        4 0.15259660E-01 0.12500110E+03</pdfrwt>
<pdfrwt beam="1">  1       -4 0.60589325E-02 0.12500110E+03</pdfrwt>
<totfact> 0.10163040E+04</totfact>
</mgrwt>
</event>
<event>
 5    1  0.3286491E-002  0.1250023E+03  0.7818608E-02  0.1235066E+00
          4   -1    0    0  501    0  0.00000000000E+00  0.00000000000E+00  0.12096555716E+04  0.12096562383E+04  0.12700000000E+01 0. -1.
         -4   -1    0    0    0  501 -0.00000000000E+00 -0.00000000000E+00 -0.31037877501E+01  0.33535650281E+01  0.12700000000E+01 0. -1.
         25    2    1    2    0    0  0.00000000000E+00  0.00000000000E+00  0.12065517838E+04  0.12130098033E+04  0.12500230319E+03 0.  0.
    9000005    1    3    3    0    0 -0.40782224242E+02 -0.33453236275E+02  0.92847746087E+03  0.92997510944E+03  0.10000000000E+01 0.  0.
    9000005    1    3    3    0    0  0.40782224242E+02  0.33453236275E+02  0.27807432296E+03  0.28303469384E+03  0.10000000000E+01 0.  0.
<mgrwt>
<rscale>  0 0.12500230E+03</rscale>
<asrwt>0</asrwt>
<pdfrwt beam="1">  1        4 0.18612018E+00 0.12500230E+03</pdfrwt>
<pdfrwt beam="2">  1       -4 0.49677056E-03 0.12500230E+03</pdfrwt>
<totfact> 0.24373504E+03</totfact>
</mgrwt>
</event>
<event>
 5    1  0.3286491E-002  0.1249993E+03  0.7818608E-02  0.1235070E+00
         -4   -1    0    0    0  501 -0.00000000000E+00  0.00000000000E+00  0.14133151649E+04  0.14133157355E+04  0.12700000000E+01 0.  1.
          4   -1    0    0  501    0  0.00000000000E+00 -0.00000000000E+00 -0.26173673876E+01  0.29092115842E+01  0.12700000000E+01 0.  1.
         25    2    1    2    0    0  0.00000000000E+00  0.00000000000E+00  0.14106977975E+04  0.14162249471E+04  0.12499929944E+03 0.  0.
    9000005    1    3    3    0    0 -0.23259012050E+02  0.23351754644E+02  0.13068910251E+04  0.13073069409E+04  0.10000000000E+01 0.  0.
    9000005    1    3    3    0    0  0.23259012050E+02 -0.23351754644E+02  0.10380677236E+03  0.10891800620E+03  0.10000000000E+01 0.  0.
<mgrwt>
<rscale>  0 0.12499930E+03</rscale>
<asrwt>0</asrwt>
<pdfrwt beam="2">  1        4 0.42516432E-03 0.12499930E+03</pdfrwt>
<pdfrwt beam="1">  1       -4 0.21745612E+00 0.12499930E+03</pdfrwt>
<totfact> 0.19635630E+03</totfact>
</mgrwt>
</event>
<event>
 5    1  0.3286491E-002  0.1249936E+03  0.7818608E-02  0.1235079E+00
         -4   -1    0    0    0  501 -0.00000000000E+00  0.00000000000E+00  0.16029115864E+01  0.20450490346E+01  0.12700000000E+01 0.  1.
          4   -1    0    0  501    0  0.00000000000E+00 -0.00000000000E+00 -0.21409460832E+04  0.21409464599E+04  0.12700000000E+01 0.  1.
         25    2    1    2    0    0  0.00000000000E+00  0.00000000000E+00 -0.21393431716E+04  0.21429915089E+04  0.12499360522E+03 0.  0.
    9000005    1    3    3    0    0 -0.44292431285E+02  0.96025853215E+01 -0.18072613665E+04  0.18078298249E+04  0.10000000000E+01 0.  0.
    9000005    1    3    3    0    0  0.44292431285E+02 -0.96025853215E+01 -0.33208180512E+03  0.33516168397E+03  0.10000000000E+01 0.  0.
<mgrwt>
<rscale>  0 0.12499361E+03</rscale>
<asrwt>0</asrwt>
<pdfrwt beam="2">  1        4 0.32940835E+00 0.12499361E+03</pdfrwt>
<pdfrwt beam="1">  1       -4 0.28064304E-03 0.12499361E+03</pdfrwt>
<totfact> 0.81097080E+02</totfact>
</mgrwt>
</event>
<event>
 5    1  0.3286491E-002  0.1250002E+03  0.7818608E-02  0.1235069E+00
          4   -1    0    0  501    0  0.00000000000E+00  0.00000000000E+00  0.62533229610E+02  0.62546124624E+02  0.12700000000E+01 0. -1.
         -4   -1    0    0    0  501 -0.00000000000E+00 -0.00000000000E+00 -0.62441174148E+02  0.62454088169E+02  0.12700000000E+01 0. -1.
         25    2    1    2    0    0  0.00000000000E+00  0.00000000000E+00  0.92055462168E-01  0.12500021279E+03  0.12500017890E+03 0.  0.
    9000005    1    3    3    0    0  0.15462296414E+02 -0.54811910391E+02 -0.25680095351E+02  0.62481160587E+02  0.10000000000E+01 0.  0.
    9000005    1    3    3    0    0 -0.15462296414E+02  0.54811910391E+02  0.25772150813E+02  0.62519052205E+02  0.10000000000E+01 0.  0.
<mgrwt>
<rscale>  0 0.12500018E+03</rscale>
<asrwt>0</asrwt>
<pdfrwt beam="1">  1        4 0.96224822E-02 0.12500018E+03</pdfrwt>
<pdfrwt beam="2">  1       -4 0.96083198E-02 0.12500018E+03</pdfrwt>
<totfact> 0.10452816E+04</totfact>
</mgrwt>
</event>
<event>
 5    1  0.3286491E-002  0.1249969E+03  0.7818608E-02  0.1235074E+00
         -4   -1    0    0    0  501 -0.00000000000E+00  0.00000000000E+00  0.75564845158E+01  0.76624642406E+01  0.12700000000E+01 0.  1.
          4   -1    0    0  501    0  0.00000000000E+00 -0.00000000000E+00 -0.51320833479E+03  0.51320990618E+03  0.12700000000E+01 0.  1.
         25    2    1    2    0    0  0.00000000000E+00  0.00000000000E+00 -0.50565185027E+03  0.52087237042E+03  0.12499693028E+03 0.  0.
    9000005    1    3    3    0    0 -0.10392648973E+02  0.57296720163E+02 -0.15833908186E+03  0.16871036168E+03  0.10000000000E+01 0.  0.
    9000005    1    3    3    0    0  0.10392648973E+02 -0.57296720163E+02 -0.34731276841E+03  0.35216200873E+03  0.10000000000E+01 0.  0.
<mgrwt>
<rscale>  0 0.12499693E+03</rscale>
<asrwt>0</asrwt>
<pdfrwt beam="2">  1        4 0.78963374E-01 0.12499693E+03</pdfrwt>
<pdfrwt beam="1">  1       -4 0.11708096E-02 0.12499693E+03</pdfrwt>
<totfact> 0.54284203E+03</totfact>
</mgrwt>
</event>
<event>
 5    1  0.3286491E-002  0.1249433E+03  0.7818608E-02  0.1235158E+00
         -4   -1    0    0    0  501 -0.00000000000E+00  0.00000000000E+00  0.28418384642E+03  0.28418668419E+03  0.12700000000E+01 0. -1.
          4   -1    0    0  501    0  0.00000000000E+00 -0.00000000000E+00 -0.13700752854E+02  0.13759488681E+02  0.12700000000E+01 0. -1.
         25    2    1    2    0    0  0.00000000000E+00  0.00000000000E+00  0.27048309357E+03  0.29794617287E+03  0.12494325920E+03 0.  0.
    9000005    1    3    3    0    0 -0.34451918855E+02 -0.19692697746E+02  0.25027393455E+03  0.25340240601E+03  0.10000000000E+01 0.  0.
    9000005    1    3    3    0    0  0.34451918855E+02  0.19692697746E+02  0.20209159018E+02  0.44543766854E+02  0.10000000000E+01 0.  0.
<mgrwt>
<rscale>  0 0.12494326E+03</rscale>
<asrwt>0</asrwt>
<pdfrwt beam="2">  1        4 0.21125446E-02 0.12494326E+03</pdfrwt>
<pdfrwt beam="1">  1       -4 0.43725327E-01 0.12494326E+03</pdfrwt>
<totfact> 0.75952832E+03</totfact>
</mgrwt>
</event>
<event>
 5    1  0.3286491E-002  0.1250009E+03  0.7818608E-02  0.1235068E+00
         -4   -1    0    0    0  501 -0.00000000000E+00  0.00000000000E+00  0.37385501837E+02  0.37407066814E+02  0.12700000000E+01 0. -1.
          4   -1    0    0  501    0  0.00000000000E+00 -0.00000000000E+00 -0.10443167918E+03  0.10443940117E+03  0.12700000000E+01 0. -1.
         25    2    1    2    0    0  0.00000000000E+00  0.00000000000E+00 -0.67046177342E+02  0.14184646798E+03  0.12500092233E+03 0.  0.
    9000005    1    3    3    0    0 -0.30417461557E+02 -0.46990718180E+02 -0.65051505834E+02  0.85825683650E+02  0.10000000000E+01 0.  0.
    9000005    1    3    3    0    0  0.30417461557E+02  0.46990718180E+02 -0.19946715074E+01  0.56020784331E+02  0.10000000000E+01 0.  0.
<mgrwt>
<rscale>  0 0.12500092E+03</rscale>
<asrwt>0</asrwt>
<pdfrwt beam="2">  1        4 0.16068665E-01 0.12500092E+03</pdfrwt>
<pdfrwt beam="1">  1       -4 0.57538685E-02 0.12500092E+03</pdfrwt>
<totfact> 0.10095249E+04</totfact>
</mgrwt>
</event>
<event>
 5    1  0.3286491E-002  0.1250040E+03  0.7818608E-02  0.1235063E+00
         -4   -1    0    0    0  501 -0.00000000000E+00  0.00000000000E+00  0.11025396605E+03  0.11026128029E+03  0.12700000000E+01 0.  1.
          4   -1    0    0  501    0  0.00000000000E+00 -0.00000000000E+00 -0.35411987484E+02  0.35434753528E+02  0.12700000000E+01 0.  1.
         25    2    1    2    0    0  0.00000000000E+00  0.00000000000E+00  0.74841978568E+02  0.14569603381E+03  0.12500404999E+03 0.  0.
    9000005    1    3    3    0    0 -0.45474350531E+02 -0.42235357935E+02  0.45966888522E+02  0.77237923694E+02  0.10000000000E+01 0.  0.
    9000005    1    3    3    0    0  0.45474350531E+02  0.42235357935E+02  0.28875090045E+02  0.68458110120E+02  0.10000000000E+01 0.  0.
<mgrwt>
<rscale>  0 0.12500405E+03</rscale>
<asrwt>0</asrwt>
<pdfrwt beam="2">  1        4 0.54503120E-02 0.12500405E+03</pdfrwt>
<pdfrwt beam="1">  1       -4 0.16964462E-01 0.12500405E+03</pdfrwt>
<totfact> 0.10015952E+04</totfact>
</mgrwt>
</event>
<event>
 5    1  0.3286491E-002  0.1249979E+03  0.7818608E-02  0.1235073E+00
         -4   -1    0    0    0  501 -0.00000000000E+00  0.00000000000E+00  0.17854050276E+02  0.17899162306E+02  0.12700000000E+01 0.  1.
          4   -1    0    0  501    0  0.00000000000E+00 -0.00000000000E+00 -0.21845744929E+03  0.21846114083E+03  0.12700000000E+01 0.  1.
         25    2    1    2    0    0  0.00000000000E+00  0.00000000000E+00 -0.20060339902E+03  0.23636030313E+03  0.12499787678E+03 0.  0.
    9000005    1    3    3    0    0  0.47817167442E+02  0.33625831012E+02 -0.14207076854E+03  0.15363033973E+03  0.10000000000E+01 0.  0.
    9000005    1    3    3    0    0 -0.47817167442E+02 -0.33625831012E+02 -0.58532630478E+02  0.82729963400E+02  0.10000000000E+01 0.  0.
<mgrwt>
<rscale>  0 0.12499788E+03</rscale>
<asrwt>0</asrwt>
<pdfrwt beam="2">  1        4 0.33612591E-01 0.12499788E+03</pdfrwt>
<pdfrwt beam="1">  1       -4 0.27505312E-02 0.12499788E+03</pdfrwt>
<totfact> 0.84346433E+03</totfact>
</mgrwt>
</event>
<event>
 5    1  0.3286491E-002  0.1250543E+03  0.7818608E-02  0.1234985E+00
          4   -1    0    0  501    0  0.00000000000E+00  0.00000000000E+00  0.12748666612E+02  0.12811768043E+02  0.12700000000E+01 0.  1.
         -4   -1    0    0    0  501 -0.00000000000E+00 -0.00000000000E+00 -0.30584914946E+03  0.30585178620E+03  0.12700000000E+01 0.  1.
         25    2    1    2    0    0  0.00000000000E+00  0.00000000000E+00 -0.29310048284E+03  0.31866355424E+03  0.12505425927E+03 0.  0.
    9000005    1    3    3    0    0 -0.42094547371E+02 -0.62200129724E+01 -0.29832492147E+02  0.51977082137E+02  0.10000000000E+01 0.  0.
    9000005    1    3    3    0    0  0.42094547371E+02  0.62200129724E+01 -0.26326799070E+03  0.26668647211E+03  0.10000000000E+01 0.  0.
<mgrwt>
<rscale>  0 0.12505426E+03</rscale>
<asrwt>0</asrwt>
<pdfrwt beam="1">  1        4 0.19663903E-02 0.12505426E+03</pdfrwt>
<pdfrwt beam="2">  1       -4 0.47058767E-01 0.12505426E+03</pdfrwt>
<totfact> 0.73227243E+03</totfact>
</mgrwt>
</event>
<event>
 5    1  0.3286491E-002  0.1249958E+03  0.7818608E-02  0.1235076E+00
         -4   -1    0    0    0  501 -0.00000000000E+00  0.00000000000E+00  0.10307864499E+02  0.10385806206E+02  0.12700000000E+01 0. -1.
          4   -1    0    0  501    0  0.00000000000E+00 -0.00000000000E+00 -0.37742635263E+03  0.37742848933E+03  0.12700000000E+01 0. -1.
         25    2    1    2    0    0  0.00000000000E+00  0.00000000000E+00 -0.36711848813E+03  0.38781429553E+03  0.12499577391E+03 0.  0.
    9000005    1    3    3    0    0  0.60977743828E+02  0.10612016950E+02 -0.21026443948E+03  0.21918721372E+03  0.10000000000E+01 0.  0.
    9000005    1    3    3    0    0 -0.60977743828E+02 -0.10612016950E+02 -0.15685404864E+03  0.16862708182E+03  0.10000000000E+01 0.  0.
<mgrwt>
<rscale>  0 0.12499577E+03</rscale>
<asrwt>0</asrwt>
<pdfrwt beam="2">  1        4 0.58071742E-01 0.12499577E+03</pdfrwt>
<pdfrwt beam="1">  1       -4 0.15919855E-02 0.12499577E+03</pdfrwt>
<totfact> 0.65761609E+03</totfact>
</mgrwt>
</event>
<event>
 5    1  0.3286491E-002  0.1250023E+03  0.7818608E-02  0.1235066E+00
         -4   -1    0    0    0  501 -0.00000000000E+00  0.00000000000E+00  0.13108949475E+02  0.13170324838E+02  0.12700000000E+01 0.  1.
          4   -1    0    0  501    0  0.00000000000E+00 -0.00000000000E+00 -0.29723582119E+03  0.29723853435E+03  0.12700000000E+01 0.  1.
         25    2    1    2    0    0  0.00000000000E+00  0.00000000000E+00 -0.28412687172E+03  0.31040885918E+03  0.12500232249E+03 0.  0.
    9000005    1    3    3    0    0 -0.53173578771E+02  0.10985850795E+02 -0.21889413468E+03  0.22552995498E+03  0.10000000000E+01 0.  0.
    9000005    1    3    3    0    0  0.53173578771E+02 -0.10985850795E+02 -0.65232737036E+02  0.84878904200E+02  0.10000000000E+01 0.  0.
<mgrwt>
<rscale>  0 0.12500232E+03</rscale>
<asrwt>0</asrwt>
<pdfrwt beam="2">  1        4 0.45733513E-01 0.12500232E+03</pdfrwt>
<pdfrwt beam="1">  1       -4 0.20216916E-02 0.12500232E+03</pdfrwt>
<totfact> 0.74307623E+03</totfact>
</mgrwt>
</event>
<event>
 5    1  0.3286491E-002  0.1249993E+03  0.7818608E-02  0.1235070E+00
          4   -1    0    0  501    0  0.00000000000E+00  0.00000000000E+00  0.13446659761E+02  0.13506500610E+02  0.12700000000E+01 0. -1.
         -4   -1    0    0    0  501 -0.00000000000E+00 -0.00000000000E+00 -0.28978998349E+03  0.28979276636E+03  0.12700000000E+01 0. -1.
         25    2    1    2    0    0  0.00000000000E+00  0.00000000000E+00 -0.27634332373E+03  0.30329926697E+03  0.12499925108E+03 0.  0.
    9000005    1    3    3    0    0 -0.12946251322E+02 -0.43383163003E+02 -0.33652888386E+02  0.56420042114E+02  0.10000000000E+01 0.  0.
    9000005    1    3    3    0    0  0.12946251322E+02  0.43383163003E+02 -0.24269043534E+03  0.24687922485E+03  0.10000000000E+01 0.  0.
<mgrwt>
<rscale>  0 0.12499925E+03</rscale>
<asrwt>0</asrwt>
<pdfrwt beam="1">  1        4 0.20735343E-02 0.12499925E+03</pdfrwt>
<pdfrwt beam="2">  1       -4 0.44587887E-01 0.12499925E+03</pdfrwt>
<totfact> 0.75188091E+03</totfact>
</mgrwt>
</event>
<event>
 5    1  0.3286491E-002  0.1249998E+03  0.7818608E-02  0.1235070E+00
          4   -1    0    0  501    0  0.00000000000E+00  0.00000000000E+00  0.64164716310E+03  0.64164841995E+03  0.12700000000E+01 0. -1.
         -4   -1    0    0    0  501 -0.00000000000E+00 -0.00000000000E+00 -0.60203197775E+01  0.61528164465E+01  0.12700000000E+01 0. -1.
         25    2    1    2    0    0  0.00000000000E+00  0.00000000000E+00  0.63562684333E+03  0.64780123639E+03  0.12499983166E+03 0.  0.
    9000005    1    3    3    0    0  0.52138720370E+02  0.34169753955E+02  0.34053418661E+03  0.34619438253E+03  0.10000000000E+01 0.  0.
    9000005    1    3    3    0    0 -0.52138720370E+02 -0.34169753955E+02  0.29509265672E+03  0.30160685386E+03  0.10000000000E+01 0.  0.
<mgrwt>
<rscale>  0 0.12499983E+03</rscale>
<asrwt>0</asrwt>
<pdfrwt beam="1">  1        4 0.98725230E-01 0.12499983E+03</pdfrwt>
<pdfrwt beam="2">  1       -4 0.93649184E-03 0.12499983E+03</pdfrwt>
<totfact> 0.45982913E+03</totfact>
</mgrwt>
</event>
<event>
 5    1  0.3286491E-002  0.1249976E+03  0.7818608E-02  0.1235073E+00
          4   -1    0    0  501    0  0.00000000000E+00  0.00000000000E+00  0.48264562088E+03  0.48264729178E+03  0.12700000000E+01 0.  1.
         -4   -1    0    0    0  501 -0.00000000000E+00 -0.00000000000E+00 -0.80415870466E+01  0.81412543399E+01  0.12700000000E+01 0.  1.
         25    2    1    2    0    0  0.00000000000E+00  0.00000000000E+00  0.47460403384E+03  0.49078854612E+03  0.12499763223E+03 0.  0.
    9000005    1    3    3    0    0  0.17747214420E+02 -0.22669691766E+02  0.19530250917E+02  0.34803868253E+02  0.10000000000E+01 0.  0.
    9000005    1    3    3    0    0 -0.17747214420E+02  0.22669691766E+02  0.45507378292E+03  0.45598467786E+03  0.10000000000E+01 0.  0.
<mgrwt>
<rscale>  0 0.12499763E+03</rscale>
<asrwt>0</asrwt>
<pdfrwt beam="1">  1        4 0.74260968E-01 0.12499763E+03</pdfrwt>
<pdfrwt beam="2">  1       -4 0.12449625E-02 0.12499763E+03</pdfrwt>
<totfact> 0.56589157E+03</totfact>
</mgrwt>
</event>
<event>
 5    1  0.3286491E-002  0.1249998E+03  0.7818608E-02  0.1235070E+00
          4   -1    0    0  501    0  0.00000000000E+00  0.00000000000E+00  0.31701272153E+03  0.31701526542E+03  0.12700000000E+01 0.  1.
         -4   -1    0    0    0  501 -0.00000000000E+00 -0.00000000000E+00 -0.12286687423E+02  0.12352149118E+02  0.12700000000E+01 0.  1.
         25    2    1    2    0    0  0.00000000000E+00  0.00000000000E+00  0.30472603411E+03  0.32936741454E+03  0.12499975160E+03 0.  0.
    9000005    1    3    3    0    0 -0.72444519724E+01  0.61827956301E+02  0.13791731710E+03  0.15131875172E+03  0.10000000000E+01 0.  0.
    9000005    1    3    3    0    0  0.72444519724E+01 -0.61827956301E+02  0.16680871700E+03  0.17804866282E+03  0.10000000000E+01 0.  0.
<mgrwt>
<rscale>  0 0.12499975E+03</rscale>
<asrwt>0</asrwt>
<pdfrwt beam="1">  1        4 0.48776415E-01 0.12499975E+03</pdfrwt>
<pdfrwt beam="2">  1       -4 0.18954910E-02 0.12499975E+03</pdfrwt>
<totfact> 0.72056073E+03</totfact>
</mgrwt>
</event>
<event>
 5    1  0.3286491E-002  0.1249778E+03  0.7818608E-02  0.1235104E+00
          4   -1    0    0  501    0  0.00000000000E+00  0.00000000000E+00  0.17028648078E+03  0.17029121656E+03  0.12700000000E+01 0.  1.
         -4   -1    0    0    0  501 -0.00000000000E+00 -0.00000000000E+00 -0.22908508673E+02  0.22943684744E+02  0.12700000000E+01 0.  1.
         25    2    1    2    0    0  0.00000000000E+00  0.00000000000E+00  0.14737797211E+03  0.19323490130E+03  0.12497783971E+03 0.  0.
    9000005    1    3    3    0    0  0.26385028800E+01  0.34407290193E+02 -0.68452971929E+01  0.35194906017E+02  0.10000000000E+01 0.  0.
    9000005    1    3    3    0    0 -0.26385028800E+01 -0.34407290193E+02  0.15422326930E+03  0.15803999529E+03  0.10000000000E+01 0.  0.
<mgrwt>
<rscale>  0 0.12497784E+03</rscale>
<asrwt>0</asrwt>
<pdfrwt beam="1">  1        4 0.26200989E-01 0.12497784E+03</pdfrwt>
<pdfrwt beam="2">  1       -4 0.35274562E-02 0.12497784E+03</pdfrwt>
<totfact> 0.91332794E+03</totfact>
</mgrwt>
</event>
<event>
 5    1  0.3286491E-002  0.1249993E+03  0.7818608E-02  0.1235070E+00
          4   -1    0    0  501    0  0.00000000000E+00  0.00000000000E+00  0.22588890712E+03  0.22589247721E+03  0.12700000000E+01 0. -1.
         -4   -1    0    0    0  501 -0.00000000000E+00 -0.00000000000E+00 -0.17265565870E+02  0.17312211436E+02  0.12700000000E+01 0. -1.
         25    2    1    2    0    0  0.00000000000E+00  0.00000000000E+00  0.20862334125E+03  0.24320468864E+03  0.12499928826E+03 0.  0.
    9000005    1    3    3    0    0 -0.36179221470E+02  0.19737441463E+02  0.19570959466E+03  0.20000437021E+03  0.10000000000E+01 0.  0.
    9000005    1    3    3    0    0  0.36179221470E+02 -0.19737441463E+02  0.12913746587E+02  0.43200318431E+02  0.10000000000E+01 0.  0.
<mgrwt>
<rscale>  0 0.12499929E+03</rscale>
<asrwt>0</asrwt>
<pdfrwt beam="1">  1        4 0.34756002E-01 0.12499929E+03</pdfrwt>
<pdfrwt beam="2">  1       -4 0.26601037E-02 0.12499929E+03</pdfrwt>
<totfact> 0.83323710E+03</totfact>
</mgrwt>
</event>
<event>
 5    1  0.3286491E-002  0.1249979E+03  0.7818608E-02  0.1235073E+00
         -4   -1    0    0    0  501 -0.00000000000E+00  0.00000000000E+00  0.78872663570E+01  0.79888591542E+01  0.12700000000E+01 0.  1.
          4   -1    0    0  501    0  0.00000000000E+00 -0.00000000000E+00 -0.49197178213E+03  0.49197342135E+03  0.12700000000E+01 0.  1.
         25    2    1    2    0    0  0.00000000000E+00  0.00000000000E+00 -0.48408451578E+03  0.49996228051E+03  0.12499785403E+03 0.  0.
    9000005    1    3    3    0    0 -0.82913422880E+01  0.60502315903E+02 -0.29508093046E+03  0.30133541463E+03  0.10000000000E+01 0.  0.
    9000005    1    3    3    0    0  0.82913422880E+01 -0.60502315903E+02 -0.18900358531E+03  0.19862686588E+03  0.10000000000E+01 0.  0.
<mgrwt>
<rscale>  0 0.12499785E+03</rscale>
<asrwt>0</asrwt>
<pdfrwt beam="2">  1        4 0.75695884E-01 0.12499785E+03</pdfrwt>
<pdfrwt beam="1">  1       -4 0.12213669E-02 0.12499785E+03</pdfrwt>
<totfact> 0.55869940E+03</totfact>
</mgrwt>
</event>
<event>
 5    1  0.3286491E-002  0.1250020E+03  0.7818608E-02  0.1235066E+00
          4   -1    0    0  501    0  0.00000000000E+00  0.00000000000E+00  0.43270882152E+03  0.43271068524E+03  0.12700000000E+01 0.  1.
         -4   -1    0    0    0  501 -0.00000000000E+00 -0.00000000000E+00 -0.89811663033E+01  0.90705153198E+01  0.12700000000E+01 0.  1.
         25    2    1    2    0    0  0.00000000000E+00  0.00000000000E+00  0.42372765522E+03  0.44178120056E+03  0.12500201348E+03 0.  0.
    9000005    1    3    3    0    0 -0.61627529502E+02 -0.59615526364E+01  0.24182814229E+03  0.24963041262E+03  0.10000000000E+01 0.  0.
    9000005    1    3    3    0    0  0.61627529502E+02  0.59615526364E+01  0.18189951293E+03  0.19215078794E+03  0.10000000000E+01 0.  0.
<mgrwt>
<rscale>  0 0.12500201E+03</rscale>
<asrwt>0</asrwt>
<pdfrwt beam="1">  1        4 0.66577579E-01 0.12500201E+03</pdfrwt>
<pdfrwt beam="2">  1       -4 0.13887348E-02 0.12500201E+03</pdfrwt>
<totfact> 0.60679744E+03</totfact>
</mgrwt>
</event>
<event>
 5    1  0.3286491E-002  0.1249984E+03  0.7818608E-02  0.1235072E+00
          4   -1    0    0  501    0  0.00000000000E+00  0.00000000000E+00  0.14040249369E+02  0.14097570796E+02  0.12700000000E+01 0.  1.
         -4   -1    0    0    0  501 -0.00000000000E+00 -0.00000000000E+00 -0.27758516426E+03  0.27758806948E+03  0.12700000000E+01 0.  1.
         25    2    1    2    0    0  0.00000000000E+00  0.00000000000E+00 -0.26354491489E+03  0.29168564028E+03  0.12499836230E+03 0.  0.
    9000005    1    3    3    0    0 -0.47565102679E+02 -0.39323015868E+02 -0.15468481002E+03  0.16654467575E+03  0.10000000000E+01 0.  0.
    9000005    1    3    3    0    0  0.47565102679E+02  0.39323015868E+02 -0.10886010487E+03  0.12514096453E+03  0.10000000000E+01 0.  0.
<mgrwt>
<rscale>  0 0.12499836E+03</rscale>
<asrwt>0</asrwt>
<pdfrwt beam="1">  1        4 0.21646714E-02 0.12499836E+03</pdfrwt>
<pdfrwt beam="2">  1       -4 0.42710039E-01 0.12499836E+03</pdfrwt>
<totfact> 0.76656544E+03</totfact>
</mgrwt>
</event>
<event>
 5    1  0.3286491E-002  0.1249990E+03  0.7818608E-02  0.1235071E+00
          4   -1    0    0  501    0  0.00000000000E+00  0.00000000000E+00  0.10721844592E+02  0.10796798204E+02  0.12700000000E+01 0.  1.
         -4   -1    0    0    0  501 -0.00000000000E+00 -0.00000000000E+00 -0.36297539753E+03  0.36297761930E+03  0.12700000000E+01 0.  1.
         25    2    1    2    0    0  0.00000000000E+00  0.00000000000E+00 -0.35225355294E+03  0.37377441750E+03  0.12499899848E+03 0.  0.
    9000005    1    3    3    0    0 -0.39138472365E+02 -0.11913316509E+02 -0.31737912384E+03  0.32000664896E+03  0.10000000000E+01 0.  0.
    9000005    1    3    3    0    0  0.39138472365E+02  0.11913316509E+02 -0.34874429104E+02  0.53767768548E+02  0.10000000000E+01 0.  0.
<mgrwt>
<rscale>  0 0.12499900E+03</rscale>
<asrwt>0</asrwt>
<pdfrwt beam="1">  1        4 0.16554514E-02 0.12499900E+03</pdfrwt>
<pdfrwt beam="2">  1       -4 0.55848296E-01 0.12499900E+03</pdfrwt>
<totfact> 0.67187394E+03</totfact>
</mgrwt>
</event>
<event>
 5    1  0.3286491E-002  0.1250006E+03  0.7818608E-02  0.1235068E+00
         -4   -1    0    0    0  501 -0.00000000000E+00  0.00000000000E+00  0.59721086485E+03  0.59721221521E+03  0.12700000000E+01 0. -1.
          4   -1    0    0  501    0  0.00000000000E+00 -0.00000000000E+00 -0.64778725101E+01  0.66011917301E+01  0.12700000000E+01 0. -1.
         25    2    1    2    0    0  0.00000000000E+00  0.00000000000E+00  0.59073299234E+03  0.60381340694E+03  0.12500064864E+03 0.  0.
    9000005    1    3    3    0    0  0.43669227841E+02  0.42489812125E+02  0.22827582044E+03  0.23626941358E+03  0.10000000000E+01 0.  0.
    9000005    1    3    3    0    0 -0.43669227841E+02 -0.42489812125E+02  0.36245717190E+03  0.36754399336E+03  0.10000000000E+01 0.  0.
<mgrwt>
<rscale>  0 0.12500065E+03</rscale>
<asrwt>0</asrwt>
<pdfrwt beam="2">  1        4 0.10061856E-02 0.12500065E+03</pdfrwt>
<pdfrwt beam="1">  1       -4 0.91888194E-01 0.12500065E+03</pdfrwt>
<totfact> 0.48627083E+03</totfact>
</mgrwt>
</event>
<event>
 5    1  0.3286491E-002  0.1250022E+03  0.7818608E-02  0.1235066E+00
          4   -1    0    0  501    0  0.00000000000E+00  0.00000000000E+00  0.74114220111E+03  0.74114328922E+03  0.12700000000E+01 0.  1.
         -4   -1    0    0    0  501 -0.00000000000E+00 -0.00000000000E+00 -0.51931554060E+01  0.53461914548E+01  0.12700000000E+01 0.  1.
         25    2    1    2    0    0  0.00000000000E+00  0.00000000000E+00  0.73594904570E+03  0.74648948068E+03  0.12500218756E+03 0.  0.
    9000005    1    3    3    0    0 -0.21210632677E+01  0.16437615301E+02  0.72780738222E+03  0.72799675805E+03  0.10000000000E+01 0.  0.
    9000005    1    3    3    0    0  0.21210632677E+01 -0.16437615301E+02  0.81416634765E+01  0.18492722632E+02  0.10000000000E+01 0.  0.
<mgrwt>
<rscale>  0 0.12500219E+03</rscale>
<asrwt>0</asrwt>
<pdfrwt beam="1">  1        4 0.11403362E+00 0.12500219E+03</pdfrwt>
<pdfrwt beam="2">  1       -4 0.81080346E-03 0.12500219E+03</pdfrwt>
<totfact> 0.40740692E+03</totfact>
</mgrwt>
</event>
<event>
 5    1  0.3286491E-002  0.1250009E+03  0.7818608E-02  0.1235068E+00
          4   -1    0    0  501    0  0.00000000000E+00  0.00000000000E+00  0.28914875284E+02  0.28942752334E+02  0.12700000000E+01 0. -1.
         -4   -1    0    0    0  501 -0.00000000000E+00 -0.00000000000E+00 -0.13500077827E+03  0.13500675181E+03  0.12700000000E+01 0. -1.
         25    2    1    2    0    0  0.00000000000E+00  0.00000000000E+00 -0.10608590299E+03  0.16394950415E+03  0.12500088438E+03 0.  0.
    9000005    1    3    3    0    0 -0.31707882085E+02  0.52528268878E+02 -0.68600408220E+02  0.92041429941E+02  0.10000000000E+01 0.  0.
    9000005    1    3    3    0    0  0.31707882085E+02 -0.52528268878E+02 -0.37485494770E+02  0.71908074205E+02  0.10000000000E+01 0.  0.
<mgrwt>
<rscale>  0 0.12500088E+03</rscale>
<asrwt>0</asrwt>
<pdfrwt beam="1">  1        4 0.44510463E-02 0.12500088E+03</pdfrwt>
<pdfrwt beam="2">  1       -4 0.20771954E-01 0.12500088E+03</pdfrwt>
<totfact> 0.96584791E+03</totfact>
</mgrwt>
</event>
<event>
 5    1  0.3286491E-002  0.1249988E+03  0.7818608E-02  0.1235071E+00
         -4   -1    0    0    0  501 -0.00000000000E+00  0.00000000000E+00  0.76949114870E+02  0.76959594459E+02  0.12700000000E+01 0.  1.
          4   -1    0    0  501    0  0.00000000000E+00 -0.00000000000E+00 -0.50741212939E+02  0.50757103843E+02  0.12700000000E+01 0.  1.
         25    2    1    2    0    0  0.00000000000E+00  0.00000000000E+00  0.26207901931E+02  0.12771669830E+03  0.12499880360E+03 0.  0.
    9000005    1    3    3    0    0  0.13636359467E+02 -0.43486679360E+02 -0.30582402681E+02  0.54893760438E+02  0.10000000000E+01 0.  0.
    9000005    1    3    3    0    0 -0.13636359467E+02  0.43486679360E+02  0.56790304612E+02  0.72822937864E+02  0.10000000000E+01 0.  0.
<mgrwt>
<rscale>  0 0.12499880E+03</rscale>
<asrwt>0</asrwt>
<pdfrwt beam="2">  1        4 0.78083690E-02 0.12499880E+03</pdfrwt>
<pdfrwt beam="1">  1       -4 0.11840354E-01 0.12499880E+03</pdfrwt>
<totfact> 0.10393891E+04</totfact>
</mgrwt>
</event>
<event>
 5    1  0.3286491E-002  0.1249984E+03  0.7818608E-02  0.1235072E+00
         -4   -1    0    0    0  501 -0.00000000000E+00  0.00000000000E+00  0.29418182749E+02  0.29445583307E+02  0.12700000000E+01 0. -1.
          4   -1    0    0  501    0  0.00000000000E+00 -0.00000000000E+00 -0.13268794794E+03  0.13269402559E+03  0.12700000000E+01 0. -1.
         25    2    1    2    0    0  0.00000000000E+00  0.00000000000E+00 -0.10326976519E+03  0.16213960890E+03  0.12499843348E+03 0.  0.
    9000005    1    3    3    0    0 -0.47354390747E+02 -0.40036125771E+02 -0.61667551468E+02  0.87459799873E+02  0.10000000000E+01 0.  0.
    9000005    1    3    3    0    0  0.47354390747E+02  0.40036125771E+02 -0.41602213721E+02  0.74679809026E+02  0.10000000000E+01 0.  0.
<mgrwt>
<rscale>  0 0.12499843E+03</rscale>
<asrwt>0</asrwt>
<pdfrwt beam="2">  1        4 0.20416105E-01 0.12499843E+03</pdfrwt>
<pdfrwt beam="1">  1       -4 0.45284496E-02 0.12499843E+03</pdfrwt>
<totfact> 0.96935277E+03</totfact>
</mgrwt>
</event>
<event>
 5    1  0.3286491E-002  0.1250055E+03  0.7818608E-02  0.1235061E+00
          4   -1    0    0  501    0  0.00000000000E+00  0.00000000000E+00  0.21077420197E+03  0.21077802806E+03  0.12700000000E+01 0. -1.
         -4   -1    0    0    0  501 -0.00000000000E+00 -0.00000000000E+00 -0.18508741053E+02  0.18552261193E+02  0.12700000000E+01 0. -1.
         25    2    1    2    0    0  0.00000000000E+00  0.00000000000E+00  0.19226546091E+03  0.22933028926E+03  0.12500549632E+03 0.  0.
    9000005    1    3    3    0    0 -0.38135071690E+02 -0.16525780445E+02  0.10511389377E+02  0.42882099048E+02  0.10000000000E+01 0.  0.
    9000005    1    3    3    0    0  0.38135071690E+02  0.16525780445E+02  0.18175407154E+03  0.18644819021E+03  0.10000000000E+01 0.  0.
<mgrwt>
<rscale>  0 0.12500550E+03</rscale>
<asrwt>0</asrwt>
<pdfrwt beam="1">  1        4 0.32430444E-01 0.12500550E+03</pdfrwt>
<pdfrwt beam="2">  1       -4 0.28511405E-02 0.12500550E+03</pdfrwt>
<totfact> 0.85402061E+03</totfact>
</mgrwt>
</event>
<event>
 5    1  0.3286491E-002  0.1249992E+03  0.7818608E-02  0.1235071E+00
         -4   -1    0    0    0  501 -0.00000000000E+00  0.00000000000E+00  0.19359162115E+03  0.19359578684E+03  0.12700000000E+01 0.  1.
          4   -1    0    0  501    0  0.00000000000E+00 -0.00000000000E+00 -0.20153146589E+02  0.20193123023E+02  0.12700000000E+01 0.  1.
         25    2    1    2    0    0  0.00000000000E+00  0.00000000000E+00  0.17343847456E+03  0.21378890986E+03  0.12499917408E+03 0.  0.
    9000005    1    3    3    0    0 -0.61189180816E+02  0.20484705283E+01  0.65296718170E+02  0.89515213702E+02  0.10000000000E+01 0.  0.
    9000005    1    3    3    0    0  0.61189180816E+02 -0.20484705283E+01  0.10814175639E+03  0.12427369616E+03  0.10000000000E+01 0.  0.
<mgrwt>
<rscale>  0 0.12499917E+03</rscale>
<asrwt>0</asrwt>
<pdfrwt beam="2">  1        4 0.31038796E-02 0.12499917E+03</pdfrwt>
<pdfrwt beam="1">  1       -4 0.29786722E-01 0.12499917E+03</pdfrwt>
<totfact> 0.87862437E+03</totfact>
</mgrwt>
</event>
<event>
 5    1  0.3286491E-002  0.1250140E+03  0.7818608E-02  0.1235047E+00
          4   -1    0    0  501    0  0.00000000000E+00  0.00000000000E+00  0.19574832759E+04  0.19574836879E+04  0.12700000000E+01 0. -1.
         -4   -1    0    0    0  501 -0.00000000000E+00 -0.00000000000E+00 -0.17935213011E+01  0.21976393374E+01  0.12700000000E+01 0. -1.
         25    2    1    2    0    0  0.00000000000E+00  0.00000000000E+00  0.19556897546E+04  0.19596813272E+04  0.12501395127E+03 0.  0.
    9000005    1    3    3    0    0  0.21820366752E+02  0.54412295141E+02  0.63825848711E+03  0.64094595922E+03  0.10000000000E+01 0.  0.
    9000005    1    3    3    0    0 -0.21820366752E+02 -0.54412295141E+02  0.13174312675E+04  0.13187353680E+04  0.10000000000E+01 0.  0.
<mgrwt>
<rscale>  0 0.12501395E+03</rscale>
<asrwt>0</asrwt>
<pdfrwt beam="1">  1        4 0.30118312E+00 0.12501395E+03</pdfrwt>
<pdfrwt beam="2">  1       -4 0.30704330E-03 0.12501395E+03</pdfrwt>
<totfact> 0.10393508E+03</totfact>
</mgrwt>
</event>
<event>
 5    1  0.3286491E-002  0.1250050E+03  0.7818608E-02  0.1235061E+00
          4   -1    0    0  501    0  0.00000000000E+00  0.00000000000E+00  0.46860179161E+02  0.46877385710E+02  0.12700000000E+01 0. -1.
         -4   -1    0    0    0  501 -0.00000000000E+00 -0.00000000000E+00 -0.83329049269E+02  0.83338726605E+02  0.12700000000E+01 0. -1.
         25    2    1    2    0    0  0.00000000000E+00  0.00000000000E+00 -0.36468870108E+02  0.13021611232E+03  0.12500502958E+03 0.  0.
    9000005    1    3    3    0    0 -0.34748095405E+02 -0.51904525603E+02 -0.20331939123E+02  0.65695491937E+02  0.10000000000E+01 0.  0.
    9000005    1    3    3    0    0  0.34748095405E+02  0.51904525603E+02 -0.16136930985E+02  0.64520620378E+02  0.10000000000E+01 0.  0.
<mgrwt>
<rscale>  0 0.12500503E+03</rscale>
<asrwt>0</asrwt>
<pdfrwt beam="1">  1        4 0.72113263E-02 0.12500503E+03</pdfrwt>
<pdfrwt beam="2">  1       -4 0.12821922E-01 0.12500503E+03</pdfrwt>
<totfact> 0.10338713E+04</totfact>
</mgrwt>
</event>
<event>
 5    1  0.3286491E-002  0.1249995E+03  0.7818608E-02  0.1235070E+00
          4   -1    0    0  501    0  0.00000000000E+00  0.00000000000E+00  0.17687270776E+03  0.17687726720E+03  0.12700000000E+01 0. -1.
         -4   -1    0    0    0  501 -0.00000000000E+00 -0.00000000000E+00 -0.22061821727E+02  0.22098345593E+02  0.12700000000E+01 0. -1.
         25    2    1    2    0    0  0.00000000000E+00  0.00000000000E+00  0.15481088603E+03  0.19897561279E+03  0.12499953620E+03 0.  0.
    9000005    1    3    3    0    0 -0.10609071775E+02  0.60956732913E+02  0.91368565829E+02  0.11035166747E+03  0.10000000000E+01 0.  0.
    9000005    1    3    3    0    0  0.10609071775E+02 -0.60956732913E+02  0.63442320205E+02  0.88623945321E+02  0.10000000000E+01 0.  0.
<mgrwt>
<rscale>  0 0.12499954E+03</rscale>
<asrwt>0</asrwt>
<pdfrwt beam="1">  1        4 0.27214345E-01 0.12499954E+03</pdfrwt>
<pdfrwt beam="2">  1       -4 0.33972868E-02 0.12499954E+03</pdfrwt>
<totfact> 0.90309504E+03</totfact>
</mgrwt>
</event>
<event>
 5    1  0.3286491E-002  0.1249985E+03  0.7818608E-02  0.1235072E+00
          4   -1    0    0  501    0  0.00000000000E+00  0.00000000000E+00  0.78325725089E+03  0.78325828050E+03  0.12700000000E+01 0.  1.
         -4   -1    0    0    0  501 -0.00000000000E+00 -0.00000000000E+00 -0.49051629714E+01  0.50669047530E+01  0.12700000000E+01 0.  1.
         25    2    1    2    0    0  0.00000000000E+00  0.00000000000E+00  0.77835208792E+03  0.78832518526E+03  0.12499849974E+03 0.  0.
    9000005    1    3    3    0    0 -0.59301933536E+02 -0.19149120128E+02  0.41858715129E+03  0.42320162020E+03  0.10000000000E+01 0.  0.
    9000005    1    3    3    0    0  0.59301933536E+02  0.19149120128E+02  0.35976493664E+03  0.36512356505E+03  0.10000000000E+01 0.  0.
<mgrwt>
<rscale>  0 0.12499850E+03</rscale>
<asrwt>0</asrwt>
<pdfrwt beam="1">  1        4 0.12051365E+00 0.12499850E+03</pdfrwt>
<pdfrwt beam="2">  1       -4 0.76716122E-03 0.12499850E+03</pdfrwt>
<totfact> 0.38792531E+03</totfact>
</mgrwt>
</event>
<event>
 5    1  0.3286491E-002  0.1249982E+03  0.7818608E-02  0.1235072E+00
         -4   -1    0    0    0  501 -0.00000000000E+00  0.00000000000E+00  0.10182231236E+03  0.10183023223E+03  0.12700000000E+01 0. -1.
          4   -1    0    0  501    0  0.00000000000E+00 -0.00000000000E+00 -0.38342339655E+02  0.38363366774E+02  0.12700000000E+01 0. -1.
         25    2    1    2    0    0  0.00000000000E+00  0.00000000000E+00  0.63479972709E+02  0.14019359900E+03  0.12499815305E+03 0.  0.
    9000005    1    3    3    0    0  0.35771836593E+02  0.50738299436E+02  0.39760178126E+02  0.73728360131E+02  0.10000000000E+01 0.  0.
    9000005    1    3    3    0    0 -0.35771836593E+02 -0.50738299436E+02  0.23719794583E+02  0.66465238870E+02  0.10000000000E+01 0.  0.
<mgrwt>
<rscale>  0 0.12499815E+03</rscale>
<asrwt>0</asrwt>
<pdfrwt beam="2">  1        4 0.59010482E-02 0.12499815E+03</pdfrwt>
<pdfrwt beam="1">  1       -4 0.15667198E-01 0.12499815E+03</pdfrwt>
<totfact> 0.10129996E+04</totfact>
</mgrwt>
</event>
<event>
 5    1  0.3286491E-002  0.1249801E+03  0.7818608E-02  0.1235100E+00
          4   -1    0    0  501    0  0.00000000000E+00  0.00000000000E+00  0.23373464721E+01  0.26600918275E+01  0.12700000000E+01 0. -1.
         -4   -1    0    0    0  501 -0.00000000000E+00 -0.00000000000E+00 -0.15624812524E+04  0.15624817685E+04  0.12700000000E+01 0. -1.
         25    2    1    2    0    0  0.00000000000E+00  0.00000000000E+00 -0.15601439059E+04  0.15651418603E+04  0.12498014183E+03 0.  0.
    9000005    1    3    3    0    0 -0.92488178515E+01 -0.55221909175E+02 -0.43279302895E+03  0.43640096906E+03  0.10000000000E+01 0.  0.
    9000005    1    3    3    0    0  0.92488178515E+01  0.55221909175E+02 -0.11273508769E+04  0.11287408913E+04  0.10000000000E+01 0.  0.
<mgrwt>
<rscale>  0 0.12498014E+03</rscale>
<asrwt>0</asrwt>
<pdfrwt beam="1">  1        4 0.38445928E-03 0.12498014E+03</pdfrwt>
<pdfrwt beam="2">  1       -4 0.24040582E+00 0.12498014E+03</pdfrwt>
<totfact> 0.16692218E+03</totfact>
</mgrwt>
</event>
<event>
 5    1  0.3286491E-002  0.1250006E+03  0.7818608E-02  0.1235068E+00
          4   -1    0    0  501    0  0.00000000000E+00  0.00000000000E+00  0.96587186146E+03  0.96587269641E+03  0.12700000000E+01 0. -1.
         -4   -1    0    0    0  501 -0.00000000000E+00 -0.00000000000E+00 -0.39437499893E+01  0.41431948999E+01  0.12700000000E+01 0. -1.
         25    2    1    2    0    0  0.00000000000E+00  0.00000000000E+00  0.96192811147E+03  0.97001589131E+03  0.12500055098E+03 0.  0.
    9000005    1    3    3    0    0 -0.61086161861E+02 -0.80229754069E+01  0.39979885099E+03  0.40451947859E+03  0.10000000000E+01 0.  0.
    9000005    1    3    3    0    0  0.61086161861E+02  0.80229754069E+01  0.56212926048E+03  0.56549641271E+03  0.10000000000E+01 0.  0.
<mgrwt>
<rscale>  0 0.12500055E+03</rscale>
<asrwt>0</asrwt>
<pdfrwt beam="1">  1        4 0.14861122E+00 0.12500055E+03</pdfrwt>
<pdfrwt beam="2">  1       -4 0.62213632E-03 0.12500055E+03</pdfrwt>
<totfact> 0.31615406E+03</totfact>
</mgrwt>
</event>
<event>
 5    1  0.3286491E-002  0.1249971E+03  0.7818608E-02  0.1235074E+00
         -4   -1    0    0    0  501 -0.00000000000E+00  0.00000000000E+00  0.17741351595E+03  0.17741806148E+03  0.12700000000E+01 0. -1.
          4   -1    0    0  501    0  0.00000000000E+00 -0.00000000000E+00 -0.21993602856E+02  0.22030239821E+02  0.12700000000E+01 0. -1.
         25    2    1    2    0    0  0.00000000000E+00  0.00000000000E+00  0.15541991309E+03  0.19944830130E+03  0.12499710200E+03 0.  0.
    9000005    1    3    3    0    0 -0.41152193161E+02  0.31962817454E+02  0.13275189132E+03  0.14261552984E+03  0.10000000000E+01 0.  0.
    9000005    1    3    3    0    0  0.41152193161E+02 -0.31962817454E+02  0.22668021768E+02  0.56832771466E+02  0.10000000000E+01 0.  0.
<mgrwt>
<rscale>  0 0.12499710E+03</rscale>
<asrwt>0</asrwt>
<pdfrwt beam="2">  1        4 0.33867992E-02 0.12499710E+03</pdfrwt>
<pdfrwt beam="1">  1       -4 0.27297554E-01 0.12499710E+03</pdfrwt>
<totfact> 0.90234490E+03</totfact>
</mgrwt>
</event>
<event>
 5    1  0.3286491E-002  0.1249999E+03  0.7818608E-02  0.1235069E+00
          4   -1    0    0  501    0  0.00000000000E+00  0.00000000000E+00  0.34463255281E+02  0.34486647628E+02  0.12700000000E+01 0. -1.
         -4   -1    0    0    0  501 -0.00000000000E+00 -0.00000000000E+00 -0.11327983761E+03  0.11328695648E+03  0.12700000000E+01 0. -1.
         25    2    1    2    0    0  0.00000000000E+00  0.00000000000E+00 -0.78816582326E+02  0.14777360411E+03  0.12499993768E+03 0.  0.
    9000005    1    3    3    0    0  0.59466674976E+02 -0.14223224207E+02 -0.24146570689E+02  0.65746805364E+02  0.10000000000E+01 0.  0.
    9000005    1    3    3    0    0 -0.59466674976E+02  0.14223224207E+02 -0.54670011638E+02  0.82026798743E+02  0.10000000000E+01 0.  0.
<mgrwt>
<rscale>  0 0.12499994E+03</rscale>
<asrwt>0</asrwt>
<pdfrwt beam="1">  1        4 0.53043863E-02 0.12499994E+03</pdfrwt>
<pdfrwt beam="2">  1       -4 0.17430014E-01 0.12499994E+03</pdfrwt>
<totfact> 0.99749502E+03</totfact>
</mgrwt>
</event>
<event>
 5    1  0.3286491E-002  0.1250054E+03  0.7818608E-02  0.1235061E+00
         -4   -1    0    0    0  501 -0.00000000000E+00  0.00000000000E+00  0.11907780230E+03  0.11908457457E+03  0.12700000000E+01 0.  1.
          4   -1    0    0  501    0  0.00000000000E+00 -0.00000000000E+00 -0.32786998811E+02  0.32811586231E+02  0.12700000000E+01 0.  1.
         25    2    1    2    0    0  0.00000000000E+00  0.00000000000E+00  0.86290803488E+02  0.15189616080E+03  0.12500536348E+03 0.  0.
    9000005    1    3    3    0    0  0.59028363822E+02  0.19652298357E+02  0.50336663640E+02  0.80033369744E+02  0.10000000000E+01 0.  0.
    9000005    1    3    3    0    0 -0.59028363822E+02 -0.19652298357E+02  0.35954139848E+02  0.71862791056E+02  0.10000000000E+01 0.  0.
<mgrwt>
<rscale>  0 0.12500536E+03</rscale>
<asrwt>0</asrwt>
<pdfrwt beam="2">  1        4 0.50465660E-02 0.12500536E+03</pdfrwt>
<pdfrwt beam="1">  1       -4 0.18322074E-01 0.12500536E+03</pdfrwt>
<totfact> 0.98915124E+03</totfact>
</mgrwt>
</event>
<event>
 5    1  0.3286491E-002  0.1249981E+03  0.7818608E-02  0.1235072E+00
         -4   -1    0    0    0  501 -0.00000000000E+00  0.00000000000E+00  0.12361896351E+04  0.12361902875E+04  0.12700000000E+01 0.  1.
          4   -1    0    0  501    0  0.00000000000E+00 -0.00000000000E+00 -0.30315234439E+01  0.32867969805E+01  0.12700000000E+01 0.  1.
         25    2    1    2    0    0  0.00000000000E+00  0.00000000000E+00  0.12331581117E+04  0.12394770845E+04  0.12499805810E+03 0.  0.
    9000005    1    3    3    0    0  0.62236692911E+02 -0.10875315746E+01  0.67137765874E+03  0.67425777662E+03  0.10000000000E+01 0.  0.
    9000005    1    3    3    0    0 -0.62236692911E+02  0.10875315746E+01  0.56178045293E+03  0.56521930785E+03  0.10000000000E+01 0.  0.
<mgrwt>
<rscale>  0 0.12499806E+03</rscale>
<asrwt>0</asrwt>
<pdfrwt beam="2">  1        4 0.48607436E-03 0.12499806E+03</pdfrwt>
<pdfrwt beam="1">  1       -4 0.19020289E+00 0.12499806E+03</pdfrwt>
<totfact> 0.23703163E+03</totfact>
</mgrwt>
</event>
<event>
 5    1  0.3286491E-002  0.1250008E+03  0.7818608E-02  0.1235068E+00
          4   -1    0    0  501    0  0.00000000000E+00  0.00000000000E+00  0.10510491344E+03  0.10511258597E+03  0.12700000000E+01 0. -1.
         -4   -1    0    0    0  501 -0.00000000000E+00 -0.00000000000E+00 -0.37145821106E+02  0.37167525148E+02  0.12700000000E+01 0. -1.
         25    2    1    2    0    0  0.00000000000E+00  0.00000000000E+00  0.67959092334E+02  0.14228011112E+03  0.12500076715E+03 0.  0.
    9000005    1    3    3    0    0 -0.40274700561E+01 -0.61726893954E+02  0.23871157847E+02  0.66311855118E+02  0.10000000000E+01 0.  0.
    9000005    1    3    3    0    0  0.40274700561E+01  0.61726893954E+02  0.44087934487E+02  0.75968255999E+02  0.10000000000E+01 0.  0.
<mgrwt>
<rscale>  0 0.12500077E+03</rscale>
<asrwt>0</asrwt>
<pdfrwt beam="1">  1        4 0.16172246E-01 0.12500077E+03</pdfrwt>
<pdfrwt beam="2">  1       -4 0.57170015E-02 0.12500077E+03</pdfrwt>
<totfact> 0.10086372E+04</totfact>
</mgrwt>
</event>
<event>
 4    1  0.3286491E-002  0.1249268E+03  0.7818608E-02  0.1235184E+00
          4   -1    0    0  501    0  0.00000000000E+00  0.00000000000E+00  0.13447373543E+02  0.13507211230E+02  0.12700000000E+01 0.  1.
         -4   -1    0    0    0  501 -0.00000000000E+00 -0.00000000000E+00 -0.28943869372E+03  0.28944147997E+03  0.12700000000E+01 0.  1.
    9000005    1    1    2    0    0 -0.34902694388E+02  0.25955842717E+02 -0.29308365146E+02  0.52458403657E+02  0.10000000000E+01 0.  0.
    9000005    1    1    2    0    0  0.34902694388E+02 -0.25955842717E+02 -0.24668295503E+03  0.25049028754E+03  0.10000000000E+01 0.  0.
<mgrwt>
<rscale>  0 0.12492678E+03</rscale>
<asrwt>0</asrwt>
<pdfrwt beam="1">  1        4 0.20736441E-02 0.12492678E+03</pdfrwt>
<pdfrwt beam="2">  1       -4 0.44533842E-01 0.12492678E+03</pdfrwt>
<totfact> 0.75352832E+03</totfact>
</mgrwt>
</event>
<event>
 5    1  0.3286491E-002  0.1250038E+03  0.7818608E-02  0.1235063E+00
          4   -1    0    0  501    0  0.00000000000E+00  0.00000000000E+00  0.13115544696E+03  0.13116159562E+03  0.12700000000E+01 0.  1.
         -4   -1    0    0    0  501 -0.00000000000E+00 -0.00000000000E+00 -0.29764781874E+02  0.29791863655E+02  0.12700000000E+01 0.  1.
         25    2    1    2    0    0  0.00000000000E+00  0.00000000000E+00  0.10139066508E+03  0.16095345928E+03  0.12500379629E+03 0.  0.
    9000005    1    3    3    0    0  0.20977827068E+02 -0.28063755180E+02  0.11732531885E+03  0.12244947541E+03  0.10000000000E+01 0.  0.
    9000005    1    3    3    0    0 -0.20977827068E+02  0.28063755180E+02 -0.15934653770E+02  0.38503983872E+02  0.10000000000E+01 0.  0.
<mgrwt>
<rscale>  0 0.12500380E+03</rscale>
<asrwt>0</asrwt>
<pdfrwt beam="1">  1        4 0.20180317E-01 0.12500380E+03</pdfrwt>
<pdfrwt beam="2">  1       -4 0.45817534E-02 0.12500380E+03</pdfrwt>
<totfact> 0.97150990E+03</totfact>
</mgrwt>
</event>
<event>
 5    1  0.3286491E-002  0.1250030E+03  0.7818608E-02  0.1235065E+00
          4   -1    0    0  501    0  0.00000000000E+00  0.00000000000E+00  0.28671944405E+03  0.28672225671E+03  0.12700000000E+01 0.  1.
         -4   -1    0    0    0  501 -0.00000000000E+00 -0.00000000000E+00 -0.13592118248E+02  0.13651321491E+02  0.12700000000E+01 0.  1.
         25    2    1    2    0    0  0.00000000000E+00  0.00000000000E+00  0.27312732580E+03  0.30037357820E+03  0.12500300150E+03 0.  0.
    9000005    1    3    3    0    0  0.56987663626E+02  0.20326912159E+02  0.17414940736E+03  0.18436321012E+03  0.10000000000E+01 0.  0.
    9000005    1    3    3    0    0 -0.56987663626E+02 -0.20326912159E+02  0.98977918440E+02  0.11601036808E+03  0.10000000000E+01 0.  0.
<mgrwt>
<rscale>  0 0.12500300E+03</rscale>
<asrwt>0</asrwt>
<pdfrwt beam="1">  1        4 0.44115457E-01 0.12500300E+03</pdfrwt>
<pdfrwt beam="2">  1       -4 0.20958654E-02 0.12500300E+03</pdfrwt>
<totfact> 0.75546964E+03</totfact>
</mgrwt>
</event>
<event>
 5    1  0.3286491E-002  0.1250136E+03  0.7818608E-02  0.1235048E+00
         -4   -1    0    0    0  501 -0.00000000000E+00  0.00000000000E+00  0.10026566464E+02  0.10106677746E+02  0.12700000000E+01 0. -1.
          4   -1    0    0  501    0  0.00000000000E+00 -0.00000000000E+00 -0.38804326407E+03  0.38804534231E+03  0.12700000000E+01 0. -1.
         25    2    1    2    0    0  0.00000000000E+00  0.00000000000E+00 -0.37801669761E+03  0.39815202006E+03  0.12501362889E+03 0.  0.
    9000005    1    3    3    0    0 -0.46685261604E+02 -0.41313993302E+02 -0.20315940569E+03  0.21251142044E+03  0.10000000000E+01 0.  0.
    9000005    1    3    3    0    0  0.46685261604E+02  0.41313993302E+02 -0.17485729191E+03  0.18564059962E+03  0.10000000000E+01 0.  0.
<mgrwt>
<rscale>  0 0.12501363E+03</rscale>
<asrwt>0</asrwt>
<pdfrwt beam="2">  1        4 0.59705275E-01 0.12501363E+03</pdfrwt>
<pdfrwt beam="1">  1       -4 0.15488713E-02 0.12501363E+03</pdfrwt>
<totfact> 0.64713450E+03</totfact>
</mgrwt>
</event>
<event>
 5    1  0.3286491E-002  0.1250031E+03  0.7818608E-02  0.1235064E+00
          4   -1    0    0  501    0  0.00000000000E+00  0.00000000000E+00  0.12181511735E+02  0.12247535595E+02  0.12700000000E+01 0. -1.
         -4   -1    0    0    0  501 -0.00000000000E+00 -0.00000000000E+00 -0.31975217598E+03  0.31975469808E+03  0.12700000000E+01 0. -1.
         25    2    1    2    0    0  0.00000000000E+00  0.00000000000E+00 -0.30757066424E+03  0.33200223367E+03  0.12500307861E+03 0.  0.
    9000005    1    3    3    0    0 -0.35046658583E+02  0.49617032830E+02 -0.11481207451E+03  0.12989584550E+03  0.10000000000E+01 0.  0.
    9000005    1    3    3    0    0  0.35046658583E+02 -0.49617032830E+02 -0.19275858973E+03  0.20210638817E+03  0.10000000000E+01 0.  0.
<mgrwt>
<rscale>  0 0.12500308E+03</rscale>
<asrwt>0</asrwt>
<pdfrwt beam="1">  1        4 0.18793517E-02 0.12500308E+03</pdfrwt>
<pdfrwt beam="2">  1       -4 0.49197909E-01 0.12500308E+03</pdfrwt>
<totfact> 0.71746106E+03</totfact>
</mgrwt>
</event>
<event>
 5    1  0.3286491E-002  0.1250030E+03  0.7818608E-02  0.1235065E+00
         -4   -1    0    0    0  501 -0.00000000000E+00  0.00000000000E+00  0.90790052051E+01  0.91674006956E+01  0.12700000000E+01 0.  1.
          4   -1    0    0  501    0  0.00000000000E+00 -0.00000000000E+00 -0.42809740171E+03  0.42809928551E+03  0.12700000000E+01 0.  1.
         25    2    1    2    0    0  0.00000000000E+00  0.00000000000E+00 -0.41901839651E+03  0.43726668620E+03  0.12500295297E+03 0.  0.
    9000005    1    3    3    0    0  0.78879347767E+00  0.21427340357E+02 -0.41484452863E+03  0.41539948970E+03  0.10000000000E+01 0.  0.
    9000005    1    3    3    0    0 -0.78879347767E+00 -0.21427340357E+02 -0.41738678800E+01  0.21867196505E+02  0.10000000000E+01 0.  0.
<mgrwt>
<rscale>  0 0.12500295E+03</rscale>
<asrwt>0</asrwt>
<pdfrwt beam="2">  1        4 0.65868068E-01 0.12500295E+03</pdfrwt>
<pdfrwt beam="1">  1       -4 0.14037149E-02 0.12500295E+03</pdfrwt>
<totfact> 0.61078821E+03</totfact>
</mgrwt>
</event>
<event>
 5    1  0.3286491E-002  0.1249981E+03  0.7818608E-02  0.1235072E+00
         -4   -1    0    0    0  501 -0.00000000000E+00  0.00000000000E+00  0.24577936898E+02  0.24610726973E+02  0.12700000000E+01 0.  1.
          4   -1    0    0  501    0  0.00000000000E+00 -0.00000000000E+00 -0.15878718924E+03  0.15879226796E+03  0.12700000000E+01 0.  1.
         25    2    1    2    0    0  0.00000000000E+00  0.00000000000E+00 -0.13420925234E+03  0.18340299494E+03  0.12499814054E+03 0.  0.
    9000005    1    3    3    0    0 -0.13789910263E+01 -0.35416307160E+01 -0.15862465126E+03  0.15867332715E+03  0.10000000000E+01 0.  0.
    9000005    1    3    3    0    0  0.13789910263E+01  0.35416307160E+01  0.24415398918E+02  0.24729667784E+02  0.10000000000E+01 0.  0.
<mgrwt>
<rscale>  0 0.12499814E+03</rscale>
<asrwt>0</asrwt>
<pdfrwt beam="2">  1        4 0.24431711E-01 0.12499814E+03</pdfrwt>
<pdfrwt beam="1">  1       -4 0.37841341E-02 0.12499814E+03</pdfrwt>
<totfact> 0.93011892E+03</totfact>
</mgrwt>
</event>
<event>
 5    1  0.3286491E-002  0.1249993E+03  0.7818608E-02  0.1235070E+00
          4   -1    0    0  501    0  0.00000000000E+00  0.00000000000E+00  0.24223029291E+03  0.24223362215E+03  0.12700000000E+01 0. -1.
         -4   -1    0    0    0  501 -0.00000000000E+00 -0.00000000000E+00 -0.16097548054E+02  0.16147568032E+02  0.12700000000E+01 0. -1.
         25    2    1    2    0    0  0.00000000000E+00  0.00000000000E+00  0.22613274485E+03  0.25838119019E+03  0.12499928459E+03 0.  0.
    9000005    1    3    3    0    0 -0.29957104290E+02  0.23509060550E+02  0.21548715072E+03  0.21882828006E+03  0.10000000000E+01 0.  0.
    9000005    1    3    3    0    0  0.29957104290E+02 -0.23509060550E+02  0.10645594130E+02  0.39552910130E+02  0.10000000000E+01 0.  0.
<mgrwt>
<rscale>  0 0.12499928E+03</rscale>
<asrwt>0</asrwt>
<pdfrwt beam="1">  1        4 0.37270302E-01 0.12499928E+03</pdfrwt>
<pdfrwt beam="2">  1       -4 0.24806497E-02 0.12499928E+03</pdfrwt>
<totfact> 0.81135068E+03</totfact>
</mgrwt>
</event>
<event>
 5    1  0.3286491E-002  0.1249986E+03  0.7818608E-02  0.1235071E+00
         -4   -1    0    0    0  501 -0.00000000000E+00  0.00000000000E+00  0.13551746161E+02  0.13611125009E+02  0.12700000000E+01 0. -1.
          4   -1    0    0  501    0  0.00000000000E+00 -0.00000000000E+00 -0.28754978388E+03  0.28755258842E+03  0.12700000000E+01 0. -1.
         25    2    1    2    0    0  0.00000000000E+00  0.00000000000E+00 -0.27399803772E+03  0.30116371343E+03  0.12499863045E+03 0.  0.
    9000005    1    3    3    0    0  0.26365663083E+02 -0.21266366030E+02 -0.26352375977E+03  0.26569376823E+03  0.10000000000E+01 0.  0.
    9000005    1    3    3    0    0 -0.26365663083E+02  0.21266366030E+02 -0.10474277947E+02  0.35469945199E+02  0.10000000000E+01 0.  0.
<mgrwt>
<rscale>  0 0.12499863E+03</rscale>
<asrwt>0</asrwt>
<pdfrwt beam="2">  1        4 0.44243207E-01 0.12499863E+03</pdfrwt>
<pdfrwt beam="1">  1       -4 0.20896676E-02 0.12499863E+03</pdfrwt>
<totfact> 0.75455392E+03</totfact>
</mgrwt>
</event>
<event>
 5    1  0.3286491E-002  0.1249966E+03  0.7818608E-02  0.1235075E+00
         -4   -1    0    0    0  501 -0.00000000000E+00  0.00000000000E+00  0.29980967156E+02  0.30007853833E+02  0.12700000000E+01 0.  1.
          4   -1    0    0  501    0  0.00000000000E+00 -0.00000000000E+00 -0.13019543577E+03  0.13020162977E+03  0.12700000000E+01 0.  1.
         25    2    1    2    0    0  0.00000000000E+00  0.00000000000E+00 -0.10021446862E+03  0.16020948361E+03  0.12499655562E+03 0.  0.
    9000005    1    3    3    0    0 -0.26301334512E+01  0.43140879501E+02  0.77401508243E+01  0.43919961531E+02  0.10000000000E+01 0.  0.
    9000005    1    3    3    0    0  0.26301334512E+01 -0.43140879501E+02 -0.10795461944E+03  0.11628952208E+03  0.10000000000E+01 0.  0.
<mgrwt>
<rscale>  0 0.12499656E+03</rscale>
<asrwt>0</asrwt>
<pdfrwt beam="2">  1        4 0.20032611E-01 0.12499656E+03</pdfrwt>
<pdfrwt beam="1">  1       -4 0.46150012E-02 0.12499656E+03</pdfrwt>
<totfact> 0.97309947E+03</totfact>
</mgrwt>
</event>
<event>
 5    1  0.3286491E-002  0.1249984E+03  0.7818608E-02  0.1235072E+00
         -4   -1    0    0    0  501 -0.00000000000E+00  0.00000000000E+00  0.47158011783E+01  0.48838182556E+01  0.12700000000E+01 0. -1.
          4   -1    0    0  501    0  0.00000000000E+00 -0.00000000000E+00 -0.81364563177E+03  0.81364662293E+03  0.12700000000E+01 0. -1.
         25    2    1    2    0    0  0.00000000000E+00  0.00000000000E+00 -0.80892983059E+03  0.81853044118E+03  0.12499844927E+03 0.  0.
    9000005    1    3    3    0    0 -0.36891053703E+02  0.48033072365E+02 -0.50528087751E+03  0.50889870412E+03  0.10000000000E+01 0.  0.
    9000005    1    3    3    0    0  0.36891053703E+02 -0.48033072365E+02 -0.30364895308E+03  0.30963173706E+03  0.10000000000E+01 0.  0.
<mgrwt>
<rscale>  0 0.12499845E+03</rscale>
<asrwt>0</asrwt>
<pdfrwt beam="2">  1        4 0.12518914E+00 0.12499845E+03</pdfrwt>
<pdfrwt beam="1">  1       -4 0.73850916E-03 0.12499845E+03</pdfrwt>
<totfact> 0.37452048E+03</totfact>
</mgrwt>
</event>
<event>
 5    1  0.3286491E-002  0.1250004E+03  0.7818608E-02  0.1235069E+00
         -4   -1    0    0    0  501 -0.00000000000E+00  0.00000000000E+00  0.20340603641E+01  0.23979786415E+01  0.12700000000E+01 0. -1.
          4   -1    0    0  501    0  0.00000000000E+00 -0.00000000000E+00 -0.17623801926E+04  0.17623806502E+04  0.12700000000E+01 0. -1.
         25    2    1    2    0    0  0.00000000000E+00  0.00000000000E+00 -0.17603461323E+04  0.17647786289E+04  0.12500041403E+03 0.  0.
    9000005    1    3    3    0    0 -0.56393141042E+02  0.25473775997E+02 -0.75695096831E+03  0.75947670671E+03  0.10000000000E+01 0.  0.
    9000005    1    3    3    0    0  0.56393141042E+02 -0.25473775997E+02 -0.10033951639E+04  0.10053019221E+04  0.10000000000E+01 0.  0.
<mgrwt>
<rscale>  0 0.12500041E+03</rscale>
<asrwt>0</asrwt>
<pdfrwt beam="2">  1        4 0.27116232E+00 0.12500041E+03</pdfrwt>
<pdfrwt beam="1">  1       -4 0.34096269E-03 0.12500041E+03</pdfrwt>
<totfact> 0.13254012E+03</totfact>
</mgrwt>
</event>
<event>
 5    1  0.3286491E-002  0.1250026E+03  0.7818608E-02  0.1235065E+00
          4   -1    0    0  501    0  0.00000000000E+00  0.00000000000E+00  0.62173223462E+02  0.62186193128E+02  0.12700000000E+01 0. -1.
         -4   -1    0    0    0  501 -0.00000000000E+00 -0.00000000000E+00 -0.62805137611E+02  0.62817976809E+02  0.12700000000E+01 0. -1.
         25    2    1    2    0    0  0.00000000000E+00  0.00000000000E+00 -0.63191414872E+00  0.12500416994E+03  0.12500257272E+03 0.  0.
    9000005    1    3    3    0    0 -0.52889351304E+02 -0.26354918450E+02  0.20020123099E+02  0.62399283143E+02  0.10000000000E+01 0.  0.
    9000005    1    3    3    0    0  0.52889351304E+02  0.26354918450E+02 -0.20652037248E+02  0.62604886793E+02  0.10000000000E+01 0.  0.
<mgrwt>
<rscale>  0 0.12500257E+03</rscale>
<asrwt>0</asrwt>
<pdfrwt beam="1">  1        4 0.95670966E-02 0.12500257E+03</pdfrwt>
<pdfrwt beam="2">  1       -4 0.96643142E-02 0.12500257E+03</pdfrwt>
<totfact> 0.10452164E+04</totfact>
</mgrwt>
</event>
<event>
 5    1  0.3286491E-002  0.1249986E+03  0.7818608E-02  0.1235072E+00
         -4   -1    0    0    0  501 -0.00000000000E+00  0.00000000000E+00  0.17270568017E+03  0.17271034961E+03  0.12700000000E+01 0. -1.
          4   -1    0    0  501    0  0.00000000000E+00 -0.00000000000E+00 -0.22594637350E+02  0.22630301301E+02  0.12700000000E+01 0. -1.
         25    2    1    2    0    0  0.00000000000E+00  0.00000000000E+00  0.15011104282E+03  0.19534065091E+03  0.12499857888E+03 0.  0.
    9000005    1    3    3    0    0  0.48894420159E+01  0.58283625231E+02  0.10944558172E+03  0.12409763484E+03  0.10000000000E+01 0.  0.
    9000005    1    3    3    0    0 -0.48894420159E+01 -0.58283625231E+02  0.40665461094E+02  0.71243016074E+02  0.10000000000E+01 0.  0.
<mgrwt>
<rscale>  0 0.12499858E+03</rscale>
<asrwt>0</asrwt>
<pdfrwt beam="2">  1        4 0.34792006E-02 0.12499858E+03</pdfrwt>
<pdfrwt beam="1">  1       -4 0.26573208E-01 0.12499858E+03</pdfrwt>
<totfact> 0.90929165E+03</totfact>
</mgrwt>
</event>
<event>
 5    1  0.3286491E-002  0.1250002E+03  0.7818608E-02  0.1235069E+00
         -4   -1    0    0    0  501 -0.00000000000E+00  0.00000000000E+00  0.22630935922E+03  0.22631292268E+03  0.12700000000E+01 0.  1.
          4   -1    0    0  501    0  0.00000000000E+00 -0.00000000000E+00 -0.17233646812E+02  0.17280378539E+02  0.12700000000E+01 0.  1.
         25    2    1    2    0    0  0.00000000000E+00  0.00000000000E+00  0.20907571241E+03  0.24359330122E+03  0.12500017151E+03 0.  0.
    9000005    1    3    3    0    0  0.15820982430E+02 -0.58818353955E+02  0.13177558290E+03  0.14517474469E+03  0.10000000000E+01 0.  0.
    9000005    1    3    3    0    0 -0.15820982430E+02  0.58818353955E+02  0.77300129516E+02  0.98418556534E+02  0.10000000000E+01 0.  0.
<mgrwt>
<rscale>  0 0.12500017E+03</rscale>
<asrwt>0</asrwt>
<pdfrwt beam="2">  1        4 0.26551991E-02 0.12500017E+03</pdfrwt>
<pdfrwt beam="1">  1       -4 0.34820694E-01 0.12500017E+03</pdfrwt>
<totfact> 0.83264783E+03</totfact>
</mgrwt>
</event>
<event>
 5    1  0.3286491E-002  0.1249818E+03  0.7818608E-02  0.1235098E+00
          4   -1    0    0  501    0  0.00000000000E+00  0.00000000000E+00  0.27488500825E+03  0.27488794201E+03  0.12700000000E+01 0.  1.
         -4   -1    0    0    0  501 -0.00000000000E+00 -0.00000000000E+00 -0.14174942498E+02  0.14231721429E+02  0.12700000000E+01 0.  1.
         25    2    1    2    0    0  0.00000000000E+00  0.00000000000E+00  0.26071006575E+03  0.28911966344E+03  0.12498176427E+03 0.  0.
    9000005    1    3    3    0    0  0.40333444753E+02  0.15027497148E+02  0.23513216775E+03  0.23904131180E+03  0.10000000000E+01 0.  0.
    9000005    1    3    3    0    0 -0.40333444753E+02 -0.15027497148E+02  0.25577897999E+02  0.50078351633E+02  0.10000000000E+01 0.  0.
<mgrwt>
<rscale>  0 0.12498176E+03</rscale>
<asrwt>0</asrwt>
<pdfrwt beam="1">  1        4 0.42294591E-01 0.12498176E+03</pdfrwt>
<pdfrwt beam="2">  1       -4 0.21853538E-02 0.12498176E+03</pdfrwt>
<totfact> 0.77015433E+03</totfact>
</mgrwt>
</event>
<event>
 5    1  0.3286491E-002  0.1249999E+03  0.7818608E-02  0.1235070E+00
          4   -1    0    0  501    0  0.00000000000E+00  0.00000000000E+00  0.23056235796E+03  0.23056585568E+03  0.12700000000E+01 0. -1.
         -4   -1    0    0    0  501 -0.00000000000E+00 -0.00000000000E+00 -0.16914800724E+02  0.16962410900E+02  0.12700000000E+01 0. -1.
         25    2    1    2    0    0  0.00000000000E+00  0.00000000000E+00  0.21364755723E+03  0.24752826658E+03  0.12499985618E+03 0.  0.
    9000005    1    3    3    0    0  0.12571618262E+01 -0.59832071951E+02  0.14245599135E+03  0.15451914691E+03  0.10000000000E+01 0.  0.
    9000005    1    3    3    0    0 -0.12571618262E+01  0.59832071951E+02  0.71191565885E+02  0.93009119676E+02  0.10000000000E+01 0.  0.
<mgrwt>
<rscale>  0 0.12499986E+03</rscale>
<asrwt>0</asrwt>
<pdfrwt beam="1">  1        4 0.35475063E-01 0.12499986E+03</pdfrwt>
<pdfrwt beam="2">  1       -4 0.26062085E-02 0.12499986E+03</pdfrwt>
<totfact> 0.82689052E+03</totfact>
</mgrwt>
</event>
<event>
 5    1  0.3286491E-002  0.1250005E+03  0.7818608E-02  0.1235068E+00
         -4   -1    0    0    0  501 -0.00000000000E+00  0.00000000000E+00  0.71433517196E+01  0.72553686185E+01  0.12700000000E+01 0.  1.
          4   -1    0    0  501    0  0.00000000000E+00 -0.00000000000E+00 -0.54247456266E+03  0.54247604927E+03  0.12700000000E+01 0.  1.
         25    2    1    2    0    0  0.00000000000E+00  0.00000000000E+00 -0.53533121094E+03  0.54973141789E+03  0.12500050563E+03 0.  0.
    9000005    1    3    3    0    0  0.39389136877E+02 -0.46972955920E+02 -0.21428689997E+03  0.22288525791E+03  0.10000000000E+01 0.  0.
    9000005    1    3    3    0    0 -0.39389136877E+02  0.46972955920E+02 -0.32104431097E+03  0.32684615999E+03  0.10000000000E+01 0.  0.
<mgrwt>
<rscale>  0 0.12500051E+03</rscale>
<asrwt>0</asrwt>
<pdfrwt beam="2">  1        4 0.83466324E-01 0.12500051E+03</pdfrwt>
<pdfrwt beam="1">  1       -4 0.11077087E-02 0.12500051E+03</pdfrwt>
<totfact> 0.52202089E+03</totfact>
</mgrwt>
</event>
<event>
 5    1  0.3286491E-002  0.1249998E+03  0.7818608E-02  0.1235070E+00
         -4   -1    0    0    0  501 -0.00000000000E+00  0.00000000000E+00  0.12601332311E+03  0.12601972267E+03  0.12700000000E+01 0. -1.
          4   -1    0    0  501    0  0.00000000000E+00 -0.00000000000E+00 -0.30978409736E+02  0.31004431453E+02  0.12700000000E+01 0. -1.
         25    2    1    2    0    0  0.00000000000E+00  0.00000000000E+00  0.95034913376E+02  0.15702415412E+03  0.12499980087E+03 0.  0.
    9000005    1    3    3    0    0  0.55975020851E+02  0.27515197438E+02  0.42660591805E+02  0.75572581949E+02  0.10000000000E+01 0.  0.
    9000005    1    3    3    0    0 -0.55975020851E+02 -0.27515197438E+02  0.52374321571E+02  0.81451572173E+02  0.10000000000E+01 0.  0.
<mgrwt>
<rscale>  0 0.12499980E+03</rscale>
<asrwt>0</asrwt>
<pdfrwt beam="2">  1        4 0.47684033E-02 0.12499980E+03</pdfrwt>
<pdfrwt beam="1">  1       -4 0.19389158E-01 0.12499980E+03</pdfrwt>
<totfact> 0.97920030E+03</totfact>
</mgrwt>
</event>
<event>
 5    1  0.3286491E-002  0.1250007E+03  0.7818608E-02  0.1235068E+00
          4   -1    0    0  501    0  0.00000000000E+00  0.00000000000E+00  0.11556573832E+03  0.11557271638E+03  0.12700000000E+01 0.  1.
         -4   -1    0    0    0  501 -0.00000000000E+00 -0.00000000000E+00 -0.33781558828E+02  0.33805422891E+02  0.12700000000E+01 0.  1.
         25    2    1    2    0    0  0.00000000000E+00  0.00000000000E+00  0.81784179487E+02  0.14937813927E+03  0.12500070591E+03 0.  0.
    9000005    1    3    3    0    0  0.87231502871E+01 -0.21639151389E+02  0.11017170539E+03  0.11261949606E+03  0.10000000000E+01 0.  0.
    9000005    1    3    3    0    0 -0.87231502871E+01  0.21639151389E+02 -0.28387525907E+02  0.36758643213E+02  0.10000000000E+01 0.  0.
<mgrwt>
<rscale>  0 0.12500071E+03</rscale>
<asrwt>0</asrwt>
<pdfrwt beam="1">  1        4 0.17781717E-01 0.12500071E+03</pdfrwt>
<pdfrwt beam="2">  1       -4 0.51995354E-02 0.12500071E+03</pdfrwt>
<totfact> 0.99426221E+03</totfact>
</mgrwt>
</event>
<event>
 5    1  0.3286491E-002  0.1249979E+03  0.7818608E-02  0.1235073E+00
         -4   -1    0    0    0  501 -0.00000000000E+00  0.00000000000E+00  0.98261783837E+02  0.98269990652E+02  0.12700000000E+01 0. -1.
          4   -1    0    0  501    0  0.00000000000E+00 -0.00000000000E+00 -0.39732150920E+02  0.39752442902E+02  0.12700000000E+01 0. -1.
         25    2    1    2    0    0  0.00000000000E+00  0.00000000000E+00  0.58529632917E+02  0.13802243355E+03  0.12499789692E+03 0.  0.
    9000005    1    3    3    0    0  0.14557482280E+02  0.37485748294E+02  0.82082164612E+02  0.91408880110E+02  0.10000000000E+01 0.  0.
    9000005    1    3    3    0    0 -0.14557482280E+02 -0.37485748294E+02 -0.23552531696E+02  0.46613553445E+02  0.10000000000E+01 0.  0.
<mgrwt>
<rscale>  0 0.12499790E+03</rscale>
<asrwt>0</asrwt>
<pdfrwt beam="2">  1        4 0.61148309E-02 0.12499790E+03</pdfrwt>
<pdfrwt beam="1">  1       -4 0.15119389E-01 0.12499790E+03</pdfrwt>
<totfact> 0.10175220E+04</totfact>
</mgrwt>
</event>
<event>
 5    1  0.3286491E-002  0.1250504E+03  0.7818608E-02  0.1234990E+00
         -4   -1    0    0    0  501 -0.00000000000E+00  0.00000000000E+00  0.41658938327E+03  0.41659131911E+03  0.12700000000E+01 0. -1.
          4   -1    0    0  501    0  0.00000000000E+00 -0.00000000000E+00 -0.93393724129E+01  0.94253263640E+01  0.12700000000E+01 0. -1.
         25    2    1    2    0    0  0.00000000000E+00  0.00000000000E+00  0.40725001086E+03  0.42601664547E+03  0.12505043332E+03 0.  0.
    9000005    1    3    3    0    0 -0.19058257857E+02  0.22902357287E+02  0.16387505809E+02  0.34018899283E+02  0.10000000000E+01 0.  0.
    9000005    1    3    3    0    0  0.19058257857E+02 -0.22902357287E+02  0.39086250505E+03  0.39199774619E+03  0.10000000000E+01 0.  0.
<mgrwt>
<rscale>  0 0.12505043E+03</rscale>
<asrwt>0</asrwt>
<pdfrwt beam="2">  1        4 0.14435870E-02 0.12505043E+03</pdfrwt>
<pdfrwt beam="1">  1       -4 0.64097448E-01 0.12505043E+03</pdfrwt>
<totfact> 0.62029702E+03</totfact>
</mgrwt>
</event>
<event>
 5    1  0.3286491E-002  0.1250007E+03  0.7818608E-02  0.1235068E+00
          4   -1    0    0  501    0  0.00000000000E+00  0.00000000000E+00  0.12322892630E+03  0.12323547045E+03  0.12700000000E+01 0. -1.
         -4   -1    0    0    0  501 -0.00000000000E+00 -0.00000000000E+00 -0.31679371051E+02  0.31704817460E+02  0.12700000000E+01 0. -1.
         25    2    1    2    0    0  0.00000000000E+00  0.00000000000E+00  0.91549555247E+02  0.15494028791E+03  0.12500068700E+03 0.  0.
    9000005    1    3    3    0    0 -0.49203116650E+02 -0.13041251652E+02  0.90710795884E+02  0.10402148539E+03  0.10000000000E+01 0.  0.
    9000005    1    3    3    0    0  0.49203116650E+02  0.13041251652E+02  0.83875936334E+00  0.50918802519E+02  0.10000000000E+01 0.  0.
<mgrwt>
<rscale>  0 0.12500069E+03</rscale>
<asrwt>0</asrwt>
<pdfrwt beam="1">  1        4 0.18960757E-01 0.12500069E+03</pdfrwt>
<pdfrwt beam="2">  1       -4 0.48762103E-02 0.12500069E+03</pdfrwt>
<totfact> 0.98325703E+03</totfact>
</mgrwt>
</event>
<event>
 5    1  0.3286491E-002  0.1250045E+03  0.7818608E-02  0.1235062E+00
          4   -1    0    0  501    0  0.00000000000E+00  0.00000000000E+00  0.87596179612E+03  0.87596271676E+03  0.12700000000E+01 0.  1.
         -4   -1    0    0    0  501 -0.00000000000E+00 -0.00000000000E+00 -0.43683469425E+01  0.45492147685E+01  0.12700000000E+01 0.  1.
         25    2    1    2    0    0  0.00000000000E+00  0.00000000000E+00  0.87159344918E+03  0.88051193153E+03  0.12500448361E+03 0.  0.
    9000005    1    3    3    0    0  0.32410485230E+02 -0.48630669913E+02  0.27985097300E+03  0.28588974920E+03  0.10000000000E+01 0.  0.
    9000005    1    3    3    0    0 -0.32410485230E+02  0.48630669913E+02  0.59174247618E+03  0.59462218233E+03  0.10000000000E+01 0.  0.
<mgrwt>
<rscale>  0 0.12500448E+03</rscale>
<asrwt>0</asrwt>
<pdfrwt beam="1">  1        4 0.13477737E+00 0.12500448E+03</pdfrwt>
<pdfrwt beam="2">  1       -4 0.68603693E-03 0.12500448E+03</pdfrwt>
<totfact> 0.34906795E+03</totfact>
</mgrwt>
</event>
<event>
 5    1  0.3286491E-002  0.1249978E+03  0.7818608E-02  0.1235073E+00
          4   -1    0    0  501    0  0.00000000000E+00  0.00000000000E+00  0.35265391541E+03  0.35265620221E+03  0.12700000000E+01 0. -1.
         -4   -1    0    0    0  501 -0.00000000000E+00 -0.00000000000E+00 -0.11037604187E+02  0.11110427813E+02  0.12700000000E+01 0. -1.
         25    2    1    2    0    0  0.00000000000E+00  0.00000000000E+00  0.34161631123E+03  0.36376663002E+03  0.12499782807E+03 0.  0.
    9000005    1    3    3    0    0  0.36919941247E+02  0.49929085717E+02  0.19120407800E+03  0.20103729779E+03  0.10000000000E+01 0.  0.
    9000005    1    3    3    0    0 -0.36919941247E+02 -0.49929085717E+02  0.15041223323E+03  0.16272933223E+03  0.10000000000E+01 0.  0.
<mgrwt>
<rscale>  0 0.12499783E+03</rscale>
<asrwt>0</asrwt>
<pdfrwt beam="1">  1        4 0.54260230E-01 0.12499783E+03</pdfrwt>
<pdfrwt beam="2">  1       -4 0.17038706E-02 0.12499783E+03</pdfrwt>
<totfact> 0.68239418E+03</totfact>
</mgrwt>
</event>
<event>
 5    1  0.3286491E-002  0.1250041E+03  0.7818608E-02  0.1235063E+00
         -4   -1    0    0    0  501 -0.00000000000E+00  0.00000000000E+00  0.41659249848E+02  0.41678603598E+02  0.12700000000E+01 0.  1.
          4   -1    0    0  501    0  0.00000000000E+00 -0.00000000000E+00 -0.93727422784E+02  0.93736026594E+02  0.12700000000E+01 0.  1.
         25    2    1    2    0    0  0.00000000000E+00  0.00000000000E+00 -0.52068172935E+02  0.13541463019E+03  0.12500410968E+03 0.  0.
    9000005    1    3    3    0    0  0.50033487235E+02 -0.43393497456E+01  0.14256513335E+02  0.52215208260E+02  0.10000000000E+01 0.  0.
    9000005    1    3    3    0    0 -0.50033487235E+02  0.43393497456E+01 -0.66324686270E+02  0.83199421933E+02  0.10000000000E+01 0.  0.
<mgrwt>
<rscale>  0 0.12500411E+03</rscale>
<asrwt>0</asrwt>
<pdfrwt beam="2">  1        4 0.14421754E-01 0.12500411E+03</pdfrwt>
<pdfrwt beam="1">  1       -4 0.64112660E-02 0.12500411E+03</pdfrwt>
<totfact> 0.10228391E+04</totfact>
</mgrwt>
</event>
<event>
 5    1  0.3286491E-002  0.1249987E+03  0.7818608E-02  0.1235071E+00
         -4   -1    0    0    0  501 -0.00000000000E+00  0.00000000000E+00  0.37447545255E+03  0.37447760609E+03  0.12700000000E+01 0.  1.
          4   -1    0    0  501    0  0.00000000000E+00 -0.00000000000E+00 -0.10390193067E+02  0.10467521768E+02  0.12700000000E+01 0.  1.
         25    2    1    2    0    0  0.00000000000E+00  0.00000000000E+00  0.36408525949E+03  0.38494512786E+03  0.12499870115E+03 0.  0.
    9000005    1    3    3    0    0 -0.20509327802E+02  0.16623169559E+02  0.76113021887E+01  0.27493530404E+02  0.10000000000E+01 0.  0.
    9000005    1    3    3    0    0  0.20509327802E+02 -0.16623169559E+02  0.35647395730E+03  0.35745159746E+03  0.10000000000E+01 0.  0.
<mgrwt>
<rscale>  0 0.12499870E+03</rscale>
<asrwt>0</asrwt>
<pdfrwt beam="2">  1        4 0.16046055E-02 0.12499870E+03</pdfrwt>
<pdfrwt beam="1">  1       -4 0.57617715E-01 0.12499870E+03</pdfrwt>
<totfact> 0.66045725E+03</totfact>
</mgrwt>
</event>
<event>
 5    1  0.3286491E-002  0.1250034E+03  0.7818608E-02  0.1235064E+00
          4   -1    0    0  501    0  0.00000000000E+00  0.00000000000E+00  0.61769712993E+01  0.63061774818E+01  0.12700000000E+01 0. -1.
         -4   -1    0    0    0  501 -0.00000000000E+00 -0.00000000000E+00 -0.62574759875E+03  0.62574888753E+03  0.12700000000E+01 0. -1.
         25    2    1    2    0    0  0.00000000000E+00  0.00000000000E+00 -0.61957062745E+03  0.63205506501E+03  0.12500337117E+03 0.  0.
    9000005    1    3    3    0    0  0.50847285838E+02 -0.11336992420E+02 -0.13525220954E+03  0.14494182992E+03  0.10000000000E+01 0.  0.
    9000005    1    3    3    0    0 -0.50847285838E+02  0.11336992420E+02 -0.48431841791E+03  0.48711323509E+03  0.10000000000E+01 0.  0.
<mgrwt>
<rscale>  0 0.12500337E+03</rscale>
<asrwt>0</asrwt>
<pdfrwt beam="1">  1        4 0.96034184E-03 0.12500337E+03</pdfrwt>
<pdfrwt beam="2">  1       -4 0.96278850E-01 0.12500337E+03</pdfrwt>
<totfact> 0.46901318E+03</totfact>
</mgrwt>
</event>
<event>
 5    1  0.3286491E-002  0.1250071E+03  0.7818608E-02  0.1235058E+00
         -4   -1    0    0    0  501 -0.00000000000E+00  0.00000000000E+00  0.60969428956E+01  0.62278096207E+01  0.12700000000E+01 0. -1.
          4   -1    0    0  501    0  0.00000000000E+00 -0.00000000000E+00 -0.63382743777E+03  0.63382871012E+03  0.12700000000E+01 0. -1.
         25    2    1    2    0    0  0.00000000000E+00  0.00000000000E+00 -0.62773049487E+03  0.64005651974E+03  0.12500709686E+03 0.  0.
    9000005    1    3    3    0    0 -0.88032546534E+01  0.42218598611E+02 -0.82278459430E+02  0.92901303798E+02  0.10000000000E+01 0.  0.
    9000005    1    3    3    0    0  0.88032546534E+01 -0.42218598611E+02 -0.54545203544E+03  0.54715521594E+03  0.10000000000E+01 0.  0.
<mgrwt>
<rscale>  0 0.12500710E+03</rscale>
<asrwt>0</asrwt>
<pdfrwt beam="2">  1        4 0.97522027E-01 0.12500710E+03</pdfrwt>
<pdfrwt beam="1">  1       -4 0.94815626E-03 0.12500710E+03</pdfrwt>
<totfact> 0.46425710E+03</totfact>
</mgrwt>
</event>
<event>
 5    1  0.3286491E-002  0.1250005E+03  0.7818608E-02  0.1235069E+00
          4   -1    0    0  501    0  0.00000000000E+00  0.00000000000E+00  0.27946983967E+02  0.27975825508E+02  0.12700000000E+01 0. -1.
         -4   -1    0    0    0  501 -0.00000000000E+00 -0.00000000000E+00 -0.13967081129E+03  0.13967658510E+03  0.12700000000E+01 0. -1.
         25    2    1    2    0    0  0.00000000000E+00  0.00000000000E+00 -0.11172382732E+03  0.16765241061E+03  0.12500046877E+03 0.  0.
    9000005    1    3    3    0    0 -0.42942178343E+02  0.85521171151E+01 -0.11566427817E+03  0.12367859407E+03  0.10000000000E+01 0.  0.
    9000005    1    3    3    0    0  0.42942178343E+02 -0.85521171151E+01  0.39404508469E+01  0.43973816537E+02  0.10000000000E+01 0.  0.
<mgrwt>
<rscale>  0 0.12500047E+03</rscale>
<asrwt>0</asrwt>
<pdfrwt beam="1">  1        4 0.43021988E-02 0.12500047E+03</pdfrwt>
<pdfrwt beam="2">  1       -4 0.21490479E-01 0.12500047E+03</pdfrwt>
<totfact> 0.95886404E+03</totfact>
</mgrwt>
</event>
<event>
 5    1  0.3286491E-002  0.1250029E+03  0.7818608E-02  0.1235065E+00
         -4   -1    0    0    0  501 -0.00000000000E+00  0.00000000000E+00  0.12173048945E+02  0.12239118458E+02  0.12700000000E+01 0.  1.
          4   -1    0    0  501    0  0.00000000000E+00 -0.00000000000E+00 -0.31997222687E+03  0.31997474724E+03  0.12700000000E+01 0.  1.
         25    2    1    2    0    0  0.00000000000E+00  0.00000000000E+00 -0.30779917793E+03  0.33221386569E+03  0.12500287448E+03 0.  0.
    9000005    1    3    3    0    0 -0.30899610650E+02 -0.45530628452E+02 -0.23263089316E+03  0.23905220459E+03  0.10000000000E+01 0.  0.
    9000005    1    3    3    0    0  0.30899610650E+02  0.45530628452E+02 -0.75168284767E+02  0.93161661108E+02  0.10000000000E+01 0.  0.
<mgrwt>
<rscale>  0 0.12500287E+03</rscale>
<asrwt>0</asrwt>
<pdfrwt beam="2">  1        4 0.49231766E-01 0.12500287E+03</pdfrwt>
<pdfrwt beam="1">  1       -4 0.18780532E-02 0.12500287E+03</pdfrwt>
<totfact> 0.71722051E+03</totfact>
</mgrwt>
</event>
<event>
 5    1  0.3286491E-002  0.1250569E+03  0.7818608E-02  0.1234980E+00
         -4   -1    0    0    0  501 -0.00000000000E+00  0.00000000000E+00  0.14547504476E+02  0.14602834878E+02  0.12700000000E+01 0. -1.
          4   -1    0    0  501    0  0.00000000000E+00 -0.00000000000E+00 -0.26819458920E+03  0.26819759614E+03  0.12700000000E+01 0. -1.
         25    2    1    2    0    0  0.00000000000E+00  0.00000000000E+00 -0.25364708472E+03  0.28280043102E+03  0.12505694781E+03 0.  0.
    9000005    1    3    3    0    0  0.36045027088E+02 -0.45843457482E+02 -0.17778947031E+03  0.18711216509E+03  0.10000000000E+01 0.  0.
    9000005    1    3    3    0    0 -0.36045027088E+02  0.45843457482E+02 -0.75857614409E+02  0.95688265924E+02  0.10000000000E+01 0.  0.
<mgrwt>
<rscale>  0 0.12505695E+03</rscale>
<asrwt>0</asrwt>
<pdfrwt beam="2">  1        4 0.41265190E-01 0.12505695E+03</pdfrwt>
<pdfrwt beam="1">  1       -4 0.22425653E-02 0.12505695E+03</pdfrwt>
<totfact> 0.77709856E+03</totfact>
</mgrwt>
</event>
<event>
 5    1  0.3286491E-002  0.1250020E+03  0.7818608E-02  0.1235066E+00
          4   -1    0    0  501    0  0.00000000000E+00  0.00000000000E+00  0.13451440839E+02  0.13511260513E+02  0.12700000000E+01 0.  1.
         -4   -1    0    0    0  501 -0.00000000000E+00 -0.00000000000E+00 -0.28970021151E+03  0.28970299524E+03  0.12700000000E+01 0.  1.
         25    2    1    2    0    0  0.00000000000E+00  0.00000000000E+00 -0.27624877067E+03  0.30321425575E+03  0.12500200635E+03 0.  0.
    9000005    1    3    3    0    0  0.14959522786E+02  0.24893351406E+02 -0.39008167226E+01  0.29320345108E+02  0.10000000000E+01 0.  0.
    9000005    1    3    3    0    0 -0.14959522786E+02 -0.24893351406E+02 -0.27234795395E+03  0.27389391064E+03  0.10000000000E+01 0.  0.
<mgrwt>
<rscale>  0 0.12500201E+03</rscale>
<asrwt>0</asrwt>
<pdfrwt beam="1">  1        4 0.20742683E-02 0.12500201E+03</pdfrwt>
<pdfrwt beam="2">  1       -4 0.44574074E-01 0.12500201E+03</pdfrwt>
<totfact> 0.75194063E+03</totfact>
</mgrwt>
</event>
<event>
 5    1  0.3286491E-002  0.1250043E+03  0.7818608E-02  0.1235063E+00
         -4   -1    0    0    0  501 -0.00000000000E+00  0.00000000000E+00  0.31999118487E+03  0.31999370508E+03  0.12700000000E+01 0.  1.
          4   -1    0    0  501    0  0.00000000000E+00 -0.00000000000E+00 -0.12172602520E+02  0.12238674443E+02  0.12700000000E+01 0.  1.
         25    2    1    2    0    0  0.00000000000E+00  0.00000000000E+00  0.30781858235E+03  0.33223237953E+03  0.12500429739E+03 0.  0.
    9000005    1    3    3    0    0 -0.62520455676E+01  0.33179034019E+02  0.14140470582E+02  0.36618155067E+02  0.10000000000E+01 0.  0.
    9000005    1    3    3    0    0  0.62520455676E+01 -0.33179034019E+02  0.29367811177E+03  0.29561422446E+03  0.10000000000E+01 0.  0.
<mgrwt>
<rscale>  0 0.12500430E+03</rscale>
<asrwt>0</asrwt>
<pdfrwt beam="2">  1        4 0.18779847E-02 0.12500430E+03</pdfrwt>
<pdfrwt beam="1">  1       -4 0.49234683E-01 0.12500430E+03</pdfrwt>
<totfact> 0.71717659E+03</totfact>
</mgrwt>
</event>
<event>
 5    1  0.3286491E-002  0.1250015E+03  0.7818608E-02  0.1235067E+00
          4   -1    0    0  501    0  0.00000000000E+00  0.00000000000E+00  0.38517684905E+03  0.38517894276E+03  0.12700000000E+01 0. -1.
         -4   -1    0    0    0  501 -0.00000000000E+00 -0.00000000000E+00 -0.10099795337E+02  0.10179330325E+02  0.12700000000E+01 0. -1.
         25    2    1    2    0    0  0.00000000000E+00  0.00000000000E+00  0.37507705372E+03  0.39535827309E+03  0.12500147148E+03 0.  0.
    9000005    1    3    3    0    0 -0.44124343813E+02 -0.42832492276E+02  0.22272446329E+03  0.23106009318E+03  0.10000000000E+01 0.  0.
    9000005    1    3    3    0    0  0.44124343813E+02  0.42832492276E+02  0.15235259042E+03  0.16429817991E+03  0.10000000000E+01 0.  0.
<mgrwt>
<rscale>  0 0.12500147E+03</rscale>
<asrwt>0</asrwt>
<pdfrwt beam="1">  1        4 0.59264257E-01 0.12500147E+03</pdfrwt>
<pdfrwt beam="2">  1       -4 0.15600938E-02 0.12500147E+03</pdfrwt>
<totfact> 0.65004641E+03</totfact>
</mgrwt>
</event>
<event>
 5    1  0.3286491E-002  0.1249976E+03  0.7818608E-02  0.1235073E+00
         -4   -1    0    0    0  501 -0.00000000000E+00  0.00000000000E+00  0.23577199448E+03  0.23577541492E+03  0.12700000000E+01 0. -1.
          4   -1    0    0  501    0  0.00000000000E+00 -0.00000000000E+00 -0.16539389052E+02  0.16588076748E+02  0.12700000000E+01 0. -1.
         25    2    1    2    0    0  0.00000000000E+00  0.00000000000E+00  0.21923260542E+03  0.25236349167E+03  0.12499758655E+03 0.  0.
    9000005    1    3    3    0    0 -0.28562296376E+02  0.51944348085E+02  0.14954243094E+03  0.16086627590E+03  0.10000000000E+01 0.  0.
    9000005    1    3    3    0    0  0.28562296376E+02 -0.51944348085E+02  0.69690174489E+02  0.91497215764E+02  0.10000000000E+01 0.  0.
<mgrwt>
<rscale>  0 0.12499759E+03</rscale>
<asrwt>0</asrwt>
<pdfrwt beam="2">  1        4 0.25485296E-02 0.12499759E+03</pdfrwt>
<pdfrwt beam="1">  1       -4 0.36276624E-01 0.12499759E+03</pdfrwt>
<totfact> 0.81994231E+03</totfact>
</mgrwt>
</event>
<event>
 5    1  0.3286491E-002  0.1249993E+03  0.7818608E-02  0.1235070E+00
          4   -1    0    0  501    0  0.00000000000E+00  0.00000000000E+00  0.17021590485E+03  0.17022064259E+03  0.12700000000E+01 0. -1.
         -4   -1    0    0    0  501 -0.00000000000E+00 -0.00000000000E+00 -0.22925920616E+02  0.22961070012E+02  0.12700000000E+01 0. -1.
         25    2    1    2    0    0  0.00000000000E+00  0.00000000000E+00  0.14728998424E+03  0.19318171260E+03  0.12499933851E+03 0.  0.
    9000005    1    3    3    0    0 -0.28632825520E+02 -0.46727709875E+02  0.12005753305E+03  0.13197775877E+03  0.10000000000E+01 0.  0.
    9000005    1    3    3    0    0  0.28632825520E+02  0.46727709875E+02  0.27232451183E+02  0.61203953834E+02  0.10000000000E+01 0.  0.
<mgrwt>
<rscale>  0 0.12499934E+03</rscale>
<asrwt>0</asrwt>
<pdfrwt beam="1">  1        4 0.26190130E-01 0.12499934E+03</pdfrwt>
<pdfrwt beam="2">  1       -4 0.35301330E-02 0.12499934E+03</pdfrwt>
<totfact> 0.91297988E+03</totfact>
</mgrwt>
</event>
<event>
 5    1  0.3286491E-002  0.1249988E+03  0.7818608E-02  0.1235071E+00
         -4   -1    0    0    0  501 -0.00000000000E+00  0.00000000000E+00  0.11075969488E+04  0.11075976769E+04  0.12700000000E+01 0. -1.
          4   -1    0    0  501    0  0.00000000000E+00 -0.00000000000E+00 -0.34116262515E+01  0.36403425223E+01  0.12700000000E+01 0. -1.
         25    2    1    2    0    0  0.00000000000E+00  0.00000000000E+00  0.11041853225E+04  0.11112380194E+04  0.12499883717E+03 0.  0.
    9000005    1    3    3    0    0 -0.79523264527E+01 -0.14772441588E+02  0.16939612821E+02  0.23862418340E+02  0.10000000000E+01 0.  0.
    9000005    1    3    3    0    0  0.79523264527E+01  0.14772441588E+02  0.10872457097E+04  0.10873756010E+04  0.10000000000E+01 0.  0.
<mgrwt>
<rscale>  0 0.12499884E+03</rscale>
<asrwt>0</asrwt>
<pdfrwt beam="2">  1        4 0.54251476E-03 0.12499884E+03</pdfrwt>
<pdfrwt beam="1">  1       -4 0.17041730E+00 0.12499884E+03</pdfrwt>
<totfact> 0.27157463E+03</totfact>
</mgrwt>
</event>
<event>
 5    1  0.3286491E-002  0.1249994E+03  0.7818608E-02  0.1235070E+00
         -4   -1    0    0    0  501 -0.00000000000E+00  0.00000000000E+00  0.10768944762E+03  0.10769693602E+03  0.12700000000E+01 0. -1.
          4   -1    0    0  501    0  0.00000000000E+00 -0.00000000000E+00 -0.36253094829E+02  0.36275333005E+02  0.12700000000E+01 0. -1.
         25    2    1    2    0    0  0.00000000000E+00  0.00000000000E+00  0.71436352787E+02  0.14397226902E+03  0.12499944699E+03 0.  0.
    9000005    1    3    3    0    0  0.29315662359E+02 -0.51446829190E+02  0.58725926627E+02  0.83402150760E+02  0.10000000000E+01 0.  0.
    9000005    1    3    3    0    0 -0.29315662359E+02  0.51446829190E+02  0.12710426160E+02  0.60570118263E+02  0.10000000000E+01 0.  0.
<mgrwt>
<rscale>  0 0.12499945E+03</rscale>
<asrwt>0</asrwt>
<pdfrwt beam="2">  1        4 0.55796860E-02 0.12499945E+03</pdfrwt>
<pdfrwt beam="1">  1       -4 0.16569894E-01 0.12499945E+03</pdfrwt>
<totfact> 0.10052037E+04</totfact>
</mgrwt>
</event>
<event>
 5    1  0.3286491E-002  0.1249700E+03  0.7818608E-02  0.1235116E+00
         -4   -1    0    0    0  501 -0.00000000000E+00  0.00000000000E+00  0.11523320212E+03  0.11524020033E+03  0.12700000000E+01 0.  1.
          4   -1    0    0  501    0  0.00000000000E+00 -0.00000000000E+00 -0.33862462787E+02  0.33886269874E+02  0.12700000000E+01 0.  1.
         25    2    1    2    0    0  0.00000000000E+00  0.00000000000E+00  0.81370739337E+02  0.14912647020E+03  0.12497002399E+03 0.  0.
    9000005    1    3    3    0    0 -0.55139536896E+02  0.11684086445E+02  0.85218327460E+01  0.57013226873E+02  0.10000000000E+01 0.  0.
    9000005    1    3    3    0    0  0.55139536896E+02 -0.11684086445E+02  0.72848906591E+02  0.92113243330E+02  0.10000000000E+01 0.  0.
<mgrwt>
<rscale>  0 0.12497002E+03</rscale>
<asrwt>0</asrwt>
<pdfrwt beam="2">  1        4 0.52119794E-02 0.12497002E+03</pdfrwt>
<pdfrwt beam="1">  1       -4 0.17730554E-01 0.12497002E+03</pdfrwt>
<totfact> 0.99545256E+03</totfact>
</mgrwt>
</event>
<event>
 5    1  0.3286491E-002  0.1249640E+03  0.7818608E-02  0.1235126E+00
         -4   -1    0    0    0  501 -0.00000000000E+00  0.00000000000E+00  0.14839621222E+02  0.14893866456E+02  0.12700000000E+01 0.  1.
          4   -1    0    0  501    0  0.00000000000E+00 -0.00000000000E+00 -0.26254371784E+03  0.26254678950E+03  0.12700000000E+01 0.  1.
         25    2    1    2    0    0  0.00000000000E+00  0.00000000000E+00 -0.24770409662E+03  0.27744065595E+03  0.12496398720E+03 0.  0.
    9000005    1    3    3    0    0  0.44717316020E+02 -0.14704980105E+01 -0.22065731718E+03  0.22514984420E+03  0.10000000000E+01 0.  0.
    9000005    1    3    3    0    0 -0.44717316020E+02  0.14704980105E+01 -0.27046779433E+02  0.52290811756E+02  0.10000000000E+01 0.  0.
<mgrwt>
<rscale>  0 0.12496399E+03</rscale>
<asrwt>0</asrwt>
<pdfrwt beam="2">  1        4 0.40395747E-01 0.12496399E+03</pdfrwt>
<pdfrwt beam="1">  1       -4 0.22874278E-02 0.12496399E+03</pdfrwt>
<totfact> 0.78581584E+03</totfact>
</mgrwt>
</event>
<event>
 5    1  0.3286491E-002  0.1250005E+03  0.7818608E-02  0.1235068E+00
         -4   -1    0    0    0  501 -0.00000000000E+00  0.00000000000E+00  0.10227748897E+02  0.10306296498E+02  0.12700000000E+01 0. -1.
          4   -1    0    0  501    0  0.00000000000E+00 -0.00000000000E+00 -0.38038942643E+03  0.38039154649E+03  0.12700000000E+01 0. -1.
         25    2    1    2    0    0  0.00000000000E+00  0.00000000000E+00 -0.37016167753E+03  0.39069784298E+03  0.12500054800E+03 0.  0.
    9000005    1    3    3    0    0 -0.22268586296E+02  0.33697866591E+02 -0.36038443574E+02  0.54140609192E+02  0.10000000000E+01 0.  0.
    9000005    1    3    3    0    0  0.22268586296E+02 -0.33697866591E+02 -0.33412323396E+03  0.33655723379E+03  0.10000000000E+01 0.  0.
<mgrwt>
<rscale>  0 0.12500055E+03</rscale>
<asrwt>0</asrwt>
<pdfrwt beam="2">  1        4 0.58527645E-01 0.12500055E+03</pdfrwt>
<pdfrwt beam="1">  1       -4 0.15797053E-02 0.12500055E+03</pdfrwt>
<totfact> 0.65466886E+03</totfact>
</mgrwt>
</event>
<event>
 5    1  0.3286491E-002  0.1249992E+03  0.7818608E-02  0.1235070E+00
         -4   -1    0    0    0  501 -0.00000000000E+00  0.00000000000E+00  0.97188495244E+02  0.97196792683E+02  0.12700000000E+01 0.  1.
          4   -1    0    0  501    0  0.00000000000E+00 -0.00000000000E+00 -0.40171981947E+02  0.40192051870E+02  0.12700000000E+01 0.  1.
         25    2    1    2    0    0  0.00000000000E+00  0.00000000000E+00  0.57016513297E+02  0.13738884455E+03  0.12499924727E+03 0.  0.
    9000005    1    3    3    0    0 -0.32011396096E+02  0.39558569584E+02 -0.11357944908E+02  0.52149907192E+02  0.10000000000E+01 0.  0.
    9000005    1    3    3    0    0  0.32011396096E+02 -0.39558569584E+02  0.68374458206E+02  0.85238937361E+02  0.10000000000E+01 0.  0.
<mgrwt>
<rscale>  0 0.12499925E+03</rscale>
<asrwt>0</asrwt>
<pdfrwt beam="2">  1        4 0.61824871E-02 0.12499925E+03</pdfrwt>
<pdfrwt beam="1">  1       -4 0.14954258E-01 0.12499925E+03</pdfrwt>
<totfact> 0.10188135E+04</totfact>
</mgrwt>
</event>
<event>
 5    1  0.3286491E-002  0.1250062E+03  0.7818608E-02  0.1235060E+00
          4   -1    0    0  501    0  0.00000000000E+00  0.00000000000E+00  0.26656758929E+02  0.26686994897E+02  0.12700000000E+01 0.  1.
         -4   -1    0    0    0  501 -0.00000000000E+00 -0.00000000000E+00 -0.14643728545E+03  0.14644279248E+03  0.12700000000E+01 0.  1.
         25    2    1    2    0    0  0.00000000000E+00  0.00000000000E+00 -0.11978052652E+03  0.17312978738E+03  0.12500619482E+03 0.  0.
    9000005    1    3    3    0    0  0.18078787401E+02 -0.18232686509E+02 -0.13880150037E+03  0.14115994445E+03  0.10000000000E+01 0.  0.
    9000005    1    3    3    0    0 -0.18078787401E+02  0.18232686509E+02  0.19020973846E+02  0.31969842935E+02  0.10000000000E+01 0.  0.
<mgrwt>
<rscale>  0 0.12500619E+03</rscale>
<asrwt>0</asrwt>
<pdfrwt beam="1">  1        4 0.41037894E-02 0.12500619E+03</pdfrwt>
<pdfrwt beam="2">  1       -4 0.22531562E-01 0.12500619E+03</pdfrwt>
<totfact> 0.94855301E+03</totfact>
</mgrwt>
</event>
<event>
 5    1  0.3286491E-002  0.1250011E+03  0.7818608E-02  0.1235068E+00
         -4   -1    0    0    0  501 -0.00000000000E+00  0.00000000000E+00  0.72025907562E+03  0.72026019528E+03  0.12700000000E+01 0. -1.
          4   -1    0    0  501    0  0.00000000000E+00 -0.00000000000E+00 -0.53480023086E+01  0.54967289084E+01  0.12700000000E+01 0. -1.
         25    2    1    2    0    0  0.00000000000E+00  0.00000000000E+00  0.71491107331E+03  0.72575692419E+03  0.12500108108E+03 0.  0.
    9000005    1    3    3    0    0 -0.40293101877E+02  0.17402300002E+02  0.61573751986E+03  0.61730062973E+03  0.10000000000E+01 0.  0.
    9000005    1    3    3    0    0  0.40293101877E+02 -0.17402300002E+02  0.99173553448E+02  0.10845629446E+03  0.10000000000E+01 0.  0.
<mgrwt>
<rscale>  0 0.12500108E+03</rscale>
<asrwt>0</asrwt>
<pdfrwt beam="2">  1        4 0.83429665E-03 0.12500108E+03</pdfrwt>
<pdfrwt beam="1">  1       -4 0.11082056E+00 0.12500108E+03</pdfrwt>
<totfact> 0.41760405E+03</totfact>
</mgrwt>
</event>
<event>
 5    1  0.3286491E-002  0.1250041E+03  0.7818608E-02  0.1235063E+00
         -4   -1    0    0    0  501 -0.00000000000E+00  0.00000000000E+00  0.47084407104E+02  0.47101531741E+02  0.12700000000E+01 0. -1.
          4   -1    0    0  501    0  0.00000000000E+00 -0.00000000000E+00 -0.82931087118E+02  0.82940810886E+02  0.12700000000E+01 0. -1.
         25    2    1    2    0    0  0.00000000000E+00  0.00000000000E+00 -0.35846680013E+02  0.13004234263E+03  0.12500410556E+03 0.  0.
    9000005    1    3    3    0    0 -0.33459023794E+02  0.49877150970E+02  0.43239203396E-01  0.60068613532E+02  0.10000000000E+01 0.  0.
    9000005    1    3    3    0    0  0.33459023794E+02 -0.49877150970E+02 -0.35889919217E+02  0.69973729095E+02  0.10000000000E+01 0.  0.
<mgrwt>
<rscale>  0 0.12500411E+03</rscale>
<asrwt>0</asrwt>
<pdfrwt beam="2">  1        4 0.12760694E-01 0.12500411E+03</pdfrwt>
<pdfrwt beam="1">  1       -4 0.72458202E-02 0.12500411E+03</pdfrwt>
<totfact> 0.10342643E+04</totfact>
</mgrwt>
</event>
<event>
 5    1  0.3286491E-002  0.1250074E+03  0.7818608E-02  0.1235058E+00
          4   -1    0    0  501    0  0.00000000000E+00  0.00000000000E+00  0.11670789832E+03  0.11671480811E+03  0.12700000000E+01 0. -1.
         -4   -1    0    0    0  501 -0.00000000000E+00 -0.00000000000E+00 -0.33454342580E+02  0.33478439890E+02  0.12700000000E+01 0. -1.
         25    2    1    2    0    0  0.00000000000E+00  0.00000000000E+00  0.83253555743E+02  0.15019324800E+03  0.12500742858E+03 0.  0.
    9000005    1    3    3    0    0 -0.28346648005E+02  0.19113059710E+02 -0.21228520714E+02  0.40255330036E+02  0.10000000000E+01 0.  0.
    9000005    1    3    3    0    0  0.28346648005E+02 -0.19113059710E+02  0.10448207646E+03  0.10993791796E+03  0.10000000000E+01 0.  0.
<mgrwt>
<rscale>  0 0.12500743E+03</rscale>
<asrwt>0</asrwt>
<pdfrwt beam="1">  1        4 0.17957447E-01 0.12500743E+03</pdfrwt>
<pdfrwt beam="2">  1       -4 0.51492071E-02 0.12500743E+03</pdfrwt>
<totfact> 0.99248597E+03</totfact>
</mgrwt>
</event>
<event>
 5    1  0.3286491E-002  0.1249995E+03  0.7818608E-02  0.1235070E+00
          4   -1    0    0  501    0  0.00000000000E+00  0.00000000000E+00  0.47777909443E+01  0.49437016807E+01  0.12700000000E+01 0. -1.
         -4   -1    0    0    0  501 -0.00000000000E+00 -0.00000000000E+00 -0.80345834833E+03  0.80345935205E+03  0.12700000000E+01 0. -1.
         25    2    1    2    0    0  0.00000000000E+00  0.00000000000E+00 -0.79868055738E+03  0.80840305373E+03  0.12499945816E+03 0.  0.
    9000005    1    3    3    0    0  0.56787508447E+02  0.24226222337E+02 -0.33680988294E+03  0.34242317125E+03  0.10000000000E+01 0.  0.
    9000005    1    3    3    0    0 -0.56787508447E+02 -0.24226222337E+02 -0.46187067444E+03  0.46597988248E+03  0.10000000000E+01 0.  0.
<mgrwt>
<rscale>  0 0.12499946E+03</rscale>
<asrwt>0</asrwt>
<pdfrwt beam="1">  1        4 0.74788497E-03 0.12499946E+03</pdfrwt>
<pdfrwt beam="2">  1       -4 0.12362171E+00 0.12499946E+03</pdfrwt>
<totfact> 0.37892811E+03</totfact>
</mgrwt>
</event>
<event>
 5    1  0.3286491E-002  0.1249983E+03  0.7818608E-02  0.1235072E+00
         -4   -1    0    0    0  501 -0.00000000000E+00  0.00000000000E+00  0.25633041340E+03  0.25633355952E+03  0.12700000000E+01 0.  1.
          4   -1    0    0  501    0  0.00000000000E+00 -0.00000000000E+00 -0.15208991316E+02  0.15261923760E+02  0.12700000000E+01 0.  1.
         25    2    1    2    0    0  0.00000000000E+00  0.00000000000E+00  0.24112142209E+03  0.27159548328E+03  0.12499826538E+03 0.  0.
    9000005    1    3    3    0    0  0.32567967579E+02  0.22826067344E+02  0.15827537814E+02  0.42816034565E+02  0.10000000000E+01 0.  0.
    9000005    1    3    3    0    0 -0.32567967579E+02 -0.22826067344E+02  0.22529388427E+03  0.22877944871E+03  0.10000000000E+01 0.  0.
<mgrwt>
<rscale>  0 0.12499827E+03</rscale>
<asrwt>0</asrwt>
<pdfrwt beam="2">  1        4 0.23441586E-02 0.12499827E+03</pdfrwt>
<pdfrwt beam="1">  1       -4 0.39439761E-01 0.12499827E+03</pdfrwt>
<totfact> 0.79308903E+03</totfact>
</mgrwt>
</event>
<event>
 5    1  0.3286491E-002  0.1250003E+03  0.7818608E-02  0.1235069E+00
          4   -1    0    0  501    0  0.00000000000E+00  0.00000000000E+00  0.23770386924E+02  0.23804289415E+02  0.12700000000E+01 0. -1.
         -4   -1    0    0    0  501 -0.00000000000E+00 -0.00000000000E+00 -0.16417986061E+03  0.16418477253E+03  0.12700000000E+01 0. -1.
         25    2    1    2    0    0  0.00000000000E+00  0.00000000000E+00 -0.14040947369E+03  0.18798906195E+03  0.12500026844E+03 0.  0.
    9000005    1    3    3    0    0  0.54082108975E+02 -0.16538166612E+02 -0.11018953289E+03  0.12385926943E+03  0.10000000000E+01 0.  0.
    9000005    1    3    3    0    0 -0.54082108975E+02  0.16538166612E+02 -0.30219940804E+02  0.64129792517E+02  0.10000000000E+01 0.  0.
<mgrwt>
<rscale>  0 0.12500027E+03</rscale>
<asrwt>0</asrwt>
<pdfrwt beam="1">  1        4 0.36599684E-02 0.12500027E+03</pdfrwt>
<pdfrwt beam="2">  1       -4 0.25261425E-01 0.12500027E+03</pdfrwt>
<totfact> 0.92197839E+03</totfact>
</mgrwt>
</event>
<event>
 5    1  0.3286491E-002  0.1250002E+03  0.7818608E-02  0.1235069E+00
         -4   -1    0    0    0  501 -0.00000000000E+00  0.00000000000E+00  0.66828134228E+03  0.66828254903E+03  0.12700000000E+01 0. -1.
          4   -1    0    0  501    0  0.00000000000E+00 -0.00000000000E+00 -0.57750284601E+01  0.59130240753E+01  0.12700000000E+01 0. -1.
         25    2    1    2    0    0  0.00000000000E+00  0.00000000000E+00  0.66250631382E+03  0.67419557311E+03  0.12500021978E+03 0.  0.
    9000005    1    3    3    0    0 -0.56222407619E+02  0.23215342065E+01  0.18464018749E+03  0.19302680507E+03  0.10000000000E+01 0.  0.
    9000005    1    3    3    0    0  0.56222407619E+02 -0.23215342065E+01  0.47786612633E+03  0.48116876804E+03  0.10000000000E+01 0.  0.
<mgrwt>
<rscale>  0 0.12500022E+03</rscale>
<asrwt>0</asrwt>
<pdfrwt beam="2">  1        4 0.89917376E-03 0.12500022E+03</pdfrwt>
<pdfrwt beam="1">  1       -4 0.10282323E+00 0.12500022E+03</pdfrwt>
<totfact> 0.44484111E+03</totfact>
</mgrwt>
</event>
<event>
 5    1  0.3286491E-002  0.1249986E+03  0.7818608E-02  0.1235071E+00
          4   -1    0    0  501    0  0.00000000000E+00  0.00000000000E+00  0.18230599449E+03  0.18231041805E+03  0.12700000000E+01 0. -1.
         -4   -1    0    0    0  501 -0.00000000000E+00 -0.00000000000E+00 -0.21402908624E+02  0.21440554974E+02  0.12700000000E+01 0. -1.
         25    2    1    2    0    0  0.00000000000E+00  0.00000000000E+00  0.16090308587E+03  0.20375097302E+03  0.12499862385E+03 0.  0.
    9000005    1    3    3    0    0 -0.17352094958E+02 -0.46949285977E+02  0.19465195186E+02  0.53714285593E+02  0.10000000000E+01 0.  0.
    9000005    1    3    3    0    0  0.17352094958E+02  0.46949285977E+02  0.14143789068E+03  0.15003668743E+03  0.10000000000E+01 0.  0.
<mgrwt>
<rscale>  0 0.12499862E+03</rscale>
<asrwt>0</asrwt>
<pdfrwt beam="1">  1        4 0.28050314E-01 0.12499862E+03</pdfrwt>
<pdfrwt beam="2">  1       -4 0.32959911E-02 0.12499862E+03</pdfrwt>
<totfact> 0.89509461E+03</totfact>
</mgrwt>
</event>
<event>
 5    1  0.3286491E-002  0.1250006E+03  0.7818608E-02  0.1235068E+00
         -4   -1    0    0    0  501 -0.00000000000E+00  0.00000000000E+00  0.23535136597E+03  0.23535479253E+03  0.12700000000E+01 0.  1.
          4   -1    0    0  501    0  0.00000000000E+00 -0.00000000000E+00 -0.16569843898E+02  0.16618442370E+02  0.12700000000E+01 0.  1.
         25    2    1    2    0    0  0.00000000000E+00  0.00000000000E+00  0.21878152207E+03  0.25197323490E+03  0.12500062681E+03 0.  0.
    9000005    1    3    3    0    0 -0.59166371854E+02  0.13118684144E+01  0.68928933036E+02  0.90854710206E+02  0.10000000000E+01 0.  0.
    9000005    1    3    3    0    0  0.59166371854E+02 -0.13118684144E+01  0.14985258904E+03  0.16111852469E+03  0.10000000000E+01 0.  0.
<mgrwt>
<rscale>  0 0.12500063E+03</rscale>
<asrwt>0</asrwt>
<pdfrwt beam="2">  1        4 0.25532089E-02 0.12500063E+03</pdfrwt>
<pdfrwt beam="1">  1       -4 0.36211902E-01 0.12500063E+03</pdfrwt>
<totfact> 0.82044724E+03</totfact>
</mgrwt>
</event>
<event>
 5    1  0.3286491E-002  0.1250034E+03  0.7818608E-02  0.1235064E+00
         -4   -1    0    0    0  501 -0.00000000000E+00  0.00000000000E+00  0.28914449329E+02  0.28942326790E+02  0.12700000000E+01 0.  1.
          4   -1    0    0  501    0  0.00000000000E+00 -0.00000000000E+00 -0.13500828488E+03  0.13501425809E+03  0.12700000000E+01 0.  1.
         25    2    1    2    0    0  0.00000000000E+00  0.00000000000E+00 -0.10609383556E+03  0.16395658488E+03  0.12500343908E+03 0.  0.
    9000005    1    3    3    0    0  0.32080771615E+02  0.49054996610E+02 -0.81478952185E+02  0.10037623349E+03  0.10000000000E+01 0.  0.
    9000005    1    3    3    0    0 -0.32080771615E+02 -0.49054996610E+02 -0.24614883370E+02  0.63580351392E+02  0.10000000000E+01 0.  0.
<mgrwt>
<rscale>  0 0.12500344E+03</rscale>
<asrwt>0</asrwt>
<pdfrwt beam="2">  1        4 0.20773109E-01 0.12500344E+03</pdfrwt>
<pdfrwt beam="1">  1       -4 0.44509808E-02 0.12500344E+03</pdfrwt>
<totfact> 0.96577902E+03</totfact>
</mgrwt>
</event>
<event>
 5    1  0.3286491E-002  0.1250036E+03  0.7818608E-02  0.1235064E+00
          4   -1    0    0  501    0  0.00000000000E+00  0.00000000000E+00  0.80553107709E+03  0.80553207823E+03  0.12700000000E+01 0.  1.
         -4   -1    0    0    0  501 -0.00000000000E+00 -0.00000000000E+00 -0.47653927911E+01  0.49317206382E+01  0.12700000000E+01 0.  1.
         25    2    1    2    0    0  0.00000000000E+00  0.00000000000E+00  0.80076568430E+03  0.81046379887E+03  0.12500355245E+03 0.  0.
    9000005    1    3    3    0    0  0.41616407993E+02 -0.46173429530E+01  0.99598462160E+02  0.10804674421E+03  0.10000000000E+01 0.  0.
    9000005    1    3    3    0    0 -0.41616407993E+02  0.46173429530E+01  0.70116722214E+03  0.70241705465E+03  0.10000000000E+01 0.  0.
<mgrwt>
<rscale>  0 0.12500355E+03</rscale>
<asrwt>0</asrwt>
<pdfrwt beam="1">  1        4 0.12394070E+00 0.12500355E+03</pdfrwt>
<pdfrwt beam="2">  1       -4 0.74600897E-03 0.12500355E+03</pdfrwt>
<totfact> 0.37798916E+03</totfact>
</mgrwt>
</event>
<event>
 5    1  0.3286491E-002  0.1249989E+03  0.7818608E-02  0.1235071E+00
         -4   -1    0    0    0  501 -0.00000000000E+00  0.00000000000E+00  0.24088581025E+04  0.24088584373E+04  0.12700000000E+01 0. -1.
          4   -1    0    0  501    0  0.00000000000E+00 -0.00000000000E+00 -0.13725441286E+01  0.18699672149E+01  0.12700000000E+01 0. -1.
         25    2    1    2    0    0  0.00000000000E+00  0.00000000000E+00  0.24074855584E+04  0.24107284045E+04  0.12499890598E+03 0.  0.
    9000005    1    3    3    0    0  0.22916736328E+02 -0.37879848473E+00  0.23249645304E+04  0.23250777165E+04  0.10000000000E+01 0.  0.
    9000005    1    3    3    0    0 -0.22916736328E+02  0.37879848473E+00  0.82521027997E+02  0.85650687994E+02  0.10000000000E+01 0.  0.
<mgrwt>
<rscale>  0 0.12499891E+03</rscale>
<asrwt>0</asrwt>
<pdfrwt beam="2">  1        4 0.24944788E-03 0.12499891E+03</pdfrwt>
<pdfrwt beam="1">  1       -4 0.37063455E+00 0.12499891E+03</pdfrwt>
<totfact> 0.54091201E+02</totfact>
</mgrwt>
</event>
<event>
 5    1  0.3286491E-002  0.1249953E+03  0.7818608E-02  0.1235077E+00
          4   -1    0    0  501    0  0.00000000000E+00  0.00000000000E+00  0.16282342355E+02  0.16331796367E+02  0.12700000000E+01 0. -1.
         -4   -1    0    0    0  501 -0.00000000000E+00 -0.00000000000E+00 -0.23947438082E+03  0.23947774838E+03  0.12700000000E+01 0. -1.
         25    2    1    2    0    0  0.00000000000E+00  0.00000000000E+00 -0.22319203846E+03  0.25580954474E+03  0.12499534851E+03 0.  0.
    9000005    1    3    3    0    0 -0.47470290838E+02  0.37104337451E+01 -0.28773491446E+02  0.55642696204E+02  0.10000000000E+01 0.  0.
    9000005    1    3    3    0    0  0.47470290838E+02 -0.37104337451E+01 -0.19441854701E+03  0.20016684854E+03  0.10000000000E+01 0.  0.
<mgrwt>
<rscale>  0 0.12499535E+03</rscale>
<asrwt>0</asrwt>
<pdfrwt beam="1">  1        4 0.25090391E-02 0.12499535E+03</pdfrwt>
<pdfrwt beam="2">  1       -4 0.36846273E-01 0.12499535E+03</pdfrwt>
<totfact> 0.81506194E+03</totfact>
</mgrwt>
</event>
<event>
 5    1  0.3286491E-002  0.1249989E+03  0.7818608E-02  0.1235071E+00
          4   -1    0    0  501    0  0.00000000000E+00  0.00000000000E+00  0.45828825062E+02  0.45846418689E+02  0.12700000000E+01 0.  1.
         -4   -1    0    0    0  501 -0.00000000000E+00 -0.00000000000E+00 -0.85195413278E+02  0.85204878637E+02  0.12700000000E+01 0.  1.
         25    2    1    2    0    0  0.00000000000E+00  0.00000000000E+00 -0.39366588216E+02  0.13105129733E+03  0.12499885705E+03 0.  0.
    9000005    1    3    3    0    0  0.27828518376E+02  0.46606811432E+02 -0.52142979989E+02  0.75276235752E+02  0.10000000000E+01 0.  0.
    9000005    1    3    3    0    0 -0.27828518376E+02 -0.46606811432E+02  0.12776391773E+02  0.55775061574E+02  0.10000000000E+01 0.  0.
<mgrwt>
<rscale>  0 0.12499886E+03</rscale>
<asrwt>0</asrwt>
<pdfrwt beam="1">  1        4 0.70526699E-02 0.12499886E+03</pdfrwt>
<pdfrwt beam="2">  1       -4 0.13109068E-01 0.12499886E+03</pdfrwt>
<totfact> 0.10322256E+04</totfact>
</mgrwt>
</event>
<event>
 5    1  0.3286491E-002  0.1249981E+03  0.7818608E-02  0.1235072E+00
         -4   -1    0    0    0  501 -0.00000000000E+00  0.00000000000E+00  0.39589273455E+03  0.39589477158E+03  0.12700000000E+01 0. -1.
          4   -1    0    0  501    0  0.00000000000E+00 -0.00000000000E+00 -0.98237068502E+01  0.99054589131E+01  0.12700000000E+01 0. -1.
         25    2    1    2    0    0  0.00000000000E+00  0.00000000000E+00  0.38606902770E+03  0.40580023050E+03  0.12499813168E+03 0.  0.
    9000005    1    3    3    0    0  0.38785172988E+02 -0.24804494027E+02  0.55852079684E+02  0.72387895208E+02  0.10000000000E+01 0.  0.
    9000005    1    3    3    0    0 -0.38785172988E+02  0.24804494027E+02  0.33021694801E+03  0.33341233529E+03  0.10000000000E+01 0.  0.
<mgrwt>
<rscale>  0 0.12499813E+03</rscale>
<asrwt>0</asrwt>
<pdfrwt beam="2">  1        4 0.15177849E-02 0.12499813E+03</pdfrwt>
<pdfrwt beam="1">  1       -4 0.60913015E-01 0.12499813E+03</pdfrwt>
<totfact> 0.63995188E+03</totfact>
</mgrwt>
</event>
<event>
 5    1  0.3286491E-002  0.1250034E+03  0.7818608E-02  0.1235064E+00
          4   -1    0    0  501    0  0.00000000000E+00  0.00000000000E+00  0.78734965641E+02  0.78745207565E+02  0.12700000000E+01 0.  1.
         -4   -1    0    0    0  501 -0.00000000000E+00 -0.00000000000E+00 -0.49593718334E+02  0.49609976801E+02  0.12700000000E+01 0.  1.
         25    2    1    2    0    0  0.00000000000E+00  0.00000000000E+00  0.29141247307E+02  0.12835518437E+03  0.12500336419E+03 0.  0.
    9000005    1    3    3    0    0 -0.77569399813E-01 -0.38684862880E+02  0.64967580317E+02  0.75619515506E+02  0.10000000000E+01 0.  0.
    9000005    1    3    3    0    0  0.77569399813E-01  0.38684862880E+02 -0.35826333011E+02  0.52735668860E+02  0.10000000000E+01 0.  0.
<mgrwt>
<rscale>  0 0.12500336E+03</rscale>
<asrwt>0</asrwt>
<pdfrwt beam="1">  1        4 0.12115110E-01 0.12500336E+03</pdfrwt>
<pdfrwt beam="2">  1       -4 0.76318413E-02 0.12500336E+03</pdfrwt>
<totfact> 0.10379036E+04</totfact>
</mgrwt>
</event>
<event>
 4    1  0.3286491E-002  0.1249192E+03  0.7818608E-02  0.1235196E+00
         -4   -1    0    0    0  501 -0.00000000000E+00  0.00000000000E+00  0.38465085953E+02  0.38486046009E+02  0.12700000000E+01 0. -1.
          4   -1    0    0  501    0  0.00000000000E+00 -0.00000000000E+00 -0.10136934387E+03  0.10137729912E+03  0.12700000000E+01 0. -1.
    9000005    1    1    2    0    0  0.34298064233E+02  0.39250437071E+02  0.70613397259E+01  0.52610042188E+02  0.10000000000E+01 0.  0.
    9000005    1    1    2    0    0 -0.34298064233E+02 -0.39250437071E+02 -0.69965597644E+02  0.87253302941E+02  0.10000000000E+01 0.  0.
<mgrwt>
<rscale>  0 0.12491921E+03</rscale>
<asrwt>0</asrwt>
<pdfrwt beam="2">  1        4 0.15597508E-01 0.12491921E+03</pdfrwt>
<pdfrwt beam="1">  1       -4 0.59199298E-02 0.12491921E+03</pdfrwt>
<totfact> 0.10154890E+04</totfact>
</mgrwt>
</event>
<event>
 5    1  0.3286491E-002  0.1250009E+03  0.7818608E-02  0.1235068E+00
         -4   -1    0    0    0  501 -0.00000000000E+00  0.00000000000E+00  0.10002340507E+04  0.10002348570E+04  0.12700000000E+01 0.  1.
          4   -1    0    0  501    0  0.00000000000E+00 -0.00000000000E+00 -0.38013175329E+01  0.40078566574E+01  0.12700000000E+01 0.  1.
         25    2    1    2    0    0  0.00000000000E+00  0.00000000000E+00  0.99643273321E+03  0.10042427137E+04  0.12500094451E+03 0.  0.
    9000005    1    3    3    0    0 -0.57643481373E+02 -0.23700628383E+02  0.46156011570E+03  0.46575018103E+03  0.10000000000E+01 0.  0.
    9000005    1    3    3    0    0  0.57643481373E+02  0.23700628383E+02  0.53487261751E+03  0.53849253262E+03  0.10000000000E+01 0.  0.
<mgrwt>
<rscale>  0 0.12500094E+03</rscale>
<asrwt>0</asrwt>
<pdfrwt beam="2">  1        4 0.60076695E-03 0.12500094E+03</pdfrwt>
<pdfrwt beam="1">  1       -4 0.15389831E+00 0.12500094E+03</pdfrwt>
<totfact> 0.30464135E+03</totfact>
</mgrwt>
</event>
<event>
 5    1  0.3286491E-002  0.1250022E+03  0.7818608E-02  0.1235066E+00
         -4   -1    0    0    0  501 -0.00000000000E+00  0.00000000000E+00  0.54470252990E+01  0.55931193987E+01  0.12700000000E+01 0. -1.
          4   -1    0    0  501    0  0.00000000000E+00 -0.00000000000E+00 -0.70752332506E+03  0.70752446488E+03  0.12700000000E+01 0. -1.
         25    2    1    2    0    0  0.00000000000E+00  0.00000000000E+00 -0.70207629976E+03  0.71311758428E+03  0.12500223327E+03 0.  0.
    9000005    1    3    3    0    0 -0.87777233511E+01 -0.10885484703E+01 -0.70396237364E+03  0.70401864809E+03  0.10000000000E+01 0.  0.
    9000005    1    3    3    0    0  0.87777233511E+01  0.10885484703E+01  0.18860738789E+01  0.90989361838E+01  0.10000000000E+01 0.  0.
<mgrwt>
<rscale>  0 0.12500223E+03</rscale>
<asrwt>0</asrwt>
<pdfrwt beam="2">  1        4 0.10886100E+00 0.12500223E+03</pdfrwt>
<pdfrwt beam="1">  1       -4 0.84933014E-03 0.12500223E+03</pdfrwt>
<totfact> 0.42401177E+03</totfact>
</mgrwt>
</event>
<event>
 4    1  0.3286491E-002  0.1249388E+03  0.7818608E-02  0.1235165E+00
         -4   -1    0    0    0  501 -0.00000000000E+00  0.00000000000E+00  0.72442285474E+01  0.73547091885E+01  0.12700000000E+01 0.  1.
          4   -1    0    0  501    0  0.00000000000E+00 -0.00000000000E+00 -0.53450648215E+03  0.53450799092E+03  0.12700000000E+01 0.  1.
    9000005    1    1    2    0    0  0.41237279092E+02 -0.35978715783E+02 -0.13305538444E+03  0.14387396048E+03  0.10000000000E+01 0.  0.
    9000005    1    1    2    0    0 -0.41237279092E+02  0.35978715783E+02 -0.39420686917E+03  0.39798873963E+03  0.10000000000E+01 0.  0.
<mgrwt>
<rscale>  0 0.12493879E+03</rscale>
<asrwt>0</asrwt>
<pdfrwt beam="2">  1        4 0.82240350E-01 0.12493879E+03</pdfrwt>
<pdfrwt beam="1">  1       -4 0.11231117E-02 0.12493879E+03</pdfrwt>
<totfact> 0.52827585E+03</totfact>
</mgrwt>
</event>
<event>
 5    1  0.3286491E-002  0.1250090E+03  0.7818608E-02  0.1235055E+00
          4   -1    0    0  501    0  0.00000000000E+00  0.00000000000E+00  0.18753391039E+02  0.18796344737E+02  0.12700000000E+01 0. -1.
         -4   -1    0    0    0  501 -0.00000000000E+00 -0.00000000000E+00 -0.20804233845E+03  0.20804621479E+03  0.12700000000E+01 0. -1.
         25    2    1    2    0    0  0.00000000000E+00  0.00000000000E+00 -0.18928894742E+03  0.22684255953E+03  0.12500896448E+03 0.  0.
    9000005    1    3    3    0    0  0.88245830906E+01 -0.53845179215E+02 -0.39346960207E+02  0.67278227302E+02  0.10000000000E+01 0.  0.
    9000005    1    3    3    0    0 -0.88245830906E+01  0.53845179215E+02 -0.14994198721E+03  0.15956433223E+03  0.10000000000E+01 0.  0.
<mgrwt>
<rscale>  0 0.12500896E+03</rscale>
<asrwt>0</asrwt>
<pdfrwt beam="1">  1        4 0.28887395E-02 0.12500896E+03</pdfrwt>
<pdfrwt beam="2">  1       -4 0.32010114E-01 0.12500896E+03</pdfrwt>
<totfact> 0.85779633E+03</totfact>
</mgrwt>
</event>
<event>
 5    1  0.3286491E-002  0.1249877E+03  0.7818608E-02  0.1235088E+00
          4   -1    0    0  501    0  0.00000000000E+00  0.00000000000E+00  0.23434237488E+01  0.26654333355E+01  0.12700000000E+01 0. -1.
         -4   -1    0    0    0  501 -0.00000000000E+00 -0.00000000000E+00 -0.15591088281E+04  0.15591093453E+04  0.12700000000E+01 0. -1.
         25    2    1    2    0    0  0.00000000000E+00  0.00000000000E+00 -0.15567654044E+04  0.15617747787E+04  0.12498774002E+03 0.  0.
    9000005    1    3    3    0    0 -0.33933363232E+02  0.18337079609E+02 -0.13926649233E+04  0.13931993074E+04  0.10000000000E+01 0.  0.
    9000005    1    3    3    0    0  0.33933363232E+02 -0.18337079609E+02 -0.16410048109E+03  0.16857547130E+03  0.10000000000E+01 0.  0.
<mgrwt>
<rscale>  0 0.12498774E+03</rscale>
<asrwt>0</asrwt>
<pdfrwt beam="1">  1        4 0.38533773E-03 0.12498774E+03</pdfrwt>
<pdfrwt beam="2">  1       -4 0.23988693E+00 0.12498774E+03</pdfrwt>
<totfact> 0.16752155E+03</totfact>
</mgrwt>
</event>
<event>
 5    1  0.3286491E-002  0.1250013E+03  0.7818608E-02  0.1235067E+00
         -4   -1    0    0    0  501 -0.00000000000E+00  0.00000000000E+00  0.29041940350E+03  0.29042218033E+03  0.12700000000E+01 0. -1.
          4   -1    0    0  501    0  0.00000000000E+00 -0.00000000000E+00 -0.13417837132E+02  0.13477805953E+02  0.12700000000E+01 0. -1.
         25    2    1    2    0    0  0.00000000000E+00  0.00000000000E+00  0.27700156636E+03  0.30389998628E+03  0.12500133557E+03 0.  0.
    9000005    1    3    3    0    0 -0.62483607925E+02 -0.10066963602E+01  0.13766290387E+03  0.15118627517E+03  0.10000000000E+01 0.  0.
    9000005    1    3    3    0    0  0.62483607925E+02  0.10066963602E+01  0.13933866249E+03  0.15271371111E+03  0.10000000000E+01 0.  0.
<mgrwt>
<rscale>  0 0.12500134E+03</rscale>
<asrwt>0</asrwt>
<pdfrwt beam="2">  1        4 0.20691094E-02 0.12500134E+03</pdfrwt>
<pdfrwt beam="1">  1       -4 0.44684730E-01 0.12500134E+03</pdfrwt>
<totfact> 0.75109997E+03</totfact>
</mgrwt>
</event>
<event>
 5    1  0.3286491E-002  0.1249990E+03  0.7818608E-02  0.1235071E+00
         -4   -1    0    0    0  501 -0.00000000000E+00  0.00000000000E+00  0.20735320316E+03  0.20735709238E+03  0.12700000000E+01 0.  1.
          4   -1    0    0  501    0  0.00000000000E+00 -0.00000000000E+00 -0.18812849308E+02  0.18855667559E+02  0.12700000000E+01 0.  1.
         25    2    1    2    0    0  0.00000000000E+00  0.00000000000E+00  0.18854035385E+03  0.22621275994E+03  0.12499899091E+03 0.  0.
    9000005    1    3    3    0    0  0.67559117045E+01  0.59205962248E+02  0.12832934423E+03  0.14149349420E+03  0.10000000000E+01 0.  0.
    9000005    1    3    3    0    0 -0.67559117045E+01 -0.59205962248E+02  0.60211009614E+02  0.84719265740E+02  0.10000000000E+01 0.  0.
<mgrwt>
<rscale>  0 0.12499899E+03</rscale>
<asrwt>0</asrwt>
<pdfrwt beam="2">  1        4 0.28978773E-02 0.12499899E+03</pdfrwt>
<pdfrwt beam="1">  1       -4 0.31904087E-01 0.12499899E+03</pdfrwt>
<totfact> 0.85896477E+03</totfact>
</mgrwt>
</event>
<event>
 5    1  0.3286491E-002  0.1250005E+03  0.7818608E-02  0.1235069E+00
          4   -1    0    0  501    0  0.00000000000E+00  0.00000000000E+00  0.27529550122E+02  0.27558828529E+02  0.12700000000E+01 0.  1.
         -4   -1    0    0    0  501 -0.00000000000E+00 -0.00000000000E+00 -0.14178650341E+03  0.14179219107E+03  0.12700000000E+01 0.  1.
         25    2    1    2    0    0  0.00000000000E+00  0.00000000000E+00 -0.11425695328E+03  0.16935101960E+03  0.12500046586E+03 0.  0.
    9000005    1    3    3    0    0  0.47427703571E+02  0.25795569984E+02 -0.99766707358E+02  0.11344247174E+03  0.10000000000E+01 0.  0.
    9000005    1    3    3    0    0 -0.47427703571E+02 -0.25795569984E+02 -0.14490245925E+02  0.55908547860E+02  0.10000000000E+01 0.  0.
<mgrwt>
<rscale>  0 0.12500047E+03</rscale>
<asrwt>0</asrwt>
<pdfrwt beam="1">  1        4 0.42380052E-02 0.12500047E+03</pdfrwt>
<pdfrwt beam="2">  1       -4 0.21815998E-01 0.12500047E+03</pdfrwt>
<totfact> 0.95568665E+03</totfact>
</mgrwt>
</event>
<event>
 5    1  0.3286491E-002  0.1250006E+03  0.7818608E-02  0.1235068E+00
         -4   -1    0    0    0  501 -0.00000000000E+00  0.00000000000E+00  0.27835533838E+03  0.27835823556E+03  0.12700000000E+01 0.  1.
          4   -1    0    0  501    0  0.00000000000E+00 -0.00000000000E+00 -0.14001751784E+02  0.14059230172E+02  0.12700000000E+01 0.  1.
         25    2    1    2    0    0  0.00000000000E+00  0.00000000000E+00  0.26435358659E+03  0.29241746573E+03  0.12500062208E+03 0.  0.
    9000005    1    3    3    0    0 -0.29216460367E+02 -0.53278950023E+02  0.16632143304E+03  0.17707644440E+03  0.10000000000E+01 0.  0.
    9000005    1    3    3    0    0  0.29216460367E+02  0.53278950023E+02  0.98032153557E+02  0.11534102134E+03  0.10000000000E+01 0.  0.
<mgrwt>
<rscale>  0 0.12500062E+03</rscale>
<asrwt>0</asrwt>
<pdfrwt beam="2">  1        4 0.21587600E-02 0.12500062E+03</pdfrwt>
<pdfrwt beam="1">  1       -4 0.42828541E-01 0.12500062E+03</pdfrwt>
<totfact> 0.76558871E+03</totfact>
</mgrwt>
</event>
<event>
 5    1  0.3286491E-002  0.1250000E+03  0.7818608E-02  0.1235069E+00
         -4   -1    0    0    0  501 -0.00000000000E+00  0.00000000000E+00  0.23428062962E+03  0.23428407183E+03  0.12700000000E+01 0. -1.
          4   -1    0    0  501    0  0.00000000000E+00 -0.00000000000E+00 -0.16645635035E+02  0.16694012871E+02  0.12700000000E+01 0. -1.
         25    2    1    2    0    0  0.00000000000E+00  0.00000000000E+00  0.21763499458E+03  0.25097808470E+03  0.12500003254E+03 0.  0.
    9000005    1    3    3    0    0  0.52650130690E+02 -0.17335877032E+02  0.16675577221E+03  0.17573006703E+03  0.10000000000E+01 0.  0.
    9000005    1    3    3    0    0 -0.52650130690E+02  0.17335877032E+02  0.50879222378E+02  0.75248017674E+02  0.10000000000E+01 0.  0.
<mgrwt>
<rscale>  0 0.12500003E+03</rscale>
<asrwt>0</asrwt>
<pdfrwt beam="2">  1        4 0.25648532E-02 0.12500003E+03</pdfrwt>
<pdfrwt beam="1">  1       -4 0.36047159E-01 0.12500003E+03</pdfrwt>
<totfact> 0.82189010E+03</totfact>
</mgrwt>
</event>
<event>
 5    1  0.3286491E-002  0.1250088E+03  0.7818608E-02  0.1235055E+00
         -4   -1    0    0    0  501 -0.00000000000E+00  0.00000000000E+00  0.47288492109E+02  0.47305542867E+02  0.12700000000E+01 0. -1.
          4   -1    0    0  501    0  0.00000000000E+00 -0.00000000000E+00 -0.82579510951E+02  0.82589276114E+02  0.12700000000E+01 0. -1.
         25    2    1    2    0    0  0.00000000000E+00  0.00000000000E+00 -0.35291018842E+02  0.12989481898E+03  0.12500883164E+03 0.  0.
    9000005    1    3    3    0    0  0.53197856079E+02  0.32789864438E+02 -0.18460310899E+02  0.65168782248E+02  0.10000000000E+01 0.  0.
    9000005    1    3    3    0    0 -0.53197856079E+02 -0.32789864438E+02 -0.16830707943E+02  0.64726036732E+02  0.10000000000E+01 0.  0.
<mgrwt>
<rscale>  0 0.12500883E+03</rscale>
<asrwt>0</asrwt>
<pdfrwt beam="2">  1        4 0.12706603E-01 0.12500883E+03</pdfrwt>
<pdfrwt beam="1">  1       -4 0.72772154E-02 0.12500883E+03</pdfrwt>
<totfact> 0.10344696E+04</totfact>
</mgrwt>
</event>
<event>
 5    1  0.3286491E-002  0.1249963E+03  0.7818608E-02  0.1235075E+00
         -4   -1    0    0    0  501 -0.00000000000E+00  0.00000000000E+00  0.71107221912E+03  0.71107335325E+03  0.12700000000E+01 0. -1.
          4   -1    0    0  501    0  0.00000000000E+00 -0.00000000000E+00 -0.54185804817E+01  0.55654213171E+01  0.12700000000E+01 0. -1.
         25    2    1    2    0    0  0.00000000000E+00  0.00000000000E+00  0.70565363864E+03  0.71663877457E+03  0.12499630191E+03 0.  0.
    9000005    1    3    3    0    0 -0.50832985812E+02 -0.21877463888E+02  0.18642307643E+03  0.19446639632E+03  0.10000000000E+01 0.  0.
    9000005    1    3    3    0    0  0.50832985812E+02  0.21877463888E+02  0.51923056221E+03  0.52217237825E+03  0.10000000000E+01 0.  0.
<mgrwt>
<rscale>  0 0.12499630E+03</rscale>
<asrwt>0</asrwt>
<pdfrwt beam="2">  1        4 0.84501070E-03 0.12499630E+03</pdfrwt>
<pdfrwt beam="1">  1       -4 0.10940708E+00 0.12499630E+03</pdfrwt>
<totfact> 0.42226212E+03</totfact>
</mgrwt>
</event>
<event>
 5    1  0.3286491E-002  0.1249997E+03  0.7818608E-02  0.1235070E+00
          4   -1    0    0  501    0  0.00000000000E+00  0.00000000000E+00  0.40677522408E+03  0.40677720662E+03  0.12700000000E+01 0. -1.
         -4   -1    0    0    0  501 -0.00000000000E+00 -0.00000000000E+00 -0.95589215875E+01  0.96429187446E+01  0.12700000000E+01 0. -1.
         25    2    1    2    0    0  0.00000000000E+00  0.00000000000E+00  0.39721630249E+03  0.41642012536E+03  0.12499971937E+03 0.  0.
    9000005    1    3    3    0    0  0.28437071638E+02  0.55282034305E+02  0.21979892839E+03  0.22842359616E+03  0.10000000000E+01 0.  0.
    9000005    1    3    3    0    0 -0.28437071638E+02 -0.55282034305E+02  0.17741737410E+03  0.18799652921E+03  0.10000000000E+01 0.  0.
<mgrwt>
<rscale>  0 0.12499972E+03</rscale>
<asrwt>0</asrwt>
<pdfrwt beam="1">  1        4 0.62587437E-01 0.12499972E+03</pdfrwt>
<pdfrwt beam="2">  1       -4 0.14772167E-02 0.12499972E+03</pdfrwt>
<totfact> 0.62986892E+03</totfact>
</mgrwt>
</event>
<event>
 5    1  0.3286491E-002  0.1249991E+03  0.7818608E-02  0.1235071E+00
          4   -1    0    0  501    0  0.00000000000E+00  0.00000000000E+00  0.67470765719E+02  0.67482717244E+02  0.12700000000E+01 0. -1.
         -4   -1    0    0    0  501 -0.00000000000E+00 -0.00000000000E+00 -0.57870583454E+02  0.57884517181E+02  0.12700000000E+01 0. -1.
         25    2    1    2    0    0  0.00000000000E+00  0.00000000000E+00  0.96001822650E+01  0.12536723443E+03  0.12499911987E+03 0.  0.
    9000005    1    3    3    0    0  0.35576367261E+02 -0.90539341076E+01 -0.45921000649E+02  0.58799574241E+02  0.10000000000E+01 0.  0.
    9000005    1    3    3    0    0 -0.35576367261E+02  0.90539341076E+01  0.55521182914E+02  0.66567660185E+02  0.10000000000E+01 0.  0.
<mgrwt>
<rscale>  0 0.12499912E+03</rscale>
<asrwt>0</asrwt>
<pdfrwt beam="1">  1        4 0.10382109E-01 0.12499912E+03</pdfrwt>
<pdfrwt beam="2">  1       -4 0.89051578E-02 0.12499912E+03</pdfrwt>
<totfact> 0.10445099E+04</totfact>
</mgrwt>
</event>
<event>
 5    1  0.3286491E-002  0.1249992E+03  0.7818608E-02  0.1235071E+00
         -4   -1    0    0    0  501 -0.00000000000E+00  0.00000000000E+00  0.80951844502E+02  0.80961805985E+02  0.12700000000E+01 0.  1.
          4   -1    0    0  501    0  0.00000000000E+00 -0.00000000000E+00 -0.48232095957E+02  0.48248813254E+02  0.12700000000E+01 0.  1.
         25    2    1    2    0    0  0.00000000000E+00  0.00000000000E+00  0.32719748546E+02  0.12921061924E+03  0.12499920871E+03 0.  0.
    9000005    1    3    3    0    0  0.18081411380E+02  0.38762179813E+02 -0.30735597285E+02  0.52679416871E+02  0.10000000000E+01 0.  0.
    9000005    1    3    3    0    0 -0.18081411380E+02 -0.38762179813E+02  0.63455345831E+02  0.76531202368E+02  0.10000000000E+01 0.  0.
<mgrwt>
<rscale>  0 0.12499921E+03</rscale>
<asrwt>0</asrwt>
<pdfrwt beam="2">  1        4 0.74223747E-02 0.12499921E+03</pdfrwt>
<pdfrwt beam="1">  1       -4 0.12456182E-01 0.12499921E+03</pdfrwt>
<totfact> 0.10361608E+04</totfact>
</mgrwt>
</event>
<event>
 5    1  0.3286491E-002  0.1249731E+03  0.7818608E-02  0.1235111E+00
         -4   -1    0    0    0  501 -0.00000000000E+00  0.00000000000E+00  0.20390879005E+03  0.20391274496E+03  0.12700000000E+01 0. -1.
          4   -1    0    0  501    0  0.00000000000E+00 -0.00000000000E+00 -0.19123391279E+02  0.19165515751E+02  0.12700000000E+01 0. -1.
         25    2    1    2    0    0  0.00000000000E+00  0.00000000000E+00  0.18478539877E+03  0.22307826071E+03  0.12497306432E+03 0.  0.
    9000005    1    3    3    0    0  0.71570482263E+00 -0.29850108107E+02 -0.55721227082E+01  0.30390619257E+02  0.10000000000E+01 0.  0.
    9000005    1    3    3    0    0 -0.71570482263E+00  0.29850108107E+02  0.19035752148E+03  0.19268764146E+03  0.10000000000E+01 0.  0.
<mgrwt>
<rscale>  0 0.12497306E+03</rscale>
<asrwt>0</asrwt>
<pdfrwt beam="2">  1        4 0.29456048E-02 0.12497306E+03</pdfrwt>
<pdfrwt beam="1">  1       -4 0.31374127E-01 0.12497306E+03</pdfrwt>
<totfact> 0.86435566E+03</totfact>
</mgrwt>
</event>
<event>
 5    1  0.3286491E-002  0.1250039E+03  0.7818608E-02  0.1235063E+00
          4   -1    0    0  501    0  0.00000000000E+00  0.00000000000E+00  0.12483000876E+03  0.12483646898E+03  0.12700000000E+01 0.  1.
         -4   -1    0    0    0  501 -0.00000000000E+00 -0.00000000000E+00 -0.31274325859E+02  0.31300101564E+02  0.12700000000E+01 0.  1.
         25    2    1    2    0    0  0.00000000000E+00  0.00000000000E+00  0.93555682903E+02  0.15613657054E+03  0.12500385137E+03 0.  0.
    9000005    1    3    3    0    0  0.83003372851E+01 -0.55074847566E+02  0.82180456192E+02  0.99281225885E+02  0.10000000000E+01 0.  0.
    9000005    1    3    3    0    0 -0.83003372851E+01  0.55074847566E+02  0.11375226711E+02  0.56855344658E+02  0.10000000000E+01 0.  0.
<mgrwt>
<rscale>  0 0.12500385E+03</rscale>
<asrwt>0</asrwt>
<pdfrwt beam="1">  1        4 0.19207097E-01 0.12500385E+03</pdfrwt>
<pdfrwt beam="2">  1       -4 0.48139143E-02 0.12500385E+03</pdfrwt>
<totfact> 0.98084341E+03</totfact>
</mgrwt>
</event>
<event>
 5    1  0.3286491E-002  0.1249999E+03  0.7818608E-02  0.1235069E+00
          4   -1    0    0  501    0  0.00000000000E+00  0.00000000000E+00  0.20144344219E+03  0.20144744551E+03  0.12700000000E+01 0. -1.
         -4   -1    0    0    0  501 -0.00000000000E+00 -0.00000000000E+00 -0.19366264436E+02  0.19407861763E+02  0.12700000000E+01 0. -1.
         25    2    1    2    0    0  0.00000000000E+00  0.00000000000E+00  0.18207717775E+03  0.22085530727E+03  0.12499987236E+03 0.  0.
    9000005    1    3    3    0    0  0.38267234311E+02  0.25566958798E+02  0.16573226010E+03  0.17200649012E+03  0.10000000000E+01 0.  0.
    9000005    1    3    3    0    0 -0.38267234311E+02 -0.25566958798E+02  0.16344917649E+02  0.48848817150E+02  0.10000000000E+01 0.  0.
<mgrwt>
<rscale>  0 0.12499987E+03</rscale>
<asrwt>0</asrwt>
<pdfrwt beam="1">  1        4 0.30994808E-01 0.12499987E+03</pdfrwt>
<pdfrwt beam="2">  1       -4 0.29829329E-02 0.12499987E+03</pdfrwt>
<totfact> 0.86733434E+03</totfact>
</mgrwt>
</event>
<event>
 5    1  0.3286491E-002  0.1249937E+03  0.7818608E-02  0.1235079E+00
          4   -1    0    0  501    0  0.00000000000E+00  0.00000000000E+00  0.15884221248E+02  0.15934910877E+02  0.12700000000E+01 0.  1.
         -4   -1    0    0    0  501 -0.00000000000E+00 -0.00000000000E+00 -0.24545142050E+03  0.24545470605E+03  0.12700000000E+01 0.  1.
         25    2    1    2    0    0  0.00000000000E+00  0.00000000000E+00 -0.22956719925E+03  0.26138961693E+03  0.12499373132E+03 0.  0.
    9000005    1    3    3    0    0  0.29911614402E+02 -0.44911835517E+02 -0.48882548419E+02  0.72816764454E+02  0.10000000000E+01 0.  0.
    9000005    1    3    3    0    0 -0.29911614402E+02  0.44911835517E+02 -0.18068465083E+03  0.18857285248E+03  0.10000000000E+01 0.  0.
<mgrwt>
<rscale>  0 0.12499373E+03</rscale>
<asrwt>0</asrwt>
<pdfrwt beam="1">  1        4 0.24478785E-02 0.12499373E+03</pdfrwt>
<pdfrwt beam="2">  1       -4 0.37765906E-01 0.12499373E+03</pdfrwt>
<totfact> 0.80722706E+03</totfact>
</mgrwt>
</event>
<event>
 5    1  0.3286491E-002  0.1250005E+03  0.7818608E-02  0.1235068E+00
         -4   -1    0    0    0  501 -0.00000000000E+00  0.00000000000E+00  0.62127061185E+01  0.63411842202E+01  0.12700000000E+01 0.  1.
          4   -1    0    0  501    0  0.00000000000E+00 -0.00000000000E+00 -0.62219297763E+03  0.62219427377E+03  0.12700000000E+01 0.  1.
         25    2    1    2    0    0  0.00000000000E+00  0.00000000000E+00 -0.61598027151E+03  0.62853545799E+03  0.12500050824E+03 0.  0.
    9000005    1    3    3    0    0 -0.53862564852E+02 -0.13466849857E+02 -0.16376136437E+03  0.17291997108E+03  0.10000000000E+01 0.  0.
    9000005    1    3    3    0    0  0.53862564852E+02  0.13466849857E+02 -0.45221890714E+03  0.45561548691E+03  0.10000000000E+01 0.  0.
<mgrwt>
<rscale>  0 0.12500051E+03</rscale>
<asrwt>0</asrwt>
<pdfrwt beam="2">  1        4 0.95731930E-01 0.12500051E+03</pdfrwt>
<pdfrwt beam="1">  1       -4 0.96578407E-03 0.12500051E+03</pdfrwt>
<totfact> 0.47114021E+03</totfact>
</mgrwt>
</event>
<event>
 5    1  0.3286491E-002  0.1249981E+03  0.7818608E-02  0.1235072E+00
         -4   -1    0    0    0  501 -0.00000000000E+00  0.00000000000E+00  0.75625115857E+02  0.75635778890E+02  0.12700000000E+01 0.  1.
          4   -1    0    0  501    0  0.00000000000E+00 -0.00000000000E+00 -0.51629124495E+02  0.51644742193E+02  0.12700000000E+01 0.  1.
         25    2    1    2    0    0  0.00000000000E+00  0.00000000000E+00  0.23995991362E+02  0.12728052108E+03  0.12499809377E+03 0.  0.
    9000005    1    3    3    0    0 -0.35508531477E+02 -0.41128701533E+02 -0.19431525783E+02  0.57714903549E+02  0.10000000000E+01 0.  0.
    9000005    1    3    3    0    0  0.35508531477E+02  0.41128701533E+02  0.43427517144E+02  0.69565617533E+02  0.10000000000E+01 0.  0.
<mgrwt>
<rscale>  0 0.12499809E+03</rscale>
<asrwt>0</asrwt>
<pdfrwt beam="2">  1        4 0.79449638E-02 0.12499809E+03</pdfrwt>
<pdfrwt beam="1">  1       -4 0.11636655E-01 0.12499809E+03</pdfrwt>
<totfact> 0.10403505E+04</totfact>
</mgrwt>
</event>
<event>
 5    1  0.3286491E-002  0.1249990E+03  0.7818608E-02  0.1235071E+00
         -4   -1    0    0    0  501 -0.00000000000E+00  0.00000000000E+00  0.59960034347E+03  0.59960168845E+03  0.12700000000E+01 0.  1.
          4   -1    0    0  501    0  0.00000000000E+00 -0.00000000000E+00 -0.64513901785E+01  0.65752060983E+01  0.12700000000E+01 0.  1.
         25    2    1    2    0    0  0.00000000000E+00  0.00000000000E+00  0.59314895329E+03  0.60617689455E+03  0.12499898676E+03 0.  0.
    9000005    1    3    3    0    0 -0.14443046134E+02 -0.52411972875E+02  0.44601088540E+03  0.44931317183E+03  0.10000000000E+01 0.  0.
    9000005    1    3    3    0    0  0.14443046134E+02  0.52411972875E+02  0.14713806789E+03  0.15686372272E+03  0.10000000000E+01 0.  0.
<mgrwt>
<rscale>  0 0.12499899E+03</rscale>
<asrwt>0</asrwt>
<pdfrwt beam="2">  1        4 0.10021491E-02 0.12499899E+03</pdfrwt>
<pdfrwt beam="1">  1       -4 0.92255852E-01 0.12499899E+03</pdfrwt>
<totfact> 0.48481083E+03</totfact>
</mgrwt>
</event>
<event>
 5    1  0.3286491E-002  0.1250062E+03  0.7818608E-02  0.1235060E+00
          4   -1    0    0  501    0  0.00000000000E+00  0.00000000000E+00  0.26001658043E+01  0.28937453603E+01  0.12700000000E+01 0. -1.
         -4   -1    0    0    0  501 -0.00000000000E+00 -0.00000000000E+00 -0.14218761753E+04  0.14218767425E+04  0.12700000000E+01 0. -1.
         25    2    1    2    0    0  0.00000000000E+00  0.00000000000E+00 -0.14192760095E+04  0.14247704879E+04  0.12500620733E+03 0.  0.
    9000005    1    3    3    0    0  0.60695967639E+02 -0.42333982694E+01 -0.87231483786E+03  0.87443473084E+03  0.10000000000E+01 0.  0.
    9000005    1    3    3    0    0 -0.60695967639E+02  0.42333982694E+01 -0.54696117168E+03  0.55033575703E+03  0.10000000000E+01 0.  0.
<mgrwt>
<rscale>  0 0.12500621E+03</rscale>
<asrwt>0</asrwt>
<pdfrwt beam="1">  1        4 0.42265332E-03 0.12500621E+03</pdfrwt>
<pdfrwt beam="2">  1       -4 0.21877222E+00 0.12500621E+03</pdfrwt>
<totfact> 0.19452968E+03</totfact>
</mgrwt>
</event>
<event>
 5    1  0.3286491E-002  0.1249927E+03  0.7818608E-02  0.1235081E+00
          4   -1    0    0  501    0  0.00000000000E+00  0.00000000000E+00  0.16162090544E+02  0.16211911385E+02  0.12700000000E+01 0. -1.
         -4   -1    0    0    0  501 -0.00000000000E+00 -0.00000000000E+00 -0.24124057758E+03  0.24124392049E+03  0.12700000000E+01 0. -1.
         25    2    1    2    0    0  0.00000000000E+00  0.00000000000E+00 -0.22507848704E+03  0.25745583187E+03  0.12499271994E+03 0.  0.
    9000005    1    3    3    0    0  0.38482924818E+02 -0.47101872801E+02 -0.83028237112E+02  0.10292817924E+03  0.10000000000E+01 0.  0.
    9000005    1    3    3    0    0 -0.38482924818E+02  0.47101872801E+02 -0.14205024993E+03  0.15452765263E+03  0.10000000000E+01 0.  0.
<mgrwt>
<rscale>  0 0.12499272E+03</rscale>
<asrwt>0</asrwt>
<pdfrwt beam="1">  1        4 0.24905652E-02 0.12499272E+03</pdfrwt>
<pdfrwt beam="2">  1       -4 0.37118022E-01 0.12499272E+03</pdfrwt>
<totfact> 0.81277604E+03</totfact>
</mgrwt>
</event>
<event>
 5    1  0.3286491E-002  0.1249948E+03  0.7818608E-02  0.1235077E+00
          4   -1    0    0  501    0  0.00000000000E+00  0.00000000000E+00  0.75587784908E+02  0.75598453207E+02  0.12700000000E+01 0.  1.
         -4   -1    0    0    0  501 -0.00000000000E+00 -0.00000000000E+00 -0.51651940142E+02  0.51667550943E+02  0.12700000000E+01 0.  1.
         25    2    1    2    0    0  0.00000000000E+00  0.00000000000E+00  0.23935844766E+02  0.12726600415E+03  0.12499484448E+03 0.  0.
    9000005    1    3    3    0    0  0.33744455516E+02 -0.50644937427E+02 -0.24789675045E+01  0.60915870222E+02  0.10000000000E+01 0.  0.
    9000005    1    3    3    0    0 -0.33744455516E+02  0.50644937427E+02  0.26414812271E+02  0.66350133928E+02  0.10000000000E+01 0.  0.
<mgrwt>
<rscale>  0 0.12499484E+03</rscale>
<asrwt>0</asrwt>
<pdfrwt beam="1">  1        4 0.11630911E-01 0.12499484E+03</pdfrwt>
<pdfrwt beam="2">  1       -4 0.79484738E-02 0.12499484E+03</pdfrwt>
<totfact> 0.10404583E+04</totfact>
</mgrwt>
</event>
<event>
 5    1  0.3286491E-002  0.1249987E+03  0.7818608E-02  0.1235071E+00
          4   -1    0    0  501    0  0.00000000000E+00  0.00000000000E+00  0.49019024339E+03  0.49019188856E+03  0.12700000000E+01 0. -1.
         -4   -1    0    0    0  501 -0.00000000000E+00 -0.00000000000E+00 -0.79164116189E+01  0.80176351202E+01  0.12700000000E+01 0. -1.
         25    2    1    2    0    0  0.00000000000E+00  0.00000000000E+00  0.48227383177E+03  0.49820952368E+03  0.12499872271E+03 0.  0.
    9000005    1    3    3    0    0  0.25830945288E+02 -0.38878190913E+02  0.40674423109E+03  0.40941497407E+03  0.10000000000E+01 0.  0.
    9000005    1    3    3    0    0 -0.25830945288E+02  0.38878190913E+02  0.75529600676E+02  0.88794549616E+02  0.10000000000E+01 0.  0.
<mgrwt>
<rscale>  0 0.12499872E+03</rscale>
<asrwt>0</asrwt>
<pdfrwt beam="1">  1        4 0.75421811E-01 0.12499872E+03</pdfrwt>
<pdfrwt beam="2">  1       -4 0.12258222E-02 0.12499872E+03</pdfrwt>
<totfact> 0.56005118E+03</totfact>
</mgrwt>
</event>
<event>
 5    1  0.3286491E-002  0.1249770E+03  0.7818608E-02  0.1235105E+00
         -4   -1    0    0    0  501 -0.00000000000E+00  0.00000000000E+00  0.25936727964E+02  0.25967802323E+02  0.12700000000E+01 0.  1.
          4   -1    0    0  501    0  0.00000000000E+00 -0.00000000000E+00 -0.15042747929E+03  0.15043284025E+03  0.12700000000E+01 0.  1.
         25    2    1    2    0    0  0.00000000000E+00  0.00000000000E+00 -0.12449075132E+03  0.17640064257E+03  0.12497695601E+03 0.  0.
    9000005    1    3    3    0    0  0.35870963293E+02  0.18387702592E+02 -0.12962678985E+03  0.13575322560E+03  0.10000000000E+01 0.  0.
    9000005    1    3    3    0    0 -0.35870963293E+02 -0.18387702592E+02  0.51360385302E+01  0.40647416966E+02  0.10000000000E+01 0.  0.
<mgrwt>
<rscale>  0 0.12497696E+03</rscale>
<asrwt>0</asrwt>
<pdfrwt beam="2">  1        4 0.23145491E-01 0.12497696E+03</pdfrwt>
<pdfrwt beam="1">  1       -4 0.39930687E-02 0.12497696E+03</pdfrwt>
<totfact> 0.94317683E+03</totfact>
</mgrwt>
</event>
<event>
 5    1  0.3286491E-002  0.1250008E+03  0.7818608E-02  0.1235068E+00
         -4   -1    0    0    0  501 -0.00000000000E+00  0.00000000000E+00  0.20041709086E+03  0.20042111468E+03  0.12700000000E+01 0. -1.
          4   -1    0    0  501    0  0.00000000000E+00 -0.00000000000E+00 -0.19465942826E+02  0.19507327600E+02  0.12700000000E+01 0. -1.
         25    2    1    2    0    0  0.00000000000E+00  0.00000000000E+00  0.18095114804E+03  0.21992844228E+03  0.12500080699E+03 0.  0.
    9000005    1    3    3    0    0  0.61637266715E+02  0.31010683706E+01  0.10776188624E+03  0.12418692926E+03  0.10000000000E+01 0.  0.
    9000005    1    3    3    0    0 -0.61637266715E+02 -0.31010683706E+01  0.73189261793E+02  0.95741513018E+02  0.10000000000E+01 0.  0.
<mgrwt>
<rscale>  0 0.12500081E+03</rscale>
<asrwt>0</asrwt>
<pdfrwt beam="2">  1        4 0.29982533E-02 0.12500081E+03</pdfrwt>
<pdfrwt beam="1">  1       -4 0.30836893E-01 0.12500081E+03</pdfrwt>
<totfact> 0.86878106E+03</totfact>
</mgrwt>
</event>
<event>
 5    1  0.3286491E-002  0.1250008E+03  0.7818608E-02  0.1235068E+00
          4   -1    0    0  501    0  0.00000000000E+00  0.00000000000E+00  0.27159947888E+02  0.27189624294E+02  0.12700000000E+01 0.  1.
         -4   -1    0    0    0  501 -0.00000000000E+00 -0.00000000000E+00 -0.14371474451E+03  0.14372035587E+03  0.12700000000E+01 0.  1.
         25    2    1    2    0    0  0.00000000000E+00  0.00000000000E+00 -0.11655479662E+03  0.17090998016E+03  0.12500080281E+03 0.  0.
    9000005    1    3    3    0    0 -0.59294739650E+02  0.18734875036E+02 -0.49800485038E+02  0.79674023388E+02  0.10000000000E+01 0.  0.
    9000005    1    3    3    0    0  0.59294739650E+02 -0.18734875036E+02 -0.66754311587E+02  0.91235956773E+02  0.10000000000E+01 0.  0.
<mgrwt>
<rscale>  0 0.12500080E+03</rscale>
<asrwt>0</asrwt>
<pdfrwt beam="1">  1        4 0.41811680E-02 0.12500080E+03</pdfrwt>
<pdfrwt beam="2">  1       -4 0.22112675E-01 0.12500080E+03</pdfrwt>
<totfact> 0.95277584E+03</totfact>
</mgrwt>
</event>
<event>
 5    1  0.3286491E-002  0.1250013E+03  0.7818608E-02  0.1235067E+00
          4   -1    0    0  501    0  0.00000000000E+00  0.00000000000E+00  0.50301565520E+03  0.50301725843E+03  0.12700000000E+01 0. -1.
         -4   -1    0    0    0  501 -0.00000000000E+00 -0.00000000000E+00 -0.77122716990E+01  0.78161393769E+01  0.12700000000E+01 0. -1.
         25    2    1    2    0    0  0.00000000000E+00  0.00000000000E+00  0.49530338350E+03  0.51083339780E+03  0.12500127441E+03 0.  0.
    9000005    1    3    3    0    0  0.29031100468E+01  0.54422817345E+02  0.37261549852E+03  0.37658143985E+03  0.10000000000E+01 0.  0.
    9000005    1    3    3    0    0 -0.29031100468E+01 -0.54422817345E+02  0.12268788497E+03  0.13425195796E+03  0.10000000000E+01 0.  0.
<mgrwt>
<rscale>  0 0.12500127E+03</rscale>
<asrwt>0</asrwt>
<pdfrwt beam="1">  1        4 0.77395137E-01 0.12500127E+03</pdfrwt>
<pdfrwt beam="2">  1       -4 0.11946165E-02 0.12500127E+03</pdfrwt>
<totfact> 0.55031974E+03</totfact>
</mgrwt>
</event>
<event>
 5    1  0.3286491E-002  0.1250017E+03  0.7818608E-02  0.1235067E+00
         -4   -1    0    0    0  501 -0.00000000000E+00  0.00000000000E+00  0.29574313245E+03  0.29574585929E+03  0.12700000000E+01 0. -1.
          4   -1    0    0  501    0  0.00000000000E+00 -0.00000000000E+00 -0.13175291501E+02  0.13236359248E+02  0.12700000000E+01 0. -1.
         25    2    1    2    0    0  0.00000000000E+00  0.00000000000E+00  0.28256784094E+03  0.30898221854E+03  0.12500170654E+03 0.  0.
    9000005    1    3    3    0    0  0.48221014883E+01  0.27025111595E+02  0.28005317094E+03  0.28139720658E+03  0.10000000000E+01 0.  0.
    9000005    1    3    3    0    0 -0.48221014883E+01 -0.27025111595E+02  0.25146700045E+01  0.27585011958E+02  0.10000000000E+01 0.  0.
<mgrwt>
<rscale>  0 0.12500171E+03</rscale>
<asrwt>0</asrwt>
<pdfrwt beam="2">  1        4 0.20318751E-02 0.12500171E+03</pdfrwt>
<pdfrwt beam="1">  1       -4 0.45503854E-01 0.12500171E+03</pdfrwt>
<totfact> 0.74482940E+03</totfact>
</mgrwt>
</event>
<event>
 5    1  0.3286491E-002  0.1250007E+03  0.7818608E-02  0.1235068E+00
          4   -1    0    0  501    0  0.00000000000E+00  0.00000000000E+00  0.12438657399E+03  0.12439305724E+03  0.12700000000E+01 0.  1.
         -4   -1    0    0    0  501 -0.00000000000E+00 -0.00000000000E+00 -0.31384307333E+02  0.31409992785E+02  0.12700000000E+01 0.  1.
         25    2    1    2    0    0  0.00000000000E+00  0.00000000000E+00  0.93002266658E+02  0.15580305002E+03  0.12500067517E+03 0.  0.
    9000005    1    3    3    0    0  0.33126119028E+02 -0.24775075849E+02 -0.11883231639E+02  0.43050613694E+02  0.10000000000E+01 0.  0.
    9000005    1    3    3    0    0 -0.33126119028E+02  0.24775075849E+02  0.10488549830E+03  0.11275243633E+03  0.10000000000E+01 0.  0.
<mgrwt>
<rscale>  0 0.12500068E+03</rscale>
<asrwt>0</asrwt>
<pdfrwt beam="1">  1        4 0.19138871E-01 0.12500068E+03</pdfrwt>
<pdfrwt beam="2">  1       -4 0.48308294E-02 0.12500068E+03</pdfrwt>
<totfact> 0.98156590E+03</totfact>
</mgrwt>
</event>
<event>
 5    1  0.3286491E-002  0.1250006E+03  0.7818608E-02  0.1235068E+00
         -4   -1    0    0    0  501 -0.00000000000E+00  0.00000000000E+00  0.50578650851E+02  0.50594592813E+02  0.12700000000E+01 0. -1.
          4   -1    0    0  501    0  0.00000000000E+00 -0.00000000000E+00 -0.77198549890E+02  0.77208995623E+02  0.12700000000E+01 0. -1.
         25    2    1    2    0    0  0.00000000000E+00  0.00000000000E+00 -0.26619899039E+02  0.12780358844E+03  0.12500055277E+03 0.  0.
    9000005    1    3    3    0    0 -0.40423949967E+02  0.94782686156E+01  0.34442308789E+02  0.53955592310E+02  0.10000000000E+01 0.  0.
    9000005    1    3    3    0    0  0.40423949967E+02 -0.94782686156E+01 -0.61062207828E+02  0.73847996125E+02  0.10000000000E+01 0.  0.
<mgrwt>
<rscale>  0 0.12500055E+03</rscale>
<asrwt>0</asrwt>
<pdfrwt beam="2">  1        4 0.11878730E-01 0.12500055E+03</pdfrwt>
<pdfrwt beam="1">  1       -4 0.77833607E-02 0.12500055E+03</pdfrwt>
<totfact> 0.10391602E+04</totfact>
</mgrwt>
</event>
<event>
 5    1  0.3286491E-002  0.1249956E+03  0.7818608E-02  0.1235076E+00
          4   -1    0    0  501    0  0.00000000000E+00  0.00000000000E+00  0.57918171046E+03  0.57918310285E+03  0.12700000000E+01 0. -1.
         -4   -1    0    0    0  501 -0.00000000000E+00 -0.00000000000E+00 -0.66827512433E+01  0.68023572517E+01  0.12700000000E+01 0. -1.
         25    2    1    2    0    0  0.00000000000E+00  0.00000000000E+00  0.57249895921E+03  0.58598546010E+03  0.12499560453E+03 0.  0.
    9000005    1    3    3    0    0 -0.61095419126E+02  0.11161764820E+02  0.31864116600E+03  0.32463891927E+03  0.10000000000E+01 0.  0.
    9000005    1    3    3    0    0  0.61095419126E+02 -0.11161764820E+02  0.25385779321E+03  0.26134654083E+03  0.10000000000E+01 0.  0.
<mgrwt>
<rscale>  0 0.12499560E+03</rscale>
<asrwt>0</asrwt>
<pdfrwt beam="1">  1        4 0.89114194E-01 0.12499560E+03</pdfrwt>
<pdfrwt beam="2">  1       -4 0.10374231E-02 0.12499560E+03</pdfrwt>
<totfact> 0.49769163E+03</totfact>
</mgrwt>
</event>
<event>
 5    1  0.3286491E-002  0.1250013E+03  0.7818608E-02  0.1235067E+00
         -4   -1    0    0    0  501 -0.00000000000E+00  0.00000000000E+00  0.19864315345E+02  0.19904871869E+02  0.12700000000E+01 0. -1.
          4   -1    0    0  501    0  0.00000000000E+00 -0.00000000000E+00 -0.19640743861E+03  0.19641154457E+03  0.12700000000E+01 0. -1.
         25    2    1    2    0    0  0.00000000000E+00  0.00000000000E+00 -0.17654312326E+03  0.21631641644E+03  0.12500127059E+03 0.  0.
    9000005    1    3    3    0    0  0.42495804985E+02  0.45786206294E+02 -0.91298370302E+02  0.11062848886E+03  0.10000000000E+01 0.  0.
    9000005    1    3    3    0    0 -0.42495804985E+02 -0.45786206294E+02 -0.85244752959E+02  0.10568792758E+03  0.10000000000E+01 0.  0.
<mgrwt>
<rscale>  0 0.12500127E+03</rscale>
<asrwt>0</asrwt>
<pdfrwt beam="2">  1        4 0.30219963E-01 0.12500127E+03</pdfrwt>
<pdfrwt beam="1">  1       -4 0.30594842E-02 0.12500127E+03</pdfrwt>
<totfact> 0.87452123E+03</totfact>
</mgrwt>
</event>
<event>
 5    1  0.3286491E-002  0.1250020E+03  0.7818608E-02  0.1235066E+00
         -4   -1    0    0    0  501 -0.00000000000E+00  0.00000000000E+00  0.49652604050E+02  0.49668843241E+02  0.12700000000E+01 0.  1.
          4   -1    0    0  501    0  0.00000000000E+00 -0.00000000000E+00 -0.78639940009E+02  0.78650194308E+02  0.12700000000E+01 0.  1.
         25    2    1    2    0    0  0.00000000000E+00  0.00000000000E+00 -0.28987335959E+02  0.12831903755E+03  0.12500203899E+03 0.  0.
    9000005    1    3    3    0    0  0.21064970585E+02 -0.34004073329E+02  0.34794658763E+02  0.53025260652E+02  0.10000000000E+01 0.  0.
    9000005    1    3    3    0    0 -0.21064970585E+02  0.34004073329E+02 -0.63781994723E+02  0.75293776898E+02  0.10000000000E+01 0.  0.
<mgrwt>
<rscale>  0 0.12500204E+03</rscale>
<asrwt>0</asrwt>
<pdfrwt beam="2">  1        4 0.12100490E-01 0.12500204E+03</pdfrwt>
<pdfrwt beam="1">  1       -4 0.76409002E-02 0.12500204E+03</pdfrwt>
<totfact> 0.10380126E+04</totfact>
</mgrwt>
</event>
<event>
 5    1  0.3286491E-002  0.1249760E+03  0.7818608E-02  0.1235107E+00
          4   -1    0    0  501    0  0.00000000000E+00  0.00000000000E+00  0.45312046185E+01  0.47058171761E+01  0.12700000000E+01 0.  1.
         -4   -1    0    0    0  501 -0.00000000000E+00 -0.00000000000E+00 -0.84528115655E+03  0.84528211061E+03  0.12700000000E+01 0.  1.
         25    2    1    2    0    0  0.00000000000E+00  0.00000000000E+00 -0.84074995193E+03  0.84998792778E+03  0.12497598053E+03 0.  0.
    9000005    1    3    3    0    0 -0.60299600682E+02 -0.15902804129E+02 -0.39420320987E+03  0.39910664200E+03  0.10000000000E+01 0.  0.
    9000005    1    3    3    0    0  0.60299600682E+02  0.15902804129E+02 -0.44654674206E+03  0.45088128578E+03  0.10000000000E+01 0.  0.
<mgrwt>
<rscale>  0 0.12497598E+03</rscale>
<asrwt>0</asrwt>
<pdfrwt beam="1">  1        4 0.71061420E-03 0.12497598E+03</pdfrwt>
<pdfrwt beam="2">  1       -4 0.13005664E+00 0.12497598E+03</pdfrwt>
<totfact> 0.36146803E+03</totfact>
</mgrwt>
</event>
<event>
 5    1  0.3286491E-002  0.1250482E+03  0.7818608E-02  0.1234994E+00
          4   -1    0    0  501    0  0.00000000000E+00  0.00000000000E+00  0.26904620785E+02  0.26934578511E+02  0.12700000000E+01 0.  1.
         -4   -1    0    0    0  501 -0.00000000000E+00 -0.00000000000E+00 -0.14518714818E+03  0.14519270262E+03  0.12700000000E+01 0.  1.
         25    2    1    2    0    0  0.00000000000E+00  0.00000000000E+00 -0.11828252739E+03  0.17212728114E+03  0.12504816922E+03 0.  0.
    9000005    1    3    3    0    0 -0.16351763666E+02  0.87997819180E+01 -0.14131014799E+03  0.14252850333E+03  0.10000000000E+01 0.  0.
    9000005    1    3    3    0    0  0.16351763666E+02 -0.87997819180E+01  0.23027620602E+02  0.29598777802E+02  0.10000000000E+01 0.  0.
<mgrwt>
<rscale>  0 0.12504817E+03</rscale>
<asrwt>0</asrwt>
<pdfrwt beam="1">  1        4 0.41419042E-02 0.12504817E+03</pdfrwt>
<pdfrwt beam="2">  1       -4 0.22339216E-01 0.12504817E+03</pdfrwt>
<totfact> 0.94950949E+03</totfact>
</mgrwt>
</event>
<event>
 5    1  0.3286491E-002  0.1250007E+03  0.7818608E-02  0.1235068E+00
          4   -1    0    0  501    0  0.00000000000E+00  0.00000000000E+00  0.27695622905E+03  0.27695914087E+03  0.12700000000E+01 0.  1.
         -4   -1    0    0    0  501 -0.00000000000E+00 -0.00000000000E+00 -0.14072790983E+02  0.14129980398E+02  0.12700000000E+01 0.  1.
         25    2    1    2    0    0  0.00000000000E+00  0.00000000000E+00  0.26288343807E+03  0.29108912127E+03  0.12500069803E+03 0.  0.
    9000005    1    3    3    0    0  0.61790213416E+02 -0.87912263182E+01  0.12408601486E+03  0.13890160265E+03  0.10000000000E+01 0.  0.
    9000005    1    3    3    0    0 -0.61790213416E+02  0.87912263182E+01  0.13879742321E+03  0.15218751862E+03  0.10000000000E+01 0.  0.
<mgrwt>
<rscale>  0 0.12500070E+03</rscale>
<asrwt>0</asrwt>
<pdfrwt beam="1">  1        4 0.42613271E-01 0.12500070E+03</pdfrwt>
<pdfrwt beam="2">  1       -4 0.21696681E-02 0.12500070E+03</pdfrwt>
<totfact> 0.76729184E+03</totfact>
</mgrwt>
</event>
<event>
 5    1  0.3286491E-002  0.1249950E+03  0.7818608E-02  0.1235077E+00
          4   -1    0    0  501    0  0.00000000000E+00  0.00000000000E+00  0.50639885752E+02  0.50655808443E+02  0.12700000000E+01 0. -1.
         -4   -1    0    0    0  501 -0.00000000000E+00 -0.00000000000E+00 -0.77098406639E+02  0.77108865939E+02  0.12700000000E+01 0. -1.
         25    2    1    2    0    0  0.00000000000E+00  0.00000000000E+00 -0.26458520887E+02  0.12776467438E+03  0.12499503467E+03 0.  0.
    9000005    1    3    3    0    0 -0.47901267825E+02  0.31431884966E+02 -0.38730920965E+02  0.69163423068E+02  0.10000000000E+01 0.  0.
    9000005    1    3    3    0    0  0.47901267825E+02 -0.31431884966E+02  0.12272400077E+02  0.58601251313E+02  0.10000000000E+01 0.  0.
<mgrwt>
<rscale>  0 0.12499503E+03</rscale>
<asrwt>0</asrwt>
<pdfrwt beam="1">  1        4 0.77927811E-02 0.12499503E+03</pdfrwt>
<pdfrwt beam="2">  1       -4 0.11863323E-01 0.12499503E+03</pdfrwt>
<totfact> 0.10393738E+04</totfact>
</mgrwt>
</event>
<event>
 5    1  0.3286491E-002  0.1249962E+03  0.7818608E-02  0.1235075E+00
         -4   -1    0    0    0  501 -0.00000000000E+00  0.00000000000E+00  0.20997351711E+03  0.20997735779E+03  0.12700000000E+01 0.  1.
          4   -1    0    0  501    0  0.00000000000E+00 -0.00000000000E+00 -0.18576700656E+02  0.18620061956E+02  0.12700000000E+01 0.  1.
         25    2    1    2    0    0  0.00000000000E+00  0.00000000000E+00  0.19139681645E+03  0.22859741975E+03  0.12499615582E+03 0.  0.
    9000005    1    3    3    0    0 -0.46037549642E+02 -0.29388417372E+02  0.15122622688E+03  0.16079025701E+03  0.10000000000E+01 0.  0.
    9000005    1    3    3    0    0  0.46037549642E+02  0.29388417372E+02  0.40170589573E+02  0.67807162744E+02  0.10000000000E+01 0.  0.
<mgrwt>
<rscale>  0 0.12499616E+03</rscale>
<asrwt>0</asrwt>
<pdfrwt beam="2">  1        4 0.28615849E-02 0.12499616E+03</pdfrwt>
<pdfrwt beam="1">  1       -4 0.32307249E-01 0.12499616E+03</pdfrwt>
<totfact> 0.85532767E+03</totfact>
</mgrwt>
</event>
<event>
 5    1  0.3286491E-002  0.1249981E+03  0.7818608E-02  0.1235072E+00
          4   -1    0    0  501    0  0.00000000000E+00  0.00000000000E+00  0.27609206849E+02  0.27638400874E+02  0.12700000000E+01 0.  1.
         -4   -1    0    0    0  501 -0.00000000000E+00 -0.00000000000E+00 -0.14137254084E+03  0.14137824516E+03  0.12700000000E+01 0.  1.
         25    2    1    2    0    0  0.00000000000E+00  0.00000000000E+00 -0.11376333399E+03  0.16901664603E+03  0.12499812188E+03 0.  0.
    9000005    1    3    3    0    0  0.63684144467E+01  0.59459066690E+02 -0.81414788377E+02  0.10102131003E+03  0.10000000000E+01 0.  0.
    9000005    1    3    3    0    0 -0.63684144467E+01 -0.59459066690E+02 -0.32348545614E+02  0.67995335998E+02  0.10000000000E+01 0.  0.
<mgrwt>
<rscale>  0 0.12499812E+03</rscale>
<asrwt>0</asrwt>
<pdfrwt beam="1">  1        4 0.42502548E-02 0.12499812E+03</pdfrwt>
<pdfrwt beam="2">  1       -4 0.21752306E-01 0.12499812E+03</pdfrwt>
<totfact> 0.95636098E+03</totfact>
</mgrwt>
</event>
<event>
 5    1  0.3286491E-002  0.1250133E+03  0.7818608E-02  0.1235048E+00
          4   -1    0    0  501    0  0.00000000000E+00  0.00000000000E+00  0.12301520085E+04  0.12301526641E+04  0.12700000000E+01 0. -1.
         -4   -1    0    0    0  501 -0.00000000000E+00 -0.00000000000E+00 -0.30484592774E+01  0.33024239531E+01  0.12700000000E+01 0. -1.
         25    2    1    2    0    0  0.00000000000E+00  0.00000000000E+00  0.12271035492E+04  0.12334550880E+04  0.12501333390E+03 0.  0.
    9000005    1    3    3    0    0 -0.38903572474E+01  0.21791638740E+02  0.11902260464E+04  0.11904322963E+04  0.10000000000E+01 0.  0.
    9000005    1    3    3    0    0  0.38903572474E+01 -0.21791638740E+02  0.36877502826E+02  0.43022791787E+02  0.10000000000E+01 0.  0.
<mgrwt>
<rscale>  0 0.12501333E+03</rscale>
<asrwt>0</asrwt>
<pdfrwt beam="1">  1        4 0.18927338E+00 0.12501333E+03</pdfrwt>
<pdfrwt beam="2">  1       -4 0.48858084E-03 0.12501333E+03</pdfrwt>
<totfact> 0.23846601E+03</totfact>
</mgrwt>
</event>
<event>
 5    1  0.3286491E-002  0.1249896E+03  0.7818608E-02  0.1235086E+00
         -4   -1    0    0    0  501 -0.00000000000E+00  0.00000000000E+00  0.96055808987E+01  0.96891735665E+01  0.12700000000E+01 0.  1.
          4   -1    0    0  501    0  0.00000000000E+00 -0.00000000000E+00 -0.40475075931E+03  0.40475275177E+03  0.12700000000E+01 0.  1.
         25    2    1    2    0    0  0.00000000000E+00  0.00000000000E+00 -0.39514517841E+03  0.41444192533E+03  0.12498958937E+03 0.  0.
    9000005    1    3    3    0    0 -0.56286635862E+02  0.24106694475E+02 -0.15625362983E+03  0.16782584702E+03  0.10000000000E+01 0.  0.
    9000005    1    3    3    0    0  0.56286635862E+02 -0.24106694475E+02 -0.23889154858E+03  0.24661607831E+03  0.10000000000E+01 0.  0.
<mgrwt>
<rscale>  0 0.12498959E+03</rscale>
<asrwt>0</asrwt>
<pdfrwt beam="2">  1        4 0.62275918E-01 0.12498959E+03</pdfrwt>
<pdfrwt beam="1">  1       -4 0.14843655E-02 0.12498959E+03</pdfrwt>
<totfact> 0.63186528E+03</totfact>
</mgrwt>
</event>
<event>
 5    1  0.3286491E-002  0.1250080E+03  0.7818608E-02  0.1235057E+00
          4   -1    0    0  501    0  0.00000000000E+00  0.00000000000E+00  0.36582565859E+01  0.38724335047E+01  0.12700000000E+01 0.  1.
         -4   -1    0    0    0  501 -0.00000000000E+00 -0.00000000000E+00 -0.10373396017E+04  0.10373403792E+04  0.12700000000E+01 0.  1.
         25    2    1    2    0    0  0.00000000000E+00  0.00000000000E+00 -0.10336813452E+04  0.10412128127E+04  0.12500799150E+03 0.  0.
    9000005    1    3    3    0    0 -0.23097573037E+02 -0.44239392253E+01 -0.34562283232E+02  0.41816510384E+02  0.10000000000E+01 0.  0.
    9000005    1    3    3    0    0  0.23097573037E+02  0.44239392253E+01 -0.99911906193E+03  0.99939630229E+03  0.10000000000E+01 0.  0.
<mgrwt>
<rscale>  0 0.12500799E+03</rscale>
<asrwt>0</asrwt>
<pdfrwt beam="1">  1        4 0.57934448E-03 0.12500799E+03</pdfrwt>
<pdfrwt beam="2">  1       -4 0.15960701E+00 0.12500799E+03</pdfrwt>
<totfact> 0.29265676E+03</totfact>
</mgrwt>
</event>
<event>
 5    1  0.3286491E-002  0.1250168E+03  0.7818608E-02  0.1235043E+00
          4   -1    0    0  501    0  0.00000000000E+00  0.00000000000E+00  0.10935034290E+03  0.10935771758E+03  0.12700000000E+01 0. -1.
         -4   -1    0    0    0  501 -0.00000000000E+00 -0.00000000000E+00 -0.35712050471E+02  0.35734625349E+02  0.12700000000E+01 0. -1.
         25    2    1    2    0    0  0.00000000000E+00  0.00000000000E+00  0.73638292433E+02  0.14509234292E+03  0.12501675833E+03 0.  0.
    9000005    1    3    3    0    0  0.15953872899E+02  0.20201844909E+02 -0.29279674784E+02  0.38999230168E+02  0.10000000000E+01 0.  0.
    9000005    1    3    3    0    0 -0.15953872899E+02 -0.20201844909E+02  0.10291796722E+03  0.10609311276E+03  0.10000000000E+01 0.  0.
<mgrwt>
<rscale>  0 0.12501676E+03</rscale>
<asrwt>0</asrwt>
<pdfrwt beam="1">  1        4 0.16825433E-01 0.12501676E+03</pdfrwt>
<pdfrwt beam="2">  1       -4 0.54964655E-02 0.12501676E+03</pdfrwt>
<totfact> 0.10025329E+04</totfact>
</mgrwt>
</event>
<event>
 5    1  0.3286491E-002  0.1250001E+03  0.7818608E-02  0.1235069E+00
         -4   -1    0    0    0  501 -0.00000000000E+00  0.00000000000E+00  0.24566881286E+03  0.24567209551E+03  0.12700000000E+01 0.  1.
          4   -1    0    0  501    0  0.00000000000E+00 -0.00000000000E+00 -0.15871743977E+02  0.15922473328E+02  0.12700000000E+01 0.  1.
         25    2    1    2    0    0  0.00000000000E+00  0.00000000000E+00  0.22979706889E+03  0.26159456884E+03  0.12500010231E+03 0.  0.
    9000005    1    3    3    0    0 -0.27957585947E+01  0.25716277079E+02  0.23394875614E+03  0.23537664215E+03  0.10000000000E+01 0.  0.
    9000005    1    3    3    0    0  0.27957585947E+01 -0.25716277079E+02 -0.41516872493E+01  0.26217926690E+02  0.10000000000E+01 0.  0.
<mgrwt>
<rscale>  0 0.12500010E+03</rscale>
<asrwt>0</asrwt>
<pdfrwt beam="2">  1        4 0.24459617E-02 0.12500010E+03</pdfrwt>
<pdfrwt beam="1">  1       -4 0.37799354E-01 0.12500010E+03</pdfrwt>
<totfact> 0.80682623E+03</totfact>
</mgrwt>
</event>
<event>
 5    1  0.3286491E-002  0.1249957E+03  0.7818608E-02  0.1235076E+00
         -4   -1    0    0    0  501 -0.00000000000E+00  0.00000000000E+00  0.53735084459E+03  0.53735234538E+03  0.12700000000E+01 0. -1.
          4   -1    0    0  501    0  0.00000000000E+00 -0.00000000000E+00 -0.72119695645E+01  0.73229369107E+01  0.12700000000E+01 0. -1.
         25    2    1    2    0    0  0.00000000000E+00  0.00000000000E+00  0.53013887503E+03  0.54467528229E+03  0.12499574521E+03 0.  0.
    9000005    1    3    3    0    0 -0.52493169608E+02  0.15483855733E+02  0.13364023361E+03  0.14441604718E+03  0.10000000000E+01 0.  0.
    9000005    1    3    3    0    0  0.52493169608E+02 -0.15483855733E+02  0.39649864142E+03  0.40025923511E+03  0.10000000000E+01 0.  0.
<mgrwt>
<rscale>  0 0.12499575E+03</rscale>
<asrwt>0</asrwt>
<pdfrwt beam="2">  1        4 0.11181848E-02 0.12499575E+03</pdfrwt>
<pdfrwt beam="1">  1       -4 0.82678040E-01 0.12499575E+03</pdfrwt>
<totfact> 0.52562312E+03</totfact>
</mgrwt>
</event>
<event>
 5    1  0.3286491E-002  0.1249985E+03  0.7818608E-02  0.1235072E+00
          4   -1    0    0  501    0  0.00000000000E+00  0.00000000000E+00  0.23975521399E+03  0.23975857760E+03  0.12700000000E+01 0. -1.
         -4   -1    0    0    0  501 -0.00000000000E+00 -0.00000000000E+00 -0.16264037173E+02  0.16313546676E+02  0.12700000000E+01 0. -1.
         25    2    1    2    0    0  0.00000000000E+00  0.00000000000E+00  0.22349117681E+03  0.25607212428E+03  0.12499850687E+03 0.  0.
    9000005    1    3    3    0    0  0.55704486029E+01 -0.41289120619E+02  0.20716150369E+03  0.21131187849E+03  0.10000000000E+01 0.  0.
    9000005    1    3    3    0    0 -0.55704486029E+01  0.41289120619E+02  0.16329673128E+02  0.44760245794E+02  0.10000000000E+01 0.  0.
<mgrwt>
<rscale>  0 0.12499851E+03</rscale>
<asrwt>0</asrwt>
<pdfrwt beam="1">  1        4 0.36889483E-01 0.12499851E+03</pdfrwt>
<pdfrwt beam="2">  1       -4 0.25062268E-02 0.12499851E+03</pdfrwt>
<totfact> 0.81463170E+03</totfact>
</mgrwt>
</event>
<event>
 5    1  0.3286491E-002  0.1250013E+03  0.7818608E-02  0.1235067E+00
         -4   -1    0    0    0  501 -0.00000000000E+00  0.00000000000E+00  0.11961441501E+03  0.11962115690E+03  0.12700000000E+01 0. -1.
          4   -1    0    0  501    0  0.00000000000E+00 -0.00000000000E+00 -0.32637680938E+02  0.32662380762E+02  0.12700000000E+01 0. -1.
         25    2    1    2    0    0  0.00000000000E+00  0.00000000000E+00  0.86976734068E+02  0.15228353766E+03  0.12500129428E+03 0.  0.
    9000005    1    3    3    0    0 -0.42671822393E+02  0.47170274679E+01  0.98811074997E+02  0.10773933041E+03  0.10000000000E+01 0.  0.
    9000005    1    3    3    0    0  0.42671822393E+02 -0.47170274679E+01 -0.11834340929E+02  0.44544207252E+02  0.10000000000E+01 0.  0.
<mgrwt>
<rscale>  0 0.12500129E+03</rscale>
<asrwt>0</asrwt>
<pdfrwt beam="2">  1        4 0.50236002E-02 0.12500129E+03</pdfrwt>
<pdfrwt beam="1">  1       -4 0.18404637E-01 0.12500129E+03</pdfrwt>
<totfact> 0.98847563E+03</totfact>
</mgrwt>
</event>
<event>
 5    1  0.3286491E-002  0.1250006E+03  0.7818608E-02  0.1235068E+00
          4   -1    0    0  501    0  0.00000000000E+00  0.00000000000E+00  0.32148483641E+02  0.32173559026E+02  0.12700000000E+01 0. -1.
         -4   -1    0    0    0  501 -0.00000000000E+00 -0.00000000000E+00 -0.12143185142E+03  0.12143849241E+03  0.12700000000E+01 0. -1.
         25    2    1    2    0    0  0.00000000000E+00  0.00000000000E+00 -0.89283367780E+02  0.15361205144E+03  0.12500057034E+03 0.  0.
    9000005    1    3    3    0    0  0.17349450739E-01 -0.47042814130E+02  0.59112899624E+01  0.47423306625E+02  0.10000000000E+01 0.  0.
    9000005    1    3    3    0    0 -0.17349450739E-01  0.47042814130E+02 -0.95194657742E+02  0.10618874481E+03  0.10000000000E+01 0.  0.
<mgrwt>
<rscale>  0 0.12500057E+03</rscale>
<asrwt>0</asrwt>
<pdfrwt beam="1">  1        4 0.49483603E-02 0.12500057E+03</pdfrwt>
<pdfrwt beam="2">  1       -4 0.18684263E-01 0.12500057E+03</pdfrwt>
<totfact> 0.98587236E+03</totfact>
</mgrwt>
</event>
<event>
 4    1  0.3286491E-002  0.1248656E+03  0.7818608E-02  0.1235279E+00
         -4   -1    0    0    0  501 -0.00000000000E+00  0.00000000000E+00  0.20385540647E+03  0.20385936242E+03  0.12700000000E+01 0. -1.
          4   -1    0    0  501    0  0.00000000000E+00 -0.00000000000E+00 -0.19095462865E+02  0.19137648811E+02  0.12700000000E+01 0. -1.
    9000005    1    1    2    0    0  0.48061471795E+02 -0.13309612492E+01  0.21275731912E+02  0.52586436439E+02  0.10000000000E+01 0.  0.
    9000005    1    1    2    0    0 -0.48061471795E+02  0.13309612492E+01  0.16348421169E+03  0.17041057479E+03  0.10000000000E+01 0.  0.
<mgrwt>
<rscale>  0 0.12486565E+03</rscale>
<asrwt>0</asrwt>
<pdfrwt beam="2">  1        4 0.29413130E-02 0.12486565E+03</pdfrwt>
<pdfrwt beam="1">  1       -4 0.31365919E-01 0.12486565E+03</pdfrwt>
<totfact> 0.86656037E+03</totfact>
</mgrwt>
</event>
<event>
 5    1  0.3286491E-002  0.1250020E+03  0.7818608E-02  0.1235066E+00
         -4   -1    0    0    0  501 -0.00000000000E+00  0.00000000000E+00  0.93793937655E+01  0.94649842793E+01  0.12700000000E+01 0.  1.
          4   -1    0    0  501    0  0.00000000000E+00 -0.00000000000E+00 -0.41450680776E+03  0.41450875332E+03  0.12700000000E+01 0.  1.
         25    2    1    2    0    0  0.00000000000E+00  0.00000000000E+00 -0.40512741399E+03  0.42397373760E+03  0.12500203440E+03 0.  0.
    9000005    1    3    3    0    0  0.43964799127E+02  0.39605078379E+02 -0.27072925116E+03  0.27712234343E+03  0.10000000000E+01 0.  0.
    9000005    1    3    3    0    0 -0.43964799127E+02 -0.39605078379E+02 -0.13439816283E+03  0.14685139417E+03  0.10000000000E+01 0.  0.
<mgrwt>
<rscale>  0 0.12500203E+03</rscale>
<asrwt>0</asrwt>
<pdfrwt beam="2">  1        4 0.63776997E-01 0.12500203E+03</pdfrwt>
<pdfrwt beam="1">  1       -4 0.14497175E-02 0.12500203E+03</pdfrwt>
<totfact> 0.62283271E+03</totfact>
</mgrwt>
</event>
<event>
 5    1  0.3286491E-002  0.1249997E+03  0.7818608E-02  0.1235070E+00
         -4   -1    0    0    0  501 -0.00000000000E+00  0.00000000000E+00  0.30532516579E+03  0.30532780706E+03  0.12700000000E+01 0.  1.
          4   -1    0    0  501    0  0.00000000000E+00 -0.00000000000E+00 -0.12759450386E+02  0.12822498748E+02  0.12700000000E+01 0.  1.
         25    2    1    2    0    0  0.00000000000E+00  0.00000000000E+00  0.29256571540E+03  0.31815030581E+03  0.12499967703E+03 0.  0.
    9000005    1    3    3    0    0  0.18162368568E+02  0.59252111211E+02  0.12583459404E+03  0.14027127066E+03  0.10000000000E+01 0.  0.
    9000005    1    3    3    0    0 -0.18162368568E+02 -0.59252111211E+02  0.16673112136E+03  0.17787903515E+03  0.10000000000E+01 0.  0.
<mgrwt>
<rscale>  0 0.12499968E+03</rscale>
<asrwt>0</asrwt>
<pdfrwt beam="2">  1        4 0.19680455E-02 0.12499968E+03</pdfrwt>
<pdfrwt beam="1">  1       -4 0.46978154E-01 0.12499968E+03</pdfrwt>
<totfact> 0.73377187E+03</totfact>
</mgrwt>
</event>
<event>
 5    1  0.3286491E-002  0.1249992E+03  0.7818608E-02  0.1235071E+00
         -4   -1    0    0    0  501 -0.00000000000E+00  0.00000000000E+00  0.16478954615E+02  0.16527820340E+02  0.12700000000E+01 0.  1.
          4   -1    0    0  501    0  0.00000000000E+00 -0.00000000000E+00 -0.23664026497E+03  0.23664367286E+03  0.12700000000E+01 0.  1.
         25    2    1    2    0    0  0.00000000000E+00  0.00000000000E+00 -0.22016131035E+03  0.25317149320E+03  0.12499920957E+03 0.  0.
    9000005    1    3    3    0    0  0.29477461947E+02 -0.47303609034E+02 -0.16731877393E+03  0.17636077880E+03  0.10000000000E+01 0.  0.
    9000005    1    3    3    0    0 -0.29477461947E+02  0.47303609034E+02 -0.52842536426E+02  0.76810714399E+02  0.10000000000E+01 0.  0.
<mgrwt>
<rscale>  0 0.12499921E+03</rscale>
<asrwt>0</asrwt>
<pdfrwt beam="2">  1        4 0.36410213E-01 0.12499921E+03</pdfrwt>
<pdfrwt beam="1">  1       -4 0.25392450E-02 0.12499921E+03</pdfrwt>
<totfact> 0.81875441E+03</totfact>
</mgrwt>
</event>
<event>
 5    1  0.3286491E-002  0.1250016E+03  0.7818608E-02  0.1235067E+00
          4   -1    0    0  501    0  0.00000000000E+00  0.00000000000E+00  0.36485802058E+02  0.36507898485E+02  0.12700000000E+01 0. -1.
         -4   -1    0    0    0  501 -0.00000000000E+00 -0.00000000000E+00 -0.10700668259E+03  0.10701421877E+03  0.12700000000E+01 0. -1.
         25    2    1    2    0    0  0.00000000000E+00  0.00000000000E+00 -0.70520880530E+02  0.14352211725E+03  0.12500161419E+03 0.  0.
    9000005    1    3    3    0    0  0.69946730042E+01 -0.56914015315E+02 -0.67355940852E+01  0.57745119425E+02  0.10000000000E+01 0.  0.
    9000005    1    3    3    0    0 -0.69946730042E+01  0.56914015315E+02 -0.63785286445E+02  0.85776997829E+02  0.10000000000E+01 0.  0.
<mgrwt>
<rscale>  0 0.12500161E+03</rscale>
<asrwt>0</asrwt>
<pdfrwt beam="1">  1        4 0.56154798E-02 0.12500161E+03</pdfrwt>
<pdfrwt beam="2">  1       -4 0.16464846E-01 0.12500161E+03</pdfrwt>
<totfact> 0.10060737E+04</totfact>
</mgrwt>
</event>
<event>
 5    1  0.3286491E-002  0.1250009E+03  0.7818608E-02  0.1235068E+00
         -4   -1    0    0    0  501 -0.00000000000E+00  0.00000000000E+00  0.69489547219E+02  0.69501151592E+02  0.12700000000E+01 0.  1.
          4   -1    0    0  501    0  0.00000000000E+00 -0.00000000000E+00 -0.56190791011E+02  0.56205141175E+02  0.12700000000E+01 0.  1.
         25    2    1    2    0    0  0.00000000000E+00  0.00000000000E+00  0.13298756207E+02  0.12570629277E+03  0.12500086049E+03 0.  0.
    9000005    1    3    3    0    0  0.23681382018E+02  0.63581767860E+00 -0.51505091965E+02  0.56700851993E+02  0.10000000000E+01 0.  0.
    9000005    1    3    3    0    0 -0.23681382018E+02 -0.63581767860E+00  0.64803848173E+02  0.69005440774E+02  0.10000000000E+01 0.  0.
<mgrwt>
<rscale>  0 0.12500086E+03</rscale>
<asrwt>0</asrwt>
<pdfrwt beam="2">  1        4 0.86467336E-02 0.12500086E+03</pdfrwt>
<pdfrwt beam="1">  1       -4 0.10692696E-01 0.12500086E+03</pdfrwt>
<totfact> 0.10437203E+04</totfact>
</mgrwt>
</event>
<event>
 5    1  0.3286491E-002  0.1249894E+03  0.7818608E-02  0.1235086E+00
         -4   -1    0    0    0  501 -0.00000000000E+00  0.00000000000E+00  0.23979769251E+02  0.24013376133E+02  0.12700000000E+01 0. -1.
          4   -1    0    0  501    0  0.00000000000E+00 -0.00000000000E+00 -0.16272008517E+03  0.16272504115E+03  0.12700000000E+01 0. -1.
         25    2    1    2    0    0  0.00000000000E+00  0.00000000000E+00 -0.13874031592E+03  0.18673841728E+03  0.12498944447E+03 0.  0.
    9000005    1    3    3    0    0 -0.45626929610E+02 -0.14233189596E+02 -0.92329448418E+01  0.48689297203E+02  0.10000000000E+01 0.  0.
    9000005    1    3    3    0    0  0.45626929610E+02  0.14233189596E+02 -0.12950737107E+03  0.13804912008E+03  0.10000000000E+01 0.  0.
<mgrwt>
<rscale>  0 0.12498944E+03</rscale>
<asrwt>0</asrwt>
<pdfrwt beam="2">  1        4 0.25036825E-01 0.12498944E+03</pdfrwt>
<pdfrwt beam="1">  1       -4 0.36921618E-02 0.12498944E+03</pdfrwt>
<totfact> 0.92439799E+03</totfact>
</mgrwt>
</event>
<event>
 5    1  0.3286491E-002  0.1250039E+03  0.7818608E-02  0.1235063E+00
          4   -1    0    0  501    0  0.00000000000E+00  0.00000000000E+00  0.11794462983E+02  0.11862641234E+02  0.12700000000E+01 0.  1.
         -4   -1    0    0    0  501 -0.00000000000E+00 -0.00000000000E+00 -0.33019045478E+03  0.33019289715E+03  0.12700000000E+01 0.  1.
         25    2    1    2    0    0  0.00000000000E+00  0.00000000000E+00 -0.31839599179E+03  0.34205553838E+03  0.12500393492E+03 0.  0.
    9000005    1    3    3    0    0  0.10894352571E+02  0.37469914884E+02 -0.25625186817E+02  0.46694021446E+02  0.10000000000E+01 0.  0.
    9000005    1    3    3    0    0 -0.10894352571E+02 -0.37469914884E+02 -0.29277080498E+03  0.29536151693E+03  0.10000000000E+01 0.  0.
<mgrwt>
<rscale>  0 0.12500393E+03</rscale>
<asrwt>0</asrwt>
<pdfrwt beam="1">  1        4 0.18199654E-02 0.12500393E+03</pdfrwt>
<pdfrwt beam="2">  1       -4 0.50803957E-01 0.12500393E+03</pdfrwt>
<totfact> 0.70601330E+03</totfact>
</mgrwt>
</event>
<event>
 5    1  0.3286491E-002  0.1250013E+03  0.7818608E-02  0.1235067E+00
          4   -1    0    0  501    0  0.00000000000E+00  0.00000000000E+00  0.19281363207E+03  0.19281781456E+03  0.12700000000E+01 0. -1.
         -4   -1    0    0    0  501 -0.00000000000E+00 -0.00000000000E+00 -0.20235307699E+02  0.20275122137E+02  0.12700000000E+01 0. -1.
         25    2    1    2    0    0  0.00000000000E+00  0.00000000000E+00  0.17257832437E+03  0.21309293670E+03  0.12500128650E+03 0.  0.
    9000005    1    3    3    0    0  0.40384304422E+02  0.47269185224E+02  0.75499109879E+02  0.97807890826E+02  0.10000000000E+01 0.  0.
    9000005    1    3    3    0    0 -0.40384304422E+02 -0.47269185224E+02  0.97079214489E+02  0.11528504587E+03  0.10000000000E+01 0.  0.
<mgrwt>
<rscale>  0 0.12500129E+03</rscale>
<asrwt>0</asrwt>
<pdfrwt beam="1">  1        4 0.29667020E-01 0.12500129E+03</pdfrwt>
<pdfrwt beam="2">  1       -4 0.31165086E-02 0.12500129E+03</pdfrwt>
<totfact> 0.87970712E+03</totfact>
</mgrwt>
</event>
<event>
 4    1  0.3286491E-002  0.1242939E+03  0.7818608E-02  0.1236177E+00
          4   -1    0    0  501    0  0.00000000000E+00  0.00000000000E+00  0.49492690159E+03  0.49492853102E+03  0.12700000000E+01 0. -1.
         -4   -1    0    0    0  501 -0.00000000000E+00 -0.00000000000E+00 -0.77503410437E+01  0.78537052589E+01  0.12700000000E+01 0. -1.
    9000005    1    1    2    0    0 -0.60014213948E+02  0.16076042902E+02  0.23934773838E+03  0.24728219689E+03  0.10000000000E+01 0.  0.
    9000005    1    1    2    0    0  0.60014213948E+02 -0.16076042902E+02  0.24782882216E+03  0.25550003939E+03  0.10000000000E+01 0.  0.
<mgrwt>
<rscale>  0 0.12429391E+03</rscale>
<asrwt>0</asrwt>
<pdfrwt beam="1">  1        4 0.76150689E-01 0.12429391E+03</pdfrwt>
<pdfrwt beam="2">  1       -4 0.12004364E-02 0.12429391E+03</pdfrwt>
<totfact> 0.56521999E+03</totfact>
</mgrwt>
</event>
