<event>
 6    4  0.5642870E-004  0.1293447E+03  0.7818608E-02  0.1228431E+00
          4   -1    0    0  502    0  0.00000000000E+00  0.00000000000E+00  0.97691956761E+03  0.97692039312E+03  0.12700000000E+01 0. -1.
         -4   -1    0    0    0  501 -0.00000000000E+00 -0.00000000000E+00 -0.69638726843E+01  0.70787303073E+01  0.12700000000E+01 0. -1.
         25    2    1    2    0    0 -0.23624719193E+02  0.23380065306E+02  0.68436670806E+03  0.69648247307E+03  0.12500115751E+03 0.  0.
    9000005    1    3    3    0    0 -0.49802334905E+02  0.29100968553E+02  0.13952494184E+03  0.15098128469E+03  0.10000000000E+01 0.  0.
    9000005    1    3    3    0    0  0.26177615712E+02 -0.57209032475E+01  0.54484176623E+03  0.54550118838E+03  0.10000000000E+01 0.  0.
         21    1    1    2  502  501  0.23624719193E+02 -0.23380065306E+02  0.28558898686E+03  0.28751665035E+03  0.00000000000E+00 0. -1.
<mgrwt>
<rscale>  1 0.12934467E+03</rscale>
<asrwt>0</asrwt>
<pdfrwt beam="1">  1        4 0.15030419E+00 0.12934467E+03</pdfrwt>
<pdfrwt beam="2">  1       -4 0.10802639E-02 0.12934467E+03</pdfrwt>
<totfact> 0.13562232E+03</totfact>
</mgrwt>
</event>
<event>
 6    4  0.5642870E-004  0.1277460E+03  0.7818608E-02  0.1230839E+00
         -4   -1    0    0    0  501 -0.00000000000E+00  0.00000000000E+00  0.80696841238E+02  0.80706834195E+02  0.12700000000E+01 0. -1.
          4   -1    0    0  502    0  0.00000000000E+00 -0.00000000000E+00 -0.86565119371E+02  0.86574434977E+02  0.12700000000E+01 0. -1.
         25    2    1    2    0    0  0.22709636206E+02  0.13419962285E+02  0.21191367430E+02  0.12949175499E+03  0.12499287016E+03 0.  0.
    9000005    1    3    3    0    0  0.50858718468E+02 -0.85578930327E+01  0.58392392429E+02  0.77913530730E+02  0.10000000000E+01 0.  0.
    9000005    1    3    3    0    0 -0.28149082262E+02  0.21977855318E+02 -0.37201024998E+02  0.51578224257E+02  0.10000000000E+01 0.  0.
         21    1    1    2  502  501 -0.22709636206E+02 -0.13419962285E+02 -0.27059645563E+02  0.37789514185E+02  0.00000000000E+00 0.  1.
<mgrwt>
<rscale>  1 0.12774600E+03</rscale>
<asrwt>0</asrwt>
<pdfrwt beam="2">  1        4 0.13319196E-01 0.12774600E+03</pdfrwt>
<pdfrwt beam="1">  1       -4 0.12416384E-01 0.12774600E+03</pdfrwt>
<totfact> 0.39172493E+03</totfact>
</mgrwt>
</event>
<event>
 6    4  0.5642870E-004  0.1320242E+03  0.7818608E-02  0.1224483E+00
          4   -1    0    0  502    0  0.00000000000E+00  0.00000000000E+00  0.34954981302E+02  0.34978044797E+02  0.12700000000E+01 0. -1.
         -4   -1    0    0    0  501 -0.00000000000E+00 -0.00000000000E+00 -0.24845479337E+03  0.24845803921E+03  0.12700000000E+01 0. -1.
         25    2    1    2    0    0 -0.29395695092E+02 -0.30706805468E+02 -0.19842448796E+03  0.23833308866E+03  0.12499347559E+03 0.  0.
    9000005    1    3    3    0    0 -0.13836193924E+02 -0.29955761408E+02 -0.21385265425E+03  0.21638564100E+03  0.10000000000E+01 0.  0.
    9000005    1    3    3    0    0 -0.15559501168E+02 -0.75104405993E+00  0.15428166290E+02  0.21947447662E+02  0.10000000000E+01 0.  0.
         21    1    1    2  502  501  0.29395695092E+02  0.30706805468E+02 -0.15075324114E+02  0.45102995345E+02  0.00000000000E+00 0. -1.
<mgrwt>
<rscale>  1 0.13202418E+03</rscale>
<asrwt>0</asrwt>
<pdfrwt beam="1">  1        4 0.53797134E-02 0.13202418E+03</pdfrwt>
<pdfrwt beam="2">  1       -4 0.38225837E-01 0.13202418E+03</pdfrwt>
<totfact> 0.23036483E+03</totfact>
</mgrwt>
</event>
<event>
 6    4  0.5642870E-004  0.1282023E+03  0.7818608E-02  0.1230148E+00
          4   -1    0    0  502    0  0.00000000000E+00  0.00000000000E+00  0.26260345539E+03  0.26260652635E+03  0.12700000000E+01 0. -1.
         -4   -1    0    0    0  501 -0.00000000000E+00 -0.00000000000E+00 -0.23404039552E+02  0.23438471950E+02  0.12700000000E+01 0. -1.
         25    2    1    2    0    0 -0.17927117811E+02 -0.22106952435E+02  0.19002903518E+03  0.22923104550E+03  0.12500295641E+03 0.  0.
    9000005    1    3    3    0    0  0.27028275256E+02 -0.46141856960E+02  0.30103460248E+02  0.61374399760E+02  0.10000000000E+01 0.  0.
    9000005    1    3    3    0    0 -0.44955393067E+02  0.24034904526E+02  0.15992557493E+03  0.16785664574E+03  0.10000000000E+01 0.  0.
         21    1    1    2  502  501  0.17927117811E+02  0.22106952435E+02  0.49170380659E+02  0.56813952803E+02  0.00000000000E+00 0. -1.
<mgrwt>
<rscale>  1 0.12820233E+03</rscale>
<asrwt>0</asrwt>
<pdfrwt beam="1">  1        4 0.40403416E-01 0.12820233E+03</pdfrwt>
<pdfrwt beam="2">  1       -4 0.36035064E-02 0.12820233E+03</pdfrwt>
<totfact> 0.38886381E+03</totfact>
</mgrwt>
</event>
<event>
 6    4  0.5642870E-004  0.1323030E+03  0.7818608E-02  0.1224078E+00
         -4   -1    0    0    0  501 -0.00000000000E+00  0.00000000000E+00  0.17514748347E+03  0.17515208782E+03  0.12700000000E+01 0. -1.
          4   -1    0    0  502    0  0.00000000000E+00 -0.00000000000E+00 -0.44034956097E+02  0.44053266150E+02  0.12700000000E+01 0. -1.
         25    2    1    2    0    0 -0.42912569840E+02  0.61759530060E+01  0.99933952165E+02  0.16580371918E+03  0.12499778979E+03 0.  0.
    9000005    1    3    3    0    0  0.76257242644E+01  0.46261642625E+02  0.49445305420E-01  0.46896627744E+02  0.10000000000E+01 0.  0.
    9000005    1    3    3    0    0 -0.50538294105E+02 -0.40085689619E+02  0.99884506860E+02  0.11890709144E+03  0.10000000000E+01 0.  0.
         21    1    1    2  502  501  0.42912569840E+02 -0.61759530060E+01  0.31178575209E+02  0.53401634787E+02  0.00000000000E+00 0. -1.
<mgrwt>
<rscale>  1 0.13230298E+03</rscale>
<asrwt>0</asrwt>
<pdfrwt beam="2">  1        4 0.67763712E-02 0.13230298E+03</pdfrwt>
<pdfrwt beam="1">  1       -4 0.26947530E-01 0.13230298E+03</pdfrwt>
<totfact> 0.30849452E+03</totfact>
</mgrwt>
</event>
<event>
 6    4  0.5642870E-004  0.1266086E+03  0.7818608E-02  0.1232577E+00
          4   -1    0    0  502    0  0.00000000000E+00  0.00000000000E+00  0.15828104028E+03  0.15828613525E+03  0.12700000000E+01 0.  1.
         -4   -1    0    0    0  501 -0.00000000000E+00 -0.00000000000E+00 -0.46160091403E+02  0.46177558818E+02  0.12700000000E+01 0.  1.
         25    2    1    2    0    0 -0.12389925035E+02 -0.15857121061E+02  0.44962945115E+02  0.13435552051E+03  0.12499912370E+03 0.  0.
    9000005    1    3    3    0    0 -0.15260388480E+02  0.11388710312E+02  0.84287901404E+02  0.86417778855E+02  0.10000000000E+01 0.  0.
    9000005    1    3    3    0    0  0.28704634442E+01 -0.27245831373E+02 -0.39324956289E+02  0.47937741652E+02  0.10000000000E+01 0.  0.
         21    1    1    2  502  501  0.12389925035E+02  0.15857121061E+02  0.67158003763E+02  0.70108173562E+02  0.00000000000E+00 0. -1.
<mgrwt>
<rscale>  1 0.12660861E+03</rscale>
<asrwt>0</asrwt>
<pdfrwt beam="1">  1        4 0.24352665E-01 0.12660861E+03</pdfrwt>
<pdfrwt beam="2">  1       -4 0.71032880E-02 0.12660861E+03</pdfrwt>
<totfact> 0.34073723E+03</totfact>
</mgrwt>
</event>
<event>
 6    4  0.5642870E-004  0.1282009E+03  0.7818608E-02  0.1230150E+00
          4   -1    0    0  502    0  0.00000000000E+00  0.00000000000E+00  0.32427503700E+03  0.32427752392E+03  0.12700000000E+01 0.  1.
         -4   -1    0    0    0  501 -0.00000000000E+00 -0.00000000000E+00 -0.19162916128E+02  0.19204953906E+02  0.12700000000E+01 0.  1.
         25    2    1    2    0    0 -0.45412614059E+01 -0.28073551624E+02  0.23255012255E+03  0.26554666478E+03  0.12500689709E+03 0.  0.
    9000005    1    3    3    0    0  0.35587117027E+02 -0.10000958642E+01  0.88928584590E+01  0.36708664122E+02  0.10000000000E+01 0.  0.
    9000005    1    3    3    0    0 -0.40128378433E+02 -0.27073455759E+02  0.22365726409E+03  0.22883800066E+03  0.10000000000E+01 0.  0.
         21    1    1    2  502  501  0.45412614059E+01  0.28073551624E+02  0.72561998319E+02  0.77935813051E+02  0.00000000000E+00 0.  1.
<mgrwt>
<rscale>  1 0.12820090E+03</rscale>
<asrwt>0</asrwt>
<pdfrwt beam="1">  1        4 0.49891894E-01 0.12820090E+03</pdfrwt>
<pdfrwt beam="2">  1       -4 0.29515658E-02 0.12820090E+03</pdfrwt>
<totfact> 0.34887301E+03</totfact>
</mgrwt>
</event>
<event>
 6    4  0.5642870E-004  0.1267419E+03  0.7818608E-02  0.1232372E+00
          4   -1    0    0  502    0  0.00000000000E+00  0.00000000000E+00  0.85082053835E+02  0.85091531804E+02  0.12700000000E+01 0.  1.
         -4   -1    0    0    0  501 -0.00000000000E+00 -0.00000000000E+00 -0.67210610934E+02  0.67222608713E+02  0.12700000000E+01 0.  1.
         25    2    1    2    0    0  0.65400702299E+01  0.19894617318E+02  0.32694375042E+01  0.12678402343E+03  0.12499972424E+03 0.  0.
    9000005    1    3    3    0    0  0.17874639522E+02 -0.51358543057E+02  0.48998577989E+01  0.54609626344E+02  0.10000000000E+01 0.  0.
    9000005    1    3    3    0    0 -0.11334569292E+02  0.71253160375E+02 -0.16304202947E+01  0.72174397087E+02  0.10000000000E+01 0.  0.
         21    1    1    2  502  501 -0.65400702299E+01 -0.19894617318E+02  0.14602005396E+02  0.25530117086E+02  0.00000000000E+00 0. -1.
<mgrwt>
<rscale>  1 0.12674186E+03</rscale>
<asrwt>0</asrwt>
<pdfrwt beam="1">  1        4 0.13091199E-01 0.12674186E+03</pdfrwt>
<pdfrwt beam="2">  1       -4 0.10341746E-01 0.12674186E+03</pdfrwt>
<totfact> 0.54956210E+03</totfact>
</mgrwt>
</event>
<event>
 6    4  0.5642870E-004  0.1322596E+03  0.7818608E-02  0.1224141E+00
          4   -1    0    0  502    0  0.00000000000E+00  0.00000000000E+00  0.44255112265E+02  0.44273331268E+02  0.12700000000E+01 0. -1.
         -4   -1    0    0    0  501 -0.00000000000E+00 -0.00000000000E+00 -0.17668701591E+03  0.17669158013E+03  0.12700000000E+01 0. -1.
         25    2    1    2    0    0 -0.41280112114E+02  0.12792459854E+02 -0.87273279591E+02  0.15845894359E+03  0.12499966716E+03 0.  0.
    9000005    1    3    3    0    0  0.23164848885E+02  0.51331196851E+02 -0.46301678987E+02  0.72913287342E+02  0.10000000000E+01 0.  0.
    9000005    1    3    3    0    0 -0.64444960999E+02 -0.38538736997E+02 -0.40971600604E+02  0.85545656251E+02  0.10000000000E+01 0.  0.
         21    1    1    2  502  501  0.41280112114E+02 -0.12792459854E+02 -0.45158624051E+02  0.62505967807E+02  0.00000000000E+00 0. -1.
<mgrwt>
<rscale>  1 0.13225964E+03</rscale>
<asrwt>0</asrwt>
<pdfrwt beam="1">  1        4 0.68102315E-02 0.13225964E+03</pdfrwt>
<pdfrwt beam="2">  1       -4 0.27184370E-01 0.13225964E+03</pdfrwt>
<totfact> 0.30101443E+03</totfact>
</mgrwt>
</event>
<event>
 6    4  0.5642870E-004  0.1266246E+03  0.7818608E-02  0.1232552E+00
          4   -1    0    0  502    0  0.00000000000E+00  0.00000000000E+00  0.36619697275E+02  0.36641712958E+02  0.12700000000E+01 0.  1.
         -4   -1    0    0    0  501 -0.00000000000E+00 -0.00000000000E+00 -0.29559524053E+03  0.29559796874E+03  0.12700000000E+01 0.  1.
         25    2    1    2    0    0  0.29063629427E+01  0.20054577991E+02 -0.27734825765E+03  0.30488662560E+03  0.12499266140E+03 0.  0.
    9000005    1    3    3    0    0  0.55827048259E+02 -0.18199155940E+02 -0.16225523495E+03  0.17255616437E+03  0.10000000000E+01 0.  0.
    9000005    1    3    3    0    0 -0.52920685316E+02  0.38253733931E+02 -0.11509302270E+03  0.13233046123E+03  0.10000000000E+01 0.  0.
         21    1    1    2  502  501 -0.29063629427E+01 -0.20054577991E+02  0.18372714393E+02  0.27353056102E+02  0.00000000000E+00 0.  1.
<mgrwt>
<rscale>  1 0.12662464E+03</rscale>
<asrwt>0</asrwt>
<pdfrwt beam="1">  1        4 0.56357032E-02 0.12662464E+03</pdfrwt>
<pdfrwt beam="2">  1       -4 0.45478093E-01 0.12662464E+03</pdfrwt>
<totfact> 0.15010053E+03</totfact>
</mgrwt>
</event>
<event>
 6    4  0.5642870E-004  0.1894959E+03  0.7818608E-02  0.1158917E+00
          4   -1    0    0  502    0  0.00000000000E+00  0.00000000000E+00  0.18026901742E+04  0.18026906216E+04  0.12700000000E+01 0. -1.
         -4   -1    0    0    0  501 -0.00000000000E+00 -0.00000000000E+00 -0.63794115653E+02  0.63806755849E+02  0.12700000000E+01 0. -1.
         25    2    1    2    0    0  0.10131674320E+03  0.10009669921E+03  0.87069264728E+02  0.20854195327E+03  0.12499703104E+03 0.  0.
    9000005    1    3    3    0    0  0.26420240995E+02  0.10192234056E+03  0.18365179822E+02  0.10688532392E+03  0.10000000000E+01 0.  0.
    9000005    1    3    3    0    0  0.74896502202E+02 -0.18256413484E+01  0.68704084906E+02  0.10165662935E+03  0.10000000000E+01 0.  0.
         21    1    1    2  502  501 -0.10131674320E+03 -0.10009669921E+03  0.16518267938E+04  0.16579554241E+04  0.00000000000E+00 0. -1.
<mgrwt>
<rscale>  1 0.18949588E+03</rscale>
<asrwt>0</asrwt>
<pdfrwt beam="1">  1        4 0.27733795E+00 0.18949588E+03</pdfrwt>
<pdfrwt beam="2">  1       -4 0.98154863E-02 0.18949588E+03</pdfrwt>
<totfact> 0.69611422E+00</totfact>
</mgrwt>
</event>
<event>
 6    4  0.5642870E-004  0.1275612E+03  0.7818608E-02  0.1231120E+00
          4   -1    0    0  502    0  0.00000000000E+00  0.00000000000E+00  0.14032359796E+03  0.14032934492E+03  0.12700000000E+01 0. -1.
         -4   -1    0    0    0  501 -0.00000000000E+00 -0.00000000000E+00 -0.52910018515E+02  0.52925258235E+02  0.12700000000E+01 0. -1.
         25    2    1    2    0    0  0.14345881488E+02  0.21007174470E+02  0.30856780051E+02  0.13124027212E+03  0.12499904983E+03 0.  0.
    9000005    1    3    3    0    0 -0.77278432060E+01 -0.51265809766E+02  0.96382568466E+01  0.52742760704E+02  0.10000000000E+01 0.  0.
    9000005    1    3    3    0    0  0.22073724694E+02  0.72272984236E+02  0.21218523204E+02  0.78497511421E+02  0.10000000000E+01 0.  0.
         21    1    1    2  502  501 -0.14345881488E+02 -0.21007174470E+02  0.56556799398E+02  0.62014331029E+02  0.00000000000E+00 0. -1.
<mgrwt>
<rscale>  1 0.12756123E+03</rscale>
<asrwt>0</asrwt>
<pdfrwt beam="1">  1        4 0.21589860E-01 0.12756123E+03</pdfrwt>
<pdfrwt beam="2">  1       -4 0.81416174E-02 0.12756123E+03</pdfrwt>
<totfact> 0.33959675E+03</totfact>
</mgrwt>
</event>
<event>
 6    4  0.5642870E-004  0.1266300E+03  0.7818608E-02  0.1232544E+00
          4   -1    0    0  502    0  0.00000000000E+00  0.00000000000E+00  0.13968742653E+03  0.13969319965E+03  0.12700000000E+01 0. -1.
         -4   -1    0    0    0  501 -0.00000000000E+00 -0.00000000000E+00 -0.40594275552E+02  0.40614136795E+02  0.12700000000E+01 0. -1.
         25    2    1    2    0    0  0.12693407224E+02  0.15784710639E+02  0.69507598609E+02  0.14445228680E+03  0.12499950888E+03 0.  0.
    9000005    1    3    3    0    0  0.73281473802E+01 -0.51435209562E+02  0.54615422548E+02  0.75386516744E+02  0.10000000000E+01 0.  0.
    9000005    1    3    3    0    0  0.53652598435E+01  0.67219920201E+02  0.14892176062E+02  0.69065770052E+02  0.10000000000E+01 0.  0.
         21    1    1    2  502  501 -0.12693407224E+02 -0.15784710639E+02  0.29585552365E+02  0.35855049654E+02  0.00000000000E+00 0. -1.
<mgrwt>
<rscale>  1 0.12663000E+03</rscale>
<asrwt>0</asrwt>
<pdfrwt beam="1">  1        4 0.21492346E-01 0.12663000E+03</pdfrwt>
<pdfrwt beam="2">  1       -4 0.62472449E-02 0.12663000E+03</pdfrwt>
<totfact> 0.52788738E+03</totfact>
</mgrwt>
</event>
<event>
 6    4  0.5642870E-004  0.1928861E+03  0.7818608E-02  0.1155884E+00
          4   -1    0    0  502    0  0.00000000000E+00  0.00000000000E+00  0.20109764603E+02  0.20149827105E+02  0.12700000000E+01 0.  1.
         -4   -1    0    0    0  501 -0.00000000000E+00 -0.00000000000E+00 -0.18840810068E+04  0.18840814348E+04  0.12700000000E+01 0.  1.
         25    2    1    2    0    0 -0.14671185937E+03 -0.73931403182E+01 -0.14901691301E+04  0.15026007760E+04  0.12500411037E+03 0.  0.
    9000005    1    3    3    0    0 -0.91568037324E+02 -0.65612844850E+02 -0.88494927131E+03  0.89209078218E+03  0.10000000000E+01 0.  0.
    9000005    1    3    3    0    0 -0.55143822050E+02  0.58219704532E+02 -0.60521985878E+03  0.61050999383E+03  0.10000000000E+01 0.  0.
         21    1    1    2  502  501  0.14671185937E+03  0.73931403182E+01 -0.37380211208E+03  0.40163048590E+03  0.00000000000E+00 0.  1.
<mgrwt>
<rscale>  1 0.19288612E+03</rscale>
<asrwt>0</asrwt>
<pdfrwt beam="1">  1        4 0.30969261E-02 0.19288612E+03</pdfrwt>
<pdfrwt beam="2">  1       -4 0.28986159E+00 0.19288612E+03</pdfrwt>
<totfact> 0.38665804E+01</totfact>
</mgrwt>
</event>
<event>
 6    4  0.5642870E-004  0.1508155E+03  0.7818608E-02  0.1199475E+00
          4   -1    0    0  502    0  0.00000000000E+00  0.00000000000E+00  0.12251022077E+03  0.12251680331E+03  0.12700000000E+01 0.  1.
         -4   -1    0    0    0  501 -0.00000000000E+00 -0.00000000000E+00 -0.58033348641E+03  0.58033487604E+03  0.12700000000E+01 0.  1.
         25    2    1    2    0    0 -0.75605244642E+02 -0.37471292276E+02 -0.55443330898E+03  0.57457950295E+03  0.12500024140E+03 0.  0.
    9000005    1    3    3    0    0 -0.34485616556E+02 -0.46308295897E+02 -0.51048416797E+03  0.51374001378E+03  0.10000000000E+01 0.  0.
    9000005    1    3    3    0    0 -0.41119628086E+02  0.88370036207E+01 -0.43949141011E+02  0.60839489170E+02  0.10000000000E+01 0.  0.
         21    1    1    2  502  501  0.75605244642E+02  0.37471292276E+02  0.96610043343E+02  0.12827217639E+03  0.00000000000E+00 0.  1.
<mgrwt>
<rscale>  1 0.15081549E+03</rscale>
<asrwt>0</asrwt>
<pdfrwt beam="1">  1        4 0.18848340E-01 0.15081549E+03</pdfrwt>
<pdfrwt beam="2">  1       -4 0.89282686E-01 0.15081549E+03</pdfrwt>
<totfact> 0.47739107E+01</totfact>
</mgrwt>
</event>
<event>
 6    4  0.5642870E-004  0.1346488E+03  0.7818608E-02  0.1220716E+00
          4   -1    0    0  502    0  0.00000000000E+00  0.00000000000E+00  0.28917243442E+02  0.28945118212E+02  0.12700000000E+01 0.  1.
         -4   -1    0    0    0  501 -0.00000000000E+00 -0.00000000000E+00 -0.30054470158E+03  0.30054738486E+03  0.12700000000E+01 0.  1.
         25    2    1    2    0    0 -0.16105108227E+02 -0.47385411409E+02 -0.17642975434E+03  0.22194086649E+03  0.12500215307E+03 0.  0.
    9000005    1    3    3    0    0  0.47252586684E+02 -0.36179045280E+02 -0.12878216866E+03  0.14187169284E+03  0.10000000000E+01 0.  0.
    9000005    1    3    3    0    0 -0.63357694911E+02 -0.11206366130E+02 -0.47647585689E+02  0.80069173646E+02  0.10000000000E+01 0.  0.
         21    1    1    2  502  501  0.16105108227E+02  0.47385411409E+02 -0.95197703794E+02  0.10755163659E+03  0.00000000000E+00 0.  1.
<mgrwt>
<rscale>  1 0.13464877E+03</rscale>
<asrwt>0</asrwt>
<pdfrwt beam="1">  1        4 0.44511575E-02 0.13464877E+03</pdfrwt>
<pdfrwt beam="2">  1       -4 0.46239995E-01 0.13464877E+03</pdfrwt>
<totfact> 0.21507723E+03</totfact>
</mgrwt>
</event>
<event>
 6    4  0.5642870E-004  0.1279956E+03  0.7818608E-02  0.1230461E+00
          4   -1    0    0  502    0  0.00000000000E+00  0.00000000000E+00  0.35275109696E+02  0.35297964022E+02  0.12700000000E+01 0. -1.
         -4   -1    0    0    0  501 -0.00000000000E+00 -0.00000000000E+00 -0.19451486978E+03  0.19451901569E+03  0.12700000000E+01 0. -1.
         25    2    1    2    0    0  0.27145061197E+02 -0.47708713627E+01 -0.15641694819E+03  0.20211167647E+03  0.12499300989E+03 0.  0.
    9000005    1    3    3    0    0  0.61504724226E+02  0.37609305640E+01 -0.15484661213E+03  0.16665968015E+03  0.10000000000E+01 0.  0.
    9000005    1    3    3    0    0 -0.34359663029E+02 -0.85318019267E+01 -0.15703360659E+01  0.35451996319E+02  0.10000000000E+01 0.  0.
         21    1    1    2  502  501 -0.27145061197E+02  0.47708713627E+01 -0.28228118925E+01  0.27705303245E+02  0.00000000000E+00 0. -1.
<mgrwt>
<rscale>  1 0.12799558E+03</rscale>
<asrwt>0</asrwt>
<pdfrwt beam="1">  1        4 0.54290170E-02 0.12799558E+03</pdfrwt>
<pdfrwt beam="2">  1       -4 0.29927441E-01 0.12799558E+03</pdfrwt>
<totfact> 0.36041928E+03</totfact>
</mgrwt>
</event>
<event>
 6    4  0.5642870E-004  0.1318326E+03  0.7818608E-02  0.1224762E+00
         -4   -1    0    0    0  501 -0.00000000000E+00  0.00000000000E+00  0.86760226501E+01  0.87684815689E+01  0.12700000000E+01 0.  1.
          4   -1    0    0  502    0  0.00000000000E+00 -0.00000000000E+00 -0.13068835580E+04  0.13068841751E+04  0.12700000000E+01 0.  1.
         25    2    1    2    0    0 -0.24151614645E+02 -0.34225623618E+02 -0.52457928146E+03  0.54089116495E+03  0.12500054392E+03 0.  0.
    9000005    1    3    3    0    0 -0.56374277779E+02 -0.65637889148E+02 -0.36176809264E+03  0.37197250509E+03  0.10000000000E+01 0.  0.
    9000005    1    3    3    0    0  0.32222663134E+02  0.31412265530E+02 -0.16281118882E+03  0.16891865986E+03  0.10000000000E+01 0.  0.
         21    1    1    2  502  501  0.24151614645E+02  0.34225623618E+02 -0.77362825391E+03  0.77476149172E+03  0.00000000000E+00 0.  1.
<mgrwt>
<rscale>  1 0.13183258E+03</rscale>
<asrwt>0</asrwt>
<pdfrwt beam="2">  1        4 0.20106601E+00 0.13183258E+03</pdfrwt>
<pdfrwt beam="1">  1       -4 0.13419334E-02 0.13183258E+03</pdfrwt>
<totfact> 0.44842694E+02</totfact>
</mgrwt>
</event>
<event>
 6    4  0.5642870E-004  0.1277560E+03  0.7818608E-02  0.1230824E+00
          4   -1    0    0  502    0  0.00000000000E+00  0.00000000000E+00  0.63727007631E+02  0.63739661135E+02  0.12700000000E+01 0. -1.
         -4   -1    0    0    0  501 -0.00000000000E+00 -0.00000000000E+00 -0.11986445970E+03  0.11987118753E+03  0.12700000000E+01 0. -1.
         25    2    1    2    0    0  0.20702962909E+02  0.16367525397E+02 -0.77701601297E+02  0.14952975283E+03  0.12500039831E+03 0.  0.
    9000005    1    3    3    0    0  0.17369644175E+02  0.69917951604E+02 -0.57529833401E+02  0.92200359145E+02  0.10000000000E+01 0.  0.
    9000005    1    3    3    0    0  0.33333187335E+01 -0.53550426207E+02 -0.20171767896E+02  0.57329393689E+02  0.10000000000E+01 0.  0.
         21    1    1    2  502  501 -0.20702962909E+02 -0.16367525397E+02  0.21564149229E+02  0.34081095827E+02  0.00000000000E+00 0. -1.
<mgrwt>
<rscale>  1 0.12775605E+03</rscale>
<asrwt>0</asrwt>
<pdfrwt beam="1">  1        4 0.98056459E-02 0.12775605E+03</pdfrwt>
<pdfrwt beam="2">  1       -4 0.18442177E-01 0.12775605E+03</pdfrwt>
<totfact> 0.33062176E+03</totfact>
</mgrwt>
</event>
<event>
 6    4  0.5642870E-004  0.1283969E+03  0.7818608E-02  0.1229854E+00
         -4   -1    0    0    0  501 -0.00000000000E+00  0.00000000000E+00  0.28883741057E+02  0.28911648127E+02  0.12700000000E+01 0. -1.
          4   -1    0    0  502    0  0.00000000000E+00 -0.00000000000E+00 -0.21526156207E+03  0.21526530841E+03  0.12700000000E+01 0. -1.
         25    2    1    2    0    0 -0.28575328554E+02 -0.66655528285E+01 -0.15290074524E+03  0.19966073928E+03  0.12499917567E+03 0.  0.
    9000005    1    3    3    0    0 -0.40126312874E+02 -0.30172320690E+02 -0.61522707922E+01  0.50589923469E+02  0.10000000000E+01 0.  0.
    9000005    1    3    3    0    0  0.11550984320E+02  0.23506767862E+02 -0.14674847445E+03  0.14907081582E+03  0.10000000000E+01 0.  0.
         21    1    1    2  502  501  0.28575328554E+02  0.66655528285E+01 -0.33477075772E+02  0.44516217255E+02  0.00000000000E+00 0. -1.
<mgrwt>
<rscale>  1 0.12839693E+03</rscale>
<asrwt>0</asrwt>
<pdfrwt beam="2">  1        4 0.33119597E-01 0.12839693E+03</pdfrwt>
<pdfrwt beam="1">  1       -4 0.44460875E-02 0.12839693E+03</pdfrwt>
<totfact> 0.40990055E+03</totfact>
</mgrwt>
</event>
<event>
 6    4  0.5642870E-004  0.1286996E+03  0.7818608E-02  0.1229398E+00
         -4   -1    0    0    0  501 -0.00000000000E+00  0.00000000000E+00  0.21043843469E+04  0.21043847301E+04  0.12700000000E+01 0. -1.
          4   -1    0    0  502    0  0.00000000000E+00 -0.00000000000E+00 -0.53310845242E+01  0.54802702675E+01  0.12700000000E+01 0. -1.
         25    2    1    2    0    0 -0.13686029894E+02  0.27401522823E+02  0.20328472277E+04  0.20369171430E+04  0.12500178193E+03 0.  0.
    9000005    1    3    3    0    0  0.51423463623E+02  0.36106425486E+01  0.12307198712E+04  0.12317994199E+04  0.10000000000E+01 0.  0.
    9000005    1    3    3    0    0 -0.65109493517E+02  0.23790880274E+02  0.80212735650E+03  0.80511772318E+03  0.10000000000E+01 0.  0.
         21    1    1    2  502  501  0.13686029894E+02 -0.27401522823E+02  0.66206034634E+02  0.72947857331E+02  0.00000000000E+00 0. -1.
<mgrwt>
<rscale>  1 0.12869964E+03</rscale>
<asrwt>0</asrwt>
<pdfrwt beam="2">  1        4 0.83167102E-03 0.12869964E+03</pdfrwt>
<pdfrwt beam="1">  1       -4 0.32376338E+00 0.12869964E+03</pdfrwt>
<totfact> 0.17690849E+02</totfact>
</mgrwt>
</event>
<event>
 6    4  0.5642870E-004  0.1358440E+03  0.7818608E-02  0.1219033E+00
         -4   -1    0    0    0  501 -0.00000000000E+00  0.00000000000E+00  0.10205928213E+04  0.10205936115E+04  0.12700000000E+01 0.  1.
          4   -1    0    0  502    0  0.00000000000E+00 -0.00000000000E+00 -0.18008195485E+02  0.18052922329E+02  0.12700000000E+01 0.  1.
         25    2    1    2    0    0  0.24732946963E+02 -0.47077784171E+02  0.96253379381E+03  0.97207247301E+03  0.12500220850E+03 0.  0.
    9000005    1    3    3    0    0  0.64607966520E+01 -0.48652513242E+02  0.12437113977E+03  0.13370859862E+03  0.10000000000E+01 0.  0.
    9000005    1    3    3    0    0  0.18272150311E+02  0.15747290707E+01  0.83816265404E+03  0.83836387439E+03  0.10000000000E+01 0.  0.
         21    1    1    2  502  501 -0.24732946963E+02  0.47077784171E+02  0.40050832029E+02  0.66574060820E+02  0.00000000000E+00 0.  1.
<mgrwt>
<rscale>  1 0.13584399E+03</rscale>
<asrwt>0</asrwt>
<pdfrwt beam="2">  1        4 0.27739927E-02 0.13584399E+03</pdfrwt>
<pdfrwt beam="1">  1       -4 0.15701780E+00 0.13584399E+03</pdfrwt>
<totfact> 0.28847545E+02</totfact>
</mgrwt>
</event>
<event>
 6    4  0.5642870E-004  0.2807712E+03  0.7818608E-02  0.1095268E+00
          4   -1    0    0  502    0  0.00000000000E+00  0.00000000000E+00  0.19224319432E+03  0.19224738922E+03  0.12700000000E+01 0.  1.
         -4   -1    0    0    0  501 -0.00000000000E+00 -0.00000000000E+00 -0.38266622638E+03  0.38266833383E+03  0.12700000000E+01 0.  1.
         25    2    1    2    0    0 -0.12040024769E+02 -0.25112019421E+03 -0.15589396437E+03  0.32114698846E+03  0.12500458367E+03 0.  0.
    9000005    1    3    3    0    0  0.19419224219E+02 -0.23607218859E+02  0.15763917685E+02  0.34407966407E+02  0.10000000000E+01 0.  0.
    9000005    1    3    3    0    0 -0.31459248988E+02 -0.22751297535E+03 -0.17165788206E+03  0.28673902206E+03  0.10000000000E+01 0.  0.
         21    1    1    2  502  501  0.12040024769E+02  0.25112019421E+03 -0.34529067692E+02  0.25376873458E+03  0.00000000000E+00 0.  1.
<mgrwt>
<rscale>  1 0.28077119E+03</rscale>
<asrwt>0</asrwt>
<pdfrwt beam="1">  1        4 0.29576361E-01 0.28077119E+03</pdfrwt>
<pdfrwt beam="2">  1       -4 0.58872212E-01 0.28077119E+03</pdfrwt>
<totfact> 0.55696090E+01</totfact>
</mgrwt>
</event>
<event>
 6    4  0.5642870E-004  0.1282269E+03  0.7818608E-02  0.1230111E+00
         -4   -1    0    0    0  501 -0.00000000000E+00  0.00000000000E+00  0.51874658024E+02  0.51890201822E+02  0.12700000000E+01 0.  1.
          4   -1    0    0  502    0  0.00000000000E+00 -0.00000000000E+00 -0.13268508882E+03  0.13269116660E+03  0.12700000000E+01 0.  1.
         25    2    1    2    0    0  0.13734785078E+02 -0.25113421063E+02 -0.39216195273E+02  0.13408969914E+03  0.12499123651E+03 0.  0.
    9000005    1    3    3    0    0  0.47090865531E+02 -0.61343278267E+02 -0.13451674338E+02  0.78501560160E+02  0.10000000000E+01 0.  0.
    9000005    1    3    3    0    0 -0.33356080453E+02  0.36229857204E+02 -0.25764520935E+02  0.55588138980E+02  0.10000000000E+01 0.  0.
         21    1    1    2  502  501 -0.13734785078E+02  0.25113421063E+02 -0.41594235519E+02  0.50491669284E+02  0.00000000000E+00 0.  1.
<mgrwt>
<rscale>  1 0.12822690E+03</rscale>
<asrwt>0</asrwt>
<pdfrwt beam="2">  1        4 0.20414754E-01 0.12822690E+03</pdfrwt>
<pdfrwt beam="1">  1       -4 0.79823799E-02 0.12822690E+03</pdfrwt>
<totfact> 0.38871192E+03</totfact>
</mgrwt>
</event>
<event>
 6    4  0.5642870E-004  0.1282105E+03  0.7818608E-02  0.1230135E+00
         -4   -1    0    0    0  501 -0.00000000000E+00  0.00000000000E+00  0.15360413292E+02  0.15412825714E+02  0.12700000000E+01 0. -1.
          4   -1    0    0  502    0  0.00000000000E+00 -0.00000000000E+00 -0.60067096352E+03  0.60067230610E+03  0.12700000000E+01 0. -1.
         25    2    1    2    0    0  0.40529626019E+01  0.28219931626E+02 -0.26372645335E+03  0.29323977811E+03  0.12500053688E+03 0.  0.
    9000005    1    3    3    0    0  0.50083301083E+02  0.44208890447E+02 -0.21151106109E+03  0.22181229002E+03  0.10000000000E+01 0.  0.
    9000005    1    3    3    0    0 -0.46030338481E+02 -0.15988958821E+02 -0.52215392261E+02  0.71427488083E+02  0.10000000000E+01 0.  0.
         21    1    1    2  502  501 -0.40529626019E+01 -0.28219931626E+02 -0.32158409687E+03  0.32284535370E+03  0.00000000000E+00 0. -1.
<mgrwt>
<rscale>  1 0.12821047E+03</rscale>
<asrwt>0</asrwt>
<pdfrwt beam="2">  1        4 0.92415034E-01 0.12821047E+03</pdfrwt>
<pdfrwt beam="1">  1       -4 0.23672760E-02 0.12821047E+03</pdfrwt>
<totfact> 0.13100697E+03</totfact>
</mgrwt>
</event>
<event>
 6    4  0.5642870E-004  0.1306170E+03  0.7818608E-02  0.1226543E+00
          4   -1    0    0  502    0  0.00000000000E+00  0.00000000000E+00  0.22752530408E+02  0.22787947253E+02  0.12700000000E+01 0. -1.
         -4   -1    0    0    0  501 -0.00000000000E+00 -0.00000000000E+00 -0.32667197515E+03  0.32667444382E+03  0.12700000000E+01 0. -1.
         25    2    1    2    0    0 -0.28171201395E+02 -0.25334552107E+02 -0.26328908469E+03  0.29390807282E+03  0.12500142814E+03 0.  0.
    9000005    1    3    3    0    0  0.33693542293E+02 -0.49778855708E+02 -0.89458994752E+02  0.10778265635E+03  0.10000000000E+01 0.  0.
    9000005    1    3    3    0    0 -0.61864743688E+02  0.24444303602E+02 -0.17383008994E+03  0.18612541647E+03  0.10000000000E+01 0.  0.
         21    1    1    2  502  501  0.28171201395E+02  0.25334552107E+02 -0.40630360050E+02  0.55554318251E+02  0.00000000000E+00 0. -1.
<mgrwt>
<rscale>  1 0.13061705E+03</rscale>
<asrwt>0</asrwt>
<pdfrwt beam="1">  1        4 0.35033038E-02 0.13061705E+03</pdfrwt>
<pdfrwt beam="2">  1       -4 0.50260138E-01 0.13061705E+03</pdfrwt>
<totfact> 0.26379678E+03</totfact>
</mgrwt>
</event>
<event>
 6    4  0.5642870E-004  0.1265974E+03  0.7818608E-02  0.1232594E+00
          4   -1    0    0  502    0  0.00000000000E+00  0.00000000000E+00  0.52622873836E+02  0.52638196690E+02  0.12700000000E+01 0. -1.
         -4   -1    0    0    0  501 -0.00000000000E+00 -0.00000000000E+00 -0.11884304830E+03  0.11884983395E+03  0.12700000000E+01 0. -1.
         25    2    1    2    0    0  0.40547711141E+01  0.19640297815E+02 -0.77542732471E+02  0.14845798967E+03  0.12499886748E+03 0.  0.
    9000005    1    3    3    0    0 -0.16584950421E+02  0.42842764779E+01 -0.10755572673E+03  0.10891579296E+03  0.10000000000E+01 0.  0.
    9000005    1    3    3    0    0  0.20639721535E+02  0.15356021337E+02  0.30012994254E+02  0.39542196707E+02  0.10000000000E+01 0.  0.
         21    1    1    2  502  501 -0.40547711141E+01 -0.19640297815E+02  0.11322558008E+02  0.23030040966E+02  0.00000000000E+00 0. -1.
<mgrwt>
<rscale>  1 0.12659739E+03</rscale>
<asrwt>0</asrwt>
<pdfrwt beam="1">  1        4 0.80975274E-02 0.12659739E+03</pdfrwt>
<pdfrwt beam="2">  1       -4 0.18285247E-01 0.12659739E+03</pdfrwt>
<totfact> 0.46087301E+03</totfact>
</mgrwt>
</event>
<event>
 6    4  0.5642870E-004  0.1269309E+03  0.7818608E-02  0.1232082E+00
          4   -1    0    0  502    0  0.00000000000E+00  0.00000000000E+00  0.10250496110E+03  0.10251282822E+03  0.12700000000E+01 0.  1.
         -4   -1    0    0    0  501 -0.00000000000E+00 -0.00000000000E+00 -0.93019767915E+02  0.93028437173E+02  0.12700000000E+01 0.  1.
         25    2    1    2    0    0 -0.21997945528E+02  0.18291216962E+01 -0.46642218232E+02  0.13522923006E+03  0.12499677135E+03 0.  0.
    9000005    1    3    3    0    0 -0.15609705302E+02  0.62871474516E+02 -0.16562227490E+02  0.66871463173E+02  0.10000000000E+01 0.  0.
    9000005    1    3    3    0    0 -0.63882402259E+01 -0.61042352820E+02 -0.30079990742E+02  0.68357766889E+02  0.10000000000E+01 0.  0.
         21    1    1    2  502  501  0.21997945528E+02 -0.18291216962E+01  0.56127411414E+02  0.60312035330E+02  0.00000000000E+00 0. -1.
<mgrwt>
<rscale>  1 0.12693088E+03</rscale>
<asrwt>0</asrwt>
<pdfrwt beam="1">  1        4 0.15771266E-01 0.12693088E+03</pdfrwt>
<pdfrwt beam="2">  1       -4 0.14312006E-01 0.12693088E+03</pdfrwt>
<totfact> 0.22821428E+03</totfact>
</mgrwt>
</event>
<event>
 6    4  0.5642870E-004  0.1435560E+03  0.7818608E-02  0.1208623E+00
         -4   -1    0    0    0  501 -0.00000000000E+00  0.00000000000E+00  0.10906919753E+02  0.10980610115E+02  0.12700000000E+01 0. -1.
          4   -1    0    0  502    0  0.00000000000E+00 -0.00000000000E+00 -0.13849895679E+04  0.13849901502E+04  0.12700000000E+01 0. -1.
         25    2    1    2    0    0  0.52521268310E+02 -0.47171494082E+02 -0.53505631945E+03  0.55397977832E+03  0.12499878529E+03 0.  0.
    9000005    1    3    3    0    0  0.83994910179E+02 -0.50259920773E+02 -0.48486546263E+03  0.49464807836E+03  0.10000000000E+01 0.  0.
    9000005    1    3    3    0    0 -0.31473641869E+02  0.30884266906E+01 -0.50190856817E+02  0.59331699959E+02  0.10000000000E+01 0.  0.
         21    1    1    2  502  501 -0.52521268310E+02  0.47171494082E+02 -0.83902632869E+03  0.84199098197E+03  0.00000000000E+00 0. -1.
<mgrwt>
<rscale>  1 0.14355602E+03</rscale>
<asrwt>0</asrwt>
<pdfrwt beam="2">  1        4 0.21308089E+00 0.14355602E+03</pdfrwt>
<pdfrwt beam="1">  1       -4 0.16837020E-02 0.14355602E+03</pdfrwt>
<totfact> 0.27163342E+02</totfact>
</mgrwt>
</event>
<event>
 6    4  0.5642870E-004  0.1314415E+03  0.7818608E-02  0.1225332E+00
          4   -1    0    0  502    0  0.00000000000E+00  0.00000000000E+00  0.10248930869E+03  0.10249717701E+03  0.12700000000E+01 0.  1.
         -4   -1    0    0    0  501 -0.00000000000E+00 -0.00000000000E+00 -0.85812685922E+02  0.85822083202E+02  0.12700000000E+01 0.  1.
         25    2    1    2    0    0  0.23708677270E+02  0.33022099619E+02 -0.20741884494E+02  0.13306796949E+03  0.12499719313E+03 0.  0.
    9000005    1    3    3    0    0  0.59616000150E+02 -0.41025795854E+01  0.24313717989E+02  0.64521744518E+02  0.10000000000E+01 0.  0.
    9000005    1    3    3    0    0 -0.35907322881E+02  0.37124679204E+02 -0.45055602484E+02  0.68546224970E+02  0.10000000000E+01 0.  0.
         21    1    1    2  502  501 -0.23708677270E+02 -0.33022099619E+02  0.37418507259E+02  0.55251290724E+02  0.00000000000E+00 0.  1.
<mgrwt>
<rscale>  1 0.13144147E+03</rscale>
<asrwt>0</asrwt>
<pdfrwt beam="1">  1        4 0.15768914E-01 0.13144147E+03</pdfrwt>
<pdfrwt beam="2">  1       -4 0.13203280E-01 0.13144147E+03</pdfrwt>
<totfact> 0.26462259E+03</totfact>
</mgrwt>
</event>
<event>
 6    4  0.5642870E-004  0.1268949E+03  0.7818608E-02  0.1232137E+00
          4   -1    0    0  502    0  0.00000000000E+00  0.00000000000E+00  0.88659378865E+02  0.88668474447E+02  0.12700000000E+01 0.  1.
         -4   -1    0    0    0  501 -0.00000000000E+00 -0.00000000000E+00 -0.79342691489E+02  0.79352854975E+02  0.12700000000E+01 0.  1.
         25    2    1    2    0    0 -0.13842225322E+02 -0.16912608829E+02 -0.23045602452E+02  0.12897057601E+03  0.12499866457E+03 0.  0.
    9000005    1    3    3    0    0  0.22649299687E+02  0.40409236212E+02 -0.37360110543E+02  0.59520374725E+02  0.10000000000E+01 0.  0.
    9000005    1    3    3    0    0 -0.36491525009E+02 -0.57321845041E+02  0.14314508091E+02  0.69450201284E+02  0.10000000000E+01 0.  0.
         21    1    1    2  502  501  0.13842225322E+02  0.16912608829E+02  0.32362289828E+02  0.39050753414E+02  0.00000000000E+00 0.  1.
<mgrwt>
<rscale>  1 0.12689488E+03</rscale>
<asrwt>0</asrwt>
<pdfrwt beam="1">  1        4 0.13641386E-01 0.12689488E+03</pdfrwt>
<pdfrwt beam="2">  1       -4 0.12208049E-01 0.12689488E+03</pdfrwt>
<totfact> 0.38629989E+03</totfact>
</mgrwt>
</event>
<event>
 6    4  0.5642870E-004  0.1271018E+03  0.7818608E-02  0.1231821E+00
         -4   -1    0    0    0  501 -0.00000000000E+00  0.00000000000E+00  0.11115085820E+04  0.11115093075E+04  0.12700000000E+01 0. -1.
          4   -1    0    0  502    0  0.00000000000E+00 -0.00000000000E+00 -0.58901192865E+01  0.60254796663E+01  0.12700000000E+01 0. -1.
         25    2    1    2    0    0  0.43603842683E+01 -0.22596135056E+02  0.10448922485E+04  0.10525942654E+04  0.12500111387E+03 0.  0.
    9000005    1    3    3    0    0  0.22039702151E+02 -0.51577369771E+02  0.95261666337E+03  0.95426698616E+03  0.10000000000E+01 0.  0.
    9000005    1    3    3    0    0 -0.17679317883E+02  0.28981234716E+02  0.92275585095E+02  0.98327279283E+02  0.10000000000E+01 0.  0.
         21    1    1    2  502  501 -0.43603842683E+01  0.22596135056E+02  0.60726214204E+02  0.64940521725E+02  0.00000000000E+00 0. -1.
<mgrwt>
<rscale>  1 0.12710184E+03</rscale>
<asrwt>0</asrwt>
<pdfrwt beam="2">  1        4 0.91663961E-03 0.12710184E+03</pdfrwt>
<pdfrwt beam="1">  1       -4 0.17101193E+00 0.12710184E+03</pdfrwt>
<totfact> 0.12365419E+03</totfact>
</mgrwt>
</event>
<event>
 6    4  0.5642870E-004  0.1271563E+03  0.7818608E-02  0.1231737E+00
          4   -1    0    0  502    0  0.00000000000E+00  0.00000000000E+00  0.78013547535E+03  0.78013650908E+03  0.12700000000E+01 0. -1.
         -4   -1    0    0    0  501 -0.00000000000E+00 -0.00000000000E+00 -0.77268378721E+01  0.78305123397E+01  0.12700000000E+01 0. -1.
         25    2    1    2    0    0  0.77975769566E+01 -0.21979201407E+02  0.55857489834E+03  0.57286528852E+03  0.12499933696E+03 0.  0.
    9000005    1    3    3    0    0 -0.18829965241E+02 -0.39719826501E+02  0.52363615462E+03  0.52547888124E+03  0.10000000000E+01 0.  0.
    9000005    1    3    3    0    0  0.26627542197E+02  0.17740625094E+02  0.34938743720E+02  0.47386407280E+02  0.10000000000E+01 0.  0.
         21    1    1    2  502  501 -0.77975769566E+01  0.21979201407E+02  0.21383373914E+03  0.21510173290E+03  0.00000000000E+00 0. -1.
<mgrwt>
<rscale>  1 0.12715629E+03</rscale>
<asrwt>0</asrwt>
<pdfrwt beam="1">  1        4 0.12002893E+00 0.12715629E+03</pdfrwt>
<pdfrwt beam="2">  1       -4 0.11967984E-02 0.12715629E+03</pdfrwt>
<totfact> 0.20168525E+03</totfact>
</mgrwt>
</event>
<event>
 6    4  0.5642870E-004  0.1269090E+03  0.7818608E-02  0.1232116E+00
          4   -1    0    0  502    0  0.00000000000E+00  0.00000000000E+00  0.27368578278E+03  0.27368872939E+03  0.12700000000E+01 0. -1.
         -4   -1    0    0    0  501 -0.00000000000E+00 -0.00000000000E+00 -0.22043554259E+02  0.22080108341E+02  0.12700000000E+01 0. -1.
         25    2    1    2    0    0  0.15839392180E+02  0.15151662879E+02  0.17579206265E+03  0.21681501012E+03  0.12500176034E+03 0.  0.
    9000005    1    3    3    0    0 -0.50046914234E+02  0.18901723466E+02  0.43443577607E+02  0.68922515985E+02  0.10000000000E+01 0.  0.
    9000005    1    3    3    0    0  0.65886306415E+02 -0.37500605867E+01  0.13234848504E+03  0.14789249413E+03  0.10000000000E+01 0.  0.
         21    1    1    2  502  501 -0.15839392180E+02 -0.15151662879E+02  0.75850165870E+02  0.78953827615E+02  0.00000000000E+00 0.  1.
<mgrwt>
<rscale>  1 0.12690902E+03</rscale>
<asrwt>0</asrwt>
<pdfrwt beam="1">  1        4 0.42108543E-01 0.12690902E+03</pdfrwt>
<pdfrwt beam="2">  1       -4 0.33943546E-02 0.12690902E+03</pdfrwt>
<totfact> 0.39281314E+03</totfact>
</mgrwt>
</event>
<event>
 6    4  0.5642870E-004  0.1362112E+03  0.7818608E-02  0.1218520E+00
         -4   -1    0    0    0  501 -0.00000000000E+00  0.00000000000E+00  0.38044746456E+02  0.38065937961E+02  0.12700000000E+01 0.  1.
          4   -1    0    0  502    0  0.00000000000E+00 -0.00000000000E+00 -0.24875222526E+03  0.24875546722E+03  0.12700000000E+01 0.  1.
         25    2    1    2    0    0 -0.20879729432E+02 -0.49927082662E+02 -0.17591436298E+03  0.22248449825E+03  0.12499924870E+03 0.  0.
    9000005    1    3    3    0    0  0.78104438867E+01  0.40350366155E+02 -0.45916549420E+02  0.61631847232E+02  0.10000000000E+01 0.  0.
    9000005    1    3    3    0    0 -0.28690173319E+02 -0.90277448817E+02 -0.12999781356E+03  0.16085265102E+03  0.10000000000E+01 0.  0.
         21    1    1    2  502  501  0.20879729432E+02  0.49927082662E+02 -0.34793115823E+02  0.64336906927E+02  0.00000000000E+00 0.  1.
<mgrwt>
<rscale>  1 0.13621119E+03</rscale>
<asrwt>0</asrwt>
<pdfrwt beam="2">  1        4 0.38271452E-01 0.13621119E+03</pdfrwt>
<pdfrwt beam="1">  1       -4 0.58549175E-02 0.13621119E+03</pdfrwt>
<totfact> 0.20181487E+03</totfact>
</mgrwt>
</event>
<event>
 6    4  0.5642870E-004  0.1266151E+03  0.7818608E-02  0.1232567E+00
         -4   -1    0    0    0  501 -0.00000000000E+00  0.00000000000E+00  0.19603707320E+03  0.19604118692E+03  0.12700000000E+01 0.  1.
          4   -1    0    0  502    0  0.00000000000E+00 -0.00000000000E+00 -0.27527455854E+02  0.27556736487E+02  0.12700000000E+01 0.  1.
         25    2    1    2    0    0  0.62991965910E+01 -0.19149028985E+02  0.14919786094E+03  0.19568181472E+03  0.12500002286E+03 0.  0.
    9000005    1    3    3    0    0  0.24703180906E+01 -0.38596756307E+02  0.16552270580E+03  0.16998405279E+03  0.10000000000E+01 0.  0.
    9000005    1    3    3    0    0  0.38288785004E+01  0.19447727322E+02 -0.16324844857E+02  0.25697761929E+02  0.10000000000E+01 0.  0.
         21    1    1    2  502  501 -0.62991965910E+01  0.19149028985E+02  0.19311756410E+02  0.27916108690E+02  0.00000000000E+00 0.  1.
<mgrwt>
<rscale>  1 0.12661505E+03</rscale>
<asrwt>0</asrwt>
<pdfrwt beam="2">  1        4 0.42375621E-02 0.12661505E+03</pdfrwt>
<pdfrwt beam="1">  1       -4 0.30162118E-01 0.12661505E+03</pdfrwt>
<totfact> 0.52675108E+03</totfact>
</mgrwt>
</event>
<event>
 6    4  0.5642870E-004  0.1273913E+03  0.7818608E-02  0.1231379E+00
          4   -1    0    0  502    0  0.00000000000E+00  0.00000000000E+00  0.73051870275E+02  0.73062908857E+02  0.12700000000E+01 0. -1.
         -4   -1    0    0    0  501 -0.00000000000E+00 -0.00000000000E+00 -0.80053830090E+02  0.80063903303E+02  0.12700000000E+01 0. -1.
         25    2    1    2    0    0  0.17018485521E+01 -0.24504101282E+02 -0.12349048223E+02  0.12798842274E+03  0.12500076038E+03 0.  0.
    9000005    1    3    3    0    0 -0.41917011936E+02 -0.16111293125E+02  0.39423667191E+02  0.59764832390E+02  0.10000000000E+01 0.  0.
    9000005    1    3    3    0    0  0.43618860489E+02 -0.83928081565E+01 -0.51772715414E+02  0.68223590351E+02  0.10000000000E+01 0.  0.
         21    1    1    2  502  501 -0.17018485521E+01  0.24504101282E+02  0.53470884076E+01  0.25138389419E+02  0.00000000000E+00 0.  1.
<mgrwt>
<rscale>  1 0.12739128E+03</rscale>
<asrwt>0</asrwt>
<pdfrwt beam="1">  1        4 0.11240373E-01 0.12739128E+03</pdfrwt>
<pdfrwt beam="2">  1       -4 0.12317598E-01 0.12739128E+03</pdfrwt>
<totfact> 0.53055882E+03</totfact>
</mgrwt>
</event>
<event>
 6    4  0.5642870E-004  0.1273661E+03  0.7818608E-02  0.1231417E+00
          4   -1    0    0  502    0  0.00000000000E+00  0.00000000000E+00  0.76682724577E+02  0.76693240566E+02  0.12700000000E+01 0. -1.
         -4   -1    0    0    0  501 -0.00000000000E+00 -0.00000000000E+00 -0.79246976861E+02  0.79257152621E+02  0.12700000000E+01 0. -1.
         25    2    1    2    0    0  0.14617166124E+02 -0.19600281783E+02 -0.15471006939E+02  0.12830230271E+03  0.12499718490E+03 0.  0.
    9000005    1    3    3    0    0  0.23114423866E+02  0.92088252881E+01  0.50224762183E+02  0.56058949242E+02  0.10000000000E+01 0.  0.
    9000005    1    3    3    0    0 -0.84972577412E+01 -0.28809107071E+02 -0.65695769122E+02  0.72243353465E+02  0.10000000000E+01 0.  0.
         21    1    1    2  502  501 -0.14617166124E+02  0.19600281783E+02  0.12906754655E+02  0.27648090480E+02  0.00000000000E+00 0.  1.
<mgrwt>
<rscale>  1 0.12736612E+03</rscale>
<asrwt>0</asrwt>
<pdfrwt beam="1">  1        4 0.11798934E-01 0.12736612E+03</pdfrwt>
<pdfrwt beam="2">  1       -4 0.12193434E-01 0.12736612E+03</pdfrwt>
<totfact> 0.49703915E+03</totfact>
</mgrwt>
</event>
<event>
 6    4  0.5642870E-004  0.1350638E+03  0.7818608E-02  0.1220130E+00
          4   -1    0    0  502    0  0.00000000000E+00  0.00000000000E+00  0.65361513788E+03  0.65361637171E+03  0.12700000000E+01 0. -1.
         -4   -1    0    0    0  501 -0.00000000000E+00 -0.00000000000E+00 -0.18531366598E+02  0.18574833727E+02  0.12700000000E+01 0. -1.
         25    2    1    2    0    0 -0.51122673925E+02  0.22736335712E+01  0.25391108491E+03  0.28759880557E+03  0.12499414677E+03 0.  0.
    9000005    1    3    3    0    0 -0.20553054743E+02 -0.56495176431E+02  0.17225231765E+03  0.18244449555E+03  0.10000000000E+01 0.  0.
    9000005    1    3    3    0    0 -0.30569619182E+02  0.58768810002E+02  0.81658767258E+02  0.10515431002E+03  0.10000000000E+01 0.  0.
         21    1    1    2  502  501  0.51122673925E+02 -0.22736335712E+01  0.38117268637E+03  0.38459239987E+03  0.00000000000E+00 0. -1.
<mgrwt>
<rscale>  1 0.13506381E+03</rscale>
<asrwt>0</asrwt>
<pdfrwt beam="1">  1        4 0.10055959E+00 0.13506381E+03</pdfrwt>
<pdfrwt beam="2">  1       -4 0.28544186E-02 0.13506381E+03</pdfrwt>
<totfact> 0.81592405E+02</totfact>
</mgrwt>
</event>
<event>
 6    4  0.5642870E-004  0.1285687E+03  0.7818608E-02  0.1229595E+00
          4   -1    0    0  502    0  0.00000000000E+00  0.00000000000E+00  0.71692406891E+03  0.71692519378E+03  0.12700000000E+01 0.  1.
         -4   -1    0    0    0  501 -0.00000000000E+00 -0.00000000000E+00 -0.97063979609E+01  0.97891297558E+01  0.12700000000E+01 0.  1.
         25    2    1    2    0    0  0.18133862910E+02 -0.24020424928E+02  0.45859041868E+03  0.47627205800E+03  0.12499633326E+03 0.  0.
    9000005    1    3    3    0    0  0.24522212708E+02 -0.30569431631E+02  0.34914534093E+02  0.52496226124E+02  0.10000000000E+01 0.  0.
    9000005    1    3    3    0    0 -0.63883497972E+01  0.65490067030E+01  0.42367588458E+03  0.42377583187E+03  0.10000000000E+01 0.  0.
         21    1    1    2  502  501 -0.18133862910E+02  0.24020424928E+02  0.24862725227E+03  0.25044226554E+03  0.00000000000E+00 0. -1.
<mgrwt>
<rscale>  1 0.12856866E+03</rscale>
<asrwt>0</asrwt>
<pdfrwt beam="1">  1        4 0.11030249E+00 0.12856866E+03</pdfrwt>
<pdfrwt beam="2">  1       -4 0.14997421E-02 0.12856866E+03</pdfrwt>
<totfact> 0.17544644E+03</totfact>
</mgrwt>
</event>
<event>
 6    4  0.5642870E-004  0.1387669E+03  0.7818608E-02  0.1214998E+00
          4   -1    0    0  502    0  0.00000000000E+00  0.00000000000E+00  0.25131516608E+03  0.25131837498E+03  0.12700000000E+01 0.  1.
         -4   -1    0    0    0  501 -0.00000000000E+00 -0.00000000000E+00 -0.51586578668E+02  0.51602209242E+02  0.12700000000E+01 0.  1.
         25    2    1    2    0    0 -0.51886714291E+02  0.30666782553E+02  0.19904863701E+03  0.24264500870E+03  0.12499423059E+03 0.  0.
    9000005    1    3    3    0    0 -0.43390803508E+02  0.38843464582E+02  0.21501885237E+03  0.22276822808E+03  0.10000000000E+01 0.  0.
    9000005    1    3    3    0    0 -0.84959107823E+01 -0.81766820292E+01 -0.15970215360E+02  0.19876780616E+02  0.10000000000E+01 0.  0.
         21    1    1    2  502  501  0.51886714291E+02 -0.30666782553E+02  0.67995040590E+00  0.60275575522E+02  0.00000000000E+00 0.  1.
<mgrwt>
<rscale>  1 0.13876686E+03</rscale>
<asrwt>0</asrwt>
<pdfrwt beam="1">  1        4 0.38665321E-01 0.13876686E+03</pdfrwt>
<pdfrwt beam="2">  1       -4 0.79378459E-02 0.13876686E+03</pdfrwt>
<totfact> 0.12058595E+03</totfact>
</mgrwt>
</event>
<event>
 6    4  0.5642870E-004  0.1275540E+03  0.7818608E-02  0.1231131E+00
          4   -1    0    0  502    0  0.00000000000E+00  0.00000000000E+00  0.14687088734E+04  0.14687094225E+04  0.12700000000E+01 0.  1.
         -4   -1    0    0    0  501 -0.00000000000E+00 -0.00000000000E+00 -0.40074727176E+01  0.42038955247E+01  0.12700000000E+01 0.  1.
         25    2    1    2    0    0  0.25389652142E+02  0.70163982961E+00  0.11102807528E+04  0.11175837212E+04  0.12499958836E+03 0.  0.
    9000005    1    3    3    0    0  0.37071116535E+02  0.14951406115E+02  0.10850455329E+03  0.11563758174E+03  0.10000000000E+01 0.  0.
    9000005    1    3    3    0    0 -0.11681464393E+02 -0.14249766285E+02  0.10017761995E+04  0.10019461395E+04  0.10000000000E+01 0.  0.
         21    1    1    2  502  501 -0.25389652142E+02 -0.70163982961E+00  0.35442064792E+03  0.35532959686E+03  0.00000000000E+00 0.  1.
<mgrwt>
<rscale>  1 0.12755400E+03</rscale>
<asrwt>0</asrwt>
<pdfrwt beam="1">  1        4 0.22597047E+00 0.12755400E+03</pdfrwt>
<pdfrwt beam="2">  1       -4 0.63168565E-03 0.12755400E+03</pdfrwt>
<totfact> 0.97767523E+02</totfact>
</mgrwt>
</event>
<event>
 6    4  0.5642870E-004  0.1390761E+03  0.7818608E-02  0.1214578E+00
         -4   -1    0    0    0  501 -0.00000000000E+00  0.00000000000E+00  0.16808586540E+03  0.16809066317E+03  0.12700000000E+01 0. -1.
          4   -1    0    0  502    0  0.00000000000E+00 -0.00000000000E+00 -0.28742866108E+03  0.28743146681E+03  0.12700000000E+01 0. -1.
         25    2    1    2    0    0  0.19249268041E+02  0.57849028711E+02  0.13509090722E+03  0.19388582971E+03  0.12500046922E+03 0.  0.
    9000005    1    3    3    0    0 -0.36018811998E+02 -0.21740742495E+02  0.37730570115E+02  0.56520886610E+02  0.10000000000E+01 0.  0.
    9000005    1    3    3    0    0  0.55268080038E+02  0.79589771206E+02  0.97360337109E+02  0.13736494310E+03  0.10000000000E+01 0.  0.
         21    1    1    2  502  501 -0.19249268041E+02 -0.57849028711E+02 -0.25443370291E+03  0.26163630027E+03  0.00000000000E+00 0. -1.
<mgrwt>
<rscale>  1 0.13907610E+03</rscale>
<asrwt>0</asrwt>
<pdfrwt beam="2">  1        4 0.44220379E-01 0.13907610E+03</pdfrwt>
<pdfrwt beam="1">  1       -4 0.25859949E-01 0.13907610E+03</pdfrwt>
<totfact> 0.11782028E+02</totfact>
</mgrwt>
</event>
<event>
 6    4  0.5642870E-004  0.1426907E+03  0.7818608E-02  0.1209754E+00
          4   -1    0    0  502    0  0.00000000000E+00  0.00000000000E+00  0.16342031874E+02  0.16391305798E+02  0.12700000000E+01 0.  1.
         -4   -1    0    0    0  501 -0.00000000000E+00 -0.00000000000E+00 -0.73435265310E+03  0.73435375128E+03  0.12700000000E+01 0.  1.
         25    2    1    2    0    0 -0.58891639246E+02  0.35599498081E+02 -0.56888726828E+03  0.58650948288E+03  0.12500040025E+03 0.  0.
    9000005    1    3    3    0    0  0.12549037936E+02  0.57605675563E+02 -0.35661856846E+03  0.36146050349E+03  0.10000000000E+01 0.  0.
    9000005    1    3    3    0    0 -0.71440677182E+02 -0.22006177481E+02 -0.21226869981E+03  0.22504897939E+03  0.10000000000E+01 0.  0.
         21    1    1    2  502  501  0.58891639246E+02 -0.35599498081E+02 -0.14912335295E+03  0.16423557420E+03  0.00000000000E+00 0.  1.
<mgrwt>
<rscale>  1 0.14269075E+03</rscale>
<asrwt>0</asrwt>
<pdfrwt beam="1">  1        4 0.25180341E-02 0.14269075E+03</pdfrwt>
<pdfrwt beam="2">  1       -4 0.11298118E+00 0.14269075E+03</pdfrwt>
<totfact> 0.76318498E+02</totfact>
</mgrwt>
</event>
<event>
 6    4  0.5642870E-004  0.1276723E+03  0.7818608E-02  0.1230951E+00
         -4   -1    0    0    0  501 -0.00000000000E+00  0.00000000000E+00  0.29044786692E+03  0.29045064348E+03  0.12700000000E+01 0. -1.
          4   -1    0    0  502    0  0.00000000000E+00 -0.00000000000E+00 -0.23426231082E+02  0.23460630910E+02  0.12700000000E+01 0. -1.
         25    2    1    2    0    0  0.20082749170E+02  0.16524580792E+02  0.25517639110E+03  0.28533351368E+03  0.12499537938E+03 0.  0.
    9000005    1    3    3    0    0 -0.26503940374E+02  0.13159072855E+02  0.40324376632E+01  0.29881107865E+02  0.10000000000E+01 0.  0.
    9000005    1    3    3    0    0  0.46586689544E+02  0.33655079370E+01  0.25114395344E+03  0.25545240581E+03  0.10000000000E+01 0.  0.
         21    1    1    2  502  501 -0.20082749170E+02 -0.16524580792E+02  0.11845244735E+02  0.28577760714E+02  0.00000000000E+00 0.  1.
<mgrwt>
<rscale>  1 0.12767233E+03</rscale>
<asrwt>0</asrwt>
<pdfrwt beam="2">  1        4 0.36068952E-02 0.12767233E+03</pdfrwt>
<pdfrwt beam="1">  1       -4 0.44687147E-01 0.12767233E+03</pdfrwt>
<totfact> 0.31762397E+03</totfact>
</mgrwt>
</event>
<event>
 6    4  0.5642870E-004  0.1279444E+03  0.7818608E-02  0.1230538E+00
          4   -1    0    0  502    0  0.00000000000E+00  0.00000000000E+00  0.23271396659E+03  0.23271743198E+03  0.12700000000E+01 0. -1.
         -4   -1    0    0    0  501 -0.00000000000E+00 -0.00000000000E+00 -0.25876940569E+02  0.25908086637E+02  0.12700000000E+01 0. -1.
         25    2    1    2    0    0 -0.11071607629E+02 -0.24961680359E+02  0.17147900883E+03  0.21395052157E+03  0.12499643685E+03 0.  0.
    9000005    1    3    3    0    0 -0.37355006967E+02 -0.48995081270E+02  0.30911422706E+02  0.68937874843E+02  0.10000000000E+01 0.  0.
    9000005    1    3    3    0    0  0.26283399338E+02  0.24033400911E+02  0.14056758613E+03  0.14501264672E+03  0.10000000000E+01 0.  0.
         21    1    1    2  502  501  0.11071607629E+02  0.24961680359E+02  0.35358017189E+02  0.44674997050E+02  0.00000000000E+00 0. -1.
<mgrwt>
<rscale>  1 0.12794442E+03</rscale>
<asrwt>0</asrwt>
<pdfrwt beam="1">  1        4 0.35804810E-01 0.12794442E+03</pdfrwt>
<pdfrwt beam="2">  1       -4 0.39837303E-02 0.12794442E+03</pdfrwt>
<totfact> 0.41979356E+03</totfact>
</mgrwt>
</event>
<event>
 6    4  0.5642870E-004  0.1269711E+03  0.7818608E-02  0.1232021E+00
          4   -1    0    0  502    0  0.00000000000E+00  0.00000000000E+00  0.17224906404E+03  0.17225374586E+03  0.12700000000E+01 0. -1.
         -4   -1    0    0    0  501 -0.00000000000E+00 -0.00000000000E+00 -0.32708202719E+02  0.32732849328E+02  0.12700000000E+01 0. -1.
         25    2    1    2    0    0  0.59602082190E+01 -0.21542623073E+02  0.11036101213E+03  0.16822965993E+03  0.12498822661E+03 0.  0.
    9000005    1    3    3    0    0  0.55188353907E+02 -0.99042435454E+01  0.11604538869E+02  0.57267039120E+02  0.10000000000E+01 0.  0.
    9000005    1    3    3    0    0 -0.49228145688E+02 -0.11638379527E+02  0.98756473264E+02  0.11096262081E+03  0.10000000000E+01 0.  0.
         21    1    1    2  502  501 -0.59602082190E+01  0.21542623073E+02  0.29179849190E+02  0.36756935259E+02  0.00000000000E+00 0.  1.
<mgrwt>
<rscale>  1 0.12697112E+03</rscale>
<asrwt>0</asrwt>
<pdfrwt beam="1">  1        4 0.26502112E-01 0.12697112E+03</pdfrwt>
<pdfrwt beam="2">  1       -4 0.50342872E-02 0.12697112E+03</pdfrwt>
<totfact> 0.50994602E+03</totfact>
</mgrwt>
</event>
<event>
 6    4  0.5642870E-004  0.1340754E+03  0.7818608E-02  0.1221531E+00
          4   -1    0    0  502    0  0.00000000000E+00  0.00000000000E+00  0.12969525241E+03  0.12970147030E+03  0.12700000000E+01 0. -1.
         -4   -1    0    0    0  501 -0.00000000000E+00 -0.00000000000E+00 -0.13277176857E+03  0.13277784239E+03  0.12700000000E+01 0. -1.
         25    2    1    2    0    0 -0.15013147032E+02 -0.46117209311E+02 -0.91017918482E+02  0.16205082160E+03  0.12499606281E+03 0.  0.
    9000005    1    3    3    0    0  0.28048833460E+01 -0.73235281764E+02 -0.10387763103E+03  0.12713314317E+03  0.10000000000E+01 0.  0.
    9000005    1    3    3    0    0 -0.17818030378E+02  0.27118072454E+02  0.12859712544E+02  0.34917678429E+02  0.10000000000E+01 0.  0.
         21    1    1    2  502  501  0.15013147032E+02  0.46117209311E+02  0.87941402329E+02  0.10042849109E+03  0.00000000000E+00 0. -1.
<mgrwt>
<rscale>  1 0.13407538E+03</rscale>
<asrwt>0</asrwt>
<pdfrwt beam="1">  1        4 0.19954061E-01 0.13407538E+03</pdfrwt>
<pdfrwt beam="2">  1       -4 0.20427371E-01 0.13407538E+03</pdfrwt>
<totfact> 0.81124091E+02</totfact>
</mgrwt>
</event>
<event>
 6    4  0.5642870E-004  0.1296154E+03  0.7818608E-02  0.1228028E+00
          4   -1    0    0  502    0  0.00000000000E+00  0.00000000000E+00  0.10847292024E+02  0.10921384722E+02  0.12700000000E+01 0. -1.
         -4   -1    0    0    0  501 -0.00000000000E+00 -0.00000000000E+00 -0.84180296062E+03  0.84180391863E+03  0.12700000000E+01 0. -1.
         25    2    1    2    0    0  0.27324359618E+02 -0.20706676288E+02 -0.78368246159E+03  0.79432887219E+03  0.12499907806E+03 0.  0.
    9000005    1    3    3    0    0  0.36854150544E+02 -0.13656048938E+02 -0.67999994739E+02  0.78547535731E+02  0.10000000000E+01 0.  0.
    9000005    1    3    3    0    0 -0.95297909261E+01 -0.70506273498E+01 -0.71568246685E+03  0.71578133646E+03  0.10000000000E+01 0.  0.
         21    1    1    2  502  501 -0.27324359618E+02  0.20706676288E+02 -0.47273207010E+02  0.58396431161E+02  0.00000000000E+00 0. -1.
<mgrwt>
<rscale>  1 0.12961542E+03</rscale>
<asrwt>0</asrwt>
<pdfrwt beam="1">  1        4 0.16745879E-02 0.12961542E+03</pdfrwt>
<pdfrwt beam="2">  1       -4 0.12951387E+00 0.12961542E+03</pdfrwt>
<totfact> 0.10107751E+03</totfact>
</mgrwt>
</event>
<event>
 6    4  0.5642870E-004  0.1345491E+03  0.7818608E-02  0.1220858E+00
         -4   -1    0    0    0  501 -0.00000000000E+00  0.00000000000E+00  0.39942432446E+02  0.39962617654E+02  0.12700000000E+01 0.  1.
          4   -1    0    0  502    0  0.00000000000E+00 -0.00000000000E+00 -0.22239556668E+03  0.22239919285E+03  0.12700000000E+01 0.  1.
         25    2    1    2    0    0 -0.52939175136E+01 -0.49348483610E+02 -0.10634818968E+03  0.17150334374E+03  0.12506062957E+03 0.  0.
    9000005    1    3    3    0    0  0.13710750982E+02  0.78552560870E+01 -0.10997411955E+03  0.11110804071E+03  0.10000000000E+01 0.  0.
    9000005    1    3    3    0    0 -0.19004668496E+02 -0.57203739697E+02  0.36259298664E+01  0.60395303024E+02  0.10000000000E+01 0.  0.
         21    1    1    2  502  501  0.52939175136E+01  0.49348483610E+02 -0.76104944551E+02  0.90858466762E+02  0.00000000000E+00 0.  1.
<mgrwt>
<rscale>  1 0.13454910E+03</rscale>
<asrwt>0</asrwt>
<pdfrwt beam="2">  1        4 0.34216534E-01 0.13454910E+03</pdfrwt>
<pdfrwt beam="1">  1       -4 0.61468214E-02 0.13454910E+03</pdfrwt>
<totfact> 0.23107349E+03</totfact>
</mgrwt>
</event>
<event>
 6    4  0.5642870E-004  0.1269964E+03  0.7818608E-02  0.1231982E+00
         -4   -1    0    0    0  501 -0.00000000000E+00  0.00000000000E+00  0.69852641377E+01  0.70997757059E+01  0.12700000000E+01 0. -1.
          4   -1    0    0  502    0  0.00000000000E+00 -0.00000000000E+00 -0.81506066144E+03  0.81506165088E+03  0.12700000000E+01 0. -1.
         25    2    1    2    0    0  0.35134402412E+01  0.22163138930E+02 -0.62956969848E+03  0.64225080015E+03  0.12499814424E+03 0.  0.
    9000005    1    3    3    0    0  0.37204134262E+02 -0.40221893426E+02 -0.22999016566E+03  0.23642847675E+03  0.10000000000E+01 0.  0.
    9000005    1    3    3    0    0 -0.33690694020E+02  0.62385032356E+02 -0.39957953282E+03  0.40582232340E+03  0.10000000000E+01 0.  0.
         21    1    1    2  502  501 -0.35134402412E+01 -0.22163138930E+02 -0.17850569883E+03  0.17991062643E+03  0.00000000000E+00 0. -1.
<mgrwt>
<rscale>  1 0.12699640E+03</rscale>
<asrwt>0</asrwt>
<pdfrwt beam="2">  1        4 0.12540276E+00 0.12699640E+03</pdfrwt>
<pdfrwt beam="1">  1       -4 0.10835414E-02 0.12699640E+03</pdfrwt>
<totfact> 0.21074951E+03</totfact>
</mgrwt>
</event>
<event>
 6    4  0.5642870E-004  0.1319323E+03  0.7818608E-02  0.1224616E+00
         -4   -1    0    0    0  501 -0.00000000000E+00  0.00000000000E+00  0.54154854640E+02  0.54169744148E+02  0.12700000000E+01 0. -1.
          4   -1    0    0  502    0  0.00000000000E+00 -0.00000000000E+00 -0.17342120373E+03  0.17342585390E+03  0.12700000000E+01 0. -1.
         25    2    1    2    0    0 -0.34067927499E+02 -0.24846937674E+02 -0.40086074887E+02  0.13788768414E+03  0.12501250354E+03 0.  0.
    9000005    1    3    3    0    0 -0.45445948927E+02  0.15050095015E+02  0.29950619975E+02  0.56479016198E+02  0.10000000000E+01 0.  0.
    9000005    1    3    3    0    0  0.11378021427E+02 -0.39897032689E+02 -0.70036694863E+02  0.81408667943E+02  0.10000000000E+01 0.  0.
         21    1    1    2  502  501  0.34067927499E+02  0.24846937674E+02 -0.79180274199E+02  0.89707913910E+02  0.00000000000E+00 0. -1.
<mgrwt>
<rscale>  1 0.13193226E+03</rscale>
<asrwt>0</asrwt>
<pdfrwt beam="2">  1        4 0.26681688E-01 0.13193226E+03</pdfrwt>
<pdfrwt beam="1">  1       -4 0.83330192E-02 0.13193226E+03</pdfrwt>
<totfact> 0.22331558E+03</totfact>
</mgrwt>
</event>
<event>
 6    4  0.5642870E-004  0.1297797E+03  0.7818608E-02  0.1227783E+00
         -4   -1    0    0    0  501 -0.00000000000E+00  0.00000000000E+00  0.57453485676E+03  0.57453626041E+03  0.12700000000E+01 0. -1.
          4   -1    0    0  502    0  0.00000000000E+00 -0.00000000000E+00 -0.13750217811E+02  0.13808743239E+02  0.12700000000E+01 0. -1.
         25    2    1    2    0    0  0.34904154462E+02  0.84762127860E+00  0.51301618413E+03  0.52917707538E+03  0.12499501377E+03 0.  0.
    9000005    1    3    3    0    0  0.44568052856E+02  0.57236515522E+02  0.28335821617E+03  0.29249822002E+03  0.10000000000E+01 0.  0.
    9000005    1    3    3    0    0 -0.96638983941E+01 -0.56388894243E+02  0.22965796797E+03  0.23667885536E+03  0.10000000000E+01 0.  0.
         21    1    1    2  502  501 -0.34904154462E+02 -0.84762127860E+00  0.47768454812E+02  0.59167928269E+02  0.00000000000E+00 0. -1.
<mgrwt>
<rscale>  1 0.12977971E+03</rscale>
<asrwt>0</asrwt>
<pdfrwt beam="2">  1        4 0.21200285E-02 0.12977971E+03</pdfrwt>
<pdfrwt beam="1">  1       -4 0.88394569E-01 0.12977971E+03</pdfrwt>
<totfact> 0.17225265E+03</totfact>
</mgrwt>
</event>
<event>
 6    4  0.5642870E-004  0.1312928E+03  0.7818608E-02  0.1225550E+00
         -4   -1    0    0    0  501 -0.00000000000E+00  0.00000000000E+00  0.58183377700E+03  0.58183516305E+03  0.12700000000E+01 0. -1.
          4   -1    0    0  502    0  0.00000000000E+00 -0.00000000000E+00 -0.15643060697E+02  0.15694529237E+02  0.12700000000E+01 0. -1.
         25    2    1    2    0    0 -0.13228391777E+01  0.40141323967E+02  0.52000459293E+03  0.53632320745E+03  0.12499892156E+03 0.  0.
    9000005    1    3    3    0    0  0.14649654108E+02 -0.37564939517E+02  0.84268752345E+02  0.93423549859E+02  0.10000000000E+01 0.  0.
    9000005    1    3    3    0    0 -0.15972493286E+02  0.77706263484E+02  0.43573584058E+03  0.44289965759E+03  0.10000000000E+01 0.  0.
         21    1    1    2  502  501  0.13228391777E+01 -0.40141323967E+02  0.46186123374E+02  0.61206484833E+02  0.00000000000E+00 0. -1.
<mgrwt>
<rscale>  1 0.13129283E+03</rscale>
<asrwt>0</asrwt>
<pdfrwt beam="2">  1        4 0.24106907E-02 0.13129283E+03</pdfrwt>
<pdfrwt beam="1">  1       -4 0.89516947E-01 0.13129283E+03</pdfrwt>
<totfact> 0.13761053E+03</totfact>
</mgrwt>
</event>
<event>
 6    4  0.5642870E-004  0.1349841E+03  0.7818608E-02  0.1220242E+00
          4   -1    0    0  502    0  0.00000000000E+00  0.00000000000E+00  0.50402492435E+02  0.50418490097E+02  0.12700000000E+01 0.  1.
         -4   -1    0    0    0  501 -0.00000000000E+00 -0.00000000000E+00 -0.17744176959E+03  0.17744631440E+03  0.12700000000E+01 0.  1.
         25    2    1    2    0    0 -0.25237795141E+02  0.44262414611E+02 -0.11003407581E+03  0.17414995996E+03  0.12499841225E+03 0.  0.
    9000005    1    3    3    0    0 -0.60729812908E+02  0.41076768576E+02 -0.11675809650E+03  0.13787263757E+03  0.10000000000E+01 0.  0.
    9000005    1    3    3    0    0  0.35492017766E+02  0.31856460354E+01  0.67240206853E+01  0.36277322393E+02  0.10000000000E+01 0.  0.
         21    1    1    2  502  501  0.25237795141E+02 -0.44262414611E+02 -0.17005201339E+02  0.53714844535E+02  0.00000000000E+00 0.  1.
<mgrwt>
<rscale>  1 0.13498411E+03</rscale>
<asrwt>0</asrwt>
<pdfrwt beam="1">  1        4 0.77558099E-02 0.13498411E+03</pdfrwt>
<pdfrwt beam="2">  1       -4 0.27300314E-01 0.13498411E+03</pdfrwt>
<totfact> 0.24225003E+03</totfact>
</mgrwt>
</event>
<event>
 6    4  0.5642870E-004  0.1278245E+03  0.7818608E-02  0.1230720E+00
          4   -1    0    0  502    0  0.00000000000E+00  0.00000000000E+00  0.48763577729E+02  0.48780112883E+02  0.12700000000E+01 0. -1.
         -4   -1    0    0    0  501 -0.00000000000E+00 -0.00000000000E+00 -0.12250786683E+03  0.12251444949E+03  0.12700000000E+01 0. -1.
         25    2    1    2    0    0 -0.25019625729E+02  0.93561107429E+01 -0.59002481393E+02  0.14078490203E+03  0.12500230938E+03 0.  0.
    9000005    1    3    3    0    0 -0.25146109444E+01 -0.38448924406E+02  0.21764914276E+02  0.44264597023E+02  0.10000000000E+01 0.  0.
    9000005    1    3    3    0    0 -0.22505014785E+02  0.47805035149E+02 -0.80767395669E+02  0.96520305010E+02  0.10000000000E+01 0.  0.
         21    1    1    2  502  501  0.25019625729E+02 -0.93561107429E+01 -0.14741807707E+02  0.30509660345E+02  0.00000000000E+00 0. -1.
<mgrwt>
<rscale>  1 0.12782447E+03</rscale>
<asrwt>0</asrwt>
<pdfrwt beam="1">  1        4 0.75038672E-02 0.12782447E+03</pdfrwt>
<pdfrwt beam="2">  1       -4 0.18849142E-01 0.12782447E+03</pdfrwt>
<totfact> 0.49629357E+03</totfact>
</mgrwt>
</event>
<event>
 6    4  0.5642870E-004  0.1271247E+03  0.7818608E-02  0.1231786E+00
          4   -1    0    0  502    0  0.00000000000E+00  0.00000000000E+00  0.77386735200E+03  0.77386839411E+03  0.12700000000E+01 0.  1.
         -4   -1    0    0    0  501 -0.00000000000E+00 -0.00000000000E+00 -0.72515759647E+01  0.73619463440E+01  0.12700000000E+01 0.  1.
         25    2    1    2    0    0 -0.22058094853E+02  0.70194641436E+01  0.63632053686E+03  0.64889485096E+03  0.12499947820E+03 0.  0.
    9000005    1    3    3    0    0  0.11200300534E+02 -0.53542833733E+02  0.35620104532E+03  0.36037822695E+03  0.10000000000E+01 0.  0.
    9000005    1    3    3    0    0 -0.33258395387E+02  0.60562297877E+02  0.28011949154E+03  0.28851662400E+03  0.10000000000E+01 0.  0.
         21    1    1    2  502  501  0.22058094853E+02 -0.70194641436E+01  0.13029523918E+03  0.13233548949E+03  0.00000000000E+00 0. -1.
<mgrwt>
<rscale>  1 0.12712475E+03</rscale>
<asrwt>0</asrwt>
<pdfrwt beam="1">  1        4 0.11906506E+00 0.12712475E+03</pdfrwt>
<pdfrwt beam="2">  1       -4 0.11241975E-02 0.12712475E+03</pdfrwt>
<totfact> 0.22600213E+03</totfact>
</mgrwt>
</event>
<event>
 6    4  0.5642870E-004  0.1318990E+03  0.7818608E-02  0.1224665E+00
          4   -1    0    0  502    0  0.00000000000E+00  0.00000000000E+00  0.34578866257E+03  0.34579099476E+03  0.12700000000E+01 0.  1.
         -4   -1    0    0    0  501 -0.00000000000E+00 -0.00000000000E+00 -0.74551211543E+02  0.74562028155E+02  0.12700000000E+01 0.  1.
         25    2    1    2    0    0 -0.16083393607E+02 -0.38911904741E+02 -0.13437005835E+02  0.13258165835E+03  0.12499812448E+03 0.  0.
    9000005    1    3    3    0    0 -0.34037650132E+02 -0.60561158333E+02 -0.50609935375E+02  0.85956855944E+02  0.10000000000E+01 0.  0.
    9000005    1    3    3    0    0  0.17954256524E+02  0.21649253592E+02  0.37172929539E+02  0.46624802401E+02  0.10000000000E+01 0.  0.
         21    1    1    2  502  501  0.16083393607E+02  0.38911904741E+02  0.28467445686E+03  0.28777136457E+03  0.00000000000E+00 0.  1.
<mgrwt>
<rscale>  1 0.13189899E+03</rscale>
<asrwt>0</asrwt>
<pdfrwt beam="1">  1        4 0.53199267E-01 0.13189899E+03</pdfrwt>
<pdfrwt beam="2">  1       -4 0.11470429E-01 0.13189899E+03</pdfrwt>
<totfact> 0.33921781E+02</totfact>
</mgrwt>
</event>
<event>
 6    4  0.5642870E-004  0.1272440E+03  0.7818608E-02  0.1231603E+00
          4   -1    0    0  502    0  0.00000000000E+00  0.00000000000E+00  0.32195269007E+04  0.32195271512E+04  0.12700000000E+01 0.  1.
         -4   -1    0    0    0  501 -0.00000000000E+00 -0.00000000000E+00 -0.24196930907E+01  0.27327302562E+01  0.12700000000E+01 0.  1.
         25    2    1    2    0    0  0.82107106201E+01  0.22333937312E+02  0.16247893816E+04  0.16297642678E+04  0.12499925373E+03 0.  0.
    9000005    1    3    3    0    0 -0.47691678592E+02 -0.22374401517E+02  0.86753853368E+03  0.86913705333E+03  0.10000000000E+01 0.  0.
    9000005    1    3    3    0    0  0.55902389212E+02  0.44708338829E+02  0.75725084791E+03  0.76062721444E+03  0.10000000000E+01 0.  0.
         21    1    1    2  502  501 -0.82107106201E+01 -0.22333937312E+02  0.15923178260E+04  0.15924956137E+04  0.00000000000E+00 0.  1.
<mgrwt>
<rscale>  1 0.12724399E+03</rscale>
<asrwt>0</asrwt>
<pdfrwt beam="1">  1        4 0.49533906E+00 0.12724399E+03</pdfrwt>
<pdfrwt beam="2">  1       -4 0.39635702E-03 0.12724399E+03</pdfrwt>
<totfact> 0.37515336E+01</totfact>
</mgrwt>
</event>
<event>
 6    4  0.5642870E-004  0.1272044E+03  0.7818608E-02  0.1231664E+00
          4   -1    0    0  502    0  0.00000000000E+00  0.00000000000E+00  0.90026273840E+03  0.90026363420E+03  0.12700000000E+01 0.  1.
         -4   -1    0    0    0  501 -0.00000000000E+00 -0.00000000000E+00 -0.62364251561E+01  0.63644244617E+01  0.12700000000E+01 0.  1.
         25    2    1    2    0    0  0.22325450574E+01 -0.23325489800E+02  0.75449734793E+03  0.76514521555E+03  0.12502755741E+03 0.  0.
    9000005    1    3    3    0    0  0.34011855347E+02 -0.60079801726E+02  0.28971886675E+03  0.29783285687E+03  0.10000000000E+01 0.  0.
    9000005    1    3    3    0    0 -0.31779310290E+02  0.36754311926E+02  0.46477848117E+03  0.46731235867E+03  0.10000000000E+01 0.  0.
         21    1    1    2  502  501 -0.22325450574E+01  0.23325489800E+02  0.13952896532E+03  0.14148284311E+03  0.00000000000E+00 0. -1.
<mgrwt>
<rscale>  1 0.12720437E+03</rscale>
<asrwt>0</asrwt>
<pdfrwt beam="1">  1        4 0.13851190E+00 0.12720437E+03</pdfrwt>
<pdfrwt beam="2">  1       -4 0.96936489E-03 0.12720437E+03</pdfrwt>
<totfact> 0.19536165E+03</totfact>
</mgrwt>
</event>
<event>
 6    4  0.5642870E-004  0.1278808E+03  0.7818608E-02  0.1230635E+00
         -4   -1    0    0    0  501 -0.00000000000E+00  0.00000000000E+00  0.24596392937E+03  0.24596720808E+03  0.12700000000E+01 0. -1.
          4   -1    0    0  502    0  0.00000000000E+00 -0.00000000000E+00 -0.24358925513E+02  0.24392010007E+02  0.12700000000E+01 0. -1.
         25    2    1    2    0    0 -0.10631875628E+02  0.24790316484E+02  0.18451404331E+03  0.22449707766E+03  0.12500363645E+03 0.  0.
    9000005    1    3    3    0    0 -0.27922543662E+02 -0.21827823773E+01  0.18993114607E+03  0.19198769031E+03  0.10000000000E+01 0.  0.
    9000005    1    3    3    0    0  0.17290668034E+02  0.26973098862E+02 -0.54171027583E+01  0.32509387345E+02  0.10000000000E+01 0.  0.
         21    1    1    2  502  501  0.10631875628E+02 -0.24790316484E+02  0.37090960543E+02  0.45862140430E+02  0.00000000000E+00 0. -1.
<mgrwt>
<rscale>  1 0.12788083E+03</rscale>
<asrwt>0</asrwt>
<pdfrwt beam="2">  1        4 0.37503242E-02 0.12788083E+03</pdfrwt>
<pdfrwt beam="1">  1       -4 0.37843401E-01 0.12788083E+03</pdfrwt>
<totfact> 0.41477594E+03</totfact>
</mgrwt>
</event>
<event>
 6    4  0.5642870E-004  0.1270195E+03  0.7818608E-02  0.1231946E+00
          4   -1    0    0  502    0  0.00000000000E+00  0.00000000000E+00  0.12581264912E+03  0.12581905889E+03  0.12700000000E+01 0.  1.
         -4   -1    0    0    0  501 -0.00000000000E+00 -0.00000000000E+00 -0.12564817111E+03  0.12565458926E+03  0.12700000000E+01 0.  1.
         25    2    1    2    0    0  0.19576352006E+02 -0.11206894528E+02 -0.91840458295E+02  0.15674384108E+03  0.12500053557E+03 0.  0.
    9000005    1    3    3    0    0  0.46084783851E+02 -0.40276588604E+02 -0.99336441225E+02  0.11668221564E+03  0.10000000000E+01 0.  0.
    9000005    1    3    3    0    0 -0.26508431845E+02  0.29069694076E+02  0.74959829303E+01  0.40061625436E+02  0.10000000000E+01 0.  0.
         21    1    1    2  502  501 -0.19576352006E+02  0.11206894528E+02  0.92004936307E+02  0.94729807071E+02  0.00000000000E+00 0.  1.
<mgrwt>
<rscale>  1 0.12701953E+03</rscale>
<asrwt>0</asrwt>
<pdfrwt beam="1">  1        4 0.19356779E-01 0.12701953E+03</pdfrwt>
<pdfrwt beam="2">  1       -4 0.19331475E-01 0.12701953E+03</pdfrwt>
<totfact> 0.93512072E+02</totfact>
</mgrwt>
</event>
<event>
 6    4  0.5642870E-004  0.1288378E+03  0.7818608E-02  0.1229191E+00
          4   -1    0    0  502    0  0.00000000000E+00  0.00000000000E+00  0.79778268789E+01  0.80782808636E+01  0.12700000000E+01 0. -1.
         -4   -1    0    0    0  501 -0.00000000000E+00 -0.00000000000E+00 -0.82208443539E+03  0.82208541637E+03  0.12700000000E+01 0. -1.
         25    2    1    2    0    0  0.67256277601E+01  0.30494017505E+02 -0.70502711482E+03  0.71670244783E+03  0.12499618764E+03 0.  0.
    9000005    1    3    3    0    0  0.11760526295E+02 -0.46635413245E+02 -0.35478476146E+03  0.35803128175E+03  0.10000000000E+01 0.  0.
    9000005    1    3    3    0    0 -0.50348985349E+01  0.77129430750E+02 -0.35024235335E+03  0.35867116608E+03  0.10000000000E+01 0.  0.
         21    1    1    2  502  501 -0.67256277601E+01 -0.30494017505E+02 -0.10907949370E+03  0.11346124941E+03  0.00000000000E+00 0.  1.
<mgrwt>
<rscale>  1 0.12883775E+03</rscale>
<asrwt>0</asrwt>
<pdfrwt beam="1">  1        4 0.12351613E-02 0.12883775E+03</pdfrwt>
<pdfrwt beam="2">  1       -4 0.12648226E+00 0.12883775E+03</pdfrwt>
<totfact> 0.16991343E+03</totfact>
</mgrwt>
</event>
<event>
 6    4  0.5642870E-004  0.1273558E+03  0.7818608E-02  0.1231433E+00
          4   -1    0    0  502    0  0.00000000000E+00  0.00000000000E+00  0.55727685687E+02  0.55742155071E+02  0.12700000000E+01 0. -1.
         -4   -1    0    0    0  501 -0.00000000000E+00 -0.00000000000E+00 -0.10842230063E+03  0.10842973842E+03  0.12700000000E+01 0. -1.
         25    2    1    2    0    0 -0.15078956014E+02 -0.19215761291E+02 -0.30024903004E+02  0.13084718440E+03  0.12499148159E+03 0.  0.
    9000005    1    3    3    0    0  0.43705488066E+02 -0.32518412154E+02  0.13937951708E+02  0.56239517370E+02  0.10000000000E+01 0.  0.
    9000005    1    3    3    0    0 -0.58784444080E+02  0.13302650863E+02 -0.43962854712E+02  0.74607667034E+02  0.10000000000E+01 0.  0.
         21    1    1    2  502  501  0.15078956014E+02  0.19215761291E+02 -0.22669711944E+02  0.33324709093E+02  0.00000000000E+00 0. -1.
<mgrwt>
<rscale>  1 0.12735576E+03</rscale>
<asrwt>0</asrwt>
<pdfrwt beam="1">  1        4 0.85751753E-02 0.12735576E+03</pdfrwt>
<pdfrwt beam="2">  1       -4 0.16682039E-01 0.12735576E+03</pdfrwt>
<totfact> 0.49372102E+03</totfact>
</mgrwt>
</event>
<event>
 6    4  0.5642870E-004  0.1430082E+03  0.7818608E-02  0.1209338E+00
          4   -1    0    0  502    0  0.00000000000E+00  0.00000000000E+00  0.21163977736E+03  0.21164358780E+03  0.12700000000E+01 0. -1.
         -4   -1    0    0    0  501 -0.00000000000E+00 -0.00000000000E+00 -0.11487108999E+03  0.11487811026E+03  0.12700000000E+01 0. -1.
         25    2    1    2    0    0 -0.27951834392E+02  0.63602107729E+02 -0.59972241061E+02  0.15507417899E+03  0.12499919255E+03 0.  0.
    9000005    1    3    3    0    0 -0.42925952234E+02  0.48220390682E+02  0.23629478136E+02  0.68754604862E+02  0.10000000000E+01 0.  0.
    9000005    1    3    3    0    0  0.14974117842E+02  0.15381717046E+02 -0.83601719197E+02  0.86319574125E+02  0.10000000000E+01 0.  0.
         21    1    1    2  502  501  0.27951834392E+02 -0.63602107729E+02  0.15674092842E+03  0.17144751907E+03  0.00000000000E+00 0. -1.
<mgrwt>
<rscale>  1 0.14300815E+03</rscale>
<asrwt>0</asrwt>
<pdfrwt beam="1">  1        4 0.32560798E-01 0.14300815E+03</pdfrwt>
<pdfrwt beam="2">  1       -4 0.17673309E-01 0.14300815E+03</pdfrwt>
<totfact> 0.42964933E+02</totfact>
</mgrwt>
</event>
<event>
 6    4  0.5642870E-004  0.1474857E+03  0.7818608E-02  0.1203597E+00
         -4   -1    0    0    0  501 -0.00000000000E+00  0.00000000000E+00  0.28946479270E+02  0.28974325913E+02  0.12700000000E+01 0. -1.
          4   -1    0    0  502    0  0.00000000000E+00 -0.00000000000E+00 -0.11857656398E+04  0.11857663199E+04  0.12700000000E+01 0. -1.
         25    2    1    2    0    0  0.63120695300E+02 -0.46292801174E+02 -0.17099034586E+03  0.22580905190E+03  0.12499913571E+03 0.  0.
    9000005    1    3    3    0    0  0.94188324594E+02 -0.13674029569E+02 -0.14599950126E+03  0.17428503648E+03  0.10000000000E+01 0.  0.
    9000005    1    3    3    0    0 -0.31067629294E+02 -0.32618771605E+02 -0.24990844598E+02  0.51524015417E+02  0.10000000000E+01 0.  0.
         21    1    1    2  502  501 -0.63120695300E+02  0.46292801174E+02 -0.98582881464E+03  0.98893159389E+03  0.00000000000E+00 0. -1.
<mgrwt>
<rscale>  1 0.14748569E+03</rscale>
<asrwt>0</asrwt>
<pdfrwt beam="2">  1        4 0.18242764E+00 0.14748569E+03</pdfrwt>
<pdfrwt beam="1">  1       -4 0.44554998E-02 0.14748569E+03</pdfrwt>
<totfact> 0.92692001E+01</totfact>
</mgrwt>
</event>
<event>
 6    4  0.5642870E-004  0.1297660E+03  0.7818608E-02  0.1227803E+00
          4   -1    0    0  502    0  0.00000000000E+00  0.00000000000E+00  0.12695865881E+03  0.12696501072E+03  0.12700000000E+01 0.  1.
         -4   -1    0    0    0  501 -0.00000000000E+00 -0.00000000000E+00 -0.70422281542E+02  0.70433732242E+02  0.12700000000E+01 0.  1.
         25    2    1    2    0    0 -0.28998755448E+02  0.19343851972E+02 -0.14122294704E+01  0.12977364814E+03  0.12499637168E+03 0.  0.
    9000005    1    3    3    0    0 -0.53584408436E+02  0.36107945045E+02 -0.43732230919E+02  0.78029356937E+02  0.10000000000E+01 0.  0.
    9000005    1    3    3    0    0  0.24585652988E+02 -0.16764093073E+02  0.42320001449E+02  0.51744291202E+02  0.10000000000E+01 0.  0.
         21    1    1    2  502  501  0.28998755448E+02 -0.19343851972E+02  0.57948606737E+02  0.67625094820E+02  0.00000000000E+00 0.  1.
<mgrwt>
<rscale>  1 0.12976596E+03</rscale>
<asrwt>0</asrwt>
<pdfrwt beam="1">  1        4 0.19533470E-01 0.12976596E+03</pdfrwt>
<pdfrwt beam="2">  1       -4 0.10835567E-01 0.12976596E+03</pdfrwt>
<totfact> 0.25302949E+03</totfact>
</mgrwt>
</event>
<event>
 6    4  0.5642870E-004  0.1316455E+03  0.7818608E-02  0.1225034E+00
          4   -1    0    0  502    0  0.00000000000E+00  0.00000000000E+00  0.54269165365E+02  0.54284023519E+02  0.12700000000E+01 0. -1.
         -4   -1    0    0    0  501 -0.00000000000E+00 -0.00000000000E+00 -0.14055086092E+03  0.14055659858E+03  0.12700000000E+01 0. -1.
         25    2    1    2    0    0 -0.37434714667E+02 -0.17434276920E+02 -0.77014694456E+02  0.15251817908E+03  0.12500087965E+03 0.  0.
    9000005    1    3    3    0    0 -0.33271113139E+02  0.51245465750E+02 -0.48567747118E+02  0.78056971435E+02  0.10000000000E+01 0.  0.
    9000005    1    3    3    0    0 -0.41636015286E+01 -0.68679742671E+02 -0.28446947338E+02  0.74461207644E+02  0.10000000000E+01 0.  0.
         21    1    1    2  502  501  0.37434714667E+02  0.17434276920E+02 -0.92670010981E+01  0.42322443021E+02  0.00000000000E+00 0. -1.
<mgrwt>
<rscale>  1 0.13164548E+03</rscale>
<asrwt>0</asrwt>
<pdfrwt beam="1">  1        4 0.83506867E-02 0.13164548E+03</pdfrwt>
<pdfrwt beam="2">  1       -4 0.21624793E-01 0.13164548E+03</pdfrwt>
<totfact> 0.32715519E+03</totfact>
</mgrwt>
</event>
<event>
 6    4  0.5642870E-004  0.1297803E+03  0.7818608E-02  0.1227782E+00
         -4   -1    0    0    0  501 -0.00000000000E+00  0.00000000000E+00  0.75096438210E+02  0.75107176301E+02  0.12700000000E+01 0.  1.
          4   -1    0    0  502    0  0.00000000000E+00 -0.00000000000E+00 -0.10288158887E+03  0.10288942719E+03  0.12700000000E+01 0.  1.
         25    2    1    2    0    0 -0.11367625776E+02  0.32999884185E+02 -0.47152037496E+02  0.13808054685E+03  0.12499883002E+03 0.  0.
    9000005    1    3    3    0    0 -0.99573782225E+01 -0.23008210164E+02 -0.72397072676E+02  0.76621558638E+02  0.10000000000E+01 0.  0.
    9000005    1    3    3    0    0 -0.14102475535E+01  0.56008094349E+02  0.25245035180E+02  0.61458988211E+02  0.10000000000E+01 0.  0.
         21    1    1    2  502  501  0.11367625776E+02 -0.32999884185E+02  0.19366886841E+02  0.39916056642E+02  0.00000000000E+00 0.  1.
<mgrwt>
<rscale>  1 0.12978029E+03</rscale>
<asrwt>0</asrwt>
<pdfrwt beam="2">  1        4 0.15829366E-01 0.12978029E+03</pdfrwt>
<pdfrwt beam="1">  1       -4 0.11554727E-01 0.12978029E+03</pdfrwt>
<totfact> 0.32933136E+03</totfact>
</mgrwt>
</event>
<event>
 6    4  0.5642870E-004  0.1268368E+03  0.7818608E-02  0.1232226E+00
          4   -1    0    0  502    0  0.00000000000E+00  0.00000000000E+00  0.80394553953E+03  0.80394654264E+03  0.12700000000E+01 0. -1.
         -4   -1    0    0    0  501 -0.00000000000E+00 -0.00000000000E+00 -0.68166222025E+01  0.69339194004E+01  0.12700000000E+01 0. -1.
         25    2    1    2    0    0 -0.13694786408E+02 -0.16571079762E+02  0.66006184216E+03  0.67213778312E+03  0.12500166466E+03 0.  0.
    9000005    1    3    3    0    0  0.30207538523E+02 -0.49223298903E+02  0.18180226624E+03  0.19075768018E+03  0.10000000000E+01 0.  0.
    9000005    1    3    3    0    0 -0.43902324931E+02  0.32652219140E+02  0.47825957592E+03  0.48138010294E+03  0.10000000000E+01 0.  0.
         21    1    1    2  502  501  0.13694786408E+02  0.16571079762E+02  0.13706707517E+03  0.13874267892E+03  0.00000000000E+00 0. -1.
<mgrwt>
<rscale>  1 0.12683676E+03</rscale>
<asrwt>0</asrwt>
<pdfrwt beam="1">  1        4 0.12369297E+00 0.12683676E+03</pdfrwt>
<pdfrwt beam="2">  1       -4 0.10578116E-02 0.12683676E+03</pdfrwt>
<totfact> 0.22584589E+03</totfact>
</mgrwt>
</event>
<event>
 6    4  0.5642870E-004  0.1304682E+03  0.7818608E-02  0.1226763E+00
          4   -1    0    0  502    0  0.00000000000E+00  0.00000000000E+00  0.13898779065E+04  0.13898784867E+04  0.12700000000E+01 0.  1.
         -4   -1    0    0    0  501 -0.00000000000E+00 -0.00000000000E+00 -0.49904713381E+01  0.51495343650E+01  0.12700000000E+01 0.  1.
         25    2    1    2    0    0 -0.22499351167E+02 -0.29843118151E+02  0.10912726636E+04  0.10990441253E+04  0.12500052193E+03 0.  0.
    9000005    1    3    3    0    0  0.43790349980E+02  0.13732578481E+02  0.26255856817E+03  0.26654114163E+03  0.10000000000E+01 0.  0.
    9000005    1    3    3    0    0 -0.66289701148E+02 -0.43575696632E+02  0.82871409540E+03  0.83250298362E+03  0.10000000000E+01 0.  0.
         21    1    1    2  502  501  0.22499351167E+02  0.29843118151E+02  0.29361477158E+03  0.29598389583E+03  0.00000000000E+00 0.  1.
<mgrwt>
<rscale>  1 0.13046825E+03</rscale>
<asrwt>0</asrwt>
<pdfrwt beam="1">  1        4 0.21383990E+00 0.13046825E+03</pdfrwt>
<pdfrwt beam="2">  1       -4 0.78004417E-03 0.13046825E+03</pdfrwt>
<totfact> 0.84675652E+02</totfact>
</mgrwt>
</event>
<event>
 6    4  0.5642870E-004  0.1287492E+03  0.7818608E-02  0.1229324E+00
         -4   -1    0    0    0  501 -0.00000000000E+00  0.00000000000E+00  0.33210169780E+03  0.33210412612E+03  0.12700000000E+01 0. -1.
          4   -1    0    0  502    0  0.00000000000E+00 -0.00000000000E+00 -0.19150768416E+02  0.19192832801E+02  0.12700000000E+01 0. -1.
         25    2    1    2    0    0 -0.18416888308E+02 -0.24742388349E+02  0.25342023479E+03  0.28425017559E+03  0.12499991745E+03 0.  0.
    9000005    1    3    3    0    0  0.35737415696E+02 -0.55812285080E+02  0.12763531723E+03  0.14381915119E+03  0.10000000000E+01 0.  0.
    9000005    1    3    3    0    0 -0.54154304004E+02  0.31069896731E+02  0.12578491757E+03  0.14043102440E+03  0.10000000000E+01 0.  0.
         21    1    1    2  502  501  0.18416888308E+02  0.24742388349E+02  0.59530694591E+02  0.67046783328E+02  0.00000000000E+00 0. -1.
<mgrwt>
<rscale>  1 0.12874916E+03</rscale>
<asrwt>0</asrwt>
<pdfrwt beam="2">  1        4 0.29496948E-02 0.12874916E+03</pdfrwt>
<pdfrwt beam="1">  1       -4 0.51095988E-01 0.12874916E+03</pdfrwt>
<totfact> 0.33299945E+03</totfact>
</mgrwt>
</event>
<event>
 6    4  0.5642870E-004  0.1270269E+03  0.7818608E-02  0.1231935E+00
          4   -1    0    0  502    0  0.00000000000E+00  0.00000000000E+00  0.93473145980E+01  0.94331961812E+01  0.12700000000E+01 0. -1.
         -4   -1    0    0    0  501 -0.00000000000E+00 -0.00000000000E+00 -0.65282324622E+03  0.65282448154E+03  0.12700000000E+01 0. -1.
         25    2    1    2    0    0  0.21697573221E+02  0.63460397584E+01 -0.45393431643E+03  0.47137268410E+03  0.12499914709E+03 0.  0.
    9000005    1    3    3    0    0  0.37280299000E+02  0.26350135508E+02 -0.54363204091E+02  0.70996537196E+02  0.10000000000E+01 0.  0.
    9000005    1    3    3    0    0 -0.15582725779E+02 -0.20004095750E+02 -0.39957111234E+03  0.40037614690E+03  0.10000000000E+01 0.  0.
         21    1    1    2  502  501 -0.21697573221E+02 -0.63460397584E+01 -0.18954161519E+03  0.19088499363E+03  0.00000000000E+00 0.  1.
<mgrwt>
<rscale>  1 0.12702694E+03</rscale>
<asrwt>0</asrwt>
<pdfrwt beam="1">  1        4 0.14447502E-02 0.12702694E+03</pdfrwt>
<pdfrwt beam="2">  1       -4 0.10044101E+00 0.12702694E+03</pdfrwt>
<totfact> 0.23049298E+03</totfact>
</mgrwt>
</event>
<event>
 6    4  0.5642870E-004  0.1321023E+03  0.7818608E-02  0.1224369E+00
         -4   -1    0    0    0  501 -0.00000000000E+00  0.00000000000E+00  0.92597484356E+01  0.93464346727E+01  0.12700000000E+01 0.  1.
          4   -1    0    0  502    0  0.00000000000E+00 -0.00000000000E+00 -0.88348168357E+03  0.88348259638E+03  0.12700000000E+01 0.  1.
         25    2    1    2    0    0 -0.41667946957E+02  0.94338857610E+01 -0.54175958058E+03  0.55763291950E+03  0.12500325497E+03 0.  0.
    9000005    1    3    3    0    0 -0.26357843865E+01 -0.10150577012E+01 -0.49820232672E+03  0.49821133673E+03  0.10000000000E+01 0.  0.
    9000005    1    3    3    0    0 -0.39032162571E+02  0.10448943462E+02 -0.43557253863E+02  0.59421582767E+02  0.10000000000E+01 0.  0.
         21    1    1    2  502  501  0.41667946957E+02 -0.94338857610E+01 -0.33246235455E+03  0.33519611155E+03  0.00000000000E+00 0.  1.
<mgrwt>
<rscale>  1 0.13210235E+03</rscale>
<asrwt>0</asrwt>
<pdfrwt beam="2">  1        4 0.13592693E+00 0.13210235E+03</pdfrwt>
<pdfrwt beam="1">  1       -4 0.14313158E-02 0.13210235E+03</pdfrwt>
<totfact> 0.11451647E+03</totfact>
</mgrwt>
</event>
<event>
 6    4  0.5642870E-004  0.1293787E+03  0.7818608E-02  0.1228381E+00
          4   -1    0    0  502    0  0.00000000000E+00  0.00000000000E+00  0.46220503748E+03  0.46220678226E+03  0.12700000000E+01 0.  1.
         -4   -1    0    0    0  501 -0.00000000000E+00 -0.00000000000E+00 -0.14326508096E+02  0.14382688699E+02  0.12700000000E+01 0.  1.
         25    2    1    2    0    0 -0.33237126649E+02 -0.29129794429E+01  0.36469424130E+03  0.38696348243E+03  0.12500262020E+03 0.  0.
    9000005    1    3    3    0    0 -0.68555391347E+02  0.35430286609E+02  0.21171356970E+03  0.22534147973E+03  0.10000000000E+01 0.  0.
    9000005    1    3    3    0    0  0.35318264698E+02 -0.38343266051E+02  0.15298067160E+03  0.16162200269E+03  0.10000000000E+01 0.  0.
         21    1    1    2  502  501  0.33237126649E+02  0.29129794429E+01  0.83184288086E+02  0.89625988538E+02  0.00000000000E+00 0.  1.
<mgrwt>
<rscale>  1 0.12937870E+03</rscale>
<asrwt>0</asrwt>
<pdfrwt beam="1">  1        4 0.71112914E-01 0.12937870E+03</pdfrwt>
<pdfrwt beam="2">  1       -4 0.22085343E-02 0.12937870E+03</pdfrwt>
<totfact> 0.26106523E+03</totfact>
</mgrwt>
</event>
<event>
 6    4  0.5642870E-004  0.1312584E+03  0.7818608E-02  0.1225600E+00
         -4   -1    0    0    0  501 -0.00000000000E+00  0.00000000000E+00  0.58825552399E+03  0.58825689491E+03  0.12700000000E+01 0. -1.
          4   -1    0    0  502    0  0.00000000000E+00 -0.00000000000E+00 -0.12467581702E+02  0.12532098527E+02  0.12700000000E+01 0. -1.
         25    2    1    2    0    0 -0.38934846499E+01  0.39857481036E+02  0.42840328563E+03  0.44806042690E+03  0.12499997199E+03 0.  0.
    9000005    1    3    3    0    0  0.10389015737E+02 -0.38294897037E+02  0.24488850683E+03  0.24808428319E+03  0.10000000000E+01 0.  0.
    9000005    1    3    3    0    0 -0.14282500387E+02  0.78152378073E+02  0.18351477879E+03  0.19997614371E+03  0.10000000000E+01 0.  0.
         21    1    1    2  502  501  0.38934846499E+01 -0.39857481036E+02  0.14738465666E+03  0.15272856654E+03  0.00000000000E+00 0. -1.
<mgrwt>
<rscale>  1 0.13125841E+03</rscale>
<asrwt>0</asrwt>
<pdfrwt beam="2">  1        4 0.19231574E-02 0.13125841E+03</pdfrwt>
<pdfrwt beam="1">  1       -4 0.90505938E-01 0.13125841E+03</pdfrwt>
<totfact> 0.19025797E+03</totfact>
</mgrwt>
</event>
<event>
 6    4  0.5642870E-004  0.1289346E+03  0.7818608E-02  0.1229045E+00
         -4   -1    0    0    0  501 -0.00000000000E+00  0.00000000000E+00  0.17367527284E+03  0.17367991621E+03  0.12700000000E+01 0.  1.
          4   -1    0    0  502    0  0.00000000000E+00 -0.00000000000E+00 -0.37541575207E+02  0.37563050582E+02  0.12700000000E+01 0.  1.
         25    2    1    2    0    0  0.31196843777E+02  0.51286473230E+01  0.11808874180E+03  0.17484013015E+03  0.12499829633E+03 0.  0.
    9000005    1    3    3    0    0  0.34767294317E+02 -0.29903427615E+02 -0.56210993130E+01  0.46212298089E+02  0.10000000000E+01 0.  0.
    9000005    1    3    3    0    0 -0.35704505396E+01  0.35032074938E+02  0.12370984111E+03  0.12862783206E+03  0.10000000000E+01 0.  0.
         21    1    1    2  502  501 -0.31196843777E+02 -0.51286473230E+01  0.18044955831E+02  0.36402836647E+02  0.00000000000E+00 0.  1.
<mgrwt>
<rscale>  1 0.12893456E+03</rscale>
<asrwt>0</asrwt>
<pdfrwt beam="2">  1        4 0.57776361E-02 0.12893456E+03</pdfrwt>
<pdfrwt beam="1">  1       -4 0.26721282E-01 0.12893456E+03</pdfrwt>
<totfact> 0.40372325E+03</totfact>
</mgrwt>
</event>
<event>
 6    4  0.5642870E-004  0.1298382E+03  0.7818608E-02  0.1227696E+00
         -4   -1    0    0    0  501 -0.00000000000E+00  0.00000000000E+00  0.28078527414E+03  0.28078814625E+03  0.12700000000E+01 0. -1.
          4   -1    0    0  502    0  0.00000000000E+00 -0.00000000000E+00 -0.11126109721E+03  0.11126834524E+03  0.12700000000E+01 0. -1.
         25    2    1    2    0    0 -0.23484786022E+02 -0.26081952984E+02  0.26240261317E+03  0.29276798578E+03  0.12500463454E+03 0.  0.
    9000005    1    3    3    0    0 -0.96561320096E+01 -0.60885570968E+02  0.56964664580E+02  0.83942043388E+02  0.10000000000E+01 0.  0.
    9000005    1    3    3    0    0 -0.13828654012E+02  0.34803617984E+02  0.20543794859E+03  0.20882594240E+03  0.10000000000E+01 0.  0.
         21    1    1    2  502  501  0.23484786022E+02  0.26081952984E+02 -0.92878436238E+02  0.99288505699E+02  0.00000000000E+00 0. -1.
<mgrwt>
<rscale>  1 0.12983822E+03</rscale>
<asrwt>0</asrwt>
<pdfrwt beam="2">  1        4 0.17117871E-01 0.12983822E+03</pdfrwt>
<pdfrwt beam="1">  1       -4 0.43198512E-01 0.12983822E+03</pdfrwt>
<totfact> 0.25736985E+02</totfact>
</mgrwt>
</event>
<event>
 6    4  0.5642870E-004  0.1276799E+03  0.7818608E-02  0.1230939E+00
         -4   -1    0    0    0  501 -0.00000000000E+00  0.00000000000E+00  0.26840252152E+03  0.26840552613E+03  0.12700000000E+01 0.  1.
          4   -1    0    0  502    0  0.00000000000E+00 -0.00000000000E+00 -0.22976189712E+02  0.23011262323E+02  0.12700000000E+01 0.  1.
         25    2    1    2    0    0  0.24979858085E+02 -0.72708976206E+01  0.22347138180E+03  0.25737447519E+03  0.12500121095E+03 0.  0.
    9000005    1    3    3    0    0  0.40725940316E+02 -0.11205936176E+02  0.23414283593E+03  0.23792444775E+03  0.10000000000E+01 0.  0.
    9000005    1    3    3    0    0 -0.15746082232E+02  0.39350385551E+01 -0.10671454137E+02  0.19450027441E+02  0.10000000000E+01 0.  0.
         21    1    1    2  502  501 -0.24979858085E+02  0.72708976206E+01  0.21954950014E+02  0.34042313262E+02  0.00000000000E+00 0.  1.
<mgrwt>
<rscale>  1 0.12767992E+03</rscale>
<asrwt>0</asrwt>
<pdfrwt beam="2">  1        4 0.35377276E-02 0.12767992E+03</pdfrwt>
<pdfrwt beam="1">  1       -4 0.41295623E-01 0.12767992E+03</pdfrwt>
<totfact> 0.38307084E+03</totfact>
</mgrwt>
</event>
<event>
 6    4  0.5642870E-004  0.1290884E+03  0.7818608E-02  0.1228815E+00
         -4   -1    0    0    0  501 -0.00000000000E+00  0.00000000000E+00  0.36133202050E+03  0.36133425237E+03  0.12700000000E+01 0. -1.
          4   -1    0    0  502    0  0.00000000000E+00 -0.00000000000E+00 -0.24469943368E+02  0.24502877962E+02  0.12700000000E+01 0. -1.
         25    2    1    2    0    0 -0.32183083246E+02 -0.13527402089E+01  0.32791079698E+03  0.35240501749E+03  0.12500489917E+03 0.  0.
    9000005    1    3    3    0    0 -0.22882136827E+02  0.31809526167E+02  0.31199974609E+03  0.31445234886E+03  0.10000000000E+01 0.  0.
    9000005    1    3    3    0    0 -0.93009464191E+01 -0.33162266376E+02  0.15911050891E+02  0.37952668628E+02  0.10000000000E+01 0.  0.
         21    1    1    2  502  501  0.32183083246E+02  0.13527402089E+01  0.89512801463E+01  0.33432112849E+02  0.00000000000E+00 0.  1.
<mgrwt>
<rscale>  1 0.12908836E+03</rscale>
<asrwt>0</asrwt>
<pdfrwt beam="2">  1        4 0.37673120E-02 0.12908836E+03</pdfrwt>
<pdfrwt beam="1">  1       -4 0.55592244E-01 0.12908836E+03</pdfrwt>
<totfact> 0.19068271E+03</totfact>
</mgrwt>
</event>
<event>
 6    4  0.5642870E-004  0.1446226E+03  0.7818608E-02  0.1207241E+00
          4   -1    0    0  502    0  0.00000000000E+00  0.00000000000E+00  0.39058352319E+03  0.39058558792E+03  0.12700000000E+01 0.  1.
         -4   -1    0    0    0  501 -0.00000000000E+00 -0.00000000000E+00 -0.35956160400E+02  0.35978582111E+02  0.12700000000E+01 0.  1.
         25    2    1    2    0    0 -0.51010014257E+02 -0.51866342728E+02  0.14551489545E+03  0.20515919479E+03  0.12499428526E+03 0.  0.
    9000005    1    3    3    0    0 -0.85073058646E+02 -0.66052897148E+02  0.10846755064E+03  0.15286144076E+03  0.10000000000E+01 0.  0.
    9000005    1    3    3    0    0  0.34063044389E+02  0.14186554420E+02  0.37047344807E+02  0.52297754030E+02  0.10000000000E+01 0.  0.
         21    1    1    2  502  501  0.51010014257E+02  0.51866342728E+02  0.20911246734E+03  0.22140497524E+03  0.00000000000E+00 0.  1.
<mgrwt>
<rscale>  1 0.14462265E+03</rscale>
<asrwt>0</asrwt>
<pdfrwt beam="1">  1        4 0.60091653E-01 0.14462265E+03</pdfrwt>
<pdfrwt beam="2">  1       -4 0.55336009E-02 0.14462265E+03</pdfrwt>
<totfact> 0.89773183E+02</totfact>
</mgrwt>
</event>
<event>
 6    4  0.5642870E-004  0.1273932E+03  0.7818608E-02  0.1231376E+00
         -4   -1    0    0    0  501 -0.00000000000E+00  0.00000000000E+00  0.15163509568E+03  0.15164041395E+03  0.12700000000E+01 0.  1.
          4   -1    0    0  502    0  0.00000000000E+00 -0.00000000000E+00 -0.40922963778E+02  0.40942665575E+02  0.12700000000E+01 0.  1.
         25    2    1    2    0    0  0.24422007878E+02  0.26192651760E+01  0.10950862380E+03  0.16799154743E+03  0.12500290518E+03 0.  0.
    9000005    1    3    3    0    0  0.53992068389E+02  0.95775426398E+01  0.52247410903E+00  0.54846565537E+02  0.10000000000E+01 0.  0.
    9000005    1    3    3    0    0 -0.29570060511E+02 -0.69582774639E+01  0.10898614969E+03  0.11314498190E+03  0.10000000000E+01 0.  0.
         21    1    1    2  502  501 -0.24422007878E+02 -0.26192651760E+01  0.12035081054E+01  0.24591532092E+02  0.00000000000E+00 0.  1.
<mgrwt>
<rscale>  1 0.12739318E+03</rscale>
<asrwt>0</asrwt>
<pdfrwt beam="2">  1        4 0.62977653E-02 0.12739318E+03</pdfrwt>
<pdfrwt beam="1">  1       -4 0.23330401E-01 0.12739318E+03</pdfrwt>
<totfact> 0.44942414E+03</totfact>
</mgrwt>
</event>
<event>
 6    4  0.5642870E-004  0.1605396E+03  0.7818608E-02  0.1188089E+00
         -4   -1    0    0    0  501 -0.00000000000E+00  0.00000000000E+00  0.10755799314E+03  0.10756549069E+03  0.12700000000E+01 0.  1.
          4   -1    0    0  502    0  0.00000000000E+00 -0.00000000000E+00 -0.24520010085E+03  0.24520338977E+03  0.12700000000E+01 0.  1.
         25    2    1    2    0    0  0.94124877647E+02  0.35895998820E+02  0.23982058467E+02  0.16232102299E+03  0.12499984022E+03 0.  0.
    9000005    1    3    3    0    0  0.92990773949E+02  0.19205218078E+02  0.66958860236E+02  0.11619214003E+03  0.10000000000E+01 0.  0.
    9000005    1    3    3    0    0  0.11341036980E+01  0.16690780742E+02 -0.42976801769E+02  0.46128882962E+02  0.10000000000E+01 0.  0.
         21    1    1    2  502  501 -0.94124877647E+02 -0.35895998820E+02 -0.16162416618E+03  0.19044785747E+03  0.00000000000E+00 0.  1.
<mgrwt>
<rscale>  1 0.16053964E+03</rscale>
<asrwt>0</asrwt>
<pdfrwt beam="2">  1        4 0.37723922E-01 0.16053964E+03</pdfrwt>
<pdfrwt beam="1">  1       -4 0.16548213E-01 0.16053964E+03</pdfrwt>
<totfact> 0.37092802E+02</totfact>
</mgrwt>
</event>
<event>
 6    4  0.5642870E-004  0.1291301E+03  0.7818608E-02  0.1228752E+00
          4   -1    0    0  502    0  0.00000000000E+00  0.00000000000E+00  0.22911299430E+02  0.22946471222E+02  0.12700000000E+01 0.  1.
         -4   -1    0    0    0  501 -0.00000000000E+00 -0.00000000000E+00 -0.28684659984E+03  0.28684941126E+03  0.12700000000E+01 0.  1.
         25    2    1    2    0    0  0.30502693096E+02  0.10881044441E+02 -0.22182179145E+03  0.25667000318E+03  0.12500308779E+03 0.  0.
    9000005    1    3    3    0    0  0.72594014817E+02 -0.18002723096E+02 -0.10256784899E+03  0.12694547125E+03  0.10000000000E+01 0.  0.
    9000005    1    3    3    0    0 -0.42091321721E+02  0.28883767537E+02 -0.11925394246E+03  0.12972453193E+03  0.10000000000E+01 0.  0.
         21    1    1    2  502  501 -0.30502693096E+02 -0.10881044441E+02 -0.42113508962E+02  0.53125879300E+02  0.00000000000E+00 0.  1.
<mgrwt>
<rscale>  1 0.12913010E+03</rscale>
<asrwt>0</asrwt>
<pdfrwt beam="1">  1        4 0.35277373E-02 0.12913010E+03</pdfrwt>
<pdfrwt beam="2">  1       -4 0.44133165E-01 0.12913010E+03</pdfrwt>
<totfact> 0.33816635E+03</totfact>
</mgrwt>
</event>
<event>
 6    4  0.5642870E-004  0.1285982E+03  0.7818608E-02  0.1229551E+00
          4   -1    0    0  502    0  0.00000000000E+00  0.00000000000E+00  0.11149988158E+03  0.11150711409E+03  0.12700000000E+01 0. -1.
         -4   -1    0    0    0  501 -0.00000000000E+00 -0.00000000000E+00 -0.66961845925E+02  0.66973888268E+02  0.12700000000E+01 0. -1.
         25    2    1    2    0    0  0.25778735004E+02  0.15736201884E+02  0.49577852054E+01  0.12869378056E+03  0.12500135317E+03 0.  0.
    9000005    1    3    3    0    0 -0.95853168388E+01  0.60018826152E+02 -0.23622463189E+02  0.65216244593E+02  0.10000000000E+01 0.  0.
    9000005    1    3    3    0    0  0.35364051842E+02 -0.44282624269E+02  0.28580248395E+02  0.63477535972E+02  0.10000000000E+01 0.  0.
         21    1    1    2  502  501 -0.25778735004E+02 -0.15736201884E+02  0.39580250450E+02  0.49787221792E+02  0.00000000000E+00 0. -1.
<mgrwt>
<rscale>  1 0.12859825E+03</rscale>
<asrwt>0</asrwt>
<pdfrwt beam="1">  1        4 0.17155311E-01 0.12859825E+03</pdfrwt>
<pdfrwt beam="2">  1       -4 0.10303305E-01 0.12859825E+03</pdfrwt>
<totfact> 0.34637970E+03</totfact>
</mgrwt>
</event>
<event>
 6    4  0.5642870E-004  0.1293243E+03  0.7818608E-02  0.1228462E+00
          4   -1    0    0  502    0  0.00000000000E+00  0.00000000000E+00  0.11442482892E+02  0.11512745752E+02  0.12700000000E+01 0. -1.
         -4   -1    0    0    0  501 -0.00000000000E+00 -0.00000000000E+00 -0.57698947428E+03  0.57699087197E+03  0.12700000000E+01 0. -1.
         25    2    1    2    0    0  0.15326742722E+02 -0.29384250405E+02 -0.43512179230E+03  0.45393365163E+03  0.12500577081E+03 0.  0.
    9000005    1    3    3    0    0 -0.39552675798E+01  0.21328257025E+02 -0.76372498412E+01  0.23018824351E+02  0.10000000000E+01 0.  0.
    9000005    1    3    3    0    0  0.19282010302E+02 -0.50712507430E+02 -0.42748454246E+03  0.43091482728E+03  0.10000000000E+01 0.  0.
         21    1    1    2  502  501 -0.15326742722E+02  0.29384250405E+02 -0.13042519909E+03  0.13456996609E+03  0.00000000000E+00 0.  1.
<mgrwt>
<rscale>  1 0.12932434E+03</rscale>
<asrwt>0</asrwt>
<pdfrwt beam="1">  1        4 0.17658948E-02 0.12932434E+03</pdfrwt>
<pdfrwt beam="2">  1       -4 0.88773101E-01 0.12932434E+03</pdfrwt>
<totfact> 0.22575938E+03</totfact>
</mgrwt>
</event>
<event>
 6    4  0.5642870E-004  0.1286672E+03  0.7818608E-02  0.1229447E+00
          4   -1    0    0  502    0  0.00000000000E+00  0.00000000000E+00  0.47390985169E+02  0.47407999065E+02  0.12700000000E+01 0.  1.
         -4   -1    0    0    0  501 -0.00000000000E+00 -0.00000000000E+00 -0.14214216059E+03  0.14214783403E+03  0.12700000000E+01 0.  1.
         25    2    1    2    0    0 -0.28779935708E+02 -0.10003308247E+02 -0.93517210211E+02  0.15906200510E+03  0.12500760771E+03 0.  0.
    9000005    1    3    3    0    0  0.37463873671E+02 -0.27632430571E+02 -0.46075313411E+01  0.46790195499E+02  0.10000000000E+01 0.  0.
    9000005    1    3    3    0    0 -0.66243809379E+02  0.17629122324E+02 -0.88909678870E+02  0.11227180960E+03  0.10000000000E+01 0.  0.
         21    1    1    2  502  501  0.28779935708E+02  0.10003308247E+02 -0.12339652135E+01  0.30493827988E+02  0.00000000000E+00 0.  1.
<mgrwt>
<rscale>  1 0.12866722E+03</rscale>
<asrwt>0</asrwt>
<pdfrwt beam="1">  1        4 0.72926660E-02 0.12866722E+03</pdfrwt>
<pdfrwt beam="2">  1       -4 0.21869770E-01 0.12866722E+03</pdfrwt>
<totfact> 0.39871451E+03</totfact>
</mgrwt>
</event>
<event>
 6    4  0.5642870E-004  0.1406925E+03  0.7818608E-02  0.1212400E+00
          4   -1    0    0  502    0  0.00000000000E+00  0.00000000000E+00  0.11363017345E+04  0.11363024443E+04  0.12700000000E+01 0. -1.
         -4   -1    0    0    0  501 -0.00000000000E+00 -0.00000000000E+00 -0.15725617359E+02  0.15776816577E+02  0.12700000000E+01 0. -1.
         25    2    1    2    0    0 -0.63143741433E+02  0.13457840211E+02  0.32829822900E+03  0.35717518005E+03  0.12500454605E+03 0.  0.
    9000005    1    3    3    0    0 -0.67517212794E+02 -0.33628948717E+01  0.66612587124E+02  0.94911115517E+02  0.10000000000E+01 0.  0.
    9000005    1    3    3    0    0  0.43734713609E+01  0.16820735082E+02  0.26168564187E+03  0.26226406453E+03  0.10000000000E+01 0.  0.
         21    1    1    2  502  501  0.63143741433E+02 -0.13457840211E+02  0.79227788819E+03  0.79490408079E+03  0.00000000000E+00 0. -1.
<mgrwt>
<rscale>  1 0.14069251E+03</rscale>
<asrwt>0</asrwt>
<pdfrwt beam="1">  1        4 0.17481966E+00 0.14069251E+03</pdfrwt>
<pdfrwt beam="2">  1       -4 0.24233185E-02 0.14069251E+03</pdfrwt>
<totfact> 0.26977225E+02</totfact>
</mgrwt>
</event>
<event>
 6    4  0.5642870E-004  0.1283735E+03  0.7818608E-02  0.1229889E+00
         -4   -1    0    0    0  501 -0.00000000000E+00  0.00000000000E+00  0.13328107458E+02  0.13388478196E+02  0.12700000000E+01 0.  1.
          4   -1    0    0  502    0  0.00000000000E+00 -0.00000000000E+00 -0.51398860765E+03  0.51399017665E+03  0.12700000000E+01 0.  1.
         25    2    1    2    0    0 -0.25068552735E+02 -0.15066590710E+02 -0.32742437216E+03  0.35169089048E+03  0.12499731386E+03 0.  0.
    9000005    1    3    3    0    0  0.27519972937E+02 -0.37155140675E+01 -0.96844014832E+01  0.29426885451E+02  0.10000000000E+01 0.  0.
    9000005    1    3    3    0    0 -0.52588525673E+02 -0.11351076643E+02 -0.31773997067E+03  0.32226400503E+03  0.10000000000E+01 0.  0.
         21    1    1    2  502  501  0.25068552735E+02  0.15066590710E+02 -0.17323612803E+03  0.17568776437E+03  0.00000000000E+00 0.  1.
<mgrwt>
<rscale>  1 0.12837353E+03</rscale>
<asrwt>0</asrwt>
<pdfrwt beam="2">  1        4 0.79079920E-01 0.12837353E+03</pdfrwt>
<pdfrwt beam="1">  1       -4 0.20552431E-02 0.12837353E+03</pdfrwt>
<totfact> 0.23094158E+03</totfact>
</mgrwt>
</event>
<event>
 6    4  0.5642870E-004  0.1307220E+03  0.7818608E-02  0.1226388E+00
          4   -1    0    0  502    0  0.00000000000E+00  0.00000000000E+00  0.27073988821E+02  0.27103759346E+02  0.12700000000E+01 0.  1.
         -4   -1    0    0    0  501 -0.00000000000E+00 -0.00000000000E+00 -0.30033111885E+03  0.30033380404E+03  0.12700000000E+01 0.  1.
         25    2    1    2    0    0 -0.36653129599E+02  0.10906347613E+02 -0.25149018622E+03  0.28343528878E+03  0.12500339530E+03 0.  0.
    9000005    1    3    3    0    0 -0.67002754444E+02 -0.31319199278E+02 -0.18339281631E+03  0.19774778487E+03  0.10000000000E+01 0.  0.
    9000005    1    3    3    0    0  0.30349624845E+02  0.42225546891E+02 -0.68097369903E+02  0.85687503909E+02  0.10000000000E+01 0.  0.
         21    1    1    2  502  501  0.36653129599E+02 -0.10906347613E+02 -0.21766943813E+02  0.44002274607E+02  0.00000000000E+00 0.  1.
<mgrwt>
<rscale>  1 0.13072203E+03</rscale>
<asrwt>0</asrwt>
<pdfrwt beam="1">  1        4 0.41677258E-02 0.13072203E+03</pdfrwt>
<pdfrwt beam="2">  1       -4 0.46207282E-01 0.13072203E+03</pdfrwt>
<totfact> 0.23758403E+03</totfact>
</mgrwt>
</event>
<event>
 6    4  0.5642870E-004  0.1366337E+03  0.7818608E-02  0.1217932E+00
          4   -1    0    0  502    0  0.00000000000E+00  0.00000000000E+00  0.31289519728E+02  0.31315282927E+02  0.12700000000E+01 0. -1.
         -4   -1    0    0    0  501 -0.00000000000E+00 -0.00000000000E+00 -0.37094850850E+03  0.37095068251E+03  0.12700000000E+01 0. -1.
         25    2    1    2    0    0  0.46282356082E+02  0.30024162344E+02 -0.31188489744E+03  0.34050103236E+03  0.12500102791E+03 0.  0.
    9000005    1    3    3    0    0  0.35529685225E+02 -0.39378848783E+01 -0.10859868664E+02  0.37373817264E+02  0.10000000000E+01 0.  0.
    9000005    1    3    3    0    0  0.10752670857E+02  0.33962047223E+02 -0.30102502878E+03  0.30312721510E+03  0.10000000000E+01 0.  0.
         21    1    1    2  502  501 -0.46282356082E+02 -0.30024162344E+02 -0.27774091326E+02  0.61764933077E+02  0.00000000000E+00 0. -1.
<mgrwt>
<rscale>  1 0.13663368E+03</rscale>
<asrwt>0</asrwt>
<pdfrwt beam="1">  1        4 0.48159215E-02 0.13663368E+03</pdfrwt>
<pdfrwt beam="2">  1       -4 0.57071147E-01 0.13663368E+03</pdfrwt>
<totfact> 0.12364659E+03</totfact>
</mgrwt>
</event>
<event>
 6    4  0.5642870E-004  0.1412863E+03  0.7818608E-02  0.1211609E+00
          4   -1    0    0  502    0  0.00000000000E+00  0.00000000000E+00  0.44991000279E+03  0.44991179526E+03  0.12700000000E+01 0.  1.
         -4   -1    0    0    0  501 -0.00000000000E+00 -0.00000000000E+00 -0.33204569317E+02  0.33228847761E+02  0.12700000000E+01 0.  1.
         25    2    1    2    0    0 -0.59659981479E+02  0.27893933203E+02  0.14073097897E+03  0.19941668485E+03  0.12499768340E+03 0.  0.
    9000005    1    3    3    0    0 -0.33337886607E+02  0.63906119441E+02  0.13679444546E+03  0.15462576465E+03  0.10000000000E+01 0.  0.
    9000005    1    3    3    0    0 -0.26322094872E+02 -0.36012186239E+02  0.39365335084E+01  0.44790920198E+02  0.10000000000E+01 0.  0.
         21    1    1    2  502  501  0.59659981479E+02 -0.27893933203E+02  0.27597445450E+03  0.28372395817E+03  0.00000000000E+00 0.  1.
<mgrwt>
<rscale>  1 0.14128625E+03</rscale>
<asrwt>0</asrwt>
<pdfrwt beam="1">  1        4 0.69218924E-01 0.14128625E+03</pdfrwt>
<pdfrwt beam="2">  1       -4 0.51104011E-02 0.14128625E+03</pdfrwt>
<totfact> 0.75194971E+02</totfact>
</mgrwt>
</event>
<event>
 6    4  0.5642870E-004  0.1450126E+03  0.7818608E-02  0.1206739E+00
          4   -1    0    0  502    0  0.00000000000E+00  0.00000000000E+00  0.67134487710E+02  0.67146499091E+02  0.12700000000E+01 0. -1.
         -4   -1    0    0    0  501 -0.00000000000E+00 -0.00000000000E+00 -0.22948248663E+03  0.22948600082E+03  0.12700000000E+01 0. -1.
         25    2    1    2    0    0  0.61373493337E+02 -0.40446297154E+02 -0.16916737181E+03  0.22281439586E+03  0.12500418665E+03 0.  0.
    9000005    1    3    3    0    0  0.99931608455E+02 -0.22355427350E+02 -0.12013909784E+03  0.15786226380E+03  0.10000000000E+01 0.  0.
    9000005    1    3    3    0    0 -0.38558115118E+02 -0.18090869804E+02 -0.49028273969E+02  0.64952132068E+02  0.10000000000E+01 0.  0.
         21    1    1    2  502  501 -0.61373493337E+02  0.40446297154E+02  0.68193728911E+01  0.73818104043E+02  0.00000000000E+00 0. -1.
<mgrwt>
<rscale>  1 0.14501260E+03</rscale>
<asrwt>0</asrwt>
<pdfrwt beam="1">  1        4 0.10329577E-01 0.14501260E+03</pdfrwt>
<pdfrwt beam="2">  1       -4 0.35306192E-01 0.14501260E+03</pdfrwt>
<totfact> 0.93461740E+02</totfact>
</mgrwt>
</event>
<event>
 6    4  0.5642870E-004  0.1355266E+03  0.7818608E-02  0.1219478E+00
          4   -1    0    0  502    0  0.00000000000E+00  0.00000000000E+00  0.97794872830E+02  0.97803118825E+02  0.12700000000E+01 0.  1.
         -4   -1    0    0    0  501 -0.00000000000E+00 -0.00000000000E+00 -0.90952253605E+02  0.90961119913E+02  0.12700000000E+01 0.  1.
         25    2    1    2    0    0 -0.44320268811E+02  0.27887333315E+02 -0.26211422299E+01  0.13555190588E+03  0.12500183685E+03 0.  0.
    9000005    1    3    3    0    0 -0.51716986609E+02 -0.40837097876E+02 -0.70603683716E+01  0.66280948005E+02  0.10000000000E+01 0.  0.
    9000005    1    3    3    0    0  0.73967177979E+01  0.68724431191E+02  0.44392261417E+01  0.69270957879E+02  0.10000000000E+01 0.  0.
         21    1    1    2  502  501  0.44320268811E+02 -0.27887333315E+02  0.94637614546E+01  0.53212332854E+02  0.00000000000E+00 0.  1.
<mgrwt>
<rscale>  1 0.13552656E+03</rscale>
<asrwt>0</asrwt>
<pdfrwt beam="1">  1        4 0.15046681E-01 0.13552656E+03</pdfrwt>
<pdfrwt beam="2">  1       -4 0.13993971E-01 0.13552656E+03</pdfrwt>
<totfact> 0.26159107E+03</totfact>
</mgrwt>
</event>
<event>
 6    4  0.5642870E-004  0.1272862E+03  0.7818608E-02  0.1231539E+00
          4   -1    0    0  502    0  0.00000000000E+00  0.00000000000E+00  0.22161866309E+02  0.22198225567E+02  0.12700000000E+01 0. -1.
         -4   -1    0    0    0  501 -0.00000000000E+00 -0.00000000000E+00 -0.28241655953E+03  0.28241941505E+03  0.12700000000E+01 0. -1.
         25    2    1    2    0    0  0.33078899952E+01  0.23780666224E+02 -0.24522534785E+03  0.27629197302E+03  0.12500128362E+03 0.  0.
    9000005    1    3    3    0    0 -0.56621208234E+01  0.12739490022E+01  0.14389038283E+02  0.15547571546E+02  0.10000000000E+01 0.  0.
    9000005    1    3    3    0    0  0.89700108186E+01  0.22506717221E+02 -0.25961438613E+03  0.26074440148E+03  0.10000000000E+01 0.  0.
         21    1    1    2  502  501 -0.33078899952E+01 -0.23780666224E+02 -0.15029345369E+02  0.28325667591E+02  0.00000000000E+00 0. -1.
<mgrwt>
<rscale>  1 0.12728623E+03</rscale>
<asrwt>0</asrwt>
<pdfrwt beam="1">  1        4 0.34125346E-02 0.12728623E+03</pdfrwt>
<pdfrwt beam="2">  1       -4 0.43451715E-01 0.12728623E+03</pdfrwt>
<totfact> 0.36625535E+03</totfact>
</mgrwt>
</event>
<event>
 6    4  0.5642870E-004  0.1324688E+03  0.7818608E-02  0.1223838E+00
         -4   -1    0    0    0  501 -0.00000000000E+00  0.00000000000E+00  0.73556027475E+02  0.73566990410E+02  0.12700000000E+01 0.  1.
          4   -1    0    0  502    0  0.00000000000E+00 -0.00000000000E+00 -0.20330519538E+03  0.20330916203E+03  0.12700000000E+01 0.  1.
         25    2    1    2    0    0  0.27862510671E+02 -0.33798433117E+02  0.76246127518E+01  0.13268804894E+03  0.12501731892E+03 0.  0.
    9000005    1    3    3    0    0 -0.16995530786E+02 -0.34831527524E+02  0.55089389156E+02  0.67364116367E+02  0.10000000000E+01 0.  0.
    9000005    1    3    3    0    0  0.44858041457E+02  0.10330944069E+01 -0.47464776404E+02  0.65323932570E+02  0.10000000000E+01 0.  0.
         21    1    1    2  502  501 -0.27862510671E+02  0.33798433117E+02 -0.13737378065E+03  0.14418810351E+03  0.00000000000E+00 0.  1.
<mgrwt>
<rscale>  1 0.13246880E+03</rscale>
<asrwt>0</asrwt>
<pdfrwt beam="2">  1        4 0.31278871E-01 0.13246880E+03</pdfrwt>
<pdfrwt beam="1">  1       -4 0.11317460E-01 0.13246880E+03</pdfrwt>
<totfact> 0.99119235E+02</totfact>
</mgrwt>
</event>
<event>
 6    4  0.5642870E-004  0.1377942E+03  0.7818608E-02  0.1216328E+00
          4   -1    0    0  502    0  0.00000000000E+00  0.00000000000E+00  0.32298381179E+03  0.32298630866E+03  0.12700000000E+01 0. -1.
         -4   -1    0    0    0  501 -0.00000000000E+00 -0.00000000000E+00 -0.31963161982E+02  0.31988382640E+02  0.12700000000E+01 0. -1.
         25    2    1    2    0    0  0.38215173106E+02  0.43623408489E+02  0.15669263200E+03  0.20866195230E+03  0.12499531268E+03 0.  0.
    9000005    1    3    3    0    0  0.15814245102E+02  0.23384419755E+02  0.17234264820E+03  0.17464223379E+03  0.10000000000E+01 0.  0.
    9000005    1    3    3    0    0  0.22400928005E+02  0.20238988734E+02 -0.15650016199E+02  0.34019718510E+02  0.10000000000E+01 0.  0.
         21    1    1    2  502  501 -0.38215173106E+02 -0.43623408489E+02  0.13432801781E+03  0.14631273900E+03  0.00000000000E+00 0. -1.
<mgrwt>
<rscale>  1 0.13779416E+03</rscale>
<asrwt>0</asrwt>
<pdfrwt beam="1">  1        4 0.49691947E-01 0.13779416E+03</pdfrwt>
<pdfrwt beam="2">  1       -4 0.49195419E-02 0.13779416E+03</pdfrwt>
<totfact> 0.15918725E+03</totfact>
</mgrwt>
</event>
<event>
 6    4  0.5642870E-004  0.1338935E+03  0.7818608E-02  0.1221790E+00
          4   -1    0    0  502    0  0.00000000000E+00  0.00000000000E+00  0.11528297338E+03  0.11528996856E+03  0.12700000000E+01 0.  1.
         -4   -1    0    0    0  501 -0.00000000000E+00 -0.00000000000E+00 -0.26058908287E+03  0.26059217758E+03  0.12700000000E+01 0.  1.
         25    2    1    2    0    0 -0.13086716228E+02 -0.46173721308E+02 -0.23710320760E+03  0.27229652019E+03  0.12499675664E+03 0.  0.
    9000005    1    3    3    0    0 -0.73692717766E+01  0.22414920195E+02 -0.18360519163E+03  0.18511780360E+03  0.10000000000E+01 0.  0.
    9000005    1    3    3    0    0 -0.57174444512E+01 -0.68588641503E+02 -0.53498015971E+02  0.87178716595E+02  0.10000000000E+01 0.  0.
         21    1    1    2  502  501  0.13086716228E+02  0.46173721308E+02  0.91797098107E+02  0.10358562594E+03  0.00000000000E+00 0.  1.
<mgrwt>
<rscale>  1 0.13389348E+03</rscale>
<asrwt>0</asrwt>
<pdfrwt beam="1">  1        4 0.17736618E-01 0.13389348E+03</pdfrwt>
<pdfrwt beam="2">  1       -4 0.40091404E-01 0.13389348E+03</pdfrwt>
<totfact> 0.28174606E+02</totfact>
</mgrwt>
</event>
<event>
 6    4  0.5642870E-004  0.1272766E+03  0.7818608E-02  0.1231554E+00
         -4   -1    0    0    0  501 -0.00000000000E+00  0.00000000000E+00  0.71363108273E+03  0.71363221279E+03  0.12700000000E+01 0. -1.
          4   -1    0    0  502    0  0.00000000000E+00 -0.00000000000E+00 -0.81035260481E+01  0.82024407594E+01  0.12700000000E+01 0. -1.
         25    2    1    2    0    0  0.53271903032E+01  0.23349425021E+02  0.62468748687E+03  0.63752159708E+03  0.12500302349E+03 0.  0.
    9000005    1    3    3    0    0 -0.42723382596E+02  0.28233202755E+02  0.51656253692E+03  0.51909561326E+03  0.10000000000E+01 0.  0.
    9000005    1    3    3    0    0  0.48050572900E+02 -0.48837777345E+01  0.10812494995E+03  0.11842598382E+03  0.10000000000E+01 0.  0.
         21    1    1    2  502  501 -0.53271903032E+01 -0.23349425021E+02  0.80840069808E+02  0.84313056474E+02  0.00000000000E+00 0. -1.
<mgrwt>
<rscale>  1 0.12727659E+03</rscale>
<asrwt>0</asrwt>
<pdfrwt beam="2">  1        4 0.12543915E-02 0.12727659E+03</pdfrwt>
<pdfrwt beam="1">  1       -4 0.10979714E+00 0.12727659E+03</pdfrwt>
<totfact> 0.23208149E+03</totfact>
</mgrwt>
</event>
<event>
 6    4  0.5642870E-004  0.1284225E+03  0.7818608E-02  0.1229815E+00
          4   -1    0    0  502    0  0.00000000000E+00  0.00000000000E+00  0.83631702820E+02  0.83641345138E+02  0.12700000000E+01 0.  1.
         -4   -1    0    0    0  501 -0.00000000000E+00 -0.00000000000E+00 -0.76076173630E+02  0.76086773451E+02  0.12700000000E+01 0.  1.
         25    2    1    2    0    0  0.14489767035E+02 -0.25646969492E+02  0.15135714504E+02  0.12931135344E+03  0.12499846352E+03 0.  0.
    9000005    1    3    3    0    0  0.16219381419E+02 -0.75721407638E+02  0.16478155214E+02  0.79179097668E+02  0.10000000000E+01 0.  0.
    9000005    1    3    3    0    0 -0.17296143838E+01  0.50074438146E+02 -0.13424407099E+01  0.50132255770E+02  0.10000000000E+01 0.  0.
         21    1    1    2  502  501 -0.14489767035E+02  0.25646969492E+02 -0.75801853143E+01  0.30416765151E+02  0.00000000000E+00 0.  1.
<mgrwt>
<rscale>  1 0.12842249E+03</rscale>
<asrwt>0</asrwt>
<pdfrwt beam="1">  1        4 0.12867973E-01 0.12842249E+03</pdfrwt>
<pdfrwt beam="2">  1       -4 0.11705584E-01 0.12842249E+03</pdfrwt>
<totfact> 0.46034003E+03</totfact>
</mgrwt>
</event>
<event>
 6    4  0.5642870E-004  0.1269323E+03  0.7818608E-02  0.1232080E+00
         -4   -1    0    0    0  501 -0.00000000000E+00  0.00000000000E+00  0.91695261037E+03  0.91695348986E+03  0.12700000000E+01 0.  1.
          4   -1    0    0  502    0  0.00000000000E+00 -0.00000000000E+00 -0.72682242106E+01  0.73783455582E+01  0.12700000000E+01 0.  1.
         25    2    1    2    0    0  0.21029383621E+02  0.66772163279E+01  0.86738899914E+03  0.87662732875E+03  0.12499990995E+03 0.  0.
    9000005    1    3    3    0    0  0.54837012678E+02 -0.27410227479E+01  0.17646998233E+03  0.18481684401E+03  0.10000000000E+01 0.  0.
    9000005    1    3    3    0    0 -0.33807629058E+02  0.94182390758E+01  0.69091901680E+03  0.69181048474E+03  0.10000000000E+01 0.  0.
         21    1    1    2  502  501 -0.21029383621E+02 -0.66772163279E+01  0.42295387025E+02  0.47704506673E+02  0.00000000000E+00 0.  1.
<mgrwt>
<rscale>  1 0.12693226E+03</rscale>
<asrwt>0</asrwt>
<pdfrwt beam="2">  1        4 0.11267267E-02 0.12693226E+03</pdfrwt>
<pdfrwt beam="1">  1       -4 0.14107819E+00 0.12693226E+03</pdfrwt>
<totfact> 0.14871897E+03</totfact>
</mgrwt>
</event>
<event>
 6    4  0.5642870E-004  0.1386998E+03  0.7818608E-02  0.1215089E+00
          4   -1    0    0  502    0  0.00000000000E+00  0.00000000000E+00  0.23015459153E+03  0.23015809546E+03  0.12700000000E+01 0.  1.
         -4   -1    0    0    0  501 -0.00000000000E+00 -0.00000000000E+00 -0.71752618755E+02  0.71763857185E+02  0.12700000000E+01 0.  1.
         25    2    1    2    0    0  0.59929800209E+02  0.46535378240E+01  0.68323504188E+01  0.13886801436E+03  0.12499763211E+03 0.  0.
    9000005    1    3    3    0    0  0.94614454526E+02  0.22193086262E+02 -0.73903613594E+01  0.97468176981E+02  0.10000000000E+01 0.  0.
    9000005    1    3    3    0    0 -0.34684654317E+02 -0.17539548438E+02  0.14222711778E+02  0.41399837376E+02  0.10000000000E+01 0.  0.
         21    1    1    2  502  501 -0.59929800209E+02 -0.46535378240E+01  0.15156962236E+03  0.16305393828E+03  0.00000000000E+00 0.  1.
<mgrwt>
<rscale>  1 0.13869984E+03</rscale>
<asrwt>0</asrwt>
<pdfrwt beam="1">  1        4 0.35409533E-01 0.13869984E+03</pdfrwt>
<pdfrwt beam="2">  1       -4 0.11039998E-01 0.13869984E+03</pdfrwt>
<totfact> 0.82282181E+02</totfact>
</mgrwt>
</event>
<event>
 6    4  0.5642870E-004  0.1379128E+03  0.7818608E-02  0.1216165E+00
         -4   -1    0    0    0  501 -0.00000000000E+00  0.00000000000E+00  0.40679300831E+02  0.40699120581E+02  0.12700000000E+01 0.  1.
          4   -1    0    0  502    0  0.00000000000E+00 -0.00000000000E+00 -0.24555626033E+03  0.24555954449E+03  0.12700000000E+01 0.  1.
         25    2    1    2    0    0 -0.19130479844E+02 -0.55039120747E+02 -0.11720288258E+03  0.18098747320E+03  0.12499867880E+03 0.  0.
    9000005    1    3    3    0    0  0.22338741740E+02  0.28355311765E+02 -0.71534314729E+01  0.36813240412E+02  0.10000000000E+01 0.  0.
    9000005    1    3    3    0    0 -0.41469221584E+02 -0.83394432512E+02 -0.11004945110E+03  0.14417423279E+03  0.10000000000E+01 0.  0.
         21    1    1    2  502  501  0.19130479844E+02  0.55039120747E+02 -0.87674076925E+02  0.10527119186E+03  0.00000000000E+00 0.  1.
<mgrwt>
<rscale>  1 0.13791283E+03</rscale>
<asrwt>0</asrwt>
<pdfrwt beam="2">  1        4 0.37779663E-01 0.13791283E+03</pdfrwt>
<pdfrwt beam="1">  1       -4 0.62601313E-02 0.13791283E+03</pdfrwt>
<totfact> 0.18614003E+03</totfact>
</mgrwt>
</event>
<event>
 6    4  0.5642870E-004  0.1271866E+03  0.7818608E-02  0.1231691E+00
         -4   -1    0    0    0  501 -0.00000000000E+00  0.00000000000E+00  0.44128889783E+02  0.44147160877E+02  0.12700000000E+01 0. -1.
          4   -1    0    0  502    0  0.00000000000E+00 -0.00000000000E+00 -0.13090148009E+03  0.13090764068E+03  0.12700000000E+01 0. -1.
         25    2    1    2    0    0 -0.58737602964E+01  0.22727018167E+02 -0.64127907783E+02  0.14243885360E+03  0.12500168016E+03 0.  0.
    9000005    1    3    3    0    0  0.35470415881E+02  0.45751076201E+02 -0.74128722757E+02  0.94060506664E+02  0.10000000000E+01 0.  0.
    9000005    1    3    3    0    0 -0.41344176177E+02 -0.23024058034E+02  0.10000814974E+02  0.48378346936E+02  0.10000000000E+01 0.  0.
         21    1    1    2  502  501  0.58737602964E+01 -0.22727018167E+02 -0.22644682520E+02  0.32615947958E+02  0.00000000000E+00 0. -1.
<mgrwt>
<rscale>  1 0.12718663E+03</rscale>
<asrwt>0</asrwt>
<pdfrwt beam="2">  1        4 0.20140568E-01 0.12718663E+03</pdfrwt>
<pdfrwt beam="1">  1       -4 0.67909394E-02 0.12718663E+03</pdfrwt>
<totfact> 0.51856078E+03</totfact>
</mgrwt>
</event>
<event>
 6    4  0.5642870E-004  0.1307288E+03  0.7818608E-02  0.1226378E+00
         -4   -1    0    0    0  501 -0.00000000000E+00  0.00000000000E+00  0.15833460564E+02  0.15884312180E+02  0.12700000000E+01 0. -1.
          4   -1    0    0  502    0  0.00000000000E+00 -0.00000000000E+00 -0.47096742544E+03  0.47096913776E+03  0.12700000000E+01 0. -1.
         25    2    1    2    0    0 -0.34870960576E+02  0.15781330522E+02 -0.30339106283E+03  0.33035762698E+03  0.12499996165E+03 0.  0.
    9000005    1    3    3    0    0 -0.63233490863E+02  0.51804003876E+02 -0.22683853543E+03  0.24111999158E+03  0.10000000000E+01 0.  0.
    9000005    1    3    3    0    0  0.28362530287E+02 -0.36022673354E+02 -0.76552527403E+02  0.89237635399E+02  0.10000000000E+01 0.  0.
         21    1    1    2  502  501  0.34870960576E+02 -0.15781330522E+02 -0.15174290204E+03  0.15649582296E+03  0.00000000000E+00 0. -1.
<mgrwt>
<rscale>  1 0.13072882E+03</rscale>
<asrwt>0</asrwt>
<pdfrwt beam="2">  1        4 0.72460560E-01 0.13072882E+03</pdfrwt>
<pdfrwt beam="1">  1       -4 0.24399607E-02 0.13072882E+03</pdfrwt>
<totfact> 0.21535347E+03</totfact>
</mgrwt>
</event>
<event>
 6    4  0.5642870E-004  0.1268042E+03  0.7818608E-02  0.1232276E+00
          4   -1    0    0  502    0  0.00000000000E+00  0.00000000000E+00  0.81800975156E+01  0.82780973275E+01  0.12700000000E+01 0. -1.
         -4   -1    0    0    0  501 -0.00000000000E+00 -0.00000000000E+00 -0.15656259412E+04  0.15656264563E+04  0.12700000000E+01 0. -1.
         25    2    1    2    0    0 -0.15817516018E+02  0.14305930272E+02 -0.15428703707E+04  0.15480724444E+04  0.12499783569E+03 0.  0.
    9000005    1    3    3    0    0  0.15631755662E+02  0.13087724136E+02 -0.14473853239E+04  0.14475292454E+04  0.10000000000E+01 0.  0.
    9000005    1    3    3    0    0 -0.31449271680E+02  0.12182061355E+01 -0.95485046745E+02  0.10054319901E+03  0.10000000000E+01 0.  0.
         21    1    1    2  502  501  0.15817516018E+02 -0.14305930272E+02 -0.14575473008E+02  0.25832109231E+02  0.00000000000E+00 0. -1.
<mgrwt>
<rscale>  1 0.12680423E+03</rscale>
<asrwt>0</asrwt>
<pdfrwt beam="1">  1        4 0.12660559E-02 0.12680423E+03</pdfrwt>
<pdfrwt beam="2">  1       -4 0.24087287E+00 0.12680423E+03</pdfrwt>
<totfact> 0.28185406E+02</totfact>
</mgrwt>
</event>
<event>
 6    4  0.5642870E-004  0.1340709E+03  0.7818608E-02  0.1221537E+00
          4   -1    0    0  502    0  0.00000000000E+00  0.00000000000E+00  0.90583811248E+03  0.90583900276E+03  0.12700000000E+01 0.  1.
         -4   -1    0    0    0  501 -0.00000000000E+00 -0.00000000000E+00 -0.13481150683E+02  0.13540839108E+02  0.12700000000E+01 0.  1.
         25    2    1    2    0    0  0.48057704182E+02 -0.64022768798E+01  0.34903383424E+03  0.37389789623E+03  0.12499794910E+03 0.  0.
    9000005    1    3    3    0    0  0.22740907554E+02 -0.18170642827E+02  0.60115045264E+01  0.29739860857E+02  0.10000000000E+01 0.  0.
    9000005    1    3    3    0    0  0.25316796629E+02  0.11768365947E+02  0.34302232972E+03  0.34415803538E+03  0.10000000000E+01 0.  0.
         21    1    1    2  502  501 -0.48057704182E+02  0.64022768798E+01  0.54332312756E+03  0.54548194564E+03  0.00000000000E+00 0.  1.
<mgrwt>
<rscale>  1 0.13407095E+03</rscale>
<asrwt>0</asrwt>
<pdfrwt beam="1">  1        4 0.13936432E+00 0.13407095E+03</pdfrwt>
<pdfrwt beam="2">  1       -4 0.20786838E-02 0.13407095E+03</pdfrwt>
<totfact> 0.60949178E+02</totfact>
</mgrwt>
</event>
<event>
 6    4  0.5642870E-004  0.1429577E+03  0.7818608E-02  0.1209404E+00
          4   -1    0    0  502    0  0.00000000000E+00  0.00000000000E+00  0.36301588553E+03  0.36301810705E+03  0.12700000000E+01 0.  1.
         -4   -1    0    0    0  501 -0.00000000000E+00 -0.00000000000E+00 -0.37167892369E+02  0.37189583530E+02  0.12700000000E+01 0.  1.
         25    2    1    2    0    0 -0.18042968335E+02 -0.66982101519E+02  0.13298465012E+03  0.19524813428E+03  0.12499906457E+03 0.  0.
    9000005    1    3    3    0    0 -0.40413366226E+02 -0.18170011364E+02 -0.74065072165E+01  0.44936019314E+02  0.10000000000E+01 0.  0.
    9000005    1    3    3    0    0  0.22370397891E+02 -0.48812090155E+02  0.14039115734E+03  0.15031211497E+03  0.10000000000E+01 0.  0.
         21    1    1    2  502  501  0.18042968335E+02  0.66982101519E+02  0.19286334304E+03  0.20495955630E+03  0.00000000000E+00 0.  1.
<mgrwt>
<rscale>  1 0.14295774E+03</rscale>
<asrwt>0</asrwt>
<pdfrwt beam="1">  1        4 0.55850433E-01 0.14295774E+03</pdfrwt>
<pdfrwt beam="2">  1       -4 0.57199772E-02 0.14295774E+03</pdfrwt>
<totfact> 0.98911054E+02</totfact>
</mgrwt>
</event>
<event>
 6    4  0.5642870E-004  0.1297441E+03  0.7818608E-02  0.1227836E+00
          4   -1    0    0  502    0  0.00000000000E+00  0.00000000000E+00  0.32269382047E+02  0.32294363559E+02  0.12700000000E+01 0. -1.
         -4   -1    0    0    0  501 -0.00000000000E+00 -0.00000000000E+00 -0.27029602425E+03  0.27029900781E+03  0.12700000000E+01 0. -1.
         25    2    1    2    0    0  0.52738366016E+01  0.34353448460E+02 -0.23405625597E+03  0.26761142259E+03  0.12500227906E+03 0.  0.
    9000005    1    3    3    0    0 -0.29963134788E+02 -0.14568925196E+02 -0.19007712160E+03  0.19297760280E+03  0.10000000000E+01 0.  0.
    9000005    1    3    3    0    0  0.35236971390E+02  0.48922373656E+02 -0.43979134369E+02  0.74633819792E+02  0.10000000000E+01 0.  0.
         21    1    1    2  502  501 -0.52738366016E+01 -0.34353448460E+02 -0.39703862353E+01  0.34981948780E+02  0.00000000000E+00 0.  1.
<mgrwt>
<rscale>  1 0.12974414E+03</rscale>
<asrwt>0</asrwt>
<pdfrwt beam="1">  1        4 0.49666716E-02 0.12974414E+03</pdfrwt>
<pdfrwt beam="2">  1       -4 0.41586153E-01 0.12974414E+03</pdfrwt>
<totfact> 0.22108985E+03</totfact>
</mgrwt>
</event>
<event>
 6    4  0.5642870E-004  0.1398532E+03  0.7818608E-02  0.1213527E+00
         -4   -1    0    0    0  501 -0.00000000000E+00  0.00000000000E+00  0.97408574504E+03  0.97408657295E+03  0.12700000000E+01 0. -1.
          4   -1    0    0  502    0  0.00000000000E+00 -0.00000000000E+00 -0.10598632750E+02  0.10674451563E+02  0.12700000000E+01 0. -1.
         25    2    1    2    0    0  0.30320555330E+02 -0.54880913148E+02  0.61756152050E+03  0.63319912987E+03  0.12501062261E+03 0.  0.
    9000005    1    3    3    0    0  0.69593800044E+01  0.40482173328E+02  0.15700331991E+03  0.16229073230E+03  0.10000000000E+01 0.  0.
    9000005    1    3    3    0    0  0.23361175326E+02 -0.95363086476E+02  0.46055820059E+03  0.47090839758E+03  0.10000000000E+01 0.  0.
         21    1    1    2  502  501 -0.30320555330E+02  0.54880913148E+02  0.34592559179E+03  0.35156189464E+03  0.00000000000E+00 0.  1.
<mgrwt>
<rscale>  1 0.13985316E+03</rscale>
<asrwt>0</asrwt>
<pdfrwt beam="2">  1        4 0.16364547E-02 0.13985316E+03</pdfrwt>
<pdfrwt beam="1">  1       -4 0.14986525E+00 0.13985316E+03</pdfrwt>
<totfact> 0.73866076E+02</totfact>
</mgrwt>
</event>
<event>
 6    4  0.5642870E-004  0.1322645E+03  0.7818608E-02  0.1224134E+00
          4   -1    0    0  502    0  0.00000000000E+00  0.00000000000E+00  0.20893493506E+03  0.20893879484E+03  0.12700000000E+01 0. -1.
         -4   -1    0    0    0  501 -0.00000000000E+00 -0.00000000000E+00 -0.37649049770E+02  0.37670463875E+02  0.12700000000E+01 0. -1.
         25    2    1    2    0    0 -0.95481428164E+01 -0.42161988194E+02  0.14382099615E+03  0.19539285104E+03  0.12500034809E+03 0.  0.
    9000005    1    3    3    0    0 -0.58538547476E+02 -0.17931571237E+02  0.12205816120E+03  0.13655584024E+03  0.10000000000E+01 0.  0.
    9000005    1    3    3    0    0  0.48990404660E+02 -0.24230416958E+02  0.21762834947E+02  0.58837010797E+02  0.10000000000E+01 0.  0.
         21    1    1    2  502  501  0.95481428164E+01  0.42161988194E+02  0.27464889141E+02  0.51216407676E+02  0.00000000000E+00 0.  1.
<mgrwt>
<rscale>  1 0.13226446E+03</rscale>
<asrwt>0</asrwt>
<pdfrwt beam="1">  1        4 0.32145781E-01 0.13226446E+03</pdfrwt>
<pdfrwt beam="2">  1       -4 0.57941055E-02 0.13226446E+03</pdfrwt>
<totfact> 0.28553074E+03</totfact>
</mgrwt>
</event>
<event>
 6    4  0.5642870E-004  0.1403308E+03  0.7818608E-02  0.1212885E+00
          4   -1    0    0  502    0  0.00000000000E+00  0.00000000000E+00  0.79945619825E+02  0.79955706671E+02  0.12700000000E+01 0. -1.
         -4   -1    0    0    0  501 -0.00000000000E+00 -0.00000000000E+00 -0.13393343799E+03  0.13393945913E+03  0.12700000000E+01 0. -1.
         25    2    1    2    0    0 -0.42978097335E+02 -0.47086945377E+02 -0.53379904997E+02  0.15014042611E+03  0.12501374332E+03 0.  0.
    9000005    1    3    3    0    0 -0.62005791359E+02 -0.34374089957E+02  0.19671839380E+02  0.73581774150E+02  0.10000000000E+01 0.  0.
    9000005    1    3    3    0    0  0.19027694025E+02 -0.12712855421E+02 -0.73051744377E+02  0.76558651957E+02  0.10000000000E+01 0.  0.
         21    1    1    2  502  501  0.42978097335E+02  0.47086945377E+02 -0.60791317114E+00  0.63754739698E+02  0.00000000000E+00 0. -1.
<mgrwt>
<rscale>  1 0.14033080E+03</rscale>
<asrwt>0</asrwt>
<pdfrwt beam="1">  1        4 0.12300565E-01 0.14033080E+03</pdfrwt>
<pdfrwt beam="2">  1       -4 0.20606383E-01 0.14033080E+03</pdfrwt>
<totfact> 0.18843147E+03</totfact>
</mgrwt>
</event>
<event>
 6    4  0.5642870E-004  0.1368836E+03  0.7818608E-02  0.1217585E+00
          4   -1    0    0  502    0  0.00000000000E+00  0.00000000000E+00  0.29829291201E+03  0.29829561555E+03  0.12700000000E+01 0. -1.
         -4   -1    0    0    0  501 -0.00000000000E+00 -0.00000000000E+00 -0.31178263867E+02  0.31204118923E+02  0.12700000000E+01 0. -1.
         25    2    1    2    0    0  0.45427697181E+02 -0.32395596581E+02  0.19715588010E+03  0.24001577180E+03  0.12499591716E+03 0.  0.
    9000005    1    3    3    0    0  0.45370517645E+01 -0.44795059113E+02  0.19171065812E+03  0.19692932386E+03  0.10000000000E+01 0.  0.
    9000005    1    3    3    0    0  0.40890645416E+02  0.12399462532E+02  0.54452219793E+01  0.43086447939E+02  0.10000000000E+01 0.  0.
         21    1    1    2  502  501 -0.45427697181E+02  0.32395596581E+02  0.69958768046E+02  0.89483962672E+02  0.00000000000E+00 0. -1.
<mgrwt>
<rscale>  1 0.13688364E+03</rscale>
<asrwt>0</asrwt>
<pdfrwt beam="1">  1        4 0.45893415E-01 0.13688364E+03</pdfrwt>
<pdfrwt beam="2">  1       -4 0.47988527E-02 0.13688364E+03</pdfrwt>
<totfact> 0.19429233E+03</totfact>
</mgrwt>
</event>
<event>
 6    4  0.5642870E-004  0.1289124E+03  0.7818608E-02  0.1229079E+00
         -4   -1    0    0    0  501 -0.00000000000E+00  0.00000000000E+00  0.13066419194E+02  0.13127993394E+02  0.12700000000E+01 0.  1.
          4   -1    0    0  502    0  0.00000000000E+00 -0.00000000000E+00 -0.87380700046E+03  0.87380792337E+03  0.12700000000E+01 0.  1.
         25    2    1    2    0    0  0.31127312913E+02  0.48044364179E+01 -0.31597080717E+03  0.34125643302E+03  0.12500563937E+03 0.  0.
    9000005    1    3    3    0    0 -0.38123734630E+02 -0.23197837493E+02 -0.18660646433E+03  0.19187113210E+03  0.10000000000E+01 0.  0.
    9000005    1    3    3    0    0  0.69251047543E+02  0.28002273911E+02 -0.12936434285E+03  0.14938530092E+03  0.10000000000E+01 0.  0.
         21    1    1    2  502  501 -0.31127312913E+02 -0.48044364179E+01 -0.54476977409E+03  0.54567948375E+03  0.00000000000E+00 0.  1.
<mgrwt>
<rscale>  1 0.12891238E+03</rscale>
<asrwt>0</asrwt>
<pdfrwt beam="2">  1        4 0.13443661E+00 0.12891238E+03</pdfrwt>
<pdfrwt beam="1">  1       -4 0.20150265E-02 0.12891238E+03</pdfrwt>
<totfact> 0.69369046E+02</totfact>
</mgrwt>
</event>
<event>
 6    4  0.5642870E-004  0.1273372E+03  0.7818608E-02  0.1231461E+00
          4   -1    0    0  502    0  0.00000000000E+00  0.00000000000E+00  0.39133333461E+02  0.39153935789E+02  0.12700000000E+01 0.  1.
         -4   -1    0    0    0  501 -0.00000000000E+00 -0.00000000000E+00 -0.40510770274E+03  0.40510969344E+03  0.12700000000E+01 0.  1.
         25    2    1    2    0    0  0.24214794240E+02  0.16618177321E+01 -0.38990925506E+03  0.41017555718E+03  0.12500257048E+03 0.  0.
    9000005    1    3    3    0    0 -0.31316548947E+02  0.45920848074E+02 -0.14974698922E+03  0.15973293745E+03  0.10000000000E+01 0.  0.
    9000005    1    3    3    0    0  0.55531343186E+02 -0.44259030341E+02 -0.24016226584E+03  0.25044261973E+03  0.10000000000E+01 0.  0.
         21    1    1    2  502  501 -0.24214794240E+02 -0.16618177321E+01  0.23934885787E+02  0.34088072047E+02  0.00000000000E+00 0.  1.
<mgrwt>
<rscale>  1 0.12733719E+03</rscale>
<asrwt>0</asrwt>
<pdfrwt beam="1">  1        4 0.60222511E-02 0.12733719E+03</pdfrwt>
<pdfrwt beam="2">  1       -4 0.62325997E-01 0.12733719E+03</pdfrwt>
<totfact> 0.70611733E+02</totfact>
</mgrwt>
</event>
<event>
 6    4  0.5642870E-004  0.1275352E+03  0.7818608E-02  0.1231160E+00
          4   -1    0    0  502    0  0.00000000000E+00  0.00000000000E+00  0.13820128192E+03  0.13820711713E+03  0.12700000000E+01 0. -1.
         -4   -1    0    0    0  501 -0.00000000000E+00 -0.00000000000E+00 -0.43789090750E+02  0.43807503567E+02  0.12700000000E+01 0. -1.
         25    2    1    2    0    0  0.24944453492E+02 -0.37869176801E+01  0.64612145130E+02  0.14296837568E+03  0.12501464171E+03 0.  0.
    9000005    1    3    3    0    0 -0.50599462579E+02  0.73614952818E+01  0.24540324568E+02  0.56724992340E+02  0.10000000000E+01 0.  0.
    9000005    1    3    3    0    0  0.75543916071E+02 -0.11148412962E+02  0.40071820563E+02  0.86243383341E+02  0.10000000000E+01 0.  0.
         21    1    1    2  502  501 -0.24944453492E+02  0.37869176801E+01  0.29800046039E+02  0.39046245011E+02  0.00000000000E+00 0. -1.
<mgrwt>
<rscale>  1 0.12753520E+03</rscale>
<asrwt>0</asrwt>
<pdfrwt beam="1">  1        4 0.21263601E-01 0.12753520E+03</pdfrwt>
<pdfrwt beam="2">  1       -4 0.67386485E-02 0.12753520E+03</pdfrwt>
<totfact> 0.47653172E+03</totfact>
</mgrwt>
</event>
<event>
 6    4  0.5642870E-004  0.1390533E+03  0.7818608E-02  0.1214608E+00
         -4   -1    0    0    0  501 -0.00000000000E+00  0.00000000000E+00  0.63026176082E+03  0.63026304037E+03  0.12700000000E+01 0.  1.
          4   -1    0    0  502    0  0.00000000000E+00 -0.00000000000E+00 -0.15837914893E+02  0.15888752253E+02  0.12700000000E+01 0.  1.
         25    2    1    2    0    0 -0.47926327030E+02 -0.37626498712E+02  0.42544882118E+03  0.44759639429E+03  0.12499258581E+03 0.  0.
    9000005    1    3    3    0    0 -0.82862732223E+02 -0.32421917258E+02  0.37859163948E+03  0.38890878441E+03  0.10000000000E+01 0.  0.
    9000005    1    3    3    0    0  0.34936405193E+02 -0.52045814545E+01  0.46857181701E+02  0.58687609876E+02  0.10000000000E+01 0.  0.
         21    1    1    2  502  501  0.47926327030E+02  0.37626498712E+02  0.18897502475E+03  0.19855539833E+03  0.00000000000E+00 0.  1.
<mgrwt>
<rscale>  1 0.13905334E+03</rscale>
<asrwt>0</asrwt>
<pdfrwt beam="2">  1        4 0.24406116E-02 0.13905334E+03</pdfrwt>
<pdfrwt beam="1">  1       -4 0.96967343E-01 0.13905334E+03</pdfrwt>
<totfact> 0.11391920E+03</totfact>
</mgrwt>
</event>
<event>
 6    4  0.5642870E-004  0.1503612E+03  0.7818608E-02  0.1200030E+00
          4   -1    0    0  502    0  0.00000000000E+00  0.00000000000E+00  0.25037988792E+03  0.25038310880E+03  0.12700000000E+01 0. -1.
         -4   -1    0    0    0  501 -0.00000000000E+00 -0.00000000000E+00 -0.16277711564E+03  0.16278206988E+03  0.12700000000E+01 0. -1.
         25    2    1    2    0    0 -0.47692586775E+02 -0.68626760056E+02 -0.11805950747E+03  0.19117151134E+03  0.12499713762E+03 0.  0.
    9000005    1    3    3    0    0  0.26669096118E+02 -0.39431216061E+02 -0.97760727181E+02  0.10873923518E+03  0.10000000000E+01 0.  0.
    9000005    1    3    3    0    0 -0.74361682893E+02 -0.29195543995E+02 -0.20298780292E+02  0.82432276161E+02  0.10000000000E+01 0.  0.
         21    1    1    2  502  501  0.47692586775E+02  0.68626760056E+02  0.20566227975E+03  0.22199366735E+03  0.00000000000E+00 0. -1.
<mgrwt>
<rscale>  1 0.15036123E+03</rscale>
<asrwt>0</asrwt>
<pdfrwt beam="1">  1        4 0.38520612E-01 0.15036123E+03</pdfrwt>
<pdfrwt beam="2">  1       -4 0.25043262E-01 0.15036123E+03</pdfrwt>
<totfact> 0.16641989E+02</totfact>
</mgrwt>
</event>
<event>
 6    4  0.5642870E-004  0.1405941E+03  0.7818608E-02  0.1212532E+00
          4   -1    0    0  502    0  0.00000000000E+00  0.00000000000E+00  0.13769898094E+03  0.13770483743E+03  0.12700000000E+01 0. -1.
         -4   -1    0    0    0  501 -0.00000000000E+00 -0.00000000000E+00 -0.11176844127E+03  0.11177565641E+03  0.12700000000E+01 0. -1.
         25    2    1    2    0    0  0.36552187697E+02  0.52970394507E+02 -0.50657793517E+02  0.14944201175E+03  0.12499911084E+03 0.  0.
    9000005    1    3    3    0    0 -0.15325037404E+02  0.64317622529E+02 -0.66736208093E+02  0.93948575348E+02  0.10000000000E+01 0.  0.
    9000005    1    3    3    0    0  0.51877225101E+02 -0.11347228022E+02  0.16078414576E+02  0.55493436398E+02  0.10000000000E+01 0.  0.
         21    1    1    2  502  501 -0.36552187697E+02 -0.52970394507E+02  0.76588333185E+02  0.10003848209E+03  0.00000000000E+00 0. -1.
<mgrwt>
<rscale>  1 0.14059411E+03</rscale>
<asrwt>0</asrwt>
<pdfrwt beam="1">  1        4 0.21185464E-01 0.14059411E+03</pdfrwt>
<pdfrwt beam="2">  1       -4 0.17196150E-01 0.14059411E+03</pdfrwt>
<totfact> 0.10000030E+03</totfact>
</mgrwt>
</event>
<event>
 6    4  0.5642870E-004  0.1271253E+03  0.7818608E-02  0.1231785E+00
         -4   -1    0    0    0  501 -0.00000000000E+00  0.00000000000E+00  0.35619166784E+01  0.37815539695E+01  0.12700000000E+01 0.  1.
          4   -1    0    0  502    0  0.00000000000E+00 -0.00000000000E+00 -0.15444629515E+04  0.15444634737E+04  0.12700000000E+01 0.  1.
         25    2    1    2    0    0 -0.31911771494E+01 -0.22902940638E+02 -0.12618174950E+04  0.12682051189E+04  0.12500441798E+03 0.  0.
    9000005    1    3    3    0    0 -0.25643619154E+02 -0.45023743660E+02 -0.22432346278E+03  0.23023194533E+03  0.10000000000E+01 0.  0.
    9000005    1    3    3    0    0  0.22452442005E+02  0.22120803022E+02 -0.10374940322E+04  0.10379731736E+04  0.10000000000E+01 0.  0.
         21    1    1    2  502  501  0.31911771494E+01  0.22902940638E+02 -0.27908353984E+03  0.28003990878E+03  0.00000000000E+00 0. -1.
<mgrwt>
<rscale>  1 0.12712526E+03</rscale>
<asrwt>0</asrwt>
<pdfrwt beam="2">  1        4 0.23762610E+00 0.12712526E+03</pdfrwt>
<pdfrwt beam="1">  1       -4 0.56492376E-03 0.12712526E+03</pdfrwt>
<totfact> 0.98552589E+02</totfact>
</mgrwt>
</event>
<event>
 6    4  0.5642870E-004  0.1288085E+03  0.7818608E-02  0.1229235E+00
         -4   -1    0    0    0  501 -0.00000000000E+00  0.00000000000E+00  0.26938109691E+02  0.26968030216E+02  0.12700000000E+01 0. -1.
          4   -1    0    0  502    0  0.00000000000E+00 -0.00000000000E+00 -0.25066650568E+03  0.25066972288E+03  0.12700000000E+01 0. -1.
         25    2    1    2    0    0  0.17386594251E+02  0.25792742921E+02 -0.15061777450E+03  0.19818511172E+03  0.12499626101E+03 0.  0.
    9000005    1    3    3    0    0  0.81336127634E+01  0.62420968978E+02 -0.14736923557E+03  0.16025362591E+03  0.10000000000E+01 0.  0.
    9000005    1    3    3    0    0  0.92529814880E+01 -0.36628226057E+02 -0.32485389253E+01  0.37931485809E+02  0.10000000000E+01 0.  0.
         21    1    1    2  502  501 -0.17386594251E+02 -0.25792742921E+02 -0.73110621494E+02  0.79452641380E+02  0.00000000000E+00 0. -1.
<mgrwt>
<rscale>  1 0.12880848E+03</rscale>
<asrwt>0</asrwt>
<pdfrwt beam="2">  1        4 0.38566625E-01 0.12880848E+03</pdfrwt>
<pdfrwt beam="1">  1       -4 0.41468738E-02 0.12880848E+03</pdfrwt>
<totfact> 0.34145948E+03</totfact>
</mgrwt>
</event>
<event>
 6    4  0.5642870E-004  0.1443017E+03  0.7818608E-02  0.1207655E+00
         -4   -1    0    0    0  501 -0.00000000000E+00  0.00000000000E+00  0.10278535014E+03  0.10279319580E+03  0.12700000000E+01 0. -1.
          4   -1    0    0  502    0  0.00000000000E+00 -0.00000000000E+00 -0.11557292714E+03  0.11557990477E+03  0.12700000000E+01 0. -1.
         25    2    1    2    0    0  0.30258109802E+01  0.72033946921E+02  0.39600853423E+01  0.14435601312E+03  0.12499972483E+03 0.  0.
    9000005    1    3    3    0    0 -0.31927470022E+02  0.92121623080E+02 -0.16895389578E+02  0.98955601004E+02  0.10000000000E+01 0.  0.
    9000005    1    3    3    0    0  0.34953281002E+02 -0.20087676159E+02  0.20855474920E+02  0.45400412118E+02  0.10000000000E+01 0.  0.
         21    1    1    2  502  501 -0.30258109802E+01 -0.72033946921E+02 -0.16747662345E+02  0.74017087454E+02  0.00000000000E+00 0. -1.
<mgrwt>
<rscale>  1 0.14430168E+03</rscale>
<asrwt>0</asrwt>
<pdfrwt beam="2">  1        4 0.17781590E-01 0.14430168E+03</pdfrwt>
<pdfrwt beam="1">  1       -4 0.15814271E-01 0.14430168E+03</pdfrwt>
<totfact> 0.15961896E+03</totfact>
</mgrwt>
</event>
<event>
 6    4  0.5642870E-004  0.1294533E+03  0.7818608E-02  0.1228269E+00
         -4   -1    0    0    0  501 -0.00000000000E+00  0.00000000000E+00  0.64007723924E+02  0.64020321945E+02  0.12700000000E+01 0.  1.
          4   -1    0    0  502    0  0.00000000000E+00 -0.00000000000E+00 -0.12998625568E+03  0.12999245965E+03  0.12700000000E+01 0.  1.
         25    2    1    2    0    0  0.18223858689E+02 -0.28306925558E+02 -0.11489163641E+02  0.12996215867E+03  0.12499908297E+03 0.  0.
    9000005    1    3    3    0    0  0.56456711345E+02 -0.57953920205E+02 -0.10199082665E+02  0.81553898805E+02  0.10000000000E+01 0.  0.
    9000005    1    3    3    0    0 -0.38232852657E+02  0.29646994647E+02 -0.12900809759E+01  0.48408259861E+02  0.10000000000E+01 0.  0.
         21    1    1    2  502  501 -0.18223858689E+02  0.28306925558E+02 -0.54489368119E+02  0.64050622932E+02  0.00000000000E+00 0.  1.
<mgrwt>
<rscale>  1 0.12945332E+03</rscale>
<asrwt>0</asrwt>
<pdfrwt beam="2">  1        4 0.19999332E-01 0.12945332E+03</pdfrwt>
<pdfrwt beam="1">  1       -4 0.98487884E-02 0.12945332E+03</pdfrwt>
<totfact> 0.28479618E+03</totfact>
</mgrwt>
</event>
<event>
 6    4  0.5642870E-004  0.1688391E+03  0.7818608E-02  0.1179064E+00
         -4   -1    0    0    0  501 -0.00000000000E+00  0.00000000000E+00  0.24939908545E+02  0.24972223334E+02  0.12700000000E+01 0. -1.
          4   -1    0    0  502    0  0.00000000000E+00 -0.00000000000E+00 -0.81421028126E+03  0.81421127173E+03  0.12700000000E+01 0. -1.
         25    2    1    2    0    0  0.99076312903E+02  0.55355752340E+02 -0.52771872391E+03  0.55407011395E+03  0.12500505795E+03 0.  0.
    9000005    1    3    3    0    0  0.88316595369E+02  0.55038709085E+02 -0.19377867513E+03  0.21995512145E+03  0.10000000000E+01 0.  0.
    9000005    1    3    3    0    0  0.10759717533E+02  0.31704325462E+00 -0.33394004878E+03  0.33411499250E+03  0.10000000000E+01 0.  0.
         21    1    1    2  502  501 -0.99076312903E+02 -0.55355752340E+02 -0.26155164881E+03  0.28511338111E+03  0.00000000000E+00 0. -1.
<mgrwt>
<rscale>  1 0.16883909E+03</rscale>
<asrwt>0</asrwt>
<pdfrwt beam="2">  1        4 0.12526566E+00 0.16883909E+03</pdfrwt>
<pdfrwt beam="1">  1       -4 0.38394716E-02 0.16883909E+03</pdfrwt>
<totfact> 0.31597831E+02</totfact>
</mgrwt>
</event>
<event>
 6    4  0.5642870E-004  0.1270308E+03  0.7818608E-02  0.1231929E+00
          4   -1    0    0  502    0  0.00000000000E+00  0.00000000000E+00  0.23299703291E+02  0.23334289649E+02  0.12700000000E+01 0.  1.
         -4   -1    0    0    0  501 -0.00000000000E+00 -0.00000000000E+00 -0.24693537661E+03  0.24693864242E+03  0.12700000000E+01 0.  1.
         25    2    1    2    0    0 -0.39987689339E+01 -0.22277084238E+02 -0.17137603896E+03  0.21332270803E+03  0.12499828957E+03 0.  0.
    9000005    1    3    3    0    0  0.15884787946E+02 -0.55809554507E+02 -0.16355874914E+03  0.17354969687E+03  0.10000000000E+01 0.  0.
    9000005    1    3    3    0    0 -0.19883556880E+02  0.33532470268E+02 -0.78172898147E+01  0.39773011157E+02  0.10000000000E+01 0.  0.
         21    1    1    2  502  501  0.39987689339E+01  0.22277084238E+02 -0.52259634359E+02  0.56950224042E+02  0.00000000000E+00 0. -1.
<mgrwt>
<rscale>  1 0.12703083E+03</rscale>
<asrwt>0</asrwt>
<pdfrwt beam="1">  1        4 0.35874816E-02 0.12703083E+03</pdfrwt>
<pdfrwt beam="2">  1       -4 0.37992968E-01 0.12703083E+03</pdfrwt>
<totfact> 0.44075827E+03</totfact>
</mgrwt>
</event>
<event>
 6    4  0.5642870E-004  0.1448246E+03  0.7818608E-02  0.1206981E+00
         -4   -1    0    0    0  501 -0.00000000000E+00  0.00000000000E+00  0.30487486727E+03  0.30487751244E+03  0.12700000000E+01 0. -1.
          4   -1    0    0  502    0  0.00000000000E+00 -0.00000000000E+00 -0.49138604546E+02  0.49155013547E+02  0.12700000000E+01 0. -1.
         25    2    1    2    0    0  0.72272954577E+02  0.11125042536E+02  0.23830253936E+03  0.27885885210E+03  0.12500805013E+03 0.  0.
    9000005    1    3    3    0    0  0.10477207976E+03  0.18473480834E+02  0.20880097652E+03  0.23434441744E+03  0.10000000000E+01 0.  0.
    9000005    1    3    3    0    0 -0.32499125183E+02 -0.73484382986E+01  0.29501562838E+02  0.44514434659E+02  0.10000000000E+01 0.  0.
         21    1    1    2  502  501 -0.72272954577E+02 -0.11125042536E+02  0.17433723361E+02  0.75173673882E+02  0.00000000000E+00 0. -1.
<mgrwt>
<rscale>  1 0.14482458E+03</rscale>
<asrwt>0</asrwt>
<pdfrwt beam="2">  1        4 0.75612512E-02 0.14482458E+03</pdfrwt>
<pdfrwt beam="1">  1       -4 0.46905291E-01 0.14482458E+03</pdfrwt>
<totfact> 0.89783239E+02</totfact>
</mgrwt>
</event>
<event>
 6    4  0.5642870E-004  0.1375328E+03  0.7818608E-02  0.1216688E+00
         -4   -1    0    0    0  501 -0.00000000000E+00  0.00000000000E+00  0.18378357695E+03  0.18378796494E+03  0.12700000000E+01 0.  1.
          4   -1    0    0  502    0  0.00000000000E+00 -0.00000000000E+00 -0.66274783663E+02  0.66286950825E+02  0.12700000000E+01 0.  1.
         25    2    1    2    0    0  0.42488586338E+02  0.38560263738E+02  0.13228424590E+03  0.19082554523E+03  0.12499237212E+03 0.  0.
    9000005    1    3    3    0    0  0.75191132742E+02  0.60965702341E+02  0.10422747083E+03  0.14224939009E+03  0.10000000000E+01 0.  0.
    9000005    1    3    3    0    0 -0.32702546405E+02 -0.22405438602E+02  0.28056775070E+02  0.48576155134E+02  0.10000000000E+01 0.  0.
         21    1    1    2  502  501 -0.42488586338E+02 -0.38560263738E+02 -0.14775452621E+02  0.59249370534E+02  0.00000000000E+00 0.  1.
<mgrwt>
<rscale>  1 0.13753279E+03</rscale>
<asrwt>0</asrwt>
<pdfrwt beam="2">  1        4 0.10197394E-01 0.13753279E+03</pdfrwt>
<pdfrwt beam="1">  1       -4 0.28275670E-01 0.13753279E+03</pdfrwt>
<totfact> 0.14421611E+03</totfact>
</mgrwt>
</event>
<event>
 6    4  0.5642870E-004  0.1966218E+03  0.7818608E-02  0.1152621E+00
          4   -1    0    0  502    0  0.00000000000E+00  0.00000000000E+00  0.34454066666E+03  0.34454300730E+03  0.12700000000E+01 0.  1.
         -4   -1    0    0    0  501 -0.00000000000E+00 -0.00000000000E+00 -0.13825797966E+03  0.13826381247E+03  0.12700000000E+01 0.  1.
         25    2    1    2    0    0  0.98089895599E+02 -0.11582299893E+03 -0.33074362702E+02  0.19938418140E+03  0.12499417436E+03 0.  0.
    9000005    1    3    3    0    0  0.67503217616E+02 -0.55426096729E+02  0.43154781218E+02  0.97427263787E+02  0.10000000000E+01 0.  0.
    9000005    1    3    3    0    0  0.30586677983E+02 -0.60396902203E+02 -0.76229143920E+02  0.10195691761E+03  0.10000000000E+01 0.  0.
         21    1    1    2  502  501 -0.98089895599E+02  0.11582299893E+03  0.23935704970E+03  0.28342263837E+03  0.00000000000E+00 0.  1.
<mgrwt>
<rscale>  1 0.19662182E+03</rscale>
<asrwt>0</asrwt>
<pdfrwt beam="1">  1        4 0.53006885E-01 0.19662182E+03</pdfrwt>
<pdfrwt beam="2">  1       -4 0.21271087E-01 0.19662182E+03</pdfrwt>
<totfact> 0.12299254E+02</totfact>
</mgrwt>
</event>
<event>
 6    4  0.5642870E-004  0.1336866E+03  0.7818608E-02  0.1222086E+00
          4   -1    0    0  502    0  0.00000000000E+00  0.00000000000E+00  0.15193670043E+03  0.15194200814E+03  0.12700000000E+01 0.  1.
         -4   -1    0    0    0  501 -0.00000000000E+00 -0.00000000000E+00 -0.66115777420E+02  0.66127973838E+02  0.12700000000E+01 0.  1.
         25    2    1    2    0    0 -0.58231541210E+01  0.47047039728E+02  0.17375947222E+02  0.13481106184E+03  0.12499906313E+03 0.  0.
    9000005    1    3    3    0    0 -0.75788376690E+01 -0.35924305217E+02  0.34133010929E+02  0.50140372164E+02  0.10000000000E+01 0.  0.
    9000005    1    3    3    0    0  0.17556835480E+01  0.82971344945E+02 -0.16757063707E+02  0.84670689679E+02  0.10000000000E+01 0.  0.
         21    1    1    2  502  501  0.58231541210E+01 -0.47047039728E+02  0.68444975786E+02  0.83258920131E+02  0.00000000000E+00 0.  1.
<mgrwt>
<rscale>  1 0.13368657E+03</rscale>
<asrwt>0</asrwt>
<pdfrwt beam="1">  1        4 0.23376223E-01 0.13368657E+03</pdfrwt>
<pdfrwt beam="2">  1       -4 0.10173005E-01 0.13368657E+03</pdfrwt>
<totfact> 0.20474031E+03</totfact>
</mgrwt>
</event>
<event>
 6    4  0.5642870E-004  0.1289363E+03  0.7818608E-02  0.1229043E+00
          4   -1    0    0  502    0  0.00000000000E+00  0.00000000000E+00  0.14126611222E+02  0.14183583631E+02  0.12700000000E+01 0.  1.
         -4   -1    0    0    0  501 -0.00000000000E+00 -0.00000000000E+00 -0.66158266493E+03  0.66158388390E+03  0.12700000000E+01 0.  1.
         25    2    1    2    0    0  0.19662740589E+02 -0.24745335520E+02 -0.62189004233E+03  0.63511558030E+03  0.12500248236E+03 0.  0.
    9000005    1    3    3    0    0 -0.27470238311E+02 -0.12611720703E+02 -0.53226448868E+03  0.53312302089E+03  0.10000000000E+01 0.  0.
    9000005    1    3    3    0    0  0.47132978900E+02 -0.12133614817E+02 -0.89625553650E+02  0.10199255941E+03  0.10000000000E+01 0.  0.
         21    1    1    2  502  501 -0.19662740589E+02  0.24745335520E+02 -0.25566011379E+02  0.40651887229E+02  0.00000000000E+00 0.  1.
<mgrwt>
<rscale>  1 0.12893632E+03</rscale>
<asrwt>0</asrwt>
<pdfrwt beam="1">  1        4 0.21778016E-02 0.12893632E+03</pdfrwt>
<pdfrwt beam="2">  1       -4 0.10178640E+00 0.12893632E+03</pdfrwt>
<totfact> 0.11958434E+03</totfact>
</mgrwt>
</event>
<event>
 6    4  0.5642870E-004  0.1272188E+03  0.7818608E-02  0.1231642E+00
         -4   -1    0    0    0  501 -0.00000000000E+00  0.00000000000E+00  0.25527479025E+02  0.25559050948E+02  0.12700000000E+01 0. -1.
          4   -1    0    0  502    0  0.00000000000E+00 -0.00000000000E+00 -0.22390348931E+03  0.22390709106E+03  0.12700000000E+01 0. -1.
         25    2    1    2    0    0 -0.20068824793E+02  0.12495983810E+02 -0.16030066304E+03  0.20464829502E+03  0.12500285895E+03 0.  0.
    9000005    1    3    3    0    0  0.46483452001E+02 -0.19261664280E+02 -0.43535033192E+02  0.66543385365E+02  0.10000000000E+01 0.  0.
    9000005    1    3    3    0    0 -0.66552276795E+02  0.31757648090E+02 -0.11676562985E+03  0.13810490966E+03  0.10000000000E+01 0.  0.
         21    1    1    2  502  501  0.20068824793E+02 -0.12495983810E+02 -0.38075347250E+02  0.44817846983E+02  0.00000000000E+00 0. -1.
<mgrwt>
<rscale>  1 0.12721880E+03</rscale>
<asrwt>0</asrwt>
<pdfrwt beam="2">  1        4 0.34449395E-01 0.12721880E+03</pdfrwt>
<pdfrwt beam="1">  1       -4 0.39300103E-02 0.12721880E+03</pdfrwt>
<totfact> 0.46140973E+03</totfact>
</mgrwt>
</event>
<event>
 6    4  0.5642870E-004  0.1277638E+03  0.7818608E-02  0.1230812E+00
          4   -1    0    0  502    0  0.00000000000E+00  0.00000000000E+00  0.55070887181E+02  0.55085529088E+02  0.12700000000E+01 0. -1.
         -4   -1    0    0    0  501 -0.00000000000E+00 -0.00000000000E+00 -0.14500852301E+03  0.14501408430E+03  0.12700000000E+01 0. -1.
         25    2    1    2    0    0 -0.26252488350E+02  0.30209525452E+01 -0.10865346752E+03  0.16771749402E+03  0.12500104999E+03 0.  0.
    9000005    1    3    3    0    0 -0.17775542640E+02  0.40960520578E+02  0.74454793199E+01  0.45278795528E+02  0.10000000000E+01 0.  0.
    9000005    1    3    3    0    0 -0.84769457105E+01 -0.37939568033E+02 -0.11609894684E+03  0.12243869849E+03  0.10000000000E+01 0.  0.
         21    1    1    2  502  501  0.26252488350E+02 -0.30209525452E+01  0.18715831691E+02  0.32382119368E+02  0.00000000000E+00 0. -1.
<mgrwt>
<rscale>  1 0.12776377E+03</rscale>
<asrwt>0</asrwt>
<pdfrwt beam="1">  1        4 0.84739984E-02 0.12776377E+03</pdfrwt>
<pdfrwt beam="2">  1       -4 0.22310557E-01 0.12776377E+03</pdfrwt>
<totfact> 0.29951004E+03</totfact>
</mgrwt>
</event>
<event>
 6    4  0.5642870E-004  0.1756465E+03  0.7818608E-02  0.1172084E+00
         -4   -1    0    0    0  501 -0.00000000000E+00  0.00000000000E+00  0.70333370055E+02  0.70344835229E+02  0.12700000000E+01 0.  1.
          4   -1    0    0  502    0  0.00000000000E+00 -0.00000000000E+00 -0.32086755930E+03  0.32087007263E+03  0.12700000000E+01 0.  1.
         25    2    1    2    0    0 -0.70842724397E+02 -0.10104236052E+03 -0.12824006070E+03  0.21747917723E+03  0.12499371641E+03 0.  0.
    9000005    1    3    3    0    0 -0.20046734258E+01 -0.79010995705E+02 -0.12140972167E+03  0.14487262224E+03  0.10000000000E+01 0.  0.
    9000005    1    3    3    0    0 -0.68838050971E+02 -0.22031364817E+02 -0.68303390298E+01  0.72606554996E+02  0.10000000000E+01 0.  0.
         21    1    1    2  502  501  0.70842724397E+02  0.10104236052E+03 -0.12229412854E+03  0.17373573062E+03  0.00000000000E+00 0.  1.
<mgrwt>
<rscale>  1 0.17564646E+03</rscale>
<asrwt>0</asrwt>
<pdfrwt beam="2">  1        4 0.49365314E-01 0.17564646E+03</pdfrwt>
<pdfrwt beam="1">  1       -4 0.10821594E-01 0.17564646E+03</pdfrwt>
<totfact> 0.45983731E+02</totfact>
</mgrwt>
</event>
<event>
 6    4  0.5642870E-004  0.1271633E+03  0.7818608E-02  0.1231727E+00
         -4   -1    0    0    0  501 -0.00000000000E+00  0.00000000000E+00  0.40498459593E+03  0.40498658723E+03  0.12700000000E+01 0.  1.
          4   -1    0    0  502    0  0.00000000000E+00 -0.00000000000E+00 -0.13973837666E+02  0.14031430402E+02  0.12700000000E+01 0.  1.
         25    2    1    2    0    0 -0.83092391494E+01  0.21780970978E+02  0.33684340623E+03  0.36004720979E+03  0.12500823494E+03 0.  0.
    9000005    1    3    3    0    0 -0.44977253494E+02  0.59464466499E+02  0.19539154431E+03  0.20913591680E+03  0.10000000000E+01 0.  0.
    9000005    1    3    3    0    0  0.36668014344E+02 -0.37683495520E+02  0.14145186193E+03  0.15091129300E+03  0.10000000000E+01 0.  0.
         21    1    1    2  502  501  0.83092391494E+01 -0.21780970978E+02  0.54167352027E+02  0.58970807843E+02  0.00000000000E+00 0. -1.
<mgrwt>
<rscale>  1 0.12716333E+03</rscale>
<asrwt>0</asrwt>
<pdfrwt beam="2">  1        4 0.21544043E-02 0.12716333E+03</pdfrwt>
<pdfrwt beam="1">  1       -4 0.62309912E-01 0.12716333E+03</pdfrwt>
<totfact> 0.35822680E+03</totfact>
</mgrwt>
</event>
<event>
 6    4  0.5642870E-004  0.1282959E+03  0.7818608E-02  0.1230006E+00
          4   -1    0    0  502    0  0.00000000000E+00  0.00000000000E+00  0.14607347916E+02  0.14662452494E+02  0.12700000000E+01 0.  1.
         -4   -1    0    0    0  501 -0.00000000000E+00 -0.00000000000E+00 -0.10290782554E+04  0.10290790391E+04  0.12700000000E+01 0.  1.
         25    2    1    2    0    0  0.13164915901E+02 -0.25723459833E+02 -0.10052580213E+04  0.10134118251E+04  0.12499930613E+03 0.  0.
    9000005    1    3    3    0    0  0.80816222422E+01  0.27448222175E+02 -0.82268584685E+03  0.82318389205E+03  0.10000000000E+01 0.  0.
    9000005    1    3    3    0    0  0.50832936585E+01 -0.53171682008E+02 -0.18257217442E+03  0.19022793306E+03  0.10000000000E+01 0.  0.
         21    1    1    2  502  501 -0.13164915901E+02  0.25723459833E+02 -0.92128862530E+01  0.30329666493E+02  0.00000000000E+00 0.  1.
<mgrwt>
<rscale>  1 0.12829590E+03</rscale>
<asrwt>0</asrwt>
<pdfrwt beam="1">  1        4 0.22515842E-02 0.12829590E+03</pdfrwt>
<pdfrwt beam="2">  1       -4 0.15832398E+00 0.12829590E+03</pdfrwt>
<totfact> 0.38644296E+02</totfact>
</mgrwt>
</event>
<event>
 6    4  0.5642870E-004  0.1270759E+03  0.7818608E-02  0.1231860E+00
          4   -1    0    0  502    0  0.00000000000E+00  0.00000000000E+00  0.21338180294E+04  0.21338184074E+04  0.12700000000E+01 0. -1.
         -4   -1    0    0    0  501 -0.00000000000E+00 -0.00000000000E+00 -0.28167444336E+01  0.30898137814E+01  0.12700000000E+01 0. -1.
         25    2    1    2    0    0  0.22014838909E+02  0.62691712574E+01  0.14609992284E+04  0.14665152681E+04  0.12499732227E+03 0.  0.
    9000005    1    3    3    0    0  0.44836342218E+02 -0.48082857903E+02  0.62816063934E+03  0.63159246958E+03  0.10000000000E+01 0.  0.
    9000005    1    3    3    0    0 -0.22821503308E+02  0.54352029160E+02  0.83283858908E+03  0.83492279856E+03  0.10000000000E+01 0.  0.
         21    1    1    2  502  501 -0.22014838909E+02 -0.62691712574E+01  0.67000205657E+03  0.67039295301E+03  0.00000000000E+00 0. -1.
<mgrwt>
<rscale>  1 0.12707591E+03</rscale>
<asrwt>0</asrwt>
<pdfrwt beam="1">  1        4 0.32830056E+00 0.12707591E+03</pdfrwt>
<pdfrwt beam="2">  1       -4 0.45437993E-03 0.12707591E+03</pdfrwt>
<totfact> 0.40738194E+02</totfact>
</mgrwt>
</event>
<event>
 6    4  0.5642870E-004  0.1291715E+03  0.7818608E-02  0.1228690E+00
          4   -1    0    0  502    0  0.00000000000E+00  0.00000000000E+00  0.18965646124E+03  0.18966071336E+03  0.12700000000E+01 0.  1.
         -4   -1    0    0    0  501 -0.00000000000E+00 -0.00000000000E+00 -0.67654065220E+02  0.67665984370E+02  0.12700000000E+01 0.  1.
         25    2    1    2    0    0  0.42924350139E+01  0.32276116530E+02 -0.19326229145E+01  0.12918590947E+03  0.12500036591E+03 0.  0.
    9000005    1    3    3    0    0  0.42537788999E+02 -0.27924996664E+02  0.19813330285E+02  0.54615354879E+02  0.10000000000E+01 0.  0.
    9000005    1    3    3    0    0 -0.38245353985E+02  0.60201113194E+02 -0.21745953200E+02  0.74570554589E+02  0.10000000000E+01 0.  0.
         21    1    1    2  502  501 -0.42924350139E+01 -0.32276116530E+02  0.12393501894E+03  0.12814078826E+03  0.00000000000E+00 0.  1.
<mgrwt>
<rscale>  1 0.12917145E+03</rscale>
<asrwt>0</asrwt>
<pdfrwt beam="1">  1        4 0.29179161E-01 0.12917145E+03</pdfrwt>
<pdfrwt beam="2">  1       -4 0.10409562E-01 0.12917145E+03</pdfrwt>
<totfact> 0.12952193E+03</totfact>
</mgrwt>
</event>
<event>
 6    4  0.5642870E-004  0.1274550E+03  0.7818608E-02  0.1231282E+00
         -4   -1    0    0    0  501 -0.00000000000E+00  0.00000000000E+00  0.38930264246E+03  0.38930471398E+03  0.12700000000E+01 0. -1.
          4   -1    0    0  502    0  0.00000000000E+00 -0.00000000000E+00 -0.15470324315E+02  0.15522365619E+02  0.12700000000E+01 0. -1.
         25    2    1    2    0    0  0.23295339840E+02 -0.88731740168E+01  0.33750697472E+03  0.36077101701E+03  0.12499345046E+03 0.  0.
    9000005    1    3    3    0    0  0.21685303226E+02  0.12765292753E+02  0.27759471141E+01  0.25335961743E+02  0.10000000000E+01 0.  0.
    9000005    1    3    3    0    0  0.16100366136E+01 -0.21638466770E+02  0.33473102761E+03  0.33543505527E+03  0.10000000000E+01 0.  0.
         21    1    1    2  502  501 -0.23295339840E+02  0.88731740168E+01  0.36325343420E+02  0.44056062579E+02  0.00000000000E+00 0.  1.
<mgrwt>
<rscale>  1 0.12745497E+03</rscale>
<asrwt>0</asrwt>
<pdfrwt beam="2">  1        4 0.23842127E-02 0.12745497E+03</pdfrwt>
<pdfrwt beam="1">  1       -4 0.59896870E-01 0.12745497E+03</pdfrwt>
<totfact> 0.33299076E+03</totfact>
</mgrwt>
</event>
<event>
 6    4  0.5642870E-004  0.1267256E+03  0.7818608E-02  0.1232397E+00
         -4   -1    0    0    0  501 -0.00000000000E+00  0.00000000000E+00  0.11374169435E+03  0.11374878432E+03  0.12700000000E+01 0. -1.
          4   -1    0    0  502    0  0.00000000000E+00 -0.00000000000E+00 -0.48374030705E+02  0.48390698969E+02  0.12700000000E+01 0. -1.
         25    2    1    2    0    0 -0.95347431383E+01 -0.18545740860E+02  0.61769355441E+02  0.14097811158E+03  0.12499807535E+03 0.  0.
    9000005    1    3    3    0    0  0.37506371473E+02  0.32542461889E+02  0.25949344332E+01  0.49734026698E+02  0.10000000000E+01 0.  0.
    9000005    1    3    3    0    0 -0.47041114611E+02 -0.51088202749E+02  0.59174421007E+02  0.91244084880E+02  0.10000000000E+01 0.  0.
         21    1    1    2  502  501  0.95347431383E+01  0.18545740860E+02  0.35983082070E+01  0.21161371711E+02  0.00000000000E+00 0.  1.
<mgrwt>
<rscale>  1 0.12672559E+03</rscale>
<asrwt>0</asrwt>
<pdfrwt beam="2">  1        4 0.74439862E-02 0.12672559E+03</pdfrwt>
<pdfrwt beam="1">  1       -4 0.17500550E-01 0.12672559E+03</pdfrwt>
<totfact> 0.57256351E+03</totfact>
</mgrwt>
</event>
<event>
 6    4  0.5642870E-004  0.1280987E+03  0.7818608E-02  0.1230305E+00
          4   -1    0    0  502    0  0.00000000000E+00  0.00000000000E+00  0.55204730897E+02  0.55219337314E+02  0.12700000000E+01 0.  1.
         -4   -1    0    0    0  501 -0.00000000000E+00 -0.00000000000E+00 -0.11174342905E+03  0.11175064580E+03  0.12700000000E+01 0.  1.
         25    2    1    2    0    0  0.27538869953E+02  0.51290964008E+01 -0.53395852815E+02  0.13878178585E+03  0.12499827998E+03 0.  0.
    9000005    1    3    3    0    0  0.12507999851E+00  0.58933247327E+02 -0.51638525337E+02  0.78362494756E+02  0.10000000000E+01 0.  0.
    9000005    1    3    3    0    0  0.27413789954E+02 -0.53804150926E+02 -0.17573274780E+01  0.60419291094E+02  0.10000000000E+01 0.  0.
         21    1    1    2  502  501 -0.27538869953E+02 -0.51290964008E+01 -0.31428453420E+01  0.28188197264E+02  0.00000000000E+00 0.  1.
<mgrwt>
<rscale>  1 0.12809866E+03</rscale>
<asrwt>0</asrwt>
<pdfrwt beam="1">  1        4 0.84947143E-02 0.12809866E+03</pdfrwt>
<pdfrwt beam="2">  1       -4 0.17192975E-01 0.12809866E+03</pdfrwt>
<totfact> 0.47621197E+03</totfact>
</mgrwt>
</event>
<event>
 6    4  0.5642870E-004  0.1315605E+03  0.7818608E-02  0.1225158E+00
         -4   -1    0    0    0  501 -0.00000000000E+00  0.00000000000E+00  0.11369251530E+03  0.11369960833E+03  0.12700000000E+01 0. -1.
          4   -1    0    0  502    0  0.00000000000E+00 -0.00000000000E+00 -0.10477408996E+03  0.10478178672E+03  0.12700000000E+01 0. -1.
         25    2    1    2    0    0  0.51979096370E+01 -0.40695803929E+02  0.66789452218E+02  0.14754323554E+03  0.12500003481E+03 0.  0.
    9000005    1    3    3    0    0  0.24192797846E+02 -0.78327855553E+02  0.19669779154E+02  0.84311592531E+02  0.10000000000E+01 0.  0.
    9000005    1    3    3    0    0 -0.18994888209E+02  0.37632051624E+02  0.47119673064E+02  0.63231643005E+02  0.10000000000E+01 0.  0.
         21    1    1    2  502  501 -0.51979096370E+01  0.40695803929E+02 -0.57871026885E+02  0.70938159510E+02  0.00000000000E+00 0. -1.
<mgrwt>
<rscale>  1 0.13156054E+03</rscale>
<asrwt>0</asrwt>
<pdfrwt beam="2">  1        4 0.16120228E-01 0.13156054E+03</pdfrwt>
<pdfrwt beam="1">  1       -4 0.17492294E-01 0.13156054E+03</pdfrwt>
<totfact> 0.15575910E+03</totfact>
</mgrwt>
</event>
<event>
 6    4  0.5642870E-004  0.1291780E+03  0.7818608E-02  0.1228681E+00
         -4   -1    0    0    0  501 -0.00000000000E+00  0.00000000000E+00  0.14909302969E+03  0.14909843863E+03  0.12700000000E+01 0. -1.
          4   -1    0    0  502    0  0.00000000000E+00 -0.00000000000E+00 -0.59274696092E+02  0.59288299830E+02  0.12700000000E+01 0. -1.
         25    2    1    2    0    0  0.31828133644E+02 -0.70982948877E+01  0.11031379524E+03  0.16987076996E+03  0.12499411660E+03 0.  0.
    9000005    1    3    3    0    0  0.13836021733E+02 -0.57386199538E+02  0.98998856946E+02  0.11526658263E+03  0.10000000000E+01 0.  0.
    9000005    1    3    3    0    0  0.17992111911E+02  0.50287904650E+02  0.11314938296E+02  0.54604187328E+02  0.10000000000E+01 0.  0.
         21    1    1    2  502  501 -0.31828133644E+02  0.70982948877E+01 -0.20495461644E+02  0.38515968501E+02  0.00000000000E+00 0. -1.
<mgrwt>
<rscale>  1 0.12917796E+03</rscale>
<asrwt>0</asrwt>
<pdfrwt beam="2">  1        4 0.91206467E-02 0.12917796E+03</pdfrwt>
<pdfrwt beam="1">  1       -4 0.22938851E-01 0.12917796E+03</pdfrwt>
<totfact> 0.25255963E+03</totfact>
</mgrwt>
</event>
<event>
 6    4  0.5642870E-004  0.1266746E+03  0.7818608E-02  0.1232475E+00
         -4   -1    0    0    0  501 -0.00000000000E+00  0.00000000000E+00  0.15887713319E+03  0.15888220904E+03  0.12700000000E+01 0. -1.
          4   -1    0    0  502    0  0.00000000000E+00 -0.00000000000E+00 -0.20542327458E+03  0.20542720034E+03  0.12700000000E+01 0. -1.
         25    2    1    2    0    0  0.19876476270E+01  0.20429823459E+02  0.13295436816E+03  0.18363909816E+03  0.12500050372E+03 0.  0.
    9000005    1    3    3    0    0 -0.15005579650E+02  0.29285143302E+02 -0.13755937341E+02  0.35679305640E+02  0.10000000000E+01 0.  0.
    9000005    1    3    3    0    0  0.16993227277E+02 -0.88553198430E+01  0.14671030550E+03  0.14795979252E+03  0.10000000000E+01 0.  0.
         21    1    1    2  502  501 -0.19876476270E+01 -0.20429823459E+02 -0.17950050955E+03  0.18067031123E+03  0.00000000000E+00 0. -1.
<mgrwt>
<rscale>  1 0.12667460E+03</rscale>
<asrwt>0</asrwt>
<pdfrwt beam="2">  1        4 0.31604273E-01 0.12667460E+03</pdfrwt>
<pdfrwt beam="1">  1       -4 0.24443328E-01 0.12667460E+03</pdfrwt>
<totfact> 0.24747399E+02</totfact>
</mgrwt>
</event>
<event>
 6    4  0.5642870E-004  0.1285955E+03  0.7818608E-02  0.1229555E+00
          4   -1    0    0  502    0  0.00000000000E+00  0.00000000000E+00  0.70243566046E+03  0.70243680853E+03  0.12700000000E+01 0.  1.
         -4   -1    0    0    0  501 -0.00000000000E+00 -0.00000000000E+00 -0.11983622066E+02  0.12050730177E+02  0.12700000000E+01 0.  1.
         25    2    1    2    0    0  0.21943218302E+02 -0.20719100275E+02  0.35309002562E+03  0.37577835135E+03  0.12500406873E+03 0.  0.
    9000005    1    3    3    0    0  0.59585839316E+02  0.71631898394E+01  0.29550509624E+03  0.30153945917E+03  0.10000000000E+01 0.  0.
    9000005    1    3    3    0    0 -0.37642621014E+02 -0.27882290114E+02  0.57584929385E+02  0.74238892173E+02  0.10000000000E+01 0.  0.
         21    1    1    2  502  501 -0.21943218302E+02  0.20719100275E+02  0.33736201277E+03  0.33870918736E+03  0.00000000000E+00 0.  1.
<mgrwt>
<rscale>  1 0.12859550E+03</rscale>
<asrwt>0</asrwt>
<pdfrwt beam="1">  1        4 0.10807228E+00 0.12859550E+03</pdfrwt>
<pdfrwt beam="2">  1       -4 0.18488846E-02 0.12859550E+03</pdfrwt>
<totfact> 0.13368380E+03</totfact>
</mgrwt>
</event>
<event>
 6    4  0.5642870E-004  0.1265955E+03  0.7818608E-02  0.1232597E+00
          4   -1    0    0  502    0  0.00000000000E+00  0.00000000000E+00  0.92996015217E+02  0.93004686689E+02  0.12700000000E+01 0.  1.
         -4   -1    0    0    0  501 -0.00000000000E+00 -0.00000000000E+00 -0.66421480893E+02  0.66433621187E+02  0.12700000000E+01 0.  1.
         25    2    1    2    0    0  0.19219335498E+02 -0.56544267087E+01  0.55117316502E+00  0.12659670736E+03  0.12500026850E+03 0.  0.
    9000005    1    3    3    0    0  0.46592135188E+02  0.36579532315E+02  0.31907997191E+02  0.67290486181E+02  0.10000000000E+01 0.  0.
    9000005    1    3    3    0    0 -0.27372799691E+02 -0.42233959023E+02 -0.31356824026E+02  0.59306221180E+02  0.10000000000E+01 0.  0.
         21    1    1    2  502  501 -0.19219335498E+02  0.56544267087E+01  0.26023361159E+02  0.32841600515E+02  0.00000000000E+00 0. -1.
<mgrwt>
<rscale>  1 0.12659551E+03</rscale>
<asrwt>0</asrwt>
<pdfrwt beam="1">  1        4 0.14308680E-01 0.12659551E+03</pdfrwt>
<pdfrwt beam="2">  1       -4 0.10220290E-01 0.12659551E+03</pdfrwt>
<totfact> 0.48059956E+03</totfact>
</mgrwt>
</event>
<event>
 6    4  0.5642870E-004  0.1279661E+03  0.7818608E-02  0.1230505E+00
         -4   -1    0    0    0  501 -0.00000000000E+00  0.00000000000E+00  0.12094001528E+04  0.12094008196E+04  0.12700000000E+01 0.  1.
          4   -1    0    0  502    0  0.00000000000E+00 -0.00000000000E+00 -0.51253144153E+01  0.52803170223E+01  0.12700000000E+01 0.  1.
         25    2    1    2    0    0 -0.16641312336E+02 -0.21789262410E+02  0.10708212819E+04  0.10784403316E+04  0.12499450274E+03 0.  0.
    9000005    1    3    3    0    0 -0.54810370153E+02 -0.35229683003E+02  0.32209252136E+03  0.32861816681E+03  0.10000000000E+01 0.  0.
    9000005    1    3    3    0    0  0.38169057817E+02  0.13440420593E+02  0.74872876058E+03  0.74982216479E+03  0.10000000000E+01 0.  0.
         21    1    1    2  502  501  0.16641312336E+02  0.21789262410E+02  0.13345355647E+03  0.13624080508E+03  0.00000000000E+00 0. -1.
<mgrwt>
<rscale>  1 0.12796613E+03</rscale>
<asrwt>0</asrwt>
<pdfrwt beam="2">  1        4 0.80048455E-03 0.12796613E+03</pdfrwt>
<pdfrwt beam="1">  1       -4 0.18607352E+00 0.12796613E+03</pdfrwt>
<totfact> 0.12068650E+03</totfact>
</mgrwt>
</event>
<event>
 6    4  0.5642870E-004  0.1302373E+03  0.7818608E-02  0.1227104E+00
         -4   -1    0    0    0  501 -0.00000000000E+00  0.00000000000E+00  0.82511965540E+02  0.82521738695E+02  0.12700000000E+01 0.  1.
          4   -1    0    0  502    0  0.00000000000E+00 -0.00000000000E+00 -0.92457140612E+02  0.92465862621E+02  0.12700000000E+01 0.  1.
         25    2    1    2    0    0  0.29838421640E+02  0.21130981462E+02  0.14445391629E+02  0.13103592868E+03  0.12499958193E+03 0.  0.
    9000005    1    3    3    0    0 -0.14034167526E+02 -0.21274673639E+02  0.53023700840E+02  0.58839463350E+02  0.10000000000E+01 0.  0.
    9000005    1    3    3    0    0  0.43872589166E+02  0.42405655100E+02 -0.38578309210E+02  0.72196465330E+02  0.10000000000E+01 0.  0.
         21    1    1    2  502  501 -0.29838421640E+02 -0.21130981462E+02 -0.24390566702E+02  0.43951672636E+02  0.00000000000E+00 0.  1.
<mgrwt>
<rscale>  1 0.13023727E+03</rscale>
<asrwt>0</asrwt>
<pdfrwt beam="2">  1        4 0.14225598E-01 0.13023727E+03</pdfrwt>
<pdfrwt beam="1">  1       -4 0.12695571E-01 0.13023727E+03</pdfrwt>
<totfact> 0.33806726E+03</totfact>
</mgrwt>
</event>
<event>
 6    4  0.5642870E-004  0.1266369E+03  0.7818608E-02  0.1232533E+00
          4   -1    0    0  502    0  0.00000000000E+00  0.00000000000E+00  0.35694191889E+01  0.37886215628E+01  0.12700000000E+01 0. -1.
         -4   -1    0    0    0  501 -0.00000000000E+00 -0.00000000000E+00 -0.14971266577E+04  0.14971271964E+04  0.12700000000E+01 0. -1.
         25    2    1    2    0    0 -0.19447779160E+02 -0.57943760062E+01 -0.12017649014E+04  0.12084187087E+04  0.12500042560E+03 0.  0.
    9000005    1    3    3    0    0  0.20861440748E+02 -0.37494243609E+02 -0.16844816518E+03  0.17382980863E+03  0.10000000000E+01 0.  0.
    9000005    1    3    3    0    0 -0.40309219908E+02  0.31699867603E+02 -0.10333167362E+04  0.10345889001E+04  0.10000000000E+01 0.  0.
         21    1    1    2  502  501  0.19447779160E+02  0.57943760062E+01 -0.29179233708E+03  0.29249710920E+03  0.00000000000E+00 0.  1.
<mgrwt>
<rscale>  1 0.12663687E+03</rscale>
<asrwt>0</asrwt>
<pdfrwt beam="1">  1        4 0.56604576E-03 0.12663687E+03</pdfrwt>
<pdfrwt beam="2">  1       -4 0.23034360E+00 0.12663687E+03</pdfrwt>
<totfact> 0.10828929E+03</totfact>
</mgrwt>
</event>
<event>
 6    4  0.5642870E-004  0.1267422E+03  0.7818608E-02  0.1232371E+00
          4   -1    0    0  502    0  0.00000000000E+00  0.00000000000E+00  0.16016770782E+02  0.16067042239E+02  0.12700000000E+01 0. -1.
         -4   -1    0    0    0  501 -0.00000000000E+00 -0.00000000000E+00 -0.48043762520E+03  0.48043930377E+03  0.12700000000E+01 0. -1.
         25    2    1    2    0    0  0.20380532530E+02 -0.48102298808E+01 -0.45706394727E+03  0.47431111002E+03  0.12500029113E+03 0.  0.
    9000005    1    3    3    0    0 -0.46330712153E+02  0.25930355255E+02 -0.17943260938E+03  0.18712557153E+03  0.10000000000E+01 0.  0.
    9000005    1    3    3    0    0  0.66711244683E+02 -0.30740585135E+02 -0.27763133789E+03  0.28718553849E+03  0.10000000000E+01 0.  0.
         21    1    1    2  502  501 -0.20380532530E+02  0.48102298808E+01 -0.73569071531E+01  0.22195235989E+02  0.00000000000E+00 0. -1.
<mgrwt>
<rscale>  1 0.12674217E+03</rscale>
<asrwt>0</asrwt>
<pdfrwt beam="1">  1        4 0.24681151E-02 0.12674217E+03</pdfrwt>
<pdfrwt beam="2">  1       -4 0.73917466E-01 0.12674217E+03</pdfrwt>
<totfact> 0.20114880E+03</totfact>
</mgrwt>
</event>
<event>
 6    4  0.5642870E-004  0.1267957E+03  0.7818608E-02  0.1232289E+00
         -4   -1    0    0    0  501 -0.00000000000E+00  0.00000000000E+00  0.13089835140E+04  0.13089841301E+04  0.12700000000E+01 0. -1.
          4   -1    0    0  502    0  0.00000000000E+00 -0.00000000000E+00 -0.44052683759E+01  0.45846798649E+01  0.12700000000E+01 0. -1.
         25    2    1    2    0    0 -0.20297495934E+02  0.63602416823E+01  0.12101514203E+04  0.12167759055E+04  0.12499881235E+03 0.  0.
    9000005    1    3    3    0    0  0.29169269591E+02  0.52324580532E+01  0.10154623898E+04  0.10158952160E+04  0.10000000000E+01 0.  0.
    9000005    1    3    3    0    0 -0.49466765525E+02  0.11277836291E+01  0.19468903054E+03  0.20088068947E+03  0.10000000000E+01 0.  0.
         21    1    1    2  502  501  0.20297495934E+02 -0.63602416823E+01  0.94426825304E+02  0.96792904453E+02  0.00000000000E+00 0. -1.
<mgrwt>
<rscale>  1 0.12679568E+03</rscale>
<asrwt>0</asrwt>
<pdfrwt beam="2">  1        4 0.69158172E-03 0.12679568E+03</pdfrwt>
<pdfrwt beam="1">  1       -4 0.20139597E+00 0.12679568E+03</pdfrwt>
<totfact> 0.11997898E+03</totfact>
</mgrwt>
</event>
<event>
 6    4  0.5642870E-004  0.1310704E+03  0.7818608E-02  0.1225876E+00
         -4   -1    0    0    0  501 -0.00000000000E+00  0.00000000000E+00  0.33988957459E+02  0.34012676007E+02  0.12700000000E+01 0.  1.
          4   -1    0    0  502    0  0.00000000000E+00 -0.00000000000E+00 -0.29627728913E+03  0.29628001106E+03  0.12700000000E+01 0.  1.
         25    2    1    2    0    0  0.22290050528E+02  0.32526072913E+02 -0.10443521172E+03  0.16758927823E+03  0.12499864382E+03 0.  0.
    9000005    1    3    3    0    0  0.12608595048E+02 -0.39994312751E+02 -0.80204052324E+02  0.90510837642E+02  0.10000000000E+01 0.  0.
    9000005    1    3    3    0    0  0.96814554802E+01  0.72520385664E+02 -0.24231159400E+02  0.77078440584E+02  0.10000000000E+01 0.  0.
         21    1    1    2  502  501 -0.22290050528E+02 -0.32526072913E+02 -0.15785311994E+03  0.16270340884E+03  0.00000000000E+00 0.  1.
<mgrwt>
<rscale>  1 0.13107041E+03</rscale>
<asrwt>0</asrwt>
<pdfrwt beam="2">  1        4 0.45583153E-01 0.13107041E+03</pdfrwt>
<pdfrwt beam="1">  1       -4 0.52311045E-02 0.13107041E+03</pdfrwt>
<totfact> 0.16981997E+03</totfact>
</mgrwt>
</event>
<event>
 6    4  0.5642870E-004  0.1271123E+03  0.7818608E-02  0.1231805E+00
          4   -1    0    0  502    0  0.00000000000E+00  0.00000000000E+00  0.10173547967E+03  0.10174340629E+03  0.12700000000E+01 0. -1.
         -4   -1    0    0    0  501 -0.00000000000E+00 -0.00000000000E+00 -0.56037126920E+02  0.56051516425E+02  0.12700000000E+01 0. -1.
         25    2    1    2    0    0 -0.20594229977E+02 -0.10388361654E+02  0.44575804250E+02  0.13470162323E+03  0.12500193842E+03 0.  0.
    9000005    1    3    3    0    0  0.27561219886E+02  0.30529027032E+02 -0.18769395598E+02  0.45220930378E+02  0.10000000000E+01 0.  0.
    9000005    1    3    3    0    0 -0.48155449864E+02 -0.40917388687E+02  0.63345199848E+02  0.89480692847E+02  0.10000000000E+01 0.  0.
         21    1    1    2  502  501  0.20594229977E+02  0.10388361654E+02  0.11225484990E+01  0.23093299490E+02  0.00000000000E+00 0. -1.
<mgrwt>
<rscale>  1 0.12711225E+03</rscale>
<asrwt>0</asrwt>
<pdfrwt beam="1">  1        4 0.15653329E-01 0.12711225E+03</pdfrwt>
<pdfrwt beam="2">  1       -4 0.86228131E-02 0.12711225E+03</pdfrwt>
<totfact> 0.54678988E+03</totfact>
</mgrwt>
</event>
<event>
 6    4  0.5642870E-004  0.1299338E+03  0.7818608E-02  0.1227554E+00
         -4   -1    0    0    0  501 -0.00000000000E+00  0.00000000000E+00  0.35200223930E+03  0.35200453033E+03  0.12700000000E+01 0.  1.
          4   -1    0    0  502    0  0.00000000000E+00 -0.00000000000E+00 -0.12243520703E+03  0.12244179360E+03  0.12700000000E+01 0.  1.
         25    2    1    2    0    0  0.35057843920E+02 -0.54794396605E+01  0.33706590731E+03  0.36124259248E+03  0.12499483218E+03 0.  0.
    9000005    1    3    3    0    0  0.33036292977E+02  0.42726218109E+02  0.28570602353E+03  0.29076770496E+03  0.10000000000E+01 0.  0.
    9000005    1    3    3    0    0  0.20215509429E+01 -0.48205657769E+02  0.51359883787E+02  0.70474887526E+02  0.10000000000E+01 0.  0.
         21    1    1    2  502  501 -0.35057843920E+02  0.54794396605E+01 -0.10749887504E+03  0.11320373145E+03  0.00000000000E+00 0.  1.
<mgrwt>
<rscale>  1 0.12993377E+03</rscale>
<asrwt>0</asrwt>
<pdfrwt beam="2">  1        4 0.18836869E-01 0.12993377E+03</pdfrwt>
<pdfrwt beam="1">  1       -4 0.54154873E-01 0.12993377E+03</pdfrwt>
<totfact> 0.13741702E+02</totfact>
</mgrwt>
</event>
<event>
 6    4  0.5642870E-004  0.1266173E+03  0.7818608E-02  0.1232563E+00
          4   -1    0    0  502    0  0.00000000000E+00  0.00000000000E+00  0.24900147113E+03  0.24900470984E+03  0.12700000000E+01 0. -1.
         -4   -1    0    0    0  501 -0.00000000000E+00 -0.00000000000E+00 -0.22109561259E+02  0.22146006390E+02  0.12700000000E+01 0. -1.
         25    2    1    2    0    0  0.56706009469E+01 -0.19409956799E+02  0.20782296787E+03  0.24335635193E+03  0.12499210340E+03 0.  0.
    9000005    1    3    3    0    0 -0.26659043619E+02 -0.65077849012E+02  0.10706787145E+03  0.12810292789E+03  0.10000000000E+01 0.  0.
    9000005    1    3    3    0    0  0.32329644566E+02  0.45667892213E+02  0.10075509642E+03  0.11525342403E+03  0.10000000000E+01 0.  0.
         21    1    1    2  502  501 -0.56706009469E+01  0.19409956799E+02  0.19068942000E+02  0.27794364304E+02  0.00000000000E+00 0. -1.
<mgrwt>
<rscale>  1 0.12661725E+03</rscale>
<asrwt>0</asrwt>
<pdfrwt beam="1">  1        4 0.38310970E-01 0.12661725E+03</pdfrwt>
<pdfrwt beam="2">  1       -4 0.34045237E-02 0.12661725E+03</pdfrwt>
<totfact> 0.47054177E+03</totfact>
</mgrwt>
</event>
<event>
 6    4  0.5642870E-004  0.1374803E+03  0.7818608E-02  0.1216760E+00
         -4   -1    0    0    0  501 -0.00000000000E+00  0.00000000000E+00  0.12807840560E+02  0.12870651880E+02  0.12700000000E+01 0.  1.
          4   -1    0    0  502    0  0.00000000000E+00 -0.00000000000E+00 -0.79201737941E+03  0.79201839763E+03  0.12700000000E+01 0.  1.
         25    2    1    2    0    0 -0.95402095790E+01  0.56428528174E+02 -0.44296527532E+03  0.46380929470E+03  0.12500252923E+03 0.  0.
    9000005    1    3    3    0    0  0.62744915305E+01  0.69899893402E+02 -0.11189626838E+03  0.13208761948E+03  0.10000000000E+01 0.  0.
    9000005    1    3    3    0    0 -0.15814701109E+02 -0.13471365228E+02 -0.33106900695E+03  0.33172167522E+03  0.10000000000E+01 0.  0.
         21    1    1    2  502  501  0.95402095790E+01 -0.56428528174E+02 -0.33624426353E+03  0.34107975482E+03  0.00000000000E+00 0.  1.
<mgrwt>
<rscale>  1 0.13748028E+03</rscale>
<asrwt>0</asrwt>
<pdfrwt beam="2">  1        4 0.12185370E+00 0.13748028E+03</pdfrwt>
<pdfrwt beam="1">  1       -4 0.19753476E-02 0.13748028E+03</pdfrwt>
<totfact> 0.92078028E+02</totfact>
</mgrwt>
</event>
<event>
 6    4  0.5642870E-004  0.1300849E+03  0.7818608E-02  0.1227330E+00
         -4   -1    0    0    0  501 -0.00000000000E+00  0.00000000000E+00  0.47820032505E+02  0.47836893803E+02  0.12700000000E+01 0. -1.
          4   -1    0    0  502    0  0.00000000000E+00 -0.00000000000E+00 -0.15919316165E+03  0.15919822743E+03  0.12700000000E+01 0. -1.
         25    2    1    2    0    0  0.35998513661E+02 -0.14622250763E+01 -0.57503101340E+02  0.14222762951E+03  0.12499624332E+03 0.  0.
    9000005    1    3    3    0    0  0.37689471528E+02  0.58722602517E+02 -0.33410307860E+02  0.77369819579E+02  0.10000000000E+01 0.  0.
    9000005    1    3    3    0    0 -0.16909578668E+01 -0.60184827593E+02 -0.24092793479E+02  0.64857809927E+02  0.10000000000E+01 0.  0.
         21    1    1    2  502  501 -0.35998513661E+02  0.14622250763E+01 -0.53870027808E+02  0.64807491727E+02  0.00000000000E+00 0. -1.
<mgrwt>
<rscale>  1 0.13008494E+03</rscale>
<asrwt>0</asrwt>
<pdfrwt beam="2">  1        4 0.24492942E-01 0.13008494E+03</pdfrwt>
<pdfrwt beam="1">  1       -4 0.73586149E-02 0.13008494E+03</pdfrwt>
<totfact> 0.32025275E+03</totfact>
</mgrwt>
</event>
<event>
 6    4  0.5642870E-004  0.1274490E+03  0.7818608E-02  0.1231291E+00
         -4   -1    0    0    0  501 -0.00000000000E+00  0.00000000000E+00  0.65672101067E+02  0.65684379867E+02  0.12700000000E+01 0.  1.
          4   -1    0    0  502    0  0.00000000000E+00 -0.00000000000E+00 -0.88337631958E+02  0.88346760665E+02  0.12700000000E+01 0.  1.
         25    2    1    2    0    0  0.16060222890E+02 -0.18972470657E+02 -0.17530821766E+02  0.12864904763E+03  0.12500144936E+03 0.  0.
    9000005    1    3    3    0    0  0.42490764487E+02 -0.12212414611E+02 -0.62188110001E+02  0.76308381996E+02  0.10000000000E+01 0.  0.
    9000005    1    3    3    0    0 -0.26430541597E+02 -0.67600560460E+01  0.44657288235E+02  0.52340665637E+02  0.10000000000E+01 0.  0.
         21    1    1    2  502  501 -0.16060222890E+02  0.18972470657E+02 -0.51347091249E+01  0.25382092899E+02  0.00000000000E+00 0.  1.
<mgrwt>
<rscale>  1 0.12744900E+03</rscale>
<asrwt>0</asrwt>
<pdfrwt beam="2">  1        4 0.13592052E-01 0.12744900E+03</pdfrwt>
<pdfrwt beam="1">  1       -4 0.10105047E-01 0.12744900E+03</pdfrwt>
<totfact> 0.53636343E+03</totfact>
</mgrwt>
</event>
<event>
 6    4  0.5642870E-004  0.1266617E+03  0.7818608E-02  0.1232495E+00
          4   -1    0    0  502    0  0.00000000000E+00  0.00000000000E+00  0.10899007003E+04  0.10899014403E+04  0.12700000000E+01 0. -1.
         -4   -1    0    0    0  501 -0.00000000000E+00 -0.00000000000E+00 -0.61519754565E+01  0.62816957916E+01  0.12700000000E+01 0. -1.
         25    2    1    2    0    0  0.14907657967E+02 -0.14015574750E+02  0.66623471291E+03  0.67816803490E+03  0.12499806509E+03 0.  0.
    9000005    1    3    3    0    0  0.53582841882E+02  0.32366116370E+02  0.25789603323E+03  0.26538660552E+03  0.10000000000E+01 0.  0.
    9000005    1    3    3    0    0 -0.38675183916E+02 -0.46381691120E+02  0.40833867968E+03  0.41278142939E+03  0.10000000000E+01 0.  0.
         21    1    1    2  502  501 -0.14907657967E+02  0.14015574750E+02  0.41751401198E+03  0.41801510116E+03  0.00000000000E+00 0.  1.
<mgrwt>
<rscale>  1 0.12666172E+03</rscale>
<asrwt>0</asrwt>
<pdfrwt beam="1">  1        4 0.16768695E+00 0.12666172E+03</pdfrwt>
<pdfrwt beam="2">  1       -4 0.95649381E-03 0.12666172E+03</pdfrwt>
<totfact> 0.12210638E+03</totfact>
</mgrwt>
</event>
<event>
 6    4  0.5642870E-004  0.1277377E+03  0.7818608E-02  0.1230852E+00
          4   -1    0    0  502    0  0.00000000000E+00  0.00000000000E+00  0.23594794318E+01  0.26795602604E+01  0.12700000000E+01 0.  1.
         -4   -1    0    0    0  501 -0.00000000000E+00 -0.00000000000E+00 -0.23587362134E+04  0.23587365553E+04  0.12700000000E+01 0.  1.
         25    2    1    2    0    0 -0.20630568694E+02 -0.16321116363E+02 -0.19913314576E+04  0.19954242399E+04  0.12499969680E+03 0.  0.
    9000005    1    3    3    0    0 -0.47301770185E+02 -0.37824198766E+02 -0.18018496651E+04  0.18028675334E+04  0.10000000000E+01 0.  0.
    9000005    1    3    3    0    0  0.26671201491E+02  0.21503082403E+02 -0.18948179249E+03  0.19255670652E+03  0.10000000000E+01 0.  0.
         21    1    1    2  502  501  0.20630568694E+02  0.16321116363E+02 -0.36504527640E+03  0.36599187563E+03  0.00000000000E+00 0. -1.
<mgrwt>
<rscale>  1 0.12773771E+03</rscale>
<asrwt>0</asrwt>
<pdfrwt beam="1">  1        4 0.38764662E-03 0.12773771E+03</pdfrwt>
<pdfrwt beam="2">  1       -4 0.36290538E+00 0.12773771E+03</pdfrwt>
<totfact> 0.31822550E+02</totfact>
</mgrwt>
</event>
<event>
 6    4  0.5642870E-004  0.1288815E+03  0.7818608E-02  0.1229125E+00
         -4   -1    0    0    0  501 -0.00000000000E+00  0.00000000000E+00  0.83781124543E+01  0.84738225315E+01  0.12700000000E+01 0.  1.
          4   -1    0    0  502    0  0.00000000000E+00 -0.00000000000E+00 -0.79848325607E+03  0.79848426604E+03  0.12700000000E+01 0.  1.
         25    2    1    2    0    0  0.12005646454E+02  0.28997768941E+02 -0.55502984915E+03  0.56979696145E+03  0.12500175073E+03 0.  0.
    9000005    1    3    3    0    0 -0.39270283808E+02  0.32958956361E+02 -0.44931831698E+03  0.45223489247E+03  0.10000000000E+01 0.  0.
    9000005    1    3    3    0    0  0.51275930262E+02 -0.39611874199E+01 -0.10571153217E+03  0.11756206899E+03  0.10000000000E+01 0.  0.
         21    1    1    2  502  501 -0.12005646454E+02 -0.28997768941E+02 -0.23507529446E+03  0.23716112712E+03  0.00000000000E+00 0.  1.
<mgrwt>
<rscale>  1 0.12888151E+03</rscale>
<asrwt>0</asrwt>
<pdfrwt beam="2">  1        4 0.12285096E+00 0.12888151E+03</pdfrwt>
<pdfrwt beam="1">  1       -4 0.12963810E-02 0.12888151E+03</pdfrwt>
<totfact> 0.16947612E+03</totfact>
</mgrwt>
</event>
<event>
 6    4  0.5642870E-004  0.1285566E+03  0.7818608E-02  0.1229613E+00
          4   -1    0    0  502    0  0.00000000000E+00  0.00000000000E+00  0.32144590580E+03  0.32144841461E+03  0.12700000000E+01 0.  1.
         -4   -1    0    0    0  501 -0.00000000000E+00 -0.00000000000E+00 -0.20069455572E+02  0.20109598378E+02  0.12700000000E+01 0.  1.
         25    2    1    2    0    0  0.86556853745E+01  0.28745117003E+02  0.26384221788E+03  0.29349533268E+03  0.12500236688E+03 0.  0.
    9000005    1    3    3    0    0  0.29190111396E+02  0.33315039172E+02  0.19769814918E+02  0.48515976959E+02  0.10000000000E+01 0.  0.
    9000005    1    3    3    0    0 -0.20534426022E+02 -0.45699221691E+01  0.24407240296E+03  0.24497935572E+03  0.10000000000E+01 0.  0.
         21    1    1    2  502  501 -0.86556853745E+01 -0.28745117003E+02  0.37534232350E+02  0.48062680314E+02  0.00000000000E+00 0.  1.
<mgrwt>
<rscale>  1 0.12855658E+03</rscale>
<asrwt>0</asrwt>
<pdfrwt beam="1">  1        4 0.49456495E-01 0.12855658E+03</pdfrwt>
<pdfrwt beam="2">  1       -4 0.30908896E-02 0.12855658E+03</pdfrwt>
<totfact> 0.33063081E+03</totfact>
</mgrwt>
</event>
<event>
 6    4  0.5642870E-004  0.1266787E+03  0.7818608E-02  0.1232469E+00
          4   -1    0    0  502    0  0.00000000000E+00  0.00000000000E+00  0.27752201177E+03  0.27752491765E+03  0.12700000000E+01 0. -1.
         -4   -1    0    0    0  501 -0.00000000000E+00 -0.00000000000E+00 -0.19512529934E+02  0.19553816109E+02  0.12700000000E+01 0. -1.
         25    2    1    2    0    0 -0.90010299102E+01  0.18460346846E+02  0.21932154058E+03  0.25327736684E+03  0.12500273376E+03 0.  0.
    9000005    1    3    3    0    0 -0.26641427017E+02 -0.37757730269E+02  0.30262186388E+02  0.55246825732E+02  0.10000000000E+01 0.  0.
    9000005    1    3    3    0    0  0.17640397107E+02  0.56218077115E+02  0.18905935419E+03  0.19803054111E+03  0.10000000000E+01 0.  0.
         21    1    1    2  502  501  0.90010299102E+01 -0.18460346846E+02  0.38687941254E+02  0.43801366915E+02  0.00000000000E+00 0. -1.
<mgrwt>
<rscale>  1 0.12667867E+03</rscale>
<asrwt>0</asrwt>
<pdfrwt beam="1">  1        4 0.42699090E-01 0.12667867E+03</pdfrwt>
<pdfrwt beam="2">  1       -4 0.30053273E-02 0.12667867E+03</pdfrwt>
<totfact> 0.46231467E+03</totfact>
</mgrwt>
</event>
<event>
 6    4  0.5642870E-004  0.1273045E+03  0.7818608E-02  0.1231511E+00
          4   -1    0    0  502    0  0.00000000000E+00  0.00000000000E+00  0.32173967091E+03  0.32174217743E+03  0.12700000000E+01 0.  1.
         -4   -1    0    0    0  501 -0.00000000000E+00 -0.00000000000E+00 -0.17891732202E+02  0.17936749460E+02  0.12700000000E+01 0.  1.
         25    2    1    2    0    0  0.16434121120E+02 -0.17614321952E+02  0.24524897640E+03  0.27632134599E+03  0.12500432451E+03 0.  0.
    9000005    1    3    3    0    0 -0.40191246264E+02 -0.43551999708E+02  0.78833783665E+02  0.98630007613E+02  0.10000000000E+01 0.  0.
    9000005    1    3    3    0    0  0.56625367383E+02  0.25937677756E+02  0.16641519274E+03  0.17769133837E+03  0.10000000000E+01 0.  0.
         21    1    1    2  502  501 -0.16434121120E+02  0.17614321952E+02  0.58598962306E+02  0.63357580905E+02  0.00000000000E+00 0.  1.
<mgrwt>
<rscale>  1 0.12730446E+03</rscale>
<asrwt>0</asrwt>
<pdfrwt beam="1">  1        4 0.49502065E-01 0.12730446E+03</pdfrwt>
<pdfrwt beam="2">  1       -4 0.27562299E-02 0.12730446E+03</pdfrwt>
<totfact> 0.39378466E+03</totfact>
</mgrwt>
</event>
<event>
 6    4  0.5642870E-004  0.1268483E+03  0.7818608E-02  0.1232209E+00
          4   -1    0    0  502    0  0.00000000000E+00  0.00000000000E+00  0.61548856730E+03  0.61548987756E+03  0.12700000000E+01 0. -1.
         -4   -1    0    0    0  501 -0.00000000000E+00 -0.00000000000E+00 -0.89837249033E+01  0.90730487235E+01  0.12700000000E+01 0. -1.
         25    2    1    2    0    0  0.21497020084E+02  0.17775653000E+01  0.49528689677E+03  0.51127253375E+03  0.12500084817E+03 0.  0.
    9000005    1    3    3    0    0  0.44537379639E+02 -0.12714939633E+02  0.47514077117E+03  0.47739396760E+03  0.10000000000E+01 0.  0.
    9000005    1    3    3    0    0 -0.23040359555E+02  0.14492504933E+02  0.20146125608E+02  0.33878566154E+02  0.10000000000E+01 0.  0.
         21    1    1    2  502  501 -0.21497020084E+02 -0.17775653000E+01  0.11121794562E+03  0.11329039253E+03  0.00000000000E+00 0.  1.
<mgrwt>
<rscale>  1 0.12684831E+03</rscale>
<asrwt>0</asrwt>
<pdfrwt beam="1">  1        4 0.94697511E-01 0.12684831E+03</pdfrwt>
<pdfrwt beam="2">  1       -4 0.13890835E-02 0.12684831E+03</pdfrwt>
<totfact> 0.27996879E+03</totfact>
</mgrwt>
</event>
<event>
 6    4  0.5642870E-004  0.1272923E+03  0.7818608E-02  0.1231530E+00
         -4   -1    0    0    0  501 -0.00000000000E+00  0.00000000000E+00  0.52534511317E+01  0.54047801799E+01  0.12700000000E+01 0. -1.
          4   -1    0    0  502    0  0.00000000000E+00 -0.00000000000E+00 -0.13353746922E+04  0.13353752961E+04  0.12700000000E+01 0. -1.
         25    2    1    2    0    0  0.47939402585E+01  0.23544494311E+02 -0.79557233306E+03  0.80569142931E+03  0.12500406817E+03 0.  0.
    9000005    1    3    3    0    0  0.38780404675E+01  0.74535991850E+02 -0.40736747697E+03  0.41414962825E+03  0.10000000000E+01 0.  0.
    9000005    1    3    3    0    0  0.91589979106E+00 -0.50991497540E+02 -0.38820485609E+03  0.39154180107E+03  0.10000000000E+01 0.  0.
         21    1    1    2  502  501 -0.47939402585E+01 -0.23544494311E+02 -0.53454890797E+03  0.53508864694E+03  0.00000000000E+00 0. -1.
<mgrwt>
<rscale>  1 0.12729235E+03</rscale>
<asrwt>0</asrwt>
<pdfrwt beam="2">  1        4 0.20545368E+00 0.12729235E+03</pdfrwt>
<pdfrwt beam="1">  1       -4 0.81991147E-03 0.12729235E+03</pdfrwt>
<totfact> 0.87948071E+02</totfact>
</mgrwt>
</event>
<event>
 6    4  0.5642870E-004  0.1380806E+03  0.7818608E-02  0.1215935E+00
          4   -1    0    0  502    0  0.00000000000E+00  0.00000000000E+00  0.80390254583E+02  0.80400285645E+02  0.12700000000E+01 0. -1.
         -4   -1    0    0    0  501 -0.00000000000E+00 -0.00000000000E+00 -0.19432210402E+03  0.19432625404E+03  0.12700000000E+01 0. -1.
         25    2    1    2    0    0  0.31672929954E+01  0.58580833617E+02 -0.15156106779E+03  0.20502930957E+03  0.12499805879E+03 0.  0.
    9000005    1    3    3    0    0 -0.14384177546E+02  0.90962540403E+02 -0.70490665581E+02  0.11597854222E+03  0.10000000000E+01 0.  0.
    9000005    1    3    3    0    0  0.17551470541E+02 -0.32381706786E+02 -0.81070402209E+02  0.89050767357E+02  0.10000000000E+01 0.  0.
         21    1    1    2  502  501 -0.31672929954E+01 -0.58580833617E+02  0.37629218352E+02  0.69697230117E+02  0.00000000000E+00 0. -1.
<mgrwt>
<rscale>  1 0.13808063E+03</rscale>
<asrwt>0</asrwt>
<pdfrwt beam="1">  1        4 0.12368822E-01 0.13808063E+03</pdfrwt>
<pdfrwt beam="2">  1       -4 0.29896799E-01 0.13808063E+03</pdfrwt>
<totfact> 0.93569211E+02</totfact>
</mgrwt>
</event>
<event>
 6    4  0.5642870E-004  0.1327621E+03  0.7818608E-02  0.1223414E+00
          4   -1    0    0  502    0  0.00000000000E+00  0.00000000000E+00  0.13002913059E+02  0.13064786566E+02  0.12700000000E+01 0. -1.
         -4   -1    0    0    0  501 -0.00000000000E+00 -0.00000000000E+00 -0.62318397347E+03  0.62318526754E+03  0.12700000000E+01 0. -1.
         25    2    1    2    0    0 -0.43562076953E+02  0.10153148263E+02 -0.50025362333E+03  0.51757072823E+03  0.12500012041E+03 0.  0.
    9000005    1    3    3    0    0  0.67881369352E+01  0.27171703266E+02 -0.20109841973E+02  0.34493274788E+02  0.10000000000E+01 0.  0.
    9000005    1    3    3    0    0 -0.50350213888E+02 -0.17018555002E+02 -0.48014378135E+03  0.48307745344E+03  0.10000000000E+01 0.  0.
         21    1    1    2  502  501  0.43562076953E+02 -0.10153148263E+02 -0.10992743708E+03  0.11867932588E+03  0.00000000000E+00 0. -1.
<mgrwt>
<rscale>  1 0.13276208E+03</rscale>
<asrwt>0</asrwt>
<pdfrwt beam="1">  1        4 0.20053077E-02 0.13276208E+03</pdfrwt>
<pdfrwt beam="2">  1       -4 0.95879294E-01 0.13276208E+03</pdfrwt>
<totfact> 0.15687405E+03</totfact>
</mgrwt>
</event>
<event>
 6    4  0.5642870E-004  0.1300029E+03  0.7818608E-02  0.1227451E+00
         -4   -1    0    0    0  501 -0.00000000000E+00  0.00000000000E+00  0.64647625610E+02  0.64660098956E+02  0.12700000000E+01 0. -1.
          4   -1    0    0  502    0  0.00000000000E+00 -0.00000000000E+00 -0.10623071039E+03  0.10623830162E+03  0.12700000000E+01 0. -1.
         25    2    1    2    0    0  0.31955820177E+02 -0.15918795371E+02 -0.34475342815E+02  0.13449644341E+03  0.12500464607E+03 0.  0.
    9000005    1    3    3    0    0  0.28866834106E+02 -0.83596756942E+01  0.45259755123E+02  0.54338050414E+02  0.10000000000E+01 0.  0.
    9000005    1    3    3    0    0  0.30889860703E+01 -0.75591196768E+01 -0.79735097938E+02  0.80158393001E+02  0.10000000000E+01 0.  0.
         21    1    1    2  502  501 -0.31955820177E+02  0.15918795371E+02 -0.71077419696E+01  0.36401957161E+02  0.00000000000E+00 0. -1.
<mgrwt>
<rscale>  1 0.13000286E+03</rscale>
<asrwt>0</asrwt>
<pdfrwt beam="2">  1        4 0.16344730E-01 0.13000286E+03</pdfrwt>
<pdfrwt beam="1">  1       -4 0.99473320E-02 0.13000286E+03</pdfrwt>
<totfact> 0.40133138E+03</totfact>
</mgrwt>
</event>
<event>
 6    4  0.5642870E-004  0.1272904E+03  0.7818608E-02  0.1231533E+00
          4   -1    0    0  502    0  0.00000000000E+00  0.00000000000E+00  0.75351234484E+02  0.75361936269E+02  0.12700000000E+01 0.  1.
         -4   -1    0    0    0  501 -0.00000000000E+00 -0.00000000000E+00 -0.78290742425E+02  0.78301042455E+02  0.12700000000E+01 0.  1.
         25    2    1    2    0    0  0.19758782098E+02  0.13676315769E+02 -0.12279810210E+02  0.12788135097E+03  0.12500158041E+03 0.  0.
    9000005    1    3    3    0    0  0.23478617126E+02  0.21064319562E+02  0.53209379394E+02  0.61864279486E+02  0.10000000000E+01 0.  0.
    9000005    1    3    3    0    0 -0.37198350282E+01 -0.73880037937E+01 -0.65489189605E+02  0.66017071487E+02  0.10000000000E+01 0.  0.
         21    1    1    2  502  501 -0.19758782098E+02 -0.13676315769E+02  0.93403022687E+01  0.25781627751E+02  0.00000000000E+00 0.  1.
<mgrwt>
<rscale>  1 0.12729040E+03</rscale>
<asrwt>0</asrwt>
<pdfrwt beam="1">  1        4 0.11594113E-01 0.12729040E+03</pdfrwt>
<pdfrwt beam="2">  1       -4 0.12046345E-01 0.12729040E+03</pdfrwt>
<totfact> 0.52275465E+03</totfact>
</mgrwt>
</event>
<event>
 6    4  0.5642870E-004  0.1275619E+03  0.7818608E-02  0.1231119E+00
          4   -1    0    0  502    0  0.00000000000E+00  0.00000000000E+00  0.18506464712E+03  0.18506900474E+03  0.12700000000E+01 0.  1.
         -4   -1    0    0    0  501 -0.00000000000E+00 -0.00000000000E+00 -0.33691094495E+02  0.33715022591E+02  0.12700000000E+01 0.  1.
         25    2    1    2    0    0 -0.57942564295E+01  0.24777849468E+02  0.10233876461E+03  0.16353979082E+03  0.12499810081E+03 0.  0.
    9000005    1    3    3    0    0 -0.40942571670E+01 -0.37884329858E+02  0.92542974006E+02  0.10008590025E+03  0.10000000000E+01 0.  0.
    9000005    1    3    3    0    0 -0.16999992625E+01  0.62662179325E+02  0.97957906082E+01  0.63453890574E+02  0.10000000000E+01 0.  0.
         21    1    1    2  502  501  0.57942564295E+01 -0.24777849468E+02  0.49034788015E+02  0.55244236509E+02  0.00000000000E+00 0.  1.
<mgrwt>
<rscale>  1 0.12756191E+03</rscale>
<asrwt>0</asrwt>
<pdfrwt beam="1">  1        4 0.28473660E-01 0.12756191E+03</pdfrwt>
<pdfrwt beam="2">  1       -4 0.51854211E-02 0.12756191E+03</pdfrwt>
<totfact> 0.42583243E+03</totfact>
</mgrwt>
</event>
<event>
 6    4  0.5642870E-004  0.1356036E+03  0.7818608E-02  0.1219370E+00
         -4   -1    0    0    0  501 -0.00000000000E+00  0.00000000000E+00  0.53402739438E+02  0.53417838589E+02  0.12700000000E+01 0. -1.
          4   -1    0    0  502    0  0.00000000000E+00 -0.00000000000E+00 -0.16728454408E+03  0.16728936484E+03  0.12700000000E+01 0. -1.
         25    2    1    2    0    0 -0.17924051670E+01 -0.52510781805E+02 -0.72110646525E+02  0.15358474390E+03  0.12501093270E+03 0.  0.
    9000005    1    3    3    0    0 -0.54919036240E+02 -0.38323092261E+02 -0.54966593852E+01  0.67200991111E+02  0.10000000000E+01 0.  0.
    9000005    1    3    3    0    0  0.53126631073E+02 -0.14187689544E+02 -0.66613987140E+02  0.86383752792E+02  0.10000000000E+01 0.  0.
         21    1    1    2  502  501  0.17924051670E+01  0.52510781805E+02 -0.41771158114E+02  0.67122459521E+02  0.00000000000E+00 0. -1.
<mgrwt>
<rscale>  1 0.13560357E+03</rscale>
<asrwt>0</asrwt>
<pdfrwt beam="2">  1        4 0.25737616E-01 0.13560357E+03</pdfrwt>
<pdfrwt beam="1">  1       -4 0.82173384E-02 0.13560357E+03</pdfrwt>
<totfact> 0.24588461E+03</totfact>
</mgrwt>
</event>
<event>
 6    4  0.5642870E-004  0.1309626E+03  0.7818608E-02  0.1226034E+00
          4   -1    0    0  502    0  0.00000000000E+00  0.00000000000E+00  0.42057958227E+03  0.42058149974E+03  0.12700000000E+01 0. -1.
         -4   -1    0    0    0  501 -0.00000000000E+00 -0.00000000000E+00 -0.25458105265E+02  0.25489763116E+02  0.12700000000E+01 0. -1.
         25    2    1    2    0    0  0.39064950361E+02 -0.28752127400E+00  0.15556849037E+03  0.20335375953E+03  0.12500017321E+03 0.  0.
    9000005    1    3    3    0    0  0.12201186811E+02  0.54097536509E+02  0.28082985425E+02  0.62169658889E+02  0.10000000000E+01 0.  0.
    9000005    1    3    3    0    0  0.26863763550E+02 -0.54385057783E+02  0.12748550495E+03  0.14118410064E+03  0.10000000000E+01 0.  0.
         21    1    1    2  502  501 -0.39064950361E+02  0.28752127400E+00  0.23955298663E+03  0.24271750332E+03  0.00000000000E+00 0. -1.
<mgrwt>
<rscale>  1 0.13096258E+03</rscale>
<asrwt>0</asrwt>
<pdfrwt beam="1">  1        4 0.64707128E-01 0.13096258E+03</pdfrwt>
<pdfrwt beam="2">  1       -4 0.39192147E-02 0.13096258E+03</pdfrwt>
<totfact> 0.13068003E+03</totfact>
</mgrwt>
</event>
<event>
 6    4  0.5642870E-004  0.1293642E+03  0.7818608E-02  0.1228402E+00
          4   -1    0    0  502    0  0.00000000000E+00  0.00000000000E+00  0.24098436537E+02  0.24131878160E+02  0.12700000000E+01 0. -1.
         -4   -1    0    0    0  501 -0.00000000000E+00 -0.00000000000E+00 -0.27971182401E+03  0.27971470714E+03  0.12700000000E+01 0. -1.
         25    2    1    2    0    0 -0.26261588678E+02 -0.20501938892E+02 -0.18471139758E+03  0.22550698670E+03  0.12500040046E+03 0.  0.
    9000005    1    3    3    0    0  0.14327719819E+02 -0.64788897029E+02 -0.12053349387E+03  0.13759435990E+03  0.10000000000E+01 0.  0.
    9000005    1    3    3    0    0 -0.40589308497E+02  0.44286958137E+02 -0.64177903715E+02  0.87912626798E+02  0.10000000000E+01 0.  0.
         21    1    1    2  502  501  0.26261588678E+02  0.20501938892E+02 -0.70901989888E+02  0.78339598597E+02  0.00000000000E+00 0. -1.
<mgrwt>
<rscale>  1 0.12936422E+03</rscale>
<asrwt>0</asrwt>
<pdfrwt beam="1">  1        4 0.37102462E-02 0.12936422E+03</pdfrwt>
<pdfrwt beam="2">  1       -4 0.43035380E-01 0.12936422E+03</pdfrwt>
<totfact> 0.32849035E+03</totfact>
</mgrwt>
</event>
<event>
 6    4  0.5642870E-004  0.1352255E+03  0.7818608E-02  0.1219902E+00
         -4   -1    0    0    0  501 -0.00000000000E+00  0.00000000000E+00  0.11355789777E+03  0.11356499921E+03  0.12700000000E+01 0. -1.
          4   -1    0    0  502    0  0.00000000000E+00 -0.00000000000E+00 -0.80531371921E+02  0.80541385408E+02  0.12700000000E+01 0. -1.
         25    2    1    2    0    0 -0.42266633484E+02 -0.29557618261E+02  0.42333422239E+02  0.14169703981E+03  0.12500324535E+03 0.  0.
    9000005    1    3    3    0    0  0.44208649309E+02 -0.61276736939E+01  0.22228079507E+02  0.49870237388E+02  0.10000000000E+01 0.  0.
    9000005    1    3    3    0    0 -0.86475282793E+02 -0.23429944568E+02  0.20105342732E+02  0.91826802421E+02  0.10000000000E+01 0.  0.
         21    1    1    2  502  501  0.42266633484E+02  0.29557618261E+02 -0.93068963871E+01  0.52409344813E+02  0.00000000000E+00 0. -1.
<mgrwt>
<rscale>  1 0.13522549E+03</rscale>
<asrwt>0</asrwt>
<pdfrwt beam="2">  1        4 0.12390758E-01 0.13522549E+03</pdfrwt>
<pdfrwt beam="1">  1       -4 0.17471762E-01 0.13522549E+03</pdfrwt>
<totfact> 0.24795517E+03</totfact>
</mgrwt>
</event>
<event>
 6    4  0.5642870E-004  0.1310372E+03  0.7818608E-02  0.1225925E+00
          4   -1    0    0  502    0  0.00000000000E+00  0.00000000000E+00  0.27925013066E+02  0.27953877276E+02  0.12700000000E+01 0. -1.
         -4   -1    0    0    0  501 -0.00000000000E+00 -0.00000000000E+00 -0.51609674379E+03  0.51609830638E+03  0.12700000000E+01 0. -1.
         25    2    1    2    0    0  0.38688239203E+02 -0.69687635551E+01 -0.48742790012E+03  0.50473428948E+03  0.12500160657E+03 0.  0.
    9000005    1    3    3    0    0  0.74467354329E+02 -0.50499176739E+01 -0.17497129560E+03  0.19022839644E+03  0.10000000000E+01 0.  0.
    9000005    1    3    3    0    0 -0.35779115126E+02 -0.19188458812E+01 -0.31245660452E+03  0.31450589304E+03  0.10000000000E+01 0.  0.
         21    1    1    2  502  501 -0.38688239203E+02  0.69687635551E+01 -0.74383059948E+00  0.39317894171E+02  0.00000000000E+00 0. -1.
<mgrwt>
<rscale>  1 0.13103719E+03</rscale>
<asrwt>0</asrwt>
<pdfrwt beam="1">  1        4 0.42984968E-02 0.13103719E+03</pdfrwt>
<pdfrwt beam="2">  1       -4 0.79401833E-01 0.13103719E+03</pdfrwt>
<totfact> 0.72451222E+02</totfact>
</mgrwt>
</event>
<event>
 6    4  0.5642870E-004  0.1282573E+03  0.7818608E-02  0.1230065E+00
          4   -1    0    0  502    0  0.00000000000E+00  0.00000000000E+00  0.60356912443E+02  0.60370272317E+02  0.12700000000E+01 0.  1.
         -4   -1    0    0    0  501 -0.00000000000E+00 -0.00000000000E+00 -0.10409309856E+03  0.10410084567E+03  0.12700000000E+01 0.  1.
         25    2    1    2    0    0 -0.21948199338E+02 -0.18531332667E+02 -0.44437664600E+02  0.13573741275E+03  0.12499922175E+03 0.  0.
    9000005    1    3    3    0    0  0.42846233305E+02  0.69716455785E+01  0.13152569483E+02  0.45369523190E+02  0.10000000000E+01 0.  0.
    9000005    1    3    3    0    0 -0.64794432643E+02 -0.25502978246E+02 -0.57590234082E+02  0.90367889555E+02  0.10000000000E+01 0.  0.
         21    1    1    2  502  501  0.21948199338E+02  0.18531332667E+02  0.70147848017E+00  0.28733705237E+02  0.00000000000E+00 0. -1.
<mgrwt>
<rscale>  1 0.12825732E+03</rscale>
<asrwt>0</asrwt>
<pdfrwt beam="1">  1        4 0.92873024E-02 0.12825732E+03</pdfrwt>
<pdfrwt beam="2">  1       -4 0.16015946E-01 0.12825732E+03</pdfrwt>
<totfact> 0.46513871E+03</totfact>
</mgrwt>
</event>
<event>
 6    4  0.5642870E-004  0.1273472E+03  0.7818608E-02  0.1231446E+00
         -4   -1    0    0    0  501 -0.00000000000E+00  0.00000000000E+00  0.18536759904E+02  0.18580214416E+02  0.12700000000E+01 0.  1.
          4   -1    0    0  502    0  0.00000000000E+00 -0.00000000000E+00 -0.82177587077E+03  0.82177685212E+03  0.12700000000E+01 0.  1.
         25    2    1    2    0    0 -0.14182425891E+02 -0.19793225756E+02 -0.20308969063E+03  0.23971387828E+03  0.12499763201E+03 0.  0.
    9000005    1    3    3    0    0 -0.35450727294E+02  0.38867880822E+02 -0.43205265983E+02  0.68082018433E+02  0.10000000000E+01 0.  0.
    9000005    1    3    3    0    0  0.21268301403E+02 -0.58661106577E+02 -0.15988442465E+03  0.17163185985E+03  0.10000000000E+01 0.  0.
         21    1    1    2  502  501  0.14182425891E+02  0.19793225756E+02 -0.60014942024E+03  0.60064318826E+03  0.00000000000E+00 0.  1.
<mgrwt>
<rscale>  1 0.12734725E+03</rscale>
<asrwt>0</asrwt>
<pdfrwt beam="2">  1        4 0.12643045E+00 0.12734725E+03</pdfrwt>
<pdfrwt beam="1">  1       -4 0.28552280E-02 0.12734725E+03</pdfrwt>
<totfact> 0.46850806E+02</totfact>
</mgrwt>
</event>
<event>
 6    4  0.5642870E-004  0.1275936E+03  0.7818608E-02  0.1231071E+00
          4   -1    0    0  502    0  0.00000000000E+00  0.00000000000E+00  0.19312625788E+03  0.19313043360E+03  0.12700000000E+01 0.  1.
         -4   -1    0    0    0  501 -0.00000000000E+00 -0.00000000000E+00 -0.41152254576E+02  0.41171846651E+02  0.12700000000E+01 0.  1.
         25    2    1    2    0    0 -0.11783823485E+02  0.22699295634E+02  0.64115351388E+02  0.14279676547E+03  0.12500408565E+03 0.  0.
    9000005    1    3    3    0    0 -0.26585310945E+02 -0.36336907798E+02  0.68267281104E+02  0.81783686000E+02  0.10000000000E+01 0.  0.
    9000005    1    3    3    0    0  0.14801487460E+02  0.59036203431E+02 -0.41519297159E+01  0.61013079475E+02  0.10000000000E+01 0.  0.
         21    1    1    2  502  501  0.11783823485E+02 -0.22699295634E+02  0.87858651912E+02  0.91505514774E+02  0.00000000000E+00 0.  1.
<mgrwt>
<rscale>  1 0.12759364E+03</rscale>
<asrwt>0</asrwt>
<pdfrwt beam="1">  1        4 0.29713560E-01 0.12759364E+03</pdfrwt>
<pdfrwt beam="2">  1       -4 0.63329445E-02 0.12759364E+03</pdfrwt>
<totfact> 0.28440844E+03</totfact>
</mgrwt>
</event>
<event>
 6    4  0.5642870E-004  0.1278764E+03  0.7818608E-02  0.1230641E+00
         -4   -1    0    0    0  501 -0.00000000000E+00  0.00000000000E+00  0.10523690459E+02  0.10600045324E+02  0.12700000000E+01 0.  1.
          4   -1    0    0  502    0  0.00000000000E+00 -0.00000000000E+00 -0.56722797749E+03  0.56722939923E+03  0.12700000000E+01 0.  1.
         25    2    1    2    0    0 -0.24308614672E+02  0.11603404754E+02 -0.46066637303E+03  0.47808562933E+03  0.12500725572E+03 0.  0.
    9000005    1    3    3    0    0 -0.96168700157E+01  0.63966796360E+02 -0.16080392821E+03  0.17332956630E+03  0.10000000000E+01 0.  0.
    9000005    1    3    3    0    0 -0.14691744656E+02 -0.52363391606E+02 -0.29986244482E+03  0.30475606303E+03  0.10000000000E+01 0.  0.
         21    1    1    2  502  501  0.24308614672E+02 -0.11603404754E+02 -0.96037914003E+02  0.99743815223E+02  0.00000000000E+00 0.  1.
<mgrwt>
<rscale>  1 0.12787635E+03</rscale>
<asrwt>0</asrwt>
<pdfrwt beam="2">  1        4 0.87271802E-01 0.12787635E+03</pdfrwt>
<pdfrwt beam="1">  1       -4 0.16250126E-02 0.12787635E+03</pdfrwt>
<totfact> 0.26568647E+03</totfact>
</mgrwt>
</event>
<event>
 6    4  0.5642870E-004  0.1283647E+03  0.7818608E-02  0.1229903E+00
         -4   -1    0    0    0  501 -0.00000000000E+00  0.00000000000E+00  0.11004431400E+03  0.11005164216E+03  0.12700000000E+01 0.  1.
          4   -1    0    0  502    0  0.00000000000E+00 -0.00000000000E+00 -0.56396861418E+02  0.56411159161E+02  0.12700000000E+01 0.  1.
         25    2    1    2    0    0  0.74340896667E+01 -0.28238231355E+02  0.42779682188E+02  0.13530558976E+03  0.12499935205E+03 0.  0.
    9000005    1    3    3    0    0  0.37807163388E+02 -0.25639893435E+02 -0.31170985575E+02  0.55311988579E+02  0.10000000000E+01 0.  0.
    9000005    1    3    3    0    0 -0.30373073721E+02 -0.25983379204E+01  0.73950667763E+02  0.79993601180E+02  0.10000000000E+01 0.  0.
         21    1    1    2  502  501 -0.74340896667E+01  0.28238231355E+02  0.10867770389E+02  0.31157211564E+02  0.00000000000E+00 0. -1.
<mgrwt>
<rscale>  1 0.12836472E+03</rscale>
<asrwt>0</asrwt>
<pdfrwt beam="2">  1        4 0.86781037E-02 0.12836472E+03</pdfrwt>
<pdfrwt beam="1">  1       -4 0.16931558E-01 0.12836472E+03</pdfrwt>
<totfact> 0.47244673E+03</totfact>
</mgrwt>
</event>
<event>
 6    4  0.5642870E-004  0.1323625E+03  0.7818608E-02  0.1223992E+00
          4   -1    0    0  502    0  0.00000000000E+00  0.00000000000E+00  0.34819999236E+02  0.34843152079E+02  0.12700000000E+01 0. -1.
         -4   -1    0    0    0  501 -0.00000000000E+00 -0.00000000000E+00 -0.22753651868E+03  0.22754006292E+03  0.12700000000E+01 0. -1.
         25    2    1    2    0    0 -0.32068998283E+02  0.29521200027E+02 -0.12637793647E+03  0.18300608043E+03  0.12497968133E+03 0.  0.
    9000005    1    3    3    0    0 -0.73734903125E+02  0.29626983442E+02 -0.11502717477E+03  0.13981003191E+03  0.10000000000E+01 0.  0.
    9000005    1    3    3    0    0  0.41665904842E+02 -0.10578341482E+00 -0.11350761705E+02  0.43196048520E+02  0.10000000000E+01 0.  0.
         21    1    1    2  502  501  0.32068998283E+02 -0.29521200027E+02 -0.66338582969E+02  0.79377134568E+02  0.00000000000E+00 0. -1.
<mgrwt>
<rscale>  1 0.13236254E+03</rscale>
<asrwt>0</asrwt>
<pdfrwt beam="1">  1        4 0.53589767E-02 0.13236254E+03</pdfrwt>
<pdfrwt beam="2">  1       -4 0.35007671E-01 0.13236254E+03</pdfrwt>
<totfact> 0.27512051E+03</totfact>
</mgrwt>
</event>
<event>
 6    4  0.5642870E-004  0.1317197E+03  0.7818608E-02  0.1224926E+00
          4   -1    0    0  502    0  0.00000000000E+00  0.00000000000E+00  0.16860392707E+03  0.16860871011E+03  0.12700000000E+01 0. -1.
         -4   -1    0    0    0  501 -0.00000000000E+00 -0.00000000000E+00 -0.90551126368E+02  0.90560031949E+02  0.12700000000E+01 0. -1.
         25    2    1    2    0    0  0.39884267263E+02  0.11582615493E+02 -0.37026089509E+02  0.13682470775E+03  0.12500063036E+03 0.  0.
    9000005    1    3    3    0    0  0.11604986506E+02  0.67632825280E+02 -0.23965458990E+02  0.72692626805E+02  0.10000000000E+01 0.  0.
    9000005    1    3    3    0    0  0.28279280757E+02 -0.56050209787E+02 -0.13060630519E+02  0.64132080949E+02  0.10000000000E+01 0.  0.
         21    1    1    2  502  501 -0.39884267263E+02 -0.11582615493E+02  0.11507889021E+03  0.12234403430E+03  0.00000000000E+00 0. -1.
<mgrwt>
<rscale>  1 0.13171966E+03</rscale>
<asrwt>0</asrwt>
<pdfrwt beam="1">  1        4 0.25940119E-01 0.13171966E+03</pdfrwt>
<pdfrwt beam="2">  1       -4 0.13931996E-01 0.13171966E+03</pdfrwt>
<totfact> 0.98440162E+02</totfact>
</mgrwt>
</event>
<event>
 6    4  0.5642870E-004  0.1266842E+03  0.7818608E-02  0.1232460E+00
         -4   -1    0    0    0  501 -0.00000000000E+00  0.00000000000E+00  0.12719873090E+03  0.12720507082E+03  0.12700000000E+01 0. -1.
          4   -1    0    0  502    0  0.00000000000E+00 -0.00000000000E+00 -0.44085865858E+02  0.44104154775E+02  0.12700000000E+01 0. -1.
         25    2    1    2    0    0 -0.13244172724E+02  0.15665019653E+02  0.81706597288E+02  0.15074764636E+03  0.12501233495E+03 0.  0.
    9000005    1    3    3    0    0 -0.42876997311E+02  0.38700009373E+02  0.94774362836E+02  0.11099237575E+03  0.10000000000E+01 0.  0.
    9000005    1    3    3    0    0  0.29632824587E+02 -0.23034989720E+02 -0.13067765548E+02  0.39755270604E+02  0.10000000000E+01 0.  0.
         21    1    1    2  502  501  0.13244172724E+02 -0.15665019653E+02  0.14062677540E+01  0.20561579240E+02  0.00000000000E+00 0. -1.
<mgrwt>
<rscale>  1 0.12668419E+03</rscale>
<asrwt>0</asrwt>
<pdfrwt beam="2">  1        4 0.67843355E-02 0.12668419E+03</pdfrwt>
<pdfrwt beam="1">  1       -4 0.19570930E-01 0.12668419E+03</pdfrwt>
<totfact> 0.54628769E+03</totfact>
</mgrwt>
</event>
<event>
 6    4  0.5642870E-004  0.1415958E+03  0.7818608E-02  0.1211198E+00
          4   -1    0    0  502    0  0.00000000000E+00  0.00000000000E+00  0.97991094962E+02  0.97999324446E+02  0.12700000000E+01 0. -1.
         -4   -1    0    0    0  501 -0.00000000000E+00 -0.00000000000E+00 -0.11300873460E+03  0.11301587054E+03  0.12700000000E+01 0. -1.
         25    2    1    2    0    0 -0.82253968796E+01  0.66025504030E+02  0.45267489781E+01  0.14166818740E+03  0.12498943766E+03 0.  0.
    9000005    1    3    3    0    0  0.37974714668E+02 -0.11757987679E+01  0.37783589148E+02  0.53591613763E+02  0.10000000000E+01 0.  0.
    9000005    1    3    3    0    0 -0.46200111547E+02  0.67201302798E+02 -0.33256840170E+02  0.88076573632E+02  0.10000000000E+01 0.  0.
         21    1    1    2  502  501  0.82253968796E+01 -0.66025504030E+02 -0.19544388612E+02  0.69347007595E+02  0.00000000000E+00 0. -1.
<mgrwt>
<rscale>  1 0.14159585E+03</rscale>
<asrwt>0</asrwt>
<pdfrwt beam="1">  1        4 0.15076735E-01 0.14159585E+03</pdfrwt>
<pdfrwt beam="2">  1       -4 0.17387141E-01 0.14159585E+03</pdfrwt>
<totfact> 0.17987639E+03</totfact>
</mgrwt>
</event>
<event>
 6    4  0.5642870E-004  0.1309583E+03  0.7818608E-02  0.1226041E+00
         -4   -1    0    0    0  501 -0.00000000000E+00  0.00000000000E+00  0.41942433713E+03  0.41942625988E+03  0.12700000000E+01 0. -1.
          4   -1    0    0  502    0  0.00000000000E+00 -0.00000000000E+00 -0.24135178358E+02  0.24168569142E+02  0.12700000000E+01 0. -1.
         25    2    1    2    0    0  0.28941819493E+02 -0.26233850975E+02  0.37950378308E+03  0.40146381980E+03  0.12499693349E+03 0.  0.
    9000005    1    3    3    0    0  0.63956662054E+02 -0.55920503153E+02  0.25297118019E+03  0.26685759368E+03  0.10000000000E+01 0.  0.
    9000005    1    3    3    0    0 -0.35014842561E+02  0.29686652178E+02  0.12653260289E+03  0.13460622612E+03  0.10000000000E+01 0.  0.
         21    1    1    2  502  501 -0.28941819493E+02  0.26233850975E+02  0.15785375689E+02  0.42131009224E+02  0.00000000000E+00 0. -1.
<mgrwt>
<rscale>  1 0.13095830E+03</rscale>
<asrwt>0</asrwt>
<pdfrwt beam="2">  1        4 0.37158207E-02 0.13095830E+03</pdfrwt>
<pdfrwt beam="1">  1       -4 0.64529539E-01 0.13095830E+03</pdfrwt>
<totfact> 0.14301658E+03</totfact>
</mgrwt>
</event>
<event>
 6    4  0.5642870E-004  0.1267024E+03  0.7818608E-02  0.1232432E+00
         -4   -1    0    0    0  501 -0.00000000000E+00  0.00000000000E+00  0.19688241979E+02  0.19729160454E+02  0.12700000000E+01 0. -1.
          4   -1    0    0  502    0  0.00000000000E+00 -0.00000000000E+00 -0.29809544688E+03  0.29809815221E+03  0.12700000000E+01 0. -1.
         25    2    1    2    0    0  0.14450674476E+02  0.14953154548E+02 -0.20038492103E+03  0.23708144215E+03  0.12498429827E+03 0.  0.
    9000005    1    3    3    0    0 -0.46009585481E+02 -0.26417559206E+02 -0.75302043769E+02  0.92120395061E+02  0.10000000000E+01 0.  0.
    9000005    1    3    3    0    0  0.60460259957E+02  0.41370713753E+02 -0.12508287726E+03  0.14496104709E+03  0.10000000000E+01 0.  0.
         21    1    1    2  502  501 -0.14450674476E+02 -0.14953154548E+02 -0.78022283879E+02  0.80745870516E+02  0.00000000000E+00 0. -1.
<mgrwt>
<rscale>  1 0.12670238E+03</rscale>
<asrwt>0</asrwt>
<pdfrwt beam="2">  1        4 0.45864190E-01 0.12670238E+03</pdfrwt>
<pdfrwt beam="1">  1       -4 0.30323162E-02 0.12670238E+03</pdfrwt>
<totfact> 0.39529293E+03</totfact>
</mgrwt>
</event>
<event>
 6    4  0.5642870E-004  0.1277017E+03  0.7818608E-02  0.1230906E+00
          4   -1    0    0  502    0  0.00000000000E+00  0.00000000000E+00  0.37192981425E+03  0.37193198252E+03  0.12700000000E+01 0. -1.
         -4   -1    0    0    0  501 -0.00000000000E+00 -0.00000000000E+00 -0.16745990588E+02  0.16794079337E+02  0.12700000000E+01 0. -1.
         25    2    1    2    0    0  0.26005292470E+02 -0.25343225982E+01  0.25497114828E+03  0.28516314218E+03  0.12500013269E+03 0.  0.
    9000005    1    3    3    0    0  0.75387218105E+00  0.39503415909E+02  0.18464095298E+02  0.43623514381E+02  0.10000000000E+01 0.  0.
    9000005    1    3    3    0    0  0.25251420289E+02 -0.42037738507E+02  0.23650705298E+03  0.24153962780E+03  0.10000000000E+01 0.  0.
         21    1    1    2  502  501 -0.26005292470E+02  0.25343225982E+01  0.10021267538E+03  0.10356291969E+03  0.00000000000E+00 0. -1.
<mgrwt>
<rscale>  1 0.12770173E+03</rscale>
<asrwt>0</asrwt>
<pdfrwt beam="1">  1        4 0.57223835E-01 0.12770173E+03</pdfrwt>
<pdfrwt beam="2">  1       -4 0.25801723E-02 0.12770173E+03</pdfrwt>
<totfact> 0.32420164E+03</totfact>
</mgrwt>
</event>
<event>
 6    4  0.5642870E-004  0.1267049E+03  0.7818608E-02  0.1232429E+00
          4   -1    0    0  502    0  0.00000000000E+00  0.00000000000E+00  0.12856641374E+04  0.12856647646E+04  0.12700000000E+01 0. -1.
         -4   -1    0    0    0  501 -0.00000000000E+00 -0.00000000000E+00 -0.42062194876E+01  0.43937663090E+01  0.12700000000E+01 0. -1.
         25    2    1    2    0    0 -0.80497237780E+01  0.19070095792E+02  0.10334472996E+04  0.10411856048E+04  0.12500270357E+03 0.  0.
    9000005    1    3    3    0    0  0.19081296558E+02  0.44475445438E+02  0.93000078488E+03  0.93125969579E+03  0.10000000000E+01 0.  0.
    9000005    1    3    3    0    0 -0.27131020336E+02 -0.25405349646E+02  0.10344651474E+03  0.10992590899E+03  0.10000000000E+01 0.  0.
         21    1    1    2  502  501  0.80497237780E+01 -0.19070095792E+02  0.24801061826E+03  0.24887292617E+03  0.00000000000E+00 0.  1.
<mgrwt>
<rscale>  1 0.12670494E+03</rscale>
<asrwt>0</asrwt>
<pdfrwt beam="1">  1        4 0.19780872E+00 0.12670494E+03</pdfrwt>
<pdfrwt beam="2">  1       -4 0.66158642E-03 0.12670494E+03</pdfrwt>
<totfact> 0.13487576E+03</totfact>
</mgrwt>
</event>
<event>
 6    4  0.5642870E-004  0.1268438E+03  0.7818608E-02  0.1232216E+00
         -4   -1    0    0    0  501 -0.00000000000E+00  0.00000000000E+00  0.15893294160E+03  0.15893801567E+03  0.12700000000E+01 0.  1.
          4   -1    0    0  502    0  0.00000000000E+00 -0.00000000000E+00 -0.68300251266E+02  0.68312057670E+02  0.12700000000E+01 0.  1.
         25    2    1    2    0    0  0.20838693490E+02 -0.54690677798E+01  0.13046610694E+03  0.18196361921E+03  0.12500076722E+03 0.  0.
    9000005    1    3    3    0    0 -0.52189806120E+02 -0.71137731273E+01  0.43003887030E+02  0.68005263992E+02  0.10000000000E+01 0.  0.
    9000005    1    3    3    0    0  0.73028499610E+02  0.16447053475E+01  0.87462219913E+02  0.11395835521E+03  0.10000000000E+01 0.  0.
         21    1    1    2  502  501 -0.20838693490E+02  0.54690677798E+01 -0.39833416613E+02  0.45286454132E+02  0.00000000000E+00 0.  1.
<mgrwt>
<rscale>  1 0.12684382E+03</rscale>
<asrwt>0</asrwt>
<pdfrwt beam="2">  1        4 0.10509030E-01 0.12684382E+03</pdfrwt>
<pdfrwt beam="1">  1       -4 0.24452520E-01 0.12684382E+03</pdfrwt>
<totfact> 0.17631307E+03</totfact>
</mgrwt>
</event>
<event>
 6    4  0.5642870E-004  0.1297062E+03  0.7818608E-02  0.1227892E+00
          4   -1    0    0  502    0  0.00000000000E+00  0.00000000000E+00  0.15715103401E+04  0.15715108532E+04  0.12700000000E+01 0.  1.
         -4   -1    0    0    0  501 -0.00000000000E+00 -0.00000000000E+00 -0.43398958726E+01  0.45219018328E+01  0.12700000000E+01 0.  1.
         25    2    1    2    0    0  0.30856961602E+02 -0.15731779651E+02  0.13360750231E+04  0.13423561952E+04  0.12499618607E+03 0.  0.
    9000005    1    3    3    0    0  0.32043225276E+01  0.38974984853E+02  0.99806943221E+03  0.99883577662E+03  0.10000000000E+01 0.  0.
    9000005    1    3    3    0    0  0.27652639074E+02 -0.54706764504E+02  0.33800559088E+03  0.34352041860E+03  0.10000000000E+01 0.  0.
         21    1    1    2  502  501 -0.30856961602E+02  0.15731779651E+02  0.23109542111E+03  0.23367655986E+03  0.00000000000E+00 0.  1.
<mgrwt>
<rscale>  1 0.12970616E+03</rscale>
<asrwt>0</asrwt>
<pdfrwt beam="1">  1        4 0.24178496E+00 0.12970616E+03</pdfrwt>
<pdfrwt beam="2">  1       -4 0.68171594E-03 0.12970616E+03</pdfrwt>
<totfact> 0.70782427E+02</totfact>
</mgrwt>
</event>
<event>
 6    4  0.5642870E-004  0.1284367E+03  0.7818608E-02  0.1229794E+00
         -4   -1    0    0    0  501 -0.00000000000E+00  0.00000000000E+00  0.12660736931E+02  0.12724274425E+02  0.12700000000E+01 0. -1.
          4   -1    0    0  502    0  0.00000000000E+00 -0.00000000000E+00 -0.63170209808E+03  0.63170337471E+03  0.12700000000E+01 0. -1.
         25    2    1    2    0    0 -0.42030658434E+01  0.29220099302E+02 -0.33370405258E+03  0.35756730049E+03  0.12499799879E+03 0.  0.
    9000005    1    3    3    0    0 -0.62100829060E+02  0.12975360000E+01 -0.13244944280E+03  0.14629439999E+03  0.10000000000E+01 0.  0.
    9000005    1    3    3    0    0  0.57897763217E+02  0.27922563302E+02 -0.20125460978E+03  0.21127290050E+03  0.10000000000E+01 0.  0.
         21    1    1    2  502  501  0.42030658434E+01 -0.29220099302E+02 -0.28533730857E+03  0.28686034865E+03  0.00000000000E+00 0.  1.
<mgrwt>
<rscale>  1 0.12843668E+03</rscale>
<asrwt>0</asrwt>
<pdfrwt beam="2">  1        4 0.97189900E-01 0.12843668E+03</pdfrwt>
<pdfrwt beam="1">  1       -4 0.19527919E-02 0.12843668E+03</pdfrwt>
<totfact> 0.15723966E+03</totfact>
</mgrwt>
</event>
<event>
 6    4  0.5642870E-004  0.1292913E+03  0.7818608E-02  0.1228511E+00
         -4   -1    0    0    0  501 -0.00000000000E+00  0.00000000000E+00  0.35713903185E+03  0.35714128993E+03  0.12700000000E+01 0. -1.
          4   -1    0    0  502    0  0.00000000000E+00 -0.00000000000E+00 -0.18714032712E+02  0.18757076540E+02  0.12700000000E+01 0. -1.
         25    2    1    2    0    0  0.29843874205E+02 -0.14154738162E+02  0.28701713483E+03  0.31479368618E+03  0.12500086294E+03 0.  0.
    9000005    1    3    3    0    0 -0.35822647784E+02  0.32666438175E+02  0.10063092624E+03  0.11170470713E+03  0.10000000000E+01 0.  0.
    9000005    1    3    3    0    0  0.65666521989E+02 -0.46821176337E+02  0.18638620859E+03  0.20308897906E+03  0.10000000000E+01 0.  0.
         21    1    1    2  502  501 -0.29843874205E+02  0.14154738162E+02  0.51407864312E+02  0.61104680288E+02  0.00000000000E+00 0. -1.
<mgrwt>
<rscale>  1 0.12929126E+03</rscale>
<asrwt>0</asrwt>
<pdfrwt beam="2">  1        4 0.28825666E-02 0.12929126E+03</pdfrwt>
<pdfrwt beam="1">  1       -4 0.54947953E-01 0.12929126E+03</pdfrwt>
<totfact> 0.29762471E+03</totfact>
</mgrwt>
</event>
<event>
 6    4  0.5642870E-004  0.1276809E+03  0.7818608E-02  0.1230938E+00
          4   -1    0    0  502    0  0.00000000000E+00  0.00000000000E+00  0.22842659997E+03  0.22843013040E+03  0.12700000000E+01 0. -1.
         -4   -1    0    0    0  501 -0.00000000000E+00 -0.00000000000E+00 -0.26740616095E+02  0.26770757351E+02  0.12700000000E+01 0. -1.
         25    2    1    2    0    0  0.25651288477E+02 -0.40074668902E+01  0.14729544473E+03  0.19493166559E+03  0.12501343056E+03 0.  0.
    9000005    1    3    3    0    0 -0.48414474695E+02  0.99059512464E+01  0.79196825521E+02  0.93355376935E+02  0.10000000000E+01 0.  0.
    9000005    1    3    3    0    0  0.74065763171E+02 -0.13913418137E+02  0.68098619209E+02  0.10157628865E+03  0.10000000000E+01 0.  0.
         21    1    1    2  502  501 -0.25651288477E+02  0.40074668902E+01  0.54390539148E+02  0.60269222164E+02  0.00000000000E+00 0. -1.
<mgrwt>
<rscale>  1 0.12768088E+03</rscale>
<asrwt>0</asrwt>
<pdfrwt beam="1">  1        4 0.35145144E-01 0.12768088E+03</pdfrwt>
<pdfrwt beam="2">  1       -4 0.41165310E-02 0.12768088E+03</pdfrwt>
<totfact> 0.41286324E+03</totfact>
</mgrwt>
</event>
<event>
 6    4  0.5642870E-004  0.1266539E+03  0.7818608E-02  0.1232507E+00
         -4   -1    0    0    0  501 -0.00000000000E+00  0.00000000000E+00  0.95075354643E+02  0.95083836484E+02  0.12700000000E+01 0.  1.
          4   -1    0    0  502    0  0.00000000000E+00 -0.00000000000E+00 -0.76976645947E+02  0.76987121788E+02  0.12700000000E+01 0.  1.
         25    2    1    2    0    0 -0.17972023952E+02 -0.96981574321E+01  0.48352437752E+02  0.13556977988E+03  0.12499663626E+03 0.  0.
    9000005    1    3    3    0    0 -0.75776472091E+01 -0.60191771184E+01 -0.42726624049E+02  0.43820265095E+02  0.10000000000E+01 0.  0.
    9000005    1    3    3    0    0 -0.10394376743E+02 -0.36789803137E+01  0.91079061801E+02  0.91749514781E+02  0.10000000000E+01 0.  0.
         21    1    1    2  502  501  0.17972023952E+02  0.96981574321E+01 -0.30253729056E+02  0.36501178396E+02  0.00000000000E+00 0.  1.
<mgrwt>
<rscale>  1 0.12665389E+03</rscale>
<asrwt>0</asrwt>
<pdfrwt beam="2">  1        4 0.11844019E-01 0.12665389E+03</pdfrwt>
<pdfrwt beam="1">  1       -4 0.14628436E-01 0.12665389E+03</pdfrwt>
<totfact> 0.36023129E+03</totfact>
</mgrwt>
</event>
<event>
 6    4  0.5642870E-004  0.1267795E+03  0.7818608E-02  0.1232314E+00
          4   -1    0    0  502    0  0.00000000000E+00  0.00000000000E+00  0.26660291969E+02  0.26690523934E+02  0.12700000000E+01 0.  1.
         -4   -1    0    0    0  501 -0.00000000000E+00 -0.00000000000E+00 -0.23932324349E+03  0.23932661318E+03  0.12700000000E+01 0.  1.
         25    2    1    2    0    0  0.16634588138E+01  0.21100202261E+02 -0.20913157880E+03  0.24455889338E+03  0.12500019780E+03 0.  0.
    9000005    1    3    3    0    0 -0.34930516346E+02 -0.25178236669E+02 -0.22039042414E+02  0.48381855736E+02  0.10000000000E+01 0.  0.
    9000005    1    3    3    0    0  0.36593975160E+02  0.46278438930E+02 -0.18709253639E+03  0.19617703764E+03  0.10000000000E+01 0.  0.
         21    1    1    2  502  501 -0.16634588138E+01 -0.21100202261E+02 -0.35313727226E+01  0.21458243730E+02  0.00000000000E+00 0. -1.
<mgrwt>
<rscale>  1 0.12677947E+03</rscale>
<asrwt>0</asrwt>
<pdfrwt beam="1">  1        4 0.41041683E-02 0.12677947E+03</pdfrwt>
<pdfrwt beam="2">  1       -4 0.36821544E-01 0.12677947E+03</pdfrwt>
<totfact> 0.37841210E+03</totfact>
</mgrwt>
</event>
<event>
 6    4  0.5642870E-004  0.1284099E+03  0.7818608E-02  0.1229834E+00
          4   -1    0    0  502    0  0.00000000000E+00  0.00000000000E+00  0.57080414804E+02  0.57094541370E+02  0.12700000000E+01 0.  1.
         -4   -1    0    0    0  501 -0.00000000000E+00 -0.00000000000E+00 -0.16195130981E+03  0.16195628931E+03  0.12700000000E+01 0.  1.
         25    2    1    2    0    0  0.25197156594E+02  0.15161635485E+02 -0.12824761152E+03  0.18148431945E+03  0.12499734579E+03 0.  0.
    9000005    1    3    3    0    0 -0.25391139388E+02  0.67099613801E+01  0.14347021112E+02  0.29942788046E+02  0.10000000000E+01 0.  0.
    9000005    1    3    3    0    0  0.50588295982E+02  0.84516741051E+01 -0.14259463263E+03  0.15154153141E+03  0.10000000000E+01 0.  0.
         21    1    1    2  502  501 -0.25197156594E+02 -0.15161635485E+02  0.23376716516E+02  0.37566511232E+02  0.00000000000E+00 0. -1.
<mgrwt>
<rscale>  1 0.12840992E+03</rscale>
<asrwt>0</asrwt>
<pdfrwt beam="1">  1        4 0.87830720E-02 0.12840992E+03</pdfrwt>
<pdfrwt beam="2">  1       -4 0.24917056E-01 0.12840992E+03</pdfrwt>
<totfact> 0.23077465E+03</totfact>
</mgrwt>
</event>
<event>
 6    4  0.5642870E-004  0.1312319E+03  0.7818608E-02  0.1225639E+00
          4   -1    0    0  502    0  0.00000000000E+00  0.00000000000E+00  0.10889810294E+03  0.10890550824E+03  0.12700000000E+01 0. -1.
         -4   -1    0    0    0  501 -0.00000000000E+00 -0.00000000000E+00 -0.14732605845E+03  0.14733153227E+03  0.12700000000E+01 0. -1.
         25    2    1    2    0    0  0.37312179951E+02  0.14360239349E+02 -0.11198432402E+03  0.17251754101E+03  0.12499359137E+03 0.  0.
    9000005    1    3    3    0    0  0.21204403092E+02 -0.23173724522E+02 -0.12558437795E+03  0.12945688164E+03  0.10000000000E+01 0.  0.
    9000005    1    3    3    0    0  0.16107776859E+02  0.37533963871E+02  0.13600053927E+02  0.43060659377E+02  0.10000000000E+01 0.  0.
         21    1    1    2  502  501 -0.37312179951E+02 -0.14360239349E+02  0.73556368504E+02  0.83719499487E+02  0.00000000000E+00 0. -1.
<mgrwt>
<rscale>  1 0.13123191E+03</rscale>
<asrwt>0</asrwt>
<pdfrwt beam="1">  1        4 0.16754545E-01 0.13123191E+03</pdfrwt>
<pdfrwt beam="2">  1       -4 0.22666538E-01 0.13123191E+03</pdfrwt>
<totfact> 0.91298210E+02</totfact>
</mgrwt>
</event>
<event>
 6    4  0.5642870E-004  0.1426273E+03  0.7818608E-02  0.1209837E+00
         -4   -1    0    0    0  501 -0.00000000000E+00  0.00000000000E+00  0.14285860164E+03  0.14286424662E+03  0.12700000000E+01 0.  1.
          4   -1    0    0  502    0  0.00000000000E+00 -0.00000000000E+00 -0.90096938662E+02  0.90105889132E+02  0.12700000000E+01 0.  1.
         25    2    1    2    0    0  0.11586802376E+01  0.68684428783E+02  0.74507913244E+02  0.16091604011E+03  0.12499459801E+03 0.  0.
    9000005    1    3    3    0    0 -0.34227638135E+02  0.18908282326E+02 -0.23353485611E+02  0.45556993349E+02  0.10000000000E+01 0.  0.
    9000005    1    3    3    0    0  0.35386318373E+02  0.49776146457E+02  0.97861398855E+02  0.11535904676E+03  0.10000000000E+01 0.  0.
         21    1    1    2  502  501 -0.11586802376E+01 -0.68684428783E+02 -0.21746250270E+02  0.72054095636E+02  0.00000000000E+00 0.  1.
<mgrwt>
<rscale>  1 0.14262729E+03</rscale>
<asrwt>0</asrwt>
<pdfrwt beam="2">  1        4 0.13862190E-01 0.14262729E+03</pdfrwt>
<pdfrwt beam="1">  1       -4 0.21979369E-01 0.14262729E+03</pdfrwt>
<totfact> 0.13687657E+03</totfact>
</mgrwt>
</event>
<event>
 6    4  0.5642870E-004  0.1271593E+03  0.7818608E-02  0.1231733E+00
         -4   -1    0    0    0  501 -0.00000000000E+00  0.00000000000E+00  0.17740059799E+03  0.17740514386E+03  0.12700000000E+01 0.  1.
          4   -1    0    0  502    0  0.00000000000E+00 -0.00000000000E+00 -0.34098002977E+02  0.34121645726E+02  0.12700000000E+01 0.  1.
         25    2    1    2    0    0  0.19303205916E+02  0.13063862431E+02  0.13794214791E+03  0.18761000357E+03  0.12500479594E+03 0.  0.
    9000005    1    3    3    0    0 -0.22214567626E+02  0.59612485455E+02  0.57039390202E+02  0.85449560979E+02  0.10000000000E+01 0.  0.
    9000005    1    3    3    0    0  0.41517773542E+02 -0.46548623024E+02  0.80902757706E+02  0.10216044259E+03  0.10000000000E+01 0.  0.
         21    1    1    2  502  501 -0.19303205916E+02 -0.13063862431E+02  0.53604471061E+01  0.23916786018E+02  0.00000000000E+00 0.  1.
<mgrwt>
<rscale>  1 0.12715926E+03</rscale>
<asrwt>0</asrwt>
<pdfrwt beam="2">  1        4 0.52480148E-02 0.12715926E+03</pdfrwt>
<pdfrwt beam="1">  1       -4 0.27294569E-01 0.12715926E+03</pdfrwt>
<totfact> 0.45169528E+03</totfact>
</mgrwt>
</event>
<event>
 6    4  0.5642870E-004  0.1276955E+03  0.7818608E-02  0.1230916E+00
          4   -1    0    0  502    0  0.00000000000E+00  0.00000000000E+00  0.16599729919E+03  0.16600215733E+03  0.12700000000E+01 0. -1.
         -4   -1    0    0    0  501 -0.00000000000E+00 -0.00000000000E+00 -0.84146016345E+02  0.84155599735E+02  0.12700000000E+01 0. -1.
         25    2    1    2    0    0 -0.14191118750E+02  0.21906213747E+02 -0.33397233271E+02  0.13199054283E+03  0.12499943262E+03 0.  0.
    9000005    1    3    3    0    0 -0.29225286807E+02 -0.45752739908E+02  0.16358629721E+01  0.54324089001E+02  0.10000000000E+01 0.  0.
    9000005    1    3    3    0    0  0.15034168057E+02  0.67658953655E+02 -0.35033096243E+02  0.77666453834E+02  0.10000000000E+01 0.  0.
         21    1    1    2  502  501  0.14191118750E+02 -0.21906213747E+02  0.11524851611E+03  0.11816721423E+03  0.00000000000E+00 0. -1.
<mgrwt>
<rscale>  1 0.12769545E+03</rscale>
<asrwt>0</asrwt>
<pdfrwt beam="1">  1        4 0.25539157E-01 0.12769545E+03</pdfrwt>
<pdfrwt beam="2">  1       -4 0.12946652E-01 0.12769545E+03</pdfrwt>
<totfact> 0.11422093E+03</totfact>
</mgrwt>
</event>
<event>
 6    4  0.5642870E-004  0.1361614E+03  0.7818608E-02  0.1218589E+00
          4   -1    0    0  502    0  0.00000000000E+00  0.00000000000E+00  0.17693654722E+02  0.17739174654E+02  0.12700000000E+01 0. -1.
         -4   -1    0    0    0  501 -0.00000000000E+00 -0.00000000000E+00 -0.51038723659E+03  0.51038881666E+03  0.12700000000E+01 0. -1.
         25    2    1    2    0    0  0.49802084700E+02  0.20854448455E+02 -0.35741182257E+03  0.38246979532E+03  0.12499911104E+03 0.  0.
    9000005    1    3    3    0    0  0.72437301745E+02 -0.31131703553E+02 -0.18990919815E+03  0.20562793874E+03  0.10000000000E+01 0.  0.
    9000005    1    3    3    0    0 -0.22635217045E+02  0.51986152008E+02 -0.16750262442E+03  0.17684185658E+03  0.10000000000E+01 0.  0.
         21    1    1    2  502  501 -0.49802084700E+02 -0.20854448455E+02 -0.13528175930E+03  0.14565819599E+03  0.00000000000E+00 0. -1.
<mgrwt>
<rscale>  1 0.13616142E+03</rscale>
<asrwt>0</asrwt>
<pdfrwt beam="1">  1        4 0.27257242E-02 0.13616142E+03</pdfrwt>
<pdfrwt beam="2">  1       -4 0.78524725E-01 0.13616142E+03</pdfrwt>
<totfact> 0.15344063E+03</totfact>
</mgrwt>
</event>
<event>
 6    4  0.5642870E-004  0.1270881E+03  0.7818608E-02  0.1231842E+00
          4   -1    0    0  502    0  0.00000000000E+00  0.00000000000E+00  0.23596216764E+03  0.23596558532E+03  0.12700000000E+01 0.  1.
         -4   -1    0    0    0  501 -0.00000000000E+00 -0.00000000000E+00 -0.26153545956E+02  0.26184363007E+02  0.12700000000E+01 0.  1.
         25    2    1    2    0    0 -0.41691465662E+01  0.22527329860E+02  0.14195167134E+03  0.19052992262E+03  0.12500604802E+03 0.  0.
    9000005    1    3    3    0    0  0.31722482647E+02 -0.41032920214E+02  0.41931489185E+02  0.66702820269E+02  0.10000000000E+01 0.  0.
    9000005    1    3    3    0    0 -0.35891629213E+02  0.63560250074E+02  0.10002018216E+03  0.12382710235E+03  0.10000000000E+01 0.  0.
         21    1    1    2  502  501  0.41691465662E+01 -0.22527329860E+02  0.67856950337E+02  0.71620025711E+02  0.00000000000E+00 0.  1.
<mgrwt>
<rscale>  1 0.12708806E+03</rscale>
<asrwt>0</asrwt>
<pdfrwt beam="1">  1        4 0.36304505E-01 0.12708806E+03</pdfrwt>
<pdfrwt beam="2">  1       -4 0.40262560E-02 0.12708806E+03</pdfrwt>
<totfact> 0.40118768E+03</totfact>
</mgrwt>
</event>
<event>
 6    4  0.5642870E-004  0.1728135E+03  0.7818608E-02  0.1174945E+00
          4   -1    0    0  502    0  0.00000000000E+00  0.00000000000E+00  0.30599219080E+03  0.30599482631E+03  0.12700000000E+01 0. -1.
         -4   -1    0    0    0  501 -0.00000000000E+00 -0.00000000000E+00 -0.70289196239E+02  0.70300668616E+02  0.12700000000E+01 0. -1.
         25    2    1    2    0    0  0.10144588547E+03 -0.62854243530E+02  0.15580405748E+03  0.23267876974E+03  0.12499032743E+03 0.  0.
    9000005    1    3    3    0    0  0.50850114154E+02  0.53401860166E+01 -0.44317918353E+01  0.51331203717E+02  0.10000000000E+01 0.  0.
    9000005    1    3    3    0    0  0.50595771311E+02 -0.68194429547E+02  0.16023584932E+03  0.18134756602E+03  0.10000000000E+01 0.  0.
         21    1    1    2  502  501 -0.10144588547E+03  0.62854243530E+02  0.79898937076E+02  0.14361672519E+03  0.00000000000E+00 0.  1.
<mgrwt>
<rscale>  1 0.17281350E+03</rscale>
<asrwt>0</asrwt>
<pdfrwt beam="1">  1        4 0.47076807E-01 0.17281350E+03</pdfrwt>
<pdfrwt beam="2">  1       -4 0.10814808E-01 0.17281350E+03</pdfrwt>
<totfact> 0.50558927E+02</totfact>
</mgrwt>
</event>
<event>
 6    4  0.5642870E-004  0.1418665E+03  0.7818608E-02  0.1210839E+00
         -4   -1    0    0    0  501 -0.00000000000E+00  0.00000000000E+00  0.70447356309E+02  0.70458802935E+02  0.12700000000E+01 0.  1.
          4   -1    0    0  502    0  0.00000000000E+00 -0.00000000000E+00 -0.17952998540E+03  0.17953447735E+03  0.12700000000E+01 0.  1.
         25    2    1    2    0    0 -0.54202216930E+02 -0.39446790587E+02 -0.27682231365E+02  0.14454208609E+03  0.12502871314E+03 0.  0.
    9000005    1    3    3    0    0 -0.37390407896E+02 -0.10745869699E+02 -0.76285236074E+02  0.85638505131E+02  0.10000000000E+01 0.  0.
    9000005    1    3    3    0    0 -0.16811809034E+02 -0.28700920888E+02  0.48603004709E+02  0.58903580957E+02  0.10000000000E+01 0.  0.
         21    1    1    2  502  501  0.54202216930E+02  0.39446790587E+02 -0.81400397725E+02  0.10545119420E+03  0.00000000000E+00 0.  1.
<mgrwt>
<rscale>  1 0.14186652E+03</rscale>
<asrwt>0</asrwt>
<pdfrwt beam="2">  1        4 0.27621224E-01 0.14186652E+03</pdfrwt>
<pdfrwt beam="1">  1       -4 0.10839281E-01 0.14186652E+03</pdfrwt>
<totfact> 0.13678787E+03</totfact>
</mgrwt>
</event>
<event>
 6    4  0.5642870E-004  0.1266603E+03  0.7818608E-02  0.1232497E+00
         -4   -1    0    0    0  501 -0.00000000000E+00  0.00000000000E+00  0.15485001389E+02  0.15536993532E+02  0.12700000000E+01 0.  1.
          4   -1    0    0  502    0  0.00000000000E+00 -0.00000000000E+00 -0.37247531216E+03  0.37247747726E+03  0.12700000000E+01 0.  1.
         25    2    1    2    0    0  0.17923749177E+01 -0.20332342056E+02 -0.26402037762E+03  0.29283030608E+03  0.12500484640E+03 0.  0.
    9000005    1    3    3    0    0 -0.16574294360E+01 -0.19081184975E+02 -0.27783778586E+03  0.27849896579E+03  0.10000000000E+01 0.  0.
    9000005    1    3    3    0    0  0.34498043537E+01 -0.12511570808E+01  0.13817408244E+02  0.14331340297E+02  0.10000000000E+01 0.  0.
         21    1    1    2  502  501 -0.17923749177E+01  0.20332342056E+02 -0.92969933151E+02  0.95184164709E+02  0.00000000000E+00 0.  1.
<mgrwt>
<rscale>  1 0.12666029E+03</rscale>
<asrwt>0</asrwt>
<pdfrwt beam="2">  1        4 0.57308053E-01 0.12666029E+03</pdfrwt>
<pdfrwt beam="1">  1       -4 0.23864741E-02 0.12666029E+03</pdfrwt>
<totfact> 0.36408615E+03</totfact>
</mgrwt>
</event>
<event>
 6    4  0.5642870E-004  0.1274861E+03  0.7818608E-02  0.1231234E+00
         -4   -1    0    0    0  501 -0.00000000000E+00  0.00000000000E+00  0.34588787882E+02  0.34612095388E+02  0.12700000000E+01 0. -1.
          4   -1    0    0  502    0  0.00000000000E+00 -0.00000000000E+00 -0.19237949438E+03  0.19238368631E+03  0.12700000000E+01 0. -1.
         25    2    1    2    0    0 -0.20663291057E+02 -0.14164034738E+02 -0.93798493235E+02  0.15827464350E+03  0.12500045585E+03 0.  0.
    9000005    1    3    3    0    0  0.42439542528E+02  0.27064657297E+02 -0.50653164238E+02  0.71416759181E+02  0.10000000000E+01 0.  0.
    9000005    1    3    3    0    0 -0.63102833586E+02 -0.41228692034E+02 -0.43145328997E+02  0.86857884315E+02  0.10000000000E+01 0.  0.
         21    1    1    2  502  501  0.20663291057E+02  0.14164034738E+02 -0.63992213266E+02  0.68721138204E+02  0.00000000000E+00 0. -1.
<mgrwt>
<rscale>  1 0.12748610E+03</rscale>
<asrwt>0</asrwt>
<pdfrwt beam="2">  1        4 0.29598960E-01 0.12748610E+03</pdfrwt>
<pdfrwt beam="1">  1       -4 0.53234674E-02 0.12748610E+03</pdfrwt>
<totfact> 0.37946140E+03</totfact>
</mgrwt>
</event>
<event>
 6    4  0.5642870E-004  0.1269197E+03  0.7818608E-02  0.1232099E+00
         -4   -1    0    0    0  501 -0.00000000000E+00  0.00000000000E+00  0.23599982307E+02  0.23634129239E+02  0.12700000000E+01 0. -1.
          4   -1    0    0  502    0  0.00000000000E+00 -0.00000000000E+00 -0.23511250121E+03  0.23511593124E+03  0.12700000000E+01 0. -1.
         25    2    1    2    0    0 -0.16402249494E+02 -0.14640832770E+02 -0.18409726812E+03  0.22360772493E+03  0.12500089098E+03 0.  0.
    9000005    1    3    3    0    0 -0.53865913278E+02  0.10348883647E+02 -0.28902205411E+02  0.62007850177E+02  0.10000000000E+01 0.  0.
    9000005    1    3    3    0    0  0.37463663784E+02 -0.24989716417E+02 -0.15519506271E+03  0.16159987475E+03  0.10000000000E+01 0.  0.
         21    1    1    2  502  501  0.16402249494E+02  0.14640832770E+02 -0.27415250780E+02  0.35142335551E+02  0.00000000000E+00 0.  1.
<mgrwt>
<rscale>  1 0.12691970E+03</rscale>
<asrwt>0</asrwt>
<pdfrwt beam="2">  1        4 0.36174043E-01 0.12691970E+03</pdfrwt>
<pdfrwt beam="1">  1       -4 0.36336572E-02 0.12691970E+03</pdfrwt>
<totfact> 0.47505230E+03</totfact>
</mgrwt>
</event>
<event>
 6    4  0.5642870E-004  0.1357922E+03  0.7818608E-02  0.1219106E+00
          4   -1    0    0  502    0  0.00000000000E+00  0.00000000000E+00  0.11644553588E+03  0.11645246123E+03  0.12700000000E+01 0. -1.
         -4   -1    0    0    0  501 -0.00000000000E+00 -0.00000000000E+00 -0.17928871068E+03  0.17929320867E+03  0.12700000000E+01 0. -1.
         25    2    1    2    0    0 -0.46942896585E+02 -0.24695295941E+02 -0.14455193013E+03  0.19832999416E+03  0.12500413153E+03 0.  0.
    9000005    1    3    3    0    0 -0.77916039913E+02 -0.33179161661E+02 -0.14295681505E+03  0.16616081672E+03  0.10000000000E+01 0.  0.
    9000005    1    3    3    0    0  0.30973143328E+02  0.84838657204E+01 -0.15951150811E+01  0.32169177442E+02  0.10000000000E+01 0.  0.
         21    1    1    2  502  501  0.46942896585E+02  0.24695295941E+02  0.81708755331E+02  0.97415675736E+02  0.00000000000E+00 0. -1.
<mgrwt>
<rscale>  1 0.13579222E+03</rscale>
<asrwt>0</asrwt>
<pdfrwt beam="1">  1        4 0.17915577E-01 0.13579222E+03</pdfrwt>
<pdfrwt beam="2">  1       -4 0.27583757E-01 0.13579222E+03</pdfrwt>
<totfact> 0.56827001E+02</totfact>
</mgrwt>
</event>
<event>
 6    4  0.5642870E-004  0.1375590E+03  0.7818608E-02  0.1216652E+00
         -4   -1    0    0    0  501 -0.00000000000E+00  0.00000000000E+00  0.36270904856E+03  0.36271127196E+03  0.12700000000E+01 0.  1.
          4   -1    0    0  502    0  0.00000000000E+00 -0.00000000000E+00 -0.26417575158E+02  0.26448084567E+02  0.12700000000E+01 0.  1.
         25    2    1    2    0    0  0.49441838320E+02 -0.29219202580E+02  0.25316755362E+03  0.28812548490E+03  0.12499691063E+03 0.  0.
    9000005    1    3    3    0    0 -0.18396216749E+02  0.34947885056E+02  0.11293120647E+03  0.11964210318E+03  0.10000000000E+01 0.  0.
    9000005    1    3    3    0    0  0.67838055069E+02 -0.64167087637E+02  0.14023634715E+03  0.16848338171E+03  0.10000000000E+01 0.  0.
         21    1    1    2  502  501 -0.49441838320E+02  0.29219202580E+02  0.83123919780E+02  0.10103387162E+03  0.00000000000E+00 0. -1.
<mgrwt>
<rscale>  1 0.13755902E+03</rscale>
<asrwt>0</asrwt>
<pdfrwt beam="2">  1        4 0.40667604E-02 0.13755902E+03</pdfrwt>
<pdfrwt beam="1">  1       -4 0.55803908E-01 0.13755902E+03</pdfrwt>
<totfact> 0.16996755E+03</totfact>
</mgrwt>
</event>
<event>
 6    4  0.5642870E-004  0.1288035E+03  0.7818608E-02  0.1229242E+00
         -4   -1    0    0    0  501 -0.00000000000E+00  0.00000000000E+00  0.96813770026E+03  0.96813853325E+03  0.12700000000E+01 0.  1.
          4   -1    0    0  502    0  0.00000000000E+00 -0.00000000000E+00 -0.65494069370E+01  0.66714039922E+01  0.12700000000E+01 0.  1.
         25    2    1    2    0    0 -0.20835327084E+02 -0.23053021599E+02  0.78980217867E+03  0.80023610802E+03  0.12499917799E+03 0.  0.
    9000005    1    3    3    0    0 -0.56116718334E+02  0.30072911658E+02  0.45228680030E+03  0.45674699322E+03  0.10000000000E+01 0.  0.
    9000005    1    3    3    0    0  0.35281391250E+02 -0.53125933257E+02  0.33751537837E+03  0.34348911480E+03  0.10000000000E+01 0.  0.
         21    1    1    2  502  501  0.20835327084E+02  0.23053021599E+02  0.17178611466E+03  0.17457382922E+03  0.00000000000E+00 0.  1.
<mgrwt>
<rscale>  1 0.12880352E+03</rscale>
<asrwt>0</asrwt>
<pdfrwt beam="2">  1        4 0.10170499E-02 0.12880352E+03</pdfrwt>
<pdfrwt beam="1">  1       -4 0.14895366E+00 0.12880352E+03</pdfrwt>
<totfact> 0.15182381E+03</totfact>
</mgrwt>
</event>
<event>
 6    4  0.5642870E-004  0.1342570E+03  0.7818608E-02  0.1221272E+00
          4   -1    0    0  502    0  0.00000000000E+00  0.00000000000E+00  0.24276392139E+03  0.24276724332E+03  0.12700000000E+01 0. -1.
         -4   -1    0    0    0  501 -0.00000000000E+00 -0.00000000000E+00 -0.12491138095E+03  0.12491783697E+03  0.12700000000E+01 0. -1.
         25    2    1    2    0    0 -0.26179383164E+02 -0.41410486099E+02 -0.85065043094E+02  0.15893706432E+03  0.12499896159E+03 0.  0.
    9000005    1    3    3    0    0 -0.32092341722E+02 -0.20659385645E+02  0.25739886072E+02  0.46046393425E+02  0.10000000000E+01 0.  0.
    9000005    1    3    3    0    0  0.59129585575E+01 -0.20751100454E+02 -0.11080492917E+03  0.11289067090E+03  0.10000000000E+01 0.  0.
         21    1    1    2  502  501  0.26179383164E+02  0.41410486099E+02  0.20291758353E+03  0.20874801596E+03  0.00000000000E+00 0. -1.
<mgrwt>
<rscale>  1 0.13425695E+03</rscale>
<asrwt>0</asrwt>
<pdfrwt beam="1">  1        4 0.37349048E-01 0.13425695E+03</pdfrwt>
<pdfrwt beam="2">  1       -4 0.19217888E-01 0.13425695E+03</pdfrwt>
<totfact> 0.28067656E+02</totfact>
</mgrwt>
</event>
<event>
 6    4  0.5642870E-004  0.1283244E+03  0.7818608E-02  0.1229963E+00
          4   -1    0    0  502    0  0.00000000000E+00  0.00000000000E+00  0.42591675330E+03  0.42591864675E+03  0.12700000000E+01 0.  1.
         -4   -1    0    0    0  501 -0.00000000000E+00 -0.00000000000E+00 -0.83738661022E+02  0.83748291026E+02  0.12700000000E+01 0.  1.
         25    2    1    2    0    0 -0.28965914625E+02 -0.17166999087E+01 -0.33695808317E+02  0.13267468265E+03  0.12500077060E+03 0.  0.
    9000005    1    3    3    0    0 -0.35401826371E+02 -0.74175320166E+01 -0.78819436818E+02  0.86728384696E+02  0.10000000000E+01 0.  0.
    9000005    1    3    3    0    0  0.64359117454E+01  0.57008321079E+01  0.45123628501E+02  0.45946297956E+02  0.10000000000E+01 0.  0.
         21    1    1    2  502  501  0.28965914625E+02  0.17166999087E+01  0.37587390060E+03  0.37699225512E+03  0.00000000000E+00 0.  1.
<mgrwt>
<rscale>  1 0.12832445E+03</rscale>
<asrwt>0</asrwt>
<pdfrwt beam="1">  1        4 0.65526542E-01 0.12832445E+03</pdfrwt>
<pdfrwt beam="2">  1       -4 0.12883757E-01 0.12832445E+03</pdfrwt>
<totfact> 0.17886071E+02</totfact>
</mgrwt>
</event>
<event>
 6    4  0.5642870E-004  0.1458913E+03  0.7818608E-02  0.1205615E+00
         -4   -1    0    0    0  501 -0.00000000000E+00  0.00000000000E+00  0.63899519200E+03  0.63899645405E+03  0.12700000000E+01 0. -1.
          4   -1    0    0  502    0  0.00000000000E+00 -0.00000000000E+00 -0.20211973878E+02  0.20251834189E+02  0.12700000000E+01 0. -1.
         25    2    1    2    0    0  0.19880181668E+02 -0.72579210797E+02  0.47589427086E+03  0.49775458957E+03  0.12498524287E+03 0.  0.
    9000005    1    3    3    0    0  0.23798499543E+02  0.23667455581E+02  0.24905205009E+03  0.25130547286E+03  0.10000000000E+01 0.  0.
    9000005    1    3    3    0    0 -0.39183178744E+01 -0.96246666378E+02  0.22684222077E+03  0.24644911671E+03  0.10000000000E+01 0.  0.
         21    1    1    2  502  501 -0.19880181668E+02  0.72579210797E+02  0.14288894726E+03  0.16149369868E+03  0.00000000000E+00 0. -1.
<mgrwt>
<rscale>  1 0.14589131E+03</rscale>
<asrwt>0</asrwt>
<pdfrwt beam="2">  1        4 0.31126978E-02 0.14589131E+03</pdfrwt>
<pdfrwt beam="1">  1       -4 0.98310112E-01 0.14589131E+03</pdfrwt>
<totfact> 0.76211947E+02</totfact>
</mgrwt>
</event>
<event>
 6    4  0.5642870E-004  0.1274848E+03  0.7818608E-02  0.1231236E+00
          4   -1    0    0  502    0  0.00000000000E+00  0.00000000000E+00  0.10258511814E+04  0.10258519676E+04  0.12700000000E+01 0.  1.
         -4   -1    0    0    0  501 -0.00000000000E+00 -0.00000000000E+00 -0.88706589634E+01  0.89611098891E+01  0.12700000000E+01 0.  1.
         25    2    1    2    0    0 -0.14279854275E+02  0.20665049612E+02  0.46206006324E+03  0.47932439657E+03  0.12498566555E+03 0.  0.
    9000005    1    3    3    0    0 -0.56653584507E+02  0.38554697369E+02  0.37127544990E+03  0.37754808041E+03  0.10000000000E+01 0.  0.
    9000005    1    3    3    0    0  0.42373730233E+02 -0.17889647757E+02  0.90784613338E+02  0.10177631615E+03  0.10000000000E+01 0.  0.
         21    1    1    2  502  501  0.14279854275E+02 -0.20665049612E+02  0.55492045923E+03  0.55548868088E+03  0.00000000000E+00 0.  1.
<mgrwt>
<rscale>  1 0.12748480E+03</rscale>
<asrwt>0</asrwt>
<pdfrwt beam="1">  1        4 0.15783037E+00 0.12748480E+03</pdfrwt>
<pdfrwt beam="2">  1       -4 0.13717342E-02 0.12748480E+03</pdfrwt>
<totfact> 0.83114830E+02</totfact>
</mgrwt>
</event>
<event>
 6    4  0.5642870E-004  0.1758683E+03  0.7818608E-02  0.1171863E+00
          4   -1    0    0  502    0  0.00000000000E+00  0.00000000000E+00  0.75733480477E+03  0.75733586962E+03  0.12700000000E+01 0. -1.
         -4   -1    0    0    0  501 -0.00000000000E+00 -0.00000000000E+00 -0.51943888073E+02  0.51959411160E+02  0.12700000000E+01 0. -1.
         25    2    1    2    0    0  0.80984169627E+02 -0.93519183763E+02  0.12474674893E+03  0.21561866592E+03  0.12500153705E+03 0.  0.
    9000005    1    3    3    0    0 -0.20631404959E+02  0.12542941200E+02  0.37987208447E+02  0.45022308361E+02  0.10000000000E+01 0.  0.
    9000005    1    3    3    0    0  0.10161557459E+03 -0.10606212496E+03  0.86759540479E+02  0.17059635756E+03  0.10000000000E+01 0.  0.
         21    1    1    2  502  501 -0.80984169627E+02  0.93519183763E+02  0.58064416777E+03  0.59367661485E+03  0.00000000000E+00 0. -1.
<mgrwt>
<rscale>  1 0.17586830E+03</rscale>
<asrwt>0</asrwt>
<pdfrwt beam="1">  1        4 0.11651432E+00 0.17586830E+03</pdfrwt>
<pdfrwt beam="2">  1       -4 0.79926438E-02 0.17586830E+03</pdfrwt>
<totfact> 0.11500376E+02</totfact>
</mgrwt>
</event>
<event>
 6    4  0.5642870E-004  0.1298456E+03  0.7818608E-02  0.1227685E+00
         -4   -1    0    0    0  501 -0.00000000000E+00  0.00000000000E+00  0.63539672347E+02  0.63552363150E+02  0.12700000000E+01 0. -1.
          4   -1    0    0  502    0  0.00000000000E+00 -0.00000000000E+00 -0.26653557699E+03  0.26653860265E+03  0.12700000000E+01 0. -1.
         25    2    1    2    0    0  0.32383652064E+02 -0.14057494968E+02 -0.60291877457E+01  0.12998548948E+03  0.12495424077E+03 0.  0.
    9000005    1    3    3    0    0  0.29691910710E+02  0.42862868375E+02 -0.38102039329E+02  0.64587928036E+02  0.10000000000E+01 0.  0.
    9000005    1    3    3    0    0  0.26917413537E+01 -0.56920363343E+02  0.32072851583E+02  0.65397561447E+02  0.10000000000E+01 0.  0.
         21    1    1    2  502  501 -0.32383652064E+02  0.14057494968E+02 -0.19696671690E+03  0.20010547631E+03  0.00000000000E+00 0. -1.
<mgrwt>
<rscale>  1 0.12984559E+03</rscale>
<asrwt>0</asrwt>
<pdfrwt beam="2">  1        4 0.41006682E-01 0.12984559E+03</pdfrwt>
<pdfrwt beam="1">  1       -4 0.97765433E-02 0.12984559E+03</pdfrwt>
<totfact> 0.74843366E+02</totfact>
</mgrwt>
</event>
<event>
 6    4  0.5642870E-004  0.1304381E+03  0.7818608E-02  0.1226807E+00
          4   -1    0    0  502    0  0.00000000000E+00  0.00000000000E+00  0.46710952730E+02  0.46728214228E+02  0.12700000000E+01 0.  1.
         -4   -1    0    0    0  501 -0.00000000000E+00 -0.00000000000E+00 -0.17485382658E+03  0.17485843866E+03  0.12700000000E+01 0.  1.
         25    2    1    2    0    0 -0.34787601442E+02 -0.13377048971E+02 -0.13014738270E+03  0.18426185270E+03  0.12499986594E+03 0.  0.
    9000005    1    3    3    0    0  0.76917397199E+01 -0.14045730223E+02 -0.13977140776E+03  0.14068934510E+03  0.10000000000E+01 0.  0.
    9000005    1    3    3    0    0 -0.42479341162E+02  0.66868125237E+00  0.96240250611E+01  0.43572507600E+02  0.10000000000E+01 0.  0.
         21    1    1    2  502  501  0.34787601442E+02  0.13377048971E+02  0.20045088472E+01  0.37324800187E+02  0.00000000000E+00 0.  1.
<mgrwt>
<rscale>  1 0.13043807E+03</rscale>
<asrwt>0</asrwt>
<pdfrwt beam="1">  1        4 0.71879831E-02 0.13043807E+03</pdfrwt>
<pdfrwt beam="2">  1       -4 0.26902271E-01 0.13043807E+03</pdfrwt>
<totfact> 0.27997833E+03</totfact>
</mgrwt>
</event>
<event>
 6    4  0.5642870E-004  0.1371917E+03  0.7818608E-02  0.1217158E+00
          4   -1    0    0  502    0  0.00000000000E+00  0.00000000000E+00  0.56243114193E+03  0.56243257580E+03  0.12700000000E+01 0. -1.
         -4   -1    0    0    0  501 -0.00000000000E+00 -0.00000000000E+00 -0.17208122034E+02  0.17254922890E+02  0.12700000000E+01 0. -1.
         25    2    1    2    0    0 -0.98099482003E+00  0.56531827554E+02  0.42971584089E+03  0.45108455051E+03  0.12499903166E+03 0.  0.
    9000005    1    3    3    0    0  0.39777670625E+02 -0.23257584491E+02  0.17900288410E+03  0.18484104207E+03  0.10000000000E+01 0.  0.
    9000005    1    3    3    0    0 -0.40758665445E+02  0.79789412045E+02  0.25071295679E+03  0.26624350844E+03  0.10000000000E+01 0.  0.
         21    1    1    2  502  501  0.98099482003E+00 -0.56531827554E+02  0.11550717901E+03  0.12860294818E+03  0.00000000000E+00 0. -1.
<mgrwt>
<rscale>  1 0.13719172E+03</rscale>
<asrwt>0</asrwt>
<pdfrwt beam="1">  1        4 0.86531574E-01 0.13719172E+03</pdfrwt>
<pdfrwt beam="2">  1       -4 0.26511139E-02 0.13719172E+03</pdfrwt>
<totfact> 0.12932385E+03</totfact>
</mgrwt>
</event>
<event>
 6    4  0.5642870E-004  0.1272414E+03  0.7818608E-02  0.1231607E+00
          4   -1    0    0  502    0  0.00000000000E+00  0.00000000000E+00  0.18668151135E+03  0.18668583123E+03  0.12700000000E+01 0. -1.
         -4   -1    0    0    0  501 -0.00000000000E+00 -0.00000000000E+00 -0.40027505081E+02  0.40047647410E+02  0.12700000000E+01 0. -1.
         25    2    1    2    0    0 -0.22181669794E+02  0.85548133242E+01  0.67399148415E+02  0.14398963415E+03  0.12500063292E+03 0.  0.
    9000005    1    3    3    0    0  0.30726045319E+02 -0.26438992142E+02  0.69555936484E+02  0.80511728752E+02  0.10000000000E+01 0.  0.
    9000005    1    3    3    0    0 -0.52907715113E+02  0.34993805467E+02 -0.21567880690E+01  0.63477905403E+02  0.10000000000E+01 0.  0.
         21    1    1    2  502  501  0.22181669794E+02 -0.85548133242E+01  0.79254857858E+02  0.82743844484E+02  0.00000000000E+00 0. -1.
<mgrwt>
<rscale>  1 0.12724138E+03</rscale>
<asrwt>0</asrwt>
<pdfrwt beam="1">  1        4 0.28722114E-01 0.12724138E+03</pdfrwt>
<pdfrwt beam="2">  1       -4 0.61599595E-02 0.12724138E+03</pdfrwt>
<totfact> 0.31691743E+03</totfact>
</mgrwt>
</event>
<event>
 6    4  0.5642870E-004  0.1267910E+03  0.7818608E-02  0.1232297E+00
         -4   -1    0    0    0  501 -0.00000000000E+00  0.00000000000E+00  0.15438672355E+02  0.15490819994E+02  0.12700000000E+01 0. -1.
          4   -1    0    0  502    0  0.00000000000E+00 -0.00000000000E+00 -0.36768921769E+03  0.36769141098E+03  0.12700000000E+01 0. -1.
         25    2    1    2    0    0  0.16789753981E+02 -0.12987680118E+02 -0.32338155299E+03  0.34734936348E+03  0.12500150328E+03 0.  0.
    9000005    1    3    3    0    0 -0.23256146745E+02  0.33280742677E+02 -0.38477149206E+02  0.55945931090E+02  0.10000000000E+01 0.  0.
    9000005    1    3    3    0    0  0.40045900727E+02 -0.46268422795E+02 -0.28490440378E+03  0.29140343239E+03  0.10000000000E+01 0.  0.
         21    1    1    2  502  501 -0.16789753981E+02  0.12987680118E+02 -0.28868992349E+02  0.35832867494E+02  0.00000000000E+00 0. -1.
<mgrwt>
<rscale>  1 0.12679098E+03</rscale>
<asrwt>0</asrwt>
<pdfrwt beam="2">  1        4 0.56571746E-01 0.12679098E+03</pdfrwt>
<pdfrwt beam="1">  1       -4 0.23793607E-02 0.12679098E+03</pdfrwt>
<totfact> 0.37583135E+03</totfact>
</mgrwt>
</event>
<event>
 6    4  0.5642870E-004  0.1313110E+03  0.7818608E-02  0.1225523E+00
         -4   -1    0    0    0  501 -0.00000000000E+00  0.00000000000E+00  0.12581871123E+03  0.12582512068E+03  0.12700000000E+01 0. -1.
          4   -1    0    0  502    0  0.00000000000E+00 -0.00000000000E+00 -0.58996818969E+02  0.59010486767E+02  0.12700000000E+01 0. -1.
         25    2    1    2    0    0 -0.39685693221E+02  0.65113472936E+01  0.58571349826E+02  0.14378169971E+03  0.12500088905E+03 0.  0.
    9000005    1    3    3    0    0 -0.30689425744E+02 -0.23762027477E+02 -0.30434931690E+02  0.49333151828E+02  0.10000000000E+01 0.  0.
    9000005    1    3    3    0    0 -0.89962674769E+01  0.30273374771E+02  0.89006281516E+02  0.94448547886E+02  0.10000000000E+01 0.  0.
         21    1    1    2  502  501  0.39685693221E+02 -0.65113472936E+01  0.82505424330E+01  0.41053907737E+02  0.00000000000E+00 0. -1.
<mgrwt>
<rscale>  1 0.13131098E+03</rscale>
<asrwt>0</asrwt>
<pdfrwt beam="2">  1        4 0.90779782E-02 0.13131098E+03</pdfrwt>
<pdfrwt beam="1">  1       -4 0.19358269E-01 0.13131098E+03</pdfrwt>
<totfact> 0.34733143E+03</totfact>
</mgrwt>
</event>
<event>
 6    4  0.5642870E-004  0.1354659E+03  0.7818608E-02  0.1219564E+00
          4   -1    0    0  502    0  0.00000000000E+00  0.00000000000E+00  0.13597007684E+03  0.13597600780E+03  0.12700000000E+01 0.  1.
         -4   -1    0    0    0  501 -0.00000000000E+00 -0.00000000000E+00 -0.75912811947E+02  0.75923434575E+02  0.12700000000E+01 0.  1.
         25    2    1    2    0    0  0.27967237156E+02  0.44088324770E+02  0.43296055345E+01  0.13553506093E+03  0.12500024209E+03 0.  0.
    9000005    1    3    3    0    0 -0.37712721620E+02  0.55297375770E+02 -0.91055842852E+01  0.67557092923E+02  0.10000000000E+01 0.  0.
    9000005    1    3    3    0    0  0.65679958776E+02 -0.11209051001E+02  0.13435189820E+02  0.67977968009E+02  0.10000000000E+01 0.  0.
         21    1    1    2  502  501 -0.27967237156E+02 -0.44088324770E+02  0.55727659363E+02  0.76364381443E+02  0.00000000000E+00 0.  1.
<mgrwt>
<rscale>  1 0.13546589E+03</rscale>
<asrwt>0</asrwt>
<pdfrwt beam="1">  1        4 0.20919747E-01 0.13546589E+03</pdfrwt>
<pdfrwt beam="2">  1       -4 0.11680168E-01 0.13546589E+03</pdfrwt>
<totfact> 0.19879503E+03</totfact>
</mgrwt>
</event>
<event>
 6    4  0.5642870E-004  0.1280517E+03  0.7818608E-02  0.1230376E+00
         -4   -1    0    0    0  501 -0.00000000000E+00  0.00000000000E+00  0.13150522672E+02  0.13211704907E+02  0.12700000000E+01 0. -1.
          4   -1    0    0  502    0  0.00000000000E+00 -0.00000000000E+00 -0.46270883643E+03  0.46271057932E+03  0.12700000000E+01 0. -1.
         25    2    1    2    0    0  0.15724059378E+02  0.22920374449E+02 -0.38102922589E+03  0.40197077652E+03  0.12499857832E+03 0.  0.
    9000005    1    3    3    0    0 -0.29660998678E+02 -0.38180148393E+01 -0.17542358415E+02  0.34685536159E+02  0.10000000000E+01 0.  0.
    9000005    1    3    3    0    0  0.45385058056E+02  0.26738389288E+02 -0.36348686748E+03  0.36728524036E+03  0.10000000000E+01 0.  0.
         21    1    1    2  502  501 -0.15724059378E+02 -0.22920374449E+02 -0.68529087865E+02  0.73951507705E+02  0.00000000000E+00 0. -1.
<mgrwt>
<rscale>  1 0.12805169E+03</rscale>
<asrwt>0</asrwt>
<pdfrwt beam="2">  1        4 0.71190803E-01 0.12805169E+03</pdfrwt>
<pdfrwt beam="1">  1       -4 0.20279981E-02 0.12805169E+03</pdfrwt>
<totfact> 0.29632783E+03</totfact>
</mgrwt>
</event>
<event>
 6    4  0.5642870E-004  0.1272348E+03  0.7818608E-02  0.1231617E+00
          4   -1    0    0  502    0  0.00000000000E+00  0.00000000000E+00  0.16957175121E+02  0.17004666656E+02  0.12700000000E+01 0. -1.
         -4   -1    0    0    0  501 -0.00000000000E+00 -0.00000000000E+00 -0.73853186224E+03  0.73853295420E+03  0.12700000000E+01 0. -1.
         25    2    1    2    0    0 -0.13580954827E+02  0.19507257663E+02 -0.72060196572E+03  0.73174851364E+03  0.12499487496E+03 0.  0.
    9000005    1    3    3    0    0 -0.61071246288E+02  0.34647760324E+02 -0.53415244643E+03  0.53874855030E+03  0.10000000000E+01 0.  0.
    9000005    1    3    3    0    0  0.47490291461E+02 -0.15140502661E+02 -0.18644951929E+03  0.19299996334E+03  0.10000000000E+01 0.  0.
         21    1    1    2  502  501  0.13580954827E+02 -0.19507257663E+02 -0.97272139445E+00  0.23789107223E+02  0.00000000000E+00 0. -1.
<mgrwt>
<rscale>  1 0.12723480E+03</rscale>
<asrwt>0</asrwt>
<pdfrwt beam="1">  1        4 0.26125339E-02 0.12723480E+03</pdfrwt>
<pdfrwt beam="2">  1       -4 0.11362400E+00 0.12723480E+03</pdfrwt>
<totfact> 0.69497569E+02</totfact>
</mgrwt>
</event>
<event>
 6    4  0.5642870E-004  0.1267226E+03  0.7818608E-02  0.1232401E+00
          4   -1    0    0  502    0  0.00000000000E+00  0.00000000000E+00  0.28123692114E+02  0.28152352621E+02  0.12700000000E+01 0. -1.
         -4   -1    0    0    0  501 -0.00000000000E+00 -0.00000000000E+00 -0.19877947759E+03  0.19878353455E+03  0.12700000000E+01 0. -1.
         25    2    1    2    0    0 -0.89701890196E+01  0.18799129473E+02 -0.13173298810E+03  0.18279004121E+03  0.12499898981E+03 0.  0.
    9000005    1    3    3    0    0  0.98008087352E+01  0.70465390131E+02 -0.82986542073E+02  0.10931236537E+03  0.10000000000E+01 0.  0.
    9000005    1    3    3    0    0 -0.18770997755E+02 -0.51666260658E+02 -0.48746446023E+02  0.73477675841E+02  0.10000000000E+01 0.  0.
         21    1    1    2  502  501  0.89701890196E+01 -0.18799129473E+02 -0.38922797378E+02  0.44145845962E+02  0.00000000000E+00 0. -1.
<mgrwt>
<rscale>  1 0.12672261E+03</rscale>
<asrwt>0</asrwt>
<pdfrwt beam="1">  1        4 0.43292387E-02 0.12672261E+03</pdfrwt>
<pdfrwt beam="2">  1       -4 0.30583974E-01 0.12672261E+03</pdfrwt>
<totfact> 0.49602026E+03</totfact>
</mgrwt>
</event>
<event>
 6    4  0.5642870E-004  0.1289785E+03  0.7818608E-02  0.1228979E+00
         -4   -1    0    0    0  501 -0.00000000000E+00  0.00000000000E+00  0.95313682173E+03  0.95313766783E+03  0.12700000000E+01 0. -1.
          4   -1    0    0  502    0  0.00000000000E+00 -0.00000000000E+00 -0.67318760080E+01  0.68506243940E+01  0.12700000000E+01 0. -1.
         25    2    1    2    0    0  0.30710858141E+02  0.81954274334E+01  0.77556090899E+03  0.78621255535E+03  0.12500054721E+03 0.  0.
    9000005    1    3    3    0    0  0.23003319403E+02  0.30146212833E+02  0.75244695453E+03  0.75340252604E+03  0.10000000000E+01 0.  0.
    9000005    1    3    3    0    0  0.77075387386E+01 -0.21950785399E+02  0.23113954455E+02  0.32810029314E+02  0.10000000000E+01 0.  0.
         21    1    1    2  502  501 -0.30710858141E+02 -0.81954274334E+01  0.17084403673E+03  0.17377573687E+03  0.00000000000E+00 0. -1.
<mgrwt>
<rscale>  1 0.12897852E+03</rscale>
<asrwt>0</asrwt>
<pdfrwt beam="2">  1        4 0.10448723E-02 0.12897852E+03</pdfrwt>
<pdfrwt beam="1">  1       -4 0.14664570E+00 0.12897852E+03</pdfrwt>
<totfact> 0.15170196E+03</totfact>
</mgrwt>
</event>
<event>
 6    4  0.5642870E-004  0.1278267E+03  0.7818608E-02  0.1230717E+00
          4   -1    0    0  502    0  0.00000000000E+00  0.00000000000E+00  0.48158301779E+02  0.48175044683E+02  0.12700000000E+01 0.  1.
         -4   -1    0    0    0  501 -0.00000000000E+00 -0.00000000000E+00 -0.12976501626E+03  0.12977123081E+03  0.12700000000E+01 0.  1.
         25    2    1    2    0    0  0.18122392243E+02  0.19660114181E+02 -0.80746288624E+02  0.15119405086E+03  0.12499894679E+03 0.  0.
    9000005    1    3    3    0    0 -0.13285360657E+02 -0.48887109246E+02 -0.44897986309E+02  0.67699921956E+02  0.10000000000E+01 0.  0.
    9000005    1    3    3    0    0  0.31407752901E+02  0.68547223427E+02 -0.35848302316E+02  0.83494128900E+02  0.10000000000E+01 0.  0.
         21    1    1    2  502  501 -0.18122392243E+02 -0.19660114181E+02 -0.86042585835E+00  0.26752224635E+02  0.00000000000E+00 0.  1.
<mgrwt>
<rscale>  1 0.12782675E+03</rscale>
<asrwt>0</asrwt>
<pdfrwt beam="1">  1        4 0.74107355E-02 0.12782675E+03</pdfrwt>
<pdfrwt beam="2">  1       -4 0.19965615E-01 0.12782675E+03</pdfrwt>
<totfact> 0.45700104E+03</totfact>
</mgrwt>
</event>
<event>
 6    4  0.5642870E-004  0.1314757E+03  0.7818608E-02  0.1225282E+00
          4   -1    0    0  502    0  0.00000000000E+00  0.00000000000E+00  0.14301819925E+03  0.14302383793E+03  0.12700000000E+01 0. -1.
         -4   -1    0    0    0  501 -0.00000000000E+00 -0.00000000000E+00 -0.54463254018E+02  0.54478059237E+02  0.12700000000E+01 0. -1.
         25    2    1    2    0    0  0.33036178950E+02 -0.23896967661E+02  0.47916772360E+02  0.13993528117E+03  0.12499364648E+03 0.  0.
    9000005    1    3    3    0    0  0.70194864774E+02 -0.33657510167E+01 -0.68704298285E+01  0.70617633256E+02  0.10000000000E+01 0.  0.
    9000005    1    3    3    0    0 -0.37158685824E+02 -0.20531216644E+02  0.54787202189E+02  0.69317647917E+02  0.10000000000E+01 0.  0.
         21    1    1    2  502  501 -0.33036178950E+02  0.23896967661E+02  0.40638172873E+02  0.57566615998E+02  0.00000000000E+00 0.  1.
<mgrwt>
<rscale>  1 0.13147572E+03</rscale>
<asrwt>0</asrwt>
<pdfrwt beam="1">  1        4 0.22004372E-01 0.13147572E+03</pdfrwt>
<pdfrwt beam="2">  1       -4 0.83805348E-02 0.13147572E+03</pdfrwt>
<totfact> 0.31501066E+03</totfact>
</mgrwt>
</event>
<event>
 6    4  0.5642870E-004  0.1371430E+03  0.7818608E-02  0.1217226E+00
         -4   -1    0    0    0  501 -0.00000000000E+00  0.00000000000E+00  0.46260538897E+03  0.46260713225E+03  0.12700000000E+01 0. -1.
          4   -1    0    0  502    0  0.00000000000E+00 -0.00000000000E+00 -0.30396599088E+02  0.30423118448E+02  0.12700000000E+01 0. -1.
         25    2    1    2    0    0  0.49231243422E+02  0.27535611625E+02  0.41013442987E+03  0.43245630740E+03  0.12500512792E+03 0.  0.
    9000005    1    3    3    0    0 -0.11399229147E+02  0.57631241443E+02  0.27625901270E+03  0.28243821362E+03  0.10000000000E+01 0.  0.
    9000005    1    3    3    0    0  0.60630472569E+02 -0.30095629818E+02  0.13387541716E+03  0.15001809377E+03  0.10000000000E+01 0.  0.
         21    1    1    2  502  501 -0.49231243422E+02 -0.27535611625E+02  0.22074360015E+02  0.60573943297E+02  0.00000000000E+00 0. -1.
<mgrwt>
<rscale>  1 0.13714302E+03</rscale>
<asrwt>0</asrwt>
<pdfrwt beam="2">  1        4 0.46785743E-02 0.13714302E+03</pdfrwt>
<pdfrwt beam="1">  1       -4 0.71172228E-01 0.13714302E+03</pdfrwt>
<totfact> 0.81115581E+02</totfact>
</mgrwt>
</event>
<event>
 6    4  0.5642870E-004  0.1270587E+03  0.7818608E-02  0.1231886E+00
         -4   -1    0    0    0  501 -0.00000000000E+00  0.00000000000E+00  0.80779436710E+03  0.80779536544E+03  0.12700000000E+01 0. -1.
          4   -1    0    0  502    0  0.00000000000E+00 -0.00000000000E+00 -0.13435640862E+02  0.13495530570E+02  0.12700000000E+01 0. -1.
         25    2    1    2    0    0  0.22842709609E+01 -0.22676064514E+02  0.78722053329E+03  0.79740835858E+03  0.12499800199E+03 0.  0.
    9000005    1    3    3    0    0 -0.54015553703E+02 -0.33449484176E+02  0.28916352366E+03  0.29606264785E+03  0.10000000000E+01 0.  0.
    9000005    1    3    3    0    0  0.56299824664E+02  0.10773419663E+02  0.49805700963E+03  0.50134571073E+03  0.10000000000E+01 0.  0.
         21    1    1    2  502  501 -0.22842709609E+01  0.22676064514E+02  0.71381929556E+01  0.23882537435E+02  0.00000000000E+00 0. -1.
<mgrwt>
<rscale>  1 0.12705874E+03</rscale>
<asrwt>0</asrwt>
<pdfrwt beam="2">  1        4 0.20717046E-02 0.12705874E+03</pdfrwt>
<pdfrwt beam="1">  1       -4 0.12428078E+00 0.12705874E+03</pdfrwt>
<totfact> 0.80274227E+02</totfact>
</mgrwt>
</event>
<event>
 6    4  0.5642870E-004  0.1304694E+03  0.7818608E-02  0.1226761E+00
         -4   -1    0    0    0  501 -0.00000000000E+00  0.00000000000E+00  0.12526360909E+02  0.12590576540E+02  0.12700000000E+01 0. -1.
          4   -1    0    0  502    0  0.00000000000E+00 -0.00000000000E+00 -0.56135062088E+03  0.56135205750E+03  0.12700000000E+01 0. -1.
         25    2    1    2    0    0  0.35026960759E+02  0.13056157131E+02 -0.43400861812E+03  0.45319503434E+03  0.12499962934E+03 0.  0.
    9000005    1    3    3    0    0  0.28107151061E+02 -0.26258954045E+02 -0.34451206829E+02  0.51647170884E+02  0.10000000000E+01 0.  0.
    9000005    1    3    3    0    0  0.69198096977E+01  0.39315111176E+02 -0.39955741129E+03  0.40154786346E+03  0.10000000000E+01 0.  0.
         21    1    1    2  502  501 -0.35026960759E+02 -0.13056157131E+02 -0.11481564185E+03  0.12074759970E+03  0.00000000000E+00 0. -1.
<mgrwt>
<rscale>  1 0.13046938E+03</rscale>
<asrwt>0</asrwt>
<pdfrwt beam="2">  1        4 0.86366665E-01 0.13046938E+03</pdfrwt>
<pdfrwt beam="1">  1       -4 0.19321830E-02 0.13046938E+03</pdfrwt>
<totfact> 0.20958556E+03</totfact>
</mgrwt>
</event>
<event>
 6    4  0.5642870E-004  0.1275036E+03  0.7818608E-02  0.1231208E+00
         -4   -1    0    0    0  501 -0.00000000000E+00  0.00000000000E+00  0.41849989974E+03  0.41850182674E+03  0.12700000000E+01 0.  1.
          4   -1    0    0  502    0  0.00000000000E+00 -0.00000000000E+00 -0.14319330086E+02  0.14375538741E+02  0.12700000000E+01 0.  1.
         25    2    1    2    0    0  0.19776639714E+02  0.15518482241E+02  0.36170815127E+03  0.38352308408E+03  0.12500092221E+03 0.  0.
    9000005    1    3    3    0    0  0.49781701326E+02 -0.25352651514E+02  0.29212754136E+03  0.29742305752E+03  0.10000000000E+01 0.  0.
    9000005    1    3    3    0    0 -0.30005061612E+02  0.40871133755E+02  0.69580609911E+02  0.86100026552E+02  0.10000000000E+01 0.  0.
         21    1    1    2  502  501 -0.19776639714E+02 -0.15518482241E+02  0.42472418384E+02  0.49354281403E+02  0.00000000000E+00 0.  1.
<mgrwt>
<rscale>  1 0.12750361E+03</rscale>
<asrwt>0</asrwt>
<pdfrwt beam="2">  1        4 0.22074459E-02 0.12750361E+03</pdfrwt>
<pdfrwt beam="1">  1       -4 0.64389069E-01 0.12750361E+03</pdfrwt>
<totfact> 0.32207786E+03</totfact>
</mgrwt>
</event>
<event>
 6    4  0.5642870E-004  0.1298115E+03  0.7818608E-02  0.1227736E+00
          4   -1    0    0  502    0  0.00000000000E+00  0.00000000000E+00  0.51376629538E+03  0.51376786506E+03  0.12700000000E+01 0. -1.
         -4   -1    0    0    0  501 -0.00000000000E+00 -0.00000000000E+00 -0.13195711094E+02  0.13256684777E+02  0.12700000000E+01 0. -1.
         25    2    1    2    0    0 -0.30502935361E+02  0.17235760955E+02  0.39813232815E+03  0.41876053531E+03  0.12499413864E+03 0.  0.
    9000005    1    3    3    0    0  0.47960077340E+01  0.32972759695E+02  0.36861601048E+03  0.37012020717E+03  0.10000000000E+01 0.  0.
    9000005    1    3    3    0    0 -0.35298943095E+02 -0.15736998740E+02  0.29516317671E+02  0.48640328143E+02  0.10000000000E+01 0.  0.
         21    1    1    2  502  501  0.30502935361E+02 -0.17235760955E+02  0.10243825614E+03  0.10826401453E+03  0.00000000000E+00 0. -1.
<mgrwt>
<rscale>  1 0.12981154E+03</rscale>
<asrwt>0</asrwt>
<pdfrwt beam="1">  1        4 0.79045773E-01 0.12981154E+03</pdfrwt>
<pdfrwt beam="2">  1       -4 0.20349206E-02 0.12981154E+03</pdfrwt>
<totfact> 0.23533982E+03</totfact>
</mgrwt>
</event>
<event>
 6    4  0.5642870E-004  0.1321013E+03  0.7818608E-02  0.1224371E+00
          4   -1    0    0  502    0  0.00000000000E+00  0.00000000000E+00  0.11250778671E+03  0.11251495443E+03  0.12700000000E+01 0.  1.
         -4   -1    0    0    0  501 -0.00000000000E+00 -0.00000000000E+00 -0.68610594521E+02  0.68622347530E+02  0.12700000000E+01 0.  1.
         25    2    1    2    0    0 -0.55790197138E+01 -0.42345712727E+02  0.25065056897E+02  0.13445824706E+03  0.12500591297E+03 0.  0.
    9000005    1    3    3    0    0 -0.81395805638E+01 -0.79328645951E+02  0.45803286921E+02  0.91968624720E+02  0.10000000000E+01 0.  0.
    9000005    1    3    3    0    0  0.25605608500E+01  0.36982933224E+02 -0.20738230024E+02  0.42489622336E+02  0.10000000000E+01 0.  0.
         21    1    1    2  502  501  0.55790197138E+01  0.42345712727E+02  0.18832135296E+02  0.46679054908E+02  0.00000000000E+00 0. -1.
<mgrwt>
<rscale>  1 0.13210134E+03</rscale>
<asrwt>0</asrwt>
<pdfrwt beam="1">  1        4 0.17310346E-01 0.13210134E+03</pdfrwt>
<pdfrwt beam="2">  1       -4 0.10556932E-01 0.13210134E+03</pdfrwt>
<totfact> 0.32933688E+03</totfact>
</mgrwt>
</event>
<event>
 6    4  0.5642870E-004  0.1315896E+03  0.7818608E-02  0.1225116E+00
         -4   -1    0    0    0  501 -0.00000000000E+00  0.00000000000E+00  0.37014289185E+02  0.37036070308E+02  0.12700000000E+01 0.  1.
          4   -1    0    0  502    0  0.00000000000E+00 -0.00000000000E+00 -0.27102363291E+03  0.27102660847E+03  0.12700000000E+01 0.  1.
         25    2    1    2    0    0 -0.41098081165E+02 -0.16275847279E+01 -0.92892555931E+02  0.16107407682E+03  0.12499651982E+03 0.  0.
    9000005    1    3    3    0    0 -0.19043023358E+02  0.13699663694E+00  0.30357316902E+02  0.35849995763E+02  0.10000000000E+01 0.  0.
    9000005    1    3    3    0    0 -0.22055057807E+02 -0.17645813649E+01 -0.12324987283E+03  0.12522408105E+03  0.10000000000E+01 0.  0.
         21    1    1    2  502  501  0.41098081165E+02  0.16275847279E+01 -0.14111678780E+03  0.14698860196E+03  0.00000000000E+00 0. -1.
<mgrwt>
<rscale>  1 0.13158963E+03</rscale>
<asrwt>0</asrwt>
<pdfrwt beam="2">  1        4 0.41697847E-01 0.13158963E+03</pdfrwt>
<pdfrwt beam="1">  1       -4 0.56964106E-02 0.13158963E+03</pdfrwt>
<totfact> 0.17689061E+03</totfact>
</mgrwt>
</event>
<event>
 6    4  0.5642870E-004  0.1335035E+03  0.7818608E-02  0.1222348E+00
          4   -1    0    0  502    0  0.00000000000E+00  0.00000000000E+00  0.24406430364E+03  0.24406760787E+03  0.12700000000E+01 0.  1.
         -4   -1    0    0    0  501 -0.00000000000E+00 -0.00000000000E+00 -0.43908587142E+02  0.43926949869E+02  0.12700000000E+01 0.  1.
         25    2    1    2    0    0 -0.25335139590E+02 -0.39434579352E+02  0.72312382746E+02  0.15182968220E+03  0.12500486531E+03 0.  0.
    9000005    1    3    3    0    0 -0.46434199174E+02  0.14734546032E+02  0.79501099054E+02  0.93245195321E+02  0.10000000000E+01 0.  0.
    9000005    1    3    3    0    0  0.21099059584E+02 -0.54169125384E+02 -0.71887163082E+01  0.58584486874E+02  0.10000000000E+01 0.  0.
         21    1    1    2  502  501  0.25335139590E+02  0.39434579352E+02  0.12784333375E+03  0.13616487554E+03  0.00000000000E+00 0.  1.
<mgrwt>
<rscale>  1 0.13350345E+03</rscale>
<asrwt>0</asrwt>
<pdfrwt beam="1">  1        4 0.37550022E-01 0.13350345E+03</pdfrwt>
<pdfrwt beam="2">  1       -4 0.67568338E-02 0.13350345E+03</pdfrwt>
<totfact> 0.16510476E+03</totfact>
</mgrwt>
</event>
<event>
 6    4  0.5642870E-004  0.1274974E+03  0.7818608E-02  0.1231217E+00
         -4   -1    0    0    0  501 -0.00000000000E+00  0.00000000000E+00  0.62656288474E+03  0.62656417184E+03  0.12700000000E+01 0. -1.
          4   -1    0    0  502    0  0.00000000000E+00 -0.00000000000E+00 -0.10120811804E+02  0.10200182919E+02  0.12700000000E+01 0. -1.
         25    2    1    2    0    0  0.25064227509E+02 -0.13873513956E+01  0.56879247538E+03  0.58290690967E+03  0.12500178017E+03 0.  0.
    9000005    1    3    3    0    0 -0.11569390862E+02  0.12779482888E+02  0.53230855093E+01  0.18069344956E+02  0.10000000000E+01 0.  0.
    9000005    1    3    3    0    0  0.36633618371E+02 -0.14166834283E+02  0.56346938987E+03  0.56483756471E+03  0.10000000000E+01 0.  0.
         21    1    1    2  502  501 -0.25064227509E+02  0.13873513956E+01  0.47649597561E+02  0.53857445096E+02  0.00000000000E+00 0.  1.
<mgrwt>
<rscale>  1 0.12749739E+03</rscale>
<asrwt>0</asrwt>
<pdfrwt beam="2">  1        4 0.15632523E-02 0.12749739E+03</pdfrwt>
<pdfrwt beam="1">  1       -4 0.96400505E-01 0.12749739E+03</pdfrwt>
<totfact> 0.22484236E+03</totfact>
</mgrwt>
</event>
<event>
 6    4  0.5642870E-004  0.1378198E+03  0.7818608E-02  0.1216293E+00
          4   -1    0    0  502    0  0.00000000000E+00  0.00000000000E+00  0.53726428472E+03  0.53726578575E+03  0.12700000000E+01 0. -1.
         -4   -1    0    0    0  501 -0.00000000000E+00 -0.00000000000E+00 -0.37137024103E+02  0.37158733283E+02  0.12700000000E+01 0. -1.
         25    2    1    2    0    0  0.28524646821E+02  0.50555919276E+02  0.10041965784E+03  0.17052388253E+03  0.12499892152E+03 0.  0.
    9000005    1    3    3    0    0 -0.28190313305E+02  0.19801727975E+01 -0.15789546613E+02  0.32387105934E+02  0.10000000000E+01 0.  0.
    9000005    1    3    3    0    0  0.56714960127E+02  0.48575746478E+02  0.11620920445E+03  0.13813677660E+03  0.10000000000E+01 0.  0.
         21    1    1    2  502  501 -0.28524646821E+02 -0.50555919276E+02  0.39970760277E+03  0.40390063650E+03  0.00000000000E+00 0. -1.
<mgrwt>
<rscale>  1 0.13781976E+03</rscale>
<asrwt>0</asrwt>
<pdfrwt beam="1">  1        4 0.82657831E-01 0.13781976E+03</pdfrwt>
<pdfrwt beam="2">  1       -4 0.57151736E-02 0.13781976E+03</pdfrwt>
<totfact> 0.42352677E+02</totfact>
</mgrwt>
</event>
<event>
 6    4  0.5642870E-004  0.1278630E+03  0.7818608E-02  0.1230662E+00
         -4   -1    0    0    0  501 -0.00000000000E+00  0.00000000000E+00  0.81843020824E+01  0.82822521440E+01  0.12700000000E+01 0. -1.
          4   -1    0    0  502    0  0.00000000000E+00 -0.00000000000E+00 -0.72869623870E+03  0.72869734540E+03  0.12700000000E+01 0. -1.
         25    2    1    2    0    0 -0.13702394026E+02  0.23096712683E+02 -0.60921632633E+03  0.62248974381E+03  0.12501094010E+03 0.  0.
    9000005    1    3    3    0    0 -0.52396629325E+02  0.54999051611E+02 -0.31522445180E+03  0.32424952961E+03  0.10000000000E+01 0.  0.
    9000005    1    3    3    0    0  0.38694235299E+02 -0.31902338928E+02 -0.29399187453E+03  0.29824021420E+03  0.10000000000E+01 0.  0.
         21    1    1    2  502  501  0.13702394026E+02 -0.23096712683E+02 -0.11129561028E+03  0.11448985373E+03  0.00000000000E+00 0. -1.
<mgrwt>
<rscale>  1 0.12786301E+03</rscale>
<asrwt>0</asrwt>
<pdfrwt beam="2">  1        4 0.11211468E+00 0.12786301E+03</pdfrwt>
<pdfrwt beam="1">  1       -4 0.12667437E-02 0.12786301E+03</pdfrwt>
<totfact> 0.21791562E+03</totfact>
</mgrwt>
</event>
<event>
 6    4  0.5642870E-004  0.1338148E+03  0.7818608E-02  0.1221903E+00
         -4   -1    0    0    0  501 -0.00000000000E+00  0.00000000000E+00  0.20167012920E+03  0.20167412802E+03  0.12700000000E+01 0. -1.
          4   -1    0    0  502    0  0.00000000000E+00 -0.00000000000E+00 -0.46157008850E+02  0.46174477431E+02  0.12700000000E+01 0. -1.
         25    2    1    2    0    0 -0.97102282579E+01  0.46764235861E+02  0.14795588645E+03  0.19949269503E+03  0.12500083498E+03 0.  0.
    9000005    1    3    3    0    0  0.49665204205E+02  0.54134798958E+02  0.90079786924E+02  0.11624361049E+03  0.10000000000E+01 0.  0.
    9000005    1    3    3    0    0 -0.59375432463E+02 -0.73705630972E+01  0.57876099530E+02  0.83249084544E+02  0.10000000000E+01 0.  0.
         21    1    1    2  502  501  0.97102282579E+01 -0.46764235861E+02  0.75572339004E+01  0.48355910421E+02  0.00000000000E+00 0. -1.
<mgrwt>
<rscale>  1 0.13381476E+03</rscale>
<asrwt>0</asrwt>
<pdfrwt beam="2">  1        4 0.71027296E-02 0.13381476E+03</pdfrwt>
<pdfrwt beam="1">  1       -4 0.31027825E-01 0.13381476E+03</pdfrwt>
<totfact> 0.21965977E+03</totfact>
</mgrwt>
</event>
<event>
 6    4  0.5642870E-004  0.1281052E+03  0.7818608E-02  0.1230295E+00
         -4   -1    0    0    0  501 -0.00000000000E+00  0.00000000000E+00  0.59105987622E+02  0.59119630181E+02  0.12700000000E+01 0. -1.
          4   -1    0    0  502    0  0.00000000000E+00 -0.00000000000E+00 -0.12547625609E+03  0.12548268304E+03  0.12700000000E+01 0. -1.
         25    2    1    2    0    0 -0.68689411708E+01 -0.27178383787E+02 -0.18926788398E+02  0.12949577369E+03  0.12500034074E+03 0.  0.
    9000005    1    3    3    0    0 -0.63330845525E+02  0.37787472068E+01 -0.13471402056E+02  0.64865658084E+02  0.10000000000E+01 0.  0.
    9000005    1    3    3    0    0  0.56461904354E+02 -0.30957130994E+02 -0.54553863418E+01  0.64630115602E+02  0.10000000000E+01 0.  0.
         21    1    1    2  502  501  0.68689411708E+01  0.27178383787E+02 -0.47443480070E+02  0.55106539532E+02  0.00000000000E+00 0. -1.
<mgrwt>
<rscale>  1 0.12810516E+03</rscale>
<asrwt>0</asrwt>
<pdfrwt beam="2">  1        4 0.19305583E-01 0.12810516E+03</pdfrwt>
<pdfrwt beam="1">  1       -4 0.90947727E-02 0.12810516E+03</pdfrwt>
<totfact> 0.34586346E+03</totfact>
</mgrwt>
</event>
<event>
 6    4  0.5642870E-004  0.1268056E+03  0.7818608E-02  0.1232274E+00
         -4   -1    0    0    0  501 -0.00000000000E+00  0.00000000000E+00  0.19616572200E+02  0.19657639861E+02  0.12700000000E+01 0.  1.
          4   -1    0    0  502    0  0.00000000000E+00 -0.00000000000E+00 -0.29963584214E+03  0.29963853357E+03  0.12700000000E+01 0.  1.
         25    2    1    2    0    0 -0.21257241090E+02 -0.15417752717E+01 -0.20272521329E+03  0.23911750691E+03  0.12500169055E+03 0.  0.
    9000005    1    3    3    0    0 -0.46637378751E+02  0.14841909087E+02 -0.18345837349E+02  0.52277118418E+02  0.10000000000E+01 0.  0.
    9000005    1    3    3    0    0  0.25380137661E+02 -0.16383684359E+02 -0.18437937594E+03  0.18684038849E+03  0.10000000000E+01 0.  0.
         21    1    1    2  502  501  0.21257241090E+02  0.15417752717E+01 -0.77294056656E+02  0.80178666515E+02  0.00000000000E+00 0.  1.
<mgrwt>
<rscale>  1 0.12680564E+03</rscale>
<asrwt>0</asrwt>
<pdfrwt beam="2">  1        4 0.46101184E-01 0.12680564E+03</pdfrwt>
<pdfrwt beam="1">  1       -4 0.30213005E-02 0.12680564E+03</pdfrwt>
<totfact> 0.39353856E+03</totfact>
</mgrwt>
</event>
<event>
 6    4  0.5642870E-004  0.1288182E+03  0.7818608E-02  0.1229220E+00
         -4   -1    0    0    0  501 -0.00000000000E+00  0.00000000000E+00  0.10202843478E+04  0.10202851382E+04  0.12700000000E+01 0.  1.
          4   -1    0    0  502    0  0.00000000000E+00 -0.00000000000E+00 -0.63928020283E+01  0.65177310295E+01  0.12700000000E+01 0.  1.
         25    2    1    2    0    0  0.15876630914E+02  0.26786688813E+02  0.87729733704E+03  0.88670443254E+03  0.12499815604E+03 0.  0.
    9000005    1    3    3    0    0  0.27687112035E+02  0.19746780908E+02  0.87079978763E+03  0.87146415971E+03  0.10000000000E+01 0.  0.
    9000005    1    3    3    0    0 -0.11810481120E+02  0.70399079058E+01  0.64975494072E+01  0.15240272829E+02  0.10000000000E+01 0.  0.
         21    1    1    2  502  501 -0.15876630914E+02 -0.26786688813E+02  0.13659420873E+03  0.14009843670E+03  0.00000000000E+00 0.  1.
<mgrwt>
<rscale>  1 0.12881822E+03</rscale>
<asrwt>0</asrwt>
<pdfrwt beam="2">  1        4 0.99317842E-03 0.12881822E+03</pdfrwt>
<pdfrwt beam="1">  1       -4 0.15697654E+00 0.12881822E+03</pdfrwt>
<totfact> 0.13759475E+03</totfact>
</mgrwt>
</event>
<event>
 6    4  0.5642870E-004  0.1276970E+03  0.7818608E-02  0.1230914E+00
          4   -1    0    0  502    0  0.00000000000E+00  0.00000000000E+00  0.13278646922E+02  0.13339241510E+02  0.12700000000E+01 0.  1.
         -4   -1    0    0    0  501 -0.00000000000E+00 -0.00000000000E+00 -0.45479290229E+03  0.45479467552E+03  0.12700000000E+01 0.  1.
         25    2    1    2    0    0  0.22018467373E+02  0.13967133531E+02 -0.39038778520E+03  0.41074219570E+03  0.12500653891E+03 0.  0.
    9000005    1    3    3    0    0  0.23626404053E+01 -0.28585953350E+02 -0.14898727617E+02  0.32337453258E+02  0.10000000000E+01 0.  0.
    9000005    1    3    3    0    0  0.19655826968E+02  0.42553086881E+02 -0.37548905759E+03  0.37840474244E+03  0.10000000000E+01 0.  0.
         21    1    1    2  502  501 -0.22018467373E+02 -0.13967133531E+02 -0.51126470169E+02  0.57391721324E+02  0.00000000000E+00 0. -1.
<mgrwt>
<rscale>  1 0.12769702E+03</rscale>
<asrwt>0</asrwt>
<pdfrwt beam="1">  1        4 0.20476666E-02 0.12769702E+03</pdfrwt>
<pdfrwt beam="2">  1       -4 0.69972924E-01 0.12769702E+03</pdfrwt>
<totfact> 0.30283105E+03</totfact>
</mgrwt>
</event>
<event>
 6    4  0.5642870E-004  0.1272940E+03  0.7818608E-02  0.1231527E+00
         -4   -1    0    0    0  501 -0.00000000000E+00  0.00000000000E+00  0.40808858283E+02  0.40828615141E+02  0.12700000000E+01 0.  1.
          4   -1    0    0  502    0  0.00000000000E+00 -0.00000000000E+00 -0.14407542753E+03  0.14408102484E+03  0.12700000000E+01 0.  1.
         25    2    1    2    0    0 -0.20765178990E+02  0.12194898500E+02 -0.96961696481E+02  0.16001667655E+03  0.12499543184E+03 0.  0.
    9000005    1    3    3    0    0  0.25953941468E+02  0.55514028611E+02 -0.32484655889E+02  0.69366182817E+02  0.10000000000E+01 0.  0.
    9000005    1    3    3    0    0 -0.46719120457E+02 -0.43319130111E+02 -0.64477040592E+02  0.90650493729E+02  0.10000000000E+01 0.  0.
         21    1    1    2  502  501  0.20765178990E+02 -0.12194898500E+02 -0.63048727689E+01  0.24892963434E+02  0.00000000000E+00 0.  1.
<mgrwt>
<rscale>  1 0.12729401E+03</rscale>
<asrwt>0</asrwt>
<pdfrwt beam="2">  1        4 0.22167400E-01 0.12729401E+03</pdfrwt>
<pdfrwt beam="1">  1       -4 0.62802363E-02 0.12729401E+03</pdfrwt>
<totfact> 0.49547974E+03</totfact>
</mgrwt>
</event>
<event>
 6    4  0.5642870E-004  0.1457900E+03  0.7818608E-02  0.1205744E+00
          4   -1    0    0  502    0  0.00000000000E+00  0.00000000000E+00  0.70278286827E+02  0.70289760986E+02  0.12700000000E+01 0.  1.
         -4   -1    0    0    0  501 -0.00000000000E+00 -0.00000000000E+00 -0.17396091888E+03  0.17396555463E+03  0.12700000000E+01 0.  1.
         25    2    1    2    0    0  0.46100226885E+02  0.59205903792E+02 -0.74722186403E+02  0.16382349744E+03  0.12499665279E+03 0.  0.
    9000005    1    3    3    0    0  0.71706437475E+02 -0.19459434549E+01 -0.12353640621E+02  0.72795688800E+02  0.10000000000E+01 0.  0.
    9000005    1    3    3    0    0 -0.25606210589E+02  0.61151847247E+02 -0.62368545783E+02  0.91027808639E+02  0.10000000000E+01 0.  0.
         21    1    1    2  502  501 -0.46100226885E+02 -0.59205903792E+02 -0.28960445647E+02  0.80431818174E+02  0.00000000000E+00 0.  1.
<mgrwt>
<rscale>  1 0.14579003E+03</rscale>
<asrwt>0</asrwt>
<pdfrwt beam="1">  1        4 0.10813283E-01 0.14579003E+03</pdfrwt>
<pdfrwt beam="2">  1       -4 0.26764457E-01 0.14579003E+03</pdfrwt>
<totfact> 0.14651551E+03</totfact>
</mgrwt>
</event>
<event>
 6    4  0.5642870E-004  0.1279583E+03  0.7818608E-02  0.1230517E+00
         -4   -1    0    0    0  501 -0.00000000000E+00  0.00000000000E+00  0.29142019153E+03  0.29142295883E+03  0.12700000000E+01 0. -1.
          4   -1    0    0  502    0  0.00000000000E+00 -0.00000000000E+00 -0.25208097843E+02  0.25240069272E+02  0.12700000000E+01 0. -1.
         25    2    1    2    0    0 -0.27056403819E+02  0.40596667487E+01  0.25817901235E+03  0.28814881625E+03  0.12499923202E+03 0.  0.
    9000005    1    3    3    0    0 -0.14547310274E+02  0.64420319573E+02  0.12439635453E+03  0.14084407985E+03  0.10000000000E+01 0.  0.
    9000005    1    3    3    0    0 -0.12509093544E+02 -0.60360652824E+02  0.13378265782E+03  0.14730473639E+03  0.10000000000E+01 0.  0.
         21    1    1    2  502  501  0.27056403819E+02 -0.40596667487E+01  0.80330813390E+01  0.28514211851E+02  0.00000000000E+00 0. -1.
<mgrwt>
<rscale>  1 0.12795834E+03</rscale>
<asrwt>0</asrwt>
<pdfrwt beam="2">  1        4 0.38808411E-02 0.12795834E+03</pdfrwt>
<pdfrwt beam="1">  1       -4 0.44836548E-01 0.12795834E+03</pdfrwt>
<totfact> 0.28118280E+03</totfact>
</mgrwt>
</event>
<event>
 6    4  0.5642870E-004  0.1275735E+03  0.7818608E-02  0.1231101E+00
         -4   -1    0    0    0  501 -0.00000000000E+00  0.00000000000E+00  0.28872837321E+02  0.28900754921E+02  0.12700000000E+01 0. -1.
          4   -1    0    0  502    0  0.00000000000E+00 -0.00000000000E+00 -0.21460022863E+03  0.21460398652E+03  0.12700000000E+01 0. -1.
         25    2    1    2    0    0  0.15814991610E+02  0.19998503362E+02 -0.12958422959E+03  0.18184349993E+03  0.12499972725E+03 0.  0.
    9000005    1    3    3    0    0 -0.99919218006E+01 -0.21667422800E+02 -0.13064638413E+03  0.13281111925E+03  0.10000000000E+01 0.  0.
    9000005    1    3    3    0    0  0.25806913411E+02  0.41665926162E+02  0.10621545337E+01  0.49032380678E+02  0.10000000000E+01 0.  0.
         21    1    1    2  502  501 -0.15814991610E+02 -0.19998503362E+02 -0.56143161718E+02  0.61661241506E+02  0.00000000000E+00 0. -1.
<mgrwt>
<rscale>  1 0.12757345E+03</rscale>
<asrwt>0</asrwt>
<pdfrwt beam="2">  1        4 0.33017855E-01 0.12757345E+03</pdfrwt>
<pdfrwt beam="1">  1       -4 0.44444117E-02 0.12757345E+03</pdfrwt>
<totfact> 0.41191025E+03</totfact>
</mgrwt>
</event>
<event>
 6    4  0.5642870E-004  0.1453784E+03  0.7818608E-02  0.1206270E+00
          4   -1    0    0  502    0  0.00000000000E+00  0.00000000000E+00  0.17618851271E+02  0.17664563966E+02  0.12700000000E+01 0. -1.
         -4   -1    0    0    0  501 -0.00000000000E+00 -0.00000000000E+00 -0.70421581242E+03  0.70421695759E+03  0.12700000000E+01 0. -1.
         25    2    1    2    0    0 -0.83390554684E+01  0.73753579771E+02 -0.51011779717E+03  0.53042911052E+03  0.12500297564E+03 0.  0.
    9000005    1    3    3    0    0  0.48706931667E+01  0.62591657733E+02 -0.88803931243E+02  0.10875926385E+03  0.10000000000E+01 0.  0.
    9000005    1    3    3    0    0 -0.13209748635E+02  0.11161922038E+02 -0.42131386593E+03  0.42166984667E+03  0.10000000000E+01 0.  0.
         21    1    1    2  502  501  0.83390554684E+01 -0.73753579771E+02 -0.17647916397E+03  0.19145241104E+03  0.00000000000E+00 0. -1.
<mgrwt>
<rscale>  1 0.14537838E+03</rscale>
<asrwt>0</asrwt>
<pdfrwt beam="1">  1        4 0.27141975E-02 0.14537838E+03</pdfrwt>
<pdfrwt beam="2">  1       -4 0.10834448E+00 0.14537838E+03</pdfrwt>
<totfact> 0.75233077E+02</totfact>
</mgrwt>
</event>
<event>
 6    4  0.5642870E-004  0.1300207E+03  0.7818608E-02  0.1227425E+00
          4   -1    0    0  502    0  0.00000000000E+00  0.00000000000E+00  0.69087740835E+02  0.69099412687E+02  0.12700000000E+01 0.  1.
         -4   -1    0    0    0  501 -0.00000000000E+00 -0.00000000000E+00 -0.10172186006E+03  0.10172978774E+03  0.12700000000E+01 0.  1.
         25    2    1    2    0    0 -0.30557761582E+02  0.18606725765E+02 -0.35949370447E+02  0.13489901914E+03  0.12500160436E+03 0.  0.
    9000005    1    3    3    0    0 -0.73231772652E+02  0.26255861820E+01  0.52307294271E+01  0.73472081493E+02  0.10000000000E+01 0.  0.
    9000005    1    3    3    0    0  0.42674011070E+02  0.15981139583E+02 -0.41180099874E+02  0.61426937648E+02  0.10000000000E+01 0.  0.
         21    1    1    2  502  501  0.30557761582E+02 -0.18606725765E+02  0.33152512238E+01  0.35930181287E+02  0.00000000000E+00 0.  1.
<mgrwt>
<rscale>  1 0.13002072E+03</rscale>
<asrwt>0</asrwt>
<pdfrwt beam="1">  1        4 0.10630391E-01 0.13002072E+03</pdfrwt>
<pdfrwt beam="2">  1       -4 0.15651024E-01 0.13002072E+03</pdfrwt>
<totfact> 0.38718474E+03</totfact>
</mgrwt>
</event>
<event>
 6    4  0.5642870E-004  0.1334041E+03  0.7818608E-02  0.1222490E+00
         -4   -1    0    0    0  501 -0.00000000000E+00  0.00000000000E+00  0.11117648560E+02  0.11189951273E+02  0.12700000000E+01 0.  1.
          4   -1    0    0  502    0  0.00000000000E+00 -0.00000000000E+00 -0.77582691344E+03  0.77582795291E+03  0.12700000000E+01 0.  1.
         25    2    1    2    0    0  0.43986995070E+02  0.15372333002E+02 -0.64302385821E+03  0.65671632110E+03  0.12500191925E+03 0.  0.
    9000005    1    3    3    0    0 -0.10074779938E+02  0.14288687951E+02 -0.54066485939E+03  0.54094838754E+03  0.10000000000E+01 0.  0.
    9000005    1    3    3    0    0  0.54061775008E+02  0.10836450507E+01 -0.10235899882E+03  0.11576793357E+03  0.10000000000E+01 0.  0.
         21    1    1    2  502  501 -0.43986995070E+02 -0.15372333002E+02 -0.12168540667E+03  0.13030158308E+03  0.00000000000E+00 0.  1.
<mgrwt>
<rscale>  1 0.13340406E+03</rscale>
<asrwt>0</asrwt>
<pdfrwt beam="2">  1        4 0.11936359E+00 0.13340406E+03</pdfrwt>
<pdfrwt beam="1">  1       -4 0.17160498E-02 0.13340406E+03</pdfrwt>
<totfact> 0.11939198E+03</totfact>
</mgrwt>
</event>
<event>
 6    4  0.5642870E-004  0.1387320E+03  0.7818608E-02  0.1215045E+00
          4   -1    0    0  502    0  0.00000000000E+00  0.00000000000E+00  0.39892564932E+03  0.39892767087E+03  0.12700000000E+01 0.  1.
         -4   -1    0    0    0  501 -0.00000000000E+00 -0.00000000000E+00 -0.29443787569E+02  0.29471164320E+02  0.12700000000E+01 0.  1.
         25    2    1    2    0    0 -0.17018141182E+02  0.57711674595E+02  0.16668860775E+03  0.21686784837E+03  0.12500526865E+03 0.  0.
    9000005    1    3    3    0    0 -0.43489298091E+02  0.38339545610E+02  0.12619284438E+02  0.59342111066E+02  0.10000000000E+01 0.  0.
    9000005    1    3    3    0    0  0.26471156908E+02  0.19372128985E+02  0.15406932331E+03  0.15752573731E+03  0.10000000000E+01 0.  0.
         21    1    1    2  502  501  0.17018141182E+02 -0.57711674595E+02  0.20279325400E+03  0.21153098682E+03  0.00000000000E+00 0. -1.
<mgrwt>
<rscale>  1 0.13873201E+03</rscale>
<asrwt>0</asrwt>
<pdfrwt beam="1">  1        4 0.61375438E-01 0.13873201E+03</pdfrwt>
<pdfrwt beam="2">  1       -4 0.45320749E-02 0.13873201E+03</pdfrwt>
<totfact> 0.11739756E+03</totfact>
</mgrwt>
</event>
<event>
 6    4  0.5642870E-004  0.1299621E+03  0.7818608E-02  0.1227512E+00
         -4   -1    0    0    0  501 -0.00000000000E+00  0.00000000000E+00  0.16293625777E+03  0.16294120718E+03  0.12700000000E+01 0.  1.
          4   -1    0    0  502    0  0.00000000000E+00 -0.00000000000E+00 -0.72218743661E+02  0.72229909566E+02  0.12700000000E+01 0.  1.
         25    2    1    2    0    0  0.25540892079E+02 -0.24727934883E+02  0.12886962682E+03  0.18302333026E+03  0.12500540296E+03 0.  0.
    9000005    1    3    3    0    0 -0.22022644143E+02  0.31297837333E+01 -0.16393624675E+02  0.27650376693E+02  0.10000000000E+01 0.  0.
    9000005    1    3    3    0    0  0.47563536222E+02 -0.27857718616E+02  0.14526325149E+03  0.15537295356E+03  0.10000000000E+01 0.  0.
         21    1    1    2  502  501 -0.25540892079E+02  0.24727934883E+02 -0.38152112706E+02  0.52147786489E+02  0.00000000000E+00 0.  1.
<mgrwt>
<rscale>  1 0.12996214E+03</rscale>
<asrwt>0</asrwt>
<pdfrwt beam="2">  1        4 0.11111816E-01 0.12996214E+03</pdfrwt>
<pdfrwt beam="1">  1       -4 0.25068356E-01 0.12996214E+03</pdfrwt>
<totfact> 0.15409109E+03</totfact>
</mgrwt>
</event>
<event>
 6    4  0.5642870E-004  0.1291085E+03  0.7818608E-02  0.1228785E+00
         -4   -1    0    0    0  501 -0.00000000000E+00  0.00000000000E+00  0.88344677931E+02  0.88353805910E+02  0.12700000000E+01 0.  1.
          4   -1    0    0  502    0  0.00000000000E+00 -0.00000000000E+00 -0.15250378218E+03  0.15250907016E+03  0.12700000000E+01 0.  1.
         25    2    1    2    0    0 -0.12836603629E+02 -0.29650392999E+02  0.37295826425E+02  0.13438739928E+03  0.12500028088E+03 0.  0.
    9000005    1    3    3    0    0  0.32891635221E+02 -0.24666354958E+02 -0.31375638879E+02  0.51727356877E+02  0.10000000000E+01 0.  0.
    9000005    1    3    3    0    0 -0.45728238850E+02 -0.49840380412E+01  0.68671465304E+02  0.82660042406E+02  0.10000000000E+01 0.  0.
         21    1    1    2  502  501  0.12836603629E+02  0.29650392999E+02 -0.10145493068E+03  0.10647547678E+03  0.00000000000E+00 0. -1.
<mgrwt>
<rscale>  1 0.12910846E+03</rscale>
<asrwt>0</asrwt>
<pdfrwt beam="2">  1        4 0.23463229E-01 0.12910846E+03</pdfrwt>
<pdfrwt beam="1">  1       -4 0.13592598E-01 0.12910846E+03</pdfrwt>
<totfact> 0.12304603E+03</totfact>
</mgrwt>
</event>
<event>
 6    4  0.5642870E-004  0.1274522E+03  0.7818608E-02  0.1231286E+00
         -4   -1    0    0    0  501 -0.00000000000E+00  0.00000000000E+00  0.11089752655E+02  0.11162236064E+02  0.12700000000E+01 0. -1.
          4   -1    0    0  502    0  0.00000000000E+00 -0.00000000000E+00 -0.16742827804E+04  0.16742832621E+04  0.12700000000E+01 0. -1.
         25    2    1    2    0    0 -0.58041831472E+01 -0.24008621137E+02 -0.35785899954E+03  0.37987779494E+03  0.12503588727E+03 0.  0.
    9000005    1    3    3    0    0 -0.49894255767E+02 -0.42692702498E+02 -0.28652973932E+03  0.29395985291E+03  0.10000000000E+01 0.  0.
    9000005    1    3    3    0    0  0.44090072620E+02  0.18684081361E+02 -0.71329260219E+02  0.85917942034E+02  0.10000000000E+01 0.  0.
         21    1    1    2  502  501  0.58041831472E+01  0.24008621137E+02 -0.13053340282E+04  0.13055677032E+04  0.00000000000E+00 0. -1.
<mgrwt>
<rscale>  1 0.12745225E+03</rscale>
<asrwt>0</asrwt>
<pdfrwt beam="2">  1        4 0.25758738E+00 0.12745225E+03</pdfrwt>
<pdfrwt beam="1">  1       -4 0.17117298E-02 0.12745225E+03</pdfrwt>
<totfact> 0.14279876E+02</totfact>
</mgrwt>
</event>
<event>
 6    4  0.5642870E-004  0.1267423E+03  0.7818608E-02  0.1232371E+00
         -4   -1    0    0    0  501 -0.00000000000E+00  0.00000000000E+00  0.19534753283E+02  0.19575992588E+02  0.12700000000E+01 0.  1.
          4   -1    0    0  502    0  0.00000000000E+00 -0.00000000000E+00 -0.28685064361E+03  0.28685345499E+03  0.12700000000E+01 0.  1.
         25    2    1    2    0    0 -0.71288220366E+01  0.19666348429E+02 -0.20844707909E+03  0.24395447419E+03  0.12500406125E+03 0.  0.
    9000005    1    3    3    0    0  0.43839739678E+02  0.49996350405E+01 -0.17671170417E+03  0.18213990643E+03  0.10000000000E+01 0.  0.
    9000005    1    3    3    0    0 -0.50968561714E+02  0.14666713388E+02 -0.31735374923E+02  0.61814567752E+02  0.10000000000E+01 0.  0.
         21    1    1    2  502  501  0.71288220366E+01 -0.19666348429E+02 -0.58868811237E+02  0.62474973394E+02  0.00000000000E+00 0.  1.
<mgrwt>
<rscale>  1 0.12674226E+03</rscale>
<asrwt>0</asrwt>
<pdfrwt beam="2">  1        4 0.44134254E-01 0.12674226E+03</pdfrwt>
<pdfrwt beam="1">  1       -4 0.30087354E-02 0.12674226E+03</pdfrwt>
<totfact> 0.43217580E+03</totfact>
</mgrwt>
</event>
<event>
 6    4  0.5642870E-004  0.1272078E+03  0.7818608E-02  0.1231659E+00
          4   -1    0    0  502    0  0.00000000000E+00  0.00000000000E+00  0.60059757000E+03  0.60059891274E+03  0.12700000000E+01 0.  1.
         -4   -1    0    0    0  501 -0.00000000000E+00 -0.00000000000E+00 -0.16709991919E+02  0.16758183969E+02  0.12700000000E+01 0.  1.
         25    2    1    2    0    0 -0.19734800121E+02 -0.12844268299E+02  0.23120462447E+03  0.26388898877E+03  0.12500952945E+03 0.  0.
    9000005    1    3    3    0    0  0.35499942652E+02 -0.47175727103E+02  0.13928280599E+03  0.15128283181E+03  0.10000000000E+01 0.  0.
    9000005    1    3    3    0    0 -0.55234742773E+02  0.34331458803E+02  0.91921818476E+02  0.11260615696E+03  0.10000000000E+01 0.  0.
         21    1    1    2  502  501  0.19734800121E+02  0.12844268299E+02  0.35268295361E+03  0.35346810794E+03  0.00000000000E+00 0.  1.
<mgrwt>
<rscale>  1 0.12720778E+03</rscale>
<asrwt>0</asrwt>
<pdfrwt beam="1">  1        4 0.92403429E-01 0.12720778E+03</pdfrwt>
<pdfrwt beam="2">  1       -4 0.25745786E-02 0.12720778E+03</pdfrwt>
<totfact> 0.11484422E+03</totfact>
</mgrwt>
</event>
<event>
 6    4  0.5642870E-004  0.1399025E+03  0.7818608E-02  0.1213460E+00
          4   -1    0    0  502    0  0.00000000000E+00  0.00000000000E+00  0.17054381161E+04  0.17054385889E+04  0.12700000000E+01 0.  1.
         -4   -1    0    0    0  501 -0.00000000000E+00 -0.00000000000E+00 -0.69729383720E+01  0.70876490841E+01  0.12700000000E+01 0.  1.
         25    2    1    2    0    0 -0.12578017532E+02  0.61557670364E+02  0.82273980522E+03  0.83454988224E+03  0.12500066222E+03 0.  0.
    9000005    1    3    3    0    0 -0.26063788718E+02  0.14067884633E+02  0.71949429279E+03  0.72010434231E+03  0.10000000000E+01 0.  0.
    9000005    1    3    3    0    0  0.13485771185E+02  0.47489785731E+02  0.10324551243E+03  0.11444553993E+03  0.10000000000E+01 0.  0.
         21    1    1    2  502  501  0.12578017532E+02 -0.61557670364E+02  0.87572537246E+03  0.87797635577E+03  0.00000000000E+00 0.  1.
<mgrwt>
<rscale>  1 0.13990253E+03</rscale>
<asrwt>0</asrwt>
<pdfrwt beam="1">  1        4 0.26238420E+00 0.13990253E+03</pdfrwt>
<pdfrwt beam="2">  1       -4 0.10816190E-02 0.13990253E+03</pdfrwt>
<totfact> 0.27275916E+02</totfact>
</mgrwt>
</event>
<event>
 6    4  0.5642870E-004  0.1274671E+03  0.7818608E-02  0.1231263E+00
         -4   -1    0    0    0  501 -0.00000000000E+00  0.00000000000E+00  0.14591547019E+03  0.14592099691E+03  0.12700000000E+01 0. -1.
          4   -1    0    0  502    0  0.00000000000E+00 -0.00000000000E+00 -0.39954687773E+02  0.39974866792E+02  0.12700000000E+01 0. -1.
         25    2    1    2    0    0  0.14832159990E+02 -0.20087003428E+02  0.84120466884E+02  0.15272237943E+03  0.12499756619E+03 0.  0.
    9000005    1    3    3    0    0  0.69172999335E+02 -0.21889297295E+02  0.54897549121E+02  0.90987834750E+02  0.10000000000E+01 0.  0.
    9000005    1    3    3    0    0 -0.54340839344E+02  0.18022938663E+01  0.29222917764E+02  0.61734544677E+02  0.10000000000E+01 0.  0.
         21    1    1    2  502  501 -0.14832159990E+02  0.20087003428E+02  0.21840315531E+02  0.33173484279E+02  0.00000000000E+00 0.  1.
<mgrwt>
<rscale>  1 0.12746714E+03</rscale>
<asrwt>0</asrwt>
<pdfrwt beam="2">  1        4 0.61488524E-02 0.12746714E+03</pdfrwt>
<pdfrwt beam="1">  1       -4 0.22450511E-01 0.12746714E+03</pdfrwt>
<totfact> 0.50128785E+03</totfact>
</mgrwt>
</event>
<event>
 6    4  0.5642870E-004  0.1386563E+03  0.7818608E-02  0.1215149E+00
         -4   -1    0    0    0  501 -0.00000000000E+00  0.00000000000E+00  0.28948724226E+03  0.28949002803E+03  0.12700000000E+01 0. -1.
          4   -1    0    0  502    0  0.00000000000E+00 -0.00000000000E+00 -0.43746573447E+02  0.43765004151E+02  0.12700000000E+01 0. -1.
         25    2    1    2    0    0  0.82467900586E+01 -0.59430837480E+02  0.23418114980E+03  0.27215137870E+03  0.12500211204E+03 0.  0.
    9000005    1    3    3    0    0 -0.73558671891E+01  0.21908316031E+02 -0.65000427629E+00  0.23140993906E+02  0.10000000000E+01 0.  0.
    9000005    1    3    3    0    0  0.15602657248E+02 -0.81339153511E+02  0.23483115408E+03  0.24901038479E+03  0.10000000000E+01 0.  0.
         21    1    1    2  502  501 -0.82467900586E+01  0.59430837480E+02  0.11559519009E+02  0.61103653488E+02  0.00000000000E+00 0. -1.
<mgrwt>
<rscale>  1 0.13865627E+03</rscale>
<asrwt>0</asrwt>
<pdfrwt beam="2">  1        4 0.67318741E-02 0.13865627E+03</pdfrwt>
<pdfrwt beam="1">  1       -4 0.44538131E-01 0.13865627E+03</pdfrwt>
<totfact> 0.11954566E+03</totfact>
</mgrwt>
</event>
<event>
 6    4  0.5642870E-004  0.1268633E+03  0.7818608E-02  0.1232186E+00
         -4   -1    0    0    0  501 -0.00000000000E+00  0.00000000000E+00  0.14307159564E+02  0.14363415847E+02  0.12700000000E+01 0. -1.
          4   -1    0    0  502    0  0.00000000000E+00 -0.00000000000E+00 -0.54544845791E+03  0.54544993642E+03  0.12700000000E+01 0. -1.
         25    2    1    2    0    0 -0.19161736965E+02  0.10091143817E+02 -0.27606461628E+03  0.30381898302E+03  0.12500119495E+03 0.  0.
    9000005    1    3    3    0    0  0.18532780340E+02  0.42939558790E+02 -0.23352578003E+03  0.23816498398E+03  0.10000000000E+01 0.  0.
    9000005    1    3    3    0    0 -0.37694517305E+02 -0.32848414973E+02 -0.42538836250E+02  0.65653999045E+02  0.10000000000E+01 0.  0.
         21    1    1    2  502  501  0.19161736965E+02 -0.10091143817E+02 -0.25507668207E+03  0.25599436924E+03  0.00000000000E+00 0. -1.
<mgrwt>
<rscale>  1 0.12686332E+03</rscale>
<asrwt>0</asrwt>
<pdfrwt beam="2">  1        4 0.83919573E-01 0.12686332E+03</pdfrwt>
<pdfrwt beam="1">  1       -4 0.22055430E-02 0.12686332E+03</pdfrwt>
<totfact> 0.18108986E+03</totfact>
</mgrwt>
</event>
<event>
 6    4  0.5642870E-004  0.1322908E+03  0.7818608E-02  0.1224096E+00
          4   -1    0    0  502    0  0.00000000000E+00  0.00000000000E+00  0.14512695337E+03  0.14513251012E+03  0.12700000000E+01 0.  1.
         -4   -1    0    0    0  501 -0.00000000000E+00 -0.00000000000E+00 -0.10712997790E+03  0.10713750540E+03  0.12700000000E+01 0.  1.
         25    2    1    2    0    0 -0.10142126935E+02  0.42109496610E+02 -0.59899289926E+02  0.14521978795E+03  0.12499915774E+03 0.  0.
    9000005    1    3    3    0    0  0.45651217726E+02  0.30660166369E+02  0.90954194451E+01  0.55747700729E+02  0.10000000000E+01 0.  0.
    9000005    1    3    3    0    0 -0.55793344661E+02  0.11449330241E+02 -0.68994709371E+02  0.89472087226E+02  0.10000000000E+01 0.  0.
         21    1    1    2  502  501  0.10142126935E+02 -0.42109496610E+02  0.97896265399E+02  0.10705022757E+03  0.00000000000E+00 0.  1.
<mgrwt>
<rscale>  1 0.13229082E+03</rscale>
<asrwt>0</asrwt>
<pdfrwt beam="1">  1        4 0.22328230E-01 0.13229082E+03</pdfrwt>
<pdfrwt beam="2">  1       -4 0.16482541E-01 0.13229082E+03</pdfrwt>
<totfact> 0.96748289E+02</totfact>
</mgrwt>
</event>
<event>
 6    4  0.5642870E-004  0.1386102E+03  0.7818608E-02  0.1215211E+00
         -4   -1    0    0    0  501 -0.00000000000E+00  0.00000000000E+00  0.55046152773E+02  0.55060801257E+02  0.12700000000E+01 0.  1.
          4   -1    0    0  502    0  0.00000000000E+00 -0.00000000000E+00 -0.19588478336E+03  0.19588890028E+03  0.12700000000E+01 0.  1.
         25    2    1    2    0    0  0.25147482816E+02  0.54374584663E+02 -0.13006960749E+03  0.19008129259E+03  0.12499521451E+03 0.  0.
    9000005    1    3    3    0    0 -0.25215888740E+02  0.69745771518E+02 -0.36400871596E+02  0.82621650568E+02  0.10000000000E+01 0.  0.
    9000005    1    3    3    0    0  0.50363371556E+02 -0.15371186855E+02 -0.93668735892E+02  0.10745964202E+03  0.10000000000E+01 0.  0.
         21    1    1    2  502  501 -0.25147482816E+02 -0.54374584663E+02 -0.10769023102E+02  0.60868408948E+02  0.00000000000E+00 0.  1.
<mgrwt>
<rscale>  1 0.13861023E+03</rscale>
<asrwt>0</asrwt>
<pdfrwt beam="2">  1        4 0.30137564E-01 0.13861023E+03</pdfrwt>
<pdfrwt beam="1">  1       -4 0.84700825E-02 0.13861023E+03</pdfrwt>
<totfact> 0.17484627E+03</totfact>
</mgrwt>
</event>
<event>
 6    4  0.5642870E-004  0.1317621E+03  0.7818608E-02  0.1224864E+00
          4   -1    0    0  502    0  0.00000000000E+00  0.00000000000E+00  0.22317017922E+03  0.22317379280E+03  0.12700000000E+01 0.  1.
         -4   -1    0    0    0  501 -0.00000000000E+00 -0.00000000000E+00 -0.33718409378E+02  0.33742318104E+02  0.12700000000E+01 0.  1.
         25    2    1    2    0    0 -0.41487913718E+02  0.39232241699E+01  0.14017523703E+03  0.19238073023E+03  0.12499843845E+03 0.  0.
    9000005    1    3    3    0    0 -0.40462303227E+02  0.59780373863E+02  0.56083943509E+02  0.91418268422E+02  0.10000000000E+01 0.  0.
    9000005    1    3    3    0    0 -0.10256104905E+01 -0.55857149693E+02  0.84091293518E+02  0.10096246181E+03  0.10000000000E+01 0.  0.
         21    1    1    2  502  501  0.41487913718E+02 -0.39232241699E+01  0.49276532812E+02  0.64535380673E+02  0.00000000000E+00 0. -1.
<mgrwt>
<rscale>  1 0.13176209E+03</rscale>
<asrwt>0</asrwt>
<pdfrwt beam="1">  1        4 0.34335989E-01 0.13176209E+03</pdfrwt>
<pdfrwt beam="2">  1       -4 0.51895650E-02 0.13176209E+03</pdfrwt>
<totfact> 0.30042946E+03</totfact>
</mgrwt>
</event>
<event>
 6    4  0.5642870E-004  0.1291597E+03  0.7818608E-02  0.1228708E+00
         -4   -1    0    0    0  501 -0.00000000000E+00  0.00000000000E+00  0.10109669908E+04  0.10109677885E+04  0.12700000000E+01 0. -1.
          4   -1    0    0  502    0  0.00000000000E+00 -0.00000000000E+00 -0.69148020841E+01  0.70304614260E+01  0.12700000000E+01 0. -1.
         25    2    1    2    0    0 -0.31447653471E+02 -0.82615507307E+01  0.89272388670E+03  0.90201894592E+03  0.12500013111E+03 0.  0.
    9000005    1    3    3    0    0  0.33907277853E+01  0.38562456416E+02  0.68927786334E+03  0.69036478254E+03  0.10000000000E+01 0.  0.
    9000005    1    3    3    0    0 -0.34838381256E+02 -0.46824007147E+02  0.20344602336E+03  0.21165416338E+03  0.10000000000E+01 0.  0.
         21    1    1    2  502  501  0.31447653471E+02  0.82615507307E+01  0.11132830203E+03  0.11597930402E+03  0.00000000000E+00 0. -1.
<mgrwt>
<rscale>  1 0.12915975E+03</rscale>
<asrwt>0</asrwt>
<pdfrwt beam="2">  1        4 0.10727739E-02 0.12915975E+03</pdfrwt>
<pdfrwt beam="1">  1       -4 0.15554235E+00 0.12915975E+03</pdfrwt>
<totfact> 0.12552565E+03</totfact>
</mgrwt>
</event>
<event>
 6    4  0.5642870E-004  0.1277558E+03  0.7818608E-02  0.1230824E+00
         -4   -1    0    0    0  501 -0.00000000000E+00  0.00000000000E+00  0.10875640645E+03  0.10876382139E+03  0.12700000000E+01 0.  1.
          4   -1    0    0  502    0  0.00000000000E+00 -0.00000000000E+00 -0.56482974906E+02  0.56497250856E+02  0.12700000000E+01 0.  1.
         25    2    1    2    0    0 -0.24370623655E+02  0.10065147592E+02  0.54298935220E+02  0.13881608863E+03  0.12500519030E+03 0.  0.
    9000005    1    3    3    0    0 -0.20865328477E+02 -0.45741619220E+02 -0.12381436417E+02  0.51787620423E+02  0.10000000000E+01 0.  0.
    9000005    1    3    3    0    0 -0.35052951780E+01  0.55806766811E+02  0.66680371638E+02  0.87028468204E+02  0.10000000000E+01 0.  0.
         21    1    1    2  502  501  0.24370623655E+02 -0.10065147592E+02 -0.20255036809E+01  0.26444983618E+02  0.00000000000E+00 0.  1.
<mgrwt>
<rscale>  1 0.12775575E+03</rscale>
<asrwt>0</asrwt>
<pdfrwt beam="2">  1        4 0.86913570E-02 0.12775575E+03</pdfrwt>
<pdfrwt beam="1">  1       -4 0.16733423E-01 0.12775575E+03</pdfrwt>
<totfact> 0.48056033E+03</totfact>
</mgrwt>
</event>
<event>
 6    4  0.5642870E-004  0.1273229E+03  0.7818608E-02  0.1231483E+00
          4   -1    0    0  502    0  0.00000000000E+00  0.00000000000E+00  0.35809569895E+02  0.35832083334E+02  0.12700000000E+01 0.  1.
         -4   -1    0    0    0  501 -0.00000000000E+00 -0.00000000000E+00 -0.19271301325E+03  0.19271719792E+03  0.12700000000E+01 0.  1.
         25    2    1    2    0    0 -0.21493162839E+02  0.11303298319E+02 -0.15954506134E+03  0.20412186332E+03  0.12498555070E+03 0.  0.
    9000005    1    3    3    0    0 -0.51024590259E+02 -0.23966346499E+01 -0.16351512334E+03  0.17131096938E+03  0.10000000000E+01 0.  0.
    9000005    1    3    3    0    0  0.29531427419E+02  0.13699932969E+02  0.39700620001E+01  0.32810893939E+02  0.10000000000E+01 0.  0.
         21    1    1    2  502  501  0.21493162839E+02 -0.11303298319E+02  0.26416179839E+01  0.24427417942E+02  0.00000000000E+00 0.  1.
<mgrwt>
<rscale>  1 0.12732285E+03</rscale>
<asrwt>0</asrwt>
<pdfrwt beam="1">  1        4 0.55112184E-02 0.12732285E+03</pdfrwt>
<pdfrwt beam="2">  1       -4 0.29650209E-01 0.12732285E+03</pdfrwt>
<totfact> 0.35754892E+03</totfact>
</mgrwt>
</event>
<event>
 6    4  0.5642870E-004  0.1296183E+03  0.7818608E-02  0.1228023E+00
          4   -1    0    0  502    0  0.00000000000E+00  0.00000000000E+00  0.18672535011E+02  0.18715674280E+02  0.12700000000E+01 0. -1.
         -4   -1    0    0    0  501 -0.00000000000E+00 -0.00000000000E+00 -0.39575048068E+03  0.39575251845E+03  0.12700000000E+01 0. -1.
         25    2    1    2    0    0 -0.32100017116E+02  0.12040053134E+02 -0.34049311576E+03  0.36433014572E+03  0.12500207688E+03 0.  0.
    9000005    1    3    3    0    0 -0.13242019196E+02 -0.46186604239E+02 -0.25315949434E+03  0.25768058339E+03  0.10000000000E+01 0.  0.
    9000005    1    3    3    0    0 -0.18857997920E+02  0.58226657373E+02 -0.87333621417E+02  0.10664956233E+03  0.10000000000E+01 0.  0.
         21    1    1    2  502  501  0.32100017116E+02 -0.12040053134E+02 -0.36584829913E+02  0.50138047011E+02  0.00000000000E+00 0. -1.
<mgrwt>
<rscale>  1 0.12961826E+03</rscale>
<asrwt>0</asrwt>
<pdfrwt beam="1">  1        4 0.28761731E-02 0.12961826E+03</pdfrwt>
<pdfrwt beam="2">  1       -4 0.60888158E-01 0.12961826E+03</pdfrwt>
<totfact> 0.24126620E+03</totfact>
</mgrwt>
</event>
<event>
 6    4  0.5642870E-004  0.1280704E+03  0.7818608E-02  0.1230347E+00
         -4   -1    0    0    0  501 -0.00000000000E+00  0.00000000000E+00  0.42498320766E+02  0.42517292575E+02  0.12700000000E+01 0.  1.
          4   -1    0    0  502    0  0.00000000000E+00 -0.00000000000E+00 -0.20925324629E+03  0.20925710020E+03  0.12700000000E+01 0.  1.
         25    2    1    2    0    0 -0.98214676024E+01 -0.26091309502E+02 -0.59980126384E+02  0.14142007528E+03  0.12499921789E+03 0.  0.
    9000005    1    3    3    0    0  0.42400618577E+02  0.16029596119E+01 -0.69602757102E+02  0.81522547380E+02  0.10000000000E+01 0.  0.
    9000005    1    3    3    0    0 -0.52222086179E+02 -0.27694269114E+02  0.96226307180E+01  0.59897527901E+02  0.10000000000E+01 0.  0.
         21    1    1    2  502  501  0.98214676024E+01  0.26091309502E+02 -0.10677479914E+03  0.11035431749E+03  0.00000000000E+00 0.  1.
<mgrwt>
<rscale>  1 0.12807038E+03</rscale>
<asrwt>0</asrwt>
<pdfrwt beam="2">  1        4 0.32194562E-01 0.12807038E+03</pdfrwt>
<pdfrwt beam="1">  1       -4 0.65399592E-02 0.12807038E+03</pdfrwt>
<totfact> 0.23202983E+03</totfact>
</mgrwt>
</event>
<event>
 6    4  0.5642870E-004  0.1266932E+03  0.7818608E-02  0.1232447E+00
         -4   -1    0    0    0  501 -0.00000000000E+00  0.00000000000E+00  0.13779633190E+03  0.13780218425E+03  0.12700000000E+01 0. -1.
          4   -1    0    0  502    0  0.00000000000E+00 -0.00000000000E+00 -0.39592452666E+02  0.39612816211E+02  0.12700000000E+01 0. -1.
         25    2    1    2    0    0  0.22940719470E+00 -0.20593794755E+02  0.89161137565E+02  0.15492215300E+03  0.12500803186E+03 0.  0.
    9000005    1    3    3    0    0 -0.52907245763E+02  0.21982696935E+02  0.51825743487E+02  0.77261395966E+02  0.10000000000E+01 0.  0.
    9000005    1    3    3    0    0  0.53136652957E+02 -0.42576491690E+02  0.37335394078E+02  0.77660757034E+02  0.10000000000E+01 0.  0.
         21    1    1    2  502  501 -0.22940719470E+00  0.20593794755E+02  0.90427416662E+01  0.22492847461E+02  0.00000000000E+00 0. -1.
<mgrwt>
<rscale>  1 0.12669319E+03</rscale>
<asrwt>0</asrwt>
<pdfrwt beam="2">  1        4 0.60931632E-02 0.12669319E+03</pdfrwt>
<pdfrwt beam="1">  1       -4 0.21201452E-01 0.12669319E+03</pdfrwt>
<totfact> 0.56355768E+03</totfact>
</mgrwt>
</event>
<event>
 6    4  0.5642870E-004  0.1300953E+03  0.7818608E-02  0.1227314E+00
          4   -1    0    0  502    0  0.00000000000E+00  0.00000000000E+00  0.54802749240E+03  0.54802896395E+03  0.12700000000E+01 0. -1.
         -4   -1    0    0    0  501 -0.00000000000E+00 -0.00000000000E+00 -0.14044195739E+02  0.14101501124E+02  0.12700000000E+01 0. -1.
         25    2    1    2    0    0 -0.11351556246E+02  0.34173610598E+02  0.32506356788E+03  0.35013011940E+03  0.12501233483E+03 0.  0.
    9000005    1    3    3    0    0 -0.53112460654E+02  0.38867289380E+02  0.28340598055E+03  0.29094939332E+03  0.10000000000E+01 0.  0.
    9000005    1    3    3    0    0  0.41760904408E+02 -0.46936787826E+01  0.41657587322E+02  0.59180726077E+02  0.10000000000E+01 0.  0.
         21    1    1    2  502  501  0.11351556246E+02 -0.34173610598E+02  0.20891972878E+03  0.21200034567E+03  0.00000000000E+00 0. -1.
<mgrwt>
<rscale>  1 0.13009526E+03</rscale>
<asrwt>0</asrwt>
<pdfrwt beam="1">  1        4 0.84316449E-01 0.13009526E+03</pdfrwt>
<pdfrwt beam="2">  1       -4 0.21651666E-02 0.13009526E+03</pdfrwt>
<totfact> 0.18544768E+03</totfact>
</mgrwt>
</event>
<event>
 6    4  0.5642870E-004  0.1281453E+03  0.7818608E-02  0.1230234E+00
          4   -1    0    0  502    0  0.00000000000E+00  0.00000000000E+00  0.11180925687E+03  0.11181646937E+03  0.12700000000E+01 0.  1.
         -4   -1    0    0    0  501 -0.00000000000E+00 -0.00000000000E+00 -0.55960646636E+02  0.55975055801E+02  0.12700000000E+01 0.  1.
         25    2    1    2    0    0 -0.10598643207E+02  0.26167551717E+02  0.35442018265E+02  0.13295618397E+03  0.12499655274E+03 0.  0.
    9000005    1    3    3    0    0 -0.24126357367E+02  0.73763996850E+02  0.13340907292E+02  0.78753972334E+02  0.10000000000E+01 0.  0.
    9000005    1    3    3    0    0  0.13527714159E+02 -0.47596445133E+02  0.22101110973E+02  0.54202211633E+02  0.10000000000E+01 0.  0.
         21    1    1    2  502  501  0.10598643207E+02 -0.26167551717E+02  0.20406591968E+02  0.34835341199E+02  0.00000000000E+00 0. -1.
<mgrwt>
<rscale>  1 0.12814527E+03</rscale>
<asrwt>0</asrwt>
<pdfrwt beam="1">  1        4 0.17203087E-01 0.12814527E+03</pdfrwt>
<pdfrwt beam="2">  1       -4 0.86109936E-02 0.12814527E+03</pdfrwt>
<totfact> 0.46512758E+03</totfact>
</mgrwt>
</event>
<event>
 6    4  0.5642870E-004  0.1364225E+03  0.7818608E-02  0.1218225E+00
          4   -1    0    0  502    0  0.00000000000E+00  0.00000000000E+00  0.92204755917E+03  0.92204843380E+03  0.12700000000E+01 0. -1.
         -4   -1    0    0    0  501 -0.00000000000E+00 -0.00000000000E+00 -0.19778682264E+02  0.19819414020E+02  0.12700000000E+01 0. -1.
         25    2    1    2    0    0  0.38568780556E+01 -0.54508123861E+02  0.23024763429E+03  0.26762860126E+03  0.12500033616E+03 0.  0.
    9000005    1    3    3    0    0  0.49074722688E+02 -0.70148591099E+02  0.17289238315E+03  0.19292985614E+03  0.10000000000E+01 0.  0.
    9000005    1    3    3    0    0 -0.45217844632E+02  0.15640467238E+02  0.57355251137E+02  0.74698745114E+02  0.10000000000E+01 0.  0.
         21    1    1    2  502  501 -0.38568780556E+01  0.54508123861E+02  0.67202124262E+03  0.67423924657E+03  0.00000000000E+00 0. -1.
<mgrwt>
<rscale>  1 0.13642249E+03</rscale>
<asrwt>0</asrwt>
<pdfrwt beam="1">  1        4 0.14185667E+00 0.13642249E+03</pdfrwt>
<pdfrwt beam="2">  1       -4 0.30460746E-02 0.13642249E+03</pdfrwt>
<totfact> 0.32290265E+02</totfact>
</mgrwt>
</event>
<event>
 6    4  0.5642870E-004  0.1282830E+03  0.7818608E-02  0.1230026E+00
          4   -1    0    0  502    0  0.00000000000E+00  0.00000000000E+00  0.90296974331E+02  0.90305904975E+02  0.12700000000E+01 0.  1.
         -4   -1    0    0    0  501 -0.00000000000E+00 -0.00000000000E+00 -0.17340051209E+03  0.17340516282E+03  0.12700000000E+01 0.  1.
         25    2    1    2    0    0  0.26442419670E+02 -0.11517855715E+02 -0.14609961826E+03  0.19442637457E+03  0.12499861644E+03 0.  0.
    9000005    1    3    3    0    0 -0.34781973895E+02 -0.92240654211E+01 -0.12426941885E+03  0.12937835040E+03  0.10000000000E+01 0.  0.
    9000005    1    3    3    0    0  0.61224393564E+02 -0.22937902941E+01 -0.21830199406E+02  0.65048024162E+02  0.10000000000E+01 0.  0.
         21    1    1    2  502  501 -0.26442419670E+02  0.11517855715E+02  0.62996080498E+02  0.69284693233E+02  0.00000000000E+00 0.  1.
<mgrwt>
<rscale>  1 0.12828296E+03</rscale>
<asrwt>0</asrwt>
<pdfrwt beam="1">  1        4 0.13892887E-01 0.12828296E+03</pdfrwt>
<pdfrwt beam="2">  1       -4 0.26678047E-01 0.12828296E+03</pdfrwt>
<totfact> 0.93366612E+02</totfact>
</mgrwt>
</event>
<event>
 6    4  0.5642870E-004  0.1270850E+03  0.7818608E-02  0.1231846E+00
         -4   -1    0    0    0  501 -0.00000000000E+00  0.00000000000E+00  0.33336277876E+02  0.33360460468E+02  0.12700000000E+01 0. -1.
          4   -1    0    0  502    0  0.00000000000E+00 -0.00000000000E+00 -0.23464077694E+03  0.23464421387E+03  0.12700000000E+01 0. -1.
         25    2    1    2    0    0  0.16480676725E+01  0.22781797294E+02 -0.93416326431E+02  0.15772510139E+03  0.12501548364E+03 0.  0.
    9000005    1    3    3    0    0 -0.17982052199E+02 -0.35190127854E+02  0.69765318615E+01  0.40141889548E+02  0.10000000000E+01 0.  0.
    9000005    1    3    3    0    0  0.19630119872E+02  0.57971925148E+02 -0.10039285829E+03  0.11758321184E+03  0.10000000000E+01 0.  0.
         21    1    1    2  502  501 -0.16480676725E+01 -0.22781797294E+02 -0.10788817264E+03  0.11027957295E+03  0.00000000000E+00 0. -1.
<mgrwt>
<rscale>  1 0.12708500E+03</rscale>
<asrwt>0</asrwt>
<pdfrwt beam="2">  1        4 0.36100705E-01 0.12708500E+03</pdfrwt>
<pdfrwt beam="1">  1       -4 0.51307829E-02 0.12708500E+03</pdfrwt>
<totfact> 0.27538224E+03</totfact>
</mgrwt>
</event>
<event>
 6    4  0.5642870E-004  0.1306269E+03  0.7818608E-02  0.1226528E+00
         -4   -1    0    0    0  501 -0.00000000000E+00  0.00000000000E+00  0.34246956432E+02  0.34270496419E+02  0.12700000000E+01 0. -1.
          4   -1    0    0  502    0  0.00000000000E+00 -0.00000000000E+00 -0.21434204967E+03  0.21434581208E+03  0.12700000000E+01 0. -1.
         25    2    1    2    0    0  0.37659013215E+02  0.44276318833E+01 -0.11896335135E+03  0.17667956499E+03  0.12500233806E+03 0.  0.
    9000005    1    3    3    0    0 -0.36065273899E+02  0.99853991594E+01 -0.89629378805E+02  0.97133092830E+02  0.10000000000E+01 0.  0.
    9000005    1    3    3    0    0  0.73724287114E+02 -0.55577672761E+01 -0.29333972540E+02  0.79546472156E+02  0.10000000000E+01 0.  0.
         21    1    1    2  502  501 -0.37659013215E+02 -0.44276318833E+01 -0.61131741888E+02  0.71936743509E+02  0.00000000000E+00 0.  1.
<mgrwt>
<rscale>  1 0.13062691E+03</rscale>
<asrwt>0</asrwt>
<pdfrwt beam="2">  1        4 0.32977799E-01 0.13062691E+03</pdfrwt>
<pdfrwt beam="1">  1       -4 0.52708628E-02 0.13062691E+03</pdfrwt>
<totfact> 0.31592526E+03</totfact>
</mgrwt>
</event>
<event>
 6    4  0.5642870E-004  0.1415904E+03  0.7818608E-02  0.1211205E+00
         -4   -1    0    0    0  501 -0.00000000000E+00  0.00000000000E+00  0.30628442391E+02  0.30654761185E+02  0.12700000000E+01 0. -1.
          4   -1    0    0  502    0  0.00000000000E+00 -0.00000000000E+00 -0.36446972422E+03  0.36447193688E+03  0.12700000000E+01 0. -1.
         25    2    1    2    0    0  0.47111808624E+02  0.46936927006E+02 -0.19293353954E+03  0.23931402379E+03  0.12500101469E+03 0.  0.
    9000005    1    3    3    0    0  0.40127322168E+02 -0.38539731172E+02 -0.70130617048E+02  0.89525506481E+02  0.10000000000E+01 0.  0.
    9000005    1    3    3    0    0  0.69844864563E+01  0.85476658178E+02 -0.12280292250E+03  0.14978851731E+03  0.10000000000E+01 0.  0.
         21    1    1    2  502  501 -0.47111808624E+02 -0.46936927006E+02 -0.14090774228E+03  0.15581267427E+03  0.00000000000E+00 0. -1.
<mgrwt>
<rscale>  1 0.14159044E+03</rscale>
<asrwt>0</asrwt>
<pdfrwt beam="2">  1        4 0.56074457E-01 0.14159044E+03</pdfrwt>
<pdfrwt beam="1">  1       -4 0.47142630E-02 0.14159044E+03</pdfrwt>
<totfact> 0.13372588E+03</totfact>
</mgrwt>
</event>
<event>
 6    4  0.5642870E-004  0.1281962E+03  0.7818608E-02  0.1230157E+00
         -4   -1    0    0    0  501 -0.00000000000E+00  0.00000000000E+00  0.95046003837E+02  0.95054488297E+02  0.12700000000E+01 0. -1.
          4   -1    0    0  502    0  0.00000000000E+00 -0.00000000000E+00 -0.68922571609E+02  0.68934271427E+02  0.12700000000E+01 0. -1.
         25    2    1    2    0    0  0.16803880580E+02  0.22944625347E+02  0.37174308063E+02  0.13347731775E+03  0.12500175574E+03 0.  0.
    9000005    1    3    3    0    0 -0.51159424251E+02  0.18325413326E+02  0.36272851923E+02  0.65343915171E+02  0.10000000000E+01 0.  0.
    9000005    1    3    3    0    0  0.67963304832E+02  0.46192120207E+01  0.90145613999E+00  0.68133402575E+02  0.10000000000E+01 0.  0.
         21    1    1    2  502  501 -0.16803880580E+02 -0.22944625347E+02 -0.11050875834E+02  0.30511441978E+02  0.00000000000E+00 0. -1.
<mgrwt>
<rscale>  1 0.12819620E+03</rscale>
<asrwt>0</asrwt>
<pdfrwt beam="2">  1        4 0.10605025E-01 0.12819620E+03</pdfrwt>
<pdfrwt beam="1">  1       -4 0.14624015E-01 0.12819620E+03</pdfrwt>
<totfact> 0.43612194E+03</totfact>
</mgrwt>
</event>
<event>
 6    4  0.5642870E-004  0.1273891E+03  0.7818608E-02  0.1231382E+00
         -4   -1    0    0    0  501 -0.00000000000E+00  0.00000000000E+00  0.81287058546E+02  0.81296978955E+02  0.12700000000E+01 0. -1.
          4   -1    0    0  502    0  0.00000000000E+00 -0.00000000000E+00 -0.74637079334E+02  0.74647883503E+02  0.12700000000E+01 0. -1.
         25    2    1    2    0    0  0.54610233216E+01  0.23925048282E+02  0.18444249791E+02  0.12871738499E+03  0.12500297651E+03 0.  0.
    9000005    1    3    3    0    0  0.20265742756E+02  0.63693344419E+02  0.43188557326E+02  0.79585136405E+02  0.10000000000E+01 0.  0.
    9000005    1    3    3    0    0 -0.14804719435E+02 -0.39768296137E+02 -0.24744307535E+02  0.49132248580E+02  0.10000000000E+01 0.  0.
         21    1    1    2  502  501 -0.54610233216E+01 -0.23925048282E+02 -0.11794270578E+02  0.27227477472E+02  0.00000000000E+00 0.  1.
<mgrwt>
<rscale>  1 0.12738907E+03</rscale>
<asrwt>0</asrwt>
<pdfrwt beam="2">  1        4 0.11484222E-01 0.12738907E+03</pdfrwt>
<pdfrwt beam="1">  1       -4 0.12507296E-01 0.12738907E+03</pdfrwt>
<totfact> 0.49832611E+03</totfact>
</mgrwt>
</event>
<event>
 6    4  0.5642870E-004  0.1276046E+03  0.7818608E-02  0.1231054E+00
         -4   -1    0    0    0  501 -0.00000000000E+00  0.00000000000E+00  0.14875141087E+03  0.14875683223E+03  0.12700000000E+01 0. -1.
          4   -1    0    0  502    0  0.00000000000E+00 -0.00000000000E+00 -0.41388992830E+02  0.41408472895E+02  0.12700000000E+01 0. -1.
         25    2    1    2    0    0 -0.21423545695E+02 -0.14121698677E+02  0.10332189258E+03  0.16418999897E+03  0.12499820636E+03 0.  0.
    9000005    1    3    3    0    0  0.27823407216E+02  0.22080401204E+02  0.96313778631E+02  0.10265977820E+03  0.10000000000E+01 0.  0.
    9000005    1    3    3    0    0 -0.49246952911E+02 -0.36202099881E+02  0.70081139458E+01  0.61530220769E+02  0.10000000000E+01 0.  0.
         21    1    1    2  502  501  0.21423545695E+02  0.14121698677E+02  0.40405254583E+01  0.25975306151E+02  0.00000000000E+00 0.  1.
<mgrwt>
<rscale>  1 0.12760463E+03</rscale>
<asrwt>0</asrwt>
<pdfrwt beam="2">  1        4 0.63694527E-02 0.12760463E+03</pdfrwt>
<pdfrwt beam="1">  1       -4 0.22886749E-01 0.12760463E+03</pdfrwt>
<totfact> 0.45715011E+03</totfact>
</mgrwt>
</event>
<event>
 6    4  0.5642870E-004  0.1280915E+03  0.7818608E-02  0.1230315E+00
         -4   -1    0    0    0  501 -0.00000000000E+00  0.00000000000E+00  0.13287699212E+03  0.13288306113E+03  0.12700000000E+01 0.  1.
          4   -1    0    0  502    0  0.00000000000E+00 -0.00000000000E+00 -0.49849030643E+02  0.49865205866E+02  0.12700000000E+01 0.  1.
         25    2    1    2    0    0  0.23405868014E+02 -0.15287693350E+02  0.86521112797E+02  0.15457469194E+03  0.12500353676E+03 0.  0.
    9000005    1    3    3    0    0  0.25985616391E+02  0.28459579128E+01 -0.28159799169E+02  0.38435999075E+02  0.10000000000E+01 0.  0.
    9000005    1    3    3    0    0 -0.25797483773E+01 -0.18133651263E+02  0.11468091197E+03  0.11613869286E+03  0.10000000000E+01 0.  0.
         21    1    1    2  502  501 -0.23405868014E+02  0.15287693350E+02 -0.34931513211E+01  0.28173575059E+02  0.00000000000E+00 0. -1.
<mgrwt>
<rscale>  1 0.12809150E+03</rscale>
<asrwt>0</asrwt>
<pdfrwt beam="2">  1        4 0.76707927E-02 0.12809150E+03</pdfrwt>
<pdfrwt beam="1">  1       -4 0.20444325E-01 0.12809150E+03</pdfrwt>
<totfact> 0.41395154E+03</totfact>
</mgrwt>
</event>
<event>
 6    4  0.5642870E-004  0.1293865E+03  0.7818608E-02  0.1228369E+00
         -4   -1    0    0    0  501 -0.00000000000E+00  0.00000000000E+00  0.88318779219E+01  0.89227219853E+01  0.12700000000E+01 0. -1.
          4   -1    0    0  502    0  0.00000000000E+00 -0.00000000000E+00 -0.75437159444E+03  0.75437266347E+03  0.12700000000E+01 0. -1.
         25    2    1    2    0    0  0.20040396113E+02  0.26732517393E+02 -0.55814451010E+03  0.57294515995E+03  0.12499846877E+03 0.  0.
    9000005    1    3    3    0    0  0.40480963868E+02  0.70327167732E+02 -0.34073441181E+03  0.35026498305E+03  0.10000000000E+01 0.  0.
    9000005    1    3    3    0    0 -0.20440567755E+02 -0.43594650339E+02 -0.21741009829E+03  0.22268017691E+03  0.10000000000E+01 0.  0.
         21    1    1    2  502  501 -0.20040396113E+02 -0.26732517393E+02 -0.18739520642E+03  0.19035022551E+03  0.00000000000E+00 0.  1.
<mgrwt>
<rscale>  1 0.12938648E+03</rscale>
<asrwt>0</asrwt>
<pdfrwt beam="2">  1        4 0.11606419E+00 0.12938648E+03</pdfrwt>
<pdfrwt beam="1">  1       -4 0.13658213E-02 0.12938648E+03</pdfrwt>
<totfact> 0.17959150E+03</totfact>
</mgrwt>
</event>
<event>
 6    4  0.5642870E-004  0.1267894E+03  0.7818608E-02  0.1232299E+00
         -4   -1    0    0    0  501 -0.00000000000E+00  0.00000000000E+00  0.56764161952E+03  0.56764304023E+03  0.12700000000E+01 0. -1.
          4   -1    0    0  502    0  0.00000000000E+00 -0.00000000000E+00 -0.10056126973E+02  0.10136004622E+02  0.12700000000E+01 0. -1.
         25    2    1    2    0    0  0.19031356479E+02 -0.94377419547E+01  0.51233422668E+03  0.52778964031E+03  0.12499712433E+03 0.  0.
    9000005    1    3    3    0    0  0.10833459334E+02 -0.56148968972E+02  0.12382651801E+03  0.13639676360E+03  0.10000000000E+01 0.  0.
    9000005    1    3    3    0    0  0.81978971448E+01  0.46711227017E+02  0.38850770867E+03  0.39139287671E+03  0.10000000000E+01 0.  0.
         21    1    1    2  502  501 -0.19031356479E+02  0.94377419547E+01  0.45251265873E+02  0.49989404535E+02  0.00000000000E+00 0. -1.
<mgrwt>
<rscale>  1 0.12678937E+03</rscale>
<asrwt>0</asrwt>
<pdfrwt beam="2">  1        4 0.15533500E-02 0.12678937E+03</pdfrwt>
<pdfrwt beam="1">  1       -4 0.87335742E-01 0.12678937E+03</pdfrwt>
<totfact> 0.28357103E+03</totfact>
</mgrwt>
</event>
<event>
 6    4  0.5642870E-004  0.1444907E+03  0.7818608E-02  0.1207411E+00
         -4   -1    0    0    0  501 -0.00000000000E+00  0.00000000000E+00  0.32081460738E+02  0.32106588468E+02  0.12700000000E+01 0.  1.
          4   -1    0    0  502    0  0.00000000000E+00 -0.00000000000E+00 -0.38485630170E+03  0.38485839716E+03  0.12700000000E+01 0.  1.
         25    2    1    2    0    0 -0.37005378631E+02  0.62337817912E+02 -0.18934923889E+03  0.23818207536E+03  0.12498866014E+03 0.  0.
    9000005    1    3    3    0    0  0.39901755959E+02  0.15913196755E+02 -0.22072196828E+02  0.48306954286E+02  0.10000000000E+01 0.  0.
    9000005    1    3    3    0    0 -0.76907134590E+02  0.46424621157E+02 -0.16727704206E+03  0.18987512107E+03  0.10000000000E+01 0.  0.
         21    1    1    2  502  501  0.37005378631E+02 -0.62337817912E+02 -0.16342560207E+03  0.17878291027E+03  0.00000000000E+00 0.  1.
<mgrwt>
<rscale>  1 0.14449072E+03</rscale>
<asrwt>0</asrwt>
<pdfrwt beam="2">  1        4 0.59210753E-01 0.14449072E+03</pdfrwt>
<pdfrwt beam="1">  1       -4 0.49377037E-02 0.14449072E+03</pdfrwt>
<totfact> 0.11127567E+03</totfact>
</mgrwt>
</event>
<event>
 6    4  0.5642870E-004  0.1285175E+03  0.7818608E-02  0.1229672E+00
          4   -1    0    0  502    0  0.00000000000E+00  0.00000000000E+00  0.15567378580E+03  0.15567896610E+03  0.12700000000E+01 0.  1.
         -4   -1    0    0    0  501 -0.00000000000E+00 -0.00000000000E+00 -0.40282302459E+02  0.40302317445E+02  0.12700000000E+01 0.  1.
         25    2    1    2    0    0  0.67964572340E+01  0.29089758277E+02  0.94791300766E+02  0.15969391123E+03  0.12499739483E+03 0.  0.
    9000005    1    3    3    0    0  0.49623915829E+02 -0.97485999441E+01  0.87961260389E+02  0.10146798289E+03  0.10000000000E+01 0.  0.
    9000005    1    3    3    0    0 -0.42827458594E+02  0.38838358221E+02  0.68300403774E+01  0.58225928335E+02  0.10000000000E+01 0.  0.
         21    1    1    2  502  501 -0.67964572340E+01 -0.29089758277E+02  0.20600182577E+02  0.36287372318E+02  0.00000000000E+00 0.  1.
<mgrwt>
<rscale>  1 0.12851753E+03</rscale>
<asrwt>0</asrwt>
<pdfrwt beam="1">  1        4 0.23951751E-01 0.12851753E+03</pdfrwt>
<pdfrwt beam="2">  1       -4 0.61992154E-02 0.12851753E+03</pdfrwt>
<totfact> 0.44040355E+03</totfact>
</mgrwt>
</event>
<event>
 6    4  0.5642870E-004  0.1270291E+03  0.7818608E-02  0.1231932E+00
          4   -1    0    0  502    0  0.00000000000E+00  0.00000000000E+00  0.72802941530E+02  0.72814017850E+02  0.12700000000E+01 0.  1.
         -4   -1    0    0    0  501 -0.00000000000E+00 -0.00000000000E+00 -0.11097884979E+03  0.11098611626E+03  0.12700000000E+01 0.  1.
         25    2    1    2    0    0  0.16553270041E+02 -0.15449099493E+02 -0.69771386859E+02  0.14492906913E+03  0.12499481282E+03 0.  0.
    9000005    1    3    3    0    0  0.65053868799E+02 -0.35141865652E+02 -0.48414200737E+02  0.88384904821E+02  0.10000000000E+01 0.  0.
    9000005    1    3    3    0    0 -0.48500598758E+02  0.19692766159E+02 -0.21357186122E+02  0.56544164313E+02  0.10000000000E+01 0.  0.
         21    1    1    2  502  501 -0.16553270041E+02  0.15449099493E+02  0.31595478596E+02  0.38871064970E+02  0.00000000000E+00 0.  1.
<mgrwt>
<rscale>  1 0.12702909E+03</rscale>
<asrwt>0</asrwt>
<pdfrwt beam="1">  1        4 0.11201863E-01 0.12702909E+03</pdfrwt>
<pdfrwt beam="2">  1       -4 0.17075080E-01 0.12702909E+03</pdfrwt>
<totfact> 0.30226831E+03</totfact>
</mgrwt>
</event>
<event>
 6    4  0.5642870E-004  0.1271290E+03  0.7818608E-02  0.1231779E+00
          4   -1    0    0  502    0  0.00000000000E+00  0.00000000000E+00  0.17963613643E+03  0.17964062573E+03  0.12700000000E+01 0. -1.
         -4   -1    0    0    0  501 -0.00000000000E+00 -0.00000000000E+00 -0.35755994150E+02  0.35778541302E+02  0.12700000000E+01 0. -1.
         25    2    1    2    0    0  0.35208497708E+01  0.22926287173E+02  0.87156683193E+02  0.15413652807E+03  0.12499508324E+03 0.  0.
    9000005    1    3    3    0    0 -0.32467309170E+02  0.60988835744E+02  0.71550385353E+02  0.99469703399E+02  0.10000000000E+01 0.  0.
    9000005    1    3    3    0    0  0.35988158941E+02 -0.38062548570E+02  0.15606297840E+02  0.54666824674E+02  0.10000000000E+01 0.  0.
         21    1    1    2  502  501 -0.35208497708E+01 -0.22926287173E+02  0.56723459089E+02  0.61282638958E+02  0.00000000000E+00 0. -1.
<mgrwt>
<rscale>  1 0.12712900E+03</rscale>
<asrwt>0</asrwt>
<pdfrwt beam="1">  1        4 0.27638409E-01 0.12712900E+03</pdfrwt>
<pdfrwt beam="2">  1       -4 0.55030017E-02 0.12712900E+03</pdfrwt>
<totfact> 0.40875051E+03</totfact>
</mgrwt>
</event>
<event>
 6    4  0.5642870E-004  0.1384951E+03  0.7818608E-02  0.1215368E+00
         -4   -1    0    0    0  501 -0.00000000000E+00  0.00000000000E+00  0.57571073638E+03  0.57571213716E+03  0.12700000000E+01 0.  1.
          4   -1    0    0  502    0  0.00000000000E+00 -0.00000000000E+00 -0.22405311158E+02  0.22441275991E+02  0.12700000000E+01 0.  1.
         25    2    1    2    0    0 -0.46827750488E+02 -0.36919025389E+02  0.49773193371E+03  0.51664104839E+03  0.12500016958E+03 0.  0.
    9000005    1    3    3    0    0  0.15882786589E+02  0.10168540075E+02  0.33964022221E+03  0.34016487570E+03  0.10000000000E+01 0.  0.
    9000005    1    3    3    0    0 -0.62710537077E+02 -0.47087565463E+02  0.15809171150E+03  0.17647617269E+03  0.10000000000E+01 0.  0.
         21    1    1    2  502  501  0.46827750488E+02  0.36919025389E+02  0.55573491506E+02  0.81512364765E+02  0.00000000000E+00 0.  1.
<mgrwt>
<rscale>  1 0.13849511E+03</rscale>
<asrwt>0</asrwt>
<pdfrwt beam="2">  1        4 0.34498447E-02 0.13849511E+03</pdfrwt>
<pdfrwt beam="1">  1       -4 0.88573770E-01 0.13849511E+03</pdfrwt>
<totfact> 0.81366884E+02</totfact>
</mgrwt>
</event>
<event>
 6    4  0.5642870E-004  0.1266397E+03  0.7818608E-02  0.1232529E+00
         -4   -1    0    0    0  501 -0.00000000000E+00  0.00000000000E+00  0.36207039259E+01  0.38369775760E+01  0.12700000000E+01 0.  1.
          4   -1    0    0  502    0  0.00000000000E+00 -0.00000000000E+00 -0.14829224205E+04  0.14829229644E+04  0.12700000000E+01 0.  1.
         25    2    1    2    0    0 -0.20168513806E+02  0.25530423963E+01 -0.13418952251E+04  0.13478577069E+04  0.12499726425E+03 0.  0.
    9000005    1    3    3    0    0  0.41302490567E+02  0.10807682993E+02 -0.96067692308E+03  0.96162563001E+03  0.10000000000E+01 0.  0.
    9000005    1    3    3    0    0 -0.61471004373E+02 -0.82546405971E+01 -0.38121830199E+03  0.38623207692E+03  0.10000000000E+01 0.  0.
         21    1    1    2  502  501  0.20168513806E+02 -0.25530423963E+01 -0.13740649154E+03  0.13890223502E+03  0.00000000000E+00 0.  1.
<mgrwt>
<rscale>  1 0.12663966E+03</rscale>
<asrwt>0</asrwt>
<pdfrwt beam="2">  1        4 0.22815812E+00 0.12663966E+03</pdfrwt>
<pdfrwt beam="1">  1       -4 0.57371083E-03 0.12663966E+03</pdfrwt>
<totfact> 0.10933532E+03</totfact>
</mgrwt>
</event>
<event>
 6    4  0.5642870E-004  0.1326144E+03  0.7818608E-02  0.1223627E+00
         -4   -1    0    0    0  501 -0.00000000000E+00  0.00000000000E+00  0.52258170733E+02  0.52273600492E+02  0.12700000000E+01 0.  1.
          4   -1    0    0  502    0  0.00000000000E+00 -0.00000000000E+00 -0.15274092522E+03  0.15274620499E+03  0.12700000000E+01 0.  1.
         25    2    1    2    0    0 -0.28614038062E+02  0.33793156132E+02 -0.87483604073E+02  0.15887093239E+03  0.12500340636E+03 0.  0.
    9000005    1    3    3    0    0 -0.72576087770E+01  0.67401776729E+02 -0.58660099257E+01  0.68052057014E+02  0.10000000000E+01 0.  0.
    9000005    1    3    3    0    0 -0.21356429285E+02 -0.33608620597E+02 -0.81617594147E+02  0.90818875377E+02  0.10000000000E+01 0.  0.
         21    1    1    2  502  501  0.28614038062E+02 -0.33793156132E+02 -0.12999150415E+02  0.46148873086E+02  0.00000000000E+00 0.  1.
<mgrwt>
<rscale>  1 0.13261445E+03</rscale>
<asrwt>0</asrwt>
<pdfrwt beam="2">  1        4 0.23500197E-01 0.13261445E+03</pdfrwt>
<pdfrwt beam="1">  1       -4 0.80413117E-02 0.13261445E+03</pdfrwt>
<totfact> 0.29983419E+03</totfact>
</mgrwt>
</event>
<event>
 6    4  0.5642870E-004  0.1272190E+03  0.7818608E-02  0.1231642E+00
         -4   -1    0    0    0  501 -0.00000000000E+00  0.00000000000E+00  0.13187844133E+04  0.13187850248E+04  0.12700000000E+01 0.  1.
          4   -1    0    0  502    0  0.00000000000E+00 -0.00000000000E+00 -0.46775531248E+01  0.48468962477E+01  0.12700000000E+01 0.  1.
         25    2    1    2    0    0 -0.82269346296E+01 -0.22134755363E+02  0.12196912788E+04  0.12263080707E+04  0.12500815475E+03 0.  0.
    9000005    1    3    3    0    0  0.45165199262E+02  0.19207553044E+02  0.77117421528E+03  0.77273507467E+03  0.10000000000E+01 0.  0.
    9000005    1    3    3    0    0 -0.53392133892E+02 -0.41342308408E+02  0.44851706355E+03  0.45357299602E+03  0.10000000000E+01 0.  0.
         21    1    1    2  502  501  0.82269346296E+01  0.22134755363E+02  0.94415581370E+02  0.97323850385E+02  0.00000000000E+00 0.  1.
<mgrwt>
<rscale>  1 0.12721898E+03</rscale>
<asrwt>0</asrwt>
<pdfrwt beam="2">  1        4 0.73269760E-03 0.12721898E+03</pdfrwt>
<pdfrwt beam="1">  1       -4 0.20290282E+00 0.12721898E+03</pdfrwt>
<totfact> 0.10783099E+03</totfact>
</mgrwt>
</event>
<event>
 6    4  0.5642870E-004  0.1266330E+03  0.7818608E-02  0.1232539E+00
          4   -1    0    0  502    0  0.00000000000E+00  0.00000000000E+00  0.12974196849E+03  0.12974818414E+03  0.12700000000E+01 0. -1.
         -4   -1    0    0    0  501 -0.00000000000E+00 -0.00000000000E+00 -0.59565934222E+02  0.59579471462E+02  0.12700000000E+01 0. -1.
         25    2    1    2    0    0 -0.13134171873E+02  0.15417210890E+02  0.11382557043E+02  0.12714349503E+03  0.12500283541E+03 0.  0.
    9000005    1    3    3    0    0 -0.25254660870E+02 -0.43095323184E+02 -0.26332593092E+02  0.56474863744E+02  0.10000000000E+01 0.  0.
    9000005    1    3    3    0    0  0.12120488997E+02  0.58512534075E+02  0.37715150135E+02  0.70668631281E+02  0.10000000000E+01 0.  0.
         21    1    1    2  502  501  0.13134171873E+02 -0.15417210890E+02  0.58793477222E+02  0.62184160574E+02  0.00000000000E+00 0.  1.
<mgrwt>
<rscale>  1 0.12663296E+03</rscale>
<asrwt>0</asrwt>
<pdfrwt beam="1">  1        4 0.19961822E-01 0.12663296E+03</pdfrwt>
<pdfrwt beam="2">  1       -4 0.91655095E-02 0.12663296E+03</pdfrwt>
<totfact> 0.32064962E+03</totfact>
</mgrwt>
</event>
<event>
 6    4  0.5642870E-004  0.1299816E+03  0.7818608E-02  0.1227483E+00
         -4   -1    0    0    0  501 -0.00000000000E+00  0.00000000000E+00  0.15905981764E+03  0.15906488767E+03  0.12700000000E+01 0. -1.
          4   -1    0    0  502    0  0.00000000000E+00 -0.00000000000E+00 -0.43921339747E+02  0.43939697145E+02  0.12700000000E+01 0. -1.
         25    2    1    2    0    0  0.30719375101E+02  0.18084427251E+02  0.78305342444E+02  0.15174635247E+03  0.12499800925E+03 0.  0.
    9000005    1    3    3    0    0 -0.34528165562E+02  0.33124990581E+02  0.69238757625E+02  0.84169262653E+02  0.10000000000E+01 0.  0.
    9000005    1    3    3    0    0  0.65247540663E+02 -0.15040563330E+02  0.90665848190E+01  0.67577089817E+02  0.10000000000E+01 0.  0.
         21    1    1    2  502  501 -0.30719375101E+02 -0.18084427251E+02  0.36833135452E+02  0.51258232342E+02  0.00000000000E+00 0. -1.
<mgrwt>
<rscale>  1 0.12998165E+03</rscale>
<asrwt>0</asrwt>
<pdfrwt beam="2">  1        4 0.67589314E-02 0.12998165E+03</pdfrwt>
<pdfrwt beam="1">  1       -4 0.24472543E-01 0.12998165E+03</pdfrwt>
<totfact> 0.36868378E+03</totfact>
</mgrwt>
</event>
<event>
 6    4  0.5642870E-004  0.1389255E+03  0.7818608E-02  0.1214782E+00
         -4   -1    0    0    0  501 -0.00000000000E+00  0.00000000000E+00  0.23402972660E+04  0.23402976106E+04  0.12700000000E+01 0.  1.
          4   -1    0    0  502    0  0.00000000000E+00 -0.00000000000E+00 -0.41656680695E+01  0.43549615917E+01  0.12700000000E+01 0.  1.
         25    2    1    2    0    0  0.56811133284E+02 -0.21156813995E+02  0.15820127786E+04  0.15881009815E+04  0.12500072104E+03 0.  0.
    9000005    1    3    3    0    0 -0.28693112681E+02  0.14782547724E+02  0.79258888921E+03  0.79324647225E+03  0.10000000000E+01 0.  0.
    9000005    1    3    3    0    0  0.85504245966E+02 -0.35939361718E+02  0.78942388934E+03  0.79485450924E+03  0.10000000000E+01 0.  0.
         21    1    1    2  502  501 -0.56811133284E+02  0.21156813995E+02  0.75411881934E+03  0.75655159065E+03  0.00000000000E+00 0.  1.
<mgrwt>
<rscale>  1 0.13892550E+03</rscale>
<asrwt>0</asrwt>
<pdfrwt beam="2">  1        4 0.65545950E-03 0.13892550E+03</pdfrwt>
<pdfrwt beam="1">  1       -4 0.36006035E+00 0.13892550E+03</pdfrwt>
<totfact> 0.15389357E+02</totfact>
</mgrwt>
</event>
<event>
 6    4  0.5642870E-004  0.1272992E+03  0.7818608E-02  0.1231519E+00
          4   -1    0    0  502    0  0.00000000000E+00  0.00000000000E+00  0.23233243926E+02  0.23267929072E+02  0.12700000000E+01 0.  1.
         -4   -1    0    0    0  501 -0.00000000000E+00 -0.00000000000E+00 -0.48956290920E+03  0.48956455649E+03  0.12700000000E+01 0.  1.
         25    2    1    2    0    0 -0.16468176467E+02 -0.17565160306E+02 -0.47134948860E+03  0.48823707300E+03  0.12500145342E+03 0.  0.
    9000005    1    3    3    0    0  0.68779726029E+01  0.47382903157E+02 -0.10450419041E+03  0.11495465120E+03  0.10000000000E+01 0.  0.
    9000005    1    3    3    0    0 -0.23346149070E+02 -0.64948063464E+02 -0.36684529819E+03  0.37328242180E+03  0.10000000000E+01 0.  0.
         21    1    1    2  502  501  0.16468176467E+02  0.17565160306E+02  0.50198233211E+01  0.24595412558E+02  0.00000000000E+00 0. -1.
<mgrwt>
<rscale>  1 0.12729925E+03</rscale>
<asrwt>0</asrwt>
<pdfrwt beam="1">  1        4 0.35771404E-02 0.12729925E+03</pdfrwt>
<pdfrwt beam="2">  1       -4 0.75320158E-01 0.12729925E+03</pdfrwt>
<totfact> 0.10817120E+03</totfact>
</mgrwt>
</event>
<event>
 6    4  0.5642870E-004  0.1269427E+03  0.7818608E-02  0.1232064E+00
          4   -1    0    0  502    0  0.00000000000E+00  0.00000000000E+00  0.15597837105E+02  0.15649454379E+02  0.12700000000E+01 0.  1.
         -4   -1    0    0    0  501 -0.00000000000E+00 -0.00000000000E+00 -0.35607959483E+03  0.35608185963E+03  0.12700000000E+01 0.  1.
         25    2    1    2    0    0 -0.12533863847E+02 -0.18220715717E+02 -0.28429506269E+03  0.31134889170E+03  0.12500142987E+03 0.  0.
    9000005    1    3    3    0    0 -0.86404701462E+00 -0.16522910813E+02 -0.29495529788E+03  0.29542068463E+03  0.10000000000E+01 0.  0.
    9000005    1    3    3    0    0 -0.11669816832E+02 -0.16978049046E+01  0.10660235188E+02  0.15928207076E+02  0.10000000000E+01 0.  0.
         21    1    1    2  502  501  0.12533863847E+02  0.18220715717E+02 -0.56186695036E+02  0.60382422303E+02  0.00000000000E+00 0. -1.
<mgrwt>
<rscale>  1 0.12694270E+03</rscale>
<asrwt>0</asrwt>
<pdfrwt beam="1">  1        4 0.24038123E-02 0.12694270E+03</pdfrwt>
<pdfrwt beam="2">  1       -4 0.54785615E-01 0.12694270E+03</pdfrwt>
<totfact> 0.39544697E+03</totfact>
</mgrwt>
</event>
<event>
 6    4  0.5642870E-004  0.1400932E+03  0.7818608E-02  0.1213204E+00
          4   -1    0    0  502    0  0.00000000000E+00  0.00000000000E+00  0.45010392604E+03  0.45010571774E+03  0.12700000000E+01 0. -1.
         -4   -1    0    0    0  501 -0.00000000000E+00 -0.00000000000E+00 -0.32835206769E+02  0.32859758118E+02  0.12700000000E+01 0. -1.
         25    2    1    2    0    0 -0.44363011529E+02  0.45059728702E+02  0.13807200756E+03  0.19669766457E+03  0.12501054370E+03 0.  0.
    9000005    1    3    3    0    0 -0.72030247899E+02  0.63984542989E+02  0.13067595257E+03  0.16235634553E+03  0.10000000000E+01 0.  0.
    9000005    1    3    3    0    0  0.27667236370E+02 -0.18924814287E+02  0.73960549855E+01  0.34341319042E+02  0.10000000000E+01 0.  0.
         21    1    1    2  502  501  0.44363011529E+02 -0.45059728702E+02  0.27919671171E+03  0.28626781128E+03  0.00000000000E+00 0. -1.
<mgrwt>
<rscale>  1 0.14009315E+03</rscale>
<asrwt>0</asrwt>
<pdfrwt beam="1">  1        4 0.69248779E-01 0.14009315E+03</pdfrwt>
<pdfrwt beam="2">  1       -4 0.50535970E-02 0.14009315E+03</pdfrwt>
<totfact> 0.76360923E+02</totfact>
</mgrwt>
</event>
<event>
 6    4  0.5642870E-004  0.1283396E+03  0.7818608E-02  0.1229941E+00
         -4   -1    0    0    0  501 -0.00000000000E+00  0.00000000000E+00  0.50075263143E+03  0.50075424191E+03  0.12700000000E+01 0.  1.
          4   -1    0    0  502    0  0.00000000000E+00 -0.00000000000E+00 -0.22827407001E+02  0.22862707854E+02  0.12700000000E+01 0.  1.
         25    2    1    2    0    0 -0.14303893318E+02 -0.25269753622E+02  0.47763649065E+03  0.49457826557E+03  0.12501152652E+03 0.  0.
    9000005    1    3    3    0    0  0.94303984325E+01 -0.28884183209E+01  0.45441310383E+03  0.45452122536E+03  0.10000000000E+01 0.  0.
    9000005    1    3    3    0    0 -0.23734291750E+02 -0.22381335301E+02  0.23223386822E+02  0.40057040208E+02  0.10000000000E+01 0.  0.
         21    1    1    2  502  501  0.14303893318E+02  0.25269753622E+02  0.28873378009E+00  0.29038684187E+02  0.00000000000E+00 0.  1.
<mgrwt>
<rscale>  1 0.12833956E+03</rscale>
<asrwt>0</asrwt>
<pdfrwt beam="2">  1        4 0.35147483E-02 0.12833956E+03</pdfrwt>
<pdfrwt beam="1">  1       -4 0.77041702E-01 0.12833956E+03</pdfrwt>
<totfact> 0.10603714E+03</totfact>
</mgrwt>
</event>
<event>
 6    4  0.5642870E-004  0.1298614E+03  0.7818608E-02  0.1227662E+00
          4   -1    0    0  502    0  0.00000000000E+00  0.00000000000E+00  0.12835142974E+02  0.12897821334E+02  0.12700000000E+01 0. -1.
         -4   -1    0    0    0  501 -0.00000000000E+00 -0.00000000000E+00 -0.54668422203E+03  0.54668569719E+03  0.12700000000E+01 0. -1.
         25    2    1    2    0    0 -0.28835581526E+02 -0.20193211153E+02 -0.37400005376E+03  0.39590405303E+03  0.12499888981E+03 0.  0.
    9000005    1    3    3    0    0  0.48507089104E+02 -0.22694497965E+01 -0.11054723200E+03  0.12074675398E+03  0.10000000000E+01 0.  0.
    9000005    1    3    3    0    0 -0.77342670631E+02 -0.17923761356E+02 -0.26345282176E+03  0.27515729904E+03  0.10000000000E+01 0.  0.
         21    1    1    2  502  501  0.28835581526E+02  0.20193211153E+02 -0.15984902529E+03  0.16367946550E+03  0.00000000000E+00 0.  1.
<mgrwt>
<rscale>  1 0.12986138E+03</rscale>
<asrwt>0</asrwt>
<pdfrwt beam="1">  1        4 0.19795727E-02 0.12986138E+03</pdfrwt>
<pdfrwt beam="2">  1       -4 0.84110182E-01 0.12986138E+03</pdfrwt>
<totfact> 0.21399050E+03</totfact>
</mgrwt>
</event>
<event>
 6    4  0.5642870E-004  0.1283225E+03  0.7818608E-02  0.1229966E+00
         -4   -1    0    0    0  501 -0.00000000000E+00  0.00000000000E+00  0.70491812158E+03  0.70491926561E+03  0.12700000000E+01 0. -1.
          4   -1    0    0  502    0  0.00000000000E+00 -0.00000000000E+00 -0.90142692118E+01  0.91032933284E+01  0.12700000000E+01 0. -1.
         25    2    1    2    0    0  0.71906244471E+01 -0.28098884023E+02  0.61010260587E+03  0.62345155771E+03  0.12500161102E+03 0.  0.
    9000005    1    3    3    0    0 -0.39184460806E+02  0.28404134618E+01  0.48374547869E+03  0.48533924019E+03  0.10000000000E+01 0.  0.
    9000005    1    3    3    0    0  0.46375085253E+02 -0.30939297485E+02  0.12635712718E+03  0.13811231752E+03  0.10000000000E+01 0.  0.
         21    1    1    2  502  501 -0.71906244471E+01  0.28098884023E+02  0.85801246494E+02  0.90571001227E+02  0.00000000000E+00 0. -1.
<mgrwt>
<rscale>  1 0.12832247E+03</rscale>
<asrwt>0</asrwt>
<pdfrwt beam="2">  1        4 0.13937467E-02 0.12832247E+03</pdfrwt>
<pdfrwt beam="1">  1       -4 0.10845588E+00 0.12832247E+03</pdfrwt>
<totfact> 0.20399505E+03</totfact>
</mgrwt>
</event>
<event>
 6    4  0.5642870E-004  0.1314918E+03  0.7818608E-02  0.1225259E+00
          4   -1    0    0  502    0  0.00000000000E+00  0.00000000000E+00  0.23262216038E+03  0.23262562713E+03  0.12700000000E+01 0.  1.
         -4   -1    0    0    0  501 -0.00000000000E+00 -0.00000000000E+00 -0.37962620717E+02  0.37983858041E+02  0.12700000000E+01 0.  1.
         25    2    1    2    0    0  0.42281796022E+01 -0.40586143014E+02  0.18775983980E+03  0.22922448347E+03  0.12499997550E+03 0.  0.
    9000005    1    3    3    0    0 -0.53536040198E+02  0.47149839934E+01  0.51482474713E+02  0.74429724417E+02  0.10000000000E+01 0.  0.
    9000005    1    3    3    0    0  0.57764219800E+02 -0.45301127008E+02  0.13627736508E+03  0.15479475906E+03  0.10000000000E+01 0.  0.
         21    1    1    2  502  501 -0.42281796022E+01  0.40586143014E+02  0.68996998641E+01  0.41385001701E+02  0.00000000000E+00 0.  1.
<mgrwt>
<rscale>  1 0.13149185E+03</rscale>
<asrwt>0</asrwt>
<pdfrwt beam="1">  1        4 0.35789925E-01 0.13149185E+03</pdfrwt>
<pdfrwt beam="2">  1       -4 0.58423035E-02 0.13149185E+03</pdfrwt>
<totfact> 0.22890417E+03</totfact>
</mgrwt>
</event>
<event>
 6    4  0.5642870E-004  0.1432461E+03  0.7818608E-02  0.1209027E+00
         -4   -1    0    0    0  501 -0.00000000000E+00  0.00000000000E+00  0.99124254875E+02  0.99132390290E+02  0.12700000000E+01 0.  1.
          4   -1    0    0  502    0  0.00000000000E+00 -0.00000000000E+00 -0.37226610315E+03  0.37226826947E+03  0.12700000000E+01 0.  1.
         25    2    1    2    0    0  0.50796401104E+02 -0.48103009351E+02  0.41451150096E+02  0.14912294024E+03  0.12500111835E+03 0.  0.
    9000005    1    3    3    0    0 -0.33963396068E+02  0.15379006500E+02  0.91106314908E+01  0.38393094686E+02  0.10000000000E+01 0.  0.
    9000005    1    3    3    0    0  0.84759797172E+02 -0.63482015852E+02  0.32340518606E+02  0.11072984556E+03  0.10000000000E+01 0.  0.
         21    1    1    2  502  501 -0.50796401104E+02  0.48103009351E+02 -0.31459299837E+03  0.32227771952E+03  0.00000000000E+00 0.  1.
<mgrwt>
<rscale>  1 0.14324613E+03</rscale>
<asrwt>0</asrwt>
<pdfrwt beam="2">  1        4 0.57272500E-01 0.14324613E+03</pdfrwt>
<pdfrwt beam="1">  1       -4 0.15250678E-01 0.14324613E+03</pdfrwt>
<totfact> 0.18067456E+02</totfact>
</mgrwt>
</event>
<event>
 6    4  0.5642870E-004  0.1281480E+03  0.7818608E-02  0.1230230E+00
         -4   -1    0    0    0  501 -0.00000000000E+00  0.00000000000E+00  0.24005575517E+02  0.24039146322E+02  0.12700000000E+01 0.  1.
          4   -1    0    0  502    0  0.00000000000E+00 -0.00000000000E+00 -0.25481705956E+03  0.25482022436E+03  0.12700000000E+01 0.  1.
         25    2    1    2    0    0 -0.21771786492E+02  0.17974735763E+02 -0.18506600442E+03  0.22510296903E+03  0.12499927544E+03 0.  0.
    9000005    1    3    3    0    0 -0.56051297420E+02 -0.11508444353E+02 -0.16677100505E+03  0.17631721516E+03  0.10000000000E+01 0.  0.
    9000005    1    3    3    0    0  0.34279510928E+02  0.29483180116E+02 -0.18294999370E+02  0.48785753875E+02  0.10000000000E+01 0.  0.
         21    1    1    2  502  501  0.21771786492E+02 -0.17974735763E+02 -0.45745479620E+02  0.53756401650E+02  0.00000000000E+00 0.  1.
<mgrwt>
<rscale>  1 0.12814804E+03</rscale>
<asrwt>0</asrwt>
<pdfrwt beam="2">  1        4 0.39205449E-01 0.12814804E+03</pdfrwt>
<pdfrwt beam="1">  1       -4 0.36959915E-02 0.12814804E+03</pdfrwt>
<totfact> 0.39631933E+03</totfact>
</mgrwt>
</event>
<event>
 6    4  0.5642870E-004  0.1270813E+03  0.7818608E-02  0.1231852E+00
         -4   -1    0    0    0  501 -0.00000000000E+00  0.00000000000E+00  0.97908603535E+01  0.98728844044E+01  0.12700000000E+01 0.  1.
          4   -1    0    0  502    0  0.00000000000E+00 -0.00000000000E+00 -0.57722154513E+03  0.57722294225E+03  0.12700000000E+01 0.  1.
         25    2    1    2    0    0  0.18302523181E+02 -0.13756179768E+02 -0.49941095436E+03  0.51532606587E+03  0.12500175199E+03 0.  0.
    9000005    1    3    3    0    0  0.64997054019E+02  0.20254789398E+02 -0.30523526217E+03  0.31273701220E+03  0.10000000000E+01 0.  0.
    9000005    1    3    3    0    0 -0.46694530838E+02 -0.34010969166E+02 -0.19417569219E+03  0.20258905368E+03  0.10000000000E+01 0.  0.
         21    1    1    2  502  501 -0.18302523181E+02  0.13756179768E+02 -0.68019730418E+02  0.71769760782E+02  0.00000000000E+00 0.  1.
<mgrwt>
<rscale>  1 0.12708128E+03</rscale>
<asrwt>0</asrwt>
<pdfrwt beam="2">  1        4 0.88809705E-01 0.12708128E+03</pdfrwt>
<pdfrwt beam="1">  1       -4 0.15127037E-02 0.12708128E+03</pdfrwt>
<totfact> 0.28452324E+03</totfact>
</mgrwt>
</event>
<event>
 6    4  0.5642870E-004  0.1269064E+03  0.7818608E-02  0.1232120E+00
          4   -1    0    0  502    0  0.00000000000E+00  0.00000000000E+00  0.65172608613E+03  0.65172732353E+03  0.12700000000E+01 0.  1.
         -4   -1    0    0    0  501 -0.00000000000E+00 -0.00000000000E+00 -0.15497315989E+02  0.15549266956E+02  0.12700000000E+01 0.  1.
         25    2    1    2    0    0  0.66522478115E+01  0.20892174868E+02  0.24944126912E+03  0.27986814154E+03  0.12499797813E+03 0.  0.
    9000005    1    3    3    0    0 -0.41705226138E+02 -0.14262281956E+02  0.19184733697E+03  0.19684801060E+03  0.10000000000E+01 0.  0.
    9000005    1    3    3    0    0  0.48357473950E+02  0.35154456823E+02  0.57593932151E+02  0.83020130944E+02  0.10000000000E+01 0.  0.
         21    1    1    2  502  501 -0.66522478115E+01 -0.20892174868E+02  0.38678750102E+03  0.38740844895E+03  0.00000000000E+00 0.  1.
<mgrwt>
<rscale>  1 0.12690638E+03</rscale>
<asrwt>0</asrwt>
<pdfrwt beam="1">  1        4 0.10026966E+00 0.12690638E+03</pdfrwt>
<pdfrwt beam="2">  1       -4 0.23882935E-02 0.12690638E+03</pdfrwt>
<totfact> 0.10698708E+03</totfact>
</mgrwt>
</event>
<event>
 6    4  0.5642870E-004  0.1267180E+03  0.7818608E-02  0.1232408E+00
         -4   -1    0    0    0  501 -0.00000000000E+00  0.00000000000E+00  0.82793760628E+01  0.83762144188E+01  0.12700000000E+01 0. -1.
          4   -1    0    0  502    0  0.00000000000E+00 -0.00000000000E+00 -0.65346609001E+03  0.65346732412E+03  0.12700000000E+01 0. -1.
         25    2    1    2    0    0  0.11800096336E+02  0.17151092808E+02 -0.55097959787E+03  0.56536357700E+03  0.12499621865E+03 0.  0.
    9000005    1    3    3    0    0 -0.39177343506E+02 -0.35481256842E+02 -0.25781080849E+03  0.26317522073E+03  0.10000000000E+01 0.  0.
    9000005    1    3    3    0    0  0.50977439842E+02  0.52632349650E+02 -0.29316878938E+03  0.30218835627E+03  0.10000000000E+01 0.  0.
         21    1    1    2  502  501 -0.11800096336E+02 -0.17151092808E+02 -0.94207116079E+02  0.96479961536E+02  0.00000000000E+00 0. -1.
<mgrwt>
<rscale>  1 0.12671802E+03</rscale>
<asrwt>0</asrwt>
<pdfrwt beam="2">  1        4 0.10054075E+00 0.12671802E+03</pdfrwt>
<pdfrwt beam="1">  1       -4 0.12812947E-02 0.12671802E+03</pdfrwt>
<totfact> 0.27577363E+03</totfact>
</mgrwt>
</event>
<event>
 6    4  0.5642870E-004  0.1276806E+03  0.7818608E-02  0.1230938E+00
         -4   -1    0    0    0  501 -0.00000000000E+00  0.00000000000E+00  0.15668231487E+03  0.15668746182E+03  0.12700000000E+01 0. -1.
          4   -1    0    0  502    0  0.00000000000E+00 -0.00000000000E+00 -0.52198025027E+02  0.52213472559E+02  0.12700000000E+01 0. -1.
         25    2    1    2    0    0 -0.21792244527E+02 -0.14259718739E+02  0.12273056893E+03  0.17710206332E+03  0.12499642709E+03 0.  0.
    9000005    1    3    3    0    0 -0.64059910412E+02 -0.30873729732E+02  0.37208762762E+02  0.80264259393E+02  0.10000000000E+01 0.  0.
    9000005    1    3    3    0    0  0.42267665886E+02  0.16614010993E+02  0.85521806165E+02  0.96837803932E+02  0.10000000000E+01 0.  0.
         21    1    1    2  502  501  0.21792244527E+02  0.14259718739E+02 -0.18246279086E+02  0.31798871057E+02  0.00000000000E+00 0. -1.
<mgrwt>
<rscale>  1 0.12768065E+03</rscale>
<asrwt>0</asrwt>
<pdfrwt beam="2">  1        4 0.80320496E-02 0.12768065E+03</pdfrwt>
<pdfrwt beam="1">  1       -4 0.24106556E-01 0.12768065E+03</pdfrwt>
<totfact> 0.28410058E+03</totfact>
</mgrwt>
</event>
<event>
 6    4  0.5642870E-004  0.1271946E+03  0.7818608E-02  0.1231679E+00
          4   -1    0    0  502    0  0.00000000000E+00  0.00000000000E+00  0.15344934476E+02  0.15397399588E+02  0.12700000000E+01 0. -1.
         -4   -1    0    0    0  501 -0.00000000000E+00 -0.00000000000E+00 -0.70611909206E+03  0.70612023414E+03  0.12700000000E+01 0. -1.
         25    2    1    2    0    0 -0.15569760377E+02  0.17639243245E+02 -0.68576663836E+03  0.69746278829E+03  0.12499959367E+03 0.  0.
    9000005    1    3    3    0    0  0.53065116914E+02  0.13243458558E+02 -0.38912924893E+03  0.39295530051E+03  0.10000000000E+01 0.  0.
    9000005    1    3    3    0    0 -0.68634877292E+02  0.43957846864E+01 -0.29663738943E+03  0.30450748778E+03  0.10000000000E+01 0.  0.
         21    1    1    2  502  501  0.15569760377E+02 -0.17639243245E+02 -0.50075192167E+01  0.24054845440E+02  0.00000000000E+00 0. -1.
<mgrwt>
<rscale>  1 0.12719457E+03</rscale>
<asrwt>0</asrwt>
<pdfrwt beam="1">  1        4 0.23648833E-02 0.12719457E+03</pdfrwt>
<pdfrwt beam="2">  1       -4 0.10863780E+00 0.12719457E+03</pdfrwt>
<totfact> 0.90150629E+02</totfact>
</mgrwt>
</event>
<event>
 6    4  0.5642870E-004  0.1378807E+03  0.7818608E-02  0.1216209E+00
          4   -1    0    0  502    0  0.00000000000E+00  0.00000000000E+00  0.12553488795E+03  0.12554131190E+03  0.12700000000E+01 0. -1.
         -4   -1    0    0    0  501 -0.00000000000E+00 -0.00000000000E+00 -0.85182293050E+02  0.85191759867E+02  0.12700000000E+01 0. -1.
         25    2    1    2    0    0  0.42466222186E+02 -0.39786342796E+02 -0.34080966122E+01  0.13792283058E+03  0.12499903589E+03 0.  0.
    9000005    1    3    3    0    0  0.15898146962E+02  0.50334188862E+01  0.56268158123E+02  0.58695757948E+02  0.10000000000E+01 0.  0.
    9000005    1    3    3    0    0  0.26568075224E+02 -0.44819761682E+02 -0.59676254735E+02  0.79227072630E+02  0.10000000000E+01 0.  0.
         21    1    1    2  502  501 -0.42466222186E+02  0.39786342796E+02  0.43760691515E+02  0.72810241187E+02  0.00000000000E+00 0. -1.
<mgrwt>
<rscale>  1 0.13788072E+03</rscale>
<asrwt>0</asrwt>
<pdfrwt beam="1">  1        4 0.19314282E-01 0.13788072E+03</pdfrwt>
<pdfrwt beam="2">  1       -4 0.13106191E-01 0.13788072E+03</pdfrwt>
<totfact> 0.18910679E+03</totfact>
</mgrwt>
</event>
<event>
 6    4  0.5642870E-004  0.1266396E+03  0.7818608E-02  0.1232529E+00
          4   -1    0    0  502    0  0.00000000000E+00  0.00000000000E+00  0.10303241685E+02  0.10381218099E+02  0.12700000000E+01 0.  1.
         -4   -1    0    0    0  501 -0.00000000000E+00 -0.00000000000E+00 -0.56799113514E+03  0.56799255497E+03  0.12700000000E+01 0.  1.
         25    2    1    2    0    0  0.11021287128E+02 -0.17070029275E+02 -0.52353301352E+03  0.53863197526E+03  0.12499893543E+03 0.  0.
    9000005    1    3    3    0    0  0.25485447846E+02 -0.66780446970E+02 -0.36239860343E+03  0.36938175905E+03  0.10000000000E+01 0.  0.
    9000005    1    3    3    0    0 -0.14464160718E+02  0.49710417695E+02 -0.16113441009E+03  0.16925021621E+03  0.10000000000E+01 0.  0.
         21    1    1    2  502  501 -0.11021287128E+02  0.17070029275E+02 -0.34154879933E+02  0.39741797803E+02  0.00000000000E+00 0. -1.
<mgrwt>
<rscale>  1 0.12663960E+03</rscale>
<asrwt>0</asrwt>
<pdfrwt beam="1">  1        4 0.15912219E-02 0.12663960E+03</pdfrwt>
<pdfrwt beam="2">  1       -4 0.87389335E-01 0.12663960E+03</pdfrwt>
<totfact> 0.27288996E+03</totfact>
</mgrwt>
</event>
<event>
 6    4  0.5642870E-004  0.1400748E+03  0.7818608E-02  0.1213228E+00
         -4   -1    0    0    0  501 -0.00000000000E+00  0.00000000000E+00  0.14195113347E+03  0.14195681454E+03  0.12700000000E+01 0.  1.
          4   -1    0    0  502    0  0.00000000000E+00 -0.00000000000E+00 -0.11466781826E+03  0.11467485096E+03  0.12700000000E+01 0.  1.
         25    2    1    2    0    0 -0.50154199327E+02 -0.38468892329E+02  0.90874493141E+02  0.16697042919E+03  0.12500260530E+03 0.  0.
    9000005    1    3    3    0    0 -0.78013304048E+02  0.15028704769E+02  0.56999808956E+02  0.97785048941E+02  0.10000000000E+01 0.  0.
    9000005    1    3    3    0    0  0.27859104721E+02 -0.53497597099E+02  0.33874684186E+02  0.69185380247E+02  0.10000000000E+01 0.  0.
         21    1    1    2  502  501  0.50154199327E+02  0.38468892329E+02 -0.63591177926E+02  0.89661236313E+02  0.00000000000E+00 0.  1.
<mgrwt>
<rscale>  1 0.14007480E+03</rscale>
<asrwt>0</asrwt>
<pdfrwt beam="2">  1        4 0.17642181E-01 0.14007480E+03</pdfrwt>
<pdfrwt beam="1">  1       -4 0.21839614E-01 0.14007480E+03</pdfrwt>
<totfact> 0.90360983E+02</totfact>
</mgrwt>
</event>
<event>
 6    4  0.5642870E-004  0.1266304E+03  0.7818608E-02  0.1232543E+00
          4   -1    0    0  502    0  0.00000000000E+00  0.00000000000E+00  0.32640406623E+03  0.32640653693E+03  0.12700000000E+01 0. -1.
         -4   -1    0    0    0  501 -0.00000000000E+00 -0.00000000000E+00 -0.22811739380E+02  0.22847064441E+02  0.12700000000E+01 0. -1.
         25    2    1    2    0    0 -0.79890170821E+01  0.18559514181E+02  0.15903715487E+03  0.20329306662E+03  0.12500789713E+03 0.  0.
    9000005    1    3    3    0    0  0.55345222559E+02 -0.10398246111E+02  0.81504742927E+02  0.99071894611E+02  0.10000000000E+01 0.  0.
    9000005    1    3    3    0    0 -0.63334239641E+02  0.28957760292E+02  0.77532411945E+02  0.10422117200E+03  0.10000000000E+01 0.  0.
         21    1    1    2  502  501  0.79890170821E+01 -0.18559514181E+02  0.14455517197E+03  0.14596053475E+03  0.00000000000E+00 0. -1.
<mgrwt>
<rscale>  1 0.12663038E+03</rscale>
<asrwt>0</asrwt>
<pdfrwt beam="1">  1        4 0.50218917E-01 0.12663038E+03</pdfrwt>
<pdfrwt beam="2">  1       -4 0.35124058E-02 0.12663038E+03</pdfrwt>
<totfact> 0.26122571E+03</totfact>
</mgrwt>
</event>
<event>
 6    4  0.5642870E-004  0.1373408E+03  0.7818608E-02  0.1216953E+00
          4   -1    0    0  502    0  0.00000000000E+00  0.00000000000E+00  0.43713734192E+03  0.43713918676E+03  0.12700000000E+01 0.  1.
         -4   -1    0    0    0  501 -0.00000000000E+00 -0.00000000000E+00 -0.42040147619E+02  0.42059326098E+02  0.12700000000E+01 0.  1.
         25    2    1    2    0    0 -0.47520275565E+02 -0.31531785843E+02  0.79916648769E+02  0.15889989221E+03  0.12494028528E+03 0.  0.
    9000005    1    3    3    0    0 -0.20401275671E+02 -0.33334754844E+02 -0.27691078251E+02  0.47908389080E+02  0.10000000000E+01 0.  0.
    9000005    1    3    3    0    0 -0.27118999894E+02  0.18029690017E+01  0.10760772702E+03  0.11099150313E+03  0.10000000000E+01 0.  0.
         21    1    1    2  502  501  0.47520275565E+02  0.31531785843E+02  0.31518054553E+03  0.32029862065E+03  0.00000000000E+00 0.  1.
<mgrwt>
<rscale>  1 0.13734084E+03</rscale>
<asrwt>0</asrwt>
<pdfrwt beam="1">  1        4 0.67253515E-01 0.13734084E+03</pdfrwt>
<pdfrwt beam="2">  1       -4 0.64693322E-02 0.13734084E+03</pdfrwt>
<totfact> 0.54271763E+02</totfact>
</mgrwt>
</event>
<event>
 6    4  0.5642870E-004  0.1277828E+03  0.7818608E-02  0.1230783E+00
         -4   -1    0    0    0  501 -0.00000000000E+00  0.00000000000E+00  0.14476947984E+03  0.14477505032E+03  0.12700000000E+01 0.  1.
          4   -1    0    0  502    0  0.00000000000E+00 -0.00000000000E+00 -0.41212747395E+02  0.41232310726E+02  0.12700000000E+01 0.  1.
         25    2    1    2    0    0 -0.22387409198E+02  0.14214465035E+02  0.89352308907E+02  0.15592393114E+03  0.12500076035E+03 0.  0.
    9000005    1    3    3    0    0 -0.70363728406E+02  0.36227505703E+01  0.24597816133E+02  0.74633981237E+02  0.10000000000E+01 0.  0.
    9000005    1    3    3    0    0  0.47976319208E+02  0.10591714465E+02  0.64754492774E+02  0.81289949899E+02  0.10000000000E+01 0.  0.
         21    1    1    2  502  501  0.22387409198E+02 -0.14214465035E+02  0.14204423542E+02  0.30083429907E+02  0.00000000000E+00 0.  1.
<mgrwt>
<rscale>  1 0.12778277E+03</rscale>
<asrwt>0</asrwt>
<pdfrwt beam="2">  1        4 0.63423561E-02 0.12778277E+03</pdfrwt>
<pdfrwt beam="1">  1       -4 0.22274161E-01 0.12778277E+03</pdfrwt>
<totfact> 0.48382711E+03</totfact>
</mgrwt>
</event>
<event>
 6    4  0.5642870E-004  0.1288813E+03  0.7818608E-02  0.1229125E+00
         -4   -1    0    0    0  501 -0.00000000000E+00  0.00000000000E+00  0.90312038717E+03  0.90312128013E+03  0.12700000000E+01 0. -1.
          4   -1    0    0  502    0  0.00000000000E+00 -0.00000000000E+00 -0.74608999999E+01  0.75682183378E+01  0.12700000000E+01 0. -1.
         25    2    1    2    0    0 -0.30644273498E+02  0.65660242413E+01  0.79126116620E+03  0.80168861043E+03  0.12501284245E+03 0.  0.
    9000005    1    3    3    0    0 -0.40543349981E+02  0.45811815583E+02  0.20260759757E+03  0.21164433436E+03  0.10000000000E+01 0.  0.
    9000005    1    3    3    0    0  0.98990764830E+01 -0.39245791342E+02  0.58865356864E+03  0.59004427607E+03  0.10000000000E+01 0.  0.
         21    1    1    2  502  501  0.30644273498E+02 -0.65660242413E+01  0.10439832097E+03  0.10900088804E+03  0.00000000000E+00 0. -1.
<mgrwt>
<rscale>  1 0.12888132E+03</rscale>
<asrwt>0</asrwt>
<pdfrwt beam="2">  1        4 0.11561547E-02 0.12888132E+03</pdfrwt>
<pdfrwt beam="1">  1       -4 0.13894993E+00 0.12888132E+03</pdfrwt>
<totfact> 0.14907066E+03</totfact>
</mgrwt>
</event>
<event>
 6    4  0.5642870E-004  0.1277370E+03  0.7818608E-02  0.1230853E+00
         -4   -1    0    0    0  501 -0.00000000000E+00  0.00000000000E+00  0.56958361235E+03  0.56958502821E+03  0.12700000000E+01 0.  1.
          4   -1    0    0  502    0  0.00000000000E+00 -0.00000000000E+00 -0.10567453317E+02  0.10643494239E+02  0.12700000000E+01 0.  1.
         25    2    1    2    0    0 -0.95533825619E+01 -0.24504548270E+02  0.48983847797E+03  0.50621979619E+03  0.12500003022E+03 0.  0.
    9000005    1    3    3    0    0 -0.13188492962E+02 -0.39276201187E+02  0.45213953404E+02  0.61333986571E+02  0.10000000000E+01 0.  0.
    9000005    1    3    3    0    0  0.36351104002E+01  0.14771652917E+02  0.44462452456E+03  0.44488580962E+03  0.10000000000E+01 0.  0.
         21    1    1    2  502  501  0.95533825619E+01  0.24504548270E+02  0.69177681065E+02  0.74008726254E+02  0.00000000000E+00 0.  1.
<mgrwt>
<rscale>  1 0.12773703E+03</rscale>
<asrwt>0</asrwt>
<pdfrwt beam="2">  1        4 0.16317201E-02 0.12773703E+03</pdfrwt>
<pdfrwt beam="1">  1       -4 0.87634216E-01 0.12773703E+03</pdfrwt>
<totfact> 0.26150914E+03</totfact>
</mgrwt>
</event>
<event>
 6    4  0.5642870E-004  0.1278092E+03  0.7818608E-02  0.1230743E+00
          4   -1    0    0  502    0  0.00000000000E+00  0.00000000000E+00  0.24688885522E+03  0.24689212165E+03  0.12700000000E+01 0.  1.
         -4   -1    0    0    0  501 -0.00000000000E+00 -0.00000000000E+00 -0.26530604180E+02  0.26560983757E+02  0.12700000000E+01 0.  1.
         25    2    1    2    0    0  0.11404833028E+02  0.24081880050E+02  0.14379457925E+03  0.19238521410E+03  0.12500072967E+03 0.  0.
    9000005    1    3    3    0    0  0.57206388122E+02  0.41190934708E+02  0.49431453324E+02  0.86103034336E+02  0.10000000000E+01 0.  0.
    9000005    1    3    3    0    0 -0.45801555095E+02 -0.17109054658E+02  0.94363125931E+02  0.10628217977E+03  0.10000000000E+01 0.  0.
         21    1    1    2  502  501 -0.11404833028E+02 -0.24081880050E+02  0.76563671786E+02  0.81067891304E+02  0.00000000000E+00 0. -1.
<mgrwt>
<rscale>  1 0.12780919E+03</rscale>
<asrwt>0</asrwt>
<pdfrwt beam="1">  1        4 0.37985488E-01 0.12780919E+03</pdfrwt>
<pdfrwt beam="2">  1       -4 0.40842197E-02 0.12780919E+03</pdfrwt>
<totfact> 0.35965930E+03</totfact>
</mgrwt>
</event>
<event>
 6    4  0.5642870E-004  0.1310643E+03  0.7818608E-02  0.1225885E+00
          4   -1    0    0  502    0  0.00000000000E+00  0.00000000000E+00  0.62342687978E+03  0.62342817335E+03  0.12700000000E+01 0. -1.
         -4   -1    0    0    0  501 -0.00000000000E+00 -0.00000000000E+00 -0.11933823285E+02  0.12001209864E+02  0.12700000000E+01 0. -1.
         25    2    1    2    0    0  0.22282978102E+02 -0.32522638358E+02  0.42223984192E+03  0.44211349576E+03  0.12499442349E+03 0.  0.
    9000005    1    3    3    0    0 -0.28191770795E+02  0.39517299789E+01  0.19344494589E+02  0.34432565709E+02  0.10000000000E+01 0.  0.
    9000005    1    3    3    0    0  0.50474748897E+02 -0.36474368337E+02  0.40289534733E+03  0.40768093005E+03  0.10000000000E+01 0.  0.
         21    1    1    2  502  501 -0.22282978102E+02  0.32522638358E+02  0.18925321457E+03  0.19331588746E+03  0.00000000000E+00 0. -1.
<mgrwt>
<rscale>  1 0.13106433E+03</rscale>
<asrwt>0</asrwt>
<pdfrwt beam="1">  1        4 0.95917136E-01 0.13106433E+03</pdfrwt>
<pdfrwt beam="2">  1       -4 0.18412554E-02 0.13106433E+03</pdfrwt>
<totfact> 0.17818993E+03</totfact>
</mgrwt>
</event>
<event>
 6    4  0.5642870E-004  0.1291722E+03  0.7818608E-02  0.1228689E+00
         -4   -1    0    0    0  501 -0.00000000000E+00  0.00000000000E+00  0.17965885570E+03  0.17966334443E+03  0.12700000000E+01 0. -1.
          4   -1    0    0  502    0  0.00000000000E+00 -0.00000000000E+00 -0.50470157354E+02  0.50486133575E+02  0.12700000000E+01 0. -1.
         25    2    1    2    0    0  0.30272435945E+01 -0.32416670792E+02  0.14479992115E+03  0.19404248385E+03  0.12500185448E+03 0.  0.
    9000005    1    3    3    0    0 -0.19899082079E+02 -0.63824240632E+02  0.30848934026E+02  0.73635344030E+02  0.10000000000E+01 0.  0.
    9000005    1    3    3    0    0  0.22926325674E+02  0.31407569840E+02  0.11395098713E+03  0.12040713982E+03  0.10000000000E+01 0.  0.
         21    1    1    2  502  501 -0.30272435945E+01  0.32416670792E+02 -0.15611222810E+02  0.36106994151E+02  0.00000000000E+00 0.  1.
<mgrwt>
<rscale>  1 0.12917224E+03</rscale>
<asrwt>0</asrwt>
<pdfrwt beam="2">  1        4 0.77662139E-02 0.12917224E+03</pdfrwt>
<pdfrwt beam="1">  1       -4 0.27641398E-01 0.12917224E+03</pdfrwt>
<totfact> 0.23378594E+03</totfact>
</mgrwt>
</event>
<event>
 6    4  0.5642870E-004  0.1598949E+03  0.7818608E-02  0.1188815E+00
          4   -1    0    0  502    0  0.00000000000E+00  0.00000000000E+00  0.56726584301E+03  0.56726726465E+03  0.12700000000E+01 0.  1.
         -4   -1    0    0    0  501 -0.00000000000E+00 -0.00000000000E+00 -0.53122046196E+02  0.53137225107E+02  0.12700000000E+01 0.  1.
         25    2    1    2    0    0 -0.97196495733E+02  0.22233714122E+02  0.87512118585E+02  0.18227655674E+03  0.12499950164E+03 0.  0.
    9000005    1    3    3    0    0 -0.39436315749E+02  0.32779127655E+02 -0.23708732698E+02  0.56504851259E+02  0.10000000000E+01 0.  0.
    9000005    1    3    3    0    0 -0.57760179984E+02 -0.10545413532E+02  0.11122085128E+03  0.12577170548E+03  0.10000000000E+01 0.  0.
         21    1    1    2  502  501  0.97196495733E+02 -0.22233714122E+02  0.42663167823E+03  0.43812793302E+03  0.00000000000E+00 0.  1.
<mgrwt>
<rscale>  1 0.15989488E+03</rscale>
<asrwt>0</asrwt>
<pdfrwt beam="1">  1        4 0.87272938E-01 0.15989488E+03</pdfrwt>
<pdfrwt beam="2">  1       -4 0.81739001E-02 0.15989488E+03</pdfrwt>
<totfact> 0.21393556E+02</totfact>
</mgrwt>
</event>
<event>
 6    4  0.5642870E-004  0.1409638E+03  0.7818608E-02  0.1212038E+00
          4   -1    0    0  502    0  0.00000000000E+00  0.00000000000E+00  0.36663475125E+03  0.36663695084E+03  0.12700000000E+01 0. -1.
         -4   -1    0    0    0  501 -0.00000000000E+00 -0.00000000000E+00 -0.34496419686E+02  0.34519789559E+02  0.12700000000E+01 0. -1.
         25    2    1    2    0    0 -0.11568398857E+02 -0.64129848981E+02  0.14168481478E+03  0.19986340361E+03  0.12499731189E+03 0.  0.
    9000005    1    3    3    0    0 -0.54421928034E+02 -0.13743541508E+02  0.11605315429E+03  0.12891844633E+03  0.10000000000E+01 0.  0.
    9000005    1    3    3    0    0  0.42853529176E+02 -0.50386307472E+02  0.25631660492E+02  0.70944957278E+02  0.10000000000E+01 0.  0.
         21    1    1    2  502  501  0.11568398857E+02  0.64129848981E+02  0.19045351678E+03  0.20129333679E+03  0.00000000000E+00 0. -1.
<mgrwt>
<rscale>  1 0.14096380E+03</rscale>
<asrwt>0</asrwt>
<pdfrwt beam="1">  1        4 0.56407312E-01 0.14096380E+03</pdfrwt>
<pdfrwt beam="2">  1       -4 0.53091084E-02 0.14096380E+03</pdfrwt>
<totfact> 0.10900008E+03</totfact>
</mgrwt>
</event>
<event>
 6    4  0.5642870E-004  0.1271923E+03  0.7818608E-02  0.1231682E+00
          4   -1    0    0  502    0  0.00000000000E+00  0.00000000000E+00  0.33700020889E+03  0.33700260191E+03  0.12700000000E+01 0.  1.
         -4   -1    0    0    0  501 -0.00000000000E+00 -0.00000000000E+00 -0.17324192889E+02  0.17370681024E+02  0.12700000000E+01 0.  1.
         25    2    1    2    0    0  0.18852205132E+01  0.23434411613E+02  0.24447367504E+03  0.27558167304E+03  0.12500062008E+03 0.  0.
    9000005    1    3    3    0    0  0.33863113018E+02  0.33946619398E+02  0.26050345828E+02  0.54577503695E+02  0.10000000000E+01 0.  0.
    9000005    1    3    3    0    0 -0.31977892504E+02 -0.10512207785E+02  0.21842332922E+03  0.22100416934E+03  0.10000000000E+01 0.  0.
         21    1    1    2  502  501 -0.18852205132E+01 -0.23434411613E+02  0.75202340961E+02  0.78791609896E+02  0.00000000000E+00 0.  1.
<mgrwt>
<rscale>  1 0.12719230E+03</rscale>
<asrwt>0</asrwt>
<pdfrwt beam="1">  1        4 0.51849940E-01 0.12719230E+03</pdfrwt>
<pdfrwt beam="2">  1       -4 0.26690208E-02 0.12719230E+03</pdfrwt>
<totfact> 0.37660308E+03</totfact>
</mgrwt>
</event>
<event>
 6    4  0.5642870E-004  0.1440952E+03  0.7818608E-02  0.1207922E+00
         -4   -1    0    0    0  501 -0.00000000000E+00  0.00000000000E+00  0.14166380702E+04  0.14166386395E+04  0.12700000000E+01 0. -1.
          4   -1    0    0  502    0  0.00000000000E+00 -0.00000000000E+00 -0.85629455727E+01  0.86566123213E+01  0.12700000000E+01 0. -1.
         25    2    1    2    0    0  0.22392050160E+02 -0.68092591332E+02  0.10735106663E+04  0.10831382971E+04  0.12500165984E+03 0.  0.
    9000005    1    3    3    0    0 -0.18403945005E+02 -0.79194874324E+02  0.92940325116E+03  0.93295334105E+03  0.10000000000E+01 0.  0.
    9000005    1    3    3    0    0  0.40795995166E+02  0.11102282992E+02  0.14410741516E+03  0.15018495601E+03  0.10000000000E+01 0.  0.
         21    1    1    2  502  501 -0.22392050160E+02  0.68092591332E+02  0.33456445832E+03  0.34215695474E+03  0.00000000000E+00 0. -1.
<mgrwt>
<rscale>  1 0.14409518E+03</rscale>
<asrwt>0</asrwt>
<pdfrwt beam="2">  1        4 0.13246245E-02 0.14409518E+03</pdfrwt>
<pdfrwt beam="1">  1       -4 0.21795168E+00 0.14409518E+03</pdfrwt>
<totfact> 0.36635086E+02</totfact>
</mgrwt>
</event>
<event>
 6    4  0.5642870E-004  0.1294642E+03  0.7818608E-02  0.1228253E+00
          4   -1    0    0  502    0  0.00000000000E+00  0.00000000000E+00  0.27171226954E+02  0.27200891055E+02  0.12700000000E+01 0. -1.
         -4   -1    0    0    0  501 -0.00000000000E+00 -0.00000000000E+00 -0.24953242282E+03  0.24953565464E+03  0.12700000000E+01 0. -1.
         25    2    1    2    0    0 -0.17846440481E+02  0.28595084549E+02 -0.15970127727E+03  0.20558572211E+03  0.12499926751E+03 0.  0.
    9000005    1    3    3    0    0 -0.32313513253E+02 -0.40887432074E+02 -0.37308872284E+02  0.64100680117E+02  0.10000000000E+01 0.  0.
    9000005    1    3    3    0    0  0.14467072771E+02  0.69482516624E+02 -0.12239240498E+03  0.14148504200E+03  0.10000000000E+01 0.  0.
         21    1    1    2  502  501  0.17846440481E+02 -0.28595084549E+02 -0.62659918597E+02  0.71150823585E+02  0.00000000000E+00 0. -1.
<mgrwt>
<rscale>  1 0.12946425E+03</rscale>
<asrwt>0</asrwt>
<pdfrwt beam="1">  1        4 0.41827194E-02 0.12946425E+03</pdfrwt>
<pdfrwt beam="2">  1       -4 0.38392133E-01 0.12946425E+03</pdfrwt>
<totfact> 0.34023767E+03</totfact>
</mgrwt>
</event>
<event>
 6    4  0.5642870E-004  0.1272265E+03  0.7818608E-02  0.1231630E+00
         -4   -1    0    0    0  501 -0.00000000000E+00  0.00000000000E+00  0.19043830438E+02  0.19086130507E+02  0.12700000000E+01 0. -1.
          4   -1    0    0  502    0  0.00000000000E+00 -0.00000000000E+00 -0.30136573798E+03  0.30136841395E+03  0.12700000000E+01 0. -1.
         25    2    1    2    0    0  0.85874787112E+01 -0.22075180796E+02 -0.22591744109E+03  0.25927838707E+03  0.12500213363E+03 0.  0.
    9000005    1    3    3    0    0 -0.57963823198E+02 -0.92342940830E+01 -0.11884002919E+03  0.13254821584E+03  0.10000000000E+01 0.  0.
    9000005    1    3    3    0    0  0.66551301909E+02 -0.12840886713E+02 -0.10707741191E+03  0.12673017122E+03  0.10000000000E+01 0.  0.
         21    1    1    2  502  501 -0.85874787112E+01  0.22075180796E+02 -0.56404466452E+02  0.61176157394E+02  0.00000000000E+00 0. -1.
<mgrwt>
<rscale>  1 0.12722654E+03</rscale>
<asrwt>0</asrwt>
<pdfrwt beam="2">  1        4 0.46367416E-01 0.12722654E+03</pdfrwt>
<pdfrwt beam="1">  1       -4 0.29332800E-02 0.12722654E+03</pdfrwt>
<totfact> 0.40775593E+03</totfact>
</mgrwt>
</event>
<event>
 6    4  0.5642870E-004  0.1412897E+03  0.7818608E-02  0.1211604E+00
          4   -1    0    0  502    0  0.00000000000E+00  0.00000000000E+00  0.29966942806E+03  0.29967211918E+03  0.12700000000E+01 0. -1.
         -4   -1    0    0    0  501 -0.00000000000E+00 -0.00000000000E+00 -0.61908773403E+02  0.61921798458E+02  0.12700000000E+01 0. -1.
         25    2    1    2    0    0 -0.65616102732E+02 -0.56704928372E+01  0.31072332146E+02  0.14466607229E+03  0.12500062087E+03 0.  0.
    9000005    1    3    3    0    0 -0.69198183749E+02 -0.12163009488E+02  0.73441424664E+02  0.10164138080E+03  0.10000000000E+01 0.  0.
    9000005    1    3    3    0    0  0.35820810163E+01  0.64925166512E+01 -0.42369092518E+02  0.43024691488E+02  0.10000000000E+01 0.  0.
         21    1    1    2  502  501  0.65616102732E+02  0.56704928372E+01  0.20668832251E+03  0.21692784535E+03  0.00000000000E+00 0. -1.
<mgrwt>
<rscale>  1 0.14128971E+03</rscale>
<asrwt>0</asrwt>
<pdfrwt beam="1">  1        4 0.46104198E-01 0.14128971E+03</pdfrwt>
<pdfrwt beam="2">  1       -4 0.95256356E-02 0.14128971E+03</pdfrwt>
<totfact> 0.62960808E+02</totfact>
</mgrwt>
</event>
<event>
 6    4  0.5642870E-004  0.1282273E+03  0.7818608E-02  0.1230110E+00
          4   -1    0    0  502    0  0.00000000000E+00  0.00000000000E+00  0.32286763017E+01  0.34694741188E+01  0.12700000000E+01 0. -1.
         -4   -1    0    0    0  501 -0.00000000000E+00 -0.00000000000E+00 -0.21913209929E+04  0.21913213609E+04  0.12700000000E+01 0. -1.
         25    2    1    2    0    0  0.27491035741E+02 -0.78411282447E+01 -0.20360851727E+04  0.20401188850E+04  0.12499997614E+03 0.  0.
    9000005    1    3    3    0    0 -0.59109995463E+00  0.54637337395E+02 -0.63001590204E+03  0.63238170820E+03  0.10000000000E+01 0.  0.
    9000005    1    3    3    0    0  0.28082135696E+02 -0.62478465640E+02 -0.14060692706E+04  0.14077371768E+04  0.10000000000E+01 0.  0.
         21    1    1    2  502  501 -0.27491035741E+02  0.78411282447E+01 -0.15200714393E+03  0.15467195009E+03  0.00000000000E+00 0. -1.
<mgrwt>
<rscale>  1 0.12822728E+03</rscale>
<asrwt>0</asrwt>
<pdfrwt beam="1">  1        4 0.51527240E-03 0.12822728E+03</pdfrwt>
<pdfrwt beam="2">  1       -4 0.33714371E+00 0.12822728E+03</pdfrwt>
<totfact> 0.30018569E+02</totfact>
</mgrwt>
</event>
<event>
 6    4  0.5642870E-004  0.1306358E+03  0.7818608E-02  0.1226515E+00
          4   -1    0    0  502    0  0.00000000000E+00  0.00000000000E+00  0.34433709138E+03  0.34433943341E+03  0.12700000000E+01 0.  1.
         -4   -1    0    0    0  501 -0.00000000000E+00 -0.00000000000E+00 -0.33359465125E+02  0.33383630921E+02  0.12700000000E+01 0.  1.
         25    2    1    2    0    0  0.35057638535E+02 -0.14567977986E+02  0.10313265476E+03  0.16643937784E+03  0.12499783204E+03 0.  0.
    9000005    1    3    3    0    0  0.38022215312E+01  0.36990929071E+02  0.99274309747E+02  0.10601497205E+03  0.10000000000E+01 0.  0.
    9000005    1    3    3    0    0  0.31255417004E+02 -0.51558907057E+02  0.38583450138E+01  0.60424405792E+02  0.10000000000E+01 0.  0.
         21    1    1    2  502  501 -0.35057638535E+02  0.14567977986E+02  0.20784497150E+03  0.21128368649E+03  0.00000000000E+00 0.  1.
<mgrwt>
<rscale>  1 0.13063584E+03</rscale>
<asrwt>0</asrwt>
<pdfrwt beam="1">  1        4 0.52976975E-01 0.13063584E+03</pdfrwt>
<pdfrwt beam="2">  1       -4 0.51342646E-02 0.13063584E+03</pdfrwt>
<totfact> 0.12888643E+03</totfact>
</mgrwt>
</event>
<event>
 6    4  0.5642870E-004  0.1267309E+03  0.7818608E-02  0.1232389E+00
         -4   -1    0    0    0  501 -0.00000000000E+00  0.00000000000E+00  0.16443622936E+03  0.16444113362E+03  0.12700000000E+01 0. -1.
          4   -1    0    0  502    0  0.00000000000E+00 -0.00000000000E+00 -0.64665800256E+02  0.64678270097E+02  0.12700000000E+01 0. -1.
         25    2    1    2    0    0  0.19889443444E+02 -0.64825249866E+01  0.13686789702E+03  0.18653025937E+03  0.12499241311E+03 0.  0.
    9000005    1    3    3    0    0 -0.38153698083E+02 -0.88009363630E+01  0.11970499392E+03  0.12595017557E+03  0.10000000000E+01 0.  0.
    9000005    1    3    3    0    0  0.58043141527E+02  0.23184113765E+01  0.17162903099E+02  0.60580083794E+02  0.10000000000E+01 0.  0.
         21    1    1    2  502  501 -0.19889443444E+02  0.64825249866E+01 -0.37097467913E+02  0.42589144348E+02  0.00000000000E+00 0.  1.
<mgrwt>
<rscale>  1 0.12673088E+03</rscale>
<asrwt>0</asrwt>
<pdfrwt beam="2">  1        4 0.99499211E-02 0.12673088E+03</pdfrwt>
<pdfrwt beam="1">  1       -4 0.25299218E-01 0.12673088E+03</pdfrwt>
<totfact> 0.18154247E+03</totfact>
</mgrwt>
</event>
<event>
 6    4  0.5642870E-004  0.1306738E+03  0.7818608E-02  0.1226459E+00
         -4   -1    0    0    0  501 -0.00000000000E+00  0.00000000000E+00  0.90249327838E+02  0.90258263197E+02  0.12700000000E+01 0. -1.
          4   -1    0    0  502    0  0.00000000000E+00 -0.00000000000E+00 -0.18048252219E+03  0.18048699043E+03  0.12700000000E+01 0. -1.
         25    2    1    2    0    0 -0.31851124564E+02 -0.20881703123E+02  0.38716518956E+02  0.13628868732E+03  0.12500039116E+03 0.  0.
    9000005    1    3    3    0    0 -0.18897425426E+02  0.50040818789E+02  0.35318173472E+02  0.64105924923E+02  0.10000000000E+01 0.  0.
    9000005    1    3    3    0    0 -0.12953699138E+02 -0.70922521912E+02  0.33983454841E+01  0.72182762400E+02  0.10000000000E+01 0.  0.
         21    1    1    2  502  501  0.31851124564E+02  0.20881703123E+02 -0.12894971330E+03  0.13445656630E+03  0.00000000000E+00 0.  1.
<mgrwt>
<rscale>  1 0.13067378E+03</rscale>
<asrwt>0</asrwt>
<pdfrwt beam="2">  1        4 0.27767573E-01 0.13067378E+03</pdfrwt>
<pdfrwt beam="1">  1       -4 0.13885543E-01 0.13067378E+03</pdfrwt>
<totfact> 0.87078207E+02</totfact>
</mgrwt>
</event>
<event>
 6    4  0.5642870E-004  0.1288617E+03  0.7818608E-02  0.1229155E+00
          4   -1    0    0  502    0  0.00000000000E+00  0.00000000000E+00  0.20468008971E+04  0.20468012911E+04  0.12700000000E+01 0.  1.
         -4   -1    0    0    0  501 -0.00000000000E+00 -0.00000000000E+00 -0.34737484483E+01  0.36986251881E+01  0.12700000000E+01 0.  1.
         25    2    1    2    0    0  0.26933647296E+02 -0.16030539540E+02  0.12660405966E+04  0.12725816792E+04  0.12499175380E+03 0.  0.
    9000005    1    3    3    0    0  0.52544633507E+02  0.23098031423E+02  0.30204150149E+03  0.30744841224E+03  0.10000000000E+01 0.  0.
    9000005    1    3    3    0    0 -0.25610986211E+02 -0.39128570962E+02  0.96399909507E+03  0.96513326696E+03  0.10000000000E+01 0.  0.
         21    1    1    2  502  501 -0.26933647296E+02  0.16030539540E+02  0.77728655206E+03  0.77791823707E+03  0.00000000000E+00 0.  1.
<mgrwt>
<rscale>  1 0.12886170E+03</rscale>
<asrwt>0</asrwt>
<pdfrwt beam="1">  1        4 0.31490972E+00 0.12886170E+03</pdfrwt>
<pdfrwt beam="2">  1       -4 0.55175145E-03 0.12886170E+03</pdfrwt>
<totfact> 0.36722120E+02</totfact>
</mgrwt>
</event>
<event>
 6    4  0.5642870E-004  0.1299681E+03  0.7818608E-02  0.1227503E+00
         -4   -1    0    0    0  501 -0.00000000000E+00  0.00000000000E+00  0.23119198384E+02  0.23154054373E+02  0.12700000000E+01 0. -1.
          4   -1    0    0  502    0  0.00000000000E+00 -0.00000000000E+00 -0.53306366676E+03  0.53306517962E+03  0.12700000000E+01 0. -1.
         25    2    1    2    0    0  0.30061127904E+02 -0.19112108290E+02 -0.16790318266E+03  0.21232799358E+03  0.12499101575E+03 0.  0.
    9000005    1    3    3    0    0  0.33345661038E+02 -0.50054378476E+02 -0.17077918446E+03  0.18106325900E+03  0.10000000000E+01 0.  0.
    9000005    1    3    3    0    0 -0.32845331342E+01  0.30942270186E+02  0.28760018008E+01  0.31264734583E+02  0.10000000000E+01 0.  0.
         21    1    1    2  502  501 -0.30061127904E+02  0.19112108290E+02 -0.34204128572E+03  0.34389124041E+03  0.00000000000E+00 0. -1.
<mgrwt>
<rscale>  1 0.12996807E+03</rscale>
<asrwt>0</asrwt>
<pdfrwt beam="2">  1        4 0.82012583E-01 0.12996807E+03</pdfrwt>
<pdfrwt beam="1">  1       -4 0.35595978E-02 0.12996807E+03</pdfrwt>
<totfact> 0.90794156E+02</totfact>
</mgrwt>
</event>
<event>
 6    4  0.5642870E-004  0.1819211E+03  0.7818608E-02  0.1165957E+00
          4   -1    0    0  502    0  0.00000000000E+00  0.00000000000E+00  0.24438357200E+03  0.24438687191E+03  0.12700000000E+01 0. -1.
         -4   -1    0    0    0  501 -0.00000000000E+00 -0.00000000000E+00 -0.10830893794E+03  0.10831638352E+03  0.12700000000E+01 0. -1.
         25    2    1    2    0    0  0.90242495279E+02  0.96572823649E+02  0.12361017377E+03  0.21994264006E+03  0.12500108654E+03 0.  0.
    9000005    1    3    3    0    0  0.36718986255E+02  0.74699191639E+02 -0.25547469586E+00  0.83242527895E+02  0.10000000000E+01 0.  0.
    9000005    1    3    3    0    0  0.53523509024E+02  0.21873632011E+02  0.12386564847E+03  0.13670011217E+03  0.10000000000E+01 0.  0.
         21    1    1    2  502  501 -0.90242495279E+02 -0.96572823649E+02  0.12464460276E+02  0.13276061536E+03  0.00000000000E+00 0. -1.
<mgrwt>
<rscale>  1 0.18192111E+03</rscale>
<asrwt>0</asrwt>
<pdfrwt beam="1">  1        4 0.37598299E-01 0.18192111E+03</pdfrwt>
<pdfrwt beam="2">  1       -4 0.16663740E-01 0.18192111E+03</pdfrwt>
<totfact> 0.37671673E+02</totfact>
</mgrwt>
</event>
<event>
 6    4  0.5642870E-004  0.1285916E+03  0.7818608E-02  0.1229561E+00
         -4   -1    0    0    0  501 -0.00000000000E+00  0.00000000000E+00  0.39533099772E+02  0.39553493873E+02  0.12700000000E+01 0.  1.
          4   -1    0    0  502    0  0.00000000000E+00 -0.00000000000E+00 -0.22541969953E+03  0.22542327705E+03  0.12700000000E+01 0.  1.
         25    2    1    2    0    0 -0.27779911001E+02 -0.11802480484E+02 -0.72457295701E+02  0.14760032942E+03  0.12499910217E+03 0.  0.
    9000005    1    3    3    0    0 -0.65877172975E+02  0.29632667129E+02 -0.42828720373E+02  0.83983308873E+02  0.10000000000E+01 0.  0.
    9000005    1    3    3    0    0  0.38097261974E+02 -0.41435147613E+02 -0.29628575328E+02  0.63617020549E+02  0.10000000000E+01 0.  0.
         21    1    1    2  502  501  0.27779911001E+02  0.11802480484E+02 -0.11342930406E+03  0.11737644150E+03  0.00000000000E+00 0.  1.
<mgrwt>
<rscale>  1 0.12859159E+03</rscale>
<asrwt>0</asrwt>
<pdfrwt beam="2">  1        4 0.34681797E-01 0.12859159E+03</pdfrwt>
<pdfrwt beam="1">  1       -4 0.60838595E-02 0.12859159E+03</pdfrwt>
<totfact> 0.22656189E+03</totfact>
</mgrwt>
</event>
<event>
 6    4  0.5642870E-004  0.1294641E+03  0.7818608E-02  0.1228253E+00
          4   -1    0    0  502    0  0.00000000000E+00  0.00000000000E+00  0.29290559291E+02  0.29318079125E+02  0.12700000000E+01 0.  1.
         -4   -1    0    0    0  501 -0.00000000000E+00 -0.00000000000E+00 -0.25534942242E+03  0.25535258062E+03  0.12700000000E+01 0.  1.
         25    2    1    2    0    0  0.11722661426E+02  0.31595079392E+02 -0.21146121683E+03  0.24794517663E+03  0.12500117822E+03 0.  0.
    9000005    1    3    3    0    0  0.38462537674E+02  0.57706782379E+01 -0.62657826323E+01  0.39407201926E+02  0.10000000000E+01 0.  0.
    9000005    1    3    3    0    0 -0.26739876248E+02  0.25824401154E+02 -0.20519543420E+03  0.20853797470E+03  0.10000000000E+01 0.  0.
         21    1    1    2  502  501 -0.11722661426E+02 -0.31595079392E+02 -0.14597646295E+02  0.36725483115E+02  0.00000000000E+00 0.  1.
<mgrwt>
<rscale>  1 0.12946414E+03</rscale>
<asrwt>0</asrwt>
<pdfrwt beam="1">  1        4 0.45085999E-02 0.12946414E+03</pdfrwt>
<pdfrwt beam="2">  1       -4 0.39286885E-01 0.12946414E+03</pdfrwt>
<totfact> 0.28858419E+03</totfact>
</mgrwt>
</event>
<event>
 6    4  0.5642870E-004  0.1290987E+03  0.7818608E-02  0.1228799E+00
         -4   -1    0    0    0  501 -0.00000000000E+00  0.00000000000E+00  0.47009365802E+02  0.47026517765E+02  0.12700000000E+01 0. -1.
          4   -1    0    0  502    0  0.00000000000E+00 -0.00000000000E+00 -0.17233103370E+03  0.17233571330E+03  0.12700000000E+01 0. -1.
         25    2    1    2    0    0  0.20079119540E+02  0.25271217958E+02 -0.51865882670E+02  0.13912783767E+03  0.12499871972E+03 0.  0.
    9000005    1    3    3    0    0 -0.33718362761E+02  0.27185762730E+02 -0.69993721811E+02  0.82317159666E+02  0.10000000000E+01 0.  0.
    9000005    1    3    3    0    0  0.53797482301E+02 -0.19145447729E+01  0.18127839141E+02  0.56810678006E+02  0.10000000000E+01 0.  0.
         21    1    1    2  502  501 -0.20079119540E+02 -0.25271217958E+02 -0.73455785231E+02  0.80234393389E+02  0.00000000000E+00 0.  1.
<mgrwt>
<rscale>  1 0.12909874E+03</rscale>
<asrwt>0</asrwt>
<pdfrwt beam="2">  1        4 0.26514146E-01 0.12909874E+03</pdfrwt>
<pdfrwt beam="1">  1       -4 0.72338896E-02 0.12909874E+03</pdfrwt>
<totfact> 0.28395122E+03</totfact>
</mgrwt>
</event>
<event>
 6    4  0.5642870E-004  0.1267131E+03  0.7818608E-02  0.1232416E+00
         -4   -1    0    0    0  501 -0.00000000000E+00  0.00000000000E+00  0.14369598011E+03  0.14370159220E+03  0.12700000000E+01 0. -1.
          4   -1    0    0  502    0  0.00000000000E+00 -0.00000000000E+00 -0.48366285451E+02  0.48382956383E+02  0.12700000000E+01 0. -1.
         25    2    1    2    0    0  0.12426878915E+02 -0.16640187927E+02  0.10906372437E+03  0.16718581878E+03  0.12499951542E+03 0.  0.
    9000005    1    3    3    0    0  0.36154952581E+02  0.13513230574E+02 -0.11800150444E+02  0.40373649168E+02  0.10000000000E+01 0.  0.
    9000005    1    3    3    0    0 -0.23728073665E+02 -0.30153418501E+02  0.12086387481E+03  0.12681216961E+03  0.10000000000E+01 0.  0.
         21    1    1    2  502  501 -0.12426878915E+02  0.16640187927E+02 -0.13734029705E+02  0.24898729803E+02  0.00000000000E+00 0. -1.
<mgrwt>
<rscale>  1 0.12671307E+03</rscale>
<asrwt>0</asrwt>
<pdfrwt beam="2">  1        4 0.74426812E-02 0.12671307E+03</pdfrwt>
<pdfrwt beam="1">  1       -4 0.22108788E-01 0.12671307E+03</pdfrwt>
<totfact> 0.37661843E+03</totfact>
</mgrwt>
</event>
<event>
 6    4  0.5642870E-004  0.1323273E+03  0.7818608E-02  0.1224043E+00
         -4   -1    0    0    0  501 -0.00000000000E+00  0.00000000000E+00  0.81973277614E+01  0.82951240152E+01  0.12700000000E+01 0.  1.
          4   -1    0    0  502    0  0.00000000000E+00 -0.00000000000E+00 -0.11383358740E+04  0.11383365824E+04  0.12700000000E+01 0.  1.
         25    2    1    2    0    0 -0.15920589690E+02  0.40391191810E+02 -0.58558269567E+03  0.60034790848E+03  0.12500241675E+03 0.  0.
    9000005    1    3    3    0    0  0.36474804263E+02 -0.27850352995E+02 -0.18249190358E+03  0.18817637572E+03  0.10000000000E+01 0.  0.
    9000005    1    3    3    0    0 -0.52395393953E+02  0.68241544805E+02 -0.40309079209E+03  0.41217153276E+03  0.10000000000E+01 0.  0.
         21    1    1    2  502  501  0.15920589690E+02 -0.40391191810E+02 -0.54455585053E+03  0.54628379795E+03  0.00000000000E+00 0.  1.
<mgrwt>
<rscale>  1 0.13232731E+03</rscale>
<asrwt>0</asrwt>
<pdfrwt beam="2">  1        4 0.17513605E+00 0.13232731E+03</pdfrwt>
<pdfrwt beam="1">  1       -4 0.12687055E-02 0.13232731E+03</pdfrwt>
<totfact> 0.71651584E+02</totfact>
</mgrwt>
</event>
<event>
 6    4  0.5642870E-004  0.1314164E+03  0.7818608E-02  0.1225369E+00
         -4   -1    0    0    0  501 -0.00000000000E+00  0.00000000000E+00  0.48817469072E+02  0.48833985979E+02  0.12700000000E+01 0. -1.
          4   -1    0    0  502    0  0.00000000000E+00 -0.00000000000E+00 -0.16228124847E+03  0.16228621785E+03  0.12700000000E+01 0. -1.
         25    2    1    2    0    0  0.16098301361E+02  0.37226572789E+02 -0.10818815585E+03  0.17022026212E+03  0.12500115016E+03 0.  0.
    9000005    1    3    3    0    0 -0.46859296523E+02 -0.91192219104E+01 -0.18419989867E+02  0.51178607890E+02  0.10000000000E+01 0.  0.
    9000005    1    3    3    0    0  0.62957597885E+02  0.46345794700E+02 -0.89768165983E+02  0.11904165423E+03  0.10000000000E+01 0.  0.
         21    1    1    2  502  501 -0.16098301361E+02 -0.37226572789E+02 -0.52756235498E+01  0.40899941714E+02  0.00000000000E+00 0. -1.
<mgrwt>
<rscale>  1 0.13141636E+03</rscale>
<asrwt>0</asrwt>
<pdfrwt beam="2">  1        4 0.24967998E-01 0.13141636E+03</pdfrwt>
<pdfrwt beam="1">  1       -4 0.75120327E-02 0.13141636E+03</pdfrwt>
<totfact> 0.29952368E+03</totfact>
</mgrwt>
</event>
<event>
 6    4  0.5642870E-004  0.1279238E+03  0.7818608E-02  0.1230569E+00
          4   -1    0    0  502    0  0.00000000000E+00  0.00000000000E+00  0.69399970535E+03  0.69400086738E+03  0.12700000000E+01 0. -1.
         -4   -1    0    0    0  501 -0.00000000000E+00 -0.00000000000E+00 -0.18339609035E+02  0.18383529573E+02  0.12700000000E+01 0. -1.
         25    2    1    2    0    0 -0.27160592647E+02 -0.15254971796E+01  0.20975691611E+03  0.24568770931E+03  0.12499784684E+03 0.  0.
    9000005    1    3    3    0    0 -0.11077711877E+02  0.46700693791E+02  0.25129201924E+02  0.54186227865E+02  0.10000000000E+01 0.  0.
    9000005    1    3    3    0    0 -0.16082880770E+02 -0.48226190970E+02  0.18462771418E+03  0.19150148144E+03  0.10000000000E+01 0.  0.
         21    1    1    2  502  501  0.27160592647E+02  0.15254971796E+01  0.46590318021E+03  0.46669668765E+03  0.00000000000E+00 0. -1.
<mgrwt>
<rscale>  1 0.12792375E+03</rscale>
<asrwt>0</asrwt>
<pdfrwt beam="1">  1        4 0.10677266E+00 0.12792375E+03</pdfrwt>
<pdfrwt beam="2">  1       -4 0.28249461E-02 0.12792375E+03</pdfrwt>
<totfact> 0.71307683E+02</totfact>
</mgrwt>
</event>
<event>
 6    4  0.5642870E-004  0.1266163E+03  0.7818608E-02  0.1232565E+00
         -4   -1    0    0    0  501 -0.00000000000E+00  0.00000000000E+00  0.20930775188E+02  0.20969269181E+02  0.12700000000E+01 0. -1.
          4   -1    0    0  502    0  0.00000000000E+00 -0.00000000000E+00 -0.25812122487E+03  0.25812434916E+03  0.12700000000E+01 0. -1.
         25    2    1    2    0    0 -0.13554985181E+02 -0.14981195190E+02 -0.21002449048E+03  0.24523858663E+03  0.12499401561E+03 0.  0.
    9000005    1    3    3    0    0  0.43882980598E+02 -0.43885230077E+02 -0.95639642652E+02  0.11401565968E+03  0.10000000000E+01 0.  0.
    9000005    1    3    3    0    0 -0.57437965779E+02  0.28904034887E+02 -0.11438484782E+03  0.13122292695E+03  0.10000000000E+01 0.  0.
         21    1    1    2  502  501  0.13554985181E+02  0.14981195190E+02 -0.27165959205E+02  0.33855031711E+02  0.00000000000E+00 0. -1.
<mgrwt>
<rscale>  1 0.12661626E+03</rscale>
<asrwt>0</asrwt>
<pdfrwt beam="2">  1        4 0.39714157E-01 0.12661626E+03</pdfrwt>
<pdfrwt beam="1">  1       -4 0.32233208E-02 0.12661626E+03</pdfrwt>
<totfact> 0.47790714E+03</totfact>
</mgrwt>
</event>
<event>
 6    4  0.5642870E-004  0.1277618E+03  0.7818608E-02  0.1230815E+00
         -4   -1    0    0    0  501 -0.00000000000E+00  0.00000000000E+00  0.66092838065E+03  0.66092960083E+03  0.12700000000E+01 0. -1.
          4   -1    0    0  502    0  0.00000000000E+00 -0.00000000000E+00 -0.90626727374E+01  0.91512259914E+01  0.12700000000E+01 0. -1.
         25    2    1    2    0    0 -0.26122324234E+02  0.38731404155E+01  0.50860118262E+03  0.52440275281E+03  0.12500282857E+03 0.  0.
    9000005    1    3    3    0    0  0.35607180011E+02 -0.36241998398E+02  0.26850463941E+03  0.27327110184E+03  0.10000000000E+01 0.  0.
    9000005    1    3    3    0    0 -0.61729504245E+02  0.40115138814E+02  0.24009654322E+03  0.25113165097E+03  0.10000000000E+01 0.  0.
         21    1    1    2  502  501  0.26122324234E+02 -0.38731404155E+01  0.14326452529E+03  0.14567807401E+03  0.00000000000E+00 0. -1.
<mgrwt>
<rscale>  1 0.12776183E+03</rscale>
<asrwt>0</asrwt>
<pdfrwt beam="2">  1        4 0.14011629E-02 0.12776183E+03</pdfrwt>
<pdfrwt beam="1">  1       -4 0.10168820E+00 0.12776183E+03</pdfrwt>
<totfact> 0.23498175E+03</totfact>
</mgrwt>
</event>
<event>
 6    4  0.5642870E-004  0.1287177E+03  0.7818608E-02  0.1229371E+00
         -4   -1    0    0    0  501 -0.00000000000E+00  0.00000000000E+00  0.17373083635E+03  0.17373547824E+03  0.12700000000E+01 0.  1.
          4   -1    0    0  502    0  0.00000000000E+00 -0.00000000000E+00 -0.39698050092E+02  0.39718359496E+02  0.12700000000E+01 0.  1.
         25    2    1    2    0    0 -0.30713839037E+02  0.11674805166E+00  0.12917510037E+03  0.18235800762E+03  0.12499953139E+03 0.  0.
    9000005    1    3    3    0    0 -0.43010348823E+02  0.49494666405E+02  0.10981178776E+03  0.12790324796E+03  0.10000000000E+01 0.  0.
    9000005    1    3    3    0    0  0.12296509786E+02 -0.49377918353E+02  0.19363312612E+02  0.54454759655E+02  0.10000000000E+01 0.  0.
         21    1    1    2  502  501  0.30713839037E+02 -0.11674805166E+00  0.48576858866E+01  0.31095830117E+02  0.00000000000E+00 0.  1.
<mgrwt>
<rscale>  1 0.12871766E+03</rscale>
<asrwt>0</asrwt>
<pdfrwt beam="2">  1        4 0.61093119E-02 0.12871766E+03</pdfrwt>
<pdfrwt beam="1">  1       -4 0.26729739E-01 0.12871766E+03</pdfrwt>
<totfact> 0.36840082E+03</totfact>
</mgrwt>
</event>
<event>
 6    4  0.5642870E-004  0.1398474E+03  0.7818608E-02  0.1213534E+00
         -4   -1    0    0    0  501 -0.00000000000E+00  0.00000000000E+00  0.33432877796E+03  0.33433119010E+03  0.12700000000E+01 0. -1.
          4   -1    0    0  502    0  0.00000000000E+00 -0.00000000000E+00 -0.67845623485E+02  0.67857508988E+02  0.12700000000E+01 0. -1.
         25    2    1    2    0    0 -0.19917775526E+02 -0.59463689925E+02  0.30006424381E+03  0.33105264801E+03  0.12499862856E+03 0.  0.
    9000005    1    3    3    0    0  0.19247358885E+02  0.33671419072E+02  0.81460006804E+02  0.90227257494E+02  0.10000000000E+01 0.  0.
    9000005    1    3    3    0    0 -0.39165134410E+02 -0.93135108996E+02  0.21860423701E+03  0.24082539052E+03  0.10000000000E+01 0.  0.
         21    1    1    2  502  501  0.19917775526E+02  0.59463689925E+02 -0.33581089336E+02  0.71136051073E+02  0.00000000000E+00 0. -1.
<mgrwt>
<rscale>  1 0.13984744E+03</rscale>
<asrwt>0</asrwt>
<pdfrwt beam="2">  1        4 0.10438888E-01 0.13984744E+03</pdfrwt>
<pdfrwt beam="1">  1       -4 0.51436297E-01 0.13984744E+03</pdfrwt>
<totfact> 0.43122622E+02</totfact>
</mgrwt>
</event>
<event>
 6    4  0.5642870E-004  0.1290392E+03  0.7818608E-02  0.1228888E+00
         -4   -1    0    0    0  501 -0.00000000000E+00  0.00000000000E+00  0.54392359916E+03  0.54392508181E+03  0.12700000000E+01 0.  1.
          4   -1    0    0  502    0  0.00000000000E+00 -0.00000000000E+00 -0.37878092629E+02  0.37899377320E+02  0.12700000000E+01 0.  1.
         25    2    1    2    0    0 -0.31216508480E+02  0.72219449329E+01  0.52763740103E+03  0.54318721287E+03  0.12499797746E+03 0.  0.
    9000005    1    3    3    0    0 -0.55101934863E+02 -0.34299017669E+02  0.16354990213E+03  0.17596083748E+03  0.10000000000E+01 0.  0.
    9000005    1    3    3    0    0  0.23885426383E+02  0.41520962602E+02  0.36408749890E+03  0.36722637539E+03  0.10000000000E+01 0.  0.
         21    1    1    2  502  501  0.31216508480E+02 -0.72219449329E+01 -0.21591894501E+02  0.38637246259E+02  0.00000000000E+00 0.  1.
<mgrwt>
<rscale>  1 0.12903922E+03</rscale>
<asrwt>0</asrwt>
<pdfrwt beam="2">  1        4 0.58291504E-02 0.12903922E+03</pdfrwt>
<pdfrwt beam="1">  1       -4 0.83682301E-01 0.12903922E+03</pdfrwt>
<totfact> 0.39411765E+02</totfact>
</mgrwt>
</event>
<event>
 6    4  0.5642870E-004  0.1323441E+03  0.7818608E-02  0.1224018E+00
          4   -1    0    0  502    0  0.00000000000E+00  0.00000000000E+00  0.44694821790E+02  0.44712861627E+02  0.12700000000E+01 0. -1.
         -4   -1    0    0    0  501 -0.00000000000E+00 -0.00000000000E+00 -0.17306720285E+03  0.17307186254E+03  0.12700000000E+01 0. -1.
         25    2    1    2    0    0  0.42820048941E+02  0.74869201433E+01 -0.99979460323E+02  0.16586393341E+03  0.12500136542E+03 0.  0.
    9000005    1    3    3    0    0  0.84943266631E+02 -0.11417900667E+02 -0.58355407501E+02  0.10369223976E+03  0.10000000000E+01 0.  0.
    9000005    1    3    3    0    0 -0.42123217690E+02  0.18904820810E+02 -0.41624052822E+02  0.62171693653E+02  0.10000000000E+01 0.  0.
         21    1    1    2  502  501 -0.42820048941E+02 -0.74869201433E+01 -0.28392920739E+02  0.51920790755E+02  0.00000000000E+00 0. -1.
<mgrwt>
<rscale>  1 0.13234407E+03</rscale>
<asrwt>0</asrwt>
<pdfrwt beam="1">  1        4 0.68778726E-02 0.13234407E+03</pdfrwt>
<pdfrwt beam="2">  1       -4 0.26627469E-01 0.13234407E+03</pdfrwt>
<totfact> 0.30786482E+03</totfact>
</mgrwt>
</event>
<event>
 6    4  0.5642870E-004  0.1281584E+03  0.7818608E-02  0.1230214E+00
         -4   -1    0    0    0  501 -0.00000000000E+00  0.00000000000E+00  0.38305247442E+02  0.38326294911E+02  0.12700000000E+01 0.  1.
          4   -1    0    0  502    0  0.00000000000E+00 -0.00000000000E+00 -0.28788372286E+03  0.28788652415E+03  0.12700000000E+01 0.  1.
         25    2    1    2    0    0 -0.75623140722E+01 -0.27251726389E+02 -0.73217686616E+02  0.14759878542E+03  0.12499890656E+03 0.  0.
    9000005    1    3    3    0    0  0.57251719255E+02 -0.17167055127E+02 -0.50249276219E+02  0.78092617448E+02  0.10000000000E+01 0.  0.
    9000005    1    3    3    0    0 -0.64814033327E+02 -0.10084671262E+02 -0.22968410397E+02  0.69506167977E+02  0.10000000000E+01 0.  0.
         21    1    1    2  502  501  0.75623140722E+01  0.27251726389E+02 -0.17636078880E+03  0.17861403364E+03  0.00000000000E+00 0.  1.
<mgrwt>
<rscale>  1 0.12815839E+03</rscale>
<asrwt>0</asrwt>
<pdfrwt beam="2">  1        4 0.44291637E-01 0.12815839E+03</pdfrwt>
<pdfrwt beam="1">  1       -4 0.58949497E-02 0.12815839E+03</pdfrwt>
<totfact> 0.14753817E+03</totfact>
</mgrwt>
</event>
<event>
 6    4  0.5642870E-004  0.1287081E+03  0.7818608E-02  0.1229385E+00
          4   -1    0    0  502    0  0.00000000000E+00  0.00000000000E+00  0.72136009897E+01  0.73245436198E+01  0.12700000000E+01 0.  1.
         -4   -1    0    0    0  501 -0.00000000000E+00 -0.00000000000E+00 -0.88749141735E+03  0.88749232603E+03  0.12700000000E+01 0.  1.
         25    2    1    2    0    0  0.18868355910E+02  0.24183109808E+02 -0.75105724977E+03  0.76200575384E+03  0.12499975517E+03 0.  0.
    9000005    1    3    3    0    0  0.86489192199E+01 -0.18159239025E+02 -0.16166953733E+02  0.25825029693E+02  0.10000000000E+01 0.  0.
    9000005    1    3    3    0    0  0.10219436690E+02  0.42342348833E+02 -0.73489029604E+03  0.73618072415E+03  0.10000000000E+01 0.  0.
         21    1    1    2  502  501 -0.18868355910E+02 -0.24183109808E+02 -0.12922056658E+03  0.13281111581E+03  0.00000000000E+00 0.  1.
<mgrwt>
<rscale>  1 0.12870811E+03</rscale>
<asrwt>0</asrwt>
<pdfrwt beam="1">  1        4 0.11183894E-02 0.12870811E+03</pdfrwt>
<pdfrwt beam="2">  1       -4 0.13654566E+00 0.12870811E+03</pdfrwt>
<totfact> 0.16364093E+03</totfact>
</mgrwt>
</event>
<event>
 6    4  0.5642870E-004  0.1266559E+03  0.7818608E-02  0.1232504E+00
         -4   -1    0    0    0  501 -0.00000000000E+00  0.00000000000E+00  0.58599949094E+02  0.58613709435E+02  0.12700000000E+01 0. -1.
          4   -1    0    0  502    0  0.00000000000E+00 -0.00000000000E+00 -0.93858986033E+02  0.93867577784E+02  0.12700000000E+01 0. -1.
         25    2    1    2    0    0  0.99886318574E+01 -0.17842204767E+02 -0.23263779039E+02  0.12877467950E+03  0.12499439039E+03 0.  0.
    9000005    1    3    3    0    0 -0.45721617697E+02  0.19884227052E+01  0.25251633661E+02  0.52278725618E+02  0.10000000000E+01 0.  0.
    9000005    1    3    3    0    0  0.55710249555E+02 -0.19830627472E+02 -0.48515412699E+02  0.76495953885E+02  0.10000000000E+01 0.  0.
         21    1    1    2  502  501 -0.99886318574E+01  0.17842204767E+02 -0.11995257901E+02  0.23706607717E+02  0.00000000000E+00 0.  1.
<mgrwt>
<rscale>  1 0.12665589E+03</rscale>
<asrwt>0</asrwt>
<pdfrwt beam="2">  1        4 0.14441563E-01 0.12665589E+03</pdfrwt>
<pdfrwt beam="1">  1       -4 0.90170962E-02 0.12665589E+03</pdfrwt>
<totfact> 0.58357435E+03</totfact>
</mgrwt>
</event>
<event>
 6    4  0.5642870E-004  0.1273867E+03  0.7818608E-02  0.1231386E+00
          4   -1    0    0  502    0  0.00000000000E+00  0.00000000000E+00  0.13708000477E+03  0.13708588771E+03  0.12700000000E+01 0. -1.
         -4   -1    0    0    0  501 -0.00000000000E+00 -0.00000000000E+00 -0.49443549443E+02  0.49459857274E+02  0.12700000000E+01 0. -1.
         25    2    1    2    0    0 -0.24507602406E+02 -0.12458561030E+01  0.40956754941E+02  0.13380895364E+03  0.12500082226E+03 0.  0.
    9000005    1    3    3    0    0 -0.58466686515E+02 -0.43521063499E+02  0.19256656902E+02  0.75393999995E+02  0.10000000000E+01 0.  0.
    9000005    1    3    3    0    0  0.33959084109E+02  0.42275207396E+02  0.21700098039E+02  0.58414953641E+02  0.10000000000E+01 0.  0.
         21    1    1    2  502  501  0.24507602406E+02  0.12458561030E+01  0.46679700389E+02  0.52736791346E+02  0.00000000000E+00 0.  1.
<mgrwt>
<rscale>  1 0.12738674E+03</rscale>
<asrwt>0</asrwt>
<pdfrwt beam="1">  1        4 0.21090938E-01 0.12738674E+03</pdfrwt>
<pdfrwt beam="2">  1       -4 0.76084070E-02 0.12738674E+03</pdfrwt>
<totfact> 0.39610081E+03</totfact>
</mgrwt>
</event>
<event>
 6    4  0.5642870E-004  0.1303592E+03  0.7818608E-02  0.1226924E+00
         -4   -1    0    0    0  501 -0.00000000000E+00  0.00000000000E+00  0.11350405900E+03  0.11351116381E+03  0.12700000000E+01 0. -1.
          4   -1    0    0  502    0  0.00000000000E+00 -0.00000000000E+00 -0.67129443634E+02  0.67141455916E+02  0.12700000000E+01 0. -1.
         25    2    1    2    0    0 -0.34244098005E+02 -0.14006347996E+02  0.56826516966E+02  0.14220683608E+03  0.12499878066E+03 0.  0.
    9000005    1    3    3    0    0 -0.31071531079E+02  0.40635669756E+02 -0.13663329004E+02  0.52956437376E+02  0.10000000000E+01 0.  0.
    9000005    1    3    3    0    0 -0.31725669262E+01 -0.54642017752E+02  0.70489845969E+02  0.89250398709E+02  0.10000000000E+01 0.  0.
         21    1    1    2  502  501  0.34244098005E+02  0.14006347996E+02 -0.10451901603E+02  0.38445783638E+02  0.00000000000E+00 0. -1.
<mgrwt>
<rscale>  1 0.13035924E+03</rscale>
<asrwt>0</asrwt>
<pdfrwt beam="2">  1        4 0.10329077E-01 0.13035924E+03</pdfrwt>
<pdfrwt beam="1">  1       -4 0.17463633E-01 0.13035924E+03</pdfrwt>
<totfact> 0.33533076E+03</totfact>
</mgrwt>
</event>
<event>
 6    4  0.5642870E-004  0.1278123E+03  0.7818608E-02  0.1230738E+00
          4   -1    0    0  502    0  0.00000000000E+00  0.00000000000E+00  0.79305559410E+02  0.79315727655E+02  0.12700000000E+01 0.  1.
         -4   -1    0    0    0  501 -0.00000000000E+00 -0.00000000000E+00 -0.76097668187E+02  0.76108265015E+02  0.12700000000E+01 0.  1.
         25    2    1    2    0    0  0.12757141876E+01 -0.26614097332E+02 -0.38153895679E+01  0.12786924541E+03  0.12500419633E+03 0.  0.
    9000005    1    3    3    0    0 -0.53368350217E+02 -0.44379776158E+02 -0.97370902495E+01  0.70096763571E+02  0.10000000000E+01 0.  0.
    9000005    1    3    3    0    0  0.54644064404E+02  0.17765678825E+02  0.59217006817E+01  0.57772481838E+02  0.10000000000E+01 0.  0.
         21    1    1    2  502  501 -0.12757141876E+01  0.26614097332E+02  0.70232807908E+01  0.27554747260E+02  0.00000000000E+00 0. -1.
<mgrwt>
<rscale>  1 0.12781231E+03</rscale>
<asrwt>0</asrwt>
<pdfrwt beam="1">  1        4 0.12202453E-01 0.12781231E+03</pdfrwt>
<pdfrwt beam="2">  1       -4 0.11708931E-01 0.12781231E+03</pdfrwt>
<totfact> 0.50337886E+03</totfact>
</mgrwt>
</event>
<event>
 6    4  0.5642870E-004  0.1269494E+03  0.7818608E-02  0.1232054E+00
         -4   -1    0    0    0  501 -0.00000000000E+00  0.00000000000E+00  0.52358762349E+01  0.53876989473E+01  0.12700000000E+01 0. -1.
          4   -1    0    0  502    0  0.00000000000E+00 -0.00000000000E+00 -0.10916923038E+04  0.10916930425E+04  0.12700000000E+01 0. -1.
         25    2    1    2    0    0 -0.16618409300E+02  0.14683924125E+02 -0.82809996484E+03  0.83777426066E+03  0.12499748356E+03 0.  0.
    9000005    1    3    3    0    0 -0.53504832585E+02 -0.29672100087E+02 -0.27787893987E+03  0.28453629972E+03  0.10000000000E+01 0.  0.
    9000005    1    3    3    0    0  0.36886423285E+02  0.44356024212E+02 -0.55022102497E+03  0.55323796094E+03  0.10000000000E+01 0.  0.
         21    1    1    2  502  501  0.16618409300E+02 -0.14683924125E+02 -0.25835646268E+03  0.25930648075E+03  0.00000000000E+00 0.  1.
<mgrwt>
<rscale>  1 0.12694944E+03</rscale>
<asrwt>0</asrwt>
<pdfrwt beam="2">  1        4 0.16796422E+00 0.12694944E+03</pdfrwt>
<pdfrwt beam="1">  1       -4 0.81725578E-03 0.12694944E+03</pdfrwt>
<totfact> 0.15396508E+03</totfact>
</mgrwt>
</event>
<event>
 6    4  0.5642870E-004  0.1266990E+03  0.7818608E-02  0.1232438E+00
         -4   -1    0    0    0  501 -0.00000000000E+00  0.00000000000E+00  0.46959132373E+03  0.46959304107E+03  0.12700000000E+01 0. -1.
          4   -1    0    0  502    0  0.00000000000E+00 -0.00000000000E+00 -0.26226913237E+02  0.26257644181E+02  0.12700000000E+01 0. -1.
         25    2    1    2    0    0  0.49242530316E+01 -0.20042752775E+02  0.45489465141E+03  0.47220947839E+03  0.12500674939E+03 0.  0.
    9000005    1    3    3    0    0 -0.34846553462E+02  0.27607371798E+02  0.74336762882E+02  0.86622188736E+02  0.10000000000E+01 0.  0.
    9000005    1    3    3    0    0  0.39770806493E+02 -0.47650124573E+02  0.38055788853E+03  0.38558728965E+03  0.10000000000E+01 0.  0.
         21    1    1    2  502  501 -0.49242530316E+01  0.20042752775E+02 -0.11530240912E+02  0.23641206868E+02  0.00000000000E+00 0. -1.
<mgrwt>
<rscale>  1 0.12669904E+03</rscale>
<asrwt>0</asrwt>
<pdfrwt beam="2">  1        4 0.40374055E-02 0.12669904E+03</pdfrwt>
<pdfrwt beam="1">  1       -4 0.72247319E-01 0.12669904E+03</pdfrwt>
<totfact> 0.97690399E+02</totfact>
</mgrwt>
</event>
<event>
 6    4  0.5642870E-004  0.1277357E+03  0.7818608E-02  0.1230855E+00
          4   -1    0    0  502    0  0.00000000000E+00  0.00000000000E+00  0.51409171264E+02  0.51424855761E+02  0.12700000000E+01 0. -1.
         -4   -1    0    0    0  501 -0.00000000000E+00 -0.00000000000E+00 -0.12022755359E+03  0.12023426110E+03  0.12700000000E+01 0. -1.
         25    2    1    2    0    0  0.21292389088E+02  0.15425899683E+02 -0.69376986030E+02  0.14536013870E+03  0.12500031807E+03 0.  0.
    9000005    1    3    3    0    0  0.58772591594E+02 -0.16280379180E+02 -0.74165243308E+02  0.96024744643E+02  0.10000000000E+01 0.  0.
    9000005    1    3    3    0    0 -0.37480202506E+02  0.31706278863E+02  0.47882572774E+01  0.49335394059E+02  0.10000000000E+01 0.  0.
         21    1    1    2  502  501 -0.21292389088E+02 -0.15425899683E+02  0.55860370292E+00  0.26298978159E+02  0.00000000000E+00 0. -1.
<mgrwt>
<rscale>  1 0.12773568E+03</rscale>
<asrwt>0</asrwt>
<pdfrwt beam="1">  1        4 0.79108258E-02 0.12773568E+03</pdfrwt>
<pdfrwt beam="2">  1       -4 0.18498269E-01 0.12773568E+03</pdfrwt>
<totfact> 0.47028774E+03</totfact>
</mgrwt>
</event>
<event>
 6    4  0.5642870E-004  0.1318262E+03  0.7818608E-02  0.1224771E+00
          4   -1    0    0  502    0  0.00000000000E+00  0.00000000000E+00  0.15327310332E+04  0.15327315594E+04  0.12700000000E+01 0. -1.
         -4   -1    0    0    0  501 -0.00000000000E+00 -0.00000000000E+00 -0.49273909532E+01  0.50884262405E+01  0.12700000000E+01 0. -1.
         25    2    1    2    0    0  0.28592940750E+01 -0.41774320723E+02  0.10654908094E+04  0.10736148317E+04  0.12499949046E+03 0.  0.
    9000005    1    3    3    0    0  0.50871107309E+02 -0.14798503984E+02  0.83319167311E+03  0.83487497832E+03  0.10000000000E+01 0.  0.
    9000005    1    3    3    0    0 -0.48011813234E+02 -0.26975816739E+02  0.23229913628E+03  0.23873985343E+03  0.10000000000E+01 0.  0.
         21    1    1    2  502  501 -0.28592940750E+01  0.41774320723E+02  0.46231283288E+03  0.46420515387E+03  0.00000000000E+00 0.  1.
<mgrwt>
<rscale>  1 0.13182618E+03</rscale>
<asrwt>0</asrwt>
<pdfrwt beam="1">  1        4 0.23581733E+00 0.13182618E+03</pdfrwt>
<pdfrwt beam="2">  1       -4 0.77048754E-03 0.13182618E+03</pdfrwt>
<totfact> 0.64056581E+02</totfact>
</mgrwt>
</event>
<event>
 6    4  0.5642870E-004  0.1294040E+03  0.7818608E-02  0.1228343E+00
          4   -1    0    0  502    0  0.00000000000E+00  0.00000000000E+00  0.89497575029E+03  0.89497665137E+03  0.12700000000E+01 0.  1.
         -4   -1    0    0    0  501 -0.00000000000E+00 -0.00000000000E+00 -0.83977164326E+01  0.84932055952E+01  0.12700000000E+01 0.  1.
         25    2    1    2    0    0  0.27282841048E+02 -0.19295448932E+02  0.54017550738E+03  0.55545925639E+03  0.12501495500E+03 0.  0.
    9000005    1    3    3    0    0 -0.33688384942E+02  0.23578265375E+02  0.32802510155E+03  0.33059387340E+03  0.10000000000E+01 0.  0.
    9000005    1    3    3    0    0  0.60971225991E+02 -0.42873714307E+02  0.21215040582E+03  0.22486538299E+03  0.10000000000E+01 0.  0.
         21    1    1    2  502  501 -0.27282841048E+02  0.19295448932E+02  0.34640252648E+03  0.34801060058E+03  0.00000000000E+00 0.  1.
<mgrwt>
<rscale>  1 0.12940404E+03</rscale>
<asrwt>0</asrwt>
<pdfrwt beam="1">  1        4 0.13769601E+00 0.12940404E+03</pdfrwt>
<pdfrwt beam="2">  1       -4 0.12993708E-02 0.12940404E+03</pdfrwt>
<totfact> 0.12788805E+03</totfact>
</mgrwt>
</event>
<event>
 6    4  0.5642870E-004  0.1270906E+03  0.7818608E-02  0.1231838E+00
         -4   -1    0    0    0  501 -0.00000000000E+00  0.00000000000E+00  0.47065645756E+02  0.47082777217E+02  0.12700000000E+01 0. -1.
          4   -1    0    0  502    0  0.00000000000E+00 -0.00000000000E+00 -0.12395841115E+03  0.12396491679E+03  0.12700000000E+01 0. -1.
         25    2    1    2    0    0  0.17324844088E+02 -0.15085842808E+02 -0.52404839274E+02  0.13747104436E+03  0.12499715190E+03 0.  0.
    9000005    1    3    3    0    0  0.15467201137E+02 -0.32768667080E+02 -0.89368962402E+02  0.96440817572E+02  0.10000000000E+01 0.  0.
    9000005    1    3    3    0    0  0.18576429512E+01  0.17682824271E+02  0.36964123128E+02  0.41030226787E+02  0.10000000000E+01 0.  0.
         21    1    1    2  502  501 -0.17324844088E+02  0.15085842808E+02 -0.24487926118E+02  0.33576649647E+02  0.00000000000E+00 0. -1.
<mgrwt>
<rscale>  1 0.12709060E+03</rscale>
<asrwt>0</asrwt>
<pdfrwt beam="2">  1        4 0.19072343E-01 0.12709060E+03</pdfrwt>
<pdfrwt beam="1">  1       -4 0.72426869E-02 0.12709060E+03</pdfrwt>
<totfact> 0.51438196E+03</totfact>
</mgrwt>
</event>
<event>
 6    4  0.5642870E-004  0.1328772E+03  0.7818608E-02  0.1223248E+00
         -4   -1    0    0    0  501 -0.00000000000E+00  0.00000000000E+00  0.73109902041E+02  0.73120931862E+02  0.12700000000E+01 0. -1.
          4   -1    0    0  502    0  0.00000000000E+00 -0.00000000000E+00 -0.10838904832E+03  0.10839648840E+03  0.12700000000E+01 0. -1.
         25    2    1    2    0    0  0.41262010899E+02 -0.18127168535E+02 -0.23550482462E+02  0.13494801681E+03  0.12500077693E+03 0.  0.
    9000005    1    3    3    0    0  0.70911345168E+02 -0.32676536567E+02  0.19689610311E+02  0.80528601563E+02  0.10000000000E+01 0.  0.
    9000005    1    3    3    0    0 -0.29649334268E+02  0.14549368032E+02 -0.43240092773E+02  0.54419415246E+02  0.10000000000E+01 0.  0.
         21    1    1    2  502  501 -0.41262010899E+02  0.18127168535E+02 -0.11728663821E+02  0.46569403449E+02  0.00000000000E+00 0. -1.
<mgrwt>
<rscale>  1 0.13287717E+03</rscale>
<asrwt>0</asrwt>
<pdfrwt beam="2">  1        4 0.16676659E-01 0.13287717E+03</pdfrwt>
<pdfrwt beam="1">  1       -4 0.11249098E-01 0.13287717E+03</pdfrwt>
<totfact> 0.31629344E+03</totfact>
</mgrwt>
</event>
<event>
 6    4  0.5642870E-004  0.1297396E+03  0.7818608E-02  0.1227843E+00
          4   -1    0    0  502    0  0.00000000000E+00  0.00000000000E+00  0.32829100854E+01  0.35199998052E+01  0.12700000000E+01 0. -1.
         -4   -1    0    0    0  501 -0.00000000000E+00 -0.00000000000E+00 -0.19948630828E+04  0.19948634871E+04  0.12700000000E+01 0. -1.
         25    2    1    2    0    0  0.66520019046E+00  0.34741471626E+02 -0.15222713696E+04  0.15277900689E+04  0.12499983849E+03 0.  0.
    9000005    1    3    3    0    0  0.55075603967E+02  0.91658248332E+01 -0.39638137498E+03  0.40029555197E+03  0.10000000000E+01 0.  0.
    9000005    1    3    3    0    0 -0.54410403777E+02  0.25575646793E+02 -0.11258899946E+04  0.11274945169E+04  0.10000000000E+01 0.  0.
         21    1    1    2  502  501 -0.66520019046E+00 -0.34741471626E+02 -0.46930880312E+03  0.47059341796E+03  0.00000000000E+00 0.  1.
<mgrwt>
<rscale>  1 0.12973963E+03</rscale>
<asrwt>0</asrwt>
<pdfrwt beam="1">  1        4 0.52333345E-03 0.12973963E+03</pdfrwt>
<pdfrwt beam="2">  1       -4 0.30691935E+00 0.12973963E+03</pdfrwt>
<totfact> 0.44240816E+02</totfact>
</mgrwt>
</event>
<event>
 6    4  0.5642870E-004  0.1281968E+03  0.7818608E-02  0.1230156E+00
          4   -1    0    0  502    0  0.00000000000E+00  0.00000000000E+00  0.51667702902E+02  0.51683308942E+02  0.12700000000E+01 0. -1.
         -4   -1    0    0    0  501 -0.00000000000E+00 -0.00000000000E+00 -0.11875275832E+03  0.11875954912E+03  0.12700000000E+01 0. -1.
         25    2    1    2    0    0 -0.28438604580E+02 -0.96056364600E-01 -0.53231797368E+02  0.13880939136E+03  0.12500263766E+03 0.  0.
    9000005    1    3    3    0    0  0.23435846680E+02 -0.21123922779E+02 -0.72924547113E+02  0.79463504798E+02  0.10000000000E+01 0.  0.
    9000005    1    3    3    0    0 -0.51874451260E+02  0.21027866414E+02  0.19692749744E+02  0.59345886563E+02  0.10000000000E+01 0.  0.
         21    1    1    2  502  501  0.28438604580E+02  0.96056364600E-01 -0.13853258046E+02  0.31633466705E+02  0.00000000000E+00 0. -1.
<mgrwt>
<rscale>  1 0.12819681E+03</rscale>
<asrwt>0</asrwt>
<pdfrwt beam="1">  1        4 0.79506002E-02 0.12819681E+03</pdfrwt>
<pdfrwt beam="2">  1       -4 0.18271378E-01 0.12819681E+03</pdfrwt>
<totfact> 0.47719397E+03</totfact>
</mgrwt>
</event>
<event>
 6    4  0.5642870E-004  0.1591984E+03  0.7818608E-02  0.1189605E+00
         -4   -1    0    0    0  501 -0.00000000000E+00  0.00000000000E+00  0.17093291523E+03  0.17093763310E+03  0.12700000000E+01 0.  1.
          4   -1    0    0  502    0  0.00000000000E+00 -0.00000000000E+00 -0.98841637032E+02  0.98849795706E+02  0.12700000000E+01 0.  1.
         25    2    1    2    0    0  0.80425494352E+02  0.57023606206E+02  0.61364761102E+02  0.17061581000E+03  0.12499667560E+03 0.  0.
    9000005    1    3    3    0    0  0.77865563221E+02  0.47191692168E+02  0.97298808348E+02  0.13325974580E+03  0.10000000000E+01 0.  0.
    9000005    1    3    3    0    0  0.25599311309E+01  0.98319140376E+01 -0.35934047246E+02  0.37356064200E+02  0.10000000000E+01 0.  0.
         21    1    1    2  502  501 -0.80425494352E+02 -0.57023606206E+02  0.10726517096E+02  0.99171618801E+02  0.00000000000E+00 0.  1.
<mgrwt>
<rscale>  1 0.15919837E+03</rscale>
<asrwt>0</asrwt>
<pdfrwt beam="2">  1        4 0.15207396E-01 0.15919837E+03</pdfrwt>
<pdfrwt beam="1">  1       -4 0.26298362E-01 0.15919837E+03</pdfrwt>
<totfact> 0.85591989E+02</totfact>
</mgrwt>
</event>
<event>
 6    4  0.5642870E-004  0.1287668E+03  0.7818608E-02  0.1229297E+00
         -4   -1    0    0    0  501 -0.00000000000E+00  0.00000000000E+00  0.58125064257E+02  0.58138936995E+02  0.12700000000E+01 0. -1.
          4   -1    0    0  502    0  0.00000000000E+00 -0.00000000000E+00 -0.11027259240E+03  0.11027990540E+03  0.12700000000E+01 0. -1.
         25    2    1    2    0    0 -0.14166073446E+02 -0.27478981713E+02 -0.47008216561E+02  0.13707901795E+03  0.12500045066E+03 0.  0.
    9000005    1    3    3    0    0 -0.88829889514E+01  0.49058541978E+02 -0.30950441258E+02  0.58690526048E+02  0.10000000000E+01 0.  0.
    9000005    1    3    3    0    0 -0.52830844947E+01 -0.76537523691E+02 -0.16057775303E+02  0.78388491899E+02  0.10000000000E+01 0.  0.
         21    1    1    2  502  501  0.14166073446E+02  0.27478981713E+02 -0.51393115851E+01  0.31339824448E+02  0.00000000000E+00 0. -1.
<mgrwt>
<rscale>  1 0.12876678E+03</rscale>
<asrwt>0</asrwt>
<pdfrwt beam="2">  1        4 0.16966644E-01 0.12876678E+03</pdfrwt>
<pdfrwt beam="1">  1       -4 0.89439473E-02 0.12876678E+03</pdfrwt>
<totfact> 0.44799062E+03</totfact>
</mgrwt>
</event>
<event>
 6    4  0.5642870E-004  0.1281912E+03  0.7818608E-02  0.1230165E+00
         -4   -1    0    0    0  501 -0.00000000000E+00  0.00000000000E+00  0.20232406738E+03  0.20232805327E+03  0.12700000000E+01 0.  1.
          4   -1    0    0  502    0  0.00000000000E+00 -0.00000000000E+00 -0.30851823019E+02  0.30877951416E+02  0.12700000000E+01 0.  1.
         25    2    1    2    0    0  0.12112686443E+02 -0.25727414948E+02  0.15149813768E+03  0.19845572425E+03  0.12499748683E+03 0.  0.
    9000005    1    3    3    0    0  0.43424094076E+02  0.19600073412E+02  0.12992272302E+02  0.49392448447E+02  0.10000000000E+01 0.  0.
    9000005    1    3    3    0    0 -0.31311407632E+02 -0.45327488360E+02  0.13850586538E+03  0.14906327580E+03  0.10000000000E+01 0.  0.
         21    1    1    2  502  501 -0.12112686443E+02  0.25727414948E+02  0.19974106678E+02  0.34750280436E+02  0.00000000000E+00 0. -1.
<mgrwt>
<rscale>  1 0.12819122E+03</rscale>
<asrwt>0</asrwt>
<pdfrwt beam="2">  1        4 0.47487509E-02 0.12819122E+03</pdfrwt>
<pdfrwt beam="1">  1       -4 0.31129096E-01 0.12819122E+03</pdfrwt>
<totfact> 0.41502046E+03</totfact>
</mgrwt>
</event>
<event>
 6    4  0.5642870E-004  0.1273163E+03  0.7818608E-02  0.1231493E+00
          4   -1    0    0  502    0  0.00000000000E+00  0.00000000000E+00  0.54430838350E+02  0.54445652383E+02  0.12700000000E+01 0.  1.
         -4   -1    0    0    0  501 -0.00000000000E+00 -0.00000000000E+00 -0.10988245136E+03  0.10988979032E+03  0.12700000000E+01 0.  1.
         25    2    1    2    0    0  0.17418905114E+02 -0.16757549835E+02 -0.58239015361E+02  0.14000432387E+03  0.12500077624E+03 0.  0.
    9000005    1    3    3    0    0  0.62997425064E+02  0.64841902228E+01 -0.62079781071E+02  0.88688327898E+02  0.10000000000E+01 0.  0.
    9000005    1    3    3    0    0 -0.45578519950E+02 -0.23241740058E+02  0.38407657094E+01  0.51315995976E+02  0.10000000000E+01 0.  0.
         21    1    1    2  502  501 -0.17418905114E+02  0.16757549835E+02  0.27874023480E+01  0.24331118834E+02  0.00000000000E+00 0.  1.
<mgrwt>
<rscale>  1 0.12731625E+03</rscale>
<asrwt>0</asrwt>
<pdfrwt beam="1">  1        4 0.83756792E-02 0.12731625E+03</pdfrwt>
<pdfrwt beam="2">  1       -4 0.16906697E-01 0.12731625E+03</pdfrwt>
<totfact> 0.50140295E+03</totfact>
</mgrwt>
</event>
<event>
 6    4  0.5642870E-004  0.1275906E+03  0.7818608E-02  0.1231075E+00
         -4   -1    0    0    0  501 -0.00000000000E+00  0.00000000000E+00  0.17632438543E+04  0.17632443117E+04  0.12700000000E+01 0. -1.
          4   -1    0    0  502    0  0.00000000000E+00 -0.00000000000E+00 -0.45931445962E+01  0.47654881472E+01  0.12700000000E+01 0. -1.
         25    2    1    2    0    0  0.20771178809E+02  0.14955340077E+02  0.16888769095E+04  0.16936896326E+04  0.12499700770E+03 0.  0.
    9000005    1    3    3    0    0 -0.49604663906E+02 -0.11334257178E+02  0.81580646872E+03  0.81739236752E+03  0.10000000000E+01 0.  0.
    9000005    1    3    3    0    0  0.70375842714E+02  0.26289597255E+02  0.87307044079E+03  0.87629726506E+03  0.10000000000E+01 0.  0.
         21    1    1    2  502  501 -0.20771178809E+02 -0.14955340077E+02  0.69773800220E+02  0.74320167270E+02  0.00000000000E+00 0. -1.
<mgrwt>
<rscale>  1 0.12759058E+03</rscale>
<asrwt>0</asrwt>
<pdfrwt beam="2">  1        4 0.71992841E-03 0.12759058E+03</pdfrwt>
<pdfrwt beam="1">  1       -4 0.27128218E+00 0.12759058E+03</pdfrwt>
<totfact> 0.44050716E+02</totfact>
</mgrwt>
</event>
<event>
 6    4  0.5642870E-004  0.1290682E+03  0.7818608E-02  0.1228845E+00
          4   -1    0    0  502    0  0.00000000000E+00  0.00000000000E+00  0.49978057745E+02  0.49994191222E+02  0.12700000000E+01 0.  1.
         -4   -1    0    0    0  501 -0.00000000000E+00 -0.00000000000E+00 -0.16236242323E+03  0.16236739012E+03  0.12700000000E+01 0.  1.
         25    2    1    2    0    0 -0.31177504920E+02 -0.78570124914E+01 -0.12321003098E+03  0.17843571375E+03  0.12499929100E+03 0.  0.
    9000005    1    3    3    0    0  0.59006290662E+00  0.37981733453E+02  0.52761898343E+01  0.38364025199E+02  0.10000000000E+01 0.  0.
    9000005    1    3    3    0    0 -0.31767567827E+02 -0.45838745944E+02 -0.12848622081E+03  0.14007168855E+03  0.10000000000E+01 0.  0.
         21    1    1    2  502  501  0.31177504920E+02  0.78570124914E+01  0.10825665500E+02  0.33925867592E+02  0.00000000000E+00 0. -1.
<mgrwt>
<rscale>  1 0.12906817E+03</rscale>
<asrwt>0</asrwt>
<pdfrwt beam="1">  1        4 0.76905552E-02 0.12906817E+03</pdfrwt>
<pdfrwt beam="2">  1       -4 0.24980457E-01 0.12906817E+03</pdfrwt>
<totfact> 0.28663451E+03</totfact>
</mgrwt>
</event>
<event>
 6    4  0.5642870E-004  0.1365421E+03  0.7818608E-02  0.1218059E+00
         -4   -1    0    0    0  501 -0.00000000000E+00  0.00000000000E+00  0.33752535029E+03  0.33752773959E+03  0.12700000000E+01 0. -1.
          4   -1    0    0  502    0  0.00000000000E+00 -0.00000000000E+00 -0.29689529437E+02  0.29716679798E+02  0.12700000000E+01 0. -1.
         25    2    1    2    0    0  0.51147058590E+02  0.20081567599E+02  0.26297253209E+03  0.29630778824E+03  0.12499784709E+03 0.  0.
    9000005    1    3    3    0    0  0.25776587663E+02  0.53452465855E+02  0.45381640844E+02  0.74713398418E+02  0.10000000000E+01 0.  0.
    9000005    1    3    3    0    0  0.25370470927E+02 -0.33370898256E+02  0.21759089125E+03  0.22159438982E+03  0.10000000000E+01 0.  0.
         21    1    1    2  502  501 -0.51147058590E+02 -0.20081567599E+02  0.44863288762E+02  0.70936631145E+02  0.00000000000E+00 0.  1.
<mgrwt>
<rscale>  1 0.13654213E+03</rscale>
<asrwt>0</asrwt>
<pdfrwt beam="2">  1        4 0.45698924E-02 0.13654213E+03</pdfrwt>
<pdfrwt beam="1">  1       -4 0.51929247E-01 0.13654213E+03</pdfrwt>
<totfact> 0.16342616E+03</totfact>
</mgrwt>
</event>
<event>
 6    4  0.5642870E-004  0.1321431E+03  0.7818608E-02  0.1224310E+00
         -4   -1    0    0    0  501 -0.00000000000E+00  0.00000000000E+00  0.57659893421E+03  0.57660033284E+03  0.12700000000E+01 0.  1.
          4   -1    0    0  502    0  0.00000000000E+00 -0.00000000000E+00 -0.14493148405E+02  0.14548685532E+02  0.12700000000E+01 0.  1.
         25    2    1    2    0    0  0.35799167789E+02 -0.23499403248E+02  0.48785208793E+03  0.50543196047E+03  0.12501201782E+03 0.  0.
    9000005    1    3    3    0    0  0.12003801760E+02  0.46574608408E+02  0.10505501763E+03  0.11554584430E+03  0.10000000000E+01 0.  0.
    9000005    1    3    3    0    0  0.23795366029E+02 -0.70074011656E+02  0.38279707030E+03  0.38988611617E+03  0.10000000000E+01 0.  0.
         21    1    1    2  502  501 -0.35799167789E+02  0.23499403248E+02  0.74253697870E+02  0.85717057899E+02  0.00000000000E+00 0.  1.
<mgrwt>
<rscale>  1 0.13214313E+03</rscale>
<asrwt>0</asrwt>
<pdfrwt beam="2">  1        4 0.22340952E-02 0.13214313E+03</pdfrwt>
<pdfrwt beam="1">  1       -4 0.88711893E-01 0.13214313E+03</pdfrwt>
<totfact> 0.15822741E+03</totfact>
</mgrwt>
</event>
<event>
 6    4  0.5642870E-004  0.1297441E+03  0.7818608E-02  0.1227836E+00
         -4   -1    0    0    0  501 -0.00000000000E+00  0.00000000000E+00  0.63632096024E+02  0.63644768398E+02  0.12700000000E+01 0.  1.
          4   -1    0    0  502    0  0.00000000000E+00 -0.00000000000E+00 -0.12702778376E+03  0.12703413222E+03  0.12700000000E+01 0.  1.
         25    2    1    2    0    0 -0.31885418522E+02 -0.13862321741E+02 -0.14315403076E+02  0.13053143000E+03  0.12499871829E+03 0.  0.
    9000005    1    3    3    0    0  0.30215609079E+02 -0.31150465338E+02 -0.41969648936E+02  0.60380344108E+02  0.10000000000E+01 0.  0.
    9000005    1    3    3    0    0 -0.62101027601E+02  0.17288143597E+02  0.27654245860E+02  0.70151085894E+02  0.10000000000E+01 0.  0.
         21    1    1    2  502  501  0.31885418522E+02  0.13862321741E+02 -0.49080284664E+02  0.60147470612E+02  0.00000000000E+00 0. -1.
<mgrwt>
<rscale>  1 0.12974407E+03</rscale>
<asrwt>0</asrwt>
<pdfrwt beam="2">  1        4 0.19544199E-01 0.12974407E+03</pdfrwt>
<pdfrwt beam="1">  1       -4 0.97910164E-02 0.12974407E+03</pdfrwt>
<totfact> 0.29992234E+03</totfact>
</mgrwt>
</event>
<event>
 6    4  0.5642870E-004  0.1338866E+03  0.7818608E-02  0.1221800E+00
         -4   -1    0    0    0  501 -0.00000000000E+00  0.00000000000E+00  0.19407926420E+03  0.19408341942E+03  0.12700000000E+01 0. -1.
          4   -1    0    0  502    0  0.00000000000E+00 -0.00000000000E+00 -0.42651753194E+02  0.42670656786E+02  0.12700000000E+01 0. -1.
         25    2    1    2    0    0 -0.12773499849E+02 -0.46248746272E+02  0.10751134822E+03  0.17170995130E+03  0.12499403406E+03 0.  0.
    9000005    1    3    3    0    0 -0.26337541616E+02  0.20752999813E+02  0.96875517012E+02  0.10251935864E+03  0.10000000000E+01 0.  0.
    9000005    1    3    3    0    0  0.13564041767E+02 -0.67001746085E+02  0.10635831206E+02  0.69190592663E+02  0.10000000000E+01 0.  0.
         21    1    1    2  502  501  0.12773499849E+02  0.46248746272E+02  0.43916162791E+02  0.65044124903E+02  0.00000000000E+00 0. -1.
<mgrwt>
<rscale>  1 0.13388658E+03</rscale>
<asrwt>0</asrwt>
<pdfrwt beam="2">  1        4 0.65635819E-02 0.13388658E+03</pdfrwt>
<pdfrwt beam="1">  1       -4 0.29860122E-01 0.13388658E+03</pdfrwt>
<totfact> 0.26885122E+03</totfact>
</mgrwt>
</event>
<event>
 6    4  0.5642870E-004  0.1402084E+03  0.7818608E-02  0.1213049E+00
         -4   -1    0    0    0  501 -0.00000000000E+00  0.00000000000E+00  0.76949963019E+01  0.77990940555E+01  0.12700000000E+01 0. -1.
          4   -1    0    0  502    0  0.00000000000E+00 -0.00000000000E+00 -0.15264454394E+04  0.15264459677E+04  0.12700000000E+01 0. -1.
         25    2    1    2    0    0  0.34606879167E+02 -0.53253573988E+02 -0.12616310795E+04  0.12693980373E+04  0.12499926860E+03 0.  0.
    9000005    1    3    3    0    0  0.54160049335E+02  0.19293753612E+02 -0.75973529099E+03  0.76190830960E+03  0.10000000000E+01 0.  0.
    9000005    1    3    3    0    0 -0.19553170168E+02 -0.72547327600E+02 -0.50189578851E+03  0.50748972771E+03  0.10000000000E+01 0.  0.
         21    1    1    2  502  501 -0.34606879167E+02  0.53253573988E+02 -0.25711936363E+03  0.26484702449E+03  0.00000000000E+00 0.  1.
<mgrwt>
<rscale>  1 0.14020840E+03</rscale>
<asrwt>0</asrwt>
<pdfrwt beam="2">  1        4 0.23484557E+00 0.14020840E+03</pdfrwt>
<pdfrwt beam="1">  1       -4 0.11918950E-02 0.14020840E+03</pdfrwt>
<totfact> 0.34011007E+02</totfact>
</mgrwt>
</event>
<event>
 6    4  0.5642870E-004  0.1332411E+03  0.7818608E-02  0.1222724E+00
          4   -1    0    0  502    0  0.00000000000E+00  0.00000000000E+00  0.86430206167E+01  0.87358288319E+01  0.12700000000E+01 0.  1.
         -4   -1    0    0    0  501 -0.00000000000E+00 -0.00000000000E+00 -0.95140347080E+03  0.95140431844E+03  0.12700000000E+01 0.  1.
         25    2    1    2    0    0 -0.26296228975E+02 -0.37897482611E+02 -0.76356733748E+03  0.77510533301E+03  0.12500195022E+03 0.  0.
    9000005    1    3    3    0    0  0.30343950680E+02  0.15106482234E+02 -0.76590912204E+02  0.83762336289E+02  0.10000000000E+01 0.  0.
    9000005    1    3    3    0    0 -0.56640179655E+02 -0.53003964845E+02 -0.68697642527E+03  0.69134299673E+03  0.10000000000E+01 0.  0.
         21    1    1    2  502  501  0.26296228975E+02  0.37897482611E+02 -0.17919311270E+03  0.18503481426E+03  0.00000000000E+00 0.  1.
<mgrwt>
<rscale>  1 0.13324113E+03</rscale>
<asrwt>0</asrwt>
<pdfrwt beam="1">  1        4 0.13369005E-02 0.13324113E+03</pdfrwt>
<pdfrwt beam="2">  1       -4 0.14637689E+00 0.13324113E+03</pdfrwt>
<totfact> 0.10571507E+03</totfact>
</mgrwt>
</event>
<event>
 6    4  0.5642870E-004  0.1311050E+03  0.7818608E-02  0.1225825E+00
          4   -1    0    0  502    0  0.00000000000E+00  0.00000000000E+00  0.46181079996E+02  0.46198539475E+02  0.12700000000E+01 0. -1.
         -4   -1    0    0    0  501 -0.00000000000E+00 -0.00000000000E+00 -0.15957354078E+03  0.15957859449E+03  0.12700000000E+01 0. -1.
         25    2    1    2    0    0  0.36294315864E+02  0.15731985470E+02 -0.96366289044E+02  0.16271133250E+03  0.12499497322E+03 0.  0.
    9000005    1    3    3    0    0  0.82917210098E+01 -0.14252084857E+02  0.27579493419E+02  0.32148141740E+02  0.10000000000E+01 0.  0.
    9000005    1    3    3    0    0  0.28002594855E+02  0.29984070327E+02 -0.12394578246E+03  0.13056319076E+03  0.10000000000E+01 0.  0.
         21    1    1    2  502  501 -0.36294315864E+02 -0.15731985470E+02 -0.17026171743E+02  0.43065801457E+02  0.00000000000E+00 0. -1.
<mgrwt>
<rscale>  1 0.13110498E+03</rscale>
<asrwt>0</asrwt>
<pdfrwt beam="1">  1        4 0.71065134E-02 0.13110498E+03</pdfrwt>
<pdfrwt beam="2">  1       -4 0.24551507E-01 0.13110498E+03</pdfrwt>
<totfact> 0.33829296E+03</totfact>
</mgrwt>
</event>
<event>
 6    4  0.5642870E-004  0.1301806E+03  0.7818608E-02  0.1227188E+00
          4   -1    0    0  502    0  0.00000000000E+00  0.00000000000E+00  0.48876270058E+02  0.48892767101E+02  0.12700000000E+01 0.  1.
         -4   -1    0    0    0  501 -0.00000000000E+00 -0.00000000000E+00 -0.14343844542E+03  0.14344406758E+03  0.12700000000E+01 0.  1.
         25    2    1    2    0    0 -0.21792183898E+02  0.29106733377E+02 -0.82064952065E+02  0.15388840432E+03  0.12499953368E+03 0.  0.
    9000005    1    3    3    0    0 -0.63095171402E+02  0.24430411061E+02 -0.69365717655E+01  0.68021773475E+02  0.10000000000E+01 0.  0.
    9000005    1    3    3    0    0  0.41302987504E+02  0.46763223165E+01 -0.75128380299E+02  0.85866630850E+02  0.10000000000E+01 0.  0.
         21    1    1    2  502  501  0.21792183898E+02 -0.29106733377E+02 -0.12497223300E+02  0.38448430360E+02  0.00000000000E+00 0.  1.
<mgrwt>
<rscale>  1 0.13018058E+03</rscale>
<asrwt>0</asrwt>
<pdfrwt beam="1">  1        4 0.75211277E-02 0.13018058E+03</pdfrwt>
<pdfrwt beam="2">  1       -4 0.22069154E-01 0.13018058E+03</pdfrwt>
<totfact> 0.37385270E+03</totfact>
</mgrwt>
</event>
<event>
 6    4  0.5642870E-004  0.1373475E+03  0.7818608E-02  0.1216943E+00
         -4   -1    0    0    0  501 -0.00000000000E+00  0.00000000000E+00  0.70735967062E+02  0.70747366992E+02  0.12700000000E+01 0. -1.
          4   -1    0    0  502    0  0.00000000000E+00 -0.00000000000E+00 -0.13762118696E+03  0.13762704676E+03  0.12700000000E+01 0. -1.
         25    2    1    2    0    0 -0.48052561054E+02 -0.30498485824E+02 -0.63620513533E+02  0.15136683032E+03  0.12500056527E+03 0.  0.
    9000005    1    3    3    0    0 -0.21789553095E+02  0.48255933510E+02 -0.14524111487E+02  0.54912380730E+02  0.10000000000E+01 0.  0.
    9000005    1    3    3    0    0 -0.26263007959E+02 -0.78754419333E+02 -0.49096402047E+02  0.96454449589E+02  0.10000000000E+01 0.  0.
         21    1    1    2  502  501  0.48052561054E+02  0.30498485824E+02 -0.32647063649E+01  0.57007583434E+02  0.00000000000E+00 0. -1.
<mgrwt>
<rscale>  1 0.13734754E+03</rscale>
<asrwt>0</asrwt>
<pdfrwt beam="2">  1        4 0.21173818E-01 0.13734754E+03</pdfrwt>
<pdfrwt beam="1">  1       -4 0.10883784E-01 0.13734754E+03</pdfrwt>
<totfact> 0.22000328E+03</totfact>
</mgrwt>
</event>
<event>
 6    4  0.5642870E-004  0.1332208E+03  0.7818608E-02  0.1222753E+00
         -4   -1    0    0    0  501 -0.00000000000E+00  0.00000000000E+00  0.14072086117E+03  0.14072659191E+03  0.12700000000E+01 0. -1.
          4   -1    0    0  502    0  0.00000000000E+00 -0.00000000000E+00 -0.13680064703E+03  0.13680654197E+03  0.12700000000E+01 0. -1.
         25    2    1    2    0    0 -0.36723104852E+02 -0.27822369043E+02  0.10291472146E+03  0.16834255220E+03  0.12500041735E+03 0.  0.
    9000005    1    3    3    0    0 -0.58959055567E+02  0.33357754656E+02  0.58731864742E+02  0.89662377646E+02  0.10000000000E+01 0.  0.
    9000005    1    3    3    0    0  0.22235950715E+02 -0.61180123700E+02  0.44182856720E+02  0.78680174555E+02  0.10000000000E+01 0.  0.
         21    1    1    2  502  501  0.36723104852E+02  0.27822369043E+02 -0.98994507315E+02  0.10919058168E+03  0.00000000000E+00 0. -1.
<mgrwt>
<rscale>  1 0.13322078E+03</rscale>
<asrwt>0</asrwt>
<pdfrwt beam="2">  1        4 0.21047148E-01 0.13322078E+03</pdfrwt>
<pdfrwt beam="1">  1       -4 0.21650258E-01 0.13322078E+03</pdfrwt>
<totfact> 0.66246079E+02</totfact>
</mgrwt>
</event>
<event>
 6    4  0.5642870E-004  0.1274065E+03  0.7818608E-02  0.1231356E+00
          4   -1    0    0  502    0  0.00000000000E+00  0.00000000000E+00  0.78807031460E+02  0.78817264020E+02  0.12700000000E+01 0. -1.
         -4   -1    0    0    0  501 -0.00000000000E+00 -0.00000000000E+00 -0.73393896789E+02  0.73404883938E+02  0.12700000000E+01 0. -1.
         25    2    1    2    0    0 -0.22409544741E+02 -0.10259578021E+02  0.27957028139E+01  0.12743712050E+03  0.12499982836E+03 0.  0.
    9000005    1    3    3    0    0  0.42997993302E+02 -0.36278424070E+02 -0.55710929494E+01  0.56541918588E+02  0.10000000000E+01 0.  0.
    9000005    1    3    3    0    0 -0.65407538042E+02  0.26018846049E+02  0.83667957633E+01  0.70895201910E+02  0.10000000000E+01 0.  0.
         21    1    1    2  502  501  0.22409544741E+02  0.10259578021E+02  0.26174318569E+01  0.24785027460E+02  0.00000000000E+00 0. -1.
<mgrwt>
<rscale>  1 0.12740645E+03</rscale>
<asrwt>0</asrwt>
<pdfrwt beam="1">  1        4 0.12125791E-01 0.12740645E+03</pdfrwt>
<pdfrwt beam="2">  1       -4 0.11293001E-01 0.12740645E+03</pdfrwt>
<totfact> 0.54070545E+03</totfact>
</mgrwt>
</event>
<event>
 6    4  0.5642870E-004  0.1437670E+03  0.7818608E-02  0.1208348E+00
         -4   -1    0    0    0  501 -0.00000000000E+00  0.00000000000E+00  0.58352126705E+02  0.58365945473E+02  0.12700000000E+01 0. -1.
          4   -1    0    0  502    0  0.00000000000E+00 -0.00000000000E+00 -0.28996614518E+03  0.28996892635E+03  0.12700000000E+01 0. -1.
         25    2    1    2    0    0 -0.26875040969E+02 -0.65723805120E+02 -0.48160570584E+02  0.15161920410E+03  0.12500822415E+03 0.  0.
    9000005    1    3    3    0    0  0.36312293474E+02  0.13535753082E+02 -0.29101925416E+02  0.48473924245E+02  0.10000000000E+01 0.  0.
    9000005    1    3    3    0    0 -0.63187334443E+02 -0.79259558202E+02 -0.19058645168E+02  0.10314527985E+03  0.10000000000E+01 0.  0.
         21    1    1    2  502  501  0.26875040969E+02  0.65723805120E+02 -0.18345344789E+03  0.19671566773E+03  0.00000000000E+00 0. -1.
<mgrwt>
<rscale>  1 0.14376697E+03</rscale>
<asrwt>0</asrwt>
<pdfrwt beam="2">  1        4 0.44611452E-01 0.14376697E+03</pdfrwt>
<pdfrwt beam="1">  1       -4 0.89785273E-02 0.14376697E+03</pdfrwt>
<totfact> 0.74528286E+02</totfact>
</mgrwt>
</event>
<event>
 6    4  0.5642870E-004  0.1281439E+03  0.7818608E-02  0.1230236E+00
         -4   -1    0    0    0  501 -0.00000000000E+00  0.00000000000E+00  0.14072728791E+03  0.14073301838E+03  0.12700000000E+01 0.  1.
          4   -1    0    0  502    0  0.00000000000E+00 -0.00000000000E+00 -0.76816020788E+02  0.76826518532E+02  0.12700000000E+01 0.  1.
         25    2    1    2    0    0  0.20019953054E+02  0.19890612741E+02  0.10639570130E+03  0.16655598662E+03  0.12499766570E+03 0.  0.
    9000005    1    3    3    0    0  0.48512708450E+02  0.59474531340E+02  0.80875829653E+02  0.11150158107E+03  0.10000000000E+01 0.  0.
    9000005    1    3    3    0    0 -0.28492755396E+02 -0.39583918599E+02  0.25519871644E+02  0.55054405550E+02  0.10000000000E+01 0.  0.
         21    1    1    2  502  501 -0.20019953054E+02 -0.19890612741E+02 -0.42484434173E+02  0.51003550293E+02  0.00000000000E+00 0.  1.
<mgrwt>
<rscale>  1 0.12814387E+03</rscale>
<asrwt>0</asrwt>
<pdfrwt beam="2">  1        4 0.11819098E-01 0.12814387E+03</pdfrwt>
<pdfrwt beam="1">  1       -4 0.21651600E-01 0.12814387E+03</pdfrwt>
<totfact> 0.18077741E+03</totfact>
</mgrwt>
</event>
<event>
 6    4  0.5642870E-004  0.1268465E+03  0.7818608E-02  0.1232211E+00
          4   -1    0    0  502    0  0.00000000000E+00  0.00000000000E+00  0.50427281082E+02  0.50443270882E+02  0.12700000000E+01 0. -1.
         -4   -1    0    0    0  501 -0.00000000000E+00 -0.00000000000E+00 -0.13970746355E+03  0.13971323585E+03  0.12700000000E+01 0. -1.
         25    2    1    2    0    0  0.11529661184E+02  0.18190188876E+02 -0.10403314392E+03  0.16405160432E+03  0.12500487105E+03 0.  0.
    9000005    1    3    3    0    0 -0.22390592032E+02  0.64271767512E+01  0.22571084129E+02  0.32451518475E+02  0.10000000000E+01 0.  0.
    9000005    1    3    3    0    0  0.33920253217E+02  0.11763012124E+02 -0.12660422805E+03  0.13160008584E+03  0.10000000000E+01 0.  0.
         21    1    1    2  502  501 -0.11529661184E+02 -0.18190188876E+02  0.14752961457E+02  0.26104902415E+02  0.00000000000E+00 0. -1.
<mgrwt>
<rscale>  1 0.12684650E+03</rscale>
<asrwt>0</asrwt>
<pdfrwt beam="1">  1        4 0.77597173E-02 0.12684650E+03</pdfrwt>
<pdfrwt beam="2">  1       -4 0.21495130E-01 0.12684650E+03</pdfrwt>
<totfact> 0.37010692E+03</totfact>
</mgrwt>
</event>
<event>
 6    4  0.5642870E-004  0.1379342E+03  0.7818608E-02  0.1216136E+00
         -4   -1    0    0    0  501 -0.00000000000E+00  0.00000000000E+00  0.37261107731E+03  0.37261324162E+03  0.12700000000E+01 0.  1.
          4   -1    0    0  502    0  0.00000000000E+00 -0.00000000000E+00 -0.33875921402E+02  0.33899719038E+02  0.12700000000E+01 0.  1.
         25    2    1    2    0    0  0.35720680201E+02 -0.46089031699E+02  0.31440207194E+03  0.34332858908E+03  0.12500276557E+03 0.  0.
    9000005    1    3    3    0    0  0.58762784272E+02 -0.59746807087E+01  0.58009722951E+02  0.82794260561E+02  0.10000000000E+01 0.  0.
    9000005    1    3    3    0    0 -0.23042104071E+02 -0.40114350990E+02  0.25639234899E+03  0.26053432852E+03  0.10000000000E+01 0.  0.
         21    1    1    2  502  501 -0.35720680201E+02  0.46089031699E+02  0.24333083965E+02  0.63184371582E+02  0.00000000000E+00 0.  1.
<mgrwt>
<rscale>  1 0.13793425E+03</rscale>
<asrwt>0</asrwt>
<pdfrwt beam="2">  1        4 0.52136775E-02 0.13793425E+03</pdfrwt>
<pdfrwt beam="1">  1       -4 0.57326776E-01 0.13793425E+03</pdfrwt>
<totfact> 0.10803546E+03</totfact>
</mgrwt>
</event>
<event>
 6    4  0.5642870E-004  0.1267570E+03  0.7818608E-02  0.1232349E+00
         -4   -1    0    0    0  501 -0.00000000000E+00  0.00000000000E+00  0.61811891757E+03  0.61812022225E+03  0.12700000000E+01 0. -1.
          4   -1    0    0  502    0  0.00000000000E+00 -0.00000000000E+00 -0.19633430458E+02  0.19674462929E+02  0.12700000000E+01 0. -1.
         25    2    1    2    0    0  0.28581632104E+01 -0.20831598499E+02  0.60309233752E+03  0.61626917325E+03  0.12500080694E+03 0.  0.
    9000005    1    3    3    0    0 -0.15741187102E+02  0.34898782966E+02  0.45986224600E+03  0.46145421801E+03  0.10000000000E+01 0.  0.
    9000005    1    3    3    0    0  0.18599350312E+02 -0.55730381464E+02  0.14323009152E+03  0.15481495524E+03  0.10000000000E+01 0.  0.
         21    1    1    2  502  501 -0.28581632104E+01  0.20831598499E+02 -0.46068504096E+01  0.21525511925E+02  0.00000000000E+00 0. -1.
<mgrwt>
<rscale>  1 0.12675696E+03</rscale>
<asrwt>0</asrwt>
<pdfrwt beam="2">  1        4 0.30237841E-02 0.12675696E+03</pdfrwt>
<pdfrwt beam="1">  1       -4 0.95098485E-01 0.12675696E+03</pdfrwt>
<totfact> 0.83651194E+02</totfact>
</mgrwt>
</event>
<event>
 6    4  0.5642870E-004  0.1366670E+03  0.7818608E-02  0.1217885E+00
         -4   -1    0    0    0  501 -0.00000000000E+00  0.00000000000E+00  0.85485330035E+02  0.85494763297E+02  0.12700000000E+01 0.  1.
          4   -1    0    0  502    0  0.00000000000E+00 -0.00000000000E+00 -0.11370860863E+03  0.11371570066E+03  0.12700000000E+01 0.  1.
         25    2    1    2    0    0  0.46657361747E+02 -0.29574087814E+02  0.10956789901E+01  0.13667137738E+03  0.12500531512E+03 0.  0.
    9000005    1    3    3    0    0  0.66006478897E+02  0.24750712659E+01 -0.42996897945E+02  0.78820774337E+02  0.10000000000E+01 0.  0.
    9000005    1    3    3    0    0 -0.19349117150E+02 -0.32049159079E+02  0.44092576935E+02  0.57850603047E+02  0.10000000000E+01 0.  0.
         21    1    1    2  502  501 -0.46657361747E+02  0.29574087814E+02 -0.29318957583E+02  0.62539086570E+02  0.00000000000E+00 0.  1.
<mgrwt>
<rscale>  1 0.13666699E+03</rscale>
<asrwt>0</asrwt>
<pdfrwt beam="2">  1        4 0.17494903E-01 0.13666699E+03</pdfrwt>
<pdfrwt beam="1">  1       -4 0.13152860E-01 0.13666699E+03</pdfrwt>
<totfact> 0.22376854E+03</totfact>
</mgrwt>
</event>
<event>
 6    4  0.5642870E-004  0.1304903E+03  0.7818608E-02  0.1226730E+00
          4   -1    0    0  502    0  0.00000000000E+00  0.00000000000E+00  0.19973696668E+02  0.20014031542E+02  0.12700000000E+01 0.  1.
         -4   -1    0    0    0  501 -0.00000000000E+00 -0.00000000000E+00 -0.73823754481E+03  0.73823863721E+03  0.12700000000E+01 0.  1.
         25    2    1    2    0    0  0.15804747200E+02 -0.33961155714E+02 -0.70728015174E+03  0.71921689390E+03  0.12499830918E+03 0.  0.
    9000005    1    3    3    0    0 -0.33120008214E+02  0.27803459605E+02 -0.38592057539E+03  0.38833704152E+03  0.10000000000E+01 0.  0.
    9000005    1    3    3    0    0  0.48924755414E+02 -0.61764615320E+02 -0.32135957635E+03  0.33087985238E+03  0.10000000000E+01 0.  0.
         21    1    1    2  502  501 -0.15804747200E+02  0.33961155714E+02 -0.10983696404E+02  0.39035774851E+02  0.00000000000E+00 0.  1.
<mgrwt>
<rscale>  1 0.13049033E+03</rscale>
<asrwt>0</asrwt>
<pdfrwt beam="1">  1        4 0.30760637E-02 0.13049033E+03</pdfrwt>
<pdfrwt beam="2">  1       -4 0.11357817E+00 0.13049033E+03</pdfrwt>
<totfact> 0.54187878E+02</totfact>
</mgrwt>
</event>
<event>
 6    4  0.5642870E-004  0.1328975E+03  0.7818608E-02  0.1223219E+00
         -4   -1    0    0    0  501 -0.00000000000E+00  0.00000000000E+00  0.23064380555E+02  0.23099319262E+02  0.12700000000E+01 0. -1.
          4   -1    0    0  502    0  0.00000000000E+00 -0.00000000000E+00 -0.34479728552E+03  0.34479962442E+03  0.12700000000E+01 0. -1.
         25    2    1    2    0    0  0.39527427739E+02 -0.21661522210E+02 -0.25132692965E+03  0.28430085490E+03  0.12502044410E+03 0.  0.
    9000005    1    3    3    0    0 -0.36457840478E+02  0.12246514701E+02 -0.33118379207E+02  0.50763946812E+02  0.10000000000E+01 0.  0.
    9000005    1    3    3    0    0  0.75985268217E+02 -0.33908036912E+02 -0.21820855045E+03  0.23353690809E+03  0.10000000000E+01 0.  0.
         21    1    1    2  502  501 -0.39527427739E+02  0.21661522210E+02 -0.70405975311E+02  0.83598088780E+02  0.00000000000E+00 0. -1.
<mgrwt>
<rscale>  1 0.13289752E+03</rscale>
<asrwt>0</asrwt>
<pdfrwt beam="2">  1        4 0.53048600E-01 0.13289752E+03</pdfrwt>
<pdfrwt beam="1">  1       -4 0.35512340E-02 0.13289752E+03</pdfrwt>
<totfact> 0.23213107E+03</totfact>
</mgrwt>
</event>
<event>
 6    4  0.5642870E-004  0.1273489E+03  0.7818608E-02  0.1231443E+00
         -4   -1    0    0    0  501 -0.00000000000E+00  0.00000000000E+00  0.13759086155E+03  0.13759672264E+03  0.12700000000E+01 0.  1.
          4   -1    0    0  502    0  0.00000000000E+00 -0.00000000000E+00 -0.42266913279E+02  0.42285988910E+02  0.12700000000E+01 0.  1.
         25    2    1    2    0    0  0.21288008781E+02  0.11817369160E+02  0.86664866570E+02  0.15404070645E+03  0.12499964246E+03 0.  0.
    9000005    1    3    3    0    0  0.73658494575E+02  0.62578812817E+01  0.58719900705E+02  0.94412719694E+02  0.10000000000E+01 0.  0.
    9000005    1    3    3    0    0 -0.52370485794E+02  0.55594878785E+01  0.27944965865E+02  0.59627986759E+02  0.10000000000E+01 0.  0.
         21    1    1    2  502  501 -0.21288008781E+02 -0.11817369160E+02  0.86590817029E+01  0.25842005101E+02  0.00000000000E+00 0.  1.
<mgrwt>
<rscale>  1 0.12734889E+03</rscale>
<asrwt>0</asrwt>
<pdfrwt beam="2">  1        4 0.65045203E-02 0.12734889E+03</pdfrwt>
<pdfrwt beam="1">  1       -4 0.21169743E-01 0.12734889E+03</pdfrwt>
<totfact> 0.50873524E+03</totfact>
</mgrwt>
</event>
<event>
 6    4  0.5642870E-004  0.1297798E+03  0.7818608E-02  0.1227783E+00
         -4   -1    0    0    0  501 -0.00000000000E+00  0.00000000000E+00  0.38727642613E+03  0.38727850849E+03  0.12700000000E+01 0. -1.
          4   -1    0    0  502    0  0.00000000000E+00 -0.00000000000E+00 -0.18322840948E+02  0.18366801584E+02  0.12700000000E+01 0. -1.
         25    2    1    2    0    0  0.33413005423E+02 -0.10084047404E+02  0.32176890022E+03  0.34695534979E+03  0.12499869060E+03 0.  0.
    9000005    1    3    3    0    0  0.47955894600E+02  0.16845881710E+02  0.43216876176E+02  0.66725182232E+02  0.10000000000E+01 0.  0.
    9000005    1    3    3    0    0 -0.14542889177E+02 -0.26929929113E+02  0.27855202405E+03  0.28023016756E+03  0.10000000000E+01 0.  0.
         21    1    1    2  502  501 -0.33413005423E+02  0.10084047404E+02  0.47184684962E+02  0.58689960286E+02  0.00000000000E+00 0. -1.
<mgrwt>
<rscale>  1 0.12977977E+03</rscale>
<asrwt>0</asrwt>
<pdfrwt beam="2">  1        4 0.28224405E-02 0.12977977E+03</pdfrwt>
<pdfrwt beam="1">  1       -4 0.59584528E-01 0.12977977E+03</pdfrwt>
<totfact> 0.26010120E+03</totfact>
</mgrwt>
</event>
<event>
 6    4  0.5642870E-004  0.1383916E+03  0.7818608E-02  0.1215510E+00
         -4   -1    0    0    0  501 -0.00000000000E+00  0.00000000000E+00  0.36055892641E+02  0.36078252371E+02  0.12700000000E+01 0. -1.
          4   -1    0    0  502    0  0.00000000000E+00 -0.00000000000E+00 -0.40132572982E+03  0.40132773928E+03  0.12700000000E+01 0. -1.
         25    2    1    2    0    0 -0.59345914733E+02  0.19558872147E+01 -0.34959975290E+03  0.37599496144E+03  0.12500584269E+03 0.  0.
    9000005    1    3    3    0    0 -0.31984377836E+02  0.59919471239E+02 -0.23571383978E+03  0.24530666058E+03  0.10000000000E+01 0.  0.
    9000005    1    3    3    0    0 -0.27361536897E+02 -0.57963584024E+02 -0.11388591312E+03  0.13068830086E+03  0.10000000000E+01 0.  0.
         21    1    1    2  502  501  0.59345914733E+02 -0.19558872147E+01 -0.15670084273E+02  0.61411030210E+02  0.00000000000E+00 0. -1.
<mgrwt>
<rscale>  1 0.13839156E+03</rscale>
<asrwt>0</asrwt>
<pdfrwt beam="2">  1        4 0.61744291E-01 0.13839156E+03</pdfrwt>
<pdfrwt beam="1">  1       -4 0.55489352E-02 0.13839156E+03</pdfrwt>
<totfact> 0.83660338E+02</totfact>
</mgrwt>
</event>
<event>
 6    4  0.5642870E-004  0.1316705E+03  0.7818608E-02  0.1224998E+00
         -4   -1    0    0    0  501 -0.00000000000E+00  0.00000000000E+00  0.67876977944E+02  0.67888857958E+02  0.12700000000E+01 0. -1.
          4   -1    0    0  502    0  0.00000000000E+00 -0.00000000000E+00 -0.11675440834E+03  0.11676131536E+03  0.12700000000E+01 0. -1.
         25    2    1    2    0    0  0.28309217381E+02  0.30175269947E+02 -0.17725429864E+02  0.13285822567E+03  0.12500063423E+03 0.  0.
    9000005    1    3    3    0    0  0.53909154072E+02 -0.31909580772E+02  0.25390212363E+01  0.62704584096E+02  0.10000000000E+01 0.  0.
    9000005    1    3    3    0    0 -0.25599936690E+02  0.62084850719E+02 -0.20264451101E+02  0.70153641571E+02  0.10000000000E+01 0.  0.
         21    1    1    2  502  501 -0.28309217381E+02 -0.30175269947E+02 -0.31152000527E+02  0.51791947655E+02  0.00000000000E+00 0.  1.
<mgrwt>
<rscale>  1 0.13167049E+03</rscale>
<asrwt>0</asrwt>
<pdfrwt beam="2">  1        4 0.17963662E-01 0.13167049E+03</pdfrwt>
<pdfrwt beam="1">  1       -4 0.10444057E-01 0.13167049E+03</pdfrwt>
<totfact> 0.31380382E+03</totfact>
</mgrwt>
</event>
<event>
 6    4  0.5642870E-004  0.1275170E+03  0.7818608E-02  0.1231187E+00
          4   -1    0    0  502    0  0.00000000000E+00  0.00000000000E+00  0.29114255161E+03  0.29114532155E+03  0.12700000000E+01 0.  1.
         -4   -1    0    0    0  501 -0.00000000000E+00 -0.00000000000E+00 -0.12040899293E+03  0.12041569034E+03  0.12700000000E+01 0.  1.
         25    2    1    2    0    0 -0.24946035715E+02  0.36471819387E+01 -0.85862001548E+02  0.15372988855E+03  0.12499995475E+03 0.  0.
    9000005    1    3    3    0    0  0.36873782806E+02 -0.42280190420E+01 -0.83471441991E+02  0.91356628831E+02  0.10000000000E+01 0.  0.
    9000005    1    3    3    0    0 -0.61819818521E+02  0.78752009807E+01 -0.23905595570E+01  0.62373259715E+02  0.10000000000E+01 0.  0.
         21    1    1    2  502  501  0.24946035715E+02 -0.36471819387E+01  0.25659556022E+03  0.25783112334E+03  0.00000000000E+00 0.  1.
<mgrwt>
<rscale>  1 0.12751704E+03</rscale>
<asrwt>0</asrwt>
<pdfrwt beam="1">  1        4 0.44791890E-01 0.12751704E+03</pdfrwt>
<pdfrwt beam="2">  1       -4 0.18525189E-01 0.12751704E+03</pdfrwt>
<totfact> 0.20742026E+02</totfact>
</mgrwt>
</event>
<event>
 6    4  0.5642870E-004  0.1291662E+03  0.7818608E-02  0.1228698E+00
          4   -1    0    0  502    0  0.00000000000E+00  0.00000000000E+00  0.12270435662E+03  0.12271092874E+03  0.12700000000E+01 0. -1.
         -4   -1    0    0    0  501 -0.00000000000E+00 -0.00000000000E+00 -0.53482926898E+02  0.53498003416E+02  0.12700000000E+01 0. -1.
         25    2    1    2    0    0 -0.32518347780E+02  0.14176306860E+01  0.50709217351E+02  0.13876357696E+03  0.12499781177E+03 0.  0.
    9000005    1    3    3    0    0  0.26568709103E+02  0.20308731192E+02 -0.24352332714E+02  0.41380876920E+02  0.10000000000E+01 0.  0.
    9000005    1    3    3    0    0 -0.59087056883E+02 -0.18891100506E+02  0.75061550065E+02  0.97382700042E+02  0.10000000000E+01 0.  0.
         21    1    1    2  502  501  0.32518347780E+02 -0.14176306860E+01  0.18512212371E+02  0.37445355199E+02  0.00000000000E+00 0. -1.
<mgrwt>
<rscale>  1 0.12916619E+03</rscale>
<asrwt>0</asrwt>
<pdfrwt beam="1">  1        4 0.18879258E-01 0.12916619E+03</pdfrwt>
<pdfrwt beam="2">  1       -4 0.82298080E-02 0.12916619E+03</pdfrwt>
<totfact> 0.42594799E+03</totfact>
</mgrwt>
</event>
<event>
 6    4  0.5642870E-004  0.1266798E+03  0.7818608E-02  0.1232467E+00
          4   -1    0    0  502    0  0.00000000000E+00  0.00000000000E+00  0.30844354108E+03  0.30844615565E+03  0.12700000000E+01 0. -1.
         -4   -1    0    0    0  501 -0.00000000000E+00 -0.00000000000E+00 -0.53342885038E+02  0.53358001126E+02  0.12700000000E+01 0. -1.
         25    2    1    2    0    0 -0.11920697288E+02 -0.16755802339E+02  0.22946705183E+02  0.12874125360E+03  0.12499959666E+03 0.  0.
    9000005    1    3    3    0    0 -0.21516262960E+02 -0.37554294306E+02 -0.41724291734E+02  0.60126459344E+02  0.10000000000E+01 0.  0.
    9000005    1    3    3    0    0  0.95955656725E+01  0.20798491967E+02  0.64670996916E+02  0.68614794256E+02  0.10000000000E+01 0.  0.
         21    1    1    2  502  501  0.11920697288E+02  0.16755802339E+02  0.23215395086E+03  0.23306290318E+03  0.00000000000E+00 0.  1.
<mgrwt>
<rscale>  1 0.12667975E+03</rscale>
<asrwt>0</asrwt>
<pdfrwt beam="1">  1        4 0.47454215E-01 0.12667975E+03</pdfrwt>
<pdfrwt beam="2">  1       -4 0.82079618E-02 0.12667975E+03</pdfrwt>
<totfact> 0.74490353E+02</totfact>
</mgrwt>
</event>
<event>
 6    4  0.5642870E-004  0.1268421E+03  0.7818608E-02  0.1232218E+00
         -4   -1    0    0    0  501 -0.00000000000E+00  0.00000000000E+00  0.93985825731E+03  0.93985911536E+03  0.12700000000E+01 0.  1.
          4   -1    0    0  502    0  0.00000000000E+00 -0.00000000000E+00 -0.58031156740E+01  0.59404588649E+01  0.12700000000E+01 0.  1.
         25    2    1    2    0    0  0.19372487157E+02  0.94025570430E+01  0.81529927056E+03  0.82510716248E+03  0.12500091068E+03 0.  0.
    9000005    1    3    3    0    0  0.55877651687E+02  0.34032227535E+02  0.26162189835E+03  0.26968040746E+03  0.10000000000E+01 0.  0.
    9000005    1    3    3    0    0 -0.36505164529E+02 -0.24629670492E+02  0.55367737221E+03  0.55542675503E+03  0.10000000000E+01 0.  0.
         21    1    1    2  502  501 -0.19372487157E+02 -0.94025570430E+01  0.11875587108E+03  0.12069241175E+03  0.00000000000E+00 0.  1.
<mgrwt>
<rscale>  1 0.12684214E+03</rscale>
<asrwt>0</asrwt>
<pdfrwt beam="2">  1        4 0.90341822E-03 0.12684214E+03</pdfrwt>
<pdfrwt beam="1">  1       -4 0.14460416E+00 0.12684214E+03</pdfrwt>
<totfact> 0.19484025E+03</totfact>
</mgrwt>
</event>
<event>
 6    4  0.5642870E-004  0.1321384E+03  0.7818608E-02  0.1224317E+00
          4   -1    0    0  502    0  0.00000000000E+00  0.00000000000E+00  0.87769304620E+02  0.87778492431E+02  0.12700000000E+01 0.  1.
         -4   -1    0    0    0  501 -0.00000000000E+00 -0.00000000000E+00 -0.19922600871E+03  0.19923005658E+03  0.12700000000E+01 0.  1.
         25    2    1    2    0    0  0.36203899056E+02  0.22881554277E+02 -0.16947117956E+03  0.21489775095E+03  0.12500509922E+03 0.  0.
    9000005    1    3    3    0    0  0.11485645105E+02 -0.29028624410E+02 -0.15144883630E+03  0.15463612480E+03  0.10000000000E+01 0.  0.
    9000005    1    3    3    0    0  0.24718253951E+02  0.51910178687E+02 -0.18022343261E+02  0.60261626150E+02  0.10000000000E+01 0.  0.
         21    1    1    2  502  501 -0.36203899056E+02 -0.22881554277E+02  0.58014475469E+02  0.72110798061E+02  0.00000000000E+00 0.  1.
<mgrwt>
<rscale>  1 0.13213842E+03</rscale>
<asrwt>0</asrwt>
<pdfrwt beam="1">  1        4 0.13503988E-01 0.13213842E+03</pdfrwt>
<pdfrwt beam="2">  1       -4 0.30651173E-01 0.13213842E+03</pdfrwt>
<totfact> 0.76055085E+02</totfact>
</mgrwt>
</event>
<event>
 6    4  0.5642870E-004  0.1273035E+03  0.7818608E-02  0.1231513E+00
          4   -1    0    0  502    0  0.00000000000E+00  0.00000000000E+00  0.33353630190E+03  0.33353871977E+03  0.12700000000E+01 0.  1.
         -4   -1    0    0    0  501 -0.00000000000E+00 -0.00000000000E+00 -0.17260111141E+02  0.17306771409E+02  0.12700000000E+01 0.  1.
         25    2    1    2    0    0  0.26685915201E+01  0.23976247827E+02  0.25555358778E+03  0.28550625065E+03  0.12499680433E+03 0.  0.
    9000005    1    3    3    0    0  0.53648585701E+01  0.74999433837E+02  0.13422047585E+03  0.15385003387E+03  0.10000000000E+01 0.  0.
    9000005    1    3    3    0    0 -0.26962670500E+01 -0.51023186011E+02  0.12133311193E+03  0.13165621678E+03  0.10000000000E+01 0.  0.
         21    1    1    2  502  501 -0.26685915201E+01 -0.23976247827E+02  0.60722602979E+02  0.65339240531E+02  0.00000000000E+00 0. -1.
<mgrwt>
<rscale>  1 0.12730351E+03</rscale>
<asrwt>0</asrwt>
<pdfrwt beam="1">  1        4 0.51317054E-01 0.12730351E+03</pdfrwt>
<pdfrwt beam="2">  1       -4 0.26591769E-02 0.12730351E+03</pdfrwt>
<totfact> 0.38694325E+03</totfact>
</mgrwt>
</event>
<event>
 6    4  0.5642870E-004  0.1274525E+03  0.7818608E-02  0.1231285E+00
         -4   -1    0    0    0  501 -0.00000000000E+00  0.00000000000E+00  0.85633949082E+02  0.85643365974E+02  0.12700000000E+01 0. -1.
          4   -1    0    0  502    0  0.00000000000E+00 -0.00000000000E+00 -0.87804502089E+02  0.87813686217E+02  0.12700000000E+01 0. -1.
         25    2    1    2    0    0  0.20516590887E+02 -0.14047474128E+02  0.31799128017E+02  0.13135953136E+03  0.12500351958E+03 0.  0.
    9000005    1    3    3    0    0  0.30356041674E+02  0.52118630943E+02  0.11154301820E+02  0.61345410640E+02  0.10000000000E+01 0.  0.
    9000005    1    3    3    0    0 -0.98394507865E+01 -0.66166105071E+02  0.20644826197E+02  0.70014120724E+02  0.10000000000E+01 0.  0.
         21    1    1    2  502  501 -0.20516590887E+02  0.14047474128E+02 -0.33969681024E+02  0.42097520828E+02  0.00000000000E+00 0. -1.
<mgrwt>
<rscale>  1 0.12745251E+03</rscale>
<asrwt>0</asrwt>
<pdfrwt beam="2">  1        4 0.13509816E-01 0.12745251E+03</pdfrwt>
<pdfrwt beam="1">  1       -4 0.13175885E-01 0.12745251E+03</pdfrwt>
<totfact> 0.34497728E+03</totfact>
</mgrwt>
</event>
<event>
 6    4  0.5642870E-004  0.1293609E+03  0.7818608E-02  0.1228407E+00
          4   -1    0    0  502    0  0.00000000000E+00  0.00000000000E+00  0.55017510479E+01  0.56464293667E+01  0.12700000000E+01 0. -1.
         -4   -1    0    0    0  501 -0.00000000000E+00 -0.00000000000E+00 -0.12181845231E+04  0.12181851851E+04  0.12700000000E+01 0. -1.
         25    2    1    2    0    0  0.23296619172E+02  0.23823192425E+02 -0.10348578016E+04  0.10429117507E+04  0.12499589364E+03 0.  0.
    9000005    1    3    3    0    0  0.67660323812E+02  0.10004346946E+02 -0.83157441667E+03  0.83438301567E+03  0.10000000000E+01 0.  0.
    9000005    1    3    3    0    0 -0.44363704639E+02  0.13818845480E+02 -0.20328338489E+03  0.20852873507E+03  0.10000000000E+01 0.  0.
         21    1    1    2  502  501 -0.23296619172E+02 -0.23823192425E+02 -0.17782497045E+03  0.18091986369E+03  0.00000000000E+00 0.  1.
<mgrwt>
<rscale>  1 0.12936093E+03</rscale>
<asrwt>0</asrwt>
<pdfrwt beam="1">  1        4 0.85760423E-03 0.12936093E+03</pdfrwt>
<pdfrwt beam="2">  1       -4 0.18742397E+00 0.12936093E+03</pdfrwt>
<totfact> 0.10694431E+03</totfact>
</mgrwt>
</event>
<event>
 6    4  0.5642870E-004  0.1507566E+03  0.7818608E-02  0.1199546E+00
         -4   -1    0    0    0  501 -0.00000000000E+00  0.00000000000E+00  0.19379833518E+03  0.19380249642E+03  0.12700000000E+01 0.  1.
          4   -1    0    0  502    0  0.00000000000E+00 -0.00000000000E+00 -0.89032070819E+02  0.89041128330E+02  0.12700000000E+01 0.  1.
         25    2    1    2    0    0 -0.84060101985E+02 -0.60315084487E+01  0.12538246857E+03  0.19608241385E+03  0.12500027903E+03 0.  0.
    9000005    1    3    3    0    0 -0.82113698282E+02 -0.56377591200E+02  0.92307447696E+02  0.13580411310E+03  0.10000000000E+01 0.  0.
    9000005    1    3    3    0    0 -0.19464037031E+01  0.50346082751E+02  0.33075020877E+02  0.60278300753E+02  0.10000000000E+01 0.  0.
         21    1    1    2  502  501  0.84060101985E+02  0.60315084487E+01 -0.20616204212E+02  0.86761210895E+02  0.00000000000E+00 0.  1.
<mgrwt>
<rscale>  1 0.15075659E+03</rscale>
<asrwt>0</asrwt>
<pdfrwt beam="2">  1        4 0.13698259E-01 0.15075659E+03</pdfrwt>
<pdfrwt beam="1">  1       -4 0.29816145E-01 0.15075659E+03</pdfrwt>
<totfact> 0.80264670E+02</totfact>
</mgrwt>
</event>
<event>
 6    4  0.5642870E-004  0.1294970E+03  0.7818608E-02  0.1228204E+00
          4   -1    0    0  502    0  0.00000000000E+00  0.00000000000E+00  0.19651045618E+03  0.19651455999E+03  0.12700000000E+01 0. -1.
         -4   -1    0    0    0  501 -0.00000000000E+00 -0.00000000000E+00 -0.53388472918E+02  0.53403576102E+02  0.12700000000E+01 0. -1.
         25    2    1    2    0    0  0.21446965499E+01  0.33764367797E+02  0.31488284253E+02  0.13327031138E+03  0.12499932637E+03 0.  0.
    9000005    1    3    3    0    0 -0.58107542821E+02 -0.41715157731E+01  0.12891706963E+02  0.59674820359E+02  0.10000000000E+01 0.  0.
    9000005    1    3    3    0    0  0.60252239371E+02  0.37935883570E+02  0.18596577291E+02  0.73595491019E+02  0.10000000000E+01 0.  0.
         21    1    1    2  502  501 -0.21446965499E+01 -0.33764367797E+02  0.11163369901E+03  0.11664782471E+03  0.00000000000E+00 0. -1.
<mgrwt>
<rscale>  1 0.12949696E+03</rscale>
<asrwt>0</asrwt>
<pdfrwt beam="1">  1        4 0.30233855E-01 0.12949696E+03</pdfrwt>
<pdfrwt beam="2">  1       -4 0.82150888E-02 0.12949696E+03</pdfrwt>
<totfact> 0.18011096E+03</totfact>
</mgrwt>
</event>
<event>
 6    4  0.5642870E-004  0.1279998E+03  0.7818608E-02  0.1230454E+00
          4   -1    0    0  502    0  0.00000000000E+00  0.00000000000E+00  0.23713948646E+02  0.23747931707E+02  0.12700000000E+01 0.  1.
         -4   -1    0    0    0  501 -0.00000000000E+00 -0.00000000000E+00 -0.56952260857E+03  0.56952402458E+03  0.12700000000E+01 0.  1.
         25    2    1    2    0    0  0.11917881450E+01  0.27625036448E+02 -0.55053587173E+03  0.56522004853E+03  0.12497757476E+03 0.  0.
    9000005    1    3    3    0    0 -0.45127965074E+02  0.43452893413E+02 -0.43849970822E+03  0.44295336243E+03  0.10000000000E+01 0.  0.
    9000005    1    3    3    0    0  0.46319753219E+02 -0.15827856965E+02 -0.11203616352E+03  0.12226668610E+03  0.10000000000E+01 0.  0.
         21    1    1    2  502  501 -0.11917881450E+01 -0.27625036448E+02  0.47272118053E+01  0.28051907764E+02  0.00000000000E+00 0.  1.
<mgrwt>
<rscale>  1 0.12799983E+03</rscale>
<asrwt>0</asrwt>
<pdfrwt beam="1">  1        4 0.36510232E-02 0.12799983E+03</pdfrwt>
<pdfrwt beam="2">  1       -4 0.87621576E-01 0.12799983E+03</pdfrwt>
<totfact> 0.75016934E+02</totfact>
</mgrwt>
</event>
<event>
 6    4  0.5642870E-004  0.1307643E+03  0.7818608E-02  0.1226326E+00
         -4   -1    0    0    0  501 -0.00000000000E+00  0.00000000000E+00  0.22519490592E+03  0.22519848701E+03  0.12700000000E+01 0. -1.
          4   -1    0    0  502    0  0.00000000000E+00 -0.00000000000E+00 -0.32076557861E+02  0.32101689429E+02  0.12700000000E+01 0. -1.
         25    2    1    2    0    0  0.31560026366E+02  0.21923090592E+02  0.15942716253E+03  0.20619486216E+03  0.12499057510E+03 0.  0.
    9000005    1    3    3    0    0  0.56501257743E+02 -0.35745686737E+02  0.95234355496E+02  0.11636463687E+03  0.10000000000E+01 0.  0.
    9000005    1    3    3    0    0 -0.24941231378E+02  0.57668777329E+02  0.64192807031E+02  0.89830225291E+02  0.10000000000E+01 0.  0.
         21    1    1    2  502  501 -0.31560026366E+02 -0.21923090592E+02  0.33691185533E+02  0.51105314283E+02  0.00000000000E+00 0. -1.
<mgrwt>
<rscale>  1 0.13076430E+03</rscale>
<asrwt>0</asrwt>
<pdfrwt beam="2">  1        4 0.49370637E-02 0.13076430E+03</pdfrwt>
<pdfrwt beam="1">  1       -4 0.34647579E-01 0.13076430E+03</pdfrwt>
<totfact> 0.31931704E+03</totfact>
</mgrwt>
</event>
<event>
 6    4  0.5642870E-004  0.1304555E+03  0.7818608E-02  0.1226781E+00
         -4   -1    0    0    0  501 -0.00000000000E+00  0.00000000000E+00  0.10874557366E+02  0.10948465550E+02  0.12700000000E+01 0.  1.
          4   -1    0    0  502    0  0.00000000000E+00 -0.00000000000E+00 -0.69520863736E+03  0.69520979737E+03  0.12700000000E+01 0.  1.
         25    2    1    2    0    0  0.30841759925E+02  0.21025812873E+02 -0.43809065796E+03  0.45710179973E+03  0.12500132704E+03 0.  0.
    9000005    1    3    3    0    0 -0.69576976233E+01 -0.81724358755E+01 -0.38701721744E+03  0.38716730861E+03  0.10000000000E+01 0.  0.
    9000005    1    3    3    0    0  0.37799457548E+02  0.29198248749E+02 -0.51073440517E+02  0.69934491112E+02  0.10000000000E+01 0.  0.
         21    1    1    2  502  501 -0.30841759925E+02 -0.21025812873E+02 -0.24624342204E+03  0.24905646320E+03  0.00000000000E+00 0.  1.
<mgrwt>
<rscale>  1 0.13045547E+03</rscale>
<asrwt>0</asrwt>
<pdfrwt beam="2">  1        4 0.10696092E+00 0.13045547E+03</pdfrwt>
<pdfrwt beam="1">  1       -4 0.16787838E-02 0.13045547E+03</pdfrwt>
<totfact> 0.15929213E+03</totfact>
</mgrwt>
</event>
<event>
 6    4  0.5642870E-004  0.1283495E+03  0.7818608E-02  0.1229925E+00
          4   -1    0    0  502    0  0.00000000000E+00  0.00000000000E+00  0.10021748689E+02  0.10101898177E+02  0.12700000000E+01 0. -1.
         -4   -1    0    0    0  501 -0.00000000000E+00 -0.00000000000E+00 -0.70490609091E+03  0.70490723496E+03  0.12700000000E+01 0. -1.
         25    2    1    2    0    0  0.28820982393E+02  0.42216884858E+01 -0.64131510957E+03  0.65403262646E+03  0.12500054013E+03 0.  0.
    9000005    1    3    3    0    0 -0.40614992693E+02 -0.13175904702E+02 -0.11145680390E+03  0.11935996494E+03  0.10000000000E+01 0.  0.
    9000005    1    3    3    0    0  0.69435975086E+02  0.17397593188E+02 -0.52985830567E+03  0.53467266152E+03  0.10000000000E+01 0.  0.
         21    1    1    2  502  501 -0.28820982393E+02 -0.42216884858E+01 -0.53569232651E+02  0.60976506678E+02  0.00000000000E+00 0. -1.
<mgrwt>
<rscale>  1 0.12834955E+03</rscale>
<asrwt>0</asrwt>
<pdfrwt beam="1">  1        4 0.15480614E-02 0.12834955E+03</pdfrwt>
<pdfrwt beam="2">  1       -4 0.10845331E+00 0.12834955E+03</pdfrwt>
<totfact> 0.17388131E+03</totfact>
</mgrwt>
</event>
<event>
 6    4  0.5642870E-004  0.1271995E+03  0.7818608E-02  0.1231671E+00
          4   -1    0    0  502    0  0.00000000000E+00  0.00000000000E+00  0.88231798807E+02  0.88240938463E+02  0.12700000000E+01 0. -1.
         -4   -1    0    0    0  501 -0.00000000000E+00 -0.00000000000E+00 -0.66892682390E+02  0.66904737182E+02  0.12700000000E+01 0. -1.
         25    2    1    2    0    0  0.23531420678E+02 -0.11810492784E+01  0.66342735963E+01  0.12737239642E+03  0.12499836458E+03 0.  0.
    9000005    1    3    3    0    0 -0.12071552635E+02  0.33935927595E+02  0.49687246463E+02  0.61377455355E+02  0.10000000000E+01 0.  0.
    9000005    1    3    3    0    0  0.35602973313E+02 -0.35116976873E+02 -0.43052972867E+02  0.65994941065E+02  0.10000000000E+01 0.  0.
         21    1    1    2  502  501 -0.23531420678E+02  0.11810492784E+01  0.14704842821E+02  0.27773279225E+02  0.00000000000E+00 0.  1.
<mgrwt>
<rscale>  1 0.12719950E+03</rscale>
<asrwt>0</asrwt>
<pdfrwt beam="1">  1        4 0.13575753E-01 0.12719950E+03</pdfrwt>
<pdfrwt beam="2">  1       -4 0.10292812E-01 0.12719950E+03</pdfrwt>
<totfact> 0.52079705E+03</totfact>
</mgrwt>
</event>
<event>
 6    4  0.5642870E-004  0.1266246E+03  0.7818608E-02  0.1232552E+00
          4   -1    0    0  502    0  0.00000000000E+00  0.00000000000E+00  0.53255446874E+02  0.53270587773E+02  0.12700000000E+01 0. -1.
         -4   -1    0    0    0  501 -0.00000000000E+00 -0.00000000000E+00 -0.22418725898E+03  0.22419085616E+03  0.12700000000E+01 0. -1.
         25    2    1    2    0    0  0.10010627075E+02  0.17568837019E+02 -0.20317449325E+03  0.23940271069E+03  0.12499962595E+03 0.  0.
    9000005    1    3    3    0    0  0.52459207409E+02 -0.15058910622E+02 -0.40020587291E+02  0.67685941215E+02  0.10000000000E+01 0.  0.
    9000005    1    3    3    0    0 -0.42448580334E+02  0.32627747641E+02 -0.16315390596E+03  0.17171676948E+03  0.10000000000E+01 0.  0.
         21    1    1    2  502  501 -0.10010627075E+02 -0.17568837019E+02  0.32242681149E+02  0.38058733247E+02  0.00000000000E+00 0. -1.
<mgrwt>
<rscale>  1 0.12662458E+03</rscale>
<asrwt>0</asrwt>
<pdfrwt beam="1">  1        4 0.81945872E-02 0.12662458E+03</pdfrwt>
<pdfrwt beam="2">  1       -4 0.34491788E-01 0.12662458E+03</pdfrwt>
<totfact> 0.13996932E+03</totfact>
</mgrwt>
</event>
<event>
 6    4  0.5642870E-004  0.1313196E+03  0.7818608E-02  0.1225511E+00
          4   -1    0    0  502    0  0.00000000000E+00  0.00000000000E+00  0.48295239415E+03  0.48295406398E+03  0.12700000000E+01 0. -1.
         -4   -1    0    0    0  501 -0.00000000000E+00 -0.00000000000E+00 -0.45568036829E+02  0.45585731106E+02  0.12700000000E+01 0. -1.
         25    2    1    2    0    0  0.27323293245E+02 -0.29549533998E+02  0.52288786610E+02  0.14134690273E+03  0.12500036957E+03 0.  0.
    9000005    1    3    3    0    0  0.55910475646E+02  0.22946561510E+02 -0.21620549246E+01  0.60483059228E+02  0.10000000000E+01 0.  0.
    9000005    1    3    3    0    0 -0.28587182402E+02 -0.52496095508E+02  0.54450841534E+02  0.80863843497E+02  0.10000000000E+01 0.  0.
         21    1    1    2  502  501 -0.27323293245E+02  0.29549533998E+02  0.38509557071E+03  0.38719289236E+03  0.00000000000E+00 0. -1.
<mgrwt>
<rscale>  1 0.13131957E+03</rscale>
<asrwt>0</asrwt>
<pdfrwt beam="1">  1        4 0.74301857E-01 0.13131957E+03</pdfrwt>
<pdfrwt beam="2">  1       -4 0.70119568E-02 0.13131957E+03</pdfrwt>
<totfact> 0.38023224E+02</totfact>
</mgrwt>
</event>
<event>
 6    4  0.5642870E-004  0.1341810E+03  0.7818608E-02  0.1221381E+00
         -4   -1    0    0    0  501 -0.00000000000E+00  0.00000000000E+00  0.10112397321E+03  0.10113194776E+03  0.12700000000E+01 0. -1.
          4   -1    0    0  502    0  0.00000000000E+00 -0.00000000000E+00 -0.12984676941E+03  0.12985298005E+03  0.12700000000E+01 0. -1.
         25    2    1    2    0    0  0.48759223354E+02  0.15370410801E+01  0.45914406010E+02  0.14181914786E+03  0.12499885465E+03 0.  0.
    9000005    1    3    3    0    0 -0.32673690909E+02 -0.32327697744E+02  0.16425925772E+02  0.48820704179E+02  0.10000000000E+01 0.  0.
    9000005    1    3    3    0    0  0.81432914263E+02  0.33864738824E+02  0.29488480238E+02  0.92998443684E+02  0.10000000000E+01 0.  0.
         21    1    1    2  502  501 -0.48759223354E+02 -0.15370410801E+01 -0.74637202217E+02  0.89165779939E+02  0.00000000000E+00 0. -1.
<mgrwt>
<rscale>  1 0.13418099E+03</rscale>
<asrwt>0</asrwt>
<pdfrwt beam="2">  1        4 0.19977517E-01 0.13418099E+03</pdfrwt>
<pdfrwt beam="1">  1       -4 0.15558626E-01 0.13418099E+03</pdfrwt>
<totfact> 0.13132847E+03</totfact>
</mgrwt>
</event>
<event>
 6    4  0.5642870E-004  0.1348047E+03  0.7818608E-02  0.1220496E+00
         -4   -1    0    0    0  501 -0.00000000000E+00  0.00000000000E+00  0.40620695594E+03  0.40620894125E+03  0.12700000000E+01 0. -1.
          4   -1    0    0  502    0  0.00000000000E+00 -0.00000000000E+00 -0.21334109263E+02  0.21371876802E+02  0.12700000000E+01 0. -1.
         25    2    1    2    0    0 -0.30197332079E+02 -0.40445228657E+02  0.29876964485E+03  0.32777372035E+03  0.12499846274E+03 0.  0.
    9000005    1    3    3    0    0  0.13963430720E+01 -0.78220776673E+02  0.23174856884E+03  0.24459934349E+03  0.10000000000E+01 0.  0.
    9000005    1    3    3    0    0 -0.31593675151E+02  0.37775548016E+02  0.67021076008E+02  0.83174376865E+02  0.10000000000E+01 0.  0.
         21    1    1    2  502  501  0.30197332079E+02  0.40445228657E+02  0.86103201828E+02  0.99807097698E+02  0.00000000000E+00 0. -1.
<mgrwt>
<rscale>  1 0.13480471E+03</rscale>
<asrwt>0</asrwt>
<pdfrwt beam="2">  1        4 0.32852287E-02 0.13480471E+03</pdfrwt>
<pdfrwt beam="1">  1       -4 0.62496433E-01 0.13480471E+03</pdfrwt>
<totfact> 0.18706182E+03</totfact>
</mgrwt>
</event>
<event>
 6    4  0.5642870E-004  0.1292577E+03  0.7818608E-02  0.1228561E+00
          4   -1    0    0  502    0  0.00000000000E+00  0.00000000000E+00  0.15631634091E+02  0.15683140131E+02  0.12700000000E+01 0. -1.
         -4   -1    0    0    0  501 -0.00000000000E+00 -0.00000000000E+00 -0.42268060261E+03  0.42268251055E+03  0.12700000000E+01 0. -1.
         25    2    1    2    0    0  0.24452896751E+02 -0.21978211091E+02 -0.33851054854E+03  0.36234919893E+03  0.12500625814E+03 0.  0.
    9000005    1    3    3    0    0  0.10738619948E+02 -0.66505200718E+02 -0.27758418982E+03  0.28564355781E+03  0.10000000000E+01 0.  0.
    9000005    1    3    3    0    0  0.13714276803E+02  0.44526989627E+02 -0.60926358716E+02  0.76705641121E+02  0.10000000000E+01 0.  0.
         21    1    1    2  502  501 -0.24452896751E+02  0.21978211091E+02 -0.68538419986E+02  0.76016451749E+02  0.00000000000E+00 0. -1.
<mgrwt>
<rscale>  1 0.12925769E+03</rscale>
<asrwt>0</asrwt>
<pdfrwt beam="1">  1        4 0.24089759E-02 0.12925769E+03</pdfrwt>
<pdfrwt beam="2">  1       -4 0.65031885E-01 0.12925769E+03</pdfrwt>
<totfact> 0.27638256E+03</totfact>
</mgrwt>
</event>
<event>
 6    4  0.5642870E-004  0.1276514E+03  0.7818608E-02  0.1230983E+00
         -4   -1    0    0    0  501 -0.00000000000E+00  0.00000000000E+00  0.45698190115E+02  0.45715834016E+02  0.12700000000E+01 0. -1.
          4   -1    0    0  502    0  0.00000000000E+00 -0.00000000000E+00 -0.13363590352E+03  0.13364193807E+03  0.12700000000E+01 0. -1.
         25    2    1    2    0    0 -0.19140241667E+01 -0.25841195249E+02 -0.59348950463E+02  0.14077347181E+03  0.12499376619E+03 0.  0.
    9000005    1    3    3    0    0  0.98790212287E+01 -0.68987194449E+02 -0.42916598973E+01  0.69830125326E+02  0.10000000000E+01 0.  0.
    9000005    1    3    3    0    0 -0.11793045395E+02  0.43145999200E+02 -0.55057290565E+02  0.70943346489E+02  0.10000000000E+01 0.  0.
         21    1    1    2  502  501  0.19140241667E+01  0.25841195249E+02 -0.28588762945E+02  0.38584300267E+02  0.00000000000E+00 0.  1.
<mgrwt>
<rscale>  1 0.12765137E+03</rscale>
<asrwt>0</asrwt>
<pdfrwt beam="2">  1        4 0.20561191E-01 0.12765137E+03</pdfrwt>
<pdfrwt beam="1">  1       -4 0.70323123E-02 0.12765137E+03</pdfrwt>
<totfact> 0.47227480E+03</totfact>
</mgrwt>
</event>
<event>
 6    4  0.5642870E-004  0.1279803E+03  0.7818608E-02  0.1230484E+00
          4   -1    0    0  502    0  0.00000000000E+00  0.00000000000E+00  0.13533236182E+03  0.13533832072E+03  0.12700000000E+01 0.  1.
         -4   -1    0    0    0  501 -0.00000000000E+00 -0.00000000000E+00 -0.51512016374E+02  0.51527669567E+02  0.12700000000E+01 0.  1.
         25    2    1    2    0    0 -0.27384348951E+02  0.16141002845E+01  0.38071337480E+02  0.13352295309E+03  0.12500577738E+03 0.  0.
    9000005    1    3    3    0    0 -0.76094646488E+02  0.68919476237E+00  0.86347099644E+01  0.76592613415E+02  0.10000000000E+01 0.  0.
    9000005    1    3    3    0    0  0.48710297538E+02  0.92490552209E+00  0.29436627515E+02  0.56930339679E+02  0.10000000000E+01 0.  0.
         21    1    1    2  502  501  0.27384348951E+02 -0.16141002845E+01  0.45749007961E+02  0.53343037189E+02  0.00000000000E+00 0. -1.
<mgrwt>
<rscale>  1 0.12798028E+03</rscale>
<asrwt>0</asrwt>
<pdfrwt beam="1">  1        4 0.20822026E-01 0.12798028E+03</pdfrwt>
<pdfrwt beam="2">  1       -4 0.79265881E-02 0.12798028E+03</pdfrwt>
<totfact> 0.37930875E+03</totfact>
</mgrwt>
</event>
<event>
 6    4  0.5642870E-004  0.1284240E+03  0.7818608E-02  0.1229813E+00
         -4   -1    0    0    0  501 -0.00000000000E+00  0.00000000000E+00  0.12769275999E+02  0.12832276086E+02  0.12700000000E+01 0. -1.
          4   -1    0    0  502    0  0.00000000000E+00 -0.00000000000E+00 -0.52342388412E+03  0.52342542484E+03  0.12700000000E+01 0. -1.
         25    2    1    2    0    0  0.27400413631E+02 -0.10812339285E+02 -0.34762934661E+03  0.37059260129E+03  0.12500009662E+03 0.  0.
    9000005    1    3    3    0    0  0.48026662964E+02  0.33961461127E+02 -0.84987192911E+02  0.10336229562E+03  0.10000000000E+01 0.  0.
    9000005    1    3    3    0    0 -0.20626249333E+02 -0.44773800412E+02 -0.26264215370E+03  0.26723030566E+03  0.10000000000E+01 0.  0.
         21    1    1    2  502  501 -0.27400413631E+02  0.10812339285E+02 -0.16302526151E+03  0.16566509964E+03  0.00000000000E+00 0. -1.
<mgrwt>
<rscale>  1 0.12842396E+03</rscale>
<asrwt>0</asrwt>
<pdfrwt beam="2">  1        4 0.80531700E-01 0.12842396E+03</pdfrwt>
<pdfrwt beam="1">  1       -4 0.19694691E-02 0.12842396E+03</pdfrwt>
<totfact> 0.23691781E+03</totfact>
</mgrwt>
</event>
<event>
 6    4  0.5642870E-004  0.1279873E+03  0.7818608E-02  0.1230473E+00
         -4   -1    0    0    0  501 -0.00000000000E+00  0.00000000000E+00  0.32202402391E+02  0.32227435823E+02  0.12700000000E+01 0.  1.
          4   -1    0    0  502    0  0.00000000000E+00 -0.00000000000E+00 -0.20182822046E+03  0.20183221614E+03  0.12700000000E+01 0.  1.
         25    2    1    2    0    0 -0.22582147435E+02 -0.15896105320E+02 -0.11164970178E+03  0.16984228978E+03  0.12497242872E+03 0.  0.
    9000005    1    3    3    0    0 -0.48662488340E+02  0.38647060554E+00  0.52557783934E+01  0.48957229675E+02  0.10000000000E+01 0.  0.
    9000005    1    3    3    0    0  0.26080340905E+02 -0.16282575925E+02 -0.11690548018E+03  0.12088506010E+03  0.10000000000E+01 0.  0.
         21    1    1    2  502  501  0.22582147435E+02  0.15896105320E+02 -0.57976116286E+02  0.64217362191E+02  0.00000000000E+00 0.  1.
<mgrwt>
<rscale>  1 0.12798729E+03</rscale>
<asrwt>0</asrwt>
<pdfrwt beam="2">  1        4 0.31052728E-01 0.12798729E+03</pdfrwt>
<pdfrwt beam="1">  1       -4 0.49564489E-02 0.12798729E+03</pdfrwt>
<totfact> 0.38915189E+03</totfact>
</mgrwt>
</event>
<event>
 6    4  0.5642870E-004  0.1348661E+03  0.7818608E-02  0.1220409E+00
         -4   -1    0    0    0  501 -0.00000000000E+00  0.00000000000E+00  0.39183980761E+02  0.39204556474E+02  0.12700000000E+01 0.  1.
          4   -1    0    0  502    0  0.00000000000E+00 -0.00000000000E+00 -0.45437376400E+03  0.45437553886E+03  0.12700000000E+01 0.  1.
         25    2    1    2    0    0 -0.27000769094E+02 -0.42838562970E+02 -0.84752800090E+02  0.15928563854E+03  0.12499877404E+03 0.  0.
    9000005    1    3    3    0    0 -0.55172568266E+02 -0.62984824142E+02 -0.91448908126E+02  0.12399598041E+03  0.10000000000E+01 0.  0.
    9000005    1    3    3    0    0  0.28171799171E+02  0.20146261172E+02  0.66961080364E+01  0.35289658125E+02  0.10000000000E+01 0.  0.
         21    1    1    2  502  501  0.27000769094E+02  0.42838562970E+02 -0.33043698315E+03  0.33429445679E+03  0.00000000000E+00 0.  1.
<mgrwt>
<rscale>  1 0.13486615E+03</rscale>
<asrwt>0</asrwt>
<pdfrwt beam="2">  1        4 0.69905372E-01 0.13486615E+03</pdfrwt>
<pdfrwt beam="1">  1       -4 0.60300243E-02 0.13486615E+03</pdfrwt>
<totfact> 0.55809941E+02</totfact>
</mgrwt>
</event>
<event>
 6    4  0.5642870E-004  0.1307662E+03  0.7818608E-02  0.1226323E+00
          4   -1    0    0  502    0  0.00000000000E+00  0.00000000000E+00  0.21154218467E+02  0.21192306599E+02  0.12700000000E+01 0. -1.
         -4   -1    0    0    0  501 -0.00000000000E+00 -0.00000000000E+00 -0.34938887202E+03  0.34939118018E+03  0.12700000000E+01 0. -1.
         25    2    1    2    0    0  0.37330870475E+02 -0.90356961334E+01 -0.27912384085E+03  0.30823679787E+03  0.12499826931E+03 0.  0.
    9000005    1    3    3    0    0 -0.10472857981E+01 -0.41312614230E+02 -0.24283684070E+03  0.24633018513E+03  0.10000000000E+01 0.  0.
    9000005    1    3    3    0    0  0.38378156273E+02  0.32276918097E+02 -0.36287000148E+02  0.61906612737E+02  0.10000000000E+01 0.  0.
         21    1    1    2  502  501 -0.37330870475E+02  0.90356961334E+01 -0.49110812698E+02  0.62346688917E+02  0.00000000000E+00 0.  1.
<mgrwt>
<rscale>  1 0.13076622E+03</rscale>
<asrwt>0</asrwt>
<pdfrwt beam="1">  1        4 0.32576028E-02 0.13076622E+03</pdfrwt>
<pdfrwt beam="2">  1       -4 0.53755237E-01 0.13076622E+03</pdfrwt>
<totfact> 0.25780237E+03</totfact>
</mgrwt>
</event>
<event>
 6    4  0.5642870E-004  0.2938552E+03  0.7818608E-02  0.1088353E+00
         -4   -1    0    0    0  501 -0.00000000000E+00  0.00000000000E+00  0.19700943307E+03  0.19701352649E+03  0.12700000000E+01 0. -1.
          4   -1    0    0  502    0  0.00000000000E+00 -0.00000000000E+00 -0.46634508504E+03  0.46634681434E+03  0.12700000000E+01 0. -1.
         25    2    1    2    0    0  0.15086753381E+03  0.21901400260E+03 -0.26754660141E+03  0.39740668547E+03  0.12499097423E+03 0.  0.
    9000005    1    3    3    0    0  0.12618721718E+03  0.10628382533E+03 -0.21391651160E+03  0.27014947574E+03  0.10000000000E+01 0.  0.
    9000005    1    3    3    0    0  0.24680316626E+02  0.11273017727E+03 -0.53630089811E+02  0.12725720973E+03  0.10000000000E+01 0.  0.
         21    1    1    2  502  501 -0.15086753381E+03 -0.21901400260E+03 -0.17890505610E+01  0.26595365535E+03  0.00000000000E+00 0. -1.
<mgrwt>
<rscale>  1 0.29385522E+03</rscale>
<asrwt>0</asrwt>
<pdfrwt beam="2">  1        4 0.71745845E-01 0.29385522E+03</pdfrwt>
<pdfrwt beam="1">  1       -4 0.30309592E-01 0.29385522E+03</pdfrwt>
<totfact> 0.34805272E+01</totfact>
</mgrwt>
</event>
<event>
 6    4  0.5642870E-004  0.1377691E+03  0.7818608E-02  0.1216363E+00
         -4   -1    0    0    0  501 -0.00000000000E+00  0.00000000000E+00  0.97426742905E+01  0.98251006270E+01  0.12700000000E+01 0.  1.
          4   -1    0    0  502    0  0.00000000000E+00 -0.00000000000E+00 -0.10674135132E+04  0.10674142688E+04  0.12700000000E+01 0.  1.
         25    2    1    2    0    0 -0.20532164442E+02  0.54169116303E+02 -0.58353496160E+03  0.59957767621E+03  0.12499790183E+03 0.  0.
    9000005    1    3    3    0    0 -0.45766637052E+02  0.28044636674E+02 -0.90642728353E+02  0.10534795165E+03  0.10000000000E+01 0.  0.
    9000005    1    3    3    0    0  0.25234472610E+02  0.26124479629E+02 -0.49289223325E+03  0.49422972456E+03  0.10000000000E+01 0.  0.
         21    1    1    2  502  501  0.20532164442E+02 -0.54169116303E+02 -0.47413587735E+03  0.47766169318E+03  0.00000000000E+00 0. -1.
<mgrwt>
<rscale>  1 0.13776915E+03</rscale>
<asrwt>0</asrwt>
<pdfrwt beam="2">  1        4 0.16422377E+00 0.13776915E+03</pdfrwt>
<pdfrwt beam="1">  1       -4 0.15052724E-02 0.13776915E+03</pdfrwt>
<totfact> 0.66042483E+02</totfact>
</mgrwt>
</event>
<event>
 6    4  0.5642870E-004  0.1287813E+03  0.7818608E-02  0.1229275E+00
         -4   -1    0    0    0  501 -0.00000000000E+00  0.00000000000E+00  0.53482187770E+01  0.54969395200E+01  0.12700000000E+01 0.  1.
          4   -1    0    0  502    0  0.00000000000E+00 -0.00000000000E+00 -0.15755690327E+04  0.15755695445E+04  0.12700000000E+01 0.  1.
         25    2    1    2    0    0 -0.33008108579E+01 -0.30778226781E+02 -0.80637338448E+03  0.81659209596E+03  0.12500568547E+03 0.  0.
    9000005    1    3    3    0    0  0.36918673123E+02  0.48912681381E+01 -0.80195371065E+02  0.88426299648E+02  0.10000000000E+01 0.  0.
    9000005    1    3    3    0    0 -0.40219483981E+02 -0.35669494919E+02 -0.72617801341E+03  0.72816579631E+03  0.10000000000E+01 0.  0.
         21    1    1    2  502  501  0.33008108579E+01  0.30778226781E+02 -0.76384742940E+03  0.76447438806E+03  0.00000000000E+00 0. -1.
<mgrwt>
<rscale>  1 0.12878127E+03</rscale>
<asrwt>0</asrwt>
<pdfrwt beam="2">  1        4 0.24240635E+00 0.12878127E+03</pdfrwt>
<pdfrwt beam="1">  1       -4 0.83428357E-03 0.12878127E+03</pdfrwt>
<totfact> 0.51865947E+02</totfact>
</mgrwt>
</event>
<event>
 6    4  0.5642870E-004  0.1366258E+03  0.7818608E-02  0.1217943E+00
          4   -1    0    0  502    0  0.00000000000E+00  0.00000000000E+00  0.37647202430E+01  0.39731622806E+01  0.12700000000E+01 0.  1.
         -4   -1    0    0    0  501 -0.00000000000E+00 -0.00000000000E+00 -0.24260368075E+04  0.24260371399E+04  0.12700000000E+01 0.  1.
         25    2    1    2    0    0  0.52758325985E+02  0.16084430296E+02 -0.18727608632E+04  0.18777379643E+04  0.12499784765E+03 0.  0.
    9000005    1    3    3    0    0 -0.35719518487E+02  0.20799902456E+02 -0.90016079726E+03  0.90110986060E+03  0.10000000000E+01 0.  0.
    9000005    1    3    3    0    0  0.88477844472E+02 -0.47154721591E+01 -0.97260006591E+03  0.97662810365E+03  0.10000000000E+01 0.  0.
         21    1    1    2  502  501 -0.52758325985E+02 -0.16084430296E+02 -0.54951122407E+03  0.55227233793E+03  0.00000000000E+00 0. -1.
<mgrwt>
<rscale>  1 0.13662581E+03</rscale>
<asrwt>0</asrwt>
<pdfrwt beam="1">  1        4 0.59524924E-03 0.13662581E+03</pdfrwt>
<pdfrwt beam="2">  1       -4 0.37325128E+00 0.13662581E+03</pdfrwt>
<totfact> 0.14670052E+02</totfact>
</mgrwt>
</event>
<event>
 6    4  0.5642870E-004  0.1469847E+03  0.7818608E-02  0.1204228E+00
         -4   -1    0    0    0  501 -0.00000000000E+00  0.00000000000E+00  0.31178070904E+02  0.31203926120E+02  0.12700000000E+01 0.  1.
          4   -1    0    0  502    0  0.00000000000E+00 -0.00000000000E+00 -0.62007209918E+03  0.62007339975E+03  0.12700000000E+01 0.  1.
         25    2    1    2    0    0  0.61366274444E+02  0.47171798408E+02 -0.16755693399E+03  0.22288971491E+03  0.12495399426E+03 0.  0.
    9000005    1    3    3    0    0  0.62262837815E+02  0.14656418172E+02 -0.17765002203E+03  0.18881737710E+03  0.10000000000E+01 0.  0.
    9000005    1    3    3    0    0 -0.89656337076E+00  0.32515380235E+02  0.10093088043E+02  0.34072337812E+02  0.10000000000E+01 0.  0.
         21    1    1    2  502  501 -0.61366274444E+02 -0.47171798408E+02 -0.42133709429E+03  0.42838761096E+03  0.00000000000E+00 0.  1.
<mgrwt>
<rscale>  1 0.14698469E+03</rscale>
<asrwt>0</asrwt>
<pdfrwt beam="2">  1        4 0.95397787E-01 0.14698469E+03</pdfrwt>
<pdfrwt beam="1">  1       -4 0.47987157E-02 0.14698469E+03</pdfrwt>
<totfact> 0.41119294E+02</totfact>
</mgrwt>
</event>
<event>
 6    4  0.5642870E-004  0.1282322E+03  0.7818608E-02  0.1230103E+00
         -4   -1    0    0    0  501 -0.00000000000E+00  0.00000000000E+00  0.31645920918E+03  0.31646175753E+03  0.12700000000E+01 0. -1.
          4   -1    0    0  502    0  0.00000000000E+00 -0.00000000000E+00 -0.19514255214E+02  0.19555537747E+02  0.12700000000E+01 0. -1.
         25    2    1    2    0    0  0.22854313418E+02  0.17250887379E+02  0.23305069085E+03  0.26600022866E+03  0.12499433742E+03 0.  0.
    9000005    1    3    3    0    0  0.10324784796E+02  0.45104298742E+02  0.23076099176E+03  0.23535639839E+03  0.10000000000E+01 0.  0.
    9000005    1    3    3    0    0  0.12529528622E+02 -0.27853411363E+02  0.22896990947E+01  0.30643830276E+02  0.10000000000E+01 0.  0.
         21    1    1    2  502  501 -0.22854313418E+02 -0.17250887379E+02  0.63894263117E+02  0.70017066609E+02  0.00000000000E+00 0.  1.
<mgrwt>
<rscale>  1 0.12823220E+03</rscale>
<asrwt>0</asrwt>
<pdfrwt beam="2">  1        4 0.30055649E-02 0.12823220E+03</pdfrwt>
<pdfrwt beam="1">  1       -4 0.48689401E-01 0.12823220E+03</pdfrwt>
<totfact> 0.35635635E+03</totfact>
</mgrwt>
</event>
<event>
 6    4  0.5642870E-004  0.1319343E+03  0.7818608E-02  0.1224613E+00
         -4   -1    0    0    0  501 -0.00000000000E+00  0.00000000000E+00  0.92355051772E+01  0.93224168475E+01  0.12700000000E+01 0. -1.
          4   -1    0    0  502    0  0.00000000000E+00 -0.00000000000E+00 -0.85400295975E+03  0.85400390407E+03  0.12700000000E+01 0. -1.
         25    2    1    2    0    0 -0.33236386142E+02  0.26016196500E+02 -0.55293322891E+03  0.56845564568E+03  0.12500066252E+03 0.  0.
    9000005    1    3    3    0    0 -0.16861593566E+01  0.64242914154E+02 -0.44578385597E+03  0.45039342956E+03  0.10000000000E+01 0.  0.
    9000005    1    3    3    0    0 -0.31550226786E+02 -0.38226717653E+02 -0.10714937294E+03  0.11806221612E+03  0.10000000000E+01 0.  0.
         21    1    1    2  502  501  0.33236386142E+02 -0.26016196500E+02 -0.29183422567E+03  0.29487067524E+03  0.00000000000E+00 0.  1.
<mgrwt>
<rscale>  1 0.13193432E+03</rscale>
<asrwt>0</asrwt>
<pdfrwt beam="2">  1        4 0.13139177E+00 0.13193432E+03</pdfrwt>
<pdfrwt beam="1">  1       -4 0.14276058E-02 0.13193432E+03</pdfrwt>
<totfact> 0.12493927E+03</totfact>
</mgrwt>
</event>
<event>
 6    4  0.5642870E-004  0.1272925E+03  0.7818608E-02  0.1231529E+00
          4   -1    0    0  502    0  0.00000000000E+00  0.00000000000E+00  0.28321697753E+03  0.28321982497E+03  0.12700000000E+01 0. -1.
         -4   -1    0    0    0  501 -0.00000000000E+00 -0.00000000000E+00 -0.24357837078E+02  0.24390923047E+02  0.12700000000E+01 0. -1.
         25    2    1    2    0    0 -0.22343002326E+01 -0.23945687939E+02  0.15287638770E+03  0.19893355654E+03  0.12499992773E+03 0.  0.
    9000005    1    3    3    0    0 -0.20775401878E+02  0.22459333678E+02  0.14516840241E+03  0.14836072274E+03  0.10000000000E+01 0.  0.
    9000005    1    3    3    0    0  0.18541101645E+02 -0.46405021617E+02  0.77079852869E+01  0.50572833801E+02  0.10000000000E+01 0.  0.
         21    1    1    2  502  501  0.22343002326E+01  0.23945687939E+02  0.10598275275E+03  0.10867719148E+03  0.00000000000E+00 0.  1.
<mgrwt>
<rscale>  1 0.12729246E+03</rscale>
<asrwt>0</asrwt>
<pdfrwt beam="1">  1        4 0.43574606E-01 0.12729246E+03</pdfrwt>
<pdfrwt beam="2">  1       -4 0.37501237E-02 0.12729246E+03</pdfrwt>
<totfact> 0.31385331E+03</totfact>
</mgrwt>
</event>
<event>
 6    4  0.5642870E-004  0.1334362E+03  0.7818608E-02  0.1222444E+00
          4   -1    0    0  502    0  0.00000000000E+00  0.00000000000E+00  0.66434883394E+02  0.66447021239E+02  0.12700000000E+01 0. -1.
         -4   -1    0    0    0  501 -0.00000000000E+00 -0.00000000000E+00 -0.12704567056E+03  0.12705201812E+03  0.12700000000E+01 0. -1.
         25    2    1    2    0    0 -0.17336530269E+02 -0.43359881997E+02 -0.61192197649E+02  0.14679815407E+03  0.12499831333E+03 0.  0.
    9000005    1    3    3    0    0  0.24932663420E+02 -0.33416178697E+02  0.26169029852E+02  0.49235117826E+02  0.10000000000E+01 0.  0.
    9000005    1    3    3    0    0 -0.42269193689E+02 -0.99437032992E+01 -0.87361227501E+02  0.97563036243E+02  0.10000000000E+01 0.  0.
         21    1    1    2  502  501  0.17336530269E+02  0.43359881997E+02  0.58141048440E+00  0.46700885288E+02  0.00000000000E+00 0. -1.
<mgrwt>
<rscale>  1 0.13343618E+03</rscale>
<asrwt>0</asrwt>
<pdfrwt beam="1">  1        4 0.10222173E-01 0.13343618E+03</pdfrwt>
<pdfrwt beam="2">  1       -4 0.19546910E-01 0.13343618E+03</pdfrwt>
<totfact> 0.28072124E+03</totfact>
</mgrwt>
</event>
<event>
 6    4  0.5642870E-004  0.1302028E+03  0.7818608E-02  0.1227155E+00
          4   -1    0    0  502    0  0.00000000000E+00  0.00000000000E+00  0.24933180648E+03  0.24933504090E+03  0.12700000000E+01 0. -1.
         -4   -1    0    0    0  501 -0.00000000000E+00 -0.00000000000E+00 -0.29589267940E+02  0.29616510213E+02  0.12700000000E+01 0. -1.
         25    2    1    2    0    0  0.16987222759E+02 -0.32248753198E+02  0.13951872908E+03  0.19083567613E+03  0.12499692677E+03 0.  0.
    9000005    1    3    3    0    0  0.59943864939E+01  0.43361265046E+02  0.18109935770E+02  0.47382504676E+02  0.10000000000E+01 0.  0.
    9000005    1    3    3    0    0  0.10992836265E+02 -0.75610018243E+02  0.12140879331E+03  0.14345317146E+03  0.10000000000E+01 0.  0.
         21    1    1    2  502  501 -0.16987222759E+02  0.32248753198E+02  0.80223809455E+02  0.88115874979E+02  0.00000000000E+00 0. -1.
<mgrwt>
<rscale>  1 0.13020284E+03</rscale>
<asrwt>0</asrwt>
<pdfrwt beam="1">  1        4 0.38361084E-01 0.13020284E+03</pdfrwt>
<pdfrwt beam="2">  1       -4 0.45545394E-02 0.13020284E+03</pdfrwt>
<totfact> 0.29792114E+03</totfact>
</mgrwt>
</event>
<event>
 6    4  0.5642870E-004  0.1419697E+03  0.7818608E-02  0.1210703E+00
          4   -1    0    0  502    0  0.00000000000E+00  0.00000000000E+00  0.29582867418E+03  0.29583140024E+03  0.12700000000E+01 0. -1.
         -4   -1    0    0    0  501 -0.00000000000E+00 -0.00000000000E+00 -0.43881351557E+02  0.43899725677E+02  0.12700000000E+01 0. -1.
         25    2    1    2    0    0 -0.41661856117E+02 -0.52863489974E+02  0.10032392102E+03  0.17383985206E+03  0.12500058483E+03 0.  0.
    9000005    1    3    3    0    0 -0.72042470465E+02 -0.27077702158E+02  0.13285105144E+02  0.78107704636E+02  0.10000000000E+01 0.  0.
    9000005    1    3    3    0    0  0.30380614348E+02 -0.25785787816E+02  0.87038815879E+02  0.95732147428E+02  0.10000000000E+01 0.  0.
         21    1    1    2  502  501  0.41661856117E+02  0.52863489974E+02  0.15162340160E+03  0.16589127385E+03  0.00000000000E+00 0. -1.
<mgrwt>
<rscale>  1 0.14196973E+03</rscale>
<asrwt>0</asrwt>
<pdfrwt beam="1">  1        4 0.45513729E-01 0.14196973E+03</pdfrwt>
<pdfrwt beam="2">  1       -4 0.67525999E-02 0.14196973E+03</pdfrwt>
<totfact> 0.11444925E+03</totfact>
</mgrwt>
</event>
<event>
 6    4  0.5642870E-004  0.1268098E+03  0.7818608E-02  0.1232268E+00
          4   -1    0    0  502    0  0.00000000000E+00  0.00000000000E+00  0.17516417593E+03  0.17516877984E+03  0.12700000000E+01 0.  1.
         -4   -1    0    0    0  501 -0.00000000000E+00 -0.00000000000E+00 -0.31909845361E+02  0.31935108125E+02  0.12700000000E+01 0.  1.
         25    2    1    2    0    0  0.13920118147E+02 -0.16157539739E+02  0.11153172787E+03  0.16887877446E+03  0.12500351341E+03 0.  0.
    9000005    1    3    3    0    0  0.58880896876E+02 -0.40863944919E+02  0.44151519001E+02  0.84185382588E+02  0.10000000000E+01 0.  0.
    9000005    1    3    3    0    0 -0.44960778730E+02  0.24706405180E+02  0.67380208864E+02  0.84693391876E+02  0.10000000000E+01 0.  0.
         21    1    1    2  502  501 -0.13920118147E+02  0.16157539739E+02  0.31722602704E+02  0.38225113498E+02  0.00000000000E+00 0.  1.
<mgrwt>
<rscale>  1 0.12680976E+03</rscale>
<asrwt>0</asrwt>
<pdfrwt beam="1">  1        4 0.26950632E-01 0.12680976E+03</pdfrwt>
<pdfrwt beam="2">  1       -4 0.49115044E-02 0.12680976E+03</pdfrwt>
<totfact> 0.51409974E+03</totfact>
</mgrwt>
</event>
<event>
 6    4  0.5642870E-004  0.1352413E+03  0.7818608E-02  0.1219879E+00
          4   -1    0    0  502    0  0.00000000000E+00  0.00000000000E+00  0.12783038467E+03  0.12783669327E+03  0.12700000000E+01 0.  1.
         -4   -1    0    0    0  501 -0.00000000000E+00 -0.00000000000E+00 -0.68421762001E+02  0.68433547440E+02  0.12700000000E+01 0.  1.
         25    2    1    2    0    0 -0.43360172745E+02  0.28047605075E+02  0.39105174294E+02  0.14078147836E+03  0.12499374889E+03 0.  0.
    9000005    1    3    3    0    0 -0.77930835788E+02  0.13672866068E+02 -0.91965206879E+01  0.79660143271E+02  0.10000000000E+01 0.  0.
    9000005    1    3    3    0    0  0.34570663043E+02  0.14374739007E+02  0.48301694982E+02  0.61121335088E+02  0.10000000000E+01 0.  0.
         21    1    1    2  502  501  0.43360172745E+02 -0.28047605075E+02  0.20303448376E+02  0.55488762348E+02  0.00000000000E+00 0.  1.
<mgrwt>
<rscale>  1 0.13524130E+03</rscale>
<asrwt>0</asrwt>
<pdfrwt beam="1">  1        4 0.19667605E-01 0.13524130E+03</pdfrwt>
<pdfrwt beam="2">  1       -4 0.10527817E-01 0.13524130E+03</pdfrwt>
<totfact> 0.26496259E+03</totfact>
</mgrwt>
</event>
<event>
 6    4  0.5642870E-004  0.1279608E+03  0.7818608E-02  0.1230513E+00
          4   -1    0    0  502    0  0.00000000000E+00  0.00000000000E+00  0.61381856757E+03  0.61381988139E+03  0.12700000000E+01 0. -1.
         -4   -1    0    0    0  501 -0.00000000000E+00 -0.00000000000E+00 -0.17602736170E+02  0.17648490606E+02  0.12700000000E+01 0. -1.
         25    2    1    2    0    0 -0.13268229018E+02 -0.23911106769E+02  0.22187323875E+03  0.25612830806E+03  0.12500475666E+03 0.  0.
    9000005    1    3    3    0    0  0.38733781004E+02  0.12974272254E+02  0.16724461090E+03  0.17216386789E+03  0.10000000000E+01 0.  0.
    9000005    1    3    3    0    0 -0.52002010022E+02 -0.36885379023E+02  0.54628627849E+02  0.83964440168E+02  0.10000000000E+01 0.  0.
         21    1    1    2  502  501  0.13268229018E+02  0.23911106769E+02  0.37434259265E+03  0.37534006394E+03  0.00000000000E+00 0.  1.
<mgrwt>
<rscale>  1 0.12796084E+03</rscale>
<asrwt>0</asrwt>
<pdfrwt beam="1">  1        4 0.94437238E-01 0.12796084E+03</pdfrwt>
<pdfrwt beam="2">  1       -4 0.27117341E-02 0.12796084E+03</pdfrwt>
<totfact> 0.10094988E+03</totfact>
</mgrwt>
</event>
<event>
 6    4  0.5642870E-004  0.1568684E+03  0.7818608E-02  0.1192278E+00
         -4   -1    0    0    0  501 -0.00000000000E+00  0.00000000000E+00  0.34696511445E+02  0.34719746636E+02  0.12700000000E+01 0. -1.
          4   -1    0    0  502    0  0.00000000000E+00 -0.00000000000E+00 -0.57615633926E+03  0.57615773896E+03  0.12700000000E+01 0. -1.
         25    2    1    2    0    0  0.32955496760E+02  0.88860121424E+02 -0.18758815672E+03  0.24453427828E+03  0.12500204305E+03 0.  0.
    9000005    1    3    3    0    0  0.72312764411E+02  0.78769633139E+02 -0.93509924281E+02  0.14205244433E+03  0.10000000000E+01 0.  0.
    9000005    1    3    3    0    0 -0.39357267650E+02  0.10090488285E+02 -0.94078232443E+02  0.10248183395E+03  0.10000000000E+01 0.  0.
         21    1    1    2  502  501 -0.32955496760E+02 -0.88860121424E+02 -0.35387167109E+03  0.36634320731E+03  0.00000000000E+00 0. -1.
<mgrwt>
<rscale>  1 0.15686841E+03</rscale>
<asrwt>0</asrwt>
<pdfrwt beam="2">  1        4 0.88641325E-01 0.15686841E+03</pdfrwt>
<pdfrwt beam="1">  1       -4 0.53398203E-02 0.15686841E+03</pdfrwt>
<totfact> 0.41398196E+02</totfact>
</mgrwt>
</event>
<event>
 6    4  0.5642870E-004  0.1280081E+03  0.7818608E-02  0.1230442E+00
         -4   -1    0    0    0  501 -0.00000000000E+00  0.00000000000E+00  0.96499188371E+01  0.97331307174E+01  0.12700000000E+01 0.  1.
          4   -1    0    0  502    0  0.00000000000E+00 -0.00000000000E+00 -0.69868873885E+03  0.69868989308E+03  0.12700000000E+01 0.  1.
         25    2    1    2    0    0 -0.27244386820E+02  0.43492829088E+01 -0.45176252145E+03  0.46954813032E+03  0.12499959210E+03 0.  0.
    9000005    1    3    3    0    0 -0.41313514951E+02  0.53085980242E+02 -0.16259426444E+03  0.17596256035E+03  0.10000000000E+01 0.  0.
    9000005    1    3    3    0    0  0.14069128130E+02 -0.48736697333E+02 -0.28916825701E+03  0.29358556997E+03  0.10000000000E+01 0.  0.
         21    1    1    2  502  501  0.27244386820E+02 -0.43492829088E+01 -0.23727629856E+03  0.23887489348E+03  0.00000000000E+00 0.  1.
<mgrwt>
<rscale>  1 0.12800809E+03</rscale>
<asrwt>0</asrwt>
<pdfrwt beam="2">  1        4 0.10749703E+00 0.12800809E+03</pdfrwt>
<pdfrwt beam="1">  1       -4 0.14910931E-02 0.12800809E+03</pdfrwt>
<totfact> 0.18785653E+03</totfact>
</mgrwt>
</event>
<event>
 6    4  0.5642870E-004  0.1308300E+03  0.7818608E-02  0.1226229E+00
          4   -1    0    0  502    0  0.00000000000E+00  0.00000000000E+00  0.26179141392E+01  0.29097034970E+01  0.12700000000E+01 0. -1.
         -4   -1    0    0    0  501 -0.00000000000E+00 -0.00000000000E+00 -0.26088618594E+04  0.26088621685E+04  0.12700000000E+01 0. -1.
         25    2    1    2    0    0  0.18313994385E+02  0.34010112474E+02 -0.20823063548E+04  0.20864122915E+04  0.12499761897E+03 0.  0.
    9000005    1    3    3    0    0  0.47297487821E+02  0.34852637669E+02 -0.44664383463E+03  0.45049247910E+03  0.10000000000E+01 0.  0.
    9000005    1    3    3    0    0 -0.28983493437E+02 -0.84252519453E+00 -0.16356625202E+04  0.16359198124E+04  0.10000000000E+01 0.  0.
         21    1    1    2  502  501 -0.18313994385E+02 -0.34010112474E+02 -0.52393759038E+03  0.52535958043E+03  0.00000000000E+00 0.  1.
<mgrwt>
<rscale>  1 0.13083002E+03</rscale>
<asrwt>0</asrwt>
<pdfrwt beam="1">  1        4 0.42522722E-03 0.13083002E+03</pdfrwt>
<pdfrwt beam="2">  1       -4 0.40138386E+00 0.13083002E+03</pdfrwt>
<totfact> 0.15830273E+02</totfact>
</mgrwt>
</event>
<event>
 6    4  0.5642870E-004  0.1274157E+03  0.7818608E-02  0.1231341E+00
          4   -1    0    0  502    0  0.00000000000E+00  0.00000000000E+00  0.19943925654E+03  0.19944330009E+03  0.12700000000E+01 0.  1.
         -4   -1    0    0    0  501 -0.00000000000E+00 -0.00000000000E+00 -0.29064919332E+02  0.29092652608E+02  0.12700000000E+01 0.  1.
         25    2    1    2    0    0 -0.43928156439E+01 -0.24290937972E+02  0.14708032577E+03  0.19459545380E+03  0.12500168763E+03 0.  0.
    9000005    1    3    3    0    0 -0.36855819256E+02 -0.64196001693E+02  0.69753499159E+02  0.10171542996E+03  0.10000000000E+01 0.  0.
    9000005    1    3    3    0    0  0.32463003612E+02  0.39905063721E+02  0.77326826614E+02  0.92880023839E+02  0.10000000000E+01 0.  0.
         21    1    1    2  502  501  0.43928156439E+01  0.24290937972E+02  0.23294011439E+02  0.33940498903E+02  0.00000000000E+00 0.  1.
<mgrwt>
<rscale>  1 0.12741573E+03</rscale>
<asrwt>0</asrwt>
<pdfrwt beam="1">  1        4 0.30685408E-01 0.12741573E+03</pdfrwt>
<pdfrwt beam="2">  1       -4 0.44739703E-02 0.12741573E+03</pdfrwt>
<totfact> 0.46838715E+03</totfact>
</mgrwt>
</event>
<event>
 6    4  0.5642870E-004  0.1269603E+03  0.7818608E-02  0.1232037E+00
         -4   -1    0    0    0  501 -0.00000000000E+00  0.00000000000E+00  0.20126646312E+03  0.20127046996E+03  0.12700000000E+01 0.  1.
          4   -1    0    0  502    0  0.00000000000E+00 -0.00000000000E+00 -0.29390284527E+02  0.29417711070E+02  0.12700000000E+01 0.  1.
         25    2    1    2    0    0 -0.25867644585E+01  0.22077097452E+02  0.12197031674E+03  0.17605591373E+03  0.12499934805E+03 0.  0.
    9000005    1    3    3    0    0  0.43874885614E+02  0.48359805584E+02  0.35229751045E+02  0.74201157285E+02  0.10000000000E+01 0.  0.
    9000005    1    3    3    0    0 -0.46461650073E+02 -0.26282708132E+02  0.86740565690E+02  0.10185475645E+03  0.10000000000E+01 0.  0.
         21    1    1    2  502  501  0.25867644585E+01 -0.22077097452E+02  0.49905861858E+02  0.54632267298E+02  0.00000000000E+00 0.  1.
<mgrwt>
<rscale>  1 0.12696033E+03</rscale>
<asrwt>0</asrwt>
<pdfrwt beam="2">  1        4 0.45240002E-02 0.12696033E+03</pdfrwt>
<pdfrwt beam="1">  1       -4 0.30966489E-01 0.12696033E+03</pdfrwt>
<totfact> 0.45186191E+03</totfact>
</mgrwt>
</event>
<event>
 6    4  0.5642870E-004  0.1292108E+03  0.7818608E-02  0.1228631E+00
          4   -1    0    0  502    0  0.00000000000E+00  0.00000000000E+00  0.15023192551E+03  0.15023729345E+03  0.12700000000E+01 0. -1.
         -4   -1    0    0    0  501 -0.00000000000E+00 -0.00000000000E+00 -0.51524012221E+02  0.51539661770E+02  0.12700000000E+01 0. -1.
         25    2    1    2    0    0  0.20368569826E+01  0.32655484373E+02  0.41213241636E+02  0.13562435350E+03  0.12499961812E+03 0.  0.
    9000005    1    3    3    0    0  0.80521292781E+01  0.57965597920E+02  0.73622226088E+02  0.94053599093E+02  0.10000000000E+01 0.  0.
    9000005    1    3    3    0    0 -0.60152722955E+01 -0.25310113547E+02 -0.32408984451E+02  0.41570754404E+02  0.10000000000E+01 0.  0.
         21    1    1    2  502  501 -0.20368569826E+01 -0.32655484373E+02  0.57494671651E+02  0.66152601719E+02  0.00000000000E+00 0. -1.
<mgrwt>
<rscale>  1 0.12921081E+03</rscale>
<asrwt>0</asrwt>
<pdfrwt beam="1">  1        4 0.23114220E-01 0.12921081E+03</pdfrwt>
<pdfrwt beam="2">  1       -4 0.79283879E-02 0.12921081E+03</pdfrwt>
<totfact> 0.31440149E+03</totfact>
</mgrwt>
</event>
<event>
 6    4  0.5642870E-004  0.1486309E+03  0.7818608E-02  0.1202166E+00
         -4   -1    0    0    0  501 -0.00000000000E+00  0.00000000000E+00  0.27404865185E+04  0.27404868128E+04  0.12700000000E+01 0.  1.
          4   -1    0    0  502    0  0.00000000000E+00 -0.00000000000E+00 -0.50078865377E+01  0.51664134149E+01  0.12700000000E+01 0.  1.
         25    2    1    2    0    0 -0.79782358155E+02 -0.10039940726E+02  0.20710415742E+04  0.20763680636E+04  0.12500043418E+03 0.  0.
    9000005    1    3    3    0    0  0.16258043734E+02 -0.42626810519E+02  0.79064694528E+03  0.79196272705E+03  0.10000000000E+01 0.  0.
    9000005    1    3    3    0    0 -0.96040401889E+02  0.32586869793E+02  0.12803946289E+04  0.12844053366E+04  0.10000000000E+01 0.  0.
         21    1    1    2  502  501  0.79782358155E+02  0.10039940726E+02  0.66443705779E+03  0.66928516258E+03  0.00000000000E+00 0.  1.
<mgrwt>
<rscale>  1 0.14863086E+03</rscale>
<asrwt>0</asrwt>
<pdfrwt beam="2">  1        4 0.78266124E-03 0.14863086E+03</pdfrwt>
<pdfrwt beam="1">  1       -4 0.42162545E+00 0.14863086E+03</pdfrwt>
<totfact> 0.47316688E+01</totfact>
</mgrwt>
</event>
<event>
 6    4  0.5642870E-004  0.1310651E+03  0.7818608E-02  0.1225884E+00
          4   -1    0    0  502    0  0.00000000000E+00  0.00000000000E+00  0.38167489730E+02  0.38188613123E+02  0.12700000000E+01 0.  1.
         -4   -1    0    0    0  501 -0.00000000000E+00 -0.00000000000E+00 -0.19787944043E+03  0.19788351585E+03  0.12700000000E+01 0.  1.
         25    2    1    2    0    0  0.23307950076E+02 -0.31768672464E+02 -0.14081925538E+03  0.19237495489E+03  0.12500220596E+03 0.  0.
    9000005    1    3    3    0    0  0.54684157726E+01 -0.78829729285E+02 -0.70549318380E+02  0.10593505611E+03  0.10000000000E+01 0.  0.
    9000005    1    3    3    0    0  0.17839534303E+02  0.47061056821E+02 -0.70269937005E+02  0.86439898773E+02  0.10000000000E+01 0.  0.
         21    1    1    2  502  501 -0.23307950076E+02  0.31768672464E+02 -0.18892695319E+02  0.43697174088E+02  0.00000000000E+00 0.  1.
<mgrwt>
<rscale>  1 0.13106510E+03</rscale>
<asrwt>0</asrwt>
<pdfrwt beam="1">  1        4 0.58738600E-02 0.13106510E+03</pdfrwt>
<pdfrwt beam="2">  1       -4 0.30444929E-01 0.13106510E+03</pdfrwt>
<totfact> 0.30897141E+03</totfact>
</mgrwt>
</event>
<event>
 6    4  0.5642870E-004  0.1300321E+03  0.7818608E-02  0.1227408E+00
         -4   -1    0    0    0  501 -0.00000000000E+00  0.00000000000E+00  0.39504073615E+03  0.39504277758E+03  0.12700000000E+01 0.  1.
          4   -1    0    0  502    0  0.00000000000E+00 -0.00000000000E+00 -0.39456402414E+02  0.39476836138E+02  0.12700000000E+01 0.  1.
         25    2    1    2    0    0 -0.30920935261E+02 -0.18106825210E+02  0.37275593949E+03  0.39478517776E+03  0.12499753918E+03 0.  0.
    9000005    1    3    3    0    0 -0.21292050267E+02  0.45846527182E+01  0.36921962612E+03  0.36986281613E+03  0.10000000000E+01 0.  0.
    9000005    1    3    3    0    0 -0.96288849940E+01 -0.22691477928E+02  0.35363133630E+01  0.24922361626E+02  0.10000000000E+01 0.  0.
         21    1    1    2  502  501  0.30920935261E+02  0.18106825210E+02 -0.17171605752E+02  0.39734435956E+02  0.00000000000E+00 0.  1.
<mgrwt>
<rscale>  1 0.13003210E+03</rscale>
<asrwt>0</asrwt>
<pdfrwt beam="2">  1        4 0.60719445E-02 0.13003210E+03</pdfrwt>
<pdfrwt beam="1">  1       -4 0.60777228E-01 0.13003210E+03</pdfrwt>
<totfact> 0.73793428E+02</totfact>
</mgrwt>
</event>
<event>
 6    4  0.5642870E-004  0.1302882E+03  0.7818608E-02  0.1227029E+00
          4   -1    0    0  502    0  0.00000000000E+00  0.00000000000E+00  0.45324415878E+01  0.47070082586E+01  0.12700000000E+01 0.  1.
         -4   -1    0    0    0  501 -0.00000000000E+00 -0.00000000000E+00 -0.17521585695E+04  0.17521590298E+04  0.12700000000E+01 0.  1.
         25    2    1    2    0    0  0.35256890896E+02  0.10409931416E+02 -0.15744212417E+04  0.15798029204E+04  0.12499442321E+03 0.  0.
    9000005    1    3    3    0    0  0.16595922613E+02  0.32089951345E+02 -0.14940503471E+04  0.14944874136E+04  0.10000000000E+01 0.  0.
    9000005    1    3    3    0    0  0.18660968283E+02 -0.21680019929E+02 -0.80370894597E+02  0.85315506795E+02  0.10000000000E+01 0.  0.
         21    1    1    2  502  501 -0.35256890896E+02 -0.10409931416E+02 -0.17320488623E+03  0.17706311767E+03  0.00000000000E+00 0.  1.
<mgrwt>
<rscale>  1 0.13028822E+03</rscale>
<asrwt>0</asrwt>
<pdfrwt beam="1">  1        4 0.71076371E-03 0.13028822E+03</pdfrwt>
<pdfrwt beam="2">  1       -4 0.26957579E+00 0.13028822E+03</pdfrwt>
<totfact> 0.46072874E+02</totfact>
</mgrwt>
</event>
<event>
 6    4  0.5642870E-004  0.1296840E+03  0.7818608E-02  0.1227925E+00
          4   -1    0    0  502    0  0.00000000000E+00  0.00000000000E+00  0.26900012430E+02  0.26929975282E+02  0.12700000000E+01 0.  1.
         -4   -1    0    0    0  501 -0.00000000000E+00 -0.00000000000E+00 -0.25042396240E+03  0.25042718271E+03  0.12700000000E+01 0.  1.
         25    2    1    2    0    0 -0.34459338669E+02  0.20978620682E+01 -0.17670785018E+03  0.21918848734E+03  0.12500432641E+03 0.  0.
    9000005    1    3    3    0    0 -0.15652103018E+02 -0.61428186600E+02 -0.88600193407E+02  0.10894679761E+03  0.10000000000E+01 0.  0.
    9000005    1    3    3    0    0 -0.18807235651E+02  0.63526048668E+02 -0.88107656774E+02  0.11024168973E+03  0.10000000000E+01 0.  0.
         21    1    1    2  502  501  0.34459338669E+02 -0.20978620682E+01 -0.46816099787E+02  0.58168670657E+02  0.00000000000E+00 0.  1.
<mgrwt>
<rscale>  1 0.12968396E+03</rscale>
<asrwt>0</asrwt>
<pdfrwt beam="1">  1        4 0.41410162E-02 0.12968396E+03</pdfrwt>
<pdfrwt beam="2">  1       -4 0.38529314E-01 0.12968396E+03</pdfrwt>
<totfact> 0.34344179E+03</totfact>
</mgrwt>
</event>
<event>
 6    4  0.5642870E-004  0.1272912E+03  0.7818608E-02  0.1231531E+00
         -4   -1    0    0    0  501 -0.00000000000E+00  0.00000000000E+00  0.26618811797E+02  0.26649090819E+02  0.12700000000E+01 0.  1.
          4   -1    0    0  502    0  0.00000000000E+00 -0.00000000000E+00 -0.22504865673E+03  0.22505224014E+03  0.12700000000E+01 0.  1.
         25    2    1    2    0    0  0.24038212167E+02 -0.29986496196E+00 -0.14397815554E+03  0.19217896508E+03  0.12500047913E+03 0.  0.
    9000005    1    3    3    0    0 -0.45687189399E+01  0.59914089593E+02 -0.76979298991E+02  0.97659529989E+02  0.10000000000E+01 0.  0.
    9000005    1    3    3    0    0  0.28606931107E+02 -0.60213954555E+02 -0.66998856546E+02  0.94519435086E+02  0.10000000000E+01 0.  0.
         21    1    1    2  502  501 -0.24038212167E+02  0.29986496196E+00 -0.54451689393E+02  0.59522365888E+02  0.00000000000E+00 0. -1.
<mgrwt>
<rscale>  1 0.12729118E+03</rscale>
<asrwt>0</asrwt>
<pdfrwt beam="2">  1        4 0.34625474E-01 0.12729118E+03</pdfrwt>
<pdfrwt beam="1">  1       -4 0.40978068E-02 0.12729118E+03</pdfrwt>
<totfact> 0.42764664E+03</totfact>
</mgrwt>
</event>
<event>
 6    4  0.5642870E-004  0.1267555E+03  0.7818608E-02  0.1232351E+00
          4   -1    0    0  502    0  0.00000000000E+00  0.00000000000E+00  0.79200229216E+01  0.80212008502E+01  0.12700000000E+01 0. -1.
         -4   -1    0    0    0  501 -0.00000000000E+00 -0.00000000000E+00 -0.74803668561E+03  0.74803776370E+03  0.12700000000E+01 0. -1.
         25    2    1    2    0    0 -0.18334358708E+02 -0.10259397856E+02 -0.69261869892E+03  0.70412188226E+03  0.12500223615E+03 0.  0.
    9000005    1    3    3    0    0  0.48038176804E+02 -0.18702713019E+02 -0.18286144162E+03  0.18999148596E+03  0.10000000000E+01 0.  0.
    9000005    1    3    3    0    0 -0.66372535512E+02  0.84433151623E+01 -0.50975725729E+03  0.51413039630E+03  0.10000000000E+01 0.  0.
         21    1    1    2  502  501  0.18334358708E+02  0.10259397856E+02 -0.47497963771E+02  0.51937082282E+02  0.00000000000E+00 0.  1.
<mgrwt>
<rscale>  1 0.12675552E+03</rscale>
<asrwt>0</asrwt>
<pdfrwt beam="1">  1        4 0.12263315E-02 0.12675552E+03</pdfrwt>
<pdfrwt beam="2">  1       -4 0.11509038E+00 0.12675552E+03</pdfrwt>
<totfact> 0.21470399E+03</totfact>
</mgrwt>
</event>
<event>
 6    4  0.5642870E-004  0.1483471E+03  0.7818608E-02  0.1202519E+00
          4   -1    0    0  502    0  0.00000000000E+00  0.00000000000E+00  0.83347081339E+02  0.83356756581E+02  0.12700000000E+01 0. -1.
         -4   -1    0    0    0  501 -0.00000000000E+00 -0.00000000000E+00 -0.22232899720E+03  0.22233262445E+03  0.12700000000E+01 0. -1.
         25    2    1    2    0    0  0.30719208724E+02  0.73744238094E+02 -0.16480040562E+03  0.22173417363E+03  0.12499995051E+03 0.  0.
    9000005    1    3    3    0    0  0.68531225739E+02  0.84122561098E+02 -0.11180646310E+03  0.15580378487E+03  0.10000000000E+01 0.  0.
    9000005    1    3    3    0    0 -0.37812017015E+02 -0.10378323004E+02 -0.52993942515E+02  0.65930388763E+02  0.10000000000E+01 0.  0.
         21    1    1    2  502  501 -0.30719208724E+02 -0.73744238094E+02  0.25818489759E+02  0.83955207403E+02  0.00000000000E+00 0. -1.
<mgrwt>
<rscale>  1 0.14834713E+03</rscale>
<asrwt>0</asrwt>
<pdfrwt beam="1">  1        4 0.12823651E-01 0.14834713E+03</pdfrwt>
<pdfrwt beam="2">  1       -4 0.34205484E-01 0.14834713E+03</pdfrwt>
<totfact> 0.68991897E+02</totfact>
</mgrwt>
</event>
<event>
 6    4  0.5642870E-004  0.1278132E+03  0.7818608E-02  0.1230737E+00
         -4   -1    0    0    0  501 -0.00000000000E+00  0.00000000000E+00  0.91590678677E+02  0.91599483189E+02  0.12700000000E+01 0.  1.
          4   -1    0    0  502    0  0.00000000000E+00 -0.00000000000E+00 -0.13165710804E+03  0.13166323327E+03  0.12700000000E+01 0.  1.
         25    2    1    2    0    0 -0.20282440523E+02 -0.17319724427E+02  0.43915544268E+02  0.13514732540E+03  0.12499949715E+03 0.  0.
    9000005    1    3    3    0    0  0.24170113963E+02 -0.38440213194E+02  0.66867939113E+02  0.80834186336E+02  0.10000000000E+01 0.  0.
    9000005    1    3    3    0    0 -0.44452554486E+02  0.21120488767E+02 -0.22952394845E+02  0.54313139066E+02  0.10000000000E+01 0.  0.
         21    1    1    2  502  501  0.20282440523E+02  0.17319724427E+02 -0.83981973626E+02  0.88115391062E+02  0.00000000000E+00 0. -1.
<mgrwt>
<rscale>  1 0.12781324E+03</rscale>
<asrwt>0</asrwt>
<pdfrwt beam="2">  1        4 0.20256088E-01 0.12781324E+03</pdfrwt>
<pdfrwt beam="1">  1       -4 0.14092022E-01 0.12781324E+03</pdfrwt>
<totfact> 0.15058710E+03</totfact>
</mgrwt>
</event>
<event>
 6    4  0.5642870E-004  0.1278219E+03  0.7818608E-02  0.1230724E+00
         -4   -1    0    0    0  501 -0.00000000000E+00  0.00000000000E+00  0.77939587454E+01  0.78967520491E+01  0.12700000000E+01 0.  1.
          4   -1    0    0  502    0  0.00000000000E+00 -0.00000000000E+00 -0.76844997536E+03  0.76845102481E+03  0.12700000000E+01 0.  1.
         25    2    1    2    0    0  0.24674891507E+02  0.10208779675E+02 -0.59732578836E+03  0.61084903694E+03  0.12500151613E+03 0.  0.
    9000005    1    3    3    0    0 -0.56690334387E+01  0.60724339316E+02 -0.19755823139E+03  0.20676033980E+03  0.10000000000E+01 0.  0.
    9000005    1    3    3    0    0  0.30343924946E+02 -0.50515559642E+02 -0.39976755697E+03  0.40408869714E+03  0.10000000000E+01 0.  0.
         21    1    1    2  502  501 -0.24674891507E+02 -0.10208779675E+02 -0.16333022826E+03  0.16549873992E+03  0.00000000000E+00 0. -1.
<mgrwt>
<rscale>  1 0.12782194E+03</rscale>
<asrwt>0</asrwt>
<pdfrwt beam="2">  1        4 0.11823100E+00 0.12782194E+03</pdfrwt>
<pdfrwt beam="1">  1       -4 0.12070591E-02 0.12782194E+03</pdfrwt>
<totfact> 0.20669003E+03</totfact>
</mgrwt>
</event>
<event>
 6    4  0.5642870E-004  0.1275759E+03  0.7818608E-02  0.1231098E+00
          4   -1    0    0  502    0  0.00000000000E+00  0.00000000000E+00  0.43030394877E+03  0.43030582291E+03  0.12700000000E+01 0. -1.
         -4   -1    0    0    0  501 -0.00000000000E+00 -0.00000000000E+00 -0.16102182721E+02  0.16152188346E+02  0.12700000000E+01 0. -1.
         25    2    1    2    0    0 -0.23708215615E+02 -0.94213014930E+01  0.25401046891E+03  0.28424798663E+03  0.12499903671E+03 0.  0.
    9000005    1    3    3    0    0  0.48091620072E+02 -0.82105001607E+01  0.15088471882E+03  0.15857936375E+03  0.10000000000E+01 0.  0.
    9000005    1    3    3    0    0 -0.71799835687E+02 -0.12108013323E+01  0.10312575009E+03  0.12566862288E+03  0.10000000000E+01 0.  0.
         21    1    1    2  502  501  0.23708215615E+02  0.94213014930E+01  0.16019129714E+03  0.16221002462E+03  0.00000000000E+00 0. -1.
<mgrwt>
<rscale>  1 0.12757586E+03</rscale>
<asrwt>0</asrwt>
<pdfrwt beam="1">  1        4 0.66204596E-01 0.12757586E+03</pdfrwt>
<pdfrwt beam="2">  1       -4 0.24812497E-02 0.12757586E+03</pdfrwt>
<totfact> 0.25334568E+03</totfact>
</mgrwt>
</event>
<event>
 6    4  0.5642870E-004  0.1266526E+03  0.7818608E-02  0.1232509E+00
         -4   -1    0    0    0  501 -0.00000000000E+00  0.00000000000E+00  0.18657176575E+03  0.18657608816E+03  0.12700000000E+01 0.  1.
          4   -1    0    0  502    0  0.00000000000E+00 -0.00000000000E+00 -0.53851453576E+02  0.53866426949E+02  0.12700000000E+01 0.  1.
         25    2    1    2    0    0 -0.13148282538E+02 -0.15590836218E+02  0.16145617672E+03  0.20520473115E+03  0.12499973271E+03 0.  0.
    9000005    1    3    3    0    0  0.42523865610E+01  0.36191256895E+02  0.18443802969E+01  0.36500569938E+02  0.10000000000E+01 0.  0.
    9000005    1    3    3    0    0 -0.17400669099E+02 -0.51782093113E+02  0.15961179642E+03  0.16870416121E+03  0.10000000000E+01 0.  0.
         21    1    1    2  502  501  0.13148282538E+02  0.15590836218E+02 -0.28735864546E+02  0.35237783967E+02  0.00000000000E+00 0.  1.
<mgrwt>
<rscale>  1 0.12665261E+03</rscale>
<asrwt>0</asrwt>
<pdfrwt beam="2">  1        4 0.82863234E-02 0.12665261E+03</pdfrwt>
<pdfrwt beam="1">  1       -4 0.28704832E-01 0.12665261E+03</pdfrwt>
<totfact> 0.19477577E+03</totfact>
</mgrwt>
</event>
<event>
 6    4  0.5642870E-004  0.1273607E+03  0.7818608E-02  0.1231425E+00
         -4   -1    0    0    0  501 -0.00000000000E+00  0.00000000000E+00  0.54760884008E+02  0.54775608781E+02  0.12700000000E+01 0.  1.
          4   -1    0    0  502    0  0.00000000000E+00 -0.00000000000E+00 -0.10577803778E+03  0.10578566149E+03  0.12700000000E+01 0.  1.
         25    2    1    2    0    0  0.19824598344E+02  0.14269786848E+02 -0.38141673261E+02  0.13294932513E+03  0.12499637713E+03 0.  0.
    9000005    1    3    3    0    0 -0.53344996984E+02  0.62091189217E+01 -0.14735128499E+02  0.55698885742E+02  0.10000000000E+01 0.  0.
    9000005    1    3    3    0    0  0.73169595327E+02  0.80606679264E+01 -0.23406544762E+02  0.77250439387E+02  0.10000000000E+01 0.  0.
         21    1    1    2  502  501 -0.19824598344E+02 -0.14269786848E+02 -0.12875480515E+02  0.27611945145E+02  0.00000000000E+00 0.  1.
<mgrwt>
<rscale>  1 0.12736065E+03</rscale>
<asrwt>0</asrwt>
<pdfrwt beam="2">  1        4 0.16275263E-01 0.12736065E+03</pdfrwt>
<pdfrwt beam="1">  1       -4 0.84264705E-02 0.12736065E+03</pdfrwt>
<totfact> 0.53085573E+03</totfact>
</mgrwt>
</event>
<event>
 6    4  0.5642870E-004  0.1318039E+03  0.7818608E-02  0.1224803E+00
          4   -1    0    0  502    0  0.00000000000E+00  0.00000000000E+00  0.33683232404E+03  0.33683471825E+03  0.12700000000E+01 0.  1.
         -4   -1    0    0    0  501 -0.00000000000E+00 -0.00000000000E+00 -0.22423503737E+02  0.22459439437E+02  0.12700000000E+01 0.  1.
         25    2    1    2    0    0  0.42194588752E+01  0.41589188544E+02  0.22958733776E+03  0.26473122447E+03  0.12499924446E+03 0.  0.
    9000005    1    3    3    0    0 -0.26888139991E+01  0.84914330348E+02  0.12327506563E+03  0.14971778460E+03  0.10000000000E+01 0.  0.
    9000005    1    3    3    0    0  0.69082728743E+01 -0.43325141804E+02  0.10631227213E+03  0.11501343988E+03  0.10000000000E+01 0.  0.
         21    1    1    2  502  501 -0.42194588752E+01 -0.41589188544E+02  0.84821482546E+02  0.94562933216E+02  0.00000000000E+00 0.  1.
<mgrwt>
<rscale>  1 0.13180393E+03</rscale>
<asrwt>0</asrwt>
<pdfrwt beam="1">  1        4 0.51823302E-01 0.13180393E+03</pdfrwt>
<pdfrwt beam="2">  1       -4 0.34527185E-02 0.13180393E+03</pdfrwt>
<totfact> 0.25409166E+03</totfact>
</mgrwt>
</event>
<event>
 6    4  0.5642870E-004  0.1473491E+03  0.7818608E-02  0.1203769E+00
          4   -1    0    0  502    0  0.00000000000E+00  0.00000000000E+00  0.27468114205E+03  0.27468407798E+03  0.12700000000E+01 0.  1.
         -4   -1    0    0    0  501 -0.00000000000E+00 -0.00000000000E+00 -0.46368516124E+02  0.46385905052E+02  0.12700000000E+01 0.  1.
         25    2    1    2    0    0 -0.45359547660E+02  0.63478890974E+02  0.14037942244E+03  0.20351443685E+03  0.12499874239E+03 0.  0.
    9000005    1    3    3    0    0  0.32437026790E+02  0.32402317023E+02  0.10103607741E+03  0.11095656715E+03  0.10000000000E+01 0.  0.
    9000005    1    3    3    0    0 -0.77796574450E+02  0.31076573952E+02  0.39343345020E+02  0.92557869693E+02  0.10000000000E+01 0.  0.
         21    1    1    2  502  501  0.45359547660E+02 -0.63478890974E+02  0.87933203492E+02  0.11755554619E+03  0.00000000000E+00 0.  1.
<mgrwt>
<rscale>  1 0.14734905E+03</rscale>
<asrwt>0</asrwt>
<pdfrwt beam="1">  1        4 0.42260201E-01 0.14734905E+03</pdfrwt>
<pdfrwt beam="2">  1       -4 0.71351812E-02 0.14734905E+03</pdfrwt>
<totfact> 0.12218083E+03</totfact>
</mgrwt>
</event>
<event>
 6    4  0.5642870E-004  0.1375656E+03  0.7818608E-02  0.1216643E+00
         -4   -1    0    0    0  501 -0.00000000000E+00  0.00000000000E+00  0.76792497160E+02  0.76802998119E+02  0.12700000000E+01 0.  1.
          4   -1    0    0  502    0  0.00000000000E+00 -0.00000000000E+00 -0.15770402515E+03  0.15770913876E+03  0.12700000000E+01 0.  1.
         25    2    1    2    0    0 -0.57329380999E+02 -0.36245830639E+01 -0.28532793050E+01  0.13759523579E+03  0.12499804871E+03 0.  0.
    9000005    1    3    3    0    0 -0.40437543609E+02  0.43678425460E+02  0.39868011389E+02  0.71648155007E+02  0.10000000000E+01 0.  0.
    9000005    1    3    3    0    0 -0.16891837390E+02 -0.47303008524E+02 -0.42721290694E+02  0.65947080788E+02  0.10000000000E+01 0.  0.
         21    1    1    2  502  501  0.57329380999E+02  0.36245830639E+01 -0.78058248686E+02  0.96916901086E+02  0.00000000000E+00 0.  1.
<mgrwt>
<rscale>  1 0.13756565E+03</rscale>
<asrwt>0</asrwt>
<pdfrwt beam="2">  1        4 0.24263359E-01 0.13756565E+03</pdfrwt>
<pdfrwt beam="1">  1       -4 0.11815432E-01 0.13756565E+03</pdfrwt>
<totfact> 0.14923611E+03</totfact>
</mgrwt>
</event>
<event>
 6    4  0.5642870E-004  0.1548470E+03  0.7818608E-02  0.1194640E+00
         -4   -1    0    0    0  501 -0.00000000000E+00  0.00000000000E+00  0.13228834268E+03  0.13229443870E+03  0.12700000000E+01 0. -1.
          4   -1    0    0  502    0  0.00000000000E+00 -0.00000000000E+00 -0.13257975404E+03  0.13258583665E+03  0.12700000000E+01 0. -1.
         25    2    1    2    0    0  0.84111534767E+02  0.35740497269E+02  0.47208436131E+02  0.16188333881E+03  0.12500178205E+03 0.  0.
    9000005    1    3    3    0    0 -0.29088151952E+02  0.28158486936E+02  0.20198790873E+02  0.45254967940E+02  0.10000000000E+01 0.  0.
    9000005    1    3    3    0    0  0.11319968672E+03  0.75820103338E+01  0.27009645257E+02  0.11662837087E+03  0.10000000000E+01 0.  0.
         21    1    1    2  502  501 -0.84111534767E+02 -0.35740497269E+02 -0.47499847483E+02  0.10299693654E+03  0.00000000000E+00 0. -1.
<mgrwt>
<rscale>  1 0.15484695E+03</rscale>
<asrwt>0</asrwt>
<pdfrwt beam="2">  1        4 0.20397822E-01 0.15484695E+03</pdfrwt>
<pdfrwt beam="1">  1       -4 0.20352989E-01 0.15484695E+03</pdfrwt>
<totfact> 0.80772862E+02</totfact>
</mgrwt>
</event>
<event>
 6    4  0.5642870E-004  0.1322846E+03  0.7818608E-02  0.1224105E+00
         -4   -1    0    0    0  501 -0.00000000000E+00  0.00000000000E+00  0.96973950199E+02  0.96982265994E+02  0.12700000000E+01 0. -1.
          4   -1    0    0  502    0  0.00000000000E+00 -0.00000000000E+00 -0.11704704200E+03  0.11705393176E+03  0.12700000000E+01 0. -1.
         25    2    1    2    0    0  0.40500147941E+02  0.15301361710E+02  0.41611171475E+02  0.13867478860E+03  0.12499925500E+03 0.  0.
    9000005    1    3    3    0    0  0.13352155909E+02 -0.33727210932E+02  0.67728244032E+02  0.76836969386E+02  0.10000000000E+01 0.  0.
    9000005    1    3    3    0    0  0.27147992032E+02  0.49028572643E+02 -0.26117072558E+02  0.61837819219E+02  0.10000000000E+01 0.  0.
         21    1    1    2  502  501 -0.40500147941E+02 -0.15301361710E+02 -0.61684263275E+02  0.75361409151E+02  0.00000000000E+00 0.  1.
<mgrwt>
<rscale>  1 0.13228457E+03</rscale>
<asrwt>0</asrwt>
<pdfrwt beam="2">  1        4 0.18008407E-01 0.13228457E+03</pdfrwt>
<pdfrwt beam="1">  1       -4 0.14920239E-01 0.13228457E+03</pdfrwt>
<totfact> 0.16958950E+03</totfact>
</mgrwt>
</event>
<event>
 6    4  0.5642870E-004  0.1280989E+03  0.7818608E-02  0.1230304E+00
         -4   -1    0    0    0  501 -0.00000000000E+00  0.00000000000E+00  0.57588312497E+02  0.57602314504E+02  0.12700000000E+01 0.  1.
          4   -1    0    0  502    0  0.00000000000E+00 -0.00000000000E+00 -0.13650269645E+03  0.13650860426E+03  0.12700000000E+01 0.  1.
         25    2    1    2    0    0 -0.18939301403E+02  0.20640088254E+02 -0.21042410252E+02  0.12981569561E+03  0.12499848566E+03 0.  0.
    9000005    1    3    3    0    0  0.52172669288E+02  0.11029023776E+02 -0.22858955465E+02  0.58027223189E+02  0.10000000000E+01 0.  0.
    9000005    1    3    3    0    0 -0.71111970691E+02  0.96110644779E+01  0.18165452126E+01  0.71788472421E+02  0.10000000000E+01 0.  0.
         21    1    1    2  502  501  0.18939301403E+02 -0.20640088254E+02 -0.57871973697E+02  0.64295223154E+02  0.00000000000E+00 0.  1.
<mgrwt>
<rscale>  1 0.12809891E+03</rscale>
<asrwt>0</asrwt>
<pdfrwt beam="2">  1        4 0.21001946E-01 0.12809891E+03</pdfrwt>
<pdfrwt beam="1">  1       -4 0.88612719E-02 0.12809891E+03</pdfrwt>
<totfact> 0.31044033E+03</totfact>
</mgrwt>
</event>
<event>
 6    4  0.5642870E-004  0.1266147E+03  0.7818608E-02  0.1232567E+00
          4   -1    0    0  502    0  0.00000000000E+00  0.00000000000E+00  0.72409596253E+01  0.73514893930E+01  0.12700000000E+01 0. -1.
         -4   -1    0    0    0  501 -0.00000000000E+00 -0.00000000000E+00 -0.92196679471E+03  0.92196766941E+03  0.12700000000E+01 0. -1.
         25    2    1    2    0    0 -0.21805468625E+01  0.20030409141E+02 -0.88085581464E+03  0.88990913013E+03  0.12500128656E+03 0.  0.
    9000005    1    3    3    0    0  0.40706709664E+02  0.36074030606E+02 -0.19271914420E+03  0.20024994491E+03  0.10000000000E+01 0.  0.
    9000005    1    3    3    0    0 -0.42887256527E+02 -0.16043621466E+02 -0.68813667044E+03  0.68965918523E+03  0.10000000000E+01 0.  0.
         21    1    1    2  502  501  0.21805468625E+01 -0.20030409141E+02 -0.33870020447E+02  0.39410028673E+02  0.00000000000E+00 0. -1.
<mgrwt>
<rscale>  1 0.12661475E+03</rscale>
<asrwt>0</asrwt>
<pdfrwt beam="1">  1        4 0.11225641E-02 0.12661475E+03</pdfrwt>
<pdfrwt beam="2">  1       -4 0.14184952E+00 0.12661475E+03</pdfrwt>
<totfact> 0.14744387E+03</totfact>
</mgrwt>
</event>
<event>
 6    4  0.5642870E-004  0.1268653E+03  0.7818608E-02  0.1232183E+00
         -4   -1    0    0    0  501 -0.00000000000E+00  0.00000000000E+00  0.22296086945E+02  0.22332227678E+02  0.12700000000E+01 0. -1.
          4   -1    0    0  502    0  0.00000000000E+00 -0.00000000000E+00 -0.27471478207E+03  0.27471771764E+03  0.12700000000E+01 0. -1.
         25    2    1    2    0    0  0.52930636177E+01 -0.21024965732E+02 -0.17178936559E+03  0.21355650553E+03  0.12499891687E+03 0.  0.
    9000005    1    3    3    0    0  0.40353859413E+02  0.19109785694E+02 -0.14906727866E+03  0.15561385364E+03  0.10000000000E+01 0.  0.
    9000005    1    3    3    0    0 -0.35060795796E+02 -0.40134751426E+02 -0.22722086935E+02  0.57942651894E+02  0.10000000000E+01 0.  0.
         21    1    1    2  502  501 -0.52930636177E+01  0.21024965732E+02 -0.80629329535E+02  0.83493439789E+02  0.00000000000E+00 0. -1.
<mgrwt>
<rscale>  1 0.12686526E+03</rscale>
<asrwt>0</asrwt>
<pdfrwt beam="2">  1        4 0.42266816E-01 0.12686526E+03</pdfrwt>
<pdfrwt beam="1">  1       -4 0.34331733E-02 0.12686526E+03</pdfrwt>
<totfact> 0.38295693E+03</totfact>
</mgrwt>
</event>
<event>
 6    4  0.5642870E-004  0.1299583E+03  0.7818608E-02  0.1227518E+00
          4   -1    0    0  502    0  0.00000000000E+00  0.00000000000E+00  0.91289587020E+02  0.91298420569E+02  0.12700000000E+01 0.  1.
         -4   -1    0    0    0  501 -0.00000000000E+00 -0.00000000000E+00 -0.24905105633E+03  0.24905429440E+03  0.12700000000E+01 0.  1.
         25    2    1    2    0    0  0.34693983095E+02  0.78959734817E+01 -0.22753354973E+03  0.26203182333E+03  0.12499256507E+03 0.  0.
    9000005    1    3    3    0    0  0.27516739334E+01  0.61570987893E+02 -0.15193737987E+03  0.16396501353E+03  0.10000000000E+01 0.  0.
    9000005    1    3    3    0    0  0.31942309162E+02 -0.53675014412E+02 -0.75596169861E+02  0.98066809800E+02  0.10000000000E+01 0.  0.
         21    1    1    2  502  501 -0.34693983095E+02 -0.78959734817E+01  0.69772080424E+02  0.78320891638E+02  0.00000000000E+00 0.  1.
<mgrwt>
<rscale>  1 0.12995830E+03</rscale>
<asrwt>0</asrwt>
<pdfrwt beam="1">  1        4 0.14045481E-01 0.12995830E+03</pdfrwt>
<pdfrwt beam="2">  1       -4 0.38316476E-01 0.12995830E+03</pdfrwt>
<totfact> 0.46095146E+02</totfact>
</mgrwt>
</event>
<event>
 6    4  0.5642870E-004  0.1286012E+03  0.7818608E-02  0.1229546E+00
         -4   -1    0    0    0  501 -0.00000000000E+00  0.00000000000E+00  0.13653990856E+02  0.13712926977E+02  0.12700000000E+01 0. -1.
          4   -1    0    0  502    0  0.00000000000E+00 -0.00000000000E+00 -0.56013383780E+03  0.56013527755E+03  0.12700000000E+01 0. -1.
         25    2    1    2    0    0  0.19086647153E+02  0.23435240604E+02 -0.31253722484E+03  0.33796123786E+03  0.12499908314E+03 0.  0.
    9000005    1    3    3    0    0 -0.22915561997E+02 -0.15214155460E+02 -0.25647991190E+03  0.25795259006E+03  0.10000000000E+01 0.  0.
    9000005    1    3    3    0    0  0.42002209151E+02  0.38649396065E+02 -0.56057312933E+02  0.80008647802E+02  0.10000000000E+01 0.  0.
         21    1    1    2  502  501 -0.19086647153E+02 -0.23435240604E+02 -0.23394262211E+03  0.23588696666E+03  0.00000000000E+00 0. -1.
<mgrwt>
<rscale>  1 0.12860125E+03</rscale>
<asrwt>0</asrwt>
<pdfrwt beam="2">  1        4 0.86179063E-01 0.12860125E+03</pdfrwt>
<pdfrwt beam="1">  1       -4 0.21052587E-02 0.12860125E+03</pdfrwt>
<totfact> 0.18394142E+03</totfact>
</mgrwt>
</event>
<event>
 6    4  0.5642870E-004  0.1283141E+03  0.7818608E-02  0.1229979E+00
         -4   -1    0    0    0  501 -0.00000000000E+00  0.00000000000E+00  0.21281425560E+02  0.21319286429E+02  0.12700000000E+01 0. -1.
          4   -1    0    0  502    0  0.00000000000E+00 -0.00000000000E+00 -0.48452463539E+03  0.48452629980E+03  0.12700000000E+01 0. -1.
         25    2    1    2    0    0  0.28823867105E+02  0.29645077738E+01 -0.17960769052E+03  0.22073383369E+03  0.12499959688E+03 0.  0.
    9000005    1    3    3    0    0  0.38706765981E+00  0.36294174652E+02 -0.46945165121E+00  0.36313046139E+02  0.10000000000E+01 0.  0.
    9000005    1    3    3    0    0  0.28436799445E+02 -0.33329666878E+02 -0.17913823887E+03  0.18442078755E+03  0.10000000000E+01 0.  0.
         21    1    1    2  502  501 -0.28823867105E+02 -0.29645077738E+01 -0.28363551931E+03  0.28511175254E+03  0.00000000000E+00 0. -1.
<mgrwt>
<rscale>  1 0.12831408E+03</rscale>
<asrwt>0</asrwt>
<pdfrwt beam="2">  1        4 0.74545283E-01 0.12831408E+03</pdfrwt>
<pdfrwt beam="1">  1       -4 0.32771063E-02 0.12831408E+03</pdfrwt>
<totfact> 0.12722118E+03</totfact>
</mgrwt>
</event>
<event>
 6    4  0.5642870E-004  0.1324071E+03  0.7818608E-02  0.1223927E+00
          4   -1    0    0  502    0  0.00000000000E+00  0.00000000000E+00  0.62033495498E+03  0.62033625501E+03  0.12700000000E+01 0.  1.
         -4   -1    0    0    0  501 -0.00000000000E+00 -0.00000000000E+00 -0.16092958183E+02  0.16142992383E+02  0.12700000000E+01 0.  1.
         25    2    1    2    0    0 -0.23358175731E+02 -0.36903076424E+02  0.28490499345E+03  0.31416951571E+03  0.12499675151E+03 0.  0.
    9000005    1    3    3    0    0  0.92981809515E+01 -0.48603793188E+02  0.32098881412E+02  0.58992567915E+02  0.10000000000E+01 0.  0.
    9000005    1    3    3    0    0 -0.32656356683E+02  0.11700716764E+02  0.25280611203E+03  0.25517694780E+03  0.10000000000E+01 0.  0.
         21    1    1    2  502  501  0.23358175731E+02  0.36903076424E+02  0.31933700335E+03  0.32230973168E+03  0.00000000000E+00 0.  1.
<mgrwt>
<rscale>  1 0.13240706E+03</rscale>
<asrwt>0</asrwt>
<pdfrwt beam="1">  1        4 0.95440094E-01 0.13240706E+03</pdfrwt>
<pdfrwt beam="2">  1       -4 0.24797886E-02 0.13240706E+03</pdfrwt>
<totfact> 0.11408761E+03</totfact>
</mgrwt>
</event>
<event>
 6    4  0.5642870E-004  0.1276976E+03  0.7818608E-02  0.1230913E+00
         -4   -1    0    0    0  501 -0.00000000000E+00  0.00000000000E+00  0.98494510252E+02  0.98502697678E+02  0.12700000000E+01 0. -1.
          4   -1    0    0  502    0  0.00000000000E+00 -0.00000000000E+00 -0.67532207622E+02  0.67544148276E+02  0.12700000000E+01 0. -1.
         25    2    1    2    0    0 -0.14712132615E+02  0.21569443720E+02  0.46221788642E+02  0.13580548914E+03  0.12499995755E+03 0.  0.
    9000005    1    3    3    0    0 -0.99735973223E+01  0.55402092656E+02  0.73140159241E+02  0.92300310985E+02  0.10000000000E+01 0.  0.
    9000005    1    3    3    0    0 -0.47385352926E+01 -0.33832648937E+02 -0.26918370599E+02  0.43505178157E+02  0.10000000000E+01 0.  0.
         21    1    1    2  502  501  0.14712132615E+02 -0.21569443720E+02 -0.15259486011E+02  0.30241356811E+02  0.00000000000E+00 0.  1.
<mgrwt>
<rscale>  1 0.12769760E+03</rscale>
<asrwt>0</asrwt>
<pdfrwt beam="2">  1        4 0.10391119E-01 0.12769760E+03</pdfrwt>
<pdfrwt beam="1">  1       -4 0.15154550E-01 0.12769760E+03</pdfrwt>
<totfact> 0.42380620E+03</totfact>
</mgrwt>
</event>
<event>
 6    4  0.5642870E-004  0.1267361E+03  0.7818608E-02  0.1232381E+00
          4   -1    0    0  502    0  0.00000000000E+00  0.00000000000E+00  0.36720983297E+02  0.36742938292E+02  0.12700000000E+01 0. -1.
         -4   -1    0    0    0  501 -0.00000000000E+00 -0.00000000000E+00 -0.14849202587E+03  0.14849745670E+03  0.12700000000E+01 0. -1.
         25    2    1    2    0    0 -0.76712418760E+01 -0.19530076374E+02 -0.96168741789E+02  0.15909266804E+03  0.12498711250E+03 0.  0.
    9000005    1    3    3    0    0  0.32644508389E+02 -0.13659471877E+02 -0.11039144044E+03  0.11592892314E+03  0.10000000000E+01 0.  0.
    9000005    1    3    3    0    0 -0.40315750265E+02 -0.58706044975E+01  0.14222698646E+02  0.43163744895E+02  0.10000000000E+01 0.  0.
         21    1    1    2  502  501  0.76712418760E+01  0.19530076374E+02 -0.15602300779E+02  0.26147726951E+02  0.00000000000E+00 0. -1.
<mgrwt>
<rscale>  1 0.12673614E+03</rscale>
<asrwt>0</asrwt>
<pdfrwt beam="1">  1        4 0.56514888E-02 0.12673614E+03</pdfrwt>
<pdfrwt beam="2">  1       -4 0.22847033E-01 0.12673614E+03</pdfrwt>
<totfact> 0.55588068E+03</totfact>
</mgrwt>
</event>
<event>
 6    4  0.5642870E-004  0.1276071E+03  0.7818608E-02  0.1231050E+00
          4   -1    0    0  502    0  0.00000000000E+00  0.00000000000E+00  0.15140396994E+04  0.15140402320E+04  0.12700000000E+01 0.  1.
         -4   -1    0    0    0  501 -0.00000000000E+00 -0.00000000000E+00 -0.90798229548E+01  0.91682105610E+01  0.12700000000E+01 0.  1.
         25    2    1    2    0    0 -0.14406381514E+02 -0.21235316979E+02  0.44491515842E+03  0.46285317821E+03  0.12500033550E+03 0.  0.
    9000005    1    3    3    0    0 -0.46974455129E+01  0.23018750681E+02  0.99488476110E+01  0.25532497842E+02  0.10000000000E+01 0.  0.
    9000005    1    3    3    0    0 -0.97089360008E+01 -0.44254067660E+02  0.43496631081E+03  0.43732068037E+03  0.10000000000E+01 0.  0.
         21    1    1    2  502  501  0.14406381514E+02  0.21235316979E+02  0.10600447180E+04  0.10603552644E+04  0.00000000000E+00 0.  1.
<mgrwt>
<rscale>  1 0.12760708E+03</rscale>
<asrwt>0</asrwt>
<pdfrwt beam="1">  1        4 0.23293592E+00 0.12760708E+03</pdfrwt>
<pdfrwt beam="2">  1       -4 0.14037365E-02 0.12760708E+03</pdfrwt>
<totfact> 0.26830774E+02</totfact>
</mgrwt>
</event>
<event>
 6    4  0.5642870E-004  0.1292794E+03  0.7818608E-02  0.1228529E+00
         -4   -1    0    0    0  501 -0.00000000000E+00  0.00000000000E+00  0.65421440616E+03  0.65421563886E+03  0.12700000000E+01 0.  1.
          4   -1    0    0  502    0  0.00000000000E+00 -0.00000000000E+00 -0.10198318142E+02  0.10277090684E+02  0.12700000000E+01 0.  1.
         25    2    1    2    0    0 -0.36959431229E+01  0.32789135148E+02  0.54499942252E+03  0.56012277493E+03  0.12499746026E+03 0.  0.
    9000005    1    3    3    0    0 -0.41919547724E+02  0.65756434036E+02  0.29962337323E+03  0.30960672293E+03  0.10000000000E+01 0.  0.
    9000005    1    3    3    0    0  0.38223604602E+02 -0.32967298888E+02  0.24537604929E+03  0.25051605200E+03  0.10000000000E+01 0.  0.
         21    1    1    2  502  501  0.36959431229E+01 -0.32789135148E+02  0.99016665499E+02  0.10436995461E+03  0.00000000000E+00 0.  1.
<mgrwt>
<rscale>  1 0.12927936E+03</rscale>
<asrwt>0</asrwt>
<pdfrwt beam="2">  1        4 0.15751259E-02 0.12927936E+03</pdfrwt>
<pdfrwt beam="1">  1       -4 0.10065455E+00 0.12927936E+03</pdfrwt>
<totfact> 0.20189414E+03</totfact>
</mgrwt>
</event>
<event>
 6    4  0.5642870E-004  0.1532215E+03  0.7818608E-02  0.1196569E+00
         -4   -1    0    0    0  501 -0.00000000000E+00  0.00000000000E+00  0.48398606368E+03  0.48398772995E+03  0.12700000000E+01 0.  1.
          4   -1    0    0  502    0  0.00000000000E+00 -0.00000000000E+00 -0.31210879541E+02  0.31236707601E+02  0.12700000000E+01 0.  1.
         25    2    1    2    0    0 -0.53749040593E+02 -0.70449836759E+02  0.32974121633E+03  0.36360156295E+03  0.12499875189E+03 0.  0.
    9000005    1    3    3    0    0  0.14373700965E+02 -0.42271200341E+02  0.27386824421E+02  0.52387935726E+02  0.10000000000E+01 0.  0.
    9000005    1    3    3    0    0 -0.68122741557E+02 -0.28178636417E+02  0.30235439191E+03  0.31121362723E+03  0.10000000000E+01 0.  0.
         21    1    1    2  502  501  0.53749040593E+02  0.70449836759E+02  0.12303396782E+03  0.15162287460E+03  0.00000000000E+00 0.  1.
<mgrwt>
<rscale>  1 0.15322150E+03</rscale>
<asrwt>0</asrwt>
<pdfrwt beam="2">  1        4 0.48037890E-02 0.15322150E+03</pdfrwt>
<pdfrwt beam="1">  1       -4 0.74461505E-01 0.15322150E+03</pdfrwt>
<totfact> 0.72031125E+02</totfact>
</mgrwt>
</event>
<event>
 6    4  0.5642870E-004  0.1269583E+03  0.7818608E-02  0.1232040E+00
         -4   -1    0    0    0  501 -0.00000000000E+00  0.00000000000E+00  0.57242654514E+02  0.57256741051E+02  0.12700000000E+01 0.  1.
          4   -1    0    0  502    0  0.00000000000E+00 -0.00000000000E+00 -0.10570543383E+03  0.10571306278E+03  0.12700000000E+01 0.  1.
         25    2    1    2    0    0 -0.22126509095E+02 -0.15473856263E+01 -0.22695574440E+02  0.12897089717E+03  0.12500570551E+03 0.  0.
    9000005    1    3    3    0    0 -0.57201719857E+02  0.31021596335E+02 -0.41885011948E+02  0.77393348679E+02  0.10000000000E+01 0.  0.
    9000005    1    3    3    0    0  0.35075210762E+02 -0.32568981961E+02  0.19189437509E+02  0.51577548487E+02  0.10000000000E+01 0.  0.
         21    1    1    2  502  501  0.22126509095E+02  0.15473856263E+01 -0.25767204880E+02  0.33998906664E+02  0.00000000000E+00 0. -1.
<mgrwt>
<rscale>  1 0.12695827E+03</rscale>
<asrwt>0</asrwt>
<pdfrwt beam="2">  1        4 0.16264045E-01 0.12695827E+03</pdfrwt>
<pdfrwt beam="1">  1       -4 0.88082327E-02 0.12695827E+03</pdfrwt>
<totfact> 0.49334509E+03</totfact>
</mgrwt>
</event>
<event>
 6    4  0.5642870E-004  0.1271140E+03  0.7818608E-02  0.1231802E+00
         -4   -1    0    0    0  501 -0.00000000000E+00  0.00000000000E+00  0.14478181168E+04  0.14478186739E+04  0.12700000000E+01 0. -1.
          4   -1    0    0  502    0  0.00000000000E+00 -0.00000000000E+00 -0.96422422198E+01  0.97255197818E+01  0.12700000000E+01 0. -1.
         25    2    1    2    0    0 -0.18596068903E+01  0.23007284333E+02  0.14256048096E+04  0.14312606447E+04  0.12500066621E+03 0.  0.
    9000005    1    3    3    0    0 -0.24595389869E+02  0.50422605981E+02  0.30680991619E+03  0.31189853649E+03  0.10000000000E+01 0.  0.
    9000005    1    3    3    0    0  0.22735782979E+02 -0.27415321648E+02  0.11187948934E+04  0.11193621082E+04  0.10000000000E+01 0.  0.
         21    1    1    2  502  501  0.18596068903E+01 -0.23007284333E+02  0.12571065012E+02  0.26283548956E+02  0.00000000000E+00 0. -1.
<mgrwt>
<rscale>  1 0.12711396E+03</rscale>
<asrwt>0</asrwt>
<pdfrwt beam="2">  1        4 0.14898719E-02 0.12711396E+03</pdfrwt>
<pdfrwt beam="1">  1       -4 0.22274752E+00 0.12711396E+03</pdfrwt>
<totfact> 0.28113576E+02</totfact>
</mgrwt>
</event>
<event>
 6    4  0.5642870E-004  0.1271949E+03  0.7818608E-02  0.1231678E+00
          4   -1    0    0  502    0  0.00000000000E+00  0.00000000000E+00  0.11574251815E+03  0.11574948557E+03  0.12700000000E+01 0. -1.
         -4   -1    0    0    0  501 -0.00000000000E+00 -0.00000000000E+00 -0.49341131911E+02  0.49357473580E+02  0.12700000000E+01 0. -1.
         25    2    1    2    0    0 -0.17963740502E+01 -0.23534520713E+02  0.60090414133E+02  0.14067482879E+03  0.12498579503E+03 0.  0.
    9000005    1    3    3    0    0 -0.47898949020E+02 -0.37506496357E+02  0.68654560516E+02  0.91736008556E+02  0.10000000000E+01 0.  0.
    9000005    1    3    3    0    0  0.46102574970E+02  0.13971975644E+02 -0.85641463830E+01  0.48938820230E+02  0.10000000000E+01 0.  0.
         21    1    1    2  502  501  0.17963740502E+01  0.23534520713E+02  0.63109721105E+01  0.24432130359E+02  0.00000000000E+00 0. -1.
<mgrwt>
<rscale>  1 0.12719493E+03</rscale>
<asrwt>0</asrwt>
<pdfrwt beam="1">  1        4 0.17808334E-01 0.12719493E+03</pdfrwt>
<pdfrwt beam="2">  1       -4 0.75927364E-02 0.12719493E+03</pdfrwt>
<totfact> 0.53785025E+03</totfact>
</mgrwt>
</event>
<event>
 6    4  0.5642870E-004  0.1304086E+03  0.7818608E-02  0.1226851E+00
          4   -1    0    0  502    0  0.00000000000E+00  0.00000000000E+00  0.12665953791E+03  0.12666590482E+03  0.12700000000E+01 0.  1.
         -4   -1    0    0    0  501 -0.00000000000E+00 -0.00000000000E+00 -0.59508914817E+02  0.59522465025E+02  0.12700000000E+01 0.  1.
         25    2    1    2    0    0  0.22958597037E+02  0.29237909869E+02  0.30380215712E+02  0.13390055663E+03  0.12499779602E+03 0.  0.
    9000005    1    3    3    0    0 -0.13277840760E+02  0.60660585730E+02  0.52265528193E+02  0.81170765388E+02  0.10000000000E+01 0.  0.
    9000005    1    3    3    0    0  0.36236437796E+02 -0.31422675861E+02 -0.21885312482E+02  0.52729791246E+02  0.10000000000E+01 0.  0.
         21    1    1    2  502  501 -0.22958597037E+02 -0.29237909869E+02  0.36770407383E+02  0.52287813213E+02  0.00000000000E+00 0.  1.
<mgrwt>
<rscale>  1 0.13040859E+03</rscale>
<asrwt>0</asrwt>
<pdfrwt beam="1">  1        4 0.19487615E-01 0.13040859E+03</pdfrwt>
<pdfrwt beam="2">  1       -4 0.91567498E-02 0.13040859E+03</pdfrwt>
<totfact> 0.33772293E+03</totfact>
</mgrwt>
</event>
<event>
 6    4  0.5642870E-004  0.1316954E+03  0.7818608E-02  0.1224962E+00
         -4   -1    0    0    0  501 -0.00000000000E+00  0.00000000000E+00  0.47852300379E+03  0.47852468908E+03  0.12700000000E+01 0. -1.
          4   -1    0    0  502    0  0.00000000000E+00 -0.00000000000E+00 -0.15853841973E+02  0.15904628424E+02  0.12700000000E+01 0. -1.
         25    2    1    2    0    0  0.27761123105E+01  0.41359702982E+02  0.37503156672E+03  0.39748252846E+03  0.12500141026E+03 0.  0.
    9000005    1    3    3    0    0 -0.65737070901E+01 -0.41355910146E+02  0.72747828439E+02  0.83945050310E+02  0.10000000000E+01 0.  0.
    9000005    1    3    3    0    0  0.93498194006E+01  0.82715613128E+02  0.30228373828E+03  0.31353747815E+03  0.10000000000E+01 0.  0.
         21    1    1    2  502  501 -0.27761123105E+01 -0.41359702982E+02  0.87637595096E+02  0.96946789036E+02  0.00000000000E+00 0.  1.
<mgrwt>
<rscale>  1 0.13169542E+03</rscale>
<asrwt>0</asrwt>
<pdfrwt beam="2">  1        4 0.24430891E-02 0.13169542E+03</pdfrwt>
<pdfrwt beam="1">  1       -4 0.73622954E-01 0.13169542E+03</pdfrwt>
<totfact> 0.20797630E+03</totfact>
</mgrwt>
</event>
<event>
 6    4  0.5642870E-004  0.1275229E+03  0.7818608E-02  0.1231178E+00
         -4   -1    0    0    0  501 -0.00000000000E+00  0.00000000000E+00  0.35662828719E+03  0.35663054850E+03  0.12700000000E+01 0. -1.
          4   -1    0    0  502    0  0.00000000000E+00 -0.00000000000E+00 -0.29040132223E+02  0.29067889148E+02  0.12700000000E+01 0. -1.
         25    2    1    2    0    0 -0.12442839111E+02 -0.21967505103E+02  0.33576064100E+03  0.35916195232E+03  0.12499881769E+03 0.  0.
    9000005    1    3    3    0    0 -0.28633888969E+02 -0.56888894522E+02  0.29974578296E+03  0.30643886882E+03  0.10000000000E+01 0.  0.
    9000005    1    3    3    0    0  0.16191049858E+02  0.34921389419E+02  0.36014858034E+02  0.52723083499E+02  0.10000000000E+01 0.  0.
         21    1    1    2  502  501  0.12442839111E+02  0.21967505103E+02 -0.81724860344E+01  0.26536485328E+02  0.00000000000E+00 0. -1.
<mgrwt>
<rscale>  1 0.12752294E+03</rscale>
<asrwt>0</asrwt>
<pdfrwt beam="2">  1        4 0.44700215E-02 0.12752294E+03</pdfrwt>
<pdfrwt beam="1">  1       -4 0.54868203E-01 0.12752294E+03</pdfrwt>
<totfact> 0.14889443E+03</totfact>
</mgrwt>
</event>
<event>
 6    4  0.5642870E-004  0.1343268E+03  0.7818608E-02  0.1221173E+00
          4   -1    0    0  502    0  0.00000000000E+00  0.00000000000E+00  0.37246767571E+02  0.37268412825E+02  0.12700000000E+01 0.  1.
         -4   -1    0    0    0  501 -0.00000000000E+00 -0.00000000000E+00 -0.22857376478E+03  0.22857729293E+03  0.12700000000E+01 0.  1.
         25    2    1    2    0    0 -0.48676679510E+02  0.69596519374E+01 -0.12682279274E+03  0.18473683894E+03  0.12500329203E+03 0.  0.
    9000005    1    3    3    0    0 -0.48316283171E+02 -0.21577124919E+02  0.18264534286E+01  0.52956316633E+02  0.10000000000E+01 0.  0.
    9000005    1    3    3    0    0 -0.36039633919E+00  0.28536776857E+02 -0.12864924617E+03  0.13178052230E+03  0.10000000000E+01 0.  0.
         21    1    1    2  502  501  0.48676679510E+02 -0.69596519374E+01 -0.64504204469E+02  0.81108866823E+02  0.00000000000E+00 0.  1.
<mgrwt>
<rscale>  1 0.13432676E+03</rscale>
<asrwt>0</asrwt>
<pdfrwt beam="1">  1        4 0.57322085E-02 0.13432676E+03</pdfrwt>
<pdfrwt beam="2">  1       -4 0.35167130E-01 0.13432676E+03</pdfrwt>
<totfact> 0.24541278E+03</totfact>
</mgrwt>
</event>
<event>
 6    4  0.5642870E-004  0.1279080E+03  0.7818608E-02  0.1230593E+00
         -4   -1    0    0    0  501 -0.00000000000E+00  0.00000000000E+00  0.82613351760E+03  0.82613449377E+03  0.12700000000E+01 0.  1.
          4   -1    0    0  502    0  0.00000000000E+00 -0.00000000000E+00 -0.72778355799E+01  0.73878136636E+01  0.12700000000E+01 0.  1.
         25    2    1    2    0    0 -0.25917105521E+02 -0.79842209736E+01  0.70235684075E+03  0.71390866206E+03  0.12500000749E+03 0.  0.
    9000005    1    3    3    0    0 -0.28155212228E+02  0.84838882319E+01  0.69513983655E+03  0.69576223288E+03  0.10000000000E+01 0.  0.
    9000005    1    3    3    0    0  0.22381067066E+01 -0.16468109205E+02  0.72170041938E+01  0.18146429179E+02  0.10000000000E+01 0.  0.
         21    1    1    2  502  501  0.25917105521E+02  0.79842209736E+01  0.11649884127E+03  0.11961364538E+03  0.00000000000E+00 0. -1.
<mgrwt>
<rscale>  1 0.12790796E+03</rscale>
<asrwt>0</asrwt>
<pdfrwt beam="2">  1        4 0.11282020E-02 0.12790796E+03</pdfrwt>
<pdfrwt beam="1">  1       -4 0.12710599E+00 0.12790796E+03</pdfrwt>
<totfact> 0.19221204E+03</totfact>
</mgrwt>
</event>
<event>
 6    4  0.5642870E-004  0.1286051E+03  0.7818608E-02  0.1229540E+00
         -4   -1    0    0    0  501 -0.00000000000E+00  0.00000000000E+00  0.88061142608E+02  0.88070299974E+02  0.12700000000E+01 0. -1.
          4   -1    0    0  502    0  0.00000000000E+00 -0.00000000000E+00 -0.10209381438E+03  0.10210171318E+03  0.12700000000E+01 0. -1.
         25    2    1    2    0    0 -0.29568554217E+02 -0.63142609887E+01  0.34354921881E+02  0.13311477426E+03  0.12500045272E+03 0.  0.
    9000005    1    3    3    0    0 -0.16698241891E+02  0.34755114233E+02  0.68201019602E+02  0.78352589762E+02  0.10000000000E+01 0.  0.
    9000005    1    3    3    0    0 -0.12870312326E+02 -0.41069375221E+02 -0.33846097722E+02  0.54762184502E+02  0.10000000000E+01 0.  0.
         21    1    1    2  502  501  0.29568554217E+02  0.63142609887E+01 -0.48387593649E+02  0.57057238887E+02  0.00000000000E+00 0. -1.
<mgrwt>
<rscale>  1 0.12860514E+03</rscale>
<asrwt>0</asrwt>
<pdfrwt beam="2">  1        4 0.15708053E-01 0.12860514E+03</pdfrwt>
<pdfrwt beam="1">  1       -4 0.13549180E-01 0.12860514E+03</pdfrwt>
<totfact> 0.25347558E+03</totfact>
</mgrwt>
</event>
<event>
 6    4  0.5642870E-004  0.1270891E+03  0.7818608E-02  0.1231840E+00
          4   -1    0    0  502    0  0.00000000000E+00  0.00000000000E+00  0.24130325603E+03  0.24130659806E+03  0.12700000000E+01 0.  1.
         -4   -1    0    0    0  501 -0.00000000000E+00 -0.00000000000E+00 -0.33134175133E+02  0.33158505119E+02  0.12700000000E+01 0.  1.
         25    2    1    2    0    0 -0.15858683000E+02  0.16601381288E+02  0.94167020963E+02  0.15817420347E+03  0.12499818847E+03 0.  0.
    9000005    1    3    3    0    0  0.48621931707E+02  0.34790209146E+02  0.39090200059E+02  0.71438747441E+02  0.10000000000E+01 0.  0.
    9000005    1    3    3    0    0 -0.64480614707E+02 -0.18188827859E+02  0.55076820905E+02  0.86735456031E+02  0.10000000000E+01 0.  0.
         21    1    1    2  502  501  0.15858683000E+02 -0.16601381288E+02  0.11400205993E+03  0.11629089971E+03  0.00000000000E+00 0.  1.
<mgrwt>
<rscale>  1 0.12708915E+03</rscale>
<asrwt>0</asrwt>
<pdfrwt beam="1">  1        4 0.37125707E-01 0.12708915E+03</pdfrwt>
<pdfrwt beam="2">  1       -4 0.50996939E-02 0.12708915E+03</pdfrwt>
<totfact> 0.26338933E+03</totfact>
</mgrwt>
</event>
<event>
 6    4  0.5642870E-004  0.1290890E+03  0.7818608E-02  0.1228814E+00
         -4   -1    0    0    0  501 -0.00000000000E+00  0.00000000000E+00  0.33226975524E+02  0.33251237608E+02  0.12700000000E+01 0. -1.
          4   -1    0    0  502    0  0.00000000000E+00 -0.00000000000E+00 -0.19624145148E+03  0.19624556092E+03  0.12700000000E+01 0. -1.
         25    2    1    2    0    0 -0.23881435916E+02  0.21630202652E+02 -0.13520948625E+03  0.18693735655E+03  0.12500312578E+03 0.  0.
    9000005    1    3    3    0    0 -0.54582204588E+02  0.55950077416E+02 -0.59182100381E+02  0.98046668612E+02  0.10000000000E+01 0.  0.
    9000005    1    3    3    0    0  0.30700768671E+02 -0.34319874763E+02 -0.76027385866E+02  0.88890687940E+02  0.10000000000E+01 0.  0.
         21    1    1    2  502  501  0.23881435916E+02 -0.21630202652E+02 -0.27804989711E+02  0.42559441973E+02  0.00000000000E+00 0.  1.
<mgrwt>
<rscale>  1 0.12908900E+03</rscale>
<asrwt>0</asrwt>
<pdfrwt beam="2">  1        4 0.30193174E-01 0.12908900E+03</pdfrwt>
<pdfrwt beam="1">  1       -4 0.51140249E-02 0.12908900E+03</pdfrwt>
<totfact> 0.39109047E+03</totfact>
</mgrwt>
</event>
<event>
 6    4  0.5642870E-004  0.1268974E+03  0.7818608E-02  0.1232133E+00
         -4   -1    0    0    0  501 -0.00000000000E+00  0.00000000000E+00  0.10696895241E+04  0.10696902780E+04  0.12700000000E+01 0. -1.
          4   -1    0    0  502    0  0.00000000000E+00 -0.00000000000E+00 -0.35492588937E+02  0.35515303314E+02  0.12700000000E+01 0. -1.
         25    2    1    2    0    0  0.21002879472E+02  0.64133577659E+01  0.10621244609E+04  0.10696781440E+04  0.12498283579E+03 0.  0.
    9000005    1    3    3    0    0 -0.44736958112E+02  0.19153135420E+02  0.67916809073E+03  0.68091007739E+03  0.10000000000E+01 0.  0.
    9000005    1    3    3    0    0  0.65739837584E+02 -0.12739777654E+02  0.38295637017E+03  0.38876806664E+03  0.10000000000E+01 0.  0.
         21    1    1    2  502  501 -0.21002879472E+02 -0.64133577659E+01 -0.27927525767E+02  0.35527437277E+02  0.00000000000E+00 0. -1.
<mgrwt>
<rscale>  1 0.12689744E+03</rscale>
<asrwt>0</asrwt>
<pdfrwt beam="2">  1        4 0.54622042E-02 0.12689744E+03</pdfrwt>
<pdfrwt beam="1">  1       -4 0.16456940E+00 0.12689744E+03</pdfrwt>
<totfact> 0.86185416E+01</totfact>
</mgrwt>
</event>
<event>
 6    4  0.5642870E-004  0.1730908E+03  0.7818608E-02  0.1174662E+00
         -4   -1    0    0    0  501 -0.00000000000E+00  0.00000000000E+00  0.88078243718E+02  0.88087399305E+02  0.12700000000E+01 0. -1.
          4   -1    0    0  502    0  0.00000000000E+00 -0.00000000000E+00 -0.30047485561E+03  0.30047753952E+03  0.12700000000E+01 0. -1.
         25    2    1    2    0    0  0.87807981080E+02 -0.81400313236E+02 -0.38313605645E+02  0.17728042543E+03  0.12499665726E+03 0.  0.
    9000005    1    3    3    0    0  0.49005288656E+02 -0.15627388416E+02 -0.76267601676E+02  0.91997177404E+02  0.10000000000E+01 0.  0.
    9000005    1    3    3    0    0  0.38802692424E+02 -0.65772924820E+02  0.37953996030E+02  0.85283248023E+02  0.10000000000E+01 0.  0.
         21    1    1    2  502  501 -0.87807981080E+02  0.81400313236E+02 -0.17408300625E+03  0.21128451339E+03  0.00000000000E+00 0. -1.
<mgrwt>
<rscale>  1 0.17309078E+03</rscale>
<asrwt>0</asrwt>
<pdfrwt beam="2">  1        4 0.46227811E-01 0.17309078E+03</pdfrwt>
<pdfrwt beam="1">  1       -4 0.13551410E-01 0.17309078E+03</pdfrwt>
<totfact> 0.35592806E+02</totfact>
</mgrwt>
</event>
<event>
 6    4  0.5642870E-004  0.1272993E+03  0.7818608E-02  0.1231519E+00
         -4   -1    0    0    0  501 -0.00000000000E+00  0.00000000000E+00  0.42336359074E+02  0.42355403429E+02  0.12700000000E+01 0. -1.
          4   -1    0    0  502    0  0.00000000000E+00 -0.00000000000E+00 -0.13800720278E+03  0.13801304619E+03  0.12700000000E+01 0. -1.
         25    2    1    2    0    0 -0.99315587853E+01 -0.21949682494E+02 -0.89142801275E+02  0.15540768522E+03  0.12499874073E+03 0.  0.
    9000005    1    3    3    0    0  0.45803395236E+02  0.17983950342E+00  0.25009823947E+01  0.45882875567E+02  0.10000000000E+01 0.  0.
    9000005    1    3    3    0    0 -0.55734954021E+02 -0.22129521998E+02 -0.91643783670E+02  0.10952480965E+03  0.10000000000E+01 0.  0.
         21    1    1    2  502  501  0.99315587853E+01  0.21949682494E+02 -0.65280424264E+01  0.24960764400E+02  0.00000000000E+00 0. -1.
<mgrwt>
<rscale>  1 0.12729929E+03</rscale>
<asrwt>0</asrwt>
<pdfrwt beam="2">  1        4 0.21233792E-01 0.12729929E+03</pdfrwt>
<pdfrwt beam="1">  1       -4 0.65152005E-02 0.12729929E+03</pdfrwt>
<totfact> 0.50456142E+03</totfact>
</mgrwt>
</event>
<event>
 6    4  0.5642870E-004  0.1271539E+03  0.7818608E-02  0.1231741E+00
         -4   -1    0    0    0  501 -0.00000000000E+00  0.00000000000E+00  0.24845740406E+02  0.24878177512E+02  0.12700000000E+01 0.  1.
          4   -1    0    0  502    0  0.00000000000E+00 -0.00000000000E+00 -0.23402894433E+03  0.23403239024E+03  0.12700000000E+01 0.  1.
         25    2    1    2    0    0  0.35933147868E+01  0.23013403264E+02 -0.15904162895E+03  0.20362308109E+03  0.12500236307E+03 0.  0.
    9000005    1    3    3    0    0  0.20405005693E+02  0.68230866688E+02 -0.12728971460E+03  0.14586119042E+03  0.10000000000E+01 0.  0.
    9000005    1    3    3    0    0 -0.16811690906E+02 -0.45217463424E+02 -0.31751914353E+02  0.57761890678E+02  0.10000000000E+01 0.  0.
         21    1    1    2  502  501 -0.35933147868E+01 -0.23013403264E+02 -0.50141574968E+02  0.55287486660E+02  0.00000000000E+00 0.  1.
<mgrwt>
<rscale>  1 0.12715392E+03</rscale>
<asrwt>0</asrwt>
<pdfrwt beam="2">  1        4 0.36007212E-01 0.12715392E+03</pdfrwt>
<pdfrwt beam="1">  1       -4 0.38251820E-02 0.12715392E+03</pdfrwt>
<totfact> 0.44215181E+03</totfact>
</mgrwt>
</event>
<event>
 6    4  0.5642870E-004  0.1312398E+03  0.7818608E-02  0.1225628E+00
         -4   -1    0    0    0  501 -0.00000000000E+00  0.00000000000E+00  0.90592308776E+01  0.91478174497E+01  0.12700000000E+01 0. -1.
          4   -1    0    0  502    0  0.00000000000E+00 -0.00000000000E+00 -0.13274599476E+04  0.13274605551E+04  0.12700000000E+01 0. -1.
         25    2    1    2    0    0 -0.37937127000E+02  0.12640545115E+02 -0.49085035396E+03  0.50809246330E+03  0.12499948919E+03 0.  0.
    9000005    1    3    3    0    0 -0.71298039481E+02  0.18465316901E+02 -0.44515198037E+03  0.45120468081E+03  0.10000000000E+01 0.  0.
    9000005    1    3    3    0    0  0.33360912481E+02 -0.58247717864E+01 -0.45698373594E+02  0.56887782494E+02  0.10000000000E+01 0.  0.
         21    1    1    2  502  501  0.37937127000E+02 -0.12640545115E+02 -0.82755036274E+03  0.82851590923E+03  0.00000000000E+00 0. -1.
<mgrwt>
<rscale>  1 0.13123979E+03</rscale>
<asrwt>0</asrwt>
<pdfrwt beam="2">  1        4 0.20423132E+00 0.13123979E+03</pdfrwt>
<pdfrwt beam="1">  1       -4 0.14005900E-02 0.13123979E+03</pdfrwt>
<totfact> 0.40143516E+02</totfact>
</mgrwt>
</event>
<event>
 6    4  0.5642870E-004  0.1288955E+03  0.7818608E-02  0.1229104E+00
          4   -1    0    0  502    0  0.00000000000E+00  0.00000000000E+00  0.12925130806E+03  0.12925754730E+03  0.12700000000E+01 0.  1.
         -4   -1    0    0    0  501 -0.00000000000E+00 -0.00000000000E+00 -0.50381600151E+02  0.50397604444E+02  0.12700000000E+01 0.  1.
         25    2    1    2    0    0  0.30401857692E+02 -0.80975428612E+01  0.71276207238E+02  0.14728997904E+03  0.12499678819E+03 0.  0.
    9000005    1    3    3    0    0 -0.35222674989E+02 -0.31493788660E+02 -0.49111196797E+00  0.47262424276E+02  0.10000000000E+01 0.  0.
    9000005    1    3    3    0    0  0.65624532681E+02  0.23396245798E+02  0.71767319206E+02  0.10002755477E+03  0.10000000000E+01 0.  0.
         21    1    1    2  502  501 -0.30401857692E+02  0.80975428612E+01  0.75935006674E+01  0.32365172700E+02  0.00000000000E+00 0.  1.
<mgrwt>
<rscale>  1 0.12889546E+03</rscale>
<asrwt>0</asrwt>
<pdfrwt beam="1">  1        4 0.19886528E-01 0.12889546E+03</pdfrwt>
<pdfrwt beam="2">  1       -4 0.77527263E-02 0.12889546E+03</pdfrwt>
<totfact> 0.42817028E+03</totfact>
</mgrwt>
</event>
<event>
 6    4  0.5642870E-004  0.1272231E+03  0.7818608E-02  0.1231635E+00
         -4   -1    0    0    0  501 -0.00000000000E+00  0.00000000000E+00  0.46506786622E+02  0.46524123870E+02  0.12700000000E+01 0. -1.
          4   -1    0    0  502    0  0.00000000000E+00 -0.00000000000E+00 -0.12307219911E+03  0.12307875160E+03  0.12700000000E+01 0. -1.
         25    2    1    2    0    0  0.17054804211E+02  0.16432739659E+02 -0.59738385915E+02  0.14055033508E+03  0.12499928264E+03 0.  0.
    9000005    1    3    3    0    0  0.22047789477E+02 -0.48252775413E+02 -0.10662425007E+01  0.53071388044E+02  0.10000000000E+01 0.  0.
    9000005    1    3    3    0    0 -0.49929852653E+01  0.64685515072E+02 -0.58672143415E+02  0.87478947038E+02  0.10000000000E+01 0.  0.
         21    1    1    2  502  501 -0.17054804211E+02 -0.16432739659E+02 -0.16827026576E+02  0.29052540385E+02  0.00000000000E+00 0. -1.
<mgrwt>
<rscale>  1 0.12722312E+03</rscale>
<asrwt>0</asrwt>
<pdfrwt beam="2">  1        4 0.18936022E-01 0.12722312E+03</pdfrwt>
<pdfrwt beam="1">  1       -4 0.71567279E-02 0.12722312E+03</pdfrwt>
<totfact> 0.53147419E+03</totfact>
</mgrwt>
</event>
<event>
 6    4  0.5642870E-004  0.1505796E+03  0.7818608E-02  0.1199763E+00
          4   -1    0    0  502    0  0.00000000000E+00  0.00000000000E+00  0.95306081479E+03  0.95306166096E+03  0.12700000000E+01 0. -1.
         -4   -1    0    0    0  501 -0.00000000000E+00 -0.00000000000E+00 -0.22589079666E+02  0.22624752378E+02  0.12700000000E+01 0. -1.
         25    2    1    2    0    0 -0.83887790643E+02 -0.34868899160E+01  0.26381974799E+03  0.30376812085E+03  0.12499956799E+03 0.  0.
    9000005    1    3    3    0    0 -0.24993948042E+02  0.58622434134E+02  0.13220334127E+03  0.14676515481E+03  0.10000000000E+01 0.  0.
    9000005    1    3    3    0    0 -0.58893842601E+02 -0.62109324050E+02  0.13161640671E+03  0.15700296604E+03  0.10000000000E+01 0.  0.
         21    1    1    2  502  501  0.83887790643E+02  0.34868899160E+01  0.66665198714E+03  0.67191829249E+03  0.00000000000E+00 0. -1.
<mgrwt>
<rscale>  1 0.15057959E+03</rscale>
<asrwt>0</asrwt>
<pdfrwt beam="1">  1        4 0.14662753E+00 0.15057959E+03</pdfrwt>
<pdfrwt beam="2">  1       -4 0.34780525E-02 0.15057959E+03</pdfrwt>
<totfact> 0.24515812E+02</totfact>
</mgrwt>
</event>
<event>
 6    4  0.5642870E-004  0.1275686E+03  0.7818608E-02  0.1231109E+00
         -4   -1    0    0    0  501 -0.00000000000E+00  0.00000000000E+00  0.43437835212E+02  0.43456396858E+02  0.12700000000E+01 0. -1.
          4   -1    0    0  502    0  0.00000000000E+00 -0.00000000000E+00 -0.13686749387E+03  0.13687338594E+03  0.12700000000E+01 0. -1.
         25    2    1    2    0    0  0.29145556330E+00  0.25456438121E+02 -0.68941571748E+02  0.14500583074E+03  0.12500254176E+03 0.  0.
    9000005    1    3    3    0    0 -0.16662351491E+02 -0.25983299183E+02 -0.83403595778E+02  0.88937762410E+02  0.10000000000E+01 0.  0.
    9000005    1    3    3    0    0  0.16953807054E+02  0.51439737304E+02  0.14462024031E+02  0.56068068333E+02  0.10000000000E+01 0.  0.
         21    1    1    2  502  501 -0.29145556330E+00 -0.25456438121E+02 -0.24488086910E+02  0.35323952053E+02  0.00000000000E+00 0. -1.
<mgrwt>
<rscale>  1 0.12756861E+03</rscale>
<asrwt>0</asrwt>
<pdfrwt beam="2">  1        4 0.21058418E-01 0.12756861E+03</pdfrwt>
<pdfrwt beam="1">  1       -4 0.66846250E-02 0.12756861E+03</pdfrwt>
<totfact> 0.49141606E+03</totfact>
</mgrwt>
</event>
<event>
 6    4  0.5642870E-004  0.1366001E+03  0.7818608E-02  0.1217978E+00
          4   -1    0    0  502    0  0.00000000000E+00  0.00000000000E+00  0.17840929768E+03  0.17841381785E+03  0.12700000000E+01 0. -1.
         -4   -1    0    0    0  501 -0.00000000000E+00 -0.00000000000E+00 -0.51880234793E+02  0.51895776920E+02  0.12700000000E+01 0. -1.
         25    2    1    2    0    0 -0.40098027067E+02  0.37792673311E+02  0.99082210025E+02  0.16875094255E+03  0.12499383320E+03 0.  0.
    9000005    1    3    3    0    0 -0.84966113449E+02  0.16485547948E+02  0.56957758135E+02  0.10361563558E+03  0.10000000000E+01 0.  0.
    9000005    1    3    3    0    0  0.44868086382E+02  0.21307125363E+02  0.42124451890E+02  0.65135306969E+02  0.10000000000E+01 0.  0.
         21    1    1    2  502  501  0.40098027067E+02 -0.37792673311E+02  0.27446852866E+02  0.61558652218E+02  0.00000000000E+00 0. -1.
<mgrwt>
<rscale>  1 0.13660013E+03</rscale>
<asrwt>0</asrwt>
<pdfrwt beam="1">  1        4 0.27449127E-01 0.13660013E+03</pdfrwt>
<pdfrwt beam="2">  1       -4 0.79831179E-02 0.13660013E+03</pdfrwt>
<totfact> 0.22921949E+03</totfact>
</mgrwt>
</event>
<event>
 6    4  0.5642870E-004  0.1283218E+03  0.7818608E-02  0.1229967E+00
          4   -1    0    0  502    0  0.00000000000E+00  0.00000000000E+00  0.21074355186E+03  0.21074737851E+03  0.12700000000E+01 0.  1.
         -4   -1    0    0    0  501 -0.00000000000E+00 -0.00000000000E+00 -0.41909097997E+02  0.41928336420E+02  0.12700000000E+01 0.  1.
         25    2    1    2    0    0  0.28946440028E+01  0.28873521384E+02  0.63033620854E+02  0.14296757729E+03  0.12499772636E+03 0.  0.
    9000005    1    3    3    0    0  0.61790440593E+01  0.55026677602E+01 -0.38156923875E+02  0.39056507493E+02  0.10000000000E+01 0.  0.
    9000005    1    3    3    0    0 -0.32844000564E+01  0.23370853624E+02  0.10119054473E+03  0.10391106979E+03  0.10000000000E+01 0.  0.
         21    1    1    2  502  501 -0.28946440028E+01 -0.28873521384E+02  0.10580083300E+03  0.10970813764E+03  0.00000000000E+00 0.  1.
<mgrwt>
<rscale>  1 0.12832183E+03</rscale>
<asrwt>0</asrwt>
<pdfrwt beam="1">  1        4 0.32423859E-01 0.12832183E+03</pdfrwt>
<pdfrwt beam="2">  1       -4 0.64493279E-02 0.12832183E+03</pdfrwt>
<totfact> 0.23429178E+03</totfact>
</mgrwt>
</event>
<event>
 6    4  0.5642870E-004  0.1268060E+03  0.7818608E-02  0.1232273E+00
          4   -1    0    0  502    0  0.00000000000E+00  0.00000000000E+00  0.55145093349E+03  0.55145239590E+03  0.12700000000E+01 0.  1.
         -4   -1    0    0    0  501 -0.00000000000E+00 -0.00000000000E+00 -0.11068415470E+02  0.11141037699E+02  0.12700000000E+01 0.  1.
         25    2    1    2    0    0 -0.20047450487E+02 -0.72515152414E+01  0.37538257917E+03  0.39622196801E+03  0.12500112976E+03 0.  0.
    9000005    1    3    3    0    0 -0.69658985788E+02  0.16172705003E+02  0.19637873409E+03  0.20899650210E+03  0.10000000000E+01 0.  0.
    9000005    1    3    3    0    0  0.49611535301E+02 -0.23424220245E+02  0.17900384508E+03  0.18722546590E+03  0.10000000000E+01 0.  0.
         21    1    1    2  502  501  0.20047450487E+02  0.72515152414E+01  0.16499993885E+03  0.16637146560E+03  0.00000000000E+00 0.  1.
<mgrwt>
<rscale>  1 0.12680602E+03</rscale>
<asrwt>0</asrwt>
<pdfrwt beam="1">  1        4 0.84844302E-01 0.12680602E+03</pdfrwt>
<pdfrwt beam="2">  1       -4 0.17085320E-02 0.12680602E+03</pdfrwt>
<totfact> 0.26160392E+03</totfact>
</mgrwt>
</event>
<event>
 6    4  0.5642870E-004  0.1281266E+03  0.7818608E-02  0.1230262E+00
          4   -1    0    0  502    0  0.00000000000E+00  0.00000000000E+00  0.49122753677E+03  0.49122917847E+03  0.12700000000E+01 0.  1.
         -4   -1    0    0    0  501 -0.00000000000E+00 -0.00000000000E+00 -0.12911642794E+02  0.12973951582E+02  0.12700000000E+01 0.  1.
         25    2    1    2    0    0  0.28103696594E+02  0.11575666944E+01  0.34676399372E+03  0.36967781577E+03  0.12500104962E+03 0.  0.
    9000005    1    3    3    0    0  0.63582753137E+02  0.62019140526E+01  0.89714653346E+02  0.11014058861E+03  0.10000000000E+01 0.  0.
    9000005    1    3    3    0    0 -0.35479056543E+02 -0.50443473582E+01  0.25704934037E+03  0.25953722716E+03  0.10000000000E+01 0.  0.
         21    1    1    2  502  501 -0.28103696594E+02 -0.11575666944E+01  0.13155190026E+03  0.13452531429E+03  0.00000000000E+00 0.  1.
<mgrwt>
<rscale>  1 0.12812658E+03</rscale>
<asrwt>0</asrwt>
<pdfrwt beam="1">  1        4 0.75578376E-01 0.12812658E+03</pdfrwt>
<pdfrwt beam="2">  1       -4 0.19913261E-02 0.12812658E+03</pdfrwt>
<totfact> 0.26766012E+03</totfact>
</mgrwt>
</event>
<event>
 6    4  0.5642870E-004  0.1418314E+03  0.7818608E-02  0.1210886E+00
          4   -1    0    0  502    0  0.00000000000E+00  0.00000000000E+00  0.24946065242E+02  0.24978372066E+02  0.12700000000E+01 0. -1.
         -4   -1    0    0    0  501 -0.00000000000E+00 -0.00000000000E+00 -0.44263669209E+03  0.44263851401E+03  0.12700000000E+01 0. -1.
         25    2    1    2    0    0 -0.40294786960E+02  0.53546395432E+02 -0.25756604717E+03  0.29403472300E+03  0.12500105342E+03 0.  0.
    9000005    1    3    3    0    0 -0.66731341013E+02  0.18466891444E+02 -0.59946331283E+02  0.91589631440E+02  0.10000000000E+01 0.  0.
    9000005    1    3    3    0    0  0.26436554053E+02  0.35079503989E+02 -0.19761971588E+03  0.20244509156E+03  0.10000000000E+01 0.  0.
         21    1    1    2  502  501  0.40294786960E+02 -0.53546395432E+02 -0.16012457968E+03  0.17358216308E+03  0.00000000000E+00 0. -1.
<mgrwt>
<rscale>  1 0.14183141E+03</rscale>
<asrwt>0</asrwt>
<pdfrwt beam="1">  1        4 0.38404818E-02 0.14183141E+03</pdfrwt>
<pdfrwt beam="2">  1       -4 0.68100572E-01 0.14183141E+03</pdfrwt>
<totfact> 0.12304873E+03</totfact>
</mgrwt>
</event>
<event>
 6    4  0.5642870E-004  0.1270547E+03  0.7818608E-02  0.1231893E+00
         -4   -1    0    0    0  501 -0.00000000000E+00  0.00000000000E+00  0.18511307549E+02  0.18554821669E+02  0.12700000000E+01 0.  1.
          4   -1    0    0  502    0  0.00000000000E+00 -0.00000000000E+00 -0.35659800234E+03  0.35660026384E+03  0.12700000000E+01 0.  1.
         25    2    1    2    0    0  0.21836876515E+02 -0.63898111698E+01 -0.21299987369E+03  0.24801582456E+03  0.12500089670E+03 0.  0.
    9000005    1    3    3    0    0  0.65710731523E+02 -0.30447043066E+02 -0.92107852895E+02  0.11717414064E+03  0.10000000000E+01 0.  0.
    9000005    1    3    3    0    0 -0.43873855009E+02  0.24057231896E+02 -0.12089202080E+03  0.13084168393E+03  0.10000000000E+01 0.  0.
         21    1    1    2  502  501 -0.21836876515E+02  0.63898111698E+01 -0.12508682109E+03  0.12713926095E+03  0.00000000000E+00 0.  1.
<mgrwt>
<rscale>  1 0.12705472E+03</rscale>
<asrwt>0</asrwt>
<pdfrwt beam="2">  1        4 0.54864747E-01 0.12705472E+03</pdfrwt>
<pdfrwt beam="1">  1       -4 0.28514149E-02 0.12705472E+03</pdfrwt>
<totfact> 0.30239305E+03</totfact>
</mgrwt>
</event>
<event>
 6    4  0.5642870E-004  0.1309876E+03  0.7818608E-02  0.1225998E+00
          4   -1    0    0  502    0  0.00000000000E+00  0.00000000000E+00  0.39556751309E+02  0.39577133223E+02  0.12700000000E+01 0.  1.
         -4   -1    0    0    0  501 -0.00000000000E+00 -0.00000000000E+00 -0.21634872758E+03  0.21635245510E+03  0.12700000000E+01 0.  1.
         25    2    1    2    0    0  0.39104314029E+02 -0.26078622709E+01 -0.17236540290E+03  0.21648921721E+03  0.12498720226E+03 0.  0.
    9000005    1    3    3    0    0  0.36327308607E+01 -0.57372816034E+02 -0.11910524565E+03  0.13225693288E+03  0.10000000000E+01 0.  0.
    9000005    1    3    3    0    0  0.35471583168E+02  0.54764953763E+02 -0.53260157252E+02  0.84232284331E+02  0.10000000000E+01 0.  0.
         21    1    1    2  502  501 -0.39104314029E+02  0.26078622709E+01 -0.44265733688E+01  0.39440371107E+02  0.00000000000E+00 0.  1.
<mgrwt>
<rscale>  1 0.13098759E+03</rscale>
<asrwt>0</asrwt>
<pdfrwt beam="1">  1        4 0.60875088E-02 0.13098759E+03</pdfrwt>
<pdfrwt beam="2">  1       -4 0.33286273E-01 0.13098759E+03</pdfrwt>
<totfact> 0.24598156E+03</totfact>
</mgrwt>
</event>
<event>
 6    4  0.5642870E-004  0.1294762E+03  0.7818608E-02  0.1228235E+00
         -4   -1    0    0    0  501 -0.00000000000E+00  0.00000000000E+00  0.21645138137E+03  0.21645510712E+03  0.12700000000E+01 0.  1.
          4   -1    0    0  502    0  0.00000000000E+00 -0.00000000000E+00 -0.31116023235E+02  0.31141929965E+02  0.12700000000E+01 0.  1.
         25    2    1    2    0    0 -0.27846925370E+01 -0.33647647075E+02  0.15713606726E+03  0.20360705331E+03  0.12499667939E+03 0.  0.
    9000005    1    3    3    0    0  0.26711859439E+01 -0.61371592803E+02  0.16346899742E+03  0.17463310327E+03  0.10000000000E+01 0.  0.
    9000005    1    3    3    0    0 -0.54558784809E+01  0.27723945728E+02 -0.63329301661E+01  0.28973950045E+02  0.10000000000E+01 0.  0.
         21    1    1    2  502  501  0.27846925370E+01  0.33647647075E+02  0.28199290876E+02  0.43989983771E+02  0.00000000000E+00 0.  1.
<mgrwt>
<rscale>  1 0.12947621E+03</rscale>
<asrwt>0</asrwt>
<pdfrwt beam="2">  1        4 0.47893599E-02 0.12947621E+03</pdfrwt>
<pdfrwt beam="1">  1       -4 0.33302492E-01 0.12947621E+03</pdfrwt>
<totfact> 0.36087229E+03</totfact>
</mgrwt>
</event>
<event>
 6    4  0.5642870E-004  0.1267848E+03  0.7818608E-02  0.1232306E+00
         -4   -1    0    0    0  501 -0.00000000000E+00  0.00000000000E+00  0.80838165183E+01  0.81829694794E+01  0.12700000000E+01 0. -1.
          4   -1    0    0  502    0  0.00000000000E+00 -0.00000000000E+00 -0.12600281962E+04  0.12600288362E+04  0.12700000000E+01 0. -1.
         25    2    1    2    0    0 -0.41820182614E+01 -0.20781020595E+02 -0.49526478336E+03  0.51123535193E+03  0.12500015729E+03 0.  0.
    9000005    1    3    3    0    0 -0.24522708219E+02  0.25505429044E+02 -0.41003361227E+02  0.54167940343E+02  0.10000000000E+01 0.  0.
    9000005    1    3    3    0    0  0.20340689957E+02 -0.46286449639E+02 -0.45426142214E+03  0.45706741158E+03  0.10000000000E+01 0.  0.
         21    1    1    2  502  501  0.41820182614E+01  0.20781020595E+02 -0.75667959631E+03  0.75697645377E+03  0.00000000000E+00 0. -1.
<mgrwt>
<rscale>  1 0.12678478E+03</rscale>
<asrwt>0</asrwt>
<pdfrwt beam="2">  1        4 0.19385801E+00 0.12678478E+03</pdfrwt>
<pdfrwt beam="1">  1       -4 0.12513415E-02 0.12678478E+03</pdfrwt>
<totfact> 0.54903715E+02</totfact>
</mgrwt>
</event>
<event>
 6    4  0.5642870E-004  0.1322647E+03  0.7818608E-02  0.1224133E+00
          4   -1    0    0  502    0  0.00000000000E+00  0.00000000000E+00  0.74330768835E+02  0.74341617520E+02  0.12700000000E+01 0. -1.
         -4   -1    0    0    0  501 -0.00000000000E+00 -0.00000000000E+00 -0.16768714020E+03  0.16769194939E+03  0.12700000000E+01 0. -1.
         25    2    1    2    0    0 -0.39752796759E+02  0.16988885917E+02 -0.12993018448E+03  0.18540715169E+03  0.12500020785E+03 0.  0.
    9000005    1    3    3    0    0  0.46884988269E+01 -0.25649267157E+02 -0.12025835542E+03  0.12305664946E+03  0.10000000000E+01 0.  0.
    9000005    1    3    3    0    0 -0.44441295586E+02  0.42638153074E+02 -0.96718290631E+01  0.62350502230E+02  0.10000000000E+01 0.  0.
         21    1    1    2  502  501  0.39752796759E+02 -0.16988885917E+02  0.36573813116E+02  0.56626415221E+02  0.00000000000E+00 0. -1.
<mgrwt>
<rscale>  1 0.13226473E+03</rscale>
<asrwt>0</asrwt>
<pdfrwt beam="1">  1        4 0.11436707E-01 0.13226473E+03</pdfrwt>
<pdfrwt beam="2">  1       -4 0.25799226E-01 0.13226473E+03</pdfrwt>
<totfact> 0.13968310E+03</totfact>
</mgrwt>
</event>
<event>
 6    4  0.5642870E-004  0.1554745E+03  0.7818608E-02  0.1193903E+00
          4   -1    0    0  502    0  0.00000000000E+00  0.00000000000E+00  0.16559755010E+03  0.16560241997E+03  0.12700000000E+01 0.  1.
         -4   -1    0    0    0  501 -0.00000000000E+00 -0.00000000000E+00 -0.10282861457E+03  0.10283645694E+03  0.12700000000E+01 0.  1.
         25    2    1    2    0    0 -0.52013424837E+01  0.92307946879E+02  0.79280890719E+02  0.17452159583E+03  0.12499806701E+03 0.  0.
    9000005    1    3    3    0    0  0.37251198652E+02  0.10156979046E+03  0.73221363387E+02  0.13063859380E+03  0.10000000000E+01 0.  0.
    9000005    1    3    3    0    0 -0.42452541135E+02 -0.92618435792E+01  0.60595273322E+01  0.43883002026E+02  0.10000000000E+01 0.  0.
         21    1    1    2  502  501  0.52013424837E+01 -0.92307946879E+02 -0.16511955190E+02  0.93917281076E+02  0.00000000000E+00 0.  1.
<mgrwt>
<rscale>  1 0.15547452E+03</rscale>
<asrwt>0</asrwt>
<pdfrwt beam="1">  1        4 0.25477524E-01 0.15547452E+03</pdfrwt>
<pdfrwt beam="2">  1       -4 0.15820765E-01 0.15547452E+03</pdfrwt>
<totfact> 0.84300559E+02</totfact>
</mgrwt>
</event>
<event>
 6    4  0.5642870E-004  0.1544912E+03  0.7818608E-02  0.1195060E+00
          4   -1    0    0  502    0  0.00000000000E+00  0.00000000000E+00  0.15452582121E+04  0.15452587340E+04  0.12700000000E+01 0. -1.
         -4   -1    0    0    0  501 -0.00000000000E+00 -0.00000000000E+00 -0.27770450979E+02  0.27799475671E+02  0.12700000000E+01 0. -1.
         25    2    1    2    0    0 -0.62861786431E+01 -0.90569647065E+02  0.20133567738E+03  0.25377860148E+03  0.12500058629E+03 0.  0.
    9000005    1    3    3    0    0  0.46465099560E+02 -0.96160077622E+01  0.11417874400E+03  0.12364974187E+03  0.10000000000E+01 0.  0.
    9000005    1    3    3    0    0 -0.52751278203E+02 -0.80953639303E+02  0.87156933377E+02  0.13012885961E+03  0.10000000000E+01 0.  0.
         21    1    1    2  502  501  0.62861786431E+01  0.90569647065E+02  0.13161520838E+04  0.13192796082E+04  0.00000000000E+00 0. -1.
<mgrwt>
<rscale>  1 0.15449118E+03</rscale>
<asrwt>0</asrwt>
<pdfrwt beam="1">  1        4 0.23773438E+00 0.15449118E+03</pdfrwt>
<pdfrwt beam="2">  1       -4 0.42746486E-02 0.15449118E+03</pdfrwt>
<totfact> 0.45630779E+01</totfact>
</mgrwt>
</event>
<event>
 6    4  0.5642870E-004  0.1272650E+03  0.7818608E-02  0.1231571E+00
          4   -1    0    0  502    0  0.00000000000E+00  0.00000000000E+00  0.53646303996E+03  0.53646454323E+03  0.12700000000E+01 0. -1.
         -4   -1    0    0    0  501 -0.00000000000E+00 -0.00000000000E+00 -0.31325142615E+02  0.31350876540E+02  0.12700000000E+01 0. -1.
         25    2    1    2    0    0  0.22929526057E+02  0.66991152336E+01  0.99682657641E+02  0.16165708523E+03  0.12500295861E+03 0.  0.
    9000005    1    3    3    0    0 -0.34012896376E+02  0.37783122030E+02  0.11421872939E+02  0.52114303331E+02  0.10000000000E+01 0.  0.
    9000005    1    3    3    0    0  0.56942422432E+02 -0.31084006796E+02  0.88260784702E+02  0.10954278190E+03  0.10000000000E+01 0.  0.
         21    1    1    2  502  501 -0.22929526057E+02 -0.66991152336E+01  0.40545523971E+03  0.40615833454E+03  0.00000000000E+00 0. -1.
<mgrwt>
<rscale>  1 0.12726500E+03</rscale>
<asrwt>0</asrwt>
<pdfrwt beam="1">  1        4 0.82534870E-01 0.12726500E+03</pdfrwt>
<pdfrwt beam="2">  1       -4 0.48213479E-02 0.12726500E+03</pdfrwt>
<totfact> 0.55026536E+02</totfact>
</mgrwt>
</event>
<event>
 6    4  0.5642870E-004  0.1380370E+03  0.7818608E-02  0.1215995E+00
         -4   -1    0    0    0  501 -0.00000000000E+00  0.00000000000E+00  0.68785997689E+02  0.68797720733E+02  0.12700000000E+01 0. -1.
          4   -1    0    0  502    0  0.00000000000E+00 -0.00000000000E+00 -0.14600391640E+03  0.14600943978E+03  0.12700000000E+01 0. -1.
         25    2    1    2    0    0  0.45492018644E+02 -0.36884725504E+02 -0.34402292744E+02  0.14225935170E+03  0.12499679462E+03 0.  0.
    9000005    1    3    3    0    0  0.49905031203E+02 -0.79470914441E+02 -0.14225336072E+02  0.94918378451E+02  0.10000000000E+01 0.  0.
    9000005    1    3    3    0    0 -0.44130125584E+01  0.42586188936E+02 -0.20176956672E+02  0.47340973253E+02  0.10000000000E+01 0.  0.
         21    1    1    2  502  501 -0.45492018644E+02  0.36884725504E+02 -0.42815625970E+02  0.72547808809E+02  0.00000000000E+00 0. -1.
<mgrwt>
<rscale>  1 0.13803697E+03</rscale>
<asrwt>0</asrwt>
<pdfrwt beam="2">  1        4 0.22463468E-01 0.13803697E+03</pdfrwt>
<pdfrwt beam="1">  1       -4 0.10583788E-01 0.13803697E+03</pdfrwt>
<totfact> 0.20740742E+03</totfact>
</mgrwt>
</event>
<event>
 6    4  0.5642870E-004  0.1281754E+03  0.7818608E-02  0.1230188E+00
          4   -1    0    0  502    0  0.00000000000E+00  0.00000000000E+00  0.13413477039E+04  0.13413483051E+04  0.12700000000E+01 0.  1.
         -4   -1    0    0    0  501 -0.00000000000E+00 -0.00000000000E+00 -0.44766932094E+01  0.46533517051E+01  0.12700000000E+01 0.  1.
         25    2    1    2    0    0 -0.86187120980E+01 -0.26980709764E+02  0.10879515541E+04  0.10954759361E+04  0.12500680589E+03 0.  0.
    9000005    1    3    3    0    0 -0.13290974278E+02 -0.58749551262E+02  0.10004683754E+04  0.10022804647E+04  0.10000000000E+01 0.  0.
    9000005    1    3    3    0    0  0.46722621795E+01  0.31768841498E+02  0.87483178708E+02  0.93195471354E+02  0.10000000000E+01 0.  0.
         21    1    1    2  502  501  0.86187120980E+01  0.26980709764E+02  0.24891945657E+03  0.25052572075E+03  0.00000000000E+00 0.  1.
<mgrwt>
<rscale>  1 0.12817544E+03</rscale>
<asrwt>0</asrwt>
<pdfrwt beam="1">  1        4 0.20637457E+00 0.12817544E+03</pdfrwt>
<pdfrwt beam="2">  1       -4 0.70235824E-03 0.12817544E+03</pdfrwt>
<totfact> 0.10951837E+03</totfact>
</mgrwt>
</event>
<event>
 6    4  0.5642870E-004  0.1267706E+03  0.7818608E-02  0.1232328E+00
         -4   -1    0    0    0  501 -0.00000000000E+00  0.00000000000E+00  0.31998946283E+02  0.32024138759E+02  0.12700000000E+01 0. -1.
          4   -1    0    0  502    0  0.00000000000E+00 -0.00000000000E+00 -0.44106320095E+03  0.44106502937E+03  0.12700000000E+01 0. -1.
         25    2    1    2    0    0 -0.57296280457E+01  0.20405670825E+02 -0.95266521436E+02  0.15857646978E+03  0.12498626574E+03 0.  0.
    9000005    1    3    3    0    0 -0.24010826694E+02 -0.46646199698E+02 -0.20078234810E+02  0.56182944546E+02  0.10000000000E+01 0.  0.
    9000005    1    3    3    0    0  0.18281198648E+02  0.67051870523E+02 -0.75188286626E+02  0.10239352524E+03  0.10000000000E+01 0.  0.
         21    1    1    2  502  501  0.57296280457E+01 -0.20405670825E+02 -0.31379773323E+03  0.31451269835E+03  0.00000000000E+00 0. -1.
<mgrwt>
<rscale>  1 0.12677061E+03</rscale>
<asrwt>0</asrwt>
<pdfrwt beam="2">  1        4 0.67857951E-01 0.12677061E+03</pdfrwt>
<pdfrwt beam="1">  1       -4 0.49249936E-02 0.12677061E+03</pdfrwt>
<totfact> 0.81446435E+02</totfact>
</mgrwt>
</event>
<event>
 6    4  0.5642870E-004  0.1274286E+03  0.7818608E-02  0.1231322E+00
         -4   -1    0    0    0  501 -0.00000000000E+00  0.00000000000E+00  0.39850263682E+03  0.39850466051E+03  0.12700000000E+01 0.  1.
          4   -1    0    0  502    0  0.00000000000E+00 -0.00000000000E+00 -0.18343594679E+02  0.18387505697E+02  0.12700000000E+01 0.  1.
         25    2    1    2    0    0  0.32032220894E+01 -0.24557326423E+02  0.36772982607E+03  0.38918281174E+03  0.12499885226E+03 0.  0.
    9000005    1    3    3    0    0  0.62660186017E+01 -0.75346053657E+02  0.24223564957E+03  0.25376248878E+03  0.10000000000E+01 0.  0.
    9000005    1    3    3    0    0 -0.30627965124E+01  0.50788727234E+02  0.12549417650E+03  0.13542032296E+03  0.10000000000E+01 0.  0.
         21    1    1    2  502  501 -0.32032220894E+01  0.24557326423E+02  0.12429216075E+02  0.27709354468E+02  0.00000000000E+00 0.  1.
<mgrwt>
<rscale>  1 0.12742855E+03</rscale>
<asrwt>0</asrwt>
<pdfrwt beam="2">  1        4 0.28256248E-02 0.12742855E+03</pdfrwt>
<pdfrwt beam="1">  1       -4 0.61311633E-01 0.12742855E+03</pdfrwt>
<totfact> 0.24346558E+03</totfact>
</mgrwt>
</event>
<event>
 6    4  0.5642870E-004  0.1271302E+03  0.7818608E-02  0.1231777E+00
          4   -1    0    0  502    0  0.00000000000E+00  0.00000000000E+00  0.20097960861E+03  0.20098362117E+03  0.12700000000E+01 0.  1.
         -4   -1    0    0    0  501 -0.00000000000E+00 -0.00000000000E+00 -0.34928963592E+02  0.34952044255E+02  0.12700000000E+01 0.  1.
         25    2    1    2    0    0  0.22541765329E+02 -0.53922583787E+01  0.88256222646E+02  0.15476190250E+03  0.12499951198E+03 0.  0.
    9000005    1    3    3    0    0  0.73526745954E+02 -0.15135367511E+02  0.55701177217E+02  0.93481992189E+02  0.10000000000E+01 0.  0.
    9000005    1    3    3    0    0 -0.50984980625E+02  0.97431091328E+01  0.32555045430E+02  0.61279910312E+02  0.10000000000E+01 0.  0.
         21    1    1    2  502  501 -0.22541765329E+02  0.53922583787E+01  0.77794422373E+02  0.81173762922E+02  0.00000000000E+00 0.  1.
<mgrwt>
<rscale>  1 0.12713019E+03</rscale>
<asrwt>0</asrwt>
<pdfrwt beam="1">  1        4 0.30922023E-01 0.12713019E+03</pdfrwt>
<pdfrwt beam="2">  1       -4 0.53757709E-02 0.12713019E+03</pdfrwt>
<totfact> 0.34367067E+03</totfact>
</mgrwt>
</event>
<event>
 6    4  0.5642870E-004  0.1268928E+03  0.7818608E-02  0.1232141E+00
          4   -1    0    0  502    0  0.00000000000E+00  0.00000000000E+00  0.12245601140E+03  0.12246259685E+03  0.12700000000E+01 0. -1.
         -4   -1    0    0    0  501 -0.00000000000E+00 -0.00000000000E+00 -0.93058545113E+02  0.93067210760E+02  0.12700000000E+01 0. -1.
         25    2    1    2    0    0 -0.15884390704E+02 -0.14976933044E+02 -0.47577342060E+02  0.13551891141E+03  0.12500059792E+03 0.  0.
    9000005    1    3    3    0    0 -0.45949327771E+02  0.39142886679E+02 -0.54219131596E+01  0.60612733336E+02  0.10000000000E+01 0.  0.
    9000005    1    3    3    0    0  0.30064937067E+02 -0.54119819723E+02 -0.42155428900E+02  0.74906178072E+02  0.10000000000E+01 0.  0.
         21    1    1    2  502  501  0.15884390704E+02  0.14976933044E+02  0.76974808343E+02  0.80010896201E+02  0.00000000000E+00 0. -1.
<mgrwt>
<rscale>  1 0.12689276E+03</rscale>
<asrwt>0</asrwt>
<pdfrwt beam="1">  1        4 0.18840559E-01 0.12689276E+03</pdfrwt>
<pdfrwt beam="2">  1       -4 0.14317872E-01 0.12689276E+03</pdfrwt>
<totfact> 0.16652308E+03</totfact>
</mgrwt>
</event>
<event>
 6    4  0.5642870E-004  0.1272678E+03  0.7818608E-02  0.1231567E+00
          4   -1    0    0  502    0  0.00000000000E+00  0.00000000000E+00  0.59320441589E+02  0.59334034839E+02  0.12700000000E+01 0. -1.
         -4   -1    0    0    0  501 -0.00000000000E+00 -0.00000000000E+00 -0.13994530342E+03  0.13995106591E+03  0.12700000000E+01 0. -1.
         25    2    1    2    0    0 -0.18175015156E+02 -0.15529804063E+02 -0.10511267214E+03  0.16506290263E+03  0.12500232794E+03 0.  0.
    9000005    1    3    3    0    0  0.52974985579E+02 -0.17028916528E+02 -0.52985327605E+02  0.76842553553E+02  0.10000000000E+01 0.  0.
    9000005    1    3    3    0    0 -0.71150000735E+02  0.14991124651E+01 -0.52127344536E+02  0.88220349077E+02  0.10000000000E+01 0.  0.
         21    1    1    2  502  501  0.18175015156E+02  0.15529804063E+02  0.24487810311E+02  0.34222198117E+02  0.00000000000E+00 0. -1.
<mgrwt>
<rscale>  1 0.12726778E+03</rscale>
<asrwt>0</asrwt>
<pdfrwt beam="1">  1        4 0.91277107E-02 0.12726778E+03</pdfrwt>
<pdfrwt beam="2">  1       -4 0.21531536E-01 0.12726778E+03</pdfrwt>
<totfact> 0.28200556E+03</totfact>
</mgrwt>
</event>
<event>
 6    4  0.5642870E-004  0.1286938E+03  0.7818608E-02  0.1229407E+00
          4   -1    0    0  502    0  0.00000000000E+00  0.00000000000E+00  0.27602070135E+01  0.30383618542E+01  0.12700000000E+01 0. -1.
         -4   -1    0    0    0  501 -0.00000000000E+00 -0.00000000000E+00 -0.22010099366E+04  0.22010103030E+04  0.12700000000E+01 0. -1.
         25    2    1    2    0    0  0.29574694655E+02  0.78734555613E+01 -0.18391299638E+04  0.18436271615E+04  0.12500173273E+03 0.  0.
    9000005    1    3    3    0    0 -0.14542480112E+01 -0.56665461776E+02 -0.74262550605E+03  0.74478636644E+03  0.10000000000E+01 0.  0.
    9000005    1    3    3    0    0  0.31028942667E+02  0.64538917338E+02 -0.10965044577E+04  0.10988407951E+04  0.10000000000E+01 0.  0.
         21    1    1    2  502  501 -0.29574694655E+02 -0.78734555613E+01 -0.35911976579E+03  0.36042150331E+03  0.00000000000E+00 0. -1.
<mgrwt>
<rscale>  1 0.12869377E+03</rscale>
<asrwt>0</asrwt>
<pdfrwt beam="1">  1        4 0.44607370E-03 0.12869377E+03</pdfrwt>
<pdfrwt beam="2">  1       -4 0.33863700E+00 0.12869377E+03</pdfrwt>
<totfact> 0.36398617E+02</totfact>
</mgrwt>
</event>
<event>
 6    4  0.5642870E-004  0.1282591E+03  0.7818608E-02  0.1230062E+00
          4   -1    0    0  502    0  0.00000000000E+00  0.00000000000E+00  0.42346116250E+03  0.42346306692E+03  0.12700000000E+01 0.  1.
         -4   -1    0    0    0  501 -0.00000000000E+00 -0.00000000000E+00 -0.15895361677E+02  0.15946015892E+02  0.12700000000E+01 0.  1.
         25    2    1    2    0    0 -0.19084479056E+02  0.21481262938E+02  0.27054407251E+03  0.29940688273E+03  0.12499889702E+03 0.  0.
    9000005    1    3    3    0    0 -0.66583318806E+02  0.39355143284E+02  0.15625641322E+03  0.17435375625E+03  0.10000000000E+01 0.  0.
    9000005    1    3    3    0    0  0.47498839750E+02 -0.17873880346E+02  0.11428765929E+03  0.12505312648E+03  0.10000000000E+01 0.  0.
         21    1    1    2  502  501  0.19084479056E+02 -0.21481262938E+02  0.13702172831E+03  0.14000220008E+03  0.00000000000E+00 0.  1.
<mgrwt>
<rscale>  1 0.12825906E+03</rscale>
<asrwt>0</asrwt>
<pdfrwt beam="1">  1        4 0.65151914E-01 0.12825906E+03</pdfrwt>
<pdfrwt beam="2">  1       -4 0.24494832E-02 0.12825906E+03</pdfrwt>
<totfact> 0.26777834E+03</totfact>
</mgrwt>
</event>
<event>
 6    4  0.5642870E-004  0.1410977E+03  0.7818608E-02  0.1211859E+00
          4   -1    0    0  502    0  0.00000000000E+00  0.00000000000E+00  0.21554731531E+02  0.21592113175E+02  0.12700000000E+01 0.  1.
         -4   -1    0    0    0  501 -0.00000000000E+00 -0.00000000000E+00 -0.61142364868E+03  0.61142496765E+03  0.12700000000E+01 0.  1.
         25    2    1    2    0    0  0.40041786288E+02  0.51765944368E+02 -0.51305844586E+03  0.53210669412E+03  0.12500202963E+03 0.  0.
    9000005    1    3    3    0    0 -0.30308456264E+02  0.60587326360E+02 -0.30011152494E+03  0.30766435289E+03  0.10000000000E+01 0.  0.
    9000005    1    3    3    0    0  0.70350242552E+02 -0.88213819917E+01 -0.21294692092E+03  0.22444234123E+03  0.10000000000E+01 0.  0.
         21    1    1    2  502  501 -0.40041786288E+02 -0.51765944368E+02 -0.76810471289E+02  0.10091038671E+03  0.00000000000E+00 0.  1.
<mgrwt>
<rscale>  1 0.14109771E+03</rscale>
<asrwt>0</asrwt>
<pdfrwt beam="1">  1        4 0.33190900E-02 0.14109771E+03</pdfrwt>
<pdfrwt beam="2">  1       -4 0.94068141E-01 0.14109771E+03</pdfrwt>
<totfact> 0.75723289E+02</totfact>
</mgrwt>
</event>
<event>
 6    4  0.5642870E-004  0.1286714E+03  0.7818608E-02  0.1229441E+00
          4   -1    0    0  502    0  0.00000000000E+00  0.00000000000E+00  0.62669428072E+03  0.62669556755E+03  0.12700000000E+01 0. -1.
         -4   -1    0    0    0  501 -0.00000000000E+00 -0.00000000000E+00 -0.13774683465E+02  0.13833105383E+02  0.12700000000E+01 0. -1.
         25    2    1    2    0    0  0.29345647612E+02 -0.83881883598E+01  0.30406139914E+03  0.33016611837E+03  0.12499921011E+03 0.  0.
    9000005    1    3    3    0    0  0.30773283568E+02 -0.25159339064E+02  0.18064842255E+02  0.43672941845E+02  0.10000000000E+01 0.  0.
    9000005    1    3    3    0    0 -0.14276359554E+01  0.16771150704E+02  0.28599655689E+03  0.28649317652E+03  0.10000000000E+01 0.  0.
         21    1    1    2  502  501 -0.29345647612E+02  0.83881883598E+01  0.30885819811E+03  0.31036255457E+03  0.00000000000E+00 0. -1.
<mgrwt>
<rscale>  1 0.12867141E+03</rscale>
<asrwt>0</asrwt>
<pdfrwt beam="1">  1        4 0.96419069E-01 0.12867141E+03</pdfrwt>
<pdfrwt beam="2">  1       -4 0.21237757E-02 0.12867141E+03</pdfrwt>
<totfact> 0.14077619E+03</totfact>
</mgrwt>
</event>
<event>
 6    4  0.5642870E-004  0.1268207E+03  0.7818608E-02  0.1232251E+00
          4   -1    0    0  502    0  0.00000000000E+00  0.00000000000E+00  0.20891691577E+03  0.20892077588E+03  0.12700000000E+01 0.  1.
         -4   -1    0    0    0  501 -0.00000000000E+00 -0.00000000000E+00 -0.26380934514E+02  0.26411486248E+02  0.12700000000E+01 0.  1.
         25    2    1    2    0    0  0.52543557251E+01  0.20594916947E+02  0.14944606343E+03  0.19600413581E+03  0.12502694318E+03 0.  0.
    9000005    1    3    3    0    0  0.12743021067E+01 -0.43045979450E+02  0.11653082020E+03  0.12423772474E+03  0.10000000000E+01 0.  0.
    9000005    1    3    3    0    0  0.39800536184E+01  0.63640896397E+02  0.32915243239E+02  0.71766411074E+02  0.10000000000E+01 0.  0.
         21    1    1    2  502  501 -0.52543557251E+01 -0.20594916947E+02  0.33089917818E+02  0.39328126313E+02  0.00000000000E+00 0.  1.
<mgrwt>
<rscale>  1 0.12682072E+03</rscale>
<asrwt>0</asrwt>
<pdfrwt beam="1">  1        4 0.32143710E-01 0.12682072E+03</pdfrwt>
<pdfrwt beam="2">  1       -4 0.40612525E-02 0.12682072E+03</pdfrwt>
<totfact> 0.49968802E+03</totfact>
</mgrwt>
</event>
<event>
 6    4  0.5642870E-004  0.1338766E+03  0.7818608E-02  0.1221814E+00
         -4   -1    0    0    0  501 -0.00000000000E+00  0.00000000000E+00  0.12220093154E+03  0.12220753074E+03  0.12700000000E+01 0.  1.
          4   -1    0    0  502    0  0.00000000000E+00 -0.00000000000E+00 -0.70060812881E+02  0.70072322650E+02  0.12700000000E+01 0.  1.
         25    2    1    2    0    0  0.41130861265E+02 -0.24618505102E+02  0.53881304413E+02  0.14431267430E+03  0.12500053783E+03 0.  0.
    9000005    1    3    3    0    0 -0.34665008569E+02 -0.40530959913E+02  0.70642711607E+01  0.53808228530E+02  0.10000000000E+01 0.  0.
    9000005    1    3    3    0    0  0.75795869833E+02  0.15912454811E+02  0.46817033252E+02  0.90504445772E+02  0.10000000000E+01 0.  0.
         21    1    1    2  502  501 -0.41130861265E+02  0.24618505102E+02 -0.17411857523E+01  0.47967179088E+02  0.00000000000E+00 0.  1.
<mgrwt>
<rscale>  1 0.13387663E+03</rscale>
<asrwt>0</asrwt>
<pdfrwt beam="2">  1        4 0.10779980E-01 0.13387663E+03</pdfrwt>
<pdfrwt beam="1">  1       -4 0.18801536E-01 0.13387663E+03</pdfrwt>
<totfact> 0.27530215E+03</totfact>
</mgrwt>
</event>
<event>
 6    4  0.5642870E-004  0.1268840E+03  0.7818608E-02  0.1232154E+00
         -4   -1    0    0    0  501 -0.00000000000E+00  0.00000000000E+00  0.32078519559E+03  0.32078770957E+03  0.12700000000E+01 0.  1.
          4   -1    0    0  502    0  0.00000000000E+00 -0.00000000000E+00 -0.17373044605E+02  0.17419402368E+02  0.12700000000E+01 0.  1.
         25    2    1    2    0    0  0.65776244991E+01 -0.20715276397E+02  0.27029344780E+03  0.29859352436E+03  0.12500862788E+03 0.  0.
    9000005    1    3    3    0    0  0.48336817432E+02  0.66147043494E+01  0.40423536959E+02  0.63366115341E+02  0.10000000000E+01 0.  0.
    9000005    1    3    3    0    0 -0.41759192933E+02 -0.27329980746E+02  0.22986991084E+03  0.23522740902E+03  0.10000000000E+01 0.  0.
         21    1    1    2  502  501 -0.65776244991E+01  0.20715276397E+02  0.33118703188E+02  0.39613587582E+02  0.00000000000E+00 0. -1.
<mgrwt>
<rscale>  1 0.12688398E+03</rscale>
<asrwt>0</asrwt>
<pdfrwt beam="2">  1        4 0.26765359E-02 0.12688398E+03</pdfrwt>
<pdfrwt beam="1">  1       -4 0.49355320E-01 0.12688398E+03</pdfrwt>
<totfact> 0.41434828E+03</totfact>
</mgrwt>
</event>
<event>
 6    4  0.5642870E-004  0.1283446E+03  0.7818608E-02  0.1229933E+00
          4   -1    0    0  502    0  0.00000000000E+00  0.00000000000E+00  0.71971547860E+02  0.71982752110E+02  0.12700000000E+01 0. -1.
         -4   -1    0    0    0  501 -0.00000000000E+00 -0.00000000000E+00 -0.11735875727E+03  0.11736562874E+03  0.12700000000E+01 0. -1.
         25    2    1    2    0    0 -0.13331194753E+02  0.25884200499E+02 -0.74313411888E+02  0.14830647813E+03  0.12499846271E+03 0.  0.
    9000005    1    3    3    0    0 -0.93059767228E+01  0.33976100553E+01 -0.10752472067E+03  0.10798476982E+03  0.10000000000E+01 0.  0.
    9000005    1    3    3    0    0 -0.40252180300E+01  0.22486590444E+02  0.33211308786E+02  0.40321708312E+02  0.10000000000E+01 0.  0.
         21    1    1    2  502  501  0.13331194753E+02 -0.25884200499E+02  0.28926202474E+02  0.41041902716E+02  0.00000000000E+00 0.  1.
<mgrwt>
<rscale>  1 0.12834457E+03</rscale>
<asrwt>0</asrwt>
<pdfrwt beam="1">  1        4 0.11073936E-01 0.12834457E+03</pdfrwt>
<pdfrwt beam="2">  1       -4 0.18056584E-01 0.12834457E+03</pdfrwt>
<totfact> 0.27986046E+03</totfact>
</mgrwt>
</event>
<event>
 6    4  0.5642870E-004  0.1266493E+03  0.7818608E-02  0.1232514E+00
          4   -1    0    0  502    0  0.00000000000E+00  0.00000000000E+00  0.31281032955E+02  0.31306803138E+02  0.12700000000E+01 0.  1.
         -4   -1    0    0    0  501 -0.00000000000E+00 -0.00000000000E+00 -0.24325369479E+03  0.24325701003E+03  0.12700000000E+01 0.  1.
         25    2    1    2    0    0 -0.18445286801E+02 -0.87147523011E+01 -0.21900226152E+03  0.25298626038E+03  0.12499552743E+03 0.  0.
    9000005    1    3    3    0    0  0.34005803632E+02  0.36084825486E+01 -0.18743687696E+03  0.19053345814E+03  0.10000000000E+01 0.  0.
    9000005    1    3    3    0    0 -0.52451090433E+02 -0.12323234850E+02 -0.31565384558E+02  0.62452802235E+02  0.10000000000E+01 0.  0.
         21    1    1    2  502  501  0.18445286801E+02  0.87147523011E+01  0.70295996814E+01  0.21577552792E+02  0.00000000000E+00 0. -1.
<mgrwt>
<rscale>  1 0.12664935E+03</rscale>
<asrwt>0</asrwt>
<pdfrwt beam="1">  1        4 0.48147041E-02 0.12664935E+03</pdfrwt>
<pdfrwt beam="2">  1       -4 0.37425882E-01 0.12664935E+03</pdfrwt>
<totfact> 0.28412608E+03</totfact>
</mgrwt>
</event>
<event>
 6    4  0.5642870E-004  0.1340470E+03  0.7818608E-02  0.1221571E+00
          4   -1    0    0  502    0  0.00000000000E+00  0.00000000000E+00  0.79233249564E+02  0.79243427087E+02  0.12700000000E+01 0.  1.
         -4   -1    0    0    0  501 -0.00000000000E+00 -0.00000000000E+00 -0.11323188382E+03  0.11323900571E+03  0.12700000000E+01 0.  1.
         25    2    1    2    0    0 -0.31946491428E+02 -0.36360930682E+02 -0.47531654844E+02  0.14222471457E+03  0.12500366246E+03 0.  0.
    9000005    1    3    3    0    0 -0.50683886950E+02 -0.68589891973E+02 -0.58413860547E+02  0.10337605516E+03  0.10000000000E+01 0.  0.
    9000005    1    3    3    0    0  0.18737395522E+02  0.32228961291E+02  0.10882205703E+02  0.38848659408E+02  0.10000000000E+01 0.  0.
         21    1    1    2  502  501  0.31946491428E+02  0.36360930682E+02  0.13533020587E+02  0.50257718222E+02  0.00000000000E+00 0.  1.
<mgrwt>
<rscale>  1 0.13404705E+03</rscale>
<asrwt>0</asrwt>
<pdfrwt beam="1">  1        4 0.12191061E-01 0.13404705E+03</pdfrwt>
<pdfrwt beam="2">  1       -4 0.17421621E-01 0.13404705E+03</pdfrwt>
<totfact> 0.25575327E+03</totfact>
</mgrwt>
</event>
<event>
 6    4  0.5642870E-004  0.1275792E+03  0.7818608E-02  0.1231093E+00
         -4   -1    0    0    0  501 -0.00000000000E+00  0.00000000000E+00  0.74353832579E+02  0.74364677900E+02  0.12700000000E+01 0.  1.
          4   -1    0    0  502    0  0.00000000000E+00 -0.00000000000E+00 -0.10018391135E+03  0.10019196072E+03  0.12700000000E+01 0.  1.
         25    2    1    2    0    0 -0.14951302504E+02  0.20679925776E+02  0.12841897423E+02  0.12822390161E+03  0.12500101534E+03 0.  0.
    9000005    1    3    3    0    0 -0.90070691871E+01 -0.49596986125E+02 -0.14676784831E+02  0.52510916398E+02  0.10000000000E+01 0.  0.
    9000005    1    3    3    0    0 -0.59442333173E+01  0.70276911901E+02  0.27518682254E+02  0.75712985207E+02  0.10000000000E+01 0.  0.
         21    1    1    2  502  501  0.14951302504E+02 -0.20679925776E+02 -0.38671976190E+02  0.46332737013E+02  0.00000000000E+00 0.  1.
<mgrwt>
<rscale>  1 0.12757921E+03</rscale>
<asrwt>0</asrwt>
<pdfrwt beam="2">  1        4 0.15414363E-01 0.12757921E+03</pdfrwt>
<pdfrwt beam="1">  1       -4 0.11440505E-01 0.12757921E+03</pdfrwt>
<totfact> 0.34943743E+03</totfact>
</mgrwt>
</event>
<event>
 6    4  0.5642870E-004  0.1283931E+03  0.7818608E-02  0.1229860E+00
         -4   -1    0    0    0  501 -0.00000000000E+00  0.00000000000E+00  0.41257829529E+02  0.41277371494E+02  0.12700000000E+01 0. -1.
          4   -1    0    0  502    0  0.00000000000E+00 -0.00000000000E+00 -0.20212010839E+03  0.20212409830E+03  0.12700000000E+01 0. -1.
         25    2    1    2    0    0 -0.27292982109E+02  0.10795270099E+02 -0.66525565735E+02  0.14460440419E+03  0.12499335217E+03 0.  0.
    9000005    1    3    3    0    0 -0.65355760347E+02 -0.17501251413E+02 -0.69592996336E+02  0.97066236924E+02  0.10000000000E+01 0.  0.
    9000005    1    3    3    0    0  0.38062778238E+02  0.28296521512E+02  0.30674306010E+01  0.47538167270E+02  0.10000000000E+01 0.  0.
         21    1    1    2  502  501  0.27292982109E+02 -0.10795270099E+02 -0.94336713126E+02  0.98797065605E+02  0.00000000000E+00 0. -1.
<mgrwt>
<rscale>  1 0.12839308E+03</rscale>
<asrwt>0</asrwt>
<pdfrwt beam="2">  1        4 0.31097211E-01 0.12839308E+03</pdfrwt>
<pdfrwt beam="1">  1       -4 0.63491687E-02 0.12839308E+03</pdfrwt>
<totfact> 0.26025832E+03</totfact>
</mgrwt>
</event>
<event>
 6    4  0.5642870E-004  0.1561056E+03  0.7818608E-02  0.1193165E+00
         -4   -1    0    0    0  501 -0.00000000000E+00  0.00000000000E+00  0.13608294082E+04  0.13608300008E+04  0.12700000000E+01 0.  1.
          4   -1    0    0  502    0  0.00000000000E+00 -0.00000000000E+00 -0.12710916584E+02  0.12774204492E+02  0.12700000000E+01 0.  1.
         25    2    1    2    0    0 -0.84175005114E+01 -0.93129442060E+02  0.10386918010E+04  0.10503568942E+04  0.12500000149E+03 0.  0.
    9000005    1    3    3    0    0  0.41173670748E+02 -0.41908251526E+02  0.77408541827E+03  0.77631231311E+03  0.10000000000E+01 0.  0.
    9000005    1    3    3    0    0 -0.49591171260E+02 -0.51221190534E+02  0.26460638276E+03  0.27404458109E+03  0.10000000000E+01 0.  0.
         21    1    1    2  502  501  0.84175005114E+01  0.93129442060E+02  0.30942669061E+03  0.32324731113E+03  0.00000000000E+00 0.  1.
<mgrwt>
<rscale>  1 0.15610557E+03</rscale>
<asrwt>0</asrwt>
<pdfrwt beam="2">  1        4 0.19604398E-02 0.15610557E+03</pdfrwt>
<pdfrwt beam="1">  1       -4 0.20936325E+00 0.15610557E+03</pdfrwt>
<totfact> 0.22933886E+02</totfact>
</mgrwt>
</event>
<event>
 6    4  0.5642870E-004  0.1301849E+03  0.7818608E-02  0.1227182E+00
         -4   -1    0    0    0  501 -0.00000000000E+00  0.00000000000E+00  0.21345594032E+03  0.21345971834E+03  0.12700000000E+01 0. -1.
          4   -1    0    0  502    0  0.00000000000E+00 -0.00000000000E+00 -0.37663030750E+02  0.37684436911E+02  0.12700000000E+01 0. -1.
         25    2    1    2    0    0 -0.31613108569E+01  0.36237740857E+02  0.17029441129E+03  0.21435555332E+03  0.12499979590E+03 0.  0.
    9000005    1    3    3    0    0 -0.49427030288E+02 -0.66152480740E+01  0.24639636257E+02  0.55631865914E+02  0.10000000000E+01 0.  0.
    9000005    1    3    3    0    0  0.46265719431E+02  0.42852988931E+02  0.14565477503E+03  0.15872368741E+03  0.10000000000E+01 0.  0.
         21    1    1    2  502  501  0.31613108569E+01 -0.36237740857E+02  0.54984982727E+01  0.36788601931E+02  0.00000000000E+00 0. -1.
<mgrwt>
<rscale>  1 0.13018493E+03</rscale>
<asrwt>0</asrwt>
<pdfrwt beam="2">  1        4 0.57962496E-02 0.13018493E+03</pdfrwt>
<pdfrwt beam="1">  1       -4 0.32841313E-01 0.13018493E+03</pdfrwt>
<totfact> 0.27289976E+03</totfact>
</mgrwt>
</event>
<event>
 6    4  0.5642870E-004  0.1293406E+03  0.7818608E-02  0.1228438E+00
         -4   -1    0    0    0  501 -0.00000000000E+00  0.00000000000E+00  0.38642462813E+03  0.38642671507E+03  0.12700000000E+01 0.  1.
          4   -1    0    0  502    0  0.00000000000E+00 -0.00000000000E+00 -0.18734564344E+02  0.18777561108E+02  0.12700000000E+01 0.  1.
         25    2    1    2    0    0 -0.32013006624E+02  0.89078856067E+01  0.23316810307E+03  0.26663898135E+03  0.12499919626E+03 0.  0.
    9000005    1    3    3    0    0 -0.74316634281E+02  0.32030147811E+02  0.13906513785E+03  0.16090060616E+03  0.10000000000E+01 0.  0.
    9000005    1    3    3    0    0  0.42303627657E+02 -0.23122262204E+02  0.94102965226E+02  0.10573837519E+03  0.10000000000E+01 0.  0.
         21    1    1    2  502  501  0.32013006624E+02 -0.89078856067E+01  0.13452196071E+03  0.13856529483E+03  0.00000000000E+00 0.  1.
<mgrwt>
<rscale>  1 0.12934057E+03</rscale>
<asrwt>0</asrwt>
<pdfrwt beam="2">  1        4 0.28857087E-02 0.12934057E+03</pdfrwt>
<pdfrwt beam="1">  1       -4 0.59453410E-01 0.12934057E+03</pdfrwt>
<totfact> 0.25221225E+03</totfact>
</mgrwt>
</event>
<event>
 6    4  0.5642870E-004  0.1318723E+03  0.7818608E-02  0.1224704E+00
          4   -1    0    0  502    0  0.00000000000E+00  0.00000000000E+00  0.14509997559E+03  0.14510553338E+03  0.12700000000E+01 0. -1.
         -4   -1    0    0    0  501 -0.00000000000E+00 -0.00000000000E+00 -0.11826705824E+03  0.11827387693E+03  0.12700000000E+01 0. -1.
         25    2    1    2    0    0  0.13650710706E+02 -0.39721041527E+02 -0.76066576457E+02  0.15223801897E+03  0.12500474921E+03 0.  0.
    9000005    1    3    3    0    0 -0.44816773615E+02  0.15905837553E+02 -0.45828363382E+02  0.66051326677E+02  0.10000000000E+01 0.  0.
    9000005    1    3    3    0    0  0.58467484322E+02 -0.55626879080E+02 -0.30238213075E+02  0.86186692297E+02  0.10000000000E+01 0.  0.
         21    1    1    2  502  501 -0.13650710706E+02  0.39721041527E+02  0.10289949381E+03  0.11114139134E+03  0.00000000000E+00 0. -1.
<mgrwt>
<rscale>  1 0.13187225E+03</rscale>
<asrwt>0</asrwt>
<pdfrwt beam="1">  1        4 0.22324025E-01 0.13187225E+03</pdfrwt>
<pdfrwt beam="2">  1       -4 0.18195884E-01 0.13187225E+03</pdfrwt>
<totfact> 0.81184385E+02</totfact>
</mgrwt>
</event>
<event>
 6    4  0.5642870E-004  0.1363096E+03  0.7818608E-02  0.1218383E+00
         -4   -1    0    0    0  501 -0.00000000000E+00  0.00000000000E+00  0.40338650928E+02  0.40358637968E+02  0.12700000000E+01 0.  1.
          4   -1    0    0  502    0  0.00000000000E+00 -0.00000000000E+00 -0.22679355876E+03  0.22679711461E+03  0.12700000000E+01 0.  1.
         25    2    1    2    0    0  0.44816515253E+02 -0.30711949910E+02 -0.14326572399E+03  0.19775078512E+03  0.12501424494E+03 0.  0.
    9000005    1    3    3    0    0 -0.39242973002E+02 -0.56490225339E+01 -0.15095550433E+02  0.42435810685E+02  0.10000000000E+01 0.  0.
    9000005    1    3    3    0    0  0.84059488254E+02 -0.25062927376E+02 -0.12817017355E+03  0.15531497443E+03  0.10000000000E+01 0.  0.
         21    1    1    2  502  501 -0.44816515253E+02  0.30711949910E+02 -0.43189183842E+02  0.69404967457E+02  0.00000000000E+00 0.  1.
<mgrwt>
<rscale>  1 0.13630959E+03</rscale>
<asrwt>0</asrwt>
<pdfrwt beam="2">  1        4 0.34893127E-01 0.13630959E+03</pdfrwt>
<pdfrwt beam="1">  1       -4 0.62077574E-02 0.13630959E+03</pdfrwt>
<totfact> 0.21960905E+03</totfact>
</mgrwt>
</event>
<event>
 6    4  0.5642870E-004  0.1271024E+03  0.7818608E-02  0.1231820E+00
         -4   -1    0    0    0  501 -0.00000000000E+00  0.00000000000E+00  0.46206358654E+02  0.46223808584E+02  0.12700000000E+01 0. -1.
          4   -1    0    0  502    0  0.00000000000E+00 -0.00000000000E+00 -0.12204166876E+03  0.12204827657E+03  0.12700000000E+01 0. -1.
         25    2    1    2    0    0 -0.14337173870E+02 -0.18007342745E+02 -0.66328053262E+02  0.14336813205E+03  0.12500076677E+03 0.  0.
    9000005    1    3    3    0    0 -0.23927090358E+02 -0.56963889371E+02 -0.79896755484E+02  0.10100436566E+03  0.10000000000E+01 0.  0.
    9000005    1    3    3    0    0  0.95899164880E+01  0.38956546626E+02  0.13568702222E+02  0.42363766396E+02  0.10000000000E+01 0.  0.
         21    1    1    2  502  501  0.14337173870E+02  0.18007342745E+02 -0.95072568447E+01  0.24903953100E+02  0.00000000000E+00 0. -1.
<mgrwt>
<rscale>  1 0.12710236E+03</rscale>
<asrwt>0</asrwt>
<pdfrwt beam="2">  1        4 0.18777492E-01 0.12710236E+03</pdfrwt>
<pdfrwt beam="1">  1       -4 0.71105212E-02 0.12710236E+03</pdfrwt>
<totfact> 0.54514542E+03</totfact>
</mgrwt>
</event>
<event>
 6    4  0.5642870E-004  0.1307578E+03  0.7818608E-02  0.1226336E+00
         -4   -1    0    0    0  501 -0.00000000000E+00  0.00000000000E+00  0.54219874392E+02  0.54234746050E+02  0.12700000000E+01 0.  1.
          4   -1    0    0  502    0  0.00000000000E+00 -0.00000000000E+00 -0.16433515879E+03  0.16434006607E+03  0.12700000000E+01 0.  1.
         25    2    1    2    0    0 -0.24167825594E+02  0.29796884627E+02 -0.36815880240E+02  0.13584186356E+03  0.12500265889E+03 0.  0.
    9000005    1    3    3    0    0  0.38589842842E+02 -0.25373679943E+02 -0.51673565864E+01  0.46483343022E+02  0.10000000000E+01 0.  0.
    9000005    1    3    3    0    0 -0.62757668437E+02  0.55170564570E+02 -0.31648523653E+02  0.89358520534E+02  0.10000000000E+01 0.  0.
         21    1    1    2  502  501  0.24167825594E+02 -0.29796884627E+02 -0.73299404160E+02  0.82732948561E+02  0.00000000000E+00 0.  1.
<mgrwt>
<rscale>  1 0.13075780E+03</rscale>
<asrwt>0</asrwt>
<pdfrwt beam="2">  1        4 0.25283853E-01 0.13075780E+03</pdfrwt>
<pdfrwt beam="1">  1       -4 0.83430407E-02 0.13075780E+03</pdfrwt>
<totfact> 0.24572904E+03</totfact>
</mgrwt>
</event>
<event>
 6    4  0.5642870E-004  0.1275302E+03  0.7818608E-02  0.1231167E+00
         -4   -1    0    0    0  501 -0.00000000000E+00  0.00000000000E+00  0.15151516914E+02  0.15204649447E+02  0.12700000000E+01 0. -1.
          4   -1    0    0  502    0  0.00000000000E+00 -0.00000000000E+00 -0.41830687479E+03  0.41830880268E+03  0.12700000000E+01 0. -1.
         25    2    1    2    0    0 -0.23441873593E+02  0.94901858888E+01 -0.37276431104E+03  0.39397611795E+03  0.12499745943E+03 0.  0.
    9000005    1    3    3    0    0 -0.59795213047E+02  0.45858939839E+02 -0.20040148370E+03  0.21410339683E+03  0.10000000000E+01 0.  0.
    9000005    1    3    3    0    0  0.36353339454E+02 -0.36368753950E+02 -0.17236282734E+03  0.17987272112E+03  0.10000000000E+01 0.  0.
         21    1    1    2  502  501  0.23441873593E+02 -0.94901858888E+01 -0.30391046834E+02  0.39537334172E+02  0.00000000000E+00 0. -1.
<mgrwt>
<rscale>  1 0.12753019E+03</rscale>
<asrwt>0</asrwt>
<pdfrwt beam="2">  1        4 0.64359130E-01 0.12753019E+03</pdfrwt>
<pdfrwt beam="1">  1       -4 0.23352383E-02 0.12753019E+03</pdfrwt>
<totfact> 0.29554439E+03</totfact>
</mgrwt>
</event>
<event>
 6    4  0.5642870E-004  0.1268873E+03  0.7818608E-02  0.1232149E+00
          4   -1    0    0  502    0  0.00000000000E+00  0.00000000000E+00  0.31144785332E+02  0.31170668158E+02  0.12700000000E+01 0. -1.
         -4   -1    0    0    0  501 -0.00000000000E+00 -0.00000000000E+00 -0.17751864964E+03  0.17752319248E+03  0.12700000000E+01 0. -1.
         25    2    1    2    0    0  0.20911448607E+02  0.61854978649E+01 -0.12277035411E+03  0.17655860337E+03  0.12499932602E+03 0.  0.
    9000005    1    3    3    0    0  0.53950299853E+01 -0.53910064116E+02 -0.93182502265E+02  0.10779322840E+03  0.10000000000E+01 0.  0.
    9000005    1    3    3    0    0  0.15516418622E+02  0.60095561980E+02 -0.29587851849E+02  0.68765374962E+02  0.10000000000E+01 0.  0.
         21    1    1    2  502  501 -0.20911448607E+02 -0.61854978649E+01 -0.23603510190E+02  0.32135257272E+02  0.00000000000E+00 0.  1.
<mgrwt>
<rscale>  1 0.12688728E+03</rscale>
<asrwt>0</asrwt>
<pdfrwt beam="1">  1        4 0.47938460E-02 0.12688728E+03</pdfrwt>
<pdfrwt beam="2">  1       -4 0.27312901E-01 0.12688728E+03</pdfrwt>
<totfact> 0.52142494E+03</totfact>
</mgrwt>
</event>
<event>
 6    4  0.5642870E-004  0.1276998E+03  0.7818608E-02  0.1230909E+00
         -4   -1    0    0    0  501 -0.00000000000E+00  0.00000000000E+00  0.53969769003E+02  0.53984709559E+02  0.12700000000E+01 0.  1.
          4   -1    0    0  502    0  0.00000000000E+00 -0.00000000000E+00 -0.11102825858E+03  0.11103552181E+03  0.12700000000E+01 0.  1.
         25    2    1    2    0    0  0.12612895971E+02  0.22778370218E+02 -0.39705365326E+02  0.13373013364E+03  0.12501717207E+03 0.  0.
    9000005    1    3    3    0    0 -0.13304706321E+02  0.64287896908E+02 -0.51425680245E+02  0.83399936977E+02  0.10000000000E+01 0.  0.
    9000005    1    3    3    0    0  0.25917602291E+02 -0.41509526690E+02  0.11720314919E+02  0.50330196665E+02  0.10000000000E+01 0.  0.
         21    1    1    2  502  501 -0.12612895971E+02 -0.22778370218E+02 -0.17353124256E+02  0.31290097730E+02  0.00000000000E+00 0. -1.
<mgrwt>
<rscale>  1 0.12769978E+03</rscale>
<asrwt>0</asrwt>
<pdfrwt beam="2">  1        4 0.17082979E-01 0.12769978E+03</pdfrwt>
<pdfrwt beam="1">  1       -4 0.83047494E-02 0.12769978E+03</pdfrwt>
<totfact> 0.49968081E+03</totfact>
</mgrwt>
</event>
<event>
 6    4  0.5642870E-004  0.1308388E+03  0.7818608E-02  0.1226216E+00
          4   -1    0    0  502    0  0.00000000000E+00  0.00000000000E+00  0.15068249371E+03  0.15068784559E+03  0.12700000000E+01 0.  1.
         -4   -1    0    0    0  501 -0.00000000000E+00 -0.00000000000E+00 -0.58829290979E+02  0.58842997689E+02  0.12700000000E+01 0.  1.
         25    2    1    2    0    0  0.25109924082E+02  0.29389225172E+02  0.10597880091E+03  0.16837543820E+03  0.12499818839E+03 0.  0.
    9000005    1    3    3    0    0  0.24635813633E+02 -0.12608805268E+02 -0.20917540380E+02  0.34705169344E+02  0.10000000000E+01 0.  0.
    9000005    1    3    3    0    0  0.47411044861E+00  0.41998030440E+02  0.12689634130E+03  0.13367026885E+03  0.10000000000E+01 0.  0.
         21    1    1    2  502  501 -0.25109924082E+02 -0.29389225172E+02 -0.14125598186E+02  0.41155405085E+02  0.00000000000E+00 0.  1.
<mgrwt>
<rscale>  1 0.13083876E+03</rscale>
<asrwt>0</asrwt>
<pdfrwt beam="1">  1        4 0.23183388E-01 0.13083876E+03</pdfrwt>
<pdfrwt beam="2">  1       -4 0.90521262E-02 0.13083876E+03</pdfrwt>
<totfact> 0.25161628E+03</totfact>
</mgrwt>
</event>
<event>
 6    4  0.5642870E-004  0.1513745E+03  0.7818608E-02  0.1198794E+00
         -4   -1    0    0    0  501 -0.00000000000E+00  0.00000000000E+00  0.80374502993E+02  0.80384536021E+02  0.12700000000E+01 0.  1.
          4   -1    0    0  502    0  0.00000000000E+00 -0.00000000000E+00 -0.35842772333E+03  0.35842997329E+03  0.12700000000E+01 0.  1.
         25    2    1    2    0    0 -0.87977268344E+01  0.84917995736E+02 -0.36296528868E+01  0.15141798816E+03  0.12500306701E+03 0.  0.
    9000005    1    3    3    0    0  0.48045869119E+00  0.51966486440E+02 -0.63733467835E+02  0.82241725880E+02  0.10000000000E+01 0.  0.
    9000005    1    3    3    0    0 -0.92781855256E+01  0.32951509297E+02  0.60103814948E+02  0.69176262279E+02  0.10000000000E+01 0.  0.
         21    1    1    2  502  501  0.87977268344E+01 -0.84917995736E+02 -0.27442356745E+03  0.28739652115E+03  0.00000000000E+00 0.  1.
<mgrwt>
<rscale>  1 0.15137448E+03</rscale>
<asrwt>0</asrwt>
<pdfrwt beam="2">  1        4 0.55143671E-01 0.15137448E+03</pdfrwt>
<pdfrwt beam="1">  1       -4 0.12366253E-01 0.15137448E+03</pdfrwt>
<totfact> 0.28391836E+02</totfact>
</mgrwt>
</event>
<event>
 6    4  0.5642870E-004  0.1347120E+03  0.7818608E-02  0.1220627E+00
         -4   -1    0    0    0  501 -0.00000000000E+00  0.00000000000E+00  0.75057536924E+02  0.75068280579E+02  0.12700000000E+01 0.  1.
          4   -1    0    0  502    0  0.00000000000E+00 -0.00000000000E+00 -0.19847931832E+03  0.19848338143E+03  0.12700000000E+01 0.  1.
         25    2    1    2    0    0  0.41761347770E+02  0.27887737370E+02  0.58806366784E+01  0.13484026599E+03  0.12500231750E+03 0.  0.
    9000005    1    3    3    0    0 -0.19695121771E+02  0.14493864372E+02 -0.46783783783E+02  0.52798601790E+02  0.10000000000E+01 0.  0.
    9000005    1    3    3    0    0  0.61456469540E+02  0.13393872998E+02  0.52664420461E+02  0.82041664200E+02  0.10000000000E+01 0.  0.
         21    1    1    2  502  501 -0.41761347770E+02 -0.27887737370E+02 -0.12930241808E+03  0.13871139601E+03  0.00000000000E+00 0.  1.
<mgrwt>
<rscale>  1 0.13471197E+03</rscale>
<asrwt>0</asrwt>
<pdfrwt beam="2">  1        4 0.30536418E-01 0.13471197E+03</pdfrwt>
<pdfrwt beam="1">  1       -4 0.11548452E-01 0.13471197E+03</pdfrwt>
<totfact> 0.10057962E+03</totfact>
</mgrwt>
</event>
<event>
 6    4  0.5642870E-004  0.1269043E+03  0.7818608E-02  0.1232123E+00
         -4   -1    0    0    0  501 -0.00000000000E+00  0.00000000000E+00  0.20143808761E+03  0.20144209104E+03  0.12700000000E+01 0.  1.
          4   -1    0    0  502    0  0.00000000000E+00 -0.00000000000E+00 -0.28110816039E+02  0.28139489661E+02  0.12700000000E+01 0.  1.
         25    2    1    2    0    0 -0.15504656415E+00 -0.21913541556E+02  0.15884835785E+03  0.20331627496E+03  0.12499791810E+03 0.  0.
    9000005    1    3    3    0    0 -0.28665491954E+02 -0.66121514296E+02  0.11008241499E+03  0.13157850573E+03  0.10000000000E+01 0.  0.
    9000005    1    3    3    0    0  0.28510445390E+02  0.44207972740E+02  0.48765942860E+02  0.71737769223E+02  0.10000000000E+01 0.  0.
         21    1    1    2  502  501  0.15504656415E+00  0.21913541556E+02  0.14478913728E+02  0.26265305742E+02  0.00000000000E+00 0.  1.
<mgrwt>
<rscale>  1 0.12690432E+03</rscale>
<asrwt>0</asrwt>
<pdfrwt beam="2">  1        4 0.43272548E-02 0.12690432E+03</pdfrwt>
<pdfrwt beam="1">  1       -4 0.30992987E-01 0.12690432E+03</pdfrwt>
<totfact> 0.48422541E+03</totfact>
</mgrwt>
</event>
<event>
 6    4  0.5642870E-004  0.1281942E+03  0.7818608E-02  0.1230160E+00
          4   -1    0    0  502    0  0.00000000000E+00  0.00000000000E+00  0.54994984637E+02  0.55009646747E+02  0.12700000000E+01 0.  1.
         -4   -1    0    0    0  501 -0.00000000000E+00 -0.00000000000E+00 -0.13632404769E+03  0.13632996324E+03  0.12700000000E+01 0.  1.
         25    2    1    2    0    0  0.20066765826E+02  0.20167754005E+02 -0.95210591753E+02  0.15968348528E+03  0.12499738116E+03 0.  0.
    9000005    1    3    3    0    0 -0.32282749831E+01  0.69436111477E+01  0.30337880302E+02  0.31305310673E+02  0.10000000000E+01 0.  0.
    9000005    1    3    3    0    0  0.23295040809E+02  0.13224142857E+02 -0.12554847206E+03  0.12837817461E+03  0.10000000000E+01 0.  0.
         21    1    1    2  502  501 -0.20066765826E+02 -0.20167754005E+02  0.13881528703E+02  0.31656124707E+02  0.00000000000E+00 0. -1.
<mgrwt>
<rscale>  1 0.12819422E+03</rscale>
<asrwt>0</asrwt>
<pdfrwt beam="1">  1        4 0.84623498E-02 0.12819422E+03</pdfrwt>
<pdfrwt beam="2">  1       -4 0.20974513E-01 0.12819422E+03</pdfrwt>
<totfact> 0.33602525E+03</totfact>
</mgrwt>
</event>
<event>
 6    4  0.5642870E-004  0.1298084E+03  0.7818608E-02  0.1227740E+00
          4   -1    0    0  502    0  0.00000000000E+00  0.00000000000E+00  0.17962274630E+02  0.18007115535E+02  0.12700000000E+01 0.  1.
         -4   -1    0    0    0  501 -0.00000000000E+00 -0.00000000000E+00 -0.37937045116E+03  0.37937257691E+03  0.12700000000E+01 0.  1.
         25    2    1    2    0    0 -0.34705807018E+02  0.47046160449E+01 -0.29516499752E+03  0.32244782194E+03  0.12499438250E+03 0.  0.
    9000005    1    3    3    0    0  0.12101752776E+02  0.35334511162E+02 -0.21468318677E+02  0.43091400605E+02  0.10000000000E+01 0.  0.
    9000005    1    3    3    0    0 -0.46807559794E+02 -0.30629895117E+02 -0.27369667885E+03  0.27935642133E+03  0.10000000000E+01 0.  0.
         21    1    1    2  502  501  0.34705807018E+02 -0.47046160449E+01 -0.66243179002E+02  0.74931870504E+02  0.00000000000E+00 0.  1.
<mgrwt>
<rscale>  1 0.12980841E+03</rscale>
<asrwt>0</asrwt>
<pdfrwt beam="1">  1        4 0.27670400E-02 0.12980841E+03</pdfrwt>
<pdfrwt beam="2">  1       -4 0.58368292E-01 0.12980841E+03</pdfrwt>
<totfact> 0.28011042E+03</totfact>
</mgrwt>
</event>
<event>
 6    4  0.5642870E-004  0.1267655E+03  0.7818608E-02  0.1232336E+00
          4   -1    0    0  502    0  0.00000000000E+00  0.00000000000E+00  0.24578292990E+03  0.24578621103E+03  0.12700000000E+01 0.  1.
         -4   -1    0    0    0  501 -0.00000000000E+00 -0.00000000000E+00 -0.31025903156E+02  0.31051885074E+02  0.12700000000E+01 0.  1.
         25    2    1    2    0    0 -0.19960112523E+02 -0.67523741629E+01  0.10363714915E+03  0.16373801721E+03  0.12500191577E+03 0.  0.
    9000005    1    3    3    0    0  0.50834700809E+02 -0.17337834448E+02  0.32343356959E+02  0.62704545681E+02  0.10000000000E+01 0.  0.
    9000005    1    3    3    0    0 -0.70794813331E+02  0.10585460285E+02  0.71293792194E+02  0.10103347153E+03  0.10000000000E+01 0.  0.
         21    1    1    2  502  501  0.19960112523E+02  0.67523741629E+01  0.11111987759E+03  0.11310007889E+03  0.00000000000E+00 0.  1.
<mgrwt>
<rscale>  1 0.12676545E+03</rscale>
<asrwt>0</asrwt>
<pdfrwt beam="1">  1        4 0.37815010E-01 0.12676545E+03</pdfrwt>
<pdfrwt beam="2">  1       -4 0.47754667E-02 0.12676545E+03</pdfrwt>
<totfact> 0.28219653E+03</totfact>
</mgrwt>
</event>
<event>
 6    4  0.5642870E-004  0.1281671E+03  0.7818608E-02  0.1230201E+00
          4   -1    0    0  502    0  0.00000000000E+00  0.00000000000E+00  0.14310533378E+03  0.14311096903E+03  0.12700000000E+01 0.  1.
         -4   -1    0    0    0  501 -0.00000000000E+00 -0.00000000000E+00 -0.46060465043E+02  0.46077970224E+02  0.12700000000E+01 0.  1.
         25    2    1    2    0    0 -0.73842683565E+00 -0.28304221500E+02  0.57306330499E+02  0.14039523423E+03  0.12500052820E+03 0.  0.
    9000005    1    3    3    0    0  0.21839458407E+02  0.39008963774E+02 -0.61847424086E+01  0.45143241320E+02  0.10000000000E+01 0.  0.
    9000005    1    3    3    0    0 -0.22577885242E+02 -0.67313185273E+02  0.63491072908E+02  0.95251992906E+02  0.10000000000E+01 0.  0.
         21    1    1    2  502  501  0.73842683565E+00  0.28304221500E+02  0.39738538239E+02  0.48793705027E+02  0.00000000000E+00 0. -1.
<mgrwt>
<rscale>  1 0.12816710E+03</rscale>
<asrwt>0</asrwt>
<pdfrwt beam="1">  1        4 0.22017985E-01 0.12816710E+03</pdfrwt>
<pdfrwt beam="2">  1       -4 0.70880054E-02 0.12816710E+03</pdfrwt>
<totfact> 0.41230923E+03</totfact>
</mgrwt>
</event>
<event>
 6    4  0.5642870E-004  0.1289289E+03  0.7818608E-02  0.1229054E+00
          4   -1    0    0  502    0  0.00000000000E+00  0.00000000000E+00  0.62352323688E+02  0.62365256107E+02  0.12700000000E+01 0. -1.
         -4   -1    0    0    0  501 -0.00000000000E+00 -0.00000000000E+00 -0.12054335944E+03  0.12055004937E+03  0.12700000000E+01 0. -1.
         25    2    1    2    0    0  0.28594927144E+02 -0.13483387662E+02 -0.72828710807E+02  0.14807663254E+03  0.12499278533E+03 0.  0.
    9000005    1    3    3    0    0  0.77953817575E+02 -0.14030353158E+02 -0.39560338378E+02  0.88541904525E+02  0.10000000000E+01 0.  0.
    9000005    1    3    3    0    0 -0.49358890431E+02  0.54696549585E+00 -0.33268372429E+02  0.59534728016E+02  0.10000000000E+01 0.  0.
         21    1    1    2  502  501 -0.28594927144E+02  0.13483387662E+02  0.14637675058E+02  0.34838672941E+02  0.00000000000E+00 0.  1.
<mgrwt>
<rscale>  1 0.12892893E+03</rscale>
<asrwt>0</asrwt>
<pdfrwt beam="1">  1        4 0.95941746E-02 0.12892893E+03</pdfrwt>
<pdfrwt beam="2">  1       -4 0.18546642E-01 0.12892893E+03</pdfrwt>
<totfact> 0.34027161E+03</totfact>
</mgrwt>
</event>
<event>
 6    4  0.5642870E-004  0.1271354E+03  0.7818608E-02  0.1231769E+00
         -4   -1    0    0    0  501 -0.00000000000E+00  0.00000000000E+00  0.26061083825E+02  0.26092010082E+02  0.12700000000E+01 0. -1.
          4   -1    0    0  502    0  0.00000000000E+00 -0.00000000000E+00 -0.29168843911E+03  0.29169120386E+03  0.12700000000E+01 0. -1.
         25    2    1    2    0    0  0.42002486777E+01 -0.22820978836E+02 -0.13629607752E+03  0.18638679629E+03  0.12499991168E+03 0.  0.
    9000005    1    3    3    0    0 -0.72791140427E+01  0.44086685331E+02 -0.99698285053E+02  0.10925826910E+03  0.10000000000E+01 0.  0.
    9000005    1    3    3    0    0  0.11479362720E+02 -0.66907664166E+02 -0.36597792466E+02  0.77128527187E+02  0.10000000000E+01 0.  0.
         21    1    1    2  502  501 -0.42002486777E+01  0.22820978836E+02 -0.12933127777E+03  0.13139641766E+03  0.00000000000E+00 0. -1.
<mgrwt>
<rscale>  1 0.12713543E+03</rscale>
<asrwt>0</asrwt>
<pdfrwt beam="2">  1        4 0.44877734E-01 0.12713543E+03</pdfrwt>
<pdfrwt beam="1">  1       -4 0.40119893E-02 0.12713543E+03</pdfrwt>
<totfact> 0.26585384E+03</totfact>
</mgrwt>
</event>
<event>
 6    4  0.5642870E-004  0.1276122E+03  0.7818608E-02  0.1231042E+00
         -4   -1    0    0    0  501 -0.00000000000E+00  0.00000000000E+00  0.11970306803E+03  0.11970980493E+03  0.12700000000E+01 0. -1.
          4   -1    0    0  502    0  0.00000000000E+00 -0.00000000000E+00 -0.25371064467E+03  0.25371382327E+03  0.12700000000E+01 0. -1.
         25    2    1    2    0    0 -0.23854107161E+02  0.95279345285E+01  0.84732106416E+02  0.15318092365E+03  0.12500026219E+03 0.  0.
    9000005    1    3    3    0    0 -0.14557316870E+02  0.15941206779E+02  0.11699987984E+03  0.11897902937E+03  0.10000000000E+01 0.  0.
    9000005    1    3    3    0    0 -0.92967902911E+01 -0.64132722507E+01 -0.32267773422E+02  0.34201894279E+02  0.10000000000E+01 0.  0.
         21    1    1    2  502  501  0.23854107161E+02 -0.95279345285E+01 -0.21873968305E+03  0.22024270455E+03  0.00000000000E+00 0. -1.
<mgrwt>
<rscale>  1 0.12761217E+03</rscale>
<asrwt>0</asrwt>
<pdfrwt beam="2">  1        4 0.39033170E-01 0.12761217E+03</pdfrwt>
<pdfrwt beam="1">  1       -4 0.18416619E-01 0.12761217E+03</pdfrwt>
<totfact> 0.27523264E+02</totfact>
</mgrwt>
</event>
<event>
 6    4  0.5642870E-004  0.1284458E+03  0.7818608E-02  0.1229780E+00
         -4   -1    0    0    0  501 -0.00000000000E+00  0.00000000000E+00  0.54948026343E+02  0.54962700980E+02  0.12700000000E+01 0.  1.
          4   -1    0    0  502    0  0.00000000000E+00 -0.00000000000E+00 -0.20027707217E+03  0.20028109880E+03  0.12700000000E+01 0.  1.
         25    2    1    2    0    0 -0.15095816570E+02 -0.25433424272E+02 -0.24390190898E+02  0.13074099106E+03  0.12499433020E+03 0.  0.
    9000005    1    3    3    0    0  0.50009608413E+01  0.19693175396E+02  0.42771305445E+02  0.47362594270E+02  0.10000000000E+01 0.  0.
    9000005    1    3    3    0    0 -0.20096777412E+02 -0.45126599668E+02 -0.67161496343E+02  0.83378396788E+02  0.10000000000E+01 0.  0.
         21    1    1    2  502  501  0.15095816570E+02  0.25433424272E+02 -0.12093885493E+03  0.12450280872E+03  0.00000000000E+00 0.  1.
<mgrwt>
<rscale>  1 0.12844581E+03</rscale>
<asrwt>0</asrwt>
<pdfrwt beam="2">  1        4 0.30813296E-01 0.12844581E+03</pdfrwt>
<pdfrwt beam="1">  1       -4 0.84549811E-02 0.12844581E+03</pdfrwt>
<totfact> 0.16534158E+03</totfact>
</mgrwt>
</event>
<event>
 6    4  0.5642870E-004  0.1487447E+03  0.7818608E-02  0.1202024E+00
          4   -1    0    0  502    0  0.00000000000E+00  0.00000000000E+00  0.25779589778E+03  0.25779902601E+03  0.12700000000E+01 0. -1.
         -4   -1    0    0    0  501 -0.00000000000E+00 -0.00000000000E+00 -0.51642272380E+02  0.51657886103E+02  0.12700000000E+01 0. -1.
         25    2    1    2    0    0  0.75104571215E+02  0.29348953749E+02  0.11699041269E+03  0.18923987420E+03  0.12499166221E+03 0.  0.
    9000005    1    3    3    0    0  0.19761819490E+02 -0.31295966593E+02  0.98285821391E+02  0.10502889946E+03  0.10000000000E+01 0.  0.
    9000005    1    3    3    0    0  0.55342751726E+02  0.60644920342E+02  0.18704591299E+02  0.84210974745E+02  0.10000000000E+01 0.  0.
         21    1    1    2  502  501 -0.75104571215E+02 -0.29348953749E+02  0.89163212711E+02  0.12021703791E+03  0.00000000000E+00 0. -1.
<mgrwt>
<rscale>  1 0.14874466E+03</rscale>
<asrwt>0</asrwt>
<pdfrwt beam="1">  1        4 0.39662349E-01 0.14874466E+03</pdfrwt>
<pdfrwt beam="2">  1       -4 0.79464066E-02 0.14874466E+03</pdfrwt>
<totfact> 0.11616314E+03</totfact>
</mgrwt>
</event>
<event>
 6    4  0.5642870E-004  0.1563949E+03  0.7818608E-02  0.1192828E+00
          4   -1    0    0  502    0  0.00000000000E+00  0.00000000000E+00  0.21305294389E+03  0.21305672907E+03  0.12700000000E+01 0.  1.
         -4   -1    0    0    0  501 -0.00000000000E+00 -0.00000000000E+00 -0.81986398605E+02  0.81996234403E+02  0.12700000000E+01 0.  1.
         25    2    1    2    0    0 -0.15809555845E+02  0.92660746976E+02  0.34231278244E+02  0.16009732250E+03  0.12499366454E+03 0.  0.
    9000005    1    3    3    0    0  0.47561303321E+02  0.46420453686E+01  0.74234623598E+01  0.48370796481E+02  0.10000000000E+01 0.  0.
    9000005    1    3    3    0    0 -0.63370859166E+02  0.88018701607E+02  0.26807815884E+02  0.11172652602E+03  0.10000000000E+01 0.  0.
         21    1    1    2  502  501  0.15809555845E+02 -0.92660746976E+02  0.96835267046E+02  0.13495564097E+03  0.00000000000E+00 0.  1.
<mgrwt>
<rscale>  1 0.15639492E+03</rscale>
<asrwt>0</asrwt>
<pdfrwt beam="1">  1        4 0.32778424E-01 0.15639492E+03</pdfrwt>
<pdfrwt beam="2">  1       -4 0.12614340E-01 0.15639492E+03</pdfrwt>
<totfact> 0.77839605E+02</totfact>
</mgrwt>
</event>
<event>
 6    4  0.5642870E-004  0.1272689E+03  0.7818608E-02  0.1231565E+00
         -4   -1    0    0    0  501 -0.00000000000E+00  0.00000000000E+00  0.70361898242E+03  0.70362012857E+03  0.12700000000E+01 0. -1.
          4   -1    0    0  502    0  0.00000000000E+00 -0.00000000000E+00 -0.82023810373E+01  0.83001177510E+01  0.12700000000E+01 0. -1.
         25    2    1    2    0    0 -0.20320794102E+02  0.12609451845E+02  0.61462815719E+03  0.62766642941E+03  0.12500176816E+03 0.  0.
    9000005    1    3    3    0    0 -0.45752724746E+02 -0.35013776679E+02  0.16427772597E+03  0.17409034330E+03  0.10000000000E+01 0.  0.
    9000005    1    3    3    0    0  0.25431930644E+02  0.47623228524E+02  0.45035043122E+03  0.45357608611E+03  0.10000000000E+01 0.  0.
         21    1    1    2  502  501  0.20320794102E+02 -0.12609451845E+02  0.80788444193E+02  0.84253816910E+02  0.00000000000E+00 0. -1.
<mgrwt>
<rscale>  1 0.12726891E+03</rscale>
<asrwt>0</asrwt>
<pdfrwt beam="2">  1        4 0.12695113E-02 0.12726891E+03</pdfrwt>
<pdfrwt beam="1">  1       -4 0.10825667E+00 0.12726891E+03</pdfrwt>
<totfact> 0.23559795E+03</totfact>
</mgrwt>
</event>
<event>
 6    4  0.5642870E-004  0.1316856E+03  0.7818608E-02  0.1224976E+00
          4   -1    0    0  502    0  0.00000000000E+00  0.00000000000E+00  0.21513866880E+03  0.21514241728E+03  0.12700000000E+01 0. -1.
         -4   -1    0    0    0  501 -0.00000000000E+00 -0.00000000000E+00 -0.34835704337E+02  0.34858846749E+02  0.12700000000E+01 0. -1.
         25    2    1    2    0    0 -0.17910895064E+02 -0.37345626130E+02  0.13395382893E+03  0.18784228786E+03  0.12500240347E+03 0.  0.
    9000005    1    3    3    0    0  0.40370989005E+02 -0.56884555929E+02  0.78884293532E+02  0.10530622594E+03  0.10000000000E+01 0.  0.
    9000005    1    3    3    0    0 -0.58281884069E+02  0.19538929800E+02  0.55069535396E+02  0.82536061919E+02  0.10000000000E+01 0.  0.
         21    1    1    2  502  501  0.17910895064E+02  0.37345626130E+02  0.46349135530E+02  0.62158976161E+02  0.00000000000E+00 0.  1.
<mgrwt>
<rscale>  1 0.13168560E+03</rscale>
<asrwt>0</asrwt>
<pdfrwt beam="1">  1        4 0.33100325E-01 0.13168560E+03</pdfrwt>
<pdfrwt beam="2">  1       -4 0.53614076E-02 0.13168560E+03</pdfrwt>
<totfact> 0.30578942E+03</totfact>
</mgrwt>
</event>
<event>
 6    4  0.5642870E-004  0.1279241E+03  0.7818608E-02  0.1230569E+00
         -4   -1    0    0    0  501 -0.00000000000E+00  0.00000000000E+00  0.13696780777E+04  0.13696786665E+04  0.12700000000E+01 0. -1.
          4   -1    0    0  502    0  0.00000000000E+00 -0.00000000000E+00 -0.83811088163E+01  0.84767850621E+01  0.12700000000E+01 0. -1.
         25    2    1    2    0    0  0.24982636307E+02  0.10737482279E+02  0.13322084827E+04  0.13383362894E+04  0.12500062646E+03 0.  0.
    9000005    1    3    3    0    0  0.23122692574E+02  0.55927813118E+02  0.35820997225E+03  0.36328771437E+03  0.10000000000E+01 0.  0.
    9000005    1    3    3    0    0  0.18599437327E+01 -0.45190330840E+02  0.97399851042E+03  0.97504857504E+03  0.10000000000E+01 0.  0.
         21    1    1    2  502  501 -0.24982636307E+02 -0.10737482279E+02  0.29088486182E+02  0.39819162107E+02  0.00000000000E+00 0. -1.
<mgrwt>
<rscale>  1 0.12792413E+03</rscale>
<asrwt>0</asrwt>
<pdfrwt beam="2">  1        4 0.12968075E-02 0.12792413E+03</pdfrwt>
<pdfrwt beam="1">  1       -4 0.21072693E+00 0.12792413E+03</pdfrwt>
<totfact> 0.41007751E+02</totfact>
</mgrwt>
</event>
<event>
 6    4  0.5642870E-004  0.1312912E+03  0.7818608E-02  0.1225552E+00
          4   -1    0    0  502    0  0.00000000000E+00  0.00000000000E+00  0.79598603903E+03  0.79598705217E+03  0.12700000000E+01 0.  1.
         -4   -1    0    0    0  501 -0.00000000000E+00 -0.00000000000E+00 -0.10115231208E+02  0.10194645771E+02  0.12700000000E+01 0.  1.
         25    2    1    2    0    0 -0.35056773573E+02 -0.19524618298E+02  0.47785509018E+03  0.49556316919E+03  0.12500871711E+03 0.  0.
    9000005    1    3    3    0    0 -0.25396062276E+02 -0.12971940256E+02  0.14404241052E+02  0.31964251491E+02  0.10000000000E+01 0.  0.
    9000005    1    3    3    0    0 -0.96607112968E+01 -0.65526780426E+01  0.46345084913E+03  0.46359891770E+03  0.10000000000E+01 0.  0.
         21    1    1    2  502  501  0.35056773573E+02  0.19524618298E+02  0.30801571764E+03  0.31061852875E+03  0.00000000000E+00 0. -1.
<mgrwt>
<rscale>  1 0.13129116E+03</rscale>
<asrwt>0</asrwt>
<pdfrwt beam="1">  1        4 0.12246559E+00 0.13129116E+03</pdfrwt>
<pdfrwt beam="2">  1       -4 0.15623760E-02 0.13129116E+03</pdfrwt>
<totfact> 0.12909495E+03</totfact>
</mgrwt>
</event>
<event>
 6    4  0.5642870E-004  0.1282243E+03  0.7818608E-02  0.1230115E+00
          4   -1    0    0  502    0  0.00000000000E+00  0.00000000000E+00  0.18814095787E+03  0.18814524424E+03  0.12700000000E+01 0.  1.
         -4   -1    0    0    0  501 -0.00000000000E+00 -0.00000000000E+00 -0.43625981926E+02  0.43644463555E+02  0.12700000000E+01 0.  1.
         25    2    1    2    0    0 -0.45484075207E+01 -0.28343640450E+02  0.58177788622E+02  0.14080531418E+03  0.12496972213E+03 0.  0.
    9000005    1    3    3    0    0 -0.32218687415E+00  0.36751326279E+02  0.65543372209E+02  0.75151163851E+02  0.10000000000E+01 0.  0.
    9000005    1    3    3    0    0 -0.42262206466E+01 -0.65094966729E+02 -0.73655835871E+01  0.65654150334E+02  0.10000000000E+01 0.  0.
         21    1    1    2  502  501  0.45484075207E+01  0.28343640450E+02  0.86337187324E+02  0.90984393607E+02  0.00000000000E+00 0.  1.
<mgrwt>
<rscale>  1 0.12822434E+03</rscale>
<asrwt>0</asrwt>
<pdfrwt beam="1">  1        4 0.28946514E-01 0.12822434E+03</pdfrwt>
<pdfrwt beam="2">  1       -4 0.67134410E-02 0.12822434E+03</pdfrwt>
<totfact> 0.27194332E+03</totfact>
</mgrwt>
</event>
<event>
 6    4  0.5642870E-004  0.1274593E+03  0.7818608E-02  0.1231275E+00
          4   -1    0    0  502    0  0.00000000000E+00  0.00000000000E+00  0.12065192472E+03  0.12065860864E+03  0.12700000000E+01 0. -1.
         -4   -1    0    0    0  501 -0.00000000000E+00 -0.00000000000E+00 -0.49275148944E+02  0.49291512489E+02  0.12700000000E+01 0. -1.
         25    2    1    2    0    0 -0.21439509581E+02  0.12882881486E+02  0.49545062162E+02  0.13675004694E+03  0.12498096234E+03 0.  0.
    9000005    1    3    3    0    0  0.35038330218E+01  0.43217057425E+02  0.77309500601E+02  0.88643949492E+02  0.10000000000E+01 0.  0.
    9000005    1    3    3    0    0 -0.24943342603E+02 -0.30334175939E+02 -0.27764438439E+02  0.48106097451E+02  0.10000000000E+01 0.  0.
         21    1    1    2  502  501  0.21439509581E+02 -0.12882881486E+02  0.21831713611E+02  0.33200074182E+02  0.00000000000E+00 0.  1.
<mgrwt>
<rscale>  1 0.12745926E+03</rscale>
<asrwt>0</asrwt>
<pdfrwt beam="1">  1        4 0.18563607E-01 0.12745926E+03</pdfrwt>
<pdfrwt beam="2">  1       -4 0.75825651E-02 0.12745926E+03</pdfrwt>
<totfact> 0.50093530E+03</totfact>
</mgrwt>
</event>
<event>
 6    4  0.5642870E-004  0.1416978E+03  0.7818608E-02  0.1211063E+00
         -4   -1    0    0    0  501 -0.00000000000E+00  0.00000000000E+00  0.14699268062E+03  0.14699816685E+03  0.12700000000E+01 0. -1.
          4   -1    0    0  502    0  0.00000000000E+00 -0.00000000000E+00 -0.74938086873E+02  0.74948847651E+02  0.12700000000E+01 0. -1.
         25    2    1    2    0    0 -0.59733188166E+02 -0.29743037254E+02  0.36436755095E+02  0.14630752439E+03  0.12500221013E+03 0.  0.
    9000005    1    3    3    0    0 -0.21789719777E+02 -0.30833997490E+02 -0.43621366600E+02  0.57700527842E+02  0.10000000000E+01 0.  0.
    9000005    1    3    3    0    0 -0.37943468390E+02  0.10909602364E+01  0.80058121695E+02  0.88606996546E+02  0.10000000000E+01 0.  0.
         21    1    1    2  502  501  0.59733188166E+02  0.29743037254E+02  0.35617838652E+02  0.75639490108E+02  0.00000000000E+00 0. -1.
<mgrwt>
<rscale>  1 0.14169776E+03</rscale>
<asrwt>0</asrwt>
<pdfrwt beam="2">  1        4 0.11530186E-01 0.14169776E+03</pdfrwt>
<pdfrwt beam="1">  1       -4 0.22615508E-01 0.14169776E+03</pdfrwt>
<totfact> 0.17813260E+03</totfact>
</mgrwt>
</event>
<event>
 6    4  0.5642870E-004  0.1273582E+03  0.7818608E-02  0.1231429E+00
          4   -1    0    0  502    0  0.00000000000E+00  0.00000000000E+00  0.31071448874E+03  0.31071708420E+03  0.12700000000E+01 0.  1.
         -4   -1    0    0    0  501 -0.00000000000E+00 -0.00000000000E+00 -0.22556172666E+02  0.22591897338E+02  0.12700000000E+01 0.  1.
         25    2    1    2    0    0  0.11430017974E+02 -0.21678199824E+02  0.16877264006E+03  0.21143392545E+03  0.12497804263E+03 0.  0.
    9000005    1    3    3    0    0 -0.10367399575E+01 -0.88393734895E+01 -0.19946859814E+02  0.21865190826E+02  0.10000000000E+01 0.  0.
    9000005    1    3    3    0    0  0.12466757932E+02 -0.12838826335E+02  0.18871949987E+03  0.18956873462E+03  0.10000000000E+01 0.  0.
         21    1    1    2  502  501 -0.11430017974E+02  0.21678199824E+02  0.11938567602E+03  0.12187505609E+03  0.00000000000E+00 0.  1.
<mgrwt>
<rscale>  1 0.12735816E+03</rscale>
<asrwt>0</asrwt>
<pdfrwt beam="1">  1        4 0.47805176E-01 0.12735816E+03</pdfrwt>
<pdfrwt beam="2">  1       -4 0.34731282E-02 0.12735816E+03</pdfrwt>
<totfact> 0.29422553E+03</totfact>
</mgrwt>
</event>
<event>
 6    4  0.5642870E-004  0.1481188E+03  0.7818608E-02  0.1202804E+00
         -4   -1    0    0    0  501 -0.00000000000E+00  0.00000000000E+00  0.26849403162E+03  0.26849703521E+03  0.12700000000E+01 0.  1.
          4   -1    0    0  502    0  0.00000000000E+00 -0.00000000000E+00 -0.50952929556E+02  0.50968754451E+02  0.12700000000E+01 0.  1.
         25    2    1    2    0    0 -0.63103536751E+02 -0.48291945618E+02  0.17521969172E+03  0.22943651589E+03  0.12500002438E+03 0.  0.
    9000005    1    3    3    0    0 -0.49345293546E+02 -0.10130995834E+02  0.18151084852E+03  0.18837405130E+03  0.10000000000E+01 0.  0.
    9000005    1    3    3    0    0 -0.13758243205E+02 -0.38160949784E+02 -0.62911568005E+01  0.41062464592E+02  0.10000000000E+01 0.  0.
         21    1    1    2  502  501  0.63103536751E+02  0.48291945618E+02  0.42321410345E+02  0.90029273771E+02  0.00000000000E+00 0.  1.
<mgrwt>
<rscale>  1 0.14811878E+03</rscale>
<asrwt>0</asrwt>
<pdfrwt beam="2">  1        4 0.78403607E-02 0.14811878E+03</pdfrwt>
<pdfrwt beam="1">  1       -4 0.41308222E-01 0.14811878E+03</pdfrwt>
<totfact> 0.10951956E+03</totfact>
</mgrwt>
</event>
<event>
 6    4  0.5642870E-004  0.1269041E+03  0.7818608E-02  0.1232123E+00
         -4   -1    0    0    0  501 -0.00000000000E+00  0.00000000000E+00  0.93890054603E+02  0.93898643511E+02  0.12700000000E+01 0.  1.
          4   -1    0    0  502    0  0.00000000000E+00 -0.00000000000E+00 -0.68144080576E+02  0.68155914032E+02  0.12700000000E+01 0.  1.
         25    2    1    2    0    0  0.21785270888E+02  0.25553975578E+01  0.43165523684E+02  0.13404440234E+03  0.12499404497E+03 0.  0.
    9000005    1    3    3    0    0 -0.16949398544E+02  0.53904168000E+02  0.40744440691E+02  0.69671018982E+02  0.10000000000E+01 0.  0.
    9000005    1    3    3    0    0  0.38734669431E+02 -0.51348770442E+02  0.24210829929E+01  0.64373383356E+02  0.10000000000E+01 0.  0.
         21    1    1    2  502  501 -0.21785270888E+02 -0.25553975578E+01 -0.17419549658E+02  0.28010155205E+02  0.00000000000E+00 0.  1.
<mgrwt>
<rscale>  1 0.12690406E+03</rscale>
<asrwt>0</asrwt>
<pdfrwt beam="2">  1        4 0.10485276E-01 0.12690406E+03</pdfrwt>
<pdfrwt beam="1">  1       -4 0.14446195E-01 0.12690406E+03</pdfrwt>
<totfact> 0.45298133E+03</totfact>
</mgrwt>
</event>
<event>
 6    4  0.5642870E-004  0.1266397E+03  0.7818608E-02  0.1232529E+00
          4   -1    0    0  502    0  0.00000000000E+00  0.00000000000E+00  0.85895200856E+03  0.85895294744E+03  0.12700000000E+01 0.  1.
         -4   -1    0    0    0  501 -0.00000000000E+00 -0.00000000000E+00 -0.85953572261E+01  0.86886745735E+01  0.12700000000E+01 0.  1.
         25    2    1    2    0    0  0.14304682119E+01 -0.20274708167E+02  0.47060931610E+03  0.48735074827E+03  0.12499805363E+03 0.  0.
    9000005    1    3    3    0    0 -0.20874567528E+02 -0.25664965069E+02  0.46143013340E+03  0.46261561367E+03  0.10000000000E+01 0.  0.
    9000005    1    3    3    0    0  0.22305035740E+02  0.53902569017E+01  0.91791827012E+01  0.24735134604E+02  0.10000000000E+01 0.  0.
         21    1    1    2  502  501 -0.14304682119E+01  0.20274708167E+02  0.37974733524E+03  0.38029087374E+03  0.00000000000E+00 0.  1.
<mgrwt>
<rscale>  1 0.12663974E+03</rscale>
<asrwt>0</asrwt>
<pdfrwt beam="1">  1        4 0.13215364E+00 0.12663974E+03</pdfrwt>
<pdfrwt beam="2">  1       -4 0.13296139E-02 0.12663974E+03</pdfrwt>
<totfact> 0.13602247E+03</totfact>
</mgrwt>
</event>
<event>
 6    4  0.5642870E-004  0.1316057E+03  0.7818608E-02  0.1225092E+00
         -4   -1    0    0    0  501 -0.00000000000E+00  0.00000000000E+00  0.43952739545E+02  0.43971083834E+02  0.12700000000E+01 0.  1.
          4   -1    0    0  502    0  0.00000000000E+00 -0.00000000000E+00 -0.20917337479E+03  0.20917723017E+03  0.12700000000E+01 0.  1.
         25    2    1    2    0    0  0.23685797427E+02 -0.33632556895E+02 -0.69206169722E+02  0.14869285233E+03  0.12501161756E+03 0.  0.
    9000005    1    3    3    0    0  0.85800421067E+01 -0.60669181773E+02 -0.91778198902E+02  0.11035671494E+03  0.10000000000E+01 0.  0.
    9000005    1    3    3    0    0  0.15105755320E+02  0.27036624877E+02  0.22572029180E+02  0.38336137388E+02  0.10000000000E+01 0.  0.
         21    1    1    2  502  501 -0.23685797427E+02  0.33632556895E+02 -0.96014465528E+02  0.10445546167E+03  0.00000000000E+00 0.  1.
<mgrwt>
<rscale>  1 0.13160574E+03</rscale>
<asrwt>0</asrwt>
<pdfrwt beam="2">  1        4 0.32182226E-01 0.13160574E+03</pdfrwt>
<pdfrwt beam="1">  1       -4 0.67636677E-02 0.13160574E+03</pdfrwt>
<totfact> 0.22118761E+03</totfact>
</mgrwt>
</event>
<event>
 6    4  0.5642870E-004  0.1302673E+03  0.7818608E-02  0.1227060E+00
          4   -1    0    0  502    0  0.00000000000E+00  0.00000000000E+00  0.12840308646E+03  0.12840936692E+03  0.12700000000E+01 0. -1.
         -4   -1    0    0    0  501 -0.00000000000E+00 -0.00000000000E+00 -0.96205016355E+02  0.96213398609E+02  0.12700000000E+01 0. -1.
         25    2    1    2    0    0 -0.20992336535E+02  0.30084958430E+02 -0.46078118099E+02  0.13817657095E+03  0.12499515541E+03 0.  0.
    9000005    1    3    3    0    0 -0.69933173745E+02  0.35998986707E+02 -0.15548441615E+02  0.80183102151E+02  0.10000000000E+01 0.  0.
    9000005    1    3    3    0    0  0.48940837210E+02 -0.59140282767E+01 -0.30529676484E+02  0.57993468800E+02  0.10000000000E+01 0.  0.
         21    1    1    2  502  501  0.20992336535E+02 -0.30084958430E+02  0.78276188202E+02  0.86446194574E+02  0.00000000000E+00 0. -1.
<mgrwt>
<rscale>  1 0.13026731E+03</rscale>
<asrwt>0</asrwt>
<pdfrwt beam="1">  1        4 0.19755449E-01 0.13026731E+03</pdfrwt>
<pdfrwt beam="2">  1       -4 0.14801900E-01 0.13026731E+03</pdfrwt>
<totfact> 0.14524186E+03</totfact>
</mgrwt>
</event>
<event>
 6    4  0.5642870E-004  0.1342921E+03  0.7818608E-02  0.1221222E+00
          4   -1    0    0  502    0  0.00000000000E+00  0.00000000000E+00  0.32248898267E+03  0.32249148337E+03  0.12700000000E+01 0. -1.
         -4   -1    0    0    0  501 -0.00000000000E+00 -0.00000000000E+00 -0.35922831955E+02  0.35945274455E+02  0.12700000000E+01 0. -1.
         25    2    1    2    0    0 -0.36937957567E+02 -0.32434110972E+02  0.10538485437E+03  0.17070544342E+03  0.12497198333E+03 0.  0.
    9000005    1    3    3    0    0 -0.55380464678E+02 -0.46718639439E+02  0.10776152857E+02  0.73258123163E+02  0.10000000000E+01 0.  0.
    9000005    1    3    3    0    0  0.18442507111E+02  0.14284528467E+02  0.94608701516E+02  0.97447320254E+02  0.10000000000E+01 0.  0.
         21    1    1    2  502  501  0.36937957567E+02  0.32434110972E+02  0.18118129634E+03  0.18773131440E+03  0.00000000000E+00 0. -1.
<mgrwt>
<rscale>  1 0.13429215E+03</rscale>
<asrwt>0</asrwt>
<pdfrwt beam="1">  1        4 0.49615608E-01 0.13429215E+03</pdfrwt>
<pdfrwt beam="2">  1       -4 0.55285082E-02 0.13429215E+03</pdfrwt>
<totfact> 0.13158177E+03</totfact>
</mgrwt>
</event>
<event>
 6    4  0.5642870E-004  0.1285797E+03  0.7818608E-02  0.1229579E+00
          4   -1    0    0  502    0  0.00000000000E+00  0.00000000000E+00  0.61699813546E+02  0.61712882704E+02  0.12700000000E+01 0. -1.
         -4   -1    0    0    0  501 -0.00000000000E+00 -0.00000000000E+00 -0.17282715260E+03  0.17283181876E+03  0.12700000000E+01 0. -1.
         25    2    1    2    0    0  0.28571407430E+02  0.95356052172E+01 -0.14189612607E+03  0.19148693394E+03  0.12500192873E+03 0.  0.
    9000005    1    3    3    0    0  0.27236581524E+02  0.26305472716E+02  0.95837691380E+01  0.39072469832E+02  0.10000000000E+01 0.  0.
    9000005    1    3    3    0    0  0.13348259064E+01 -0.16769867499E+02 -0.15147989521E+03  0.15241446410E+03  0.10000000000E+01 0.  0.
         21    1    1    2  502  501 -0.28571407430E+02 -0.95356052172E+01  0.30768787019E+02  0.43057767523E+02  0.00000000000E+00 0. -1.
<mgrwt>
<rscale>  1 0.12857968E+03</rscale>
<asrwt>0</asrwt>
<pdfrwt beam="1">  1        4 0.94936433E-02 0.12857968E+03</pdfrwt>
<pdfrwt beam="2">  1       -4 0.26590157E-01 0.12857968E+03</pdfrwt>
<totfact> 0.17973272E+03</totfact>
</mgrwt>
</event>
<event>
 6    4  0.5642870E-004  0.1314228E+03  0.7818608E-02  0.1225360E+00
         -4   -1    0    0    0  501 -0.00000000000E+00  0.00000000000E+00  0.34283236581E+02  0.34306751675E+02  0.12700000000E+01 0. -1.
          4   -1    0    0  502    0  0.00000000000E+00 -0.00000000000E+00 -0.24830830250E+03  0.24831155026E+03  0.12700000000E+01 0. -1.
         25    2    1    2    0    0  0.27416120260E+02  0.29922398248E+02 -0.11148533001E+03  0.17233960496E+03  0.12499986824E+03 0.  0.
    9000005    1    3    3    0    0 -0.16757149189E+02 -0.19984604800E+02 -0.10166821380E+03  0.10496481399E+03  0.10000000000E+01 0.  0.
    9000005    1    3    3    0    0  0.44173269448E+02  0.49907003048E+02 -0.98171162099E+01  0.67374790966E+02  0.10000000000E+01 0.  0.
         21    1    1    2  502  501 -0.27416120260E+02 -0.29922398248E+02 -0.10253973591E+03  0.11027869698E+03  0.00000000000E+00 0. -1.
<mgrwt>
<rscale>  1 0.13142283E+03</rscale>
<asrwt>0</asrwt>
<pdfrwt beam="2">  1        4 0.38203335E-01 0.13142283E+03</pdfrwt>
<pdfrwt beam="1">  1       -4 0.52764029E-02 0.13142283E+03</pdfrwt>
<totfact> 0.23770013E+03</totfact>
</mgrwt>
</event>
<event>
 6    4  0.5642870E-004  0.1269694E+03  0.7818608E-02  0.1232023E+00
          4   -1    0    0  502    0  0.00000000000E+00  0.00000000000E+00  0.12070259087E+02  0.12136888169E+02  0.12700000000E+01 0.  1.
         -4   -1    0    0    0  501 -0.00000000000E+00 -0.00000000000E+00 -0.59350137298E+03  0.59350273177E+03  0.12700000000E+01 0.  1.
         25    2    1    2    0    0 -0.83713336282E+01  0.20726837758E+02 -0.56154604739E+03  0.57572144989E+03  0.12498617318E+03 0.  0.
    9000005    1    3    3    0    0 -0.34613086542E+02 -0.13655339153E+01 -0.52286210648E+03  0.52400926789E+03  0.10000000000E+01 0.  0.
    9000005    1    3    3    0    0  0.26241752914E+02  0.22092371673E+02 -0.38683940916E+02  0.51712181997E+02  0.10000000000E+01 0.  0.
         21    1    1    2  502  501  0.83713336282E+01 -0.20726837758E+02 -0.19885066495E+02  0.29918170059E+02  0.00000000000E+00 0.  1.
<mgrwt>
<rscale>  1 0.12696938E+03</rscale>
<asrwt>0</asrwt>
<pdfrwt beam="1">  1        4 0.18621932E-02 0.12696938E+03</pdfrwt>
<pdfrwt beam="2">  1       -4 0.91313111E-01 0.12696938E+03</pdfrwt>
<totfact> 0.19444516E+03</totfact>
</mgrwt>
</event>
<event>
 6    4  0.5642870E-004  0.1313173E+03  0.7818608E-02  0.1225514E+00
          4   -1    0    0  502    0  0.00000000000E+00  0.00000000000E+00  0.52000201159E+02  0.52015707441E+02  0.12700000000E+01 0.  1.
         -4   -1    0    0    0  501 -0.00000000000E+00 -0.00000000000E+00 -0.14256764730E+03  0.14257330380E+03  0.12700000000E+01 0.  1.
         25    2    1    2    0    0  0.38166738754E+02 -0.12735235617E+02 -0.61833729241E+02  0.14514699813E+03  0.12500141928E+03 0.  0.
    9000005    1    3    3    0    0  0.60708474760E+02 -0.51762690824E+02 -0.60353119181E+02  0.10004196152E+03  0.10000000000E+01 0.  0.
    9000005    1    3    3    0    0 -0.22541736007E+02  0.39027455207E+02 -0.14806100597E+01  0.45105036618E+02  0.10000000000E+01 0.  0.
         21    1    1    2  502  501 -0.38166738754E+02  0.12735235617E+02 -0.28733716900E+02  0.49442013108E+02  0.00000000000E+00 0.  1.
<mgrwt>
<rscale>  1 0.13131733E+03</rscale>
<asrwt>0</asrwt>
<pdfrwt beam="1">  1        4 0.80016589E-02 0.13131733E+03</pdfrwt>
<pdfrwt beam="2">  1       -4 0.21935112E-01 0.13131733E+03</pdfrwt>
<totfact> 0.34198157E+03</totfact>
</mgrwt>
</event>
<event>
 6    4  0.5642870E-004  0.1271834E+03  0.7818608E-02  0.1231696E+00
         -4   -1    0    0    0  501 -0.00000000000E+00  0.00000000000E+00  0.25051476851E+02  0.25083647908E+02  0.12700000000E+01 0. -1.
          4   -1    0    0  502    0  0.00000000000E+00 -0.00000000000E+00 -0.39084063483E+03  0.39084269820E+03  0.12700000000E+01 0. -1.
         25    2    1    2    0    0  0.74116125973E+01 -0.22248684634E+02 -0.14087512813E+03  0.18979307392E+03  0.12500269282E+03 0.  0.
    9000005    1    3    3    0    0 -0.57130172116E+02  0.38630233866E+01 -0.57308416943E+02  0.81018727268E+02  0.10000000000E+01 0.  0.
    9000005    1    3    3    0    0  0.64541784713E+02 -0.26111708021E+02 -0.83566711191E+02  0.10877434665E+03  0.10000000000E+01 0.  0.
         21    1    1    2  502  501 -0.74116125973E+01  0.22248684634E+02 -0.22491402985E+03  0.22613327219E+03  0.00000000000E+00 0. -1.
<mgrwt>
<rscale>  1 0.12718337E+03</rscale>
<asrwt>0</asrwt>
<pdfrwt beam="2">  1        4 0.60131957E-01 0.12718337E+03</pdfrwt>
<pdfrwt beam="1">  1       -4 0.38567071E-02 0.12718337E+03</pdfrwt>
<totfact> 0.15547718E+03</totfact>
</mgrwt>
</event>
<event>
 6    4  0.5642870E-004  0.1313503E+03  0.7818608E-02  0.1225466E+00
         -4   -1    0    0    0  501 -0.00000000000E+00  0.00000000000E+00  0.43541352991E+02  0.43559870526E+02  0.12700000000E+01 0. -1.
          4   -1    0    0  502    0  0.00000000000E+00 -0.00000000000E+00 -0.24553549261E+03  0.24553877704E+03  0.12700000000E+01 0. -1.
         25    2    1    2    0    0 -0.87272422977E+01 -0.39370074992E+02 -0.65507137733E+02  0.14677904510E+03  0.12500694150E+03 0.  0.
    9000005    1    3    3    0    0  0.91491833833E+01 -0.78469288216E+02 -0.67231130011E+02  0.10374083859E+03  0.10000000000E+01 0.  0.
    9000005    1    3    3    0    0 -0.17876425681E+02  0.39099213224E+02  0.17239922780E+01  0.43038206505E+02  0.10000000000E+01 0.  0.
         21    1    1    2  502  501  0.87272422977E+01  0.39370074992E+02 -0.13648700188E+03  0.14231960247E+03  0.00000000000E+00 0.  1.
<mgrwt>
<rscale>  1 0.13135031E+03</rscale>
<asrwt>0</asrwt>
<pdfrwt beam="2">  1        4 0.37776367E-01 0.13135031E+03</pdfrwt>
<pdfrwt beam="1">  1       -4 0.67003469E-02 0.13135031E+03</pdfrwt>
<totfact> 0.16484074E+03</totfact>
</mgrwt>
</event>
<event>
 6    4  0.5642870E-004  0.1280821E+03  0.7818608E-02  0.1230330E+00
         -4   -1    0    0    0  501 -0.00000000000E+00  0.00000000000E+00  0.37850103497E+02  0.37871403918E+02  0.12700000000E+01 0. -1.
          4   -1    0    0  502    0  0.00000000000E+00 -0.00000000000E+00 -0.19965647047E+03  0.19966050962E+03  0.12700000000E+01 0. -1.
         25    2    1    2    0    0 -0.26438284043E+02 -0.89403031701E+01 -0.79802291565E+02  0.15090870494E+03  0.12500447833E+03 0.  0.
    9000005    1    3    3    0    0 -0.17254861811E+02 -0.13328052176E+01 -0.11367242293E+03  0.11498663557E+03  0.10000000000E+01 0.  0.
    9000005    1    3    3    0    0 -0.91834222319E+01 -0.76074979525E+01  0.33870131364E+02  0.35922069367E+02  0.10000000000E+01 0.  0.
         21    1    1    2  502  501  0.26438284043E+02  0.89403031701E+01 -0.82004075409E+02  0.86623208597E+02  0.00000000000E+00 0.  1.
<mgrwt>
<rscale>  1 0.12808213E+03</rscale>
<asrwt>0</asrwt>
<pdfrwt beam="2">  1        4 0.30718329E-01 0.12808213E+03</pdfrwt>
<pdfrwt beam="1">  1       -4 0.58250422E-02 0.12808213E+03</pdfrwt>
<totfact> 0.30621863E+03</totfact>
</mgrwt>
</event>
<event>
 6    4  0.5642870E-004  0.1296638E+03  0.7818608E-02  0.1227955E+00
         -4   -1    0    0    0  501 -0.00000000000E+00  0.00000000000E+00  0.14491403149E+03  0.14491959640E+03  0.12700000000E+01 0. -1.
          4   -1    0    0  502    0  0.00000000000E+00 -0.00000000000E+00 -0.56927562514E+02  0.56941727000E+02  0.12700000000E+01 0. -1.
         25    2    1    2    0    0  0.15753259544E+02  0.30488393414E+02  0.10181666277E+03  0.16486157233E+03  0.12503998517E+03 0.  0.
    9000005    1    3    3    0    0  0.66835905345E+02 -0.44066015261E+01  0.43748253561E+02  0.80008537482E+02  0.10000000000E+01 0.  0.
    9000005    1    3    3    0    0 -0.51082645801E+02  0.34894994940E+02  0.58068409211E+02  0.84853034844E+02  0.10000000000E+01 0.  0.
         21    1    1    2  502  501 -0.15753259544E+02 -0.30488393414E+02 -0.13830193800E+02  0.36999751077E+02  0.00000000000E+00 0. -1.
<mgrwt>
<rscale>  1 0.12966382E+03</rscale>
<asrwt>0</asrwt>
<pdfrwt beam="2">  1        4 0.87596043E-02 0.12966382E+03</pdfrwt>
<pdfrwt beam="1">  1       -4 0.22295984E-01 0.12966382E+03</pdfrwt>
<totfact> 0.28478679E+03</totfact>
</mgrwt>
</event>
<event>
 6    4  0.5642870E-004  0.1289543E+03  0.7818608E-02  0.1229016E+00
         -4   -1    0    0    0  501 -0.00000000000E+00  0.00000000000E+00  0.17651816099E+03  0.17652272958E+03  0.12700000000E+01 0. -1.
          4   -1    0    0  502    0  0.00000000000E+00 -0.00000000000E+00 -0.36599356395E+02  0.36621384307E+02  0.12700000000E+01 0. -1.
         25    2    1    2    0    0 -0.30094618617E+02 -0.99452243236E+01  0.10870577179E+03  0.16865988103E+03  0.12499846835E+03 0.  0.
    9000005    1    3    3    0    0  0.14419920941E+02 -0.57993440631E+02  0.71984248872E+02  0.93562307378E+02  0.10000000000E+01 0.  0.
    9000005    1    3    3    0    0 -0.44514539558E+02  0.48048216307E+02  0.36721522918E+02  0.75097573648E+02  0.10000000000E+01 0.  0.
         21    1    1    2  502  501  0.30094618617E+02  0.99452243236E+01  0.31213032804E+02  0.44484232863E+02  0.00000000000E+00 0. -1.
<mgrwt>
<rscale>  1 0.12895430E+03</rscale>
<asrwt>0</asrwt>
<pdfrwt beam="2">  1        4 0.56327161E-02 0.12895430E+03</pdfrwt>
<pdfrwt beam="1">  1       -4 0.27158686E-01 0.12895430E+03</pdfrwt>
<totfact> 0.40815904E+03</totfact>
</mgrwt>
</event>
<event>
 6    4  0.5642870E-004  0.1400463E+03  0.7818608E-02  0.1213267E+00
          4   -1    0    0  502    0  0.00000000000E+00  0.00000000000E+00  0.80699591279E+03  0.80699691211E+03  0.12700000000E+01 0. -1.
         -4   -1    0    0    0  501 -0.00000000000E+00 -0.00000000000E+00 -0.13208595812E+02  0.13269510290E+02  0.12700000000E+01 0. -1.
         25    2    1    2    0    0  0.55252172335E+02  0.30624365433E+02  0.61188313252E+03  0.62770529801E+03  0.12498927544E+03 0.  0.
    9000005    1    3    3    0    0  0.21067730990E+02 -0.10667119155E+02  0.14098182805E+02  0.27520819002E+02  0.10000000000E+01 0.  0.
    9000005    1    3    3    0    0  0.34184441345E+02  0.41291484588E+02  0.59778494972E+03  0.60018447901E+03  0.10000000000E+01 0.  0.
         21    1    1    2  502  501 -0.55252172335E+02 -0.30624365433E+02  0.18190418445E+03  0.19256112439E+03  0.00000000000E+00 0. -1.
<mgrwt>
<rscale>  1 0.14004633E+03</rscale>
<asrwt>0</asrwt>
<pdfrwt beam="1">  1        4 0.12415799E+00 0.14004633E+03</pdfrwt>
<pdfrwt beam="2">  1       -4 0.20368542E-02 0.14004633E+03</pdfrwt>
<totfact> 0.84238334E+02</totfact>
</mgrwt>
</event>
<event>
 6    4  0.5642870E-004  0.1288023E+03  0.7818608E-02  0.1229244E+00
         -4   -1    0    0    0  501 -0.00000000000E+00  0.00000000000E+00  0.50950825365E+02  0.50966650914E+02  0.12700000000E+01 0. -1.
          4   -1    0    0  502    0  0.00000000000E+00 -0.00000000000E+00 -0.15496261864E+03  0.15496782271E+03  0.12700000000E+01 0. -1.
         25    2    1    2    0    0 -0.23927828913E+02 -0.19828389219E+02 -0.40153163736E+02  0.13491595081E+03  0.12499732481E+03 0.  0.
    9000005    1    3    3    0    0  0.15704349401E+02 -0.23861243372E+02 -0.76073924189E+02  0.81266398142E+02  0.10000000000E+01 0.  0.
    9000005    1    3    3    0    0 -0.39632178314E+02  0.40328541530E+01  0.35920760453E+02  0.53649552673E+02  0.10000000000E+01 0.  0.
         21    1    1    2  502  501  0.23927828913E+02  0.19828389219E+02 -0.63858629542E+02  0.71018522813E+02  0.00000000000E+00 0.  1.
<mgrwt>
<rscale>  1 0.12880232E+03</rscale>
<asrwt>0</asrwt>
<pdfrwt beam="2">  1        4 0.23842020E-01 0.12880232E+03</pdfrwt>
<pdfrwt beam="1">  1       -4 0.78402062E-02 0.12880232E+03</pdfrwt>
<totfact> 0.30237080E+03</totfact>
</mgrwt>
</event>
<event>
 6    4  0.5642870E-004  0.1294242E+03  0.7818608E-02  0.1228313E+00
          4   -1    0    0  502    0  0.00000000000E+00  0.00000000000E+00  0.17006472928E+03  0.17006947123E+03  0.12700000000E+01 0. -1.
         -4   -1    0    0    0  501 -0.00000000000E+00 -0.00000000000E+00 -0.39829773287E+02  0.39850015560E+02  0.12700000000E+01 0. -1.
         25    2    1    2    0    0 -0.21698531363E+02 -0.25584043892E+02  0.90550248010E+02  0.15795559921E+03  0.12500101736E+03 0.  0.
    9000005    1    3    3    0    0 -0.24856998490E+02  0.39036042951E+02  0.79956734060E+02  0.92389189545E+02  0.10000000000E+01 0.  0.
    9000005    1    3    3    0    0  0.31584671269E+01 -0.64620086843E+02  0.10593513950E+02  0.65566409662E+02  0.10000000000E+01 0.  0.
         21    1    1    2  502  501  0.21698531363E+02  0.25584043892E+02  0.39684707981E+02  0.51963887583E+02  0.00000000000E+00 0.  1.
<mgrwt>
<rscale>  1 0.12942420E+03</rscale>
<asrwt>0</asrwt>
<pdfrwt beam="1">  1        4 0.26165727E-01 0.12942420E+03</pdfrwt>
<pdfrwt beam="2">  1       -4 0.61295792E-02 0.12942420E+03</pdfrwt>
<totfact> 0.38173862E+03</totfact>
</mgrwt>
</event>
<event>
 6    4  0.5642870E-004  0.1306304E+03  0.7818608E-02  0.1226523E+00
          4   -1    0    0  502    0  0.00000000000E+00  0.00000000000E+00  0.83906131598E+02  0.83915742384E+02  0.12700000000E+01 0. -1.
         -4   -1    0    0    0  501 -0.00000000000E+00 -0.00000000000E+00 -0.88409589500E+02  0.88418710778E+02  0.12700000000E+01 0. -1.
         25    2    1    2    0    0  0.98462328740E+00 -0.37937954664E+02 -0.18399143802E+02  0.13191975319E+03  0.12499613955E+03 0.  0.
    9000005    1    3    3    0    0 -0.75110841273E+01 -0.16556686147E+02 -0.71636852585E+02  0.73914673031E+02  0.10000000000E+01 0.  0.
    9000005    1    3    3    0    0  0.84957074147E+01 -0.21381268517E+02  0.53237708783E+02  0.58005080159E+02  0.10000000000E+01 0.  0.
         21    1    1    2  502  501 -0.98462328740E+00  0.37937954664E+02  0.13895685900E+02  0.40414699971E+02  0.00000000000E+00 0. -1.
<mgrwt>
<rscale>  1 0.13063037E+03</rscale>
<asrwt>0</asrwt>
<pdfrwt beam="1">  1        4 0.12910077E-01 0.13063037E+03</pdfrwt>
<pdfrwt beam="2">  1       -4 0.13602916E-01 0.13063037E+03</pdfrwt>
<totfact> 0.35521229E+03</totfact>
</mgrwt>
</event>
<event>
 6    4  0.5642870E-004  0.1276213E+03  0.7818608E-02  0.1231029E+00
         -4   -1    0    0    0  501 -0.00000000000E+00  0.00000000000E+00  0.18161710935E+03  0.18162154968E+03  0.12700000000E+01 0.  1.
          4   -1    0    0  502    0  0.00000000000E+00 -0.00000000000E+00 -0.41482503861E+02  0.41501940034E+02  0.12700000000E+01 0.  1.
         25    2    1    2    0    0 -0.68806328640E+01  0.24794659743E+02  0.14874402590E+03  0.19598973988E+03  0.12500029853E+03 0.  0.
    9000005    1    3    3    0    0  0.49168977608E+02  0.35848193862E+01  0.18588888369E+02  0.52697116238E+02  0.10000000000E+01 0.  0.
    9000005    1    3    3    0    0 -0.56049610472E+02  0.21209840357E+02  0.13015513754E+03  0.14329262364E+03  0.10000000000E+01 0.  0.
         21    1    1    2  502  501  0.68806328640E+01 -0.24794659743E+02 -0.86094204172E+01  0.27133749838E+02  0.00000000000E+00 0.  1.
<mgrwt>
<rscale>  1 0.12762129E+03</rscale>
<asrwt>0</asrwt>
<pdfrwt beam="2">  1        4 0.63837604E-02 0.12762129E+03</pdfrwt>
<pdfrwt beam="1">  1       -4 0.27942930E-01 0.12762129E+03</pdfrwt>
<totfact> 0.31507042E+03</totfact>
</mgrwt>
</event>
<event>
 6    4  0.5642870E-004  0.1278112E+03  0.7818608E-02  0.1230740E+00
         -4   -1    0    0    0  501 -0.00000000000E+00  0.00000000000E+00  0.91513122616E+02  0.91521934589E+02  0.12700000000E+01 0.  1.
          4   -1    0    0  502    0  0.00000000000E+00 -0.00000000000E+00 -0.65302675161E+02  0.65315023411E+02  0.12700000000E+01 0.  1.
         25    2    1    2    0    0 -0.19919903074E+02  0.17745380990E+02  0.19123418877E+02  0.12923393173E+03  0.12499601144E+03 0.  0.
    9000005    1    3    3    0    0 -0.36068554631E+02  0.23516073001E+02  0.66281046161E+02  0.79045071970E+02  0.10000000000E+01 0.  0.
    9000005    1    3    3    0    0  0.16148651557E+02 -0.57706920117E+01 -0.47157627283E+02  0.50188859764E+02  0.10000000000E+01 0.  0.
         21    1    1    2  502  501  0.19919903074E+02 -0.17745380990E+02  0.70870285778E+01  0.27603026266E+02  0.00000000000E+00 0.  1.
<mgrwt>
<rscale>  1 0.12781120E+03</rscale>
<asrwt>0</asrwt>
<pdfrwt beam="2">  1        4 0.10048193E-01 0.12781120E+03</pdfrwt>
<pdfrwt beam="1">  1       -4 0.14080570E-01 0.12781120E+03</pdfrwt>
<totfact> 0.50975196E+03</totfact>
</mgrwt>
</event>
<event>
 6    4  0.5642870E-004  0.1284256E+03  0.7818608E-02  0.1229811E+00
          4   -1    0    0  502    0  0.00000000000E+00  0.00000000000E+00  0.98864541064E+02  0.98872697848E+02  0.12700000000E+01 0.  1.
         -4   -1    0    0    0  501 -0.00000000000E+00 -0.00000000000E+00 -0.68732680967E+02  0.68744413104E+02  0.12700000000E+01 0.  1.
         25    2    1    2    0    0 -0.29406509340E+02  0.21471046877E+01  0.44288609940E+01  0.12850193470E+03  0.12499511815E+03 0.  0.
    9000005    1    3    3    0    0 -0.58922297617E+02 -0.32974424644E+02 -0.27166635773E+02  0.72788570093E+02  0.10000000000E+01 0.  0.
    9000005    1    3    3    0    0  0.29515788276E+02  0.35121529331E+02  0.31595496767E+02  0.55713364609E+02  0.10000000000E+01 0.  0.
         21    1    1    2  502  501  0.29406509340E+02 -0.21471046877E+01  0.25702999103E+02  0.39115176249E+02  0.00000000000E+00 0. -1.
<mgrwt>
<rscale>  1 0.12842559E+03</rscale>
<asrwt>0</asrwt>
<pdfrwt beam="1">  1        4 0.15211459E-01 0.12842559E+03</pdfrwt>
<pdfrwt beam="2">  1       -4 0.10575789E-01 0.12842559E+03</pdfrwt>
<totfact> 0.40927462E+03</totfact>
</mgrwt>
</event>
<event>
 6    4  0.5642870E-004  0.1530962E+03  0.7818608E-02  0.1196719E+00
          4   -1    0    0  502    0  0.00000000000E+00  0.00000000000E+00  0.47735536518E+02  0.47752427652E+02  0.12700000000E+01 0. -1.
         -4   -1    0    0    0  501 -0.00000000000E+00 -0.00000000000E+00 -0.42746580346E+03  0.42746769004E+03  0.12700000000E+01 0. -1.
         25    2    1    2    0    0 -0.87676836649E+02 -0.11276048475E+02 -0.34989397665E+03  0.38192177273E+03  0.12499627448E+03 0.  0.
    9000005    1    3    3    0    0  0.23404491831E+01  0.46059105977E+02 -0.11554007545E+03  0.12440831154E+03  0.10000000000E+01 0.  0.
    9000005    1    3    3    0    0 -0.90017285832E+02 -0.57335154451E+02 -0.23435390120E+03  0.25751346119E+03  0.10000000000E+01 0.  0.
         21    1    1    2  502  501  0.87676836649E+02  0.11276048475E+02 -0.29836290287E+02  0.93298344959E+02  0.00000000000E+00 0. -1.
<mgrwt>
<rscale>  1 0.15309620E+03</rscale>
<asrwt>0</asrwt>
<pdfrwt beam="1">  1        4 0.73453734E-02 0.15309620E+03</pdfrwt>
<pdfrwt beam="2">  1       -4 0.65765412E-01 0.15309620E+03</pdfrwt>
<totfact> 0.47177855E+02</totfact>
</mgrwt>
</event>
<event>
 6    4  0.5642870E-004  0.1299216E+03  0.7818608E-02  0.1227572E+00
         -4   -1    0    0    0  501 -0.00000000000E+00  0.00000000000E+00  0.56358668100E+03  0.56358811193E+03  0.12700000000E+01 0.  1.
          4   -1    0    0  502    0  0.00000000000E+00 -0.00000000000E+00 -0.12231409792E+02  0.12297165750E+02  0.12700000000E+01 0.  1.
         25    2    1    2    0    0 -0.32323207372E+02  0.14503287680E+02  0.45656846164E+03  0.47469400158E+03  0.12499799953E+03 0.  0.
    9000005    1    3    3    0    0 -0.42176752954E+02  0.62199233685E+02  0.34267601865E+03  0.35082114663E+03  0.10000000000E+01 0.  0.
    9000005    1    3    3    0    0  0.98535455816E+01 -0.47695946005E+02  0.11389244299E+03  0.12387285496E+03  0.10000000000E+01 0.  0.
         21    1    1    2  502  501  0.32323207372E+02 -0.14503287680E+02  0.94786809573E+02  0.10119127609E+03  0.00000000000E+00 0. -1.
<mgrwt>
<rscale>  1 0.12992165E+03</rscale>
<asrwt>0</asrwt>
<pdfrwt beam="2">  1        4 0.18869234E-02 0.12992165E+03</pdfrwt>
<pdfrwt beam="1">  1       -4 0.86710818E-01 0.12992165E+03</pdfrwt>
<totfact> 0.21522089E+03</totfact>
</mgrwt>
</event>
<event>
 6    4  0.5642870E-004  0.1584563E+03  0.7818608E-02  0.1190451E+00
          4   -1    0    0  502    0  0.00000000000E+00  0.00000000000E+00  0.38908835680E+03  0.38909042946E+03  0.12700000000E+01 0. -1.
         -4   -1    0    0    0  501 -0.00000000000E+00 -0.00000000000E+00 -0.53093352464E+02  0.53108539576E+02  0.12700000000E+01 0. -1.
         25    2    1    2    0    0  0.96947185892E+02  0.91993571451E+01  0.10121467506E+03  0.18802346266E+03  0.12500010816E+03 0.  0.
    9000005    1    3    3    0    0 -0.18749284426E+02  0.90230946075E+01 -0.13715873406E+02  0.24941473214E+02  0.10000000000E+01 0.  0.
    9000005    1    3    3    0    0  0.11569647032E+03  0.17626253760E+00  0.11493054847E+03  0.16308198945E+03  0.10000000000E+01 0.  0.
         21    1    1    2  502  501 -0.96947185892E+02 -0.91993571451E+01  0.23478032928E+03  0.25417550637E+03  0.00000000000E+00 0. -1.
<mgrwt>
<rscale>  1 0.15845634E+03</rscale>
<asrwt>0</asrwt>
<pdfrwt beam="1">  1        4 0.59861074E-01 0.15845634E+03</pdfrwt>
<pdfrwt beam="2">  1       -4 0.81695359E-02 0.15845634E+03</pdfrwt>
<totfact> 0.48604924E+02</totfact>
</mgrwt>
</event>
<event>
 6    4  0.5642870E-004  0.1270798E+03  0.7818608E-02  0.1231854E+00
         -4   -1    0    0    0  501 -0.00000000000E+00  0.00000000000E+00  0.89424165133E+02  0.89433182934E+02  0.12700000000E+01 0.  1.
          4   -1    0    0  502    0  0.00000000000E+00 -0.00000000000E+00 -0.72960598249E+02  0.72971650638E+02  0.12700000000E+01 0.  1.
         25    2    1    2    0    0 -0.20861828986E+02  0.95767148165E+01  0.36196298578E+02  0.13213421951E+03  0.12498940179E+03 0.  0.
    9000005    1    3    3    0    0  0.34160296486E+02 -0.26025846904E+02 -0.18495637401E+02  0.46769211731E+02  0.10000000000E+01 0.  0.
    9000005    1    3    3    0    0 -0.55022125473E+02  0.35602561721E+02  0.54691935979E+02  0.85365007783E+02  0.10000000000E+01 0.  0.
         21    1    1    2  502  501  0.20861828986E+02 -0.95767148165E+01 -0.19732731694E+02  0.30270614058E+02  0.00000000000E+00 0.  1.
<mgrwt>
<rscale>  1 0.12707982E+03</rscale>
<asrwt>0</asrwt>
<pdfrwt beam="2">  1        4 0.11226251E-01 0.12707982E+03</pdfrwt>
<pdfrwt beam="1">  1       -4 0.13759108E-01 0.12707982E+03</pdfrwt>
<totfact> 0.43922829E+03</totfact>
</mgrwt>
</event>
<event>
 6    4  0.5642870E-004  0.1293406E+03  0.7818608E-02  0.1228438E+00
          4   -1    0    0  502    0  0.00000000000E+00  0.00000000000E+00  0.32386271517E+02  0.32411162935E+02  0.12700000000E+01 0. -1.
         -4   -1    0    0    0  501 -0.00000000000E+00 -0.00000000000E+00 -0.23592398321E+03  0.23592740144E+03  0.12700000000E+01 0. -1.
         25    2    1    2    0    0  0.23038699807E+02  0.23964884407E+02 -0.19503593386E+03  0.23402562805E+03  0.12499552677E+03 0.  0.
    9000005    1    3    3    0    0  0.44467533396E+02 -0.88363765856E+01 -0.12094827604E+02  0.46933228445E+02  0.10000000000E+01 0.  0.
    9000005    1    3    3    0    0 -0.21428833589E+02  0.32801260993E+02 -0.18294110625E+03  0.18709239960E+03  0.10000000000E+01 0.  0.
         21    1    1    2  502  501 -0.23038699807E+02 -0.23964884407E+02 -0.85017778334E+01  0.34312936333E+02  0.00000000000E+00 0.  1.
<mgrwt>
<rscale>  1 0.12934055E+03</rscale>
<asrwt>0</asrwt>
<pdfrwt beam="1">  1        4 0.49846811E-02 0.12934055E+03</pdfrwt>
<pdfrwt beam="2">  1       -4 0.36298174E-01 0.12934055E+03</pdfrwt>
<totfact> 0.28664085E+03</totfact>
</mgrwt>
</event>
<event>
 6    4  0.5642870E-004  0.1267714E+03  0.7818608E-02  0.1232327E+00
          4   -1    0    0  502    0  0.00000000000E+00  0.00000000000E+00  0.15653202778E+03  0.15653717968E+03  0.12700000000E+01 0. -1.
         -4   -1    0    0    0  501 -0.00000000000E+00 -0.00000000000E+00 -0.43491960580E+02  0.43510499137E+02  0.12700000000E+01 0. -1.
         25    2    1    2    0    0  0.20606856526E+02  0.49067290653E+01  0.54862333452E+02  0.13813348634E+03  0.12498906308E+03 0.  0.
    9000005    1    3    3    0    0  0.31216171775E-01  0.75287412130E+01  0.93745422915E+02  0.94052576978E+02  0.10000000000E+01 0.  0.
    9000005    1    3    3    0    0  0.20575640354E+02 -0.26220121477E+01 -0.38883089463E+02  0.44080909358E+02  0.10000000000E+01 0.  0.
         21    1    1    2  502  501 -0.20606856526E+02 -0.49067290653E+01  0.58177733749E+02  0.61914192478E+02  0.00000000000E+00 0. -1.
<mgrwt>
<rscale>  1 0.12677139E+03</rscale>
<asrwt>0</asrwt>
<pdfrwt beam="1">  1        4 0.24083673E-01 0.12677139E+03</pdfrwt>
<pdfrwt beam="2">  1       -4 0.66928932E-02 0.12677139E+03</pdfrwt>
<totfact> 0.38347612E+03</totfact>
</mgrwt>
</event>
<event>
 6    4  0.5642870E-004  0.1344538E+03  0.7818608E-02  0.1220993E+00
         -4   -1    0    0    0  501 -0.00000000000E+00  0.00000000000E+00  0.10114915743E+02  0.10194332764E+02  0.12700000000E+01 0.  1.
          4   -1    0    0  502    0  0.00000000000E+00 -0.00000000000E+00 -0.16737585999E+04  0.16737590817E+04  0.12700000000E+01 0.  1.
         25    2    1    2    0    0  0.32623119376E+02 -0.37252568323E+02 -0.45887238558E+03  0.47816491577E+03  0.12500319459E+03 0.  0.
    9000005    1    3    3    0    0  0.62216494570E+02 -0.27311946727E+01 -0.39426696827E+03  0.39915635269E+03  0.10000000000E+01 0.  0.
    9000005    1    3    3    0    0 -0.29593375194E+02 -0.34521373650E+02 -0.64605417308E+02  0.79008563078E+02  0.10000000000E+01 0.  0.
         21    1    1    2  502  501 -0.32623119376E+02  0.37252568323E+02 -0.12047712986E+04  0.12057884987E+04  0.00000000000E+00 0.  1.
<mgrwt>
<rscale>  1 0.13445379E+03</rscale>
<asrwt>0</asrwt>
<pdfrwt beam="2">  1        4 0.25750725E+00 0.13445379E+03</pdfrwt>
<pdfrwt beam="1">  1       -4 0.15622883E-02 0.13445379E+03</pdfrwt>
<totfact> 0.16558421E+02</totfact>
</mgrwt>
</event>
<event>
 6    4  0.5642870E-004  0.1321673E+03  0.7818608E-02  0.1224275E+00
          4   -1    0    0  502    0  0.00000000000E+00  0.00000000000E+00  0.72077774080E+02  0.72088961820E+02  0.12700000000E+01 0.  1.
         -4   -1    0    0    0  501 -0.00000000000E+00 -0.00000000000E+00 -0.13062768546E+03  0.13063385897E+03  0.12700000000E+01 0.  1.
         25    2    1    2    0    0  0.11188574623E+02  0.41459322956E+02 -0.80235434707E+02  0.15461542444E+03  0.12499657927E+03 0.  0.
    9000005    1    3    3    0    0  0.60771297853E+02  0.21754081631E+02 -0.83583972402E+01  0.65094189563E+02  0.10000000000E+01 0.  0.
    9000005    1    3    3    0    0 -0.49582723230E+02  0.19705241325E+02 -0.71877037467E+02  0.89521234875E+02  0.10000000000E+01 0.  0.
         21    1    1    2  502  501 -0.11188574623E+02 -0.41459322956E+02  0.21685523323E+02  0.48107396353E+02  0.00000000000E+00 0.  1.
<mgrwt>
<rscale>  1 0.13216734E+03</rscale>
<asrwt>0</asrwt>
<pdfrwt beam="1">  1        4 0.11090224E-01 0.13216734E+03</pdfrwt>
<pdfrwt beam="2">  1       -4 0.20097902E-01 0.13216734E+03</pdfrwt>
<totfact> 0.23212433E+03</totfact>
</mgrwt>
</event>
<event>
 6    4  0.5642870E-004  0.1269693E+03  0.7818608E-02  0.1232023E+00
          4   -1    0    0  502    0  0.00000000000E+00  0.00000000000E+00  0.28070097023E+03  0.28070384320E+03  0.12700000000E+01 0.  1.
         -4   -1    0    0    0  501 -0.00000000000E+00 -0.00000000000E+00 -0.21460827021E+02  0.21498371948E+02  0.12700000000E+01 0.  1.
         25    2    1    2    0    0  0.86815665752E+01 -0.20507316910E+02  0.18269114512E+03  0.22247976691E+03  0.12500109013E+03 0.  0.
    9000005    1    3    3    0    0 -0.11587330604E+02 -0.18501030388E+02  0.19659021628E+03  0.19780108061E+03  0.10000000000E+01 0.  0.
    9000005    1    3    3    0    0  0.20268897179E+02 -0.20062865221E+01 -0.13899071154E+02  0.24678686298E+02  0.10000000000E+01 0.  0.
         21    1    1    2  502  501 -0.86815665752E+01  0.20507316910E+02  0.76548998082E+02  0.79722448234E+02  0.00000000000E+00 0.  1.
<mgrwt>
<rscale>  1 0.12696926E+03</rscale>
<asrwt>0</asrwt>
<pdfrwt beam="1">  1        4 0.43187874E-01 0.12696926E+03</pdfrwt>
<pdfrwt beam="2">  1       -4 0.33047748E-02 0.12696926E+03</pdfrwt>
<totfact> 0.38966564E+03</totfact>
</mgrwt>
</event>
<event>
 6    4  0.5642870E-004  0.1347972E+03  0.7818608E-02  0.1220506E+00
         -4   -1    0    0    0  501 -0.00000000000E+00  0.00000000000E+00  0.43715395085E+02  0.43733838929E+02  0.12700000000E+01 0.  1.
          4   -1    0    0  502    0  0.00000000000E+00 -0.00000000000E+00 -0.19814497992E+03  0.19814904988E+03  0.12700000000E+01 0.  1.
         25    2    1    2    0    0 -0.49276446704E+02 -0.10898234907E+02 -0.10140644407E+03  0.16868184250E+03  0.12499342930E+03 0.  0.
    9000005    1    3    3    0    0 -0.27624793166E+02  0.93585266769E+01  0.25253809497E+02  0.38593601971E+02  0.10000000000E+01 0.  0.
    9000005    1    3    3    0    0 -0.21651653538E+02 -0.20256761584E+02 -0.12666025357E+03  0.13008824053E+03  0.10000000000E+01 0.  0.
         21    1    1    2  502  501  0.49276446704E+02  0.10898234907E+02 -0.53023140770E+02  0.73201046311E+02  0.00000000000E+00 0.  1.
<mgrwt>
<rscale>  1 0.13479724E+03</rscale>
<asrwt>0</asrwt>
<pdfrwt beam="2">  1        4 0.30485574E-01 0.13479724E+03</pdfrwt>
<pdfrwt beam="1">  1       -4 0.67271773E-02 0.13479724E+03</pdfrwt>
<totfact> 0.24869413E+03</totfact>
</mgrwt>
</event>
<event>
 6    4  0.5642870E-004  0.1275596E+03  0.7818608E-02  0.1231122E+00
          4   -1    0    0  502    0  0.00000000000E+00  0.00000000000E+00  0.35908572468E+03  0.35908797052E+03  0.12700000000E+01 0.  1.
         -4   -1    0    0    0  501 -0.00000000000E+00 -0.00000000000E+00 -0.19750344462E+02  0.19791134540E+02  0.12700000000E+01 0.  1.
         25    2    1    2    0    0  0.21243525442E+02 -0.13963498225E+02  0.19980421411E+03  0.23705099440E+03  0.12500073326E+03 0.  0.
    9000005    1    3    3    0    0 -0.31504236849E+01  0.18138463966E+02 -0.11633825925E+02  0.21800801593E+02  0.10000000000E+01 0.  0.
    9000005    1    3    3    0    0  0.24393949127E+02 -0.32101962191E+02  0.21143804003E+03  0.21525019281E+03  0.10000000000E+01 0.  0.
         21    1    1    2  502  501 -0.21243525442E+02  0.13963498225E+02  0.13953116611E+03  0.14182811066E+03  0.00000000000E+00 0. -1.
<mgrwt>
<rscale>  1 0.12755959E+03</rscale>
<asrwt>0</asrwt>
<pdfrwt beam="1">  1        4 0.55247265E-01 0.12755959E+03</pdfrwt>
<pdfrwt beam="2">  1       -4 0.30418251E-02 0.12755959E+03</pdfrwt>
<totfact> 0.26969114E+03</totfact>
</mgrwt>
</event>
<event>
 6    4  0.5642870E-004  0.1353393E+03  0.7818608E-02  0.1219742E+00
          4   -1    0    0  502    0  0.00000000000E+00  0.00000000000E+00  0.75710699529E+02  0.75721350510E+02  0.12700000000E+01 0.  1.
         -4   -1    0    0    0  501 -0.00000000000E+00 -0.00000000000E+00 -0.12097787125E+03  0.12098453716E+03  0.12700000000E+01 0.  1.
         25    2    1    2    0    0 -0.44928620294E+02  0.25955449562E+02 -0.13843972102E+02  0.13604549073E+03  0.12499781478E+03 0.  0.
    9000005    1    3    3    0    0  0.14875402201E+02  0.60782210988E+02 -0.22034551961E+02  0.66349651419E+02  0.10000000000E+01 0.  0.
    9000005    1    3    3    0    0 -0.59804022496E+02 -0.34826761427E+02  0.81905798593E+01  0.69695839306E+02  0.10000000000E+01 0.  0.
         21    1    1    2  502  501  0.44928620294E+02 -0.25955449562E+02 -0.31423199621E+02  0.60660396948E+02  0.00000000000E+00 0.  1.
<mgrwt>
<rscale>  1 0.13533928E+03</rscale>
<asrwt>0</asrwt>
<pdfrwt beam="1">  1        4 0.11649132E-01 0.13533928E+03</pdfrwt>
<pdfrwt beam="2">  1       -4 0.18613312E-01 0.13533928E+03</pdfrwt>
<totfact> 0.24627460E+03</totfact>
</mgrwt>
</event>
<event>
 6    4  0.5642870E-004  0.1285034E+03  0.7818608E-02  0.1229693E+00
          4   -1    0    0  502    0  0.00000000000E+00  0.00000000000E+00  0.22643658208E+03  0.22644014354E+03  0.12700000000E+01 0. -1.
         -4   -1    0    0    0  501 -0.00000000000E+00 -0.00000000000E+00 -0.31270141178E+02  0.31295920330E+02  0.12700000000E+01 0. -1.
         25    2    1    2    0    0 -0.29119266799E+02 -0.60257062511E+01  0.11580035931E+03  0.17298221002E+03  0.12501552276E+03 0.  0.
    9000005    1    3    3    0    0  0.18843099102E+01  0.48997455996E+02  0.10446527229E+02  0.50144104828E+02  0.10000000000E+01 0.  0.
    9000005    1    3    3    0    0 -0.31003576709E+02 -0.55023162247E+02  0.10535383208E+03  0.12283810519E+03  0.10000000000E+01 0.  0.
         21    1    1    2  502  501  0.29119266799E+02  0.60257062511E+01  0.79366081595E+02  0.84753853850E+02  0.00000000000E+00 0. -1.
<mgrwt>
<rscale>  1 0.12850339E+03</rscale>
<asrwt>0</asrwt>
<pdfrwt beam="1">  1        4 0.34838654E-01 0.12850339E+03</pdfrwt>
<pdfrwt beam="2">  1       -4 0.48130480E-02 0.12850339E+03</pdfrwt>
<totfact> 0.32772285E+03</totfact>
</mgrwt>
</event>
<event>
 6    4  0.5642870E-004  0.1276679E+03  0.7818608E-02  0.1230958E+00
          4   -1    0    0  502    0  0.00000000000E+00  0.00000000000E+00  0.41067487150E+02  0.41087119646E+02  0.12700000000E+01 0. -1.
         -4   -1    0    0    0  501 -0.00000000000E+00 -0.00000000000E+00 -0.15032902809E+03  0.15033439256E+03  0.12700000000E+01 0. -1.
         25    2    1    2    0    0  0.87612493731E+00  0.25957391150E+02 -0.10457388944E+03  0.16502969858E+03  0.12499819722E+03 0.  0.
    9000005    1    3    3    0    0 -0.42074706854E+02  0.77907338496E+01 -0.11003423968E+03  0.11806570371E+03  0.10000000000E+01 0.  0.
    9000005    1    3    3    0    0  0.42950831791E+02  0.18166657301E+02  0.54603502378E+01  0.46963994866E+02  0.10000000000E+01 0.  0.
         21    1    1    2  502  501 -0.87612493731E+00 -0.25957391150E+02 -0.46876514994E+01  0.26391813632E+02  0.00000000000E+00 0.  1.
<mgrwt>
<rscale>  1 0.12766794E+03</rscale>
<asrwt>0</asrwt>
<pdfrwt beam="1">  1        4 0.63199979E-02 0.12766794E+03</pdfrwt>
<pdfrwt beam="2">  1       -4 0.23129465E-01 0.12766794E+03</pdfrwt>
<totfact> 0.45421722E+03</totfact>
</mgrwt>
</event>
<event>
 6    4  0.5642870E-004  0.1312640E+03  0.7818608E-02  0.1225592E+00
         -4   -1    0    0    0  501 -0.00000000000E+00  0.00000000000E+00  0.61642992168E+03  0.61643122993E+03  0.12700000000E+01 0.  1.
          4   -1    0    0  502    0  0.00000000000E+00 -0.00000000000E+00 -0.11906113118E+02  0.11973655648E+02  0.12700000000E+01 0.  1.
         25    2    1    2    0    0 -0.97927755087E+01  0.38818578594E+02  0.44715071938E+03  0.46601932682E+03  0.12500986615E+03 0.  0.
    9000005    1    3    3    0    0 -0.31795825543E+02  0.64176115132E+02  0.14216746032E+03  0.15919213250E+03  0.10000000000E+01 0.  0.
    9000005    1    3    3    0    0  0.22003050034E+02 -0.25357536538E+02  0.30498325906E+03  0.30682719433E+03  0.10000000000E+01 0.  0.
         21    1    1    2  502  501  0.97927755087E+01 -0.38818578594E+02  0.15737308918E+03  0.16238555876E+03  0.00000000000E+00 0. -1.
<mgrwt>
<rscale>  1 0.13126404E+03</rscale>
<asrwt>0</asrwt>
<pdfrwt beam="2">  1        4 0.18370051E-02 0.13126404E+03</pdfrwt>
<pdfrwt beam="1">  1       -4 0.94840710E-01 0.13126404E+03</pdfrwt>
<totfact> 0.18355673E+03</totfact>
</mgrwt>
</event>
<event>
 6    4  0.5642870E-004  0.1415162E+03  0.7818608E-02  0.1211303E+00
         -4   -1    0    0    0  501 -0.00000000000E+00  0.00000000000E+00  0.72775441379E+01  0.73875265603E+01  0.12700000000E+01 0. -1.
          4   -1    0    0  502    0  0.00000000000E+00 -0.00000000000E+00 -0.20003290038E+04  0.20003294069E+04  0.12700000000E+01 0. -1.
         25    2    1    2    0    0 -0.49326580165E+02  0.44345557163E+02 -0.77188973862E+03  0.78475512345E+03  0.12500878066E+03 0.  0.
    9000005    1    3    3    0    0  0.73168260719E+01 -0.10230504515E+02 -0.53494325401E+03  0.53509203337E+03  0.10000000000E+01 0.  0.
    9000005    1    3    3    0    0 -0.56643406237E+02  0.54576061678E+02 -0.23694648461E+03  0.24966309008E+03  0.10000000000E+01 0.  0.
         21    1    1    2  502  501  0.49326580165E+02 -0.44345557163E+02 -0.12211617210E+04  0.12229618100E+04  0.00000000000E+00 0. -1.
<mgrwt>
<rscale>  1 0.14151620E+03</rscale>
<asrwt>0</asrwt>
<pdfrwt beam="2">  1        4 0.30775098E+00 0.14151620E+03</pdfrwt>
<pdfrwt beam="1">  1       -4 0.11281150E-02 0.14151620E+03</pdfrwt>
<totfact> 0.14034172E+02</totfact>
</mgrwt>
</event>
<event>
 6    4  0.5642870E-004  0.1271596E+03  0.7818608E-02  0.1231732E+00
          4   -1    0    0  502    0  0.00000000000E+00  0.00000000000E+00  0.26885733189E+03  0.26886033142E+03  0.12700000000E+01 0. -1.
         -4   -1    0    0    0  501 -0.00000000000E+00 -0.00000000000E+00 -0.72887004859E+02  0.72898068406E+02  0.12700000000E+01 0. -1.
         25    2    1    2    0    0 -0.23277973927E+02 -0.14109024232E+01 -0.16309620639E+02  0.12820130934E+03  0.12500286906E+03 0.  0.
    9000005    1    3    3    0    0  0.17102038193E+02  0.49026626320E+02 -0.32912599941E+02  0.61484380403E+02  0.10000000000E+01 0.  0.
    9000005    1    3    3    0    0 -0.40380012119E+02 -0.50437528744E+02  0.16602979302E+02  0.66716928933E+02  0.10000000000E+01 0.  0.
         21    1    1    2  502  501  0.23277973927E+02  0.14109024232E+01  0.21227994767E+03  0.21355709049E+03  0.00000000000E+00 0. -1.
<mgrwt>
<rscale>  1 0.12715963E+03</rscale>
<asrwt>0</asrwt>
<pdfrwt beam="1">  1        4 0.41363748E-01 0.12715963E+03</pdfrwt>
<pdfrwt beam="2">  1       -4 0.11214467E-01 0.12715963E+03</pdfrwt>
<totfact> 0.58097577E+02</totfact>
</mgrwt>
</event>
<event>
 6    4  0.5642870E-004  0.1268304E+03  0.7818608E-02  0.1232236E+00
         -4   -1    0    0    0  501 -0.00000000000E+00  0.00000000000E+00  0.71084153259E+02  0.71095497357E+02  0.12700000000E+01 0. -1.
          4   -1    0    0  502    0  0.00000000000E+00 -0.00000000000E+00 -0.86227399752E+02  0.86236751840E+02  0.12700000000E+01 0. -1.
         25    2    1    2    0    0  0.14158607306E+02  0.16139398312E+02  0.63018913611E+01  0.12698689904E+03  0.12500004942E+03 0.  0.
    9000005    1    3    3    0    0 -0.28378342103E+02 -0.35398337220E+02  0.31845968639E+02  0.55439501233E+02  0.10000000000E+01 0.  0.
    9000005    1    3    3    0    0  0.42536949408E+02  0.51537735532E+02 -0.25544077278E+02  0.71547397805E+02  0.10000000000E+01 0.  0.
         21    1    1    2  502  501 -0.14158607306E+02 -0.16139398312E+02 -0.21445137854E+02  0.30345350159E+02  0.00000000000E+00 0. -1.
<mgrwt>
<rscale>  1 0.12683043E+03</rscale>
<asrwt>0</asrwt>
<pdfrwt beam="2">  1        4 0.13267346E-01 0.12683043E+03</pdfrwt>
<pdfrwt beam="1">  1       -4 0.10937616E-01 0.12683043E+03</pdfrwt>
<totfact> 0.48860586E+03</totfact>
</mgrwt>
</event>
<event>
 6    4  0.5642870E-004  0.1302830E+03  0.7818608E-02  0.1227036E+00
         -4   -1    0    0    0  501 -0.00000000000E+00  0.00000000000E+00  0.10291310758E+02  0.10369376892E+02  0.12700000000E+01 0. -1.
          4   -1    0    0  502    0  0.00000000000E+00 -0.00000000000E+00 -0.80884453780E+03  0.80884553484E+03  0.12700000000E+01 0. -1.
         25    2    1    2    0    0  0.29101279073E+02 -0.22424184377E+02 -0.44276609238E+03  0.46153598633E+03  0.12499570242E+03 0.  0.
    9000005    1    3    3    0    0  0.33339189086E+02 -0.24732763160E+02 -0.36633522353E+02  0.55373514088E+02  0.10000000000E+01 0.  0.
    9000005    1    3    3    0    0 -0.42379100130E+01  0.23085787827E+01 -0.40613257003E+03  0.40616247224E+03  0.10000000000E+01 0.  0.
         21    1    1    2  502  501 -0.29101279073E+02  0.22424184377E+02 -0.35578713465E+03  0.35767892540E+03  0.00000000000E+00 0.  1.
<mgrwt>
<rscale>  1 0.13028298E+03</rscale>
<asrwt>0</asrwt>
<pdfrwt beam="2">  1        4 0.12444365E+00 0.13028298E+03</pdfrwt>
<pdfrwt beam="1">  1       -4 0.15893610E-02 0.13028298E+03</pdfrwt>
<totfact> 0.12077852E+03</totfact>
</mgrwt>
</event>
<event>
 6    4  0.5642870E-004  0.1295577E+03  0.7818608E-02  0.1228113E+00
         -4   -1    0    0    0  501 -0.00000000000E+00  0.00000000000E+00  0.48884959126E+02  0.48901453238E+02  0.12700000000E+01 0.  1.
          4   -1    0    0  502    0  0.00000000000E+00 -0.00000000000E+00 -0.14802392461E+03  0.14802937262E+03  0.12700000000E+01 0.  1.
         25    2    1    2    0    0 -0.91698965280E+01  0.32904053979E+02 -0.54088769685E+02  0.14039513879E+03  0.12497374212E+03 0.  0.
    9000005    1    3    3    0    0  0.35883300559E+02 -0.12175821057E+02 -0.65464007823E+02  0.75646534604E+02  0.10000000000E+01 0.  0.
    9000005    1    3    3    0    0 -0.45053197087E+02  0.45079875036E+02  0.11375238138E+02  0.64748604183E+02  0.10000000000E+01 0.  0.
         21    1    1    2  502  501  0.91698965280E+01 -0.32904053979E+02 -0.45050195800E+02  0.56535687068E+02  0.00000000000E+00 0.  1.
<mgrwt>
<rscale>  1 0.12955771E+03</rscale>
<asrwt>0</asrwt>
<pdfrwt beam="2">  1        4 0.22774599E-01 0.12955771E+03</pdfrwt>
<pdfrwt beam="1">  1       -4 0.75224508E-02 0.12955771E+03</pdfrwt>
<totfact> 0.35252074E+03</totfact>
</mgrwt>
</event>
<event>
 6    4  0.5642870E-004  0.1306923E+03  0.7818608E-02  0.1226432E+00
          4   -1    0    0  502    0  0.00000000000E+00  0.00000000000E+00  0.22033718918E+03  0.22034084922E+03  0.12700000000E+01 0.  1.
         -4   -1    0    0    0  501 -0.00000000000E+00 -0.00000000000E+00 -0.34675435307E+02  0.34698684611E+02  0.12700000000E+01 0.  1.
         25    2    1    2    0    0 -0.23086275585E+02 -0.30285443123E+02  0.11200506806E+03  0.17212094997E+03  0.12502120604E+03 0.  0.
    9000005    1    3    3    0    0  0.17023431280E+02  0.68606926232E+01 -0.21242620082E+02  0.28091194773E+02  0.10000000000E+01 0.  0.
    9000005    1    3    3    0    0 -0.40109706866E+02 -0.37146135747E+02  0.13324768815E+03  0.14402975520E+03  0.10000000000E+01 0.  0.
         21    1    1    2  502  501  0.23086275585E+02  0.30285443123E+02  0.73656685807E+02  0.82918583862E+02  0.00000000000E+00 0. -1.
<mgrwt>
<rscale>  1 0.13069233E+03</rscale>
<asrwt>0</asrwt>
<pdfrwt beam="1">  1        4 0.33900099E-01 0.13069233E+03</pdfrwt>
<pdfrwt beam="2">  1       -4 0.53367523E-02 0.13069233E+03</pdfrwt>
<totfact> 0.29375500E+03</totfact>
</mgrwt>
</event>
<event>
 6    4  0.5642870E-004  0.1278642E+03  0.7818608E-02  0.1230660E+00
         -4   -1    0    0    0  501 -0.00000000000E+00  0.00000000000E+00  0.18440238916E+02  0.18483920343E+02  0.12700000000E+01 0.  1.
          4   -1    0    0  502    0  0.00000000000E+00 -0.00000000000E+00 -0.36746675735E+03  0.36746895196E+03  0.12700000000E+01 0.  1.
         25    2    1    2    0    0 -0.24644370491E+02  0.11082168730E+02 -0.22295334298E+03  0.25701643437E+03  0.12497637747E+03 0.  0.
    9000005    1    3    3    0    0  0.16428476860E+02 -0.57223136822E+01 -0.21007598506E+03  0.21079743648E+03  0.10000000000E+01 0.  0.
    9000005    1    3    3    0    0 -0.41072847351E+02  0.16804482413E+02 -0.12877357920E+02  0.46218997887E+02  0.10000000000E+01 0.  0.
         21    1    1    2  502  501  0.24644370491E+02 -0.11082168730E+02 -0.12607317545E+03  0.12893643794E+03  0.00000000000E+00 0.  1.
<mgrwt>
<rscale>  1 0.12786420E+03</rscale>
<asrwt>0</asrwt>
<pdfrwt beam="2">  1        4 0.56536871E-01 0.12786420E+03</pdfrwt>
<pdfrwt beam="1">  1       -4 0.28404890E-02 0.12786420E+03</pdfrwt>
<totfact> 0.28631160E+03</totfact>
</mgrwt>
</event>
<event>
 6    4  0.5642870E-004  0.1282659E+03  0.7818608E-02  0.1230052E+00
         -4   -1    0    0    0  501 -0.00000000000E+00  0.00000000000E+00  0.28423546677E+02  0.28451905133E+02  0.12700000000E+01 0.  1.
          4   -1    0    0  502    0  0.00000000000E+00 -0.00000000000E+00 -0.21929405088E+03  0.21929772833E+03  0.12700000000E+01 0.  1.
         25    2    1    2    0    0  0.26825648976E+02 -0.10447540406E+02 -0.14496428029E+03  0.19356339963E+03  0.12499352212E+03 0.  0.
    9000005    1    3    3    0    0  0.30555579318E+02  0.12010449514E+02  0.11987786600E+02  0.34965716818E+02  0.10000000000E+01 0.  0.
    9000005    1    3    3    0    0 -0.37299303416E+01 -0.22457989920E+02 -0.15695206689E+03  0.15859768281E+03  0.10000000000E+01 0.  0.
         21    1    1    2  502  501 -0.26825648976E+02  0.10447540406E+02 -0.45906223912E+02  0.54186233837E+02  0.00000000000E+00 0.  1.
<mgrwt>
<rscale>  1 0.12826592E+03</rscale>
<asrwt>0</asrwt>
<pdfrwt beam="2">  1        4 0.33740009E-01 0.12826592E+03</pdfrwt>
<pdfrwt beam="1">  1       -4 0.43753178E-02 0.12826592E+03</pdfrwt>
<totfact> 0.40573573E+03</totfact>
</mgrwt>
</event>
<event>
 6    4  0.5642870E-004  0.1291210E+03  0.7818608E-02  0.1228766E+00
          4   -1    0    0  502    0  0.00000000000E+00  0.00000000000E+00  0.23039025572E+02  0.23074002672E+02  0.12700000000E+01 0. -1.
         -4   -1    0    0    0  501 -0.00000000000E+00 -0.00000000000E+00 -0.55819049478E+03  0.55819193954E+03  0.12700000000E+01 0. -1.
         25    2    1    2    0    0  0.29414334961E+02 -0.13467645872E+02 -0.53346734879E+03  0.54887123820E+03  0.12500257319E+03 0.  0.
    9000005    1    3    3    0    0  0.47866949745E+02 -0.32559728897E+02 -0.51043218251E+03  0.51370555162E+03  0.10000000000E+01 0.  0.
    9000005    1    3    3    0    0 -0.18452614784E+02  0.19092083025E+02 -0.23035166281E+02  0.35165686574E+02  0.10000000000E+01 0.  0.
         21    1    1    2  502  501 -0.29414334961E+02  0.13467645872E+02 -0.16841204156E+01  0.32394704013E+02  0.00000000000E+00 0. -1.
<mgrwt>
<rscale>  1 0.12912097E+03</rscale>
<asrwt>0</asrwt>
<pdfrwt beam="1">  1        4 0.35472676E-02 0.12912097E+03</pdfrwt>
<pdfrwt beam="2">  1       -4 0.85878253E-01 0.12912097E+03</pdfrwt>
<totfact> 0.82276377E+02</totfact>
</mgrwt>
</event>
<event>
 6    4  0.5642870E-004  0.1270516E+03  0.7818608E-02  0.1231897E+00
          4   -1    0    0  502    0  0.00000000000E+00  0.00000000000E+00  0.76036340137E+02  0.76046945510E+02  0.12700000000E+01 0. -1.
         -4   -1    0    0    0  501 -0.00000000000E+00 -0.00000000000E+00 -0.78193951450E+02  0.78204264227E+02  0.12700000000E+01 0. -1.
         25    2    1    2    0    0 -0.10126980592E+02  0.20214924586E+02  0.11932023178E+02  0.12761070088E+03  0.12502367332E+03 0.  0.
    9000005    1    3    3    0    0 -0.63691295783E+02  0.27155914107E+02  0.22004550419E+02  0.72658275982E+02  0.10000000000E+01 0.  0.
    9000005    1    3    3    0    0  0.53564315191E+02 -0.69409895207E+01 -0.10072527241E+02  0.54952424901E+02  0.10000000000E+01 0.  0.
         21    1    1    2  502  501  0.10126980592E+02 -0.20214924586E+02 -0.14089634491E+02  0.26640508855E+02  0.00000000000E+00 0. -1.
<mgrwt>
<rscale>  1 0.12705163E+03</rscale>
<asrwt>0</asrwt>
<pdfrwt beam="1">  1        4 0.11699508E-01 0.12705163E+03</pdfrwt>
<pdfrwt beam="2">  1       -4 0.12031448E-01 0.12705163E+03</pdfrwt>
<totfact> 0.51560133E+03</totfact>
</mgrwt>
</event>
<event>
 6    4  0.5642870E-004  0.1291133E+03  0.7818608E-02  0.1228777E+00
          4   -1    0    0  502    0  0.00000000000E+00  0.00000000000E+00  0.55769110270E+03  0.55769254875E+03  0.12700000000E+01 0.  1.
         -4   -1    0    0    0  501 -0.00000000000E+00 -0.00000000000E+00 -0.12073193569E+02  0.12139806546E+02  0.12700000000E+01 0.  1.
         25    2    1    2    0    0 -0.12724025418E+02 -0.29727751931E+02  0.38757090092E+03  0.40851125667E+03  0.12499841410E+03 0.  0.
    9000005    1    3    3    0    0 -0.42139602090E+02 -0.68372920394E+02  0.25275775400E+03  0.26521328118E+03  0.10000000000E+01 0.  0.
    9000005    1    3    3    0    0  0.29415576673E+02  0.38645168463E+02  0.13481314692E+03  0.14329797548E+03  0.10000000000E+01 0.  0.
         21    1    1    2  502  501  0.12724025418E+02  0.29727751931E+02  0.15804700822E+03  0.16132109863E+03  0.00000000000E+00 0. -1.
<mgrwt>
<rscale>  1 0.12911330E+03</rscale>
<asrwt>0</asrwt>
<pdfrwt beam="1">  1        4 0.85803857E-01 0.12911330E+03</pdfrwt>
<pdfrwt beam="2">  1       -4 0.18626499E-02 0.12911330E+03</pdfrwt>
<totfact> 0.22444515E+03</totfact>
</mgrwt>
</event>
<event>
 6    4  0.5642870E-004  0.1270795E+03  0.7818608E-02  0.1231855E+00
          4   -1    0    0  502    0  0.00000000000E+00  0.00000000000E+00  0.21606821555E+03  0.21607194790E+03  0.12700000000E+01 0.  1.
         -4   -1    0    0    0  501 -0.00000000000E+00 -0.00000000000E+00 -0.36640208998E+02  0.36662212364E+02  0.12700000000E+01 0.  1.
         25    2    1    2    0    0 -0.20968326042E+02  0.93308622742E+01  0.78813391186E+02  0.14953514616E+03  0.12498989407E+03 0.  0.
    9000005    1    3    3    0    0 -0.42592209817E+02  0.35965115160E+02  0.96102524996E+02  0.11110482058E+03  0.10000000000E+01 0.  0.
    9000005    1    3    3    0    0  0.21623883775E+02 -0.26634252886E+02 -0.17289133810E+02  0.38430325580E+02  0.10000000000E+01 0.  0.
         21    1    1    2  502  501  0.20968326042E+02 -0.93308622742E+01  0.10061461536E+03  0.10319901410E+03  0.00000000000E+00 0.  1.
<mgrwt>
<rscale>  1 0.12707954E+03</rscale>
<asrwt>0</asrwt>
<pdfrwt beam="1">  1        4 0.33243243E-01 0.12707954E+03</pdfrwt>
<pdfrwt beam="2">  1       -4 0.56389349E-02 0.12707954E+03</pdfrwt>
<totfact> 0.27716131E+03</totfact>
</mgrwt>
</event>
<event>
 6    4  0.5642870E-004  0.1268687E+03  0.7818608E-02  0.1232177E+00
          4   -1    0    0  502    0  0.00000000000E+00  0.00000000000E+00  0.31701836292E+03  0.31702090677E+03  0.12700000000E+01 0.  1.
         -4   -1    0    0    0  501 -0.00000000000E+00 -0.00000000000E+00 -0.18073339747E+02  0.18117905773E+02  0.12700000000E+01 0.  1.
         25    2    1    2    0    0 -0.21031903871E+02 -0.51519183869E+01  0.27500446973E+03  0.30285827130E+03  0.12500716333E+03 0.  0.
    9000005    1    3    3    0    0  0.46172751769E+02 -0.26756034378E+02  0.15113015374E+03  0.16027829470E+03  0.10000000000E+01 0.  0.
    9000005    1    3    3    0    0 -0.67204655640E+02  0.21604115991E+02  0.12387431599E+03  0.14257997660E+03  0.10000000000E+01 0.  0.
         21    1    1    2  502  501  0.21031903871E+02  0.51519183869E+01  0.23940553452E+02  0.32280541245E+02  0.00000000000E+00 0.  1.
<mgrwt>
<rscale>  1 0.12686873E+03</rscale>
<asrwt>0</asrwt>
<pdfrwt beam="1">  1        4 0.48775679E-01 0.12686873E+03</pdfrwt>
<pdfrwt beam="2">  1       -4 0.27841377E-02 0.12686873E+03</pdfrwt>
<totfact> 0.39911146E+03</totfact>
</mgrwt>
</event>
<event>
 6    4  0.5642870E-004  0.1756960E+03  0.7818608E-02  0.1172035E+00
          4   -1    0    0  502    0  0.00000000000E+00  0.00000000000E+00  0.25119033861E+04  0.25119037071E+04  0.12700000000E+01 0. -1.
         -4   -1    0    0    0  501 -0.00000000000E+00 -0.00000000000E+00 -0.89197327876E+01  0.90096910603E+01  0.12700000000E+01 0. -1.
         25    2    1    2    0    0  0.35756631194E+02  0.11817658531E+03  0.13691206884E+04  0.13803479836E+04  0.12499941685E+03 0.  0.
    9000005    1    3    3    0    0 -0.26248776636E+02 -0.41165566435E+01  0.47808553764E+03  0.47882431602E+03  0.10000000000E+01 0.  0.
    9000005    1    3    3    0    0  0.62005407830E+02  0.12229314196E+03  0.89103515081E+03  0.90152366755E+03  0.10000000000E+01 0.  0.
         21    1    1    2  502  501 -0.35756631194E+02 -0.11817658531E+03  0.11338629648E+04  0.11405654146E+04  0.00000000000E+00 0. -1.
<mgrwt>
<rscale>  1 0.17569603E+03</rscale>
<asrwt>0</asrwt>
<pdfrwt beam="1">  1        4 0.38645405E+00 0.17569603E+03</pdfrwt>
<pdfrwt beam="2">  1       -4 0.13792096E-02 0.17569603E+03</pdfrwt>
<totfact> 0.34768104E+01</totfact>
</mgrwt>
</event>
<event>
 6    4  0.5642870E-004  0.1274195E+03  0.7818608E-02  0.1231336E+00
          4   -1    0    0  502    0  0.00000000000E+00  0.00000000000E+00  0.48123985028E+02  0.48140739868E+02  0.12700000000E+01 0. -1.
         -4   -1    0    0    0  501 -0.00000000000E+00 -0.00000000000E+00 -0.33787308831E+03  0.33787547514E+03  0.12700000000E+01 0. -1.
         25    2    1    2    0    0 -0.19456704962E+02 -0.15230880901E+02 -0.32147335393E+03  0.34580463484E+03  0.12500074035E+03 0.  0.
    9000005    1    3    3    0    0 -0.36096958367E+02 -0.44542242346E+02 -0.63186973475E+02  0.85326404902E+02  0.10000000000E+01 0.  0.
    9000005    1    3    3    0    0  0.16640253405E+02  0.29311361444E+02 -0.25828638045E+03  0.26047822993E+03  0.10000000000E+01 0.  0.
         21    1    1    2  502  501  0.19456704962E+02  0.15230880901E+02  0.31724250647E+02  0.40211580174E+02  0.00000000000E+00 0.  1.
<mgrwt>
<rscale>  1 0.12741950E+03</rscale>
<asrwt>0</asrwt>
<pdfrwt beam="1">  1        4 0.74051626E-02 0.12741950E+03</pdfrwt>
<pdfrwt beam="2">  1       -4 0.51981946E-01 0.12741950E+03</pdfrwt>
<totfact> 0.73456187E+02</totfact>
</mgrwt>
</event>
<event>
 6    4  0.5642870E-004  0.1270287E+03  0.7818608E-02  0.1231932E+00
          4   -1    0    0  502    0  0.00000000000E+00  0.00000000000E+00  0.91654574080E+03  0.91654662068E+03  0.12700000000E+01 0.  1.
         -4   -1    0    0    0  501 -0.00000000000E+00 -0.00000000000E+00 -0.60440038964E+01  0.61759924789E+01  0.12700000000E+01 0.  1.
         25    2    1    2    0    0  0.15060876009E+02  0.16848959433E+02  0.76417938811E+03  0.77466537026E+03  0.12500232493E+03 0.  0.
    9000005    1    3    3    0    0  0.11094834258E+02  0.69330967022E+02  0.33577951551E+03  0.34304338118E+03  0.10000000000E+01 0.  0.
    9000005    1    3    3    0    0  0.39660417503E+01 -0.52482007589E+02  0.42839987260E+03  0.43162198907E+03  0.10000000000E+01 0.  0.
         21    1    1    2  502  501 -0.15060876009E+02 -0.16848959433E+02  0.14632234879E+03  0.14805724290E+03  0.00000000000E+00 0. -1.
<mgrwt>
<rscale>  1 0.12702873E+03</rscale>
<asrwt>0</asrwt>
<pdfrwt beam="1">  1        4 0.14101723E+00 0.12702873E+03</pdfrwt>
<pdfrwt beam="2">  1       -4 0.94006760E-03 0.12702873E+03</pdfrwt>
<totfact> 0.19556303E+03</totfact>
</mgrwt>
</event>
<event>
 6    4  0.5642870E-004  0.1300082E+03  0.7818608E-02  0.1227444E+00
          4   -1    0    0  502    0  0.00000000000E+00  0.00000000000E+00  0.46506547865E+02  0.46523885203E+02  0.12700000000E+01 0. -1.
         -4   -1    0    0    0  501 -0.00000000000E+00 -0.00000000000E+00 -0.15235228316E+03  0.15235757639E+03  0.12700000000E+01 0. -1.
         25    2    1    2    0    0 -0.19897323800E+02 -0.29646577396E+02 -0.96689122555E+02  0.16202136660E+03  0.12500925474E+03 0.  0.
    9000005    1    3    3    0    0 -0.55954049896E+02 -0.60590066675E+02 -0.61894671204E+02  0.10312110455E+03  0.10000000000E+01 0.  0.
    9000005    1    3    3    0    0  0.36056726096E+02  0.30943489279E+02 -0.34794451351E+02  0.58900262057E+02  0.10000000000E+01 0.  0.
         21    1    1    2  502  501  0.19897323800E+02  0.29646577396E+02 -0.91566127352E+01  0.36860094987E+02  0.00000000000E+00 0.  1.
<mgrwt>
<rscale>  1 0.13000822E+03</rscale>
<asrwt>0</asrwt>
<pdfrwt beam="1">  1        4 0.71565944E-02 0.13000822E+03</pdfrwt>
<pdfrwt beam="2">  1       -4 0.23440553E-01 0.13000822E+03</pdfrwt>
<totfact> 0.36333456E+03</totfact>
</mgrwt>
</event>
<event>
 6    4  0.5642870E-004  0.1286255E+03  0.7818608E-02  0.1229510E+00
         -4   -1    0    0    0  501 -0.00000000000E+00  0.00000000000E+00  0.19501599724E+02  0.19542908990E+02  0.12700000000E+01 0. -1.
          4   -1    0    0  502    0  0.00000000000E+00 -0.00000000000E+00 -0.41945852041E+03  0.41946044300E+03  0.12700000000E+01 0. -1.
         25    2    1    2    0    0  0.72483348373E+01  0.29425988044E+02 -0.20719352358E+03  0.24387223097E+03  0.12500432669E+03 0.  0.
    9000005    1    3    3    0    0 -0.24023620905E+02  0.16929182949E+02  0.42937544204E+01  0.29718141324E+02  0.10000000000E+01 0.  0.
    9000005    1    3    3    0    0  0.31271955742E+02  0.12496805095E+02 -0.21148727801E+03  0.21415408964E+03  0.10000000000E+01 0.  0.
         21    1    1    2  502  501 -0.72483348373E+01 -0.29425988044E+02 -0.19276339710E+03  0.19513112102E+03  0.00000000000E+00 0. -1.
<mgrwt>
<rscale>  1 0.12862546E+03</rscale>
<asrwt>0</asrwt>
<pdfrwt beam="2">  1        4 0.64535399E-01 0.12862546E+03</pdfrwt>
<pdfrwt beam="1">  1       -4 0.30035720E-02 0.12862546E+03</pdfrwt>
<totfact> 0.19901587E+03</totfact>
</mgrwt>
</event>
<event>
 6    4  0.5642870E-004  0.1289110E+03  0.7818608E-02  0.1229081E+00
          4   -1    0    0  502    0  0.00000000000E+00  0.00000000000E+00  0.54051831537E+01  0.55523783125E+01  0.12700000000E+01 0. -1.
         -4   -1    0    0    0  501 -0.00000000000E+00 -0.00000000000E+00 -0.15899505406E+04  0.15899510478E+04  0.12700000000E+01 0. -1.
         25    2    1    2    0    0  0.47295086466E+01  0.31154694713E+02 -0.14955194833E+04  0.15010651420E+04  0.12500020854E+03 0.  0.
    9000005    1    3    3    0    0 -0.71731517251E+01  0.14783222543E+02 -0.22360142714E+02  0.27766414184E+02  0.10000000000E+01 0.  0.
    9000005    1    3    3    0    0  0.11902660372E+02  0.16371472169E+02 -0.14731593406E+04  0.14732987278E+04  0.10000000000E+01 0.  0.
         21    1    1    2  502  501 -0.47295086466E+01 -0.31154694713E+02 -0.89025874124E+02  0.94438284176E+02  0.00000000000E+00 0. -1.
<mgrwt>
<rscale>  1 0.12891096E+03</rscale>
<asrwt>0</asrwt>
<pdfrwt beam="1">  1        4 0.84292962E-03 0.12891096E+03</pdfrwt>
<pdfrwt beam="2">  1       -4 0.24461877E+00 0.12891096E+03</pdfrwt>
<totfact> 0.49597736E+02</totfact>
</mgrwt>
</event>
<event>
 6    4  0.5642870E-004  0.1276283E+03  0.7818608E-02  0.1231018E+00
         -4   -1    0    0    0  501 -0.00000000000E+00  0.00000000000E+00  0.40647275907E+02  0.40667111265E+02  0.12700000000E+01 0. -1.
          4   -1    0    0  502    0  0.00000000000E+00 -0.00000000000E+00 -0.19010872434E+03  0.19011296634E+03  0.12700000000E+01 0. -1.
         25    2    1    2    0    0  0.25367862682E+02  0.45408434051E+01 -0.66512018282E+02  0.14391952454E+03  0.12499933301E+03 0.  0.
    9000005    1    3    3    0    0 -0.26644402577E+02 -0.37924925604E+02  0.40175762748E+01  0.46533483534E+02  0.10000000000E+01 0.  0.
    9000005    1    3    3    0    0  0.52012265259E+02  0.42465769009E+02 -0.70529594557E+02  0.97386041008E+02  0.10000000000E+01 0.  0.
         21    1    1    2  502  501 -0.25367862682E+02 -0.45408434051E+01 -0.82949430152E+02  0.86860553063E+02  0.00000000000E+00 0. -1.
<mgrwt>
<rscale>  1 0.12762829E+03</rscale>
<asrwt>0</asrwt>
<pdfrwt beam="2">  1        4 0.29249348E-01 0.12762829E+03</pdfrwt>
<pdfrwt beam="1">  1       -4 0.62552793E-02 0.12762829E+03</pdfrwt>
<totfact> 0.29893307E+03</totfact>
</mgrwt>
</event>
<event>
 6    4  0.5642870E-004  0.1301535E+03  0.7818608E-02  0.1227228E+00
          4   -1    0    0  502    0  0.00000000000E+00  0.00000000000E+00  0.35897358620E+02  0.35919817036E+02  0.12700000000E+01 0. -1.
         -4   -1    0    0    0  501 -0.00000000000E+00 -0.00000000000E+00 -0.49001781080E+03  0.49001945656E+03  0.12700000000E+01 0. -1.
         25    2    1    2    0    0 -0.35962402888E+02 -0.46691822115E+01 -0.46901220547E+03  0.48673646757E+03  0.12499937721E+03 0.  0.
    9000005    1    3    3    0    0  0.21000903281E+02 -0.40857224913E+02 -0.83018845535E+02  0.94886666503E+02  0.10000000000E+01 0.  0.
    9000005    1    3    3    0    0 -0.56963306169E+02  0.36188042701E+02 -0.38599335993E+03  0.39184980107E+03  0.10000000000E+01 0.  0.
         21    1    1    2  502  501  0.35962402888E+02  0.46691822115E+01  0.14891753286E+02  0.39202806021E+02  0.00000000000E+00 0. -1.
<mgrwt>
<rscale>  1 0.13015352E+03</rscale>
<asrwt>0</asrwt>
<pdfrwt beam="1">  1        4 0.55245251E-02 0.13015352E+03</pdfrwt>
<pdfrwt beam="2">  1       -4 0.75389205E-01 0.13015352E+03</pdfrwt>
<totfact> 0.54207582E+02</totfact>
</mgrwt>
</event>
<event>
 6    4  0.5642870E-004  0.1325774E+03  0.7818608E-02  0.1223681E+00
          4   -1    0    0  502    0  0.00000000000E+00  0.00000000000E+00  0.79242728369E+03  0.79242830138E+03  0.12700000000E+01 0. -1.
         -4   -1    0    0    0  501 -0.00000000000E+00 -0.00000000000E+00 -0.98164273159E+01  0.98982395025E+01  0.12700000000E+01 0. -1.
         25    2    1    2    0    0 -0.44101709555E+02 -0.28466348741E+01  0.58615725961E+03  0.60096348619E+03  0.12499485839E+03 0.  0.
    9000005    1    3    3    0    0 -0.13453325075E+02 -0.13053326968E+02  0.55736075842E+03  0.55767678482E+03  0.10000000000E+01 0.  0.
    9000005    1    3    3    0    0 -0.30648384480E+02  0.10206692094E+02  0.28796501191E+02  0.43286701371E+02  0.10000000000E+01 0.  0.
         21    1    1    2  502  501  0.44101709555E+02  0.28466348741E+01  0.19645359677E+03  0.20136305470E+03  0.00000000000E+00 0. -1.
<mgrwt>
<rscale>  1 0.13257744E+03</rscale>
<asrwt>0</asrwt>
<pdfrwt beam="1">  1        4 0.12191823E+00 0.13257744E+03</pdfrwt>
<pdfrwt beam="2">  1       -4 0.15165915E-02 0.13257744E+03</pdfrwt>
<totfact> 0.13684588E+03</totfact>
</mgrwt>
</event>
<event>
 6    4  0.5642870E-004  0.1289511E+03  0.7818608E-02  0.1229020E+00
          4   -1    0    0  502    0  0.00000000000E+00  0.00000000000E+00  0.10933692486E+04  0.10933699862E+04  0.12700000000E+01 0. -1.
         -4   -1    0    0    0  501 -0.00000000000E+00 -0.00000000000E+00 -0.91503105998E+01  0.92380238186E+01  0.12700000000E+01 0. -1.
         25    2    1    2    0    0 -0.18882900570E+02  0.25430780219E+02  0.46412818228E+03  0.48170879608E+03  0.12500042447E+03 0.  0.
    9000005    1    3    3    0    0 -0.13451993680E+02  0.15306804640E+02  0.46881640658E+03  0.46926013839E+03  0.10000000000E+01 0.  0.
    9000005    1    3    3    0    0 -0.54309068901E+01  0.10123975579E+02 -0.46882243021E+01  0.12448657690E+02  0.10000000000E+01 0.  0.
         21    1    1    2  502  501  0.18882900570E+02 -0.25430780219E+02  0.62009075570E+03  0.62089921390E+03  0.00000000000E+00 0. -1.
<mgrwt>
<rscale>  1 0.12895113E+03</rscale>
<asrwt>0</asrwt>
<pdfrwt beam="1">  1        4 0.16821749E+00 0.12895113E+03</pdfrwt>
<pdfrwt beam="2">  1       -4 0.14145437E-02 0.12895113E+03</pdfrwt>
<totfact> 0.67293093E+02</totfact>
</mgrwt>
</event>
<event>
 6    4  0.5642870E-004  0.1307449E+03  0.7818608E-02  0.1226355E+00
         -4   -1    0    0    0  501 -0.00000000000E+00  0.00000000000E+00  0.27791365005E+02  0.27820367877E+02  0.12700000000E+01 0. -1.
          4   -1    0    0  502    0  0.00000000000E+00 -0.00000000000E+00 -0.32336039311E+03  0.32336288707E+03  0.12700000000E+01 0. -1.
         25    2    1    2    0    0 -0.26163313108E+02  0.28052355274E+02 -0.14254777813E+03  0.19342725179E+03  0.12499111606E+03 0.  0.
    9000005    1    3    3    0    0 -0.71889813640E+02  0.38793755734E+02 -0.10641625186E+03  0.13415856085E+03  0.10000000000E+01 0.  0.
    9000005    1    3    3    0    0  0.45726500531E+02 -0.10741400461E+02 -0.36131526275E+02  0.59268690939E+02  0.10000000000E+01 0.  0.
         21    1    1    2  502  501  0.26163313108E+02 -0.28052355274E+02 -0.15302124997E+03  0.15775600316E+03  0.00000000000E+00 0. -1.
<mgrwt>
<rscale>  1 0.13074491E+03</rscale>
<asrwt>0</asrwt>
<pdfrwt beam="2">  1        4 0.49750173E-01 0.13074491E+03</pdfrwt>
<pdfrwt beam="1">  1       -4 0.42780177E-02 0.13074491E+03</pdfrwt>
<totfact> 0.19629676E+03</totfact>
</mgrwt>
</event>
<event>
 6    4  0.5642870E-004  0.1309122E+03  0.7818608E-02  0.1226108E+00
          4   -1    0    0  502    0  0.00000000000E+00  0.00000000000E+00  0.63612383091E+02  0.63625059391E+02  0.12700000000E+01 0. -1.
         -4   -1    0    0    0  501 -0.00000000000E+00 -0.00000000000E+00 -0.16528684036E+03  0.16529171939E+03  0.12700000000E+01 0. -1.
         25    2    1    2    0    0 -0.34911584265E+02  0.17164267652E+02 -0.12708397341E+03  0.18245093852E+03  0.12499831147E+03 0.  0.
    9000005    1    3    3    0    0 -0.54064102292E+02  0.23637641510E+02 -0.55854631983E+01  0.59277842841E+02  0.10000000000E+01 0.  0.
    9000005    1    3    3    0    0  0.19152518027E+02 -0.64733738581E+01 -0.12149851021E+03  0.12317309568E+03  0.10000000000E+01 0.  0.
         21    1    1    2  502  501  0.34911584265E+02 -0.17164267652E+02  0.25409516139E+02  0.46465840252E+02  0.00000000000E+00 0. -1.
<mgrwt>
<rscale>  1 0.13091222E+03</rscale>
<asrwt>0</asrwt>
<pdfrwt beam="1">  1        4 0.97878709E-02 0.13091222E+03</pdfrwt>
<pdfrwt beam="2">  1       -4 0.25430095E-01 0.13091222E+03</pdfrwt>
<totfact> 0.18624276E+03</totfact>
</mgrwt>
</event>
<event>
 6    4  0.5642870E-004  0.1269168E+03  0.7818608E-02  0.1232104E+00
         -4   -1    0    0    0  501 -0.00000000000E+00  0.00000000000E+00  0.16104125621E+02  0.16154125232E+02  0.12700000000E+01 0. -1.
          4   -1    0    0  502    0  0.00000000000E+00 -0.00000000000E+00 -0.12292015360E+04  0.12292021921E+04  0.12700000000E+01 0. -1.
         25    2    1    2    0    0 -0.82503650025E+01  0.20366327486E+02 -0.23558547368E+03  0.26759742975E+03  0.12500005272E+03 0.  0.
    9000005    1    3    3    0    0 -0.64347447688E+02 -0.61727841376E+01 -0.11267973864E+03  0.12990927907E+03  0.10000000000E+01 0.  0.
    9000005    1    3    3    0    0  0.56097082685E+02  0.26539111623E+02 -0.12290573504E+03  0.13768815067E+03  0.10000000000E+01 0.  0.
         21    1    1    2  502  501  0.82503650025E+01 -0.20366327486E+02 -0.97751193672E+03  0.97775888759E+03  0.00000000000E+00 0. -1.
<mgrwt>
<rscale>  1 0.12691678E+03</rscale>
<asrwt>0</asrwt>
<pdfrwt beam="2">  1        4 0.18911175E+00 0.12691678E+03</pdfrwt>
<pdfrwt beam="1">  1       -4 0.24814554E-02 0.12691678E+03</pdfrwt>
<totfact> 0.20621451E+02</totfact>
</mgrwt>
</event>
<event>
 6    4  0.5642870E-004  0.1269158E+03  0.7818608E-02  0.1232105E+00
         -4   -1    0    0    0  501 -0.00000000000E+00  0.00000000000E+00  0.63594949443E+02  0.63607629217E+02  0.12700000000E+01 0. -1.
          4   -1    0    0  502    0  0.00000000000E+00 -0.00000000000E+00 -0.89798456122E+02  0.89807436340E+02  0.12700000000E+01 0. -1.
         25    2    1    2    0    0  0.15382757025E+02 -0.15677634191E+02 -0.31615064198E+02  0.13079422600E+03  0.12500079937E+03 0.  0.
    9000005    1    3    3    0    0  0.18943696175E+02 -0.20041385293E+02  0.45636508175E+02  0.53331150631E+02  0.10000000000E+01 0.  0.
    9000005    1    3    3    0    0 -0.35609391497E+01  0.43637511023E+01 -0.77251572373E+02  0.77463075368E+02  0.10000000000E+01 0.  0.
         21    1    1    2  502  501 -0.15382757025E+02  0.15677634191E+02  0.54115575188E+01  0.22620839558E+02  0.00000000000E+00 0. -1.
<mgrwt>
<rscale>  1 0.12691579E+03</rscale>
<asrwt>0</asrwt>
<pdfrwt beam="2">  1        4 0.13816813E-01 0.12691579E+03</pdfrwt>
<pdfrwt beam="1">  1       -4 0.97855046E-02 0.12691579E+03</pdfrwt>
<totfact> 0.54973403E+03</totfact>
</mgrwt>
</event>
<event>
 6    4  0.5642870E-004  0.1330570E+03  0.7818608E-02  0.1222989E+00
         -4   -1    0    0    0  501 -0.00000000000E+00  0.00000000000E+00  0.11513160793E+02  0.11582994925E+02  0.12700000000E+01 0. -1.
          4   -1    0    0  502    0  0.00000000000E+00 -0.00000000000E+00 -0.76629410526E+03  0.76629515766E+03  0.12700000000E+01 0. -1.
         25    2    1    2    0    0 -0.85473567271E+01 -0.44793187166E+02 -0.65195287957E+03  0.66539216300E+03  0.12499874590E+03 0.  0.
    9000005    1    3    3    0    0  0.31224803167E+02 -0.75660186321E+02 -0.43905470502E+03  0.44662006910E+03  0.10000000000E+01 0.  0.
    9000005    1    3    3    0    0 -0.39772159894E+02  0.30866999156E+02 -0.21289817456E+03  0.21877209390E+03  0.10000000000E+01 0.  0.
         21    1    1    2  502  501  0.85473567271E+01  0.44793187166E+02 -0.10282806489E+03  0.11248598959E+03  0.00000000000E+00 0. -1.
<mgrwt>
<rscale>  1 0.13305703E+03</rscale>
<asrwt>0</asrwt>
<pdfrwt beam="2">  1        4 0.11789681E+00 0.13305703E+03</pdfrwt>
<pdfrwt beam="1">  1       -4 0.17767089E-02 0.13305703E+03</pdfrwt>
<totfact> 0.11654594E+03</totfact>
</mgrwt>
</event>
<event>
 6    4  0.5642870E-004  0.1416376E+03  0.7818608E-02  0.1211142E+00
          4   -1    0    0  502    0  0.00000000000E+00  0.00000000000E+00  0.39292852290E+03  0.39293057531E+03  0.12700000000E+01 0.  1.
         -4   -1    0    0    0  501 -0.00000000000E+00 -0.00000000000E+00 -0.28220045430E+02  0.28248608180E+02  0.12700000000E+01 0.  1.
         25    2    1    2    0    0 -0.43890097514E+02 -0.50098285625E+02  0.27631328553E+03  0.31049996755E+03  0.12500007682E+03 0.  0.
    9000005    1    3    3    0    0 -0.78520819003E+02 -0.65094772220E+02  0.17748256030E+03  0.20470443962E+03  0.10000000000E+01 0.  0.
    9000005    1    3    3    0    0  0.34630721489E+02  0.14996486595E+02  0.98830725230E+02  0.10579552793E+03  0.10000000000E+01 0.  0.
         21    1    1    2  502  501  0.43890097514E+02  0.50098285625E+02  0.88395191943E+02  0.11067921594E+03  0.00000000000E+00 0. -1.
<mgrwt>
<rscale>  1 0.14163756E+03</rscale>
<asrwt>0</asrwt>
<pdfrwt beam="1">  1        4 0.60452895E-01 0.14163756E+03</pdfrwt>
<pdfrwt beam="2">  1       -4 0.43439006E-02 0.14163756E+03</pdfrwt>
<totfact> 0.13026725E+03</totfact>
</mgrwt>
</event>
<event>
 6    4  0.5642870E-004  0.1274681E+03  0.7818608E-02  0.1231262E+00
         -4   -1    0    0    0  501 -0.00000000000E+00  0.00000000000E+00  0.10102014793E+04  0.10102022776E+04  0.12700000000E+01 0. -1.
          4   -1    0    0  502    0  0.00000000000E+00 -0.00000000000E+00 -0.57497375241E+01  0.58883258738E+01  0.12700000000E+01 0. -1.
         25    2    1    2    0    0 -0.15256886293E+02  0.19724897925E+02  0.87786149500E+03  0.88706760260E+03  0.12500513189E+03 0.  0.
    9000005    1    3    3    0    0 -0.36104253218E+02  0.56406828245E+02  0.73652939596E+03  0.73956865704E+03  0.10000000000E+01 0.  0.
    9000005    1    3    3    0    0  0.20847366925E+02 -0.36681930320E+02  0.14133209905E+03  0.14749894556E+03  0.10000000000E+01 0.  0.
         21    1    1    2  502  501  0.15256886293E+02 -0.19724897925E+02  0.12659024673E+03  0.12902300084E+03  0.00000000000E+00 0. -1.
<mgrwt>
<rscale>  1 0.12746814E+03</rscale>
<asrwt>0</asrwt>
<pdfrwt beam="2">  1        4 0.89529728E-03 0.12746814E+03</pdfrwt>
<pdfrwt beam="1">  1       -4 0.15542630E+00 0.12746814E+03</pdfrwt>
<totfact> 0.16458793E+03</totfact>
</mgrwt>
</event>
<event>
 6    4  0.5642870E-004  0.1272914E+03  0.7818608E-02  0.1231531E+00
         -4   -1    0    0    0  501 -0.00000000000E+00  0.00000000000E+00  0.23957394289E+01  0.27115433633E+01  0.12700000000E+01 0. -1.
          4   -1    0    0  502    0  0.00000000000E+00 -0.00000000000E+00 -0.24483356710E+04  0.24483360004E+04  0.12700000000E+01 0. -1.
         25    2    1    2    0    0  0.18173275393E+02  0.15738671169E+02 -0.17173185390E+04  0.17220296376E+04  0.12500053931E+03 0.  0.
    9000005    1    3    3    0    0  0.22814294183E+02  0.51043339427E+02 -0.15477474878E+04  0.15487573084E+04  0.10000000000E+01 0.  0.
    9000005    1    3    3    0    0 -0.46410187902E+01 -0.35304668258E+02 -0.16957105120E+03  0.17327232919E+03  0.10000000000E+01 0.  0.
         21    1    1    2  502  501 -0.18173275393E+02 -0.15738671169E+02 -0.72862139255E+03  0.72901790608E+03  0.00000000000E+00 0. -1.
<mgrwt>
<rscale>  1 0.12729143E+03</rscale>
<asrwt>0</asrwt>
<pdfrwt beam="2">  1        4 0.37668947E+00 0.12729143E+03</pdfrwt>
<pdfrwt beam="1">  1       -4 0.39289520E-03 0.12729143E+03</pdfrwt>
<totfact> 0.25576373E+02</totfact>
</mgrwt>
</event>
<event>
 6    4  0.5642870E-004  0.1313320E+03  0.7818608E-02  0.1225493E+00
         -4   -1    0    0    0  501 -0.00000000000E+00  0.00000000000E+00  0.14575813872E+02  0.14631037216E+02  0.12700000000E+01 0. -1.
          4   -1    0    0  502    0  0.00000000000E+00 -0.00000000000E+00 -0.50746973277E+03  0.50747132193E+03  0.12700000000E+01 0. -1.
         25    2    1    2    0    0 -0.26225635342E+02 -0.30568714396E+02 -0.35828913594E+03  0.38160083657E+03  0.12500345312E+03 0.  0.
    9000005    1    3    3    0    0  0.89589259208E+01 -0.58711541968E+02 -0.79754256000E+02  0.99443696955E+02  0.10000000000E+01 0.  0.
    9000005    1    3    3    0    0 -0.35184561263E+02  0.28142827572E+02 -0.27853487994E+03  0.28215713962E+03  0.10000000000E+01 0.  0.
         21    1    1    2  502  501  0.26225635342E+02  0.30568714396E+02 -0.13460478297E+03  0.14050152258E+03  0.00000000000E+00 0.  1.
<mgrwt>
<rscale>  1 0.13133200E+03</rscale>
<asrwt>0</asrwt>
<pdfrwt beam="2">  1        4 0.78076623E-01 0.13133200E+03</pdfrwt>
<pdfrwt beam="1">  1       -4 0.22468035E-02 0.13133200E+03</pdfrwt>
<totfact> 0.20810346E+03</totfact>
</mgrwt>
</event>
<event>
 6    4  0.5642870E-004  0.1275369E+03  0.7818608E-02  0.1231157E+00
         -4   -1    0    0    0  501 -0.00000000000E+00  0.00000000000E+00  0.13869282282E+02  0.13927307385E+02  0.12700000000E+01 0. -1.
          4   -1    0    0  502    0  0.00000000000E+00 -0.00000000000E+00 -0.63953116557E+03  0.63953242657E+03  0.12700000000E+01 0. -1.
         25    2    1    2    0    0 -0.14173953408E+02 -0.20938944128E+02 -0.28949396573E+03  0.31634223347E+03  0.12500524848E+03 0.  0.
    9000005    1    3    3    0    0 -0.38561657973E+02  0.32384993811E+02 -0.21864224875E+03  0.22436849651E+03  0.10000000000E+01 0.  0.
    9000005    1    3    3    0    0  0.24387704565E+02 -0.53323937939E+02 -0.70851716984E+02  0.91973736962E+02  0.10000000000E+01 0.  0.
         21    1    1    2  502  501  0.14173953408E+02  0.20938944128E+02 -0.33616791756E+03  0.33711750048E+03  0.00000000000E+00 0.  1.
<mgrwt>
<rscale>  1 0.12753687E+03</rscale>
<asrwt>0</asrwt>
<pdfrwt beam="2">  1        4 0.98393948E-01 0.12753687E+03</pdfrwt>
<pdfrwt beam="1">  1       -4 0.21382967E-02 0.12753687E+03</pdfrwt>
<totfact> 0.13271500E+03</totfact>
</mgrwt>
</event>
<event>
 6    4  0.5642870E-004  0.1315238E+03  0.7818608E-02  0.1225212E+00
          4   -1    0    0  502    0  0.00000000000E+00  0.00000000000E+00  0.13576575758E+03  0.13577169746E+03  0.12700000000E+01 0.  1.
         -4   -1    0    0    0  501 -0.00000000000E+00 -0.00000000000E+00 -0.15058345406E+03  0.15058880947E+03  0.12700000000E+01 0.  1.
         25    2    1    2    0    0 -0.38902011333E+02  0.12657188432E+02 -0.11716354324E+03  0.17614143755E+03  0.12499975701E+03 0.  0.
    9000005    1    3    3    0    0 -0.13666623633E+02 -0.11146616900E+02 -0.13566674508E+03  0.13681187591E+03  0.10000000000E+01 0.  0.
    9000005    1    3    3    0    0 -0.25235387700E+02  0.23803805331E+02  0.18503201837E+02  0.39329561641E+02  0.10000000000E+01 0.  0.
         21    1    1    2  502  501  0.38902011333E+02 -0.12657188432E+02  0.10234584676E+03  0.11021906937E+03  0.00000000000E+00 0.  1.
<mgrwt>
<rscale>  1 0.13152380E+03</rscale>
<asrwt>0</asrwt>
<pdfrwt beam="1">  1        4 0.20887909E-01 0.13152380E+03</pdfrwt>
<pdfrwt beam="2">  1       -4 0.23167554E-01 0.13152380E+03</pdfrwt>
<totfact> 0.59213020E+02</totfact>
</mgrwt>
</event>
<event>
 6    4  0.5642870E-004  0.1281929E+03  0.7818608E-02  0.1230162E+00
         -4   -1    0    0    0  501 -0.00000000000E+00  0.00000000000E+00  0.52760914287E+02  0.52776197062E+02  0.12700000000E+01 0.  1.
          4   -1    0    0  502    0  0.00000000000E+00 -0.00000000000E+00 -0.12780253215E+03  0.12780884212E+03  0.12700000000E+01 0.  1.
         25    2    1    2    0    0 -0.16685380513E+02 -0.23090813885E+02 -0.37708495710E+02  0.13362388908E+03  0.12498730126E+03 0.  0.
    9000005    1    3    3    0    0  0.29422501508E+02  0.30430123468E+02 -0.45964277365E+02  0.62493126046E+02  0.10000000000E+01 0.  0.
    9000005    1    3    3    0    0 -0.46107882021E+02 -0.53520937353E+02  0.82557816553E+01  0.71130763038E+02  0.10000000000E+01 0.  0.
         21    1    1    2  502  501  0.16685380513E+02  0.23090813885E+02 -0.37333122150E+02  0.46961150094E+02  0.00000000000E+00 0. -1.
<mgrwt>
<rscale>  1 0.12819287E+03</rscale>
<asrwt>0</asrwt>
<pdfrwt beam="2">  1        4 0.19663589E-01 0.12819287E+03</pdfrwt>
<pdfrwt beam="1">  1       -4 0.81187248E-02 0.12819287E+03</pdfrwt>
<totfact> 0.40428256E+03</totfact>
</mgrwt>
</event>
<event>
 6    4  0.5642870E-004  0.1284607E+03  0.7818608E-02  0.1229758E+00
          4   -1    0    0  502    0  0.00000000000E+00  0.00000000000E+00  0.88596320140E+02  0.88605422195E+02  0.12700000000E+01 0. -1.
         -4   -1    0    0    0  501 -0.00000000000E+00 -0.00000000000E+00 -0.76482457014E+02  0.76493000535E+02  0.12700000000E+01 0. -1.
         25    2    1    2    0    0 -0.23005628680E+02  0.18259102474E+02 -0.92290072494E+01  0.12879178573E+03  0.12505796945E+03 0.  0.
    9000005    1    3    3    0    0 -0.74913609589E+02  0.11944797152E+02 -0.11787318179E+01  0.75875664671E+02  0.10000000000E+01 0.  0.
    9000005    1    3    3    0    0  0.51907980909E+02  0.63143053221E+01 -0.80502754315E+01  0.52916121062E+02  0.10000000000E+01 0.  0.
         21    1    1    2  502  501  0.23005628680E+02 -0.18259102474E+02  0.21342870375E+02  0.36306636996E+02  0.00000000000E+00 0. -1.
<mgrwt>
<rscale>  1 0.12846069E+03</rscale>
<asrwt>0</asrwt>
<pdfrwt beam="1">  1        4 0.13631714E-01 0.12846069E+03</pdfrwt>
<pdfrwt beam="2">  1       -4 0.11768043E-01 0.12846069E+03</pdfrwt>
<totfact> 0.41305143E+03</totfact>
</mgrwt>
</event>
<event>
 6    4  0.5642870E-004  0.1309329E+03  0.7818608E-02  0.1226078E+00
         -4   -1    0    0    0  501 -0.00000000000E+00  0.00000000000E+00  0.30039688564E+02  0.30066522729E+02  0.12700000000E+01 0.  1.
          4   -1    0    0  502    0  0.00000000000E+00 -0.00000000000E+00 -0.26512247200E+03  0.26512551378E+03  0.12700000000E+01 0.  1.
         25    2    1    2    0    0  0.23109409346E+02  0.31376891878E+02 -0.21402261806E+03  0.25089661113E+03  0.12499949716E+03 0.  0.
    9000005    1    3    3    0    0  0.21551007470E+02  0.32176845154E+02 -0.19234157152E+01  0.38787817869E+02  0.10000000000E+01 0.  0.
    9000005    1    3    3    0    0  0.15584018761E+01 -0.79995327580E+00 -0.21209920235E+03  0.21210879326E+03  0.10000000000E+01 0.  0.
         21    1    1    2  502  501 -0.23109409346E+02 -0.31376891878E+02 -0.21060165369E+02  0.44295425380E+02  0.00000000000E+00 0. -1.
<mgrwt>
<rscale>  1 0.13093292E+03</rscale>
<asrwt>0</asrwt>
<pdfrwt beam="2">  1        4 0.40790369E-01 0.13093292E+03</pdfrwt>
<pdfrwt beam="1">  1       -4 0.46237889E-02 0.13093292E+03</pdfrwt>
<totfact> 0.25814240E+03</totfact>
</mgrwt>
</event>
<event>
 6    4  0.5642870E-004  0.1341286E+03  0.7818608E-02  0.1221455E+00
          4   -1    0    0  502    0  0.00000000000E+00  0.00000000000E+00  0.21607564227E+03  0.21607937449E+03  0.12700000000E+01 0. -1.
         -4   -1    0    0    0  501 -0.00000000000E+00 -0.00000000000E+00 -0.40555293412E+02  0.40575173736E+02  0.12700000000E+01 0. -1.
         25    2    1    2    0    0  0.27888767502E+02  0.39848211583E+02  0.15171235550E+03  0.20250213492E+03  0.12499925007E+03 0.  0.
    9000005    1    3    3    0    0  0.67511883842E+01  0.84272063483E+02  0.88497410743E+02  0.12239342685E+03  0.10000000000E+01 0.  0.
    9000005    1    3    3    0    0  0.21137579118E+02 -0.44423851900E+02  0.63214944754E+02  0.80108708071E+02  0.10000000000E+01 0.  0.
         21    1    1    2  502  501 -0.27888767502E+02 -0.39848211583E+02  0.23807993360E+02  0.54152413307E+02  0.00000000000E+00 0. -1.
<mgrwt>
<rscale>  1 0.13412858E+03</rscale>
<asrwt>0</asrwt>
<pdfrwt beam="1">  1        4 0.33244222E-01 0.13412858E+03</pdfrwt>
<pdfrwt beam="2">  1       -4 0.62410923E-02 0.13412858E+03</pdfrwt>
<totfact> 0.23807628E+03</totfact>
</mgrwt>
</event>
<event>
 6    4  0.5642870E-004  0.1306298E+03  0.7818608E-02  0.1226524E+00
         -4   -1    0    0    0  501 -0.00000000000E+00  0.00000000000E+00  0.15260153249E+02  0.15312908841E+02  0.12700000000E+01 0. -1.
          4   -1    0    0  502    0  0.00000000000E+00 -0.00000000000E+00 -0.46716644182E+03  0.46716816808E+03  0.12700000000E+01 0. -1.
         25    2    1    2    0    0  0.35503549311E+02 -0.13398366045E+02 -0.33489009672E+03  0.35946560073E+03  0.12499649195E+03 0.  0.
    9000005    1    3    3    0    0 -0.10029310481E+02 -0.37762957487E+02 -0.27557963425E+02  0.47823314137E+02  0.10000000000E+01 0.  0.
    9000005    1    3    3    0    0  0.45532859792E+02  0.24364591441E+02 -0.30733213330E+03  0.31164228659E+03  0.10000000000E+01 0.  0.
         21    1    1    2  502  501 -0.35503549311E+02  0.13398366045E+02 -0.11701619185E+03  0.12301547619E+03  0.00000000000E+00 0. -1.
<mgrwt>
<rscale>  1 0.13062979E+03</rscale>
<asrwt>0</asrwt>
<pdfrwt beam="2">  1        4 0.71875940E-01 0.13062979E+03</pdfrwt>
<pdfrwt beam="1">  1       -4 0.23519072E-02 0.13062979E+03</pdfrwt>
<totfact> 0.23197791E+03</totfact>
</mgrwt>
</event>
<event>
 6    4  0.5642870E-004  0.1274850E+03  0.7818608E-02  0.1231236E+00
         -4   -1    0    0    0  501 -0.00000000000E+00  0.00000000000E+00  0.34615236830E+02  0.34638526539E+02  0.12700000000E+01 0.  1.
          4   -1    0    0  502    0  0.00000000000E+00 -0.00000000000E+00 -0.19834988146E+03  0.19835394721E+03  0.12700000000E+01 0.  1.
         25    2    1    2    0    0  0.24733891400E+02  0.39309642236E+01 -0.92567814499E+02  0.15754755627E+03  0.12500085736E+03 0.  0.
    9000005    1    3    3    0    0 -0.35385791477E+02  0.11757407009E+02 -0.89353906229E+02  0.96827224562E+02  0.10000000000E+01 0.  0.
    9000005    1    3    3    0    0  0.60119682876E+02 -0.78264427853E+01 -0.32139082698E+01  0.60720331704E+02  0.10000000000E+01 0.  0.
         21    1    1    2  502  501 -0.24733891400E+02 -0.39309642236E+01 -0.71166830127E+02  0.75444917481E+02  0.00000000000E+00 0.  1.
<mgrwt>
<rscale>  1 0.12748503E+03</rscale>
<asrwt>0</asrwt>
<pdfrwt beam="2">  1        4 0.30517470E-01 0.12748503E+03</pdfrwt>
<pdfrwt beam="1">  1       -4 0.53275254E-02 0.12748503E+03</pdfrwt>
<totfact> 0.35774832E+03</totfact>
</mgrwt>
</event>
<event>
 6    4  0.5642870E-004  0.1313872E+03  0.7818608E-02  0.1225412E+00
          4   -1    0    0  502    0  0.00000000000E+00  0.00000000000E+00  0.64781532177E+01  0.66014671938E+01  0.12700000000E+01 0.  1.
         -4   -1    0    0    0  501 -0.00000000000E+00 -0.00000000000E+00 -0.12329130758E+04  0.12329137299E+04  0.12700000000E+01 0.  1.
         25    2    1    2    0    0  0.11938829795E+02 -0.38656267384E+02 -0.10656154923E+04  0.10736847662E+04  0.12500302798E+03 0.  0.
    9000005    1    3    3    0    0 -0.96845842478E+00 -0.84078442114E+02 -0.69855951507E+03  0.70360252873E+03  0.10000000000E+01 0.  0.
    9000005    1    3    3    0    0  0.12907288220E+02  0.45422174731E+02 -0.36705597723E+03  0.37008223744E+03  0.10000000000E+01 0.  0.
         21    1    1    2  502  501 -0.11938829795E+02  0.38656267384E+02 -0.16081943024E+03  0.16583043088E+03  0.00000000000E+00 0.  1.
<mgrwt>
<rscale>  1 0.13138721E+03</rscale>
<asrwt>0</asrwt>
<pdfrwt beam="1">  1        4 0.10061759E-02 0.13138721E+03</pdfrwt>
<pdfrwt beam="2">  1       -4 0.18968829E+00 0.13138721E+03</pdfrwt>
<totfact> 0.81632101E+02</totfact>
</mgrwt>
</event>
<event>
 6    4  0.5642870E-004  0.1270967E+03  0.7818608E-02  0.1231828E+00
          4   -1    0    0  502    0  0.00000000000E+00  0.00000000000E+00  0.20222506446E+03  0.20222905230E+03  0.12700000000E+01 0. -1.
         -4   -1    0    0    0  501 -0.00000000000E+00 -0.00000000000E+00 -0.29348237155E+02  0.29375702955E+02  0.12700000000E+01 0. -1.
         25    2    1    2    0    0  0.46199939845E+01  0.22517604396E+02  0.12387064639E+03  0.17747534902E+03  0.12500070248E+03 0.  0.
    9000005    1    3    3    0    0  0.12398607745E+02  0.43790311913E+02  0.14157219451E+03  0.14871113996E+03  0.10000000000E+01 0.  0.
    9000005    1    3    3    0    0 -0.77786137609E+01 -0.21272707517E+02 -0.17701548113E+02  0.28764209058E+02  0.10000000000E+01 0.  0.
         21    1    1    2  502  501 -0.46199939845E+01 -0.22517604396E+02  0.49006180914E+02  0.54129406240E+02  0.00000000000E+00 0. -1.
<mgrwt>
<rscale>  1 0.12709667E+03</rscale>
<asrwt>0</asrwt>
<pdfrwt beam="1">  1        4 0.31113967E-01 0.12709667E+03</pdfrwt>
<pdfrwt beam="2">  1       -4 0.45175330E-02 0.12709667E+03</pdfrwt>
<totfact> 0.44895449E+03</totfact>
</mgrwt>
</event>
<event>
 6    4  0.5642870E-004  0.1547708E+03  0.7818608E-02  0.1194730E+00
          4   -1    0    0  502    0  0.00000000000E+00  0.00000000000E+00  0.47741640245E+02  0.47758529220E+02  0.12700000000E+01 0.  1.
         -4   -1    0    0    0  501 -0.00000000000E+00 -0.00000000000E+00 -0.34437019254E+03  0.34437253435E+03  0.12700000000E+01 0.  1.
         25    2    1    2    0    0  0.73193535464E+01  0.90968570138E+02 -0.23719004594E+03  0.28321921973E+03  0.12500061937E+03 0.  0.
    9000005    1    3    3    0    0  0.43983649388E+02  0.80280361552E+02 -0.80389466388E+02  0.12183170429E+03  0.10000000000E+01 0.  0.
    9000005    1    3    3    0    0 -0.36664295842E+02  0.10688208586E+02 -0.15680057955E+03  0.16138751544E+03  0.10000000000E+01 0.  0.
         21    1    1    2  502  501 -0.73193535464E+01 -0.90968570138E+02 -0.59438506357E+02  0.10891184383E+03  0.00000000000E+00 0.  1.
<mgrwt>
<rscale>  1 0.15477083E+03</rscale>
<asrwt>0</asrwt>
<pdfrwt beam="1">  1        4 0.73463473E-02 0.15477083E+03</pdfrwt>
<pdfrwt beam="2">  1       -4 0.52981507E-01 0.15477083E+03</pdfrwt>
<totfact> 0.74417665E+02</totfact>
</mgrwt>
</event>
<event>
 6    4  0.5642870E-004  0.1362829E+03  0.7818608E-02  0.1218420E+00
         -4   -1    0    0    0  501 -0.00000000000E+00  0.00000000000E+00  0.18406086120E+03  0.18406524258E+03  0.12700000000E+01 0. -1.
          4   -1    0    0  502    0  0.00000000000E+00 -0.00000000000E+00 -0.10813079567E+03  0.10813825351E+03  0.12700000000E+01 0. -1.
         25    2    1    2    0    0 -0.53957011552E+02 -0.60570806035E+01  0.14850831608E+03  0.20156327448E+03  0.12499994541E+03 0.  0.
    9000005    1    3    3    0    0 -0.91404910406E+01  0.33829108320E+02 -0.62232575119E+01  0.35604579484E+02  0.10000000000E+01 0.  0.
    9000005    1    3    3    0    0 -0.44816520512E+02 -0.39886188924E+02  0.15473157359E+03  0.16595869499E+03  0.10000000000E+01 0.  0.
         21    1    1    2  502  501  0.53957011552E+02  0.60570806035E+01 -0.72578250553E+02  0.90640221615E+02  0.00000000000E+00 0. -1.
<mgrwt>
<rscale>  1 0.13628292E+03</rscale>
<asrwt>0</asrwt>
<pdfrwt beam="2">  1        4 0.16636418E-01 0.13628292E+03</pdfrwt>
<pdfrwt beam="1">  1       -4 0.28317966E-01 0.13628292E+03</pdfrwt>
<totfact> 0.61724548E+02</totfact>
</mgrwt>
</event>
<event>
 6    4  0.5642870E-004  0.1298353E+03  0.7818608E-02  0.1227700E+00
         -4   -1    0    0    0  501 -0.00000000000E+00  0.00000000000E+00  0.15142550556E+04  0.15142555881E+04  0.12700000000E+01 0.  1.
          4   -1    0    0  502    0  0.00000000000E+00 -0.00000000000E+00 -0.54039348360E+01  0.55511630954E+01  0.12700000000E+01 0.  1.
         25    2    1    2    0    0 -0.34001197102E+02  0.87002406905E+01  0.13851939323E+04  0.13912654121E+04  0.12500176594E+03 0.  0.
    9000005    1    3    3    0    0  0.40002808260E+00  0.56963821779E+02  0.37187096202E+03  0.37621011338E+03  0.10000000000E+01 0.  0.
    9000005    1    3    3    0    0 -0.34401225185E+02 -0.48263581089E+02  0.10133229702E+04  0.10150552988E+04  0.10000000000E+01 0.  0.
         21    1    1    2  502  501  0.34001197102E+02 -0.87002406905E+01  0.12365718847E+03  0.12854133908E+03  0.00000000000E+00 0.  1.
<mgrwt>
<rscale>  1 0.12983535E+03</rscale>
<asrwt>0</asrwt>
<pdfrwt beam="2">  1        4 0.84274100E-03 0.12983535E+03</pdfrwt>
<pdfrwt beam="1">  1       -4 0.23297363E+00 0.12983535E+03</pdfrwt>
<totfact> 0.58050467E+02</totfact>
</mgrwt>
</event>
<event>
 6    4  0.5642870E-004  0.1378752E+03  0.7818608E-02  0.1216217E+00
          4   -1    0    0  502    0  0.00000000000E+00  0.00000000000E+00  0.19553944338E+02  0.19595143254E+02  0.12700000000E+01 0. -1.
         -4   -1    0    0    0  501 -0.00000000000E+00 -0.00000000000E+00 -0.49083125291E+03  0.49083289594E+03  0.12700000000E+01 0. -1.
         25    2    1    2    0    0 -0.19979609782E+02  0.54623278962E+02 -0.32916348390E+03  0.35687275086E+03  0.12500669486E+03 0.  0.
    9000005    1    3    3    0    0 -0.30129481775E+02  0.43622601627E+02 -0.33616270229E+03  0.34031908476E+03  0.10000000000E+01 0.  0.
    9000005    1    3    3    0    0  0.10149871993E+02  0.11000677335E+02  0.69992183848E+01  0.16553666099E+02  0.10000000000E+01 0.  0.
         21    1    1    2  502  501  0.19979609782E+02 -0.54623278962E+02 -0.14211382467E+03  0.15355528833E+03  0.00000000000E+00 0. -1.
<mgrwt>
<rscale>  1 0.13787517E+03</rscale>
<asrwt>0</asrwt>
<pdfrwt beam="1">  1        4 0.30115950E-02 0.13787517E+03</pdfrwt>
<pdfrwt beam="2">  1       -4 0.75515787E-01 0.13787517E+03</pdfrwt>
<totfact> 0.14342907E+03</totfact>
</mgrwt>
</event>
<event>
 6    4  0.5642870E-004  0.1284189E+03  0.7818608E-02  0.1229821E+00
         -4   -1    0    0    0  501 -0.00000000000E+00  0.00000000000E+00  0.16148757596E+02  0.16198619444E+02  0.12700000000E+01 0. -1.
          4   -1    0    0  502    0  0.00000000000E+00 -0.00000000000E+00 -0.45364934537E+03  0.45365112306E+03  0.12700000000E+01 0. -1.
         25    2    1    2    0    0 -0.14319584684E+02  0.25711995247E+02 -0.26066206264E+03  0.29057893848E+03  0.12500100552E+03 0.  0.
    9000005    1    3    3    0    0 -0.11048110684E+02 -0.36943044743E+02 -0.23301744666E+02  0.45064627026E+02  0.10000000000E+01 0.  0.
    9000005    1    3    3    0    0 -0.32714740002E+01  0.62655039990E+02 -0.23736031797E+03  0.24551431145E+03  0.10000000000E+01 0.  0.
         21    1    1    2  502  501  0.14319584684E+02 -0.25711995247E+02 -0.17683852513E+03  0.17927080403E+03  0.00000000000E+00 0. -1.
<mgrwt>
<rscale>  1 0.12841888E+03</rscale>
<asrwt>0</asrwt>
<pdfrwt beam="2">  1        4 0.69796169E-01 0.12841888E+03</pdfrwt>
<pdfrwt beam="1">  1       -4 0.24883969E-02 0.12841888E+03</pdfrwt>
<totfact> 0.22556324E+03</totfact>
</mgrwt>
</event>
<event>
 6    4  0.5642870E-004  0.1273167E+03  0.7818608E-02  0.1231493E+00
          4   -1    0    0  502    0  0.00000000000E+00  0.00000000000E+00  0.16512186606E+04  0.16512191490E+04  0.12700000000E+01 0. -1.
         -4   -1    0    0    0  501 -0.00000000000E+00 -0.00000000000E+00 -0.60604765542E+01  0.61921140222E+01  0.12700000000E+01 0. -1.
         25    2    1    2    0    0  0.24042119157E+02  0.25370074719E+01  0.67208750689E+03  0.68404031490E+03  0.12500030236E+03 0.  0.
    9000005    1    3    3    0    0  0.10950592913E+02 -0.44759496890E+02  0.10302598799E+03  0.11286577094E+03  0.10000000000E+01 0.  0.
    9000005    1    3    3    0    0  0.13091526244E+02  0.47296504361E+02  0.56906151890E+03  0.57117454396E+03  0.10000000000E+01 0.  0.
         21    1    1    2  502  501 -0.24042119157E+02 -0.25370074719E+01  0.97307067715E+03  0.97337094812E+03  0.00000000000E+00 0. -1.
<mgrwt>
<rscale>  1 0.12731667E+03</rscale>
<asrwt>0</asrwt>
<pdfrwt beam="1">  1        4 0.25404396E+00 0.12731667E+03</pdfrwt>
<pdfrwt beam="2">  1       -4 0.94254394E-03 0.12731667E+03</pdfrwt>
<totfact> 0.36944854E+02</totfact>
</mgrwt>
</event>
<event>
 6    4  0.5642870E-004  0.1296939E+03  0.7818608E-02  0.1227911E+00
          4   -1    0    0  502    0  0.00000000000E+00  0.00000000000E+00  0.16250628383E+02  0.16300178614E+02  0.12700000000E+01 0. -1.
         -4   -1    0    0    0  501 -0.00000000000E+00 -0.00000000000E+00 -0.58234081594E+03  0.58234220078E+03  0.12700000000E+01 0. -1.
         25    2    1    2    0    0 -0.26308441475E+02  0.22473023836E+02 -0.53986949795E+03  0.55522930007E+03  0.12499331959E+03 0.  0.
    9000005    1    3    3    0    0  0.46863226213E+02 -0.12602009239E+00 -0.12830538005E+03  0.13659959152E+03  0.10000000000E+01 0.  0.
    9000005    1    3    3    0    0 -0.73171667688E+02  0.22599043928E+02 -0.41156411790E+03  0.41862970855E+03  0.10000000000E+01 0.  0.
         21    1    1    2  502  501  0.26308441475E+02 -0.22473023836E+02 -0.26220689602E+02  0.43413079324E+02  0.00000000000E+00 0. -1.
<mgrwt>
<rscale>  1 0.12969387E+03</rscale>
<asrwt>0</asrwt>
<pdfrwt beam="1">  1        4 0.25040152E-02 0.12969387E+03</pdfrwt>
<pdfrwt beam="2">  1       -4 0.89594797E-01 0.12969387E+03</pdfrwt>
<totfact> 0.12912949E+03</totfact>
</mgrwt>
</event>
<event>
 6    4  0.5642870E-004  0.1281329E+03  0.7818608E-02  0.1230253E+00
          4   -1    0    0  502    0  0.00000000000E+00  0.00000000000E+00  0.98654535267E+01  0.99468624846E+01  0.12700000000E+01 0.  1.
         -4   -1    0    0    0  501 -0.00000000000E+00 -0.00000000000E+00 -0.66738477211E+03  0.66738598048E+03  0.12700000000E+01 0.  1.
         25    2    1    2    0    0  0.11703507722E+02 -0.25565955527E+02 -0.59707133604E+03  0.61066539387E+03  0.12500981073E+03 0.  0.
    9000005    1    3    3    0    0  0.48434915024E+02  0.28366333200E+02 -0.37583300356E+03  0.38000267949E+03  0.10000000000E+01 0.  0.
    9000005    1    3    3    0    0 -0.36731407302E+02 -0.53932288727E+02 -0.22123833248E+03  0.23066271439E+03  0.10000000000E+01 0.  0.
         21    1    1    2  502  501 -0.11703507722E+02  0.25565955527E+02 -0.60447982544E+02  0.66667449094E+02  0.00000000000E+00 0.  1.
<mgrwt>
<rscale>  1 0.12813291E+03</rscale>
<asrwt>0</asrwt>
<pdfrwt beam="1">  1        4 0.15241178E-02 0.12813291E+03</pdfrwt>
<pdfrwt beam="2">  1       -4 0.10268090E+00 0.12813291E+03</pdfrwt>
<totfact> 0.20226943E+03</totfact>
</mgrwt>
</event>
<event>
 6    4  0.5642870E-004  0.1302344E+03  0.7818608E-02  0.1227108E+00
          4   -1    0    0  502    0  0.00000000000E+00  0.00000000000E+00  0.95658944544E+02  0.95667374644E+02  0.12700000000E+01 0. -1.
         -4   -1    0    0    0  501 -0.00000000000E+00 -0.00000000000E+00 -0.20335385301E+03  0.20335781871E+03  0.12700000000E+01 0. -1.
         25    2    1    2    0    0  0.36408319127E+02  0.31605159034E+01 -0.17754705825E+03  0.22019069969E+03  0.12500172709E+03 0.  0.
    9000005    1    3    3    0    0  0.49932147603E+02  0.35498588898E+02 -0.17455521569E+03  0.18499700674E+03  0.10000000000E+01 0.  0.
    9000005    1    3    3    0    0 -0.13523828476E+02 -0.32338072995E+02 -0.29918425603E+01  0.35193692952E+02  0.10000000000E+01 0.  0.
         21    1    1    2  502  501 -0.36408319127E+02 -0.31605159034E+01  0.69852149786E+02  0.78834493670E+02  0.00000000000E+00 0. -1.
<mgrwt>
<rscale>  1 0.13023435E+03</rscale>
<asrwt>0</asrwt>
<pdfrwt beam="1">  1        4 0.14717714E-01 0.13023435E+03</pdfrwt>
<pdfrwt beam="2">  1       -4 0.31286161E-01 0.13023435E+03</pdfrwt>
<totfact> 0.62817921E+02</totfact>
</mgrwt>
</event>
<event>
 6    4  0.5642870E-004  0.1291842E+03  0.7818608E-02  0.1228671E+00
          4   -1    0    0  502    0  0.00000000000E+00  0.00000000000E+00  0.41802313892E+03  0.41802506812E+03  0.12700000000E+01 0. -1.
         -4   -1    0    0    0  501 -0.00000000000E+00 -0.00000000000E+00 -0.15758236862E+02  0.15809330442E+02  0.12700000000E+01 0. -1.
         25    2    1    2    0    0  0.29649424091E+02 -0.13609365321E+02  0.30450207148E+03  0.33077192131E+03  0.12499699684E+03 0.  0.
    9000005    1    3    3    0    0 -0.68255949420E+01  0.46469321380E+02  0.19554359012E+03  0.20110763838E+03  0.10000000000E+01 0.  0.
    9000005    1    3    3    0    0  0.36475019033E+02 -0.60078686701E+02  0.10895848136E+03  0.12966428294E+03  0.10000000000E+01 0.  0.
         21    1    1    2  502  501 -0.29649424091E+02  0.13609365321E+02  0.97762830581E+02  0.10306247725E+03  0.00000000000E+00 0.  1.
<mgrwt>
<rscale>  1 0.12918418E+03</rscale>
<asrwt>0</asrwt>
<pdfrwt beam="1">  1        4 0.64315331E-01 0.12918418E+03</pdfrwt>
<pdfrwt beam="2">  1       -4 0.24284228E-02 0.12918418E+03</pdfrwt>
<totfact> 0.27942404E+03</totfact>
</mgrwt>
</event>
<event>
 6    4  0.5642870E-004  0.1268978E+03  0.7818608E-02  0.1232133E+00
         -4   -1    0    0    0  501 -0.00000000000E+00  0.00000000000E+00  0.34939996045E+03  0.34940226854E+03  0.12700000000E+01 0. -1.
          4   -1    0    0  502    0  0.00000000000E+00 -0.00000000000E+00 -0.21947182415E+02  0.21983896742E+02  0.12700000000E+01 0. -1.
         25    2    1    2    0    0  0.17291011931E+02 -0.13392480550E+02  0.32557925936E+03  0.34943513567E+03  0.12499888914E+03 0.  0.
    9000005    1    3    3    0    0 -0.46271343411E+01  0.38987121722E+02  0.32711144296E+02  0.51111887009E+02  0.10000000000E+01 0.  0.
    9000005    1    3    3    0    0  0.21918146273E+02 -0.52379602273E+02  0.29286811506E+03  0.29832324866E+03  0.10000000000E+01 0.  0.
         21    1    1    2  502  501 -0.17291011931E+02  0.13392480550E+02  0.18735186737E+01  0.21951029614E+02  0.00000000000E+00 0. -1.
<mgrwt>
<rscale>  1 0.12689783E+03</rscale>
<asrwt>0</asrwt>
<pdfrwt beam="2">  1        4 0.33794916E-02 0.12689783E+03</pdfrwt>
<pdfrwt beam="1">  1       -4 0.53756838E-01 0.12689783E+03</pdfrwt>
<totfact> 0.24159771E+03</totfact>
</mgrwt>
</event>
<event>
 6    4  0.5642870E-004  0.1272191E+03  0.7818608E-02  0.1231641E+00
         -4   -1    0    0    0  501 -0.00000000000E+00  0.00000000000E+00  0.10098558541E+04  0.10098566527E+04  0.12700000000E+01 0.  1.
          4   -1    0    0  502    0  0.00000000000E+00 -0.00000000000E+00 -0.57208164798E+01  0.58600888386E+01  0.12700000000E+01 0.  1.
         25    2    1    2    0    0 -0.15187331221E+02 -0.18142752468E+02  0.89867812108E+03  0.90763817869E+03  0.12499953444E+03 0.  0.
    9000005    1    3    3    0    0 -0.66973288848E+02 -0.60724045819E+01  0.64167223147E+03  0.64518721946E+03  0.10000000000E+01 0.  0.
    9000005    1    3    3    0    0  0.51785957627E+02 -0.12070347886E+02  0.25700588961E+03  0.26245095922E+03  0.10000000000E+01 0.  0.
         21    1    1    2  502  501  0.15187331221E+02  0.18142752468E+02  0.10545691651E+03  0.10807856280E+03  0.00000000000E+00 0.  1.
<mgrwt>
<rscale>  1 0.12721909E+03</rscale>
<asrwt>0</asrwt>
<pdfrwt beam="2">  1        4 0.89090109E-03 0.12721909E+03</pdfrwt>
<pdfrwt beam="1">  1       -4 0.15537308E+00 0.12721909E+03</pdfrwt>
<totfact> 0.16588267E+03</totfact>
</mgrwt>
</event>
<event>
 6    4  0.5642870E-004  0.1304007E+03  0.7818608E-02  0.1226862E+00
         -4   -1    0    0    0  501 -0.00000000000E+00  0.00000000000E+00  0.70721993005E+01  0.71853255282E+01  0.12700000000E+01 0.  1.
          4   -1    0    0  502    0  0.00000000000E+00 -0.00000000000E+00 -0.11066213475E+04  0.11066220763E+04  0.12700000000E+01 0.  1.
         25    2    1    2    0    0  0.37061543111E+02 -0.24646618354E+01 -0.66439678348E+03  0.67707268475E+03  0.12499880800E+03 0.  0.
    9000005    1    3    3    0    0 -0.36937400488E+02 -0.13379824942E+02 -0.95365986513E+02  0.10314583198E+03  0.10000000000E+01 0.  0.
    9000005    1    3    3    0    0  0.73998943600E+02  0.10915163107E+02 -0.56903079697E+03  0.57392685277E+03  0.10000000000E+01 0.  0.
         21    1    1    2  502  501 -0.37061543111E+02  0.24646618354E+01 -0.43515236474E+03  0.43673471704E+03  0.00000000000E+00 0.  1.
<mgrwt>
<rscale>  1 0.13040067E+03</rscale>
<asrwt>0</asrwt>
<pdfrwt beam="2">  1        4 0.17025806E+00 0.13040067E+03</pdfrwt>
<pdfrwt beam="1">  1       -4 0.10967896E-02 0.13040067E+03</pdfrwt>
<totfact> 0.96021902E+02</totfact>
</mgrwt>
</event>
<event>
 6    4  0.5642870E-004  0.1271164E+03  0.7818608E-02  0.1231798E+00
         -4   -1    0    0    0  501 -0.00000000000E+00  0.00000000000E+00  0.10268462995E+03  0.10269248331E+03  0.12700000000E+01 0.  1.
          4   -1    0    0  502    0  0.00000000000E+00 -0.00000000000E+00 -0.90298724867E+02  0.90307655337E+02  0.12700000000E+01 0.  1.
         25    2    1    2    0    0 -0.16224031260E+02 -0.16446912240E+02  0.59631728327E+02  0.14040842897E+03  0.12499945516E+03 0.  0.
    9000005    1    3    3    0    0  0.52107595252E+02  0.96336559073E+01  0.16580183910E+02  0.55532974957E+02  0.10000000000E+01 0.  0.
    9000005    1    3    3    0    0 -0.68331626512E+02 -0.26080568147E+02  0.43051544417E+02  0.84875454010E+02  0.10000000000E+01 0.  0.
         21    1    1    2  502  501  0.16224031260E+02  0.16446912240E+02 -0.47245823245E+02  0.52591709676E+02  0.00000000000E+00 0.  1.
<mgrwt>
<rscale>  1 0.12711642E+03</rscale>
<asrwt>0</asrwt>
<pdfrwt beam="2">  1        4 0.13893403E-01 0.12711642E+03</pdfrwt>
<pdfrwt beam="1">  1       -4 0.15798927E-01 0.12711642E+03</pdfrwt>
<totfact> 0.23961078E+03</totfact>
</mgrwt>
</event>
<event>
 6    4  0.5642870E-004  0.1279556E+03  0.7818608E-02  0.1230521E+00
          4   -1    0    0  502    0  0.00000000000E+00  0.00000000000E+00  0.25482399238E+03  0.25482715709E+03  0.12700000000E+01 0. -1.
         -4   -1    0    0    0  501 -0.00000000000E+00 -0.00000000000E+00 -0.31445624996E+02  0.31471260403E+02  0.12700000000E+01 0. -1.
         25    2    1    2    0    0  0.18432665493E+02  0.20194854271E+02  0.10714152685E+03  0.16688904436E+03  0.12500020422E+03 0.  0.
    9000005    1    3    3    0    0  0.61521106016E+01 -0.51995152046E+02  0.29275285875E+02  0.59994888651E+02  0.10000000000E+01 0.  0.
    9000005    1    3    3    0    0  0.12280554891E+02  0.72190006318E+02  0.77866240973E+02  0.10689415571E+03  0.10000000000E+01 0.  0.
         21    1    1    2  502  501 -0.18432665493E+02 -0.20194854271E+02  0.11623684053E+03  0.11940937314E+03  0.00000000000E+00 0.  1.
<mgrwt>
<rscale>  1 0.12795564E+03</rscale>
<asrwt>0</asrwt>
<pdfrwt beam="1">  1        4 0.39205905E-01 0.12795564E+03</pdfrwt>
<pdfrwt beam="2">  1       -4 0.48400040E-02 0.12795564E+03</pdfrwt>
<totfact> 0.25794690E+03</totfact>
</mgrwt>
</event>
<event>
 6    4  0.5642870E-004  0.1318246E+03  0.7818608E-02  0.1224773E+00
          4   -1    0    0  502    0  0.00000000000E+00  0.00000000000E+00  0.10101130569E+03  0.10101928913E+03  0.12700000000E+01 0.  1.
         -4   -1    0    0    0  501 -0.00000000000E+00 -0.00000000000E+00 -0.79178302027E+02  0.79188486612E+02  0.12700000000E+01 0.  1.
         25    2    1    2    0    0 -0.35082328318E+01  0.41728296697E+02 -0.23606212445E+01  0.13184570456E+03  0.12499663530E+03 0.  0.
    9000005    1    3    3    0    0  0.45212754577E+02 -0.65498652579E+01 -0.33352474285E+02  0.56572797812E+02  0.10000000000E+01 0.  0.
    9000005    1    3    3    0    0 -0.48720987409E+02  0.48278161955E+02  0.30991853040E+02  0.75272906751E+02  0.10000000000E+01 0.  0.
         21    1    1    2  502  501  0.35082328318E+01 -0.41728296697E+02  0.24193624902E+02  0.48362071179E+02  0.00000000000E+00 0.  1.
<mgrwt>
<rscale>  1 0.13182457E+03</rscale>
<asrwt>0</asrwt>
<pdfrwt beam="1">  1        4 0.15541598E-01 0.13182457E+03</pdfrwt>
<pdfrwt beam="2">  1       -4 0.12182675E-01 0.13182457E+03</pdfrwt>
<totfact> 0.31188536E+03</totfact>
</mgrwt>
</event>
<event>
 6    4  0.5642870E-004  0.1373485E+03  0.7818608E-02  0.1216942E+00
         -4   -1    0    0    0  501 -0.00000000000E+00  0.00000000000E+00  0.73917143021E+03  0.73917252123E+03  0.12700000000E+01 0. -1.
          4   -1    0    0  502    0  0.00000000000E+00 -0.00000000000E+00 -0.15132599885E+02  0.15185798605E+02  0.12700000000E+01 0. -1.
         25    2    1    2    0    0 -0.41177382356E+02 -0.39299690711E+02  0.62690878238E+03  0.64177817628E+03  0.12499825448E+03 0.  0.
    9000005    1    3    3    0    0 -0.85277906435E+02 -0.25460009603E+02  0.35627485103E+03  0.36722377767E+03  0.10000000000E+01 0.  0.
    9000005    1    3    3    0    0  0.44100524079E+02 -0.13839681109E+02  0.27063393135E+03  0.27455439861E+03  0.10000000000E+01 0.  0.
         21    1    1    2  502  501  0.41177382356E+02  0.39299690711E+02  0.97130047950E+02  0.11258014355E+03  0.00000000000E+00 0. -1.
<mgrwt>
<rscale>  1 0.13734848E+03</rscale>
<asrwt>0</asrwt>
<pdfrwt beam="2">  1        4 0.23322681E-02 0.13734848E+03</pdfrwt>
<pdfrwt beam="1">  1       -4 0.11372287E+00 0.13734848E+03</pdfrwt>
<totfact> 0.84008997E+02</totfact>
</mgrwt>
</event>
<event>
 6    4  0.5642870E-004  0.1295974E+03  0.7818608E-02  0.1228054E+00
          4   -1    0    0  502    0  0.00000000000E+00  0.00000000000E+00  0.52870071496E+03  0.52870224030E+03  0.12700000000E+01 0.  1.
         -4   -1    0    0    0  501 -0.00000000000E+00 -0.00000000000E+00 -0.12685683084E+02  0.12749096254E+02  0.12700000000E+01 0.  1.
         25    2    1    2    0    0 -0.22834775420E+02 -0.25462093024E+02  0.39682209149E+03  0.41744850518E+03  0.12500294812E+03 0.  0.
    9000005    1    3    3    0    0  0.21343141756E+02 -0.30855296404E+02  0.30307497264E+02  0.48240267480E+02  0.10000000000E+01 0.  0.
    9000005    1    3    3    0    0 -0.44177917176E+02  0.53932033799E+01  0.36651459422E+03  0.36920823770E+03  0.10000000000E+01 0.  0.
         21    1    1    2  502  501  0.22834775420E+02  0.25462093024E+02  0.11919294039E+03  0.12400283137E+03  0.00000000000E+00 0.  1.
<mgrwt>
<rscale>  1 0.12959738E+03</rscale>
<asrwt>0</asrwt>
<pdfrwt beam="1">  1        4 0.81343585E-01 0.12959738E+03</pdfrwt>
<pdfrwt beam="2">  1       -4 0.19566384E-02 0.12959738E+03</pdfrwt>
<totfact> 0.23455568E+03</totfact>
</mgrwt>
</event>
<event>
 6    4  0.5642870E-004  0.1289979E+03  0.7818608E-02  0.1228950E+00
          4   -1    0    0  502    0  0.00000000000E+00  0.00000000000E+00  0.13312413259E+03  0.13313019033E+03  0.12700000000E+01 0. -1.
         -4   -1    0    0    0  501 -0.00000000000E+00 -0.00000000000E+00 -0.48754990055E+02  0.48771528121E+02  0.12700000000E+01 0. -1.
         25    2    1    2    0    0 -0.31823261165E+02 -0.15596004162E+01  0.63191006201E+02  0.14364383347E+03  0.12500118129E+03 0.  0.
    9000005    1    3    3    0    0 -0.22781296124E+02  0.49633005127E+02  0.72551069637E+02  0.90813437092E+02  0.10000000000E+01 0.  0.
    9000005    1    3    3    0    0 -0.90419650406E+01 -0.51192605543E+02 -0.93600634359E+01  0.52830396379E+02  0.10000000000E+01 0.  0.
         21    1    1    2  502  501  0.31823261165E+02  0.15596004162E+01  0.21178136334E+02  0.38257884981E+02  0.00000000000E+00 0. -1.
<mgrwt>
<rscale>  1 0.12899786E+03</rscale>
<asrwt>0</asrwt>
<pdfrwt beam="1">  1        4 0.20482374E-01 0.12899786E+03</pdfrwt>
<pdfrwt beam="2">  1       -4 0.75025059E-02 0.12899786E+03</pdfrwt>
<totfact> 0.42868433E+03</totfact>
</mgrwt>
</event>
<event>
 6    4  0.5642870E-004  0.1355264E+03  0.7818608E-02  0.1219479E+00
          4   -1    0    0  502    0  0.00000000000E+00  0.00000000000E+00  0.80720538187E+02  0.80730528211E+02  0.12700000000E+01 0. -1.
         -4   -1    0    0    0  501 -0.00000000000E+00 -0.00000000000E+00 -0.14186420563E+03  0.14186989017E+03  0.12700000000E+01 0. -1.
         25    2    1    2    0    0  0.49359980265E+02  0.17476848972E+02 -0.90120521798E+02  0.16275473357E+03  0.12500218778E+03 0.  0.
    9000005    1    3    3    0    0  0.32380830615E+02 -0.52263213992E+02 -0.26961533075E+02  0.67140792323E+02  0.10000000000E+01 0.  0.
    9000005    1    3    3    0    0  0.16979149650E+02  0.69740062964E+02 -0.63158988723E+02  0.95613941251E+02  0.10000000000E+01 0.  0.
         21    1    1    2  502  501 -0.49359980265E+02 -0.17476848972E+02  0.28976854360E+02  0.59845684810E+02  0.00000000000E+00 0. -1.
<mgrwt>
<rscale>  1 0.13552636E+03</rscale>
<asrwt>0</asrwt>
<pdfrwt beam="1">  1        4 0.12419750E-01 0.13552636E+03</pdfrwt>
<pdfrwt beam="2">  1       -4 0.21826468E-01 0.13552636E+03</pdfrwt>
<totfact> 0.16574185E+03</totfact>
</mgrwt>
</event>
<event>
 6    4  0.5642870E-004  0.1271636E+03  0.7818608E-02  0.1231726E+00
         -4   -1    0    0    0  501 -0.00000000000E+00  0.00000000000E+00  0.40102964368E+01  0.42065873949E+01  0.12700000000E+01 0.  1.
          4   -1    0    0  502    0  0.00000000000E+00 -0.00000000000E+00 -0.13885141904E+04  0.13885147712E+04  0.12700000000E+01 0.  1.
         25    2    1    2    0    0  0.21704953970E+02  0.88726729199E+01 -0.11267364623E+04  0.11338896021E+04  0.12498297841E+03 0.  0.
    9000005    1    3    3    0    0  0.45737580425E+02 -0.47216798584E+02 -0.53988373137E+03  0.54387203984E+03  0.10000000000E+01 0.  0.
    9000005    1    3    3    0    0 -0.24032626455E+02  0.56089471504E+02 -0.58685273098E+03  0.59001756228E+03  0.10000000000E+01 0.  0.
         21    1    1    2  502  501 -0.21704953970E+02 -0.88726729199E+01 -0.25776743164E+03  0.25883175648E+03  0.00000000000E+00 0.  1.
<mgrwt>
<rscale>  1 0.12716357E+03</rscale>
<asrwt>0</asrwt>
<pdfrwt beam="2">  1        4 0.21363234E+00 0.12716357E+03</pdfrwt>
<pdfrwt beam="1">  1       -4 0.63211377E-03 0.12716357E+03</pdfrwt>
<totfact> 0.11558935E+03</totfact>
</mgrwt>
</event>
<event>
 6    4  0.5642870E-004  0.1269152E+03  0.7818608E-02  0.1232106E+00
         -4   -1    0    0    0  501 -0.00000000000E+00  0.00000000000E+00  0.94903787560E+02  0.94912284733E+02  0.12700000000E+01 0. -1.
          4   -1    0    0  502    0  0.00000000000E+00 -0.00000000000E+00 -0.85032956000E+02  0.85042439441E+02  0.12700000000E+01 0. -1.
         25    2    1    2    0    0  0.21579392439E+02 -0.43068515911E+01  0.48198622310E+02  0.13575926408E+03  0.12499300558E+03 0.  0.
    9000005    1    3    3    0    0 -0.35174588414E+02 -0.38270168608E+02  0.46248330462E+02  0.69582796336E+02  0.10000000000E+01 0.  0.
    9000005    1    3    3    0    0  0.56753980853E+02  0.33963317017E+02  0.19502918479E+01  0.66176467749E+02  0.10000000000E+01 0.  0.
         21    1    1    2  502  501 -0.21579392439E+02  0.43068515911E+01 -0.38327790750E+02  0.44195460089E+02  0.00000000000E+00 0. -1.
<mgrwt>
<rscale>  1 0.12691521E+03</rscale>
<asrwt>0</asrwt>
<pdfrwt beam="2">  1        4 0.13083376E-01 0.12691521E+03</pdfrwt>
<pdfrwt beam="1">  1       -4 0.14601966E-01 0.12691521E+03</pdfrwt>
<totfact> 0.30486639E+03</totfact>
</mgrwt>
</event>
<event>
 6    4  0.5642870E-004  0.1313905E+03  0.7818608E-02  0.1225407E+00
          4   -1    0    0  502    0  0.00000000000E+00  0.00000000000E+00  0.66901755129E+02  0.66913808286E+02  0.12700000000E+01 0.  1.
         -4   -1    0    0    0  501 -0.00000000000E+00 -0.00000000000E+00 -0.11768901634E+03  0.11769586852E+03  0.12700000000E+01 0.  1.
         25    2    1    2    0    0  0.40325592462E+02  0.35431309537E+01 -0.57771800151E+02  0.14353059493E+03  0.12499897441E+03 0.  0.
    9000005    1    3    3    0    0  0.73722204808E+02  0.35843757543E+02 -0.21987349698E+02  0.84877452738E+02  0.10000000000E+01 0.  0.
    9000005    1    3    3    0    0 -0.33396612346E+02 -0.32300626590E+02 -0.35784450452E+02  0.58653142188E+02  0.10000000000E+01 0.  0.
         21    1    1    2  502  501 -0.40325592462E+02 -0.35431309537E+01  0.69845389366E+01  0.41079081885E+02  0.00000000000E+00 0. -1.
<mgrwt>
<rscale>  1 0.13139045E+03</rscale>
<asrwt>0</asrwt>
<pdfrwt beam="1">  1        4 0.10294032E-01 0.13139045E+03</pdfrwt>
<pdfrwt beam="2">  1       -4 0.18107457E-01 0.13139045E+03</pdfrwt>
<totfact> 0.31687791E+03</totfact>
</mgrwt>
</event>
<event>
 6    4  0.5642870E-004  0.1347681E+03  0.7818608E-02  0.1220547E+00
         -4   -1    0    0    0  501 -0.00000000000E+00  0.00000000000E+00  0.32766972889E+02  0.32791575325E+02  0.12700000000E+01 0. -1.
          4   -1    0    0  502    0  0.00000000000E+00 -0.00000000000E+00 -0.26286201935E+03  0.26286508729E+03  0.12700000000E+01 0. -1.
         25    2    1    2    0    0  0.37944087431E+02 -0.33135654886E+02 -0.15739979793E+03  0.20721275636E+03  0.12499881844E+03 0.  0.
    9000005    1    3    3    0    0  0.36482292441E+01 -0.51435373840E+02 -0.72161887420E+01  0.52076680372E+02  0.10000000000E+01 0.  0.
    9000005    1    3    3    0    0  0.34295858187E+02  0.18299718953E+02 -0.15018360919E+03  0.15513607599E+03  0.10000000000E+01 0.  0.
         21    1    1    2  502  501 -0.37944087431E+02  0.33135654886E+02 -0.72695248528E+02  0.88443906258E+02  0.00000000000E+00 0. -1.
<mgrwt>
<rscale>  1 0.13476806E+03</rscale>
<asrwt>0</asrwt>
<pdfrwt beam="2">  1        4 0.40442438E-01 0.13476806E+03</pdfrwt>
<pdfrwt beam="1">  1       -4 0.50432014E-02 0.13476806E+03</pdfrwt>
<totfact> 0.22992889E+03</totfact>
</mgrwt>
</event>
<event>
 6    4  0.5642870E-004  0.1266002E+03  0.7818608E-02  0.1232589E+00
          4   -1    0    0  502    0  0.00000000000E+00  0.00000000000E+00  0.95270795267E+03  0.95270879915E+03  0.12700000000E+01 0.  1.
         -4   -1    0    0    0  501 -0.00000000000E+00 -0.00000000000E+00 -0.11855609143E+02  0.11923437765E+02  0.12700000000E+01 0.  1.
         25    2    1    2    0    0 -0.19657905373E+02  0.39879036500E+01  0.33000498984E+03  0.35345564531E+03  0.12500105305E+03 0.  0.
    9000005    1    3    3    0    0  0.33668711691E+02 -0.18091329896E+02  0.25964956323E+03  0.26244956477E+03  0.10000000000E+01 0.  0.
    9000005    1    3    3    0    0 -0.53326617064E+02  0.22079233546E+02  0.70355426608E+02  0.91006080537E+02  0.10000000000E+01 0.  0.
         21    1    1    2  502  501  0.19657905373E+02 -0.39879036500E+01  0.61084735368E+03  0.61117659160E+03  0.00000000000E+00 0.  1.
<mgrwt>
<rscale>  1 0.12660016E+03</rscale>
<asrwt>0</asrwt>
<pdfrwt beam="1">  1        4 0.14657572E+00 0.12660016E+03</pdfrwt>
<pdfrwt beam="2">  1       -4 0.18292228E-02 0.12660016E+03</pdfrwt>
<totfact> 0.64623710E+02</totfact>
</mgrwt>
</event>
<event>
 6    4  0.5642870E-004  0.1273147E+03  0.7818608E-02  0.1231496E+00
          4   -1    0    0  502    0  0.00000000000E+00  0.00000000000E+00  0.29668764849E+03  0.29669036665E+03  0.12700000000E+01 0.  1.
         -4   -1    0    0    0  501 -0.00000000000E+00 -0.00000000000E+00 -0.19457425045E+02  0.19498827898E+02  0.12700000000E+01 0.  1.
         25    2    1    2    0    0 -0.22133038896E+02 -0.96968656192E+01  0.24235259808E+03  0.27375867058E+03  0.12500050923E+03 0.  0.
    9000005    1    3    3    0    0 -0.95410973677E+01  0.55400717606E+02  0.74907198334E+02  0.93660879840E+02  0.10000000000E+01 0.  0.
    9000005    1    3    3    0    0 -0.12591941528E+02 -0.65097583225E+02  0.16744539975E+03  0.18009779074E+03  0.10000000000E+01 0.  0.
         21    1    1    2  502  501  0.22133038896E+02  0.96968656192E+01  0.34877625361E+02  0.42430523971E+02  0.00000000000E+00 0.  1.
<mgrwt>
<rscale>  1 0.12731468E+03</rscale>
<asrwt>0</asrwt>
<pdfrwt beam="1">  1        4 0.45647649E-01 0.12731468E+03</pdfrwt>
<pdfrwt beam="2">  1       -4 0.29968438E-02 0.12731468E+03</pdfrwt>
<totfact> 0.40696397E+03</totfact>
</mgrwt>
</event>
<event>
 6    4  0.5642870E-004  0.1284137E+03  0.7818608E-02  0.1229829E+00
          4   -1    0    0  502    0  0.00000000000E+00  0.00000000000E+00  0.62218288904E+02  0.62231249178E+02  0.12700000000E+01 0.  1.
         -4   -1    0    0    0  501 -0.00000000000E+00 -0.00000000000E+00 -0.39178179904E+03  0.39178385745E+03  0.12700000000E+01 0.  1.
         25    2    1    2    0    0  0.12382224682E+02 -0.26706292870E+02 -0.37695378593E+03  0.39822636398E+03  0.12499413855E+03 0.  0.
    9000005    1    3    3    0    0  0.30097883437E+02  0.45016604924E+02 -0.17449158211E+03  0.18270383010E+03  0.10000000000E+01 0.  0.
    9000005    1    3    3    0    0 -0.17715658755E+02 -0.71722897793E+02 -0.20246220382E+03  0.21552253388E+03  0.10000000000E+01 0.  0.
         21    1    1    2  502  501 -0.12382224682E+02  0.26706292870E+02  0.47390275793E+02  0.55788742652E+02  0.00000000000E+00 0.  1.
<mgrwt>
<rscale>  1 0.12841371E+03</rscale>
<asrwt>0</asrwt>
<pdfrwt beam="1">  1        4 0.95732000E-02 0.12841371E+03</pdfrwt>
<pdfrwt beam="2">  1       -4 0.60275277E-01 0.12841371E+03</pdfrwt>
<totfact> 0.35337356E+02</totfact>
</mgrwt>
</event>
<event>
 6    4  0.5642870E-004  0.1443743E+03  0.7818608E-02  0.1207561E+00
          4   -1    0    0  502    0  0.00000000000E+00  0.00000000000E+00  0.10038030398E+04  0.10038038431E+04  0.12700000000E+01 0.  1.
         -4   -1    0    0    0  501 -0.00000000000E+00 -0.00000000000E+00 -0.11657366599E+02  0.11726341971E+02  0.12700000000E+01 0.  1.
         25    2    1    2    0    0 -0.17631875216E+02  0.70058125525E+02  0.67233558103E+03  0.68766204242E+03  0.12499970834E+03 0.  0.
    9000005    1    3    3    0    0 -0.69221061202E+02  0.40221923441E+02  0.29606832558E+03  0.30670313310E+03  0.10000000000E+01 0.  0.
    9000005    1    3    3    0    0  0.51589185987E+02  0.29836202084E+02  0.37626725545E+03  0.38095890932E+03  0.10000000000E+01 0.  0.
         21    1    1    2  502  501  0.17631875216E+02 -0.70058125525E+02  0.31981009212E+03  0.32786814270E+03  0.00000000000E+00 0.  1.
<mgrwt>
<rscale>  1 0.14437434E+03</rscale>
<asrwt>0</asrwt>
<pdfrwt beam="1">  1        4 0.15443664E+00 0.14437434E+03</pdfrwt>
<pdfrwt beam="2">  1       -4 0.17988082E-02 0.14437434E+03</pdfrwt>
<totfact> 0.59518313E+02</totfact>
</mgrwt>
</event>
<event>
 6    4  0.5642870E-004  0.1331106E+03  0.7818608E-02  0.1222912E+00
         -4   -1    0    0    0  501 -0.00000000000E+00  0.00000000000E+00  0.54728765857E+03  0.54728913210E+03  0.12700000000E+01 0. -1.
          4   -1    0    0  502    0  0.00000000000E+00 -0.00000000000E+00 -0.14940040360E+02  0.14993922301E+02  0.12700000000E+01 0. -1.
         25    2    1    2    0    0 -0.22169874795E+02 -0.40026044698E+02  0.43096366260E+03  0.45105224008E+03  0.12499942876E+03 0.  0.
    9000005    1    3    3    0    0 -0.12197601451E+02  0.13446056685E+02  0.36541953482E+03  0.36587158177E+03  0.10000000000E+01 0.  0.
    9000005    1    3    3    0    0 -0.99722733444E+01 -0.53472101383E+02  0.65544127787E+02  0.85180658305E+02  0.10000000000E+01 0.  0.
         21    1    1    2  502  501  0.22169874795E+02  0.40026044698E+02  0.10138395560E+03  0.11123081433E+03  0.00000000000E+00 0.  1.
<mgrwt>
<rscale>  1 0.13311065E+03</rscale>
<asrwt>0</asrwt>
<pdfrwt beam="2">  1        4 0.23027262E-02 0.13311065E+03</pdfrwt>
<pdfrwt beam="1">  1       -4 0.84202347E-01 0.13311065E+03</pdfrwt>
<totfact> 0.16998840E+03</totfact>
</mgrwt>
</event>
<event>
 6    4  0.5642870E-004  0.1272517E+03  0.7818608E-02  0.1231592E+00
          4   -1    0    0  502    0  0.00000000000E+00  0.00000000000E+00  0.72440532355E+01  0.73545365101E+01  0.12700000000E+01 0. -1.
         -4   -1    0    0    0  501 -0.00000000000E+00 -0.00000000000E+00 -0.82850404326E+03  0.82850501664E+03  0.12700000000E+01 0. -1.
         25    2    1    2    0    0 -0.15051996650E+02 -0.18501265942E+02 -0.74987527854E+03  0.76059577382E+03  0.12499655335E+03 0.  0.
    9000005    1    3    3    0    0 -0.24269229362E+02  0.13283917963E+02 -0.70108745118E+03  0.70163385906E+03  0.10000000000E+01 0.  0.
    9000005    1    3    3    0    0  0.92172327115E+01 -0.31785183905E+02 -0.48787827357E+02  0.58961914766E+02  0.10000000000E+01 0.  0.
         21    1    1    2  502  501  0.15051996650E+02  0.18501265942E+02 -0.71384711481E+02  0.75263779323E+02  0.00000000000E+00 0.  1.
<mgrwt>
<rscale>  1 0.12725171E+03</rscale>
<asrwt>0</asrwt>
<pdfrwt beam="1">  1        4 0.11230440E-02 0.12725171E+03</pdfrwt>
<pdfrwt beam="2">  1       -4 0.12747066E+00 0.12725171E+03</pdfrwt>
<totfact> 0.19197870E+03</totfact>
</mgrwt>
</event>
<event>
 6    4  0.5642870E-004  0.1265959E+03  0.7818608E-02  0.1232596E+00
         -4   -1    0    0    0  501 -0.00000000000E+00  0.00000000000E+00  0.76160680524E+01  0.77212299913E+01  0.12700000000E+01 0.  1.
          4   -1    0    0  502    0  0.00000000000E+00 -0.00000000000E+00 -0.76832064159E+03  0.76832169121E+03  0.12700000000E+01 0.  1.
         25    2    1    2    0    0  0.12739046440E+02  0.15479737017E+02 -0.54975027319E+03  0.56413817280E+03  0.12499843829E+03 0.  0.
    9000005    1    3    3    0    0  0.26458251057E+01  0.53619486481E+02 -0.10782763912E+03  0.12045683658E+03  0.10000000000E+01 0.  0.
    9000005    1    3    3    0    0  0.10093221334E+02 -0.38139749464E+02 -0.44192263407E+03  0.44368133622E+03  0.10000000000E+01 0.  0.
         21    1    1    2  502  501 -0.12739046440E+02 -0.15479737017E+02 -0.21095430034E+03  0.21190474840E+03  0.00000000000E+00 0.  1.
<mgrwt>
<rscale>  1 0.12659587E+03</rscale>
<asrwt>0</asrwt>
<pdfrwt beam="2">  1        4 0.11821128E+00 0.12659587E+03</pdfrwt>
<pdfrwt beam="1">  1       -4 0.11798735E-02 0.12659587E+03</pdfrwt>
<totfact> 0.21354484E+03</totfact>
</mgrwt>
</event>
<event>
 6    4  0.5642870E-004  0.1289430E+03  0.7818608E-02  0.1229033E+00
          4   -1    0    0  502    0  0.00000000000E+00  0.00000000000E+00  0.55000331985E+02  0.55014992670E+02  0.12700000000E+01 0.  1.
         -4   -1    0    0    0  501 -0.00000000000E+00 -0.00000000000E+00 -0.12300671966E+03  0.12301327563E+03  0.12700000000E+01 0.  1.
         25    2    1    2    0    0  0.21812515181E+02 -0.22919525954E+02 -0.69253432238E+02  0.14636368858E+03  0.12500080388E+03 0.  0.
    9000005    1    3    3    0    0  0.52470262656E+02  0.35093964539E+02 -0.37895921340E+02  0.73632979462E+02  0.10000000000E+01 0.  0.
    9000005    1    3    3    0    0 -0.30657747475E+02 -0.58013490492E+02 -0.31357510898E+02  0.72730709120E+02  0.10000000000E+01 0.  0.
         21    1    1    2  502  501 -0.21812515181E+02  0.22919525954E+02  0.12470445651E+01  0.31664579716E+02  0.00000000000E+00 0.  1.
<mgrwt>
<rscale>  1 0.12894298E+03</rscale>
<asrwt>0</asrwt>
<pdfrwt beam="1">  1        4 0.84632216E-02 0.12894298E+03</pdfrwt>
<pdfrwt beam="2">  1       -4 0.18925743E-01 0.12894298E+03</pdfrwt>
<totfact> 0.40467117E+03</totfact>
</mgrwt>
</event>
<event>
 6    4  0.5642870E-004  0.1284516E+03  0.7818608E-02  0.1229771E+00
         -4   -1    0    0    0  501 -0.00000000000E+00  0.00000000000E+00  0.10011578782E+03  0.10012384267E+03  0.12700000000E+01 0.  1.
          4   -1    0    0  502    0  0.00000000000E+00 -0.00000000000E+00 -0.62661987945E+02  0.62674856468E+02  0.12700000000E+01 0.  1.
         25    2    1    2    0    0  0.19617968294E+02 -0.22181542094E+02  0.34715573243E+02  0.13306011520E+03  0.12499175069E+03 0.  0.
    9000005    1    3    3    0    0 -0.19976716105E+02  0.22681227187E+02 -0.31596814517E+02  0.43736322899E+02  0.10000000000E+01 0.  0.
    9000005    1    3    3    0    0  0.39594684398E+02 -0.44862769281E+02  0.66312387760E+02  0.89323792299E+02  0.10000000000E+01 0.  0.
         21    1    1    2  502  501 -0.19617968294E+02  0.22181542094E+02  0.27382266328E+01  0.29738583940E+02  0.00000000000E+00 0.  1.
<mgrwt>
<rscale>  1 0.12845164E+03</rscale>
<asrwt>0</asrwt>
<pdfrwt beam="2">  1        4 0.96419155E-02 0.12845164E+03</pdfrwt>
<pdfrwt beam="1">  1       -4 0.15404038E-01 0.12845164E+03</pdfrwt>
<totfact> 0.46785709E+03</totfact>
</mgrwt>
</event>
<event>
 6    4  0.5642870E-004  0.1265795E+03  0.7818608E-02  0.1232621E+00
         -4   -1    0    0    0  501 -0.00000000000E+00  0.00000000000E+00  0.46254659308E+02  0.46272091024E+02  0.12700000000E+01 0. -1.
          4   -1    0    0  502    0  0.00000000000E+00 -0.00000000000E+00 -0.18208467245E+03  0.18208910138E+03  0.12700000000E+01 0. -1.
         25    2    1    2    0    0  0.18160563152E+02  0.87835309240E+01 -0.43488355935E+02  0.13384168053E+03  0.12496160160E+03 0.  0.
    9000005    1    3    3    0    0 -0.27020188580E+02 -0.45734080971E+02 -0.32226262031E+02  0.62138785936E+02  0.10000000000E+01 0.  0.
    9000005    1    3    3    0    0  0.45180751732E+02  0.54517611895E+02 -0.11262093904E+02  0.71702894592E+02  0.10000000000E+01 0.  0.
         21    1    1    2  502  501 -0.18160563152E+02 -0.87835309240E+01 -0.92341657206E+02  0.94519511875E+02  0.00000000000E+00 0. -1.
<mgrwt>
<rscale>  1 0.12657945E+03</rscale>
<asrwt>0</asrwt>
<pdfrwt beam="2">  1        4 0.28014708E-01 0.12657945E+03</pdfrwt>
<pdfrwt beam="1">  1       -4 0.71177831E-02 0.12657945E+03</pdfrwt>
<totfact> 0.26192188E+03</totfact>
</mgrwt>
</event>
<event>
 6    4  0.5642870E-004  0.1279690E+03  0.7818608E-02  0.1230501E+00
          4   -1    0    0  502    0  0.00000000000E+00  0.00000000000E+00  0.30353298220E+02  0.30379855378E+02  0.12700000000E+01 0. -1.
         -4   -1    0    0    0  501 -0.00000000000E+00 -0.00000000000E+00 -0.20366143160E+03  0.20366539132E+03  0.12700000000E+01 0. -1.
         25    2    1    2    0    0  0.26098926382E+02  0.83239782653E+01 -0.15543605938E+03  0.20133663007E+03  0.12500250990E+03 0.  0.
    9000005    1    3    3    0    0  0.37368764779E+02 -0.47812438816E+02 -0.11865733904E+03  0.13327797265E+03  0.10000000000E+01 0.  0.
    9000005    1    3    3    0    0 -0.11269838397E+02  0.56136417081E+02 -0.36778720339E+02  0.68058657421E+02  0.10000000000E+01 0.  0.
         21    1    1    2  502  501 -0.26098926382E+02 -0.83239782653E+01 -0.17872074008E+02  0.32708616629E+02  0.00000000000E+00 0.  1.
<mgrwt>
<rscale>  1 0.12796902E+03</rscale>
<asrwt>0</asrwt>
<pdfrwt beam="1">  1        4 0.46720858E-02 0.12796902E+03</pdfrwt>
<pdfrwt beam="2">  1       -4 0.31334874E-01 0.12796902E+03</pdfrwt>
<totfact> 0.42049900E+03</totfact>
</mgrwt>
</event>
<event>
 6    4  0.5642870E-004  0.1293587E+03  0.7818608E-02  0.1228410E+00
          4   -1    0    0  502    0  0.00000000000E+00  0.00000000000E+00  0.40783141792E+02  0.40802911103E+02  0.12700000000E+01 0.  1.
         -4   -1    0    0    0  501 -0.00000000000E+00 -0.00000000000E+00 -0.46478948655E+03  0.46479122163E+03  0.12700000000E+01 0.  1.
         25    2    1    2    0    0 -0.27659663392E+02  0.18527165096E+02 -0.44686421182E+03  0.46521103092E+03  0.12500146661E+03 0.  0.
    9000005    1    3    3    0    0 -0.35285331164E+02  0.77222341170E+01 -0.26925543113E+02  0.45062982225E+02  0.10000000000E+01 0.  0.
    9000005    1    3    3    0    0  0.76256677711E+01  0.10804930979E+02 -0.41993866871E+03  0.42014804869E+03  0.10000000000E+01 0.  0.
         21    1    1    2  502  501  0.27659663392E+02 -0.18527165096E+02  0.22857867067E+02  0.40383101817E+02  0.00000000000E+00 0. -1.
<mgrwt>
<rscale>  1 0.12935872E+03</rscale>
<asrwt>0</asrwt>
<pdfrwt beam="1">  1        4 0.62759840E-02 0.12935872E+03</pdfrwt>
<pdfrwt beam="2">  1       -4 0.71507725E-01 0.12935872E+03</pdfrwt>
<totfact> 0.49386481E+02</totfact>
</mgrwt>
</event>
<event>
 6    4  0.5642870E-004  0.1542515E+03  0.7818608E-02  0.1195344E+00
          4   -1    0    0  502    0  0.00000000000E+00  0.00000000000E+00  0.37527300700E+02  0.37548784239E+02  0.12700000000E+01 0.  1.
         -4   -1    0    0    0  501 -0.00000000000E+00 -0.00000000000E+00 -0.49918506204E+03  0.49918667757E+03  0.12700000000E+01 0.  1.
         25    2    1    2    0    0  0.76129702606E+02  0.48713095658E+02 -0.39612007371E+03  0.42509368734E+03  0.12499933163E+03 0.  0.
    9000005    1    3    3    0    0  0.64122999506E+02  0.88242331570E+02 -0.24054557118E+03  0.26412428886E+03  0.10000000000E+01 0.  0.
    9000005    1    3    3    0    0  0.12006703100E+02 -0.39529235913E+02 -0.15557450253E+03  0.16096939849E+03  0.10000000000E+01 0.  0.
         21    1    1    2  502  501 -0.76129702606E+02 -0.48713095658E+02 -0.65537687628E+02  0.11164177447E+03  0.00000000000E+00 0.  1.
<mgrwt>
<rscale>  1 0.15425152E+03</rscale>
<asrwt>0</asrwt>
<pdfrwt beam="1">  1        4 0.57752081E-02 0.15425152E+03</pdfrwt>
<pdfrwt beam="2">  1       -4 0.76799474E-01 0.15425152E+03</pdfrwt>
<totfact> 0.50038573E+02</totfact>
</mgrwt>
</event>
<event>
 6    4  0.5642870E-004  0.1295439E+03  0.7818608E-02  0.1228134E+00
          4   -1    0    0  502    0  0.00000000000E+00  0.00000000000E+00  0.20459837011E+03  0.20460231169E+03  0.12700000000E+01 0.  1.
         -4   -1    0    0    0  501 -0.00000000000E+00 -0.00000000000E+00 -0.42732371181E+02  0.42751239125E+02  0.12700000000E+01 0.  1.
         25    2    1    2    0    0 -0.85312435757E+01 -0.32914015776E+02  0.65493190170E+02  0.14515847844E+03  0.12500204539E+03 0.  0.
    9000005    1    3    3    0    0 -0.33895965207E+02 -0.39972465370E+02 -0.19689031543E+02  0.55994574810E+02  0.10000000000E+01 0.  0.
    9000005    1    3    3    0    0  0.25364721632E+02  0.70584495932E+01  0.85182221714E+02  0.89163903628E+02  0.10000000000E+01 0.  0.
         21    1    1    2  502  501  0.85312435757E+01  0.32914015776E+02  0.96372808756E+02  0.10219507238E+03  0.00000000000E+00 0.  1.
<mgrwt>
<rscale>  1 0.12954391E+03</rscale>
<asrwt>0</asrwt>
<pdfrwt beam="1">  1        4 0.31478427E-01 0.12954391E+03</pdfrwt>
<pdfrwt beam="2">  1       -4 0.65759655E-02 0.12954391E+03</pdfrwt>
<totfact> 0.24066469E+03</totfact>
</mgrwt>
</event>
<event>
 6    4  0.5642870E-004  0.1292150E+03  0.7818608E-02  0.1228625E+00
          4   -1    0    0  502    0  0.00000000000E+00  0.00000000000E+00  0.10343201293E+02  0.10420878705E+02  0.12700000000E+01 0.  1.
         -4   -1    0    0    0  501 -0.00000000000E+00 -0.00000000000E+00 -0.63196687015E+03  0.63196814625E+03  0.12700000000E+01 0.  1.
         25    2    1    2    0    0  0.20967276268E+02  0.25173465879E+02 -0.49047778603E+03  0.50721294481E+03  0.12499273074E+03 0.  0.
    9000005    1    3    3    0    0 -0.13733281203E+02  0.67683243275E+02 -0.19986637836E+03  0.21146440275E+03  0.10000000000E+01 0.  0.
    9000005    1    3    3    0    0  0.34700557471E+02 -0.42509777396E+02 -0.29061140767E+03  0.29574854206E+03  0.10000000000E+01 0.  0.
         21    1    1    2  502  501 -0.20967276268E+02 -0.25173465879E+02 -0.13114588283E+03  0.13517608014E+03  0.00000000000E+00 0.  1.
<mgrwt>
<rscale>  1 0.12921499E+03</rscale>
<asrwt>0</asrwt>
<pdfrwt beam="1">  1        4 0.15973356E-02 0.12921499E+03</pdfrwt>
<pdfrwt beam="2">  1       -4 0.97231715E-01 0.12921499E+03</pdfrwt>
<totfact> 0.21398969E+03</totfact>
</mgrwt>
</event>
<event>
 6    4  0.5642870E-004  0.1307188E+03  0.7818608E-02  0.1226393E+00
         -4   -1    0    0    0  501 -0.00000000000E+00  0.00000000000E+00  0.44329121046E+02  0.44347309644E+02  0.12700000000E+01 0.  1.
          4   -1    0    0  502    0  0.00000000000E+00 -0.00000000000E+00 -0.22861017198E+03  0.22861369957E+03  0.12700000000E+01 0.  1.
         25    2    1    2    0    0 -0.31690108430E+02  0.21374719043E+02 -0.61681607179E+02  0.14454074136E+03  0.12500505455E+03 0.  0.
    9000005    1    3    3    0    0  0.14580767227E+02  0.83153532614E+01  0.33733638158E+02  0.37692203652E+02  0.10000000000E+01 0.  0.
    9000005    1    3    3    0    0 -0.46270875656E+02  0.13059365782E+02 -0.95415245337E+02  0.10684853771E+03  0.10000000000E+01 0.  0.
         21    1    1    2  502  501  0.31690108430E+02 -0.21374719043E+02 -0.12259944375E+03  0.12842026785E+03  0.00000000000E+00 0.  1.
<mgrwt>
<rscale>  1 0.13071880E+03</rscale>
<asrwt>0</asrwt>
<pdfrwt beam="2">  1        4 0.35172465E-01 0.13071880E+03</pdfrwt>
<pdfrwt beam="1">  1       -4 0.68215354E-02 0.13071880E+03</pdfrwt>
<totfact> 0.18365822E+03</totfact>
</mgrwt>
</event>
<event>
 6    4  0.5642870E-004  0.1302137E+03  0.7818608E-02  0.1227139E+00
          4   -1    0    0  502    0  0.00000000000E+00  0.00000000000E+00  0.14735793067E+03  0.14736340330E+03  0.12700000000E+01 0. -1.
         -4   -1    0    0    0  501 -0.00000000000E+00 -0.00000000000E+00 -0.11118793042E+03  0.11119518321E+03  0.12700000000E+01 0. -1.
         25    2    1    2    0    0  0.33982666520E+02  0.13242136565E+02 -0.68914075494E+02  0.14732532359E+03  0.12500170145E+03 0.  0.
    9000005    1    3    3    0    0  0.74087332778E+02 -0.21461615063E+02 -0.42367853973E+02  0.88008913466E+02  0.10000000000E+01 0.  0.
    9000005    1    3    3    0    0 -0.40104666258E+02  0.34703751628E+02 -0.26546221521E+02  0.59316410122E+02  0.10000000000E+01 0.  0.
         21    1    1    2  502  501 -0.33982666520E+02 -0.13242136565E+02  0.10508407575E+03  0.11123326292E+03  0.00000000000E+00 0. -1.
<mgrwt>
<rscale>  1 0.13021368E+03</rscale>
<asrwt>0</asrwt>
<pdfrwt beam="1">  1        4 0.22671430E-01 0.13021368E+03</pdfrwt>
<pdfrwt beam="2">  1       -4 0.17106814E-01 0.13021368E+03</pdfrwt>
<totfact> 0.87823340E+02</totfact>
</mgrwt>
</event>
<event>
 6    4  0.5642870E-004  0.1306737E+03  0.7818608E-02  0.1226459E+00
          4   -1    0    0  502    0  0.00000000000E+00  0.00000000000E+00  0.69662160079E+03  0.69662275844E+03  0.12700000000E+01 0.  1.
         -4   -1    0    0    0  501 -0.00000000000E+00 -0.00000000000E+00 -0.10244431962E+02  0.10322852621E+02  0.12700000000E+01 0.  1.
         25    2    1    2    0    0  0.27295492126E+01  0.38070590602E+02  0.50874779032E+03  0.52526177464E+03  0.12497518731E+03 0.  0.
    9000005    1    3    3    0    0 -0.21154841852E+02  0.67554701008E+02  0.44850353102E+03  0.45405680515E+03  0.10000000000E+01 0.  0.
    9000005    1    3    3    0    0  0.23884391065E+02 -0.29484110406E+02  0.60244259296E+02  0.71204969497E+02  0.10000000000E+01 0.  0.
         21    1    1    2  502  501 -0.27295492126E+01 -0.38070590602E+02  0.17762937851E+03  0.18168383642E+03  0.00000000000E+00 0.  1.
<mgrwt>
<rscale>  1 0.13067371E+03</rscale>
<asrwt>0</asrwt>
<pdfrwt beam="1">  1        4 0.10717868E+00 0.13067371E+03</pdfrwt>
<pdfrwt beam="2">  1       -4 0.15821879E-02 0.13067371E+03</pdfrwt>
<totfact> 0.17362371E+03</totfact>
</mgrwt>
</event>
<event>
 6    4  0.5642870E-004  0.1483707E+03  0.7818608E-02  0.1202489E+00
          4   -1    0    0  502    0  0.00000000000E+00  0.00000000000E+00  0.99585403795E+02  0.99593501540E+02  0.12700000000E+01 0. -1.
         -4   -1    0    0    0  501 -0.00000000000E+00 -0.00000000000E+00 -0.15477630487E+03  0.15478151520E+03  0.12700000000E+01 0. -1.
         25    2    1    2    0    0 -0.41302629233E+01  0.79831069059E+02  0.13492594418E+02  0.14898298093E+03  0.12499527929E+03 0.  0.
    9000005    1    3    3    0    0  0.14833662649E+01  0.10165205911E+03 -0.24702778471E+02  0.10462585130E+03  0.10000000000E+01 0.  0.
    9000005    1    3    3    0    0 -0.56136291882E+01 -0.21820990046E+02  0.38195372890E+02  0.44357129635E+02  0.10000000000E+01 0.  0.
         21    1    1    2  502  501  0.41302629233E+01 -0.79831069059E+02 -0.68683495489E+02  0.10539203581E+03  0.00000000000E+00 0. -1.
<mgrwt>
<rscale>  1 0.14837075E+03</rscale>
<asrwt>0</asrwt>
<pdfrwt beam="1">  1        4 0.15321855E-01 0.14837075E+03</pdfrwt>
<pdfrwt beam="2">  1       -4 0.23812763E-01 0.14837075E+03</pdfrwt>
<totfact> 0.10009288E+03</totfact>
</mgrwt>
</event>
<event>
 6    4  0.5642870E-004  0.1265962E+03  0.7818608E-02  0.1232596E+00
         -4   -1    0    0    0  501 -0.00000000000E+00  0.00000000000E+00  0.22340515295E+03  0.22340876273E+03  0.12700000000E+01 0. -1.
          4   -1    0    0  502    0  0.00000000000E+00 -0.00000000000E+00 -0.24494609878E+02  0.24527511351E+02  0.12700000000E+01 0. -1.
         25    2    1    2    0    0  0.94654691358E+01  0.17673125073E+02  0.18205114209E+03  0.22174135363E+03  0.12499870047E+03 0.  0.
    9000005    1    3    3    0    0 -0.46376570763E+02  0.16535372519E+01  0.14637801526E+03  0.15356120556E+03  0.10000000000E+01 0.  0.
    9000005    1    3    3    0    0  0.55842039898E+02  0.16019587821E+02  0.35673126829E+02  0.68180148077E+02  0.10000000000E+01 0.  0.
         21    1    1    2  502  501 -0.94654691358E+01 -0.17673125073E+02  0.16859400991E+02  0.26194920454E+02  0.00000000000E+00 0. -1.
<mgrwt>
<rscale>  1 0.12659625E+03</rscale>
<asrwt>0</asrwt>
<pdfrwt beam="2">  1        4 0.37712101E-02 0.12659625E+03</pdfrwt>
<pdfrwt beam="1">  1       -4 0.34372832E-01 0.12659625E+03</pdfrwt>
<totfact> 0.49404182E+03</totfact>
</mgrwt>
</event>
<event>
 6    4  0.5642870E-004  0.1418743E+03  0.7818608E-02  0.1210829E+00
         -4   -1    0    0    0  501 -0.00000000000E+00  0.00000000000E+00  0.49034976277E+02  0.49051419944E+02  0.12700000000E+01 0.  1.
          4   -1    0    0  502    0  0.00000000000E+00 -0.00000000000E+00 -0.24341376907E+03  0.24341708213E+03  0.12700000000E+01 0.  1.
         25    2    1    2    0    0 -0.41724441992E+02 -0.52556728817E+02 -0.88814879192E+02  0.16738101806E+03  0.12500073454E+03 0.  0.
    9000005    1    3    3    0    0  0.26772858782E+02  0.13952350706E+02 -0.60777323548E+02  0.67870001586E+02  0.10000000000E+01 0.  0.
    9000005    1    3    3    0    0 -0.68497300773E+02 -0.66509079523E+02 -0.28037555644E+02  0.99511016469E+02  0.10000000000E+01 0.  0.
         21    1    1    2  502  501  0.41724441992E+02  0.52556728817E+02 -0.10556391360E+03  0.12508748402E+03  0.00000000000E+00 0.  1.
<mgrwt>
<rscale>  1 0.14187432E+03</rscale>
<asrwt>0</asrwt>
<pdfrwt beam="2">  1        4 0.37449791E-01 0.14187432E+03</pdfrwt>
<pdfrwt beam="1">  1       -4 0.75453624E-02 0.14187432E+03</pdfrwt>
<totfact> 0.14023530E+03</totfact>
</mgrwt>
</event>
<event>
 6    4  0.5642870E-004  0.1266544E+03  0.7818608E-02  0.1232506E+00
          4   -1    0    0  502    0  0.00000000000E+00  0.00000000000E+00  0.54616541577E+02  0.54631305255E+02  0.12700000000E+01 0.  1.
         -4   -1    0    0    0  501 -0.00000000000E+00 -0.00000000000E+00 -0.99224863266E+02  0.99232990433E+02  0.12700000000E+01 0.  1.
         25    2    1    2    0    0 -0.18618196346E+02  0.83228325398E+01 -0.41204244081E+02  0.13318835506E+03  0.12500176565E+03 0.  0.
    9000005    1    3    3    0    0  0.28606433952E+01 -0.46262663502E+02  0.18098630867E+02  0.49769245064E+02  0.10000000000E+01 0.  0.
    9000005    1    3    3    0    0 -0.21478839741E+02  0.54585496042E+02 -0.59302874948E+02  0.83419109992E+02  0.10000000000E+01 0.  0.
         21    1    1    2  502  501  0.18618196346E+02 -0.83228325398E+01 -0.34040776078E+01  0.20675940632E+02  0.00000000000E+00 0. -1.
<mgrwt>
<rscale>  1 0.12665444E+03</rscale>
<asrwt>0</asrwt>
<pdfrwt beam="1">  1        4 0.84043057E-02 0.12665444E+03</pdfrwt>
<pdfrwt beam="2">  1       -4 0.15267124E-01 0.12665444E+03</pdfrwt>
<totfact> 0.59554497E+03</totfact>
</mgrwt>
</event>
<event>
 6    4  0.5642870E-004  0.1280542E+03  0.7818608E-02  0.1230372E+00
         -4   -1    0    0    0  501 -0.00000000000E+00  0.00000000000E+00  0.23512233908E+03  0.23512576897E+03  0.12700000000E+01 0.  1.
          4   -1    0    0  502    0  0.00000000000E+00 -0.00000000000E+00 -0.27309542955E+02  0.27339056977E+02  0.12700000000E+01 0.  1.
         25    2    1    2    0    0  0.27614642353E+02  0.32021566970E+01  0.19107135963E+03  0.23001335486E+03  0.12500022666E+03 0.  0.
    9000005    1    3    3    0    0  0.73679213459E+02  0.49695137987E+01  0.15420398290E+03  0.17097716487E+03  0.10000000000E+01 0.  0.
    9000005    1    3    3    0    0 -0.46064571105E+02 -0.17673571017E+01  0.36867376725E+02  0.59036189993E+02  0.10000000000E+01 0.  0.
         21    1    1    2  502  501 -0.27614642353E+02 -0.32021566970E+01  0.16741436497E+02  0.32451471088E+02  0.00000000000E+00 0. -1.
<mgrwt>
<rscale>  1 0.12805420E+03</rscale>
<asrwt>0</asrwt>
<pdfrwt beam="2">  1        4 0.42040022E-02 0.12805420E+03</pdfrwt>
<pdfrwt beam="1">  1       -4 0.36175202E-01 0.12805420E+03</pdfrwt>
<totfact> 0.37788495E+03</totfact>
</mgrwt>
</event>
<event>
 6    4  0.5642870E-004  0.1364987E+03  0.7818608E-02  0.1218119E+00
          4   -1    0    0  502    0  0.00000000000E+00  0.00000000000E+00  0.12525699243E+02  0.12589918249E+02  0.12700000000E+01 0. -1.
         -4   -1    0    0    0  501 -0.00000000000E+00 -0.00000000000E+00 -0.76347221618E+03  0.76347327247E+03  0.12700000000E+01 0. -1.
         25    2    1    2    0    0 -0.53588232409E+02  0.11632184321E+02 -0.60365370242E+03  0.61889392028E+03  0.12499954296E+03 0.  0.
    9000005    1    3    3    0    0 -0.58048967211E+02 -0.23869316611E+02 -0.55474909519E+03  0.55828933851E+03  0.10000000000E+01 0.  0.
    9000005    1    3    3    0    0  0.44607348015E+01  0.35501500932E+02 -0.48904607229E+02  0.60604581771E+02  0.10000000000E+01 0.  0.
         21    1    1    2  502  501  0.53588232409E+02 -0.11632184321E+02 -0.14729281451E+03  0.15716927044E+03  0.00000000000E+00 0. -1.
<mgrwt>
<rscale>  1 0.13649869E+03</rscale>
<asrwt>0</asrwt>
<pdfrwt beam="1">  1        4 0.19320524E-02 0.13649869E+03</pdfrwt>
<pdfrwt beam="2">  1       -4 0.11746225E+00 0.13649869E+03</pdfrwt>
<totfact> 0.10391521E+03</totfact>
</mgrwt>
</event>
<event>
 6    4  0.5642870E-004  0.1330000E+03  0.7818608E-02  0.1223071E+00
          4   -1    0    0  502    0  0.00000000000E+00  0.00000000000E+00  0.92192204394E+02  0.92200951464E+02  0.12700000000E+01 0.  1.
         -4   -1    0    0    0  501 -0.00000000000E+00 -0.00000000000E+00 -0.10036687323E+03  0.10037490793E+03  0.12700000000E+01 0.  1.
         25    2    1    2    0    0 -0.32863666203E+02  0.31312373763E+02 -0.37926492409E+02  0.13830195855E+03  0.12501410962E+03 0.  0.
    9000005    1    3    3    0    0 -0.17794110069E+02  0.30665810427E+02  0.43133945967E+02  0.55844064832E+02  0.10000000000E+01 0.  0.
    9000005    1    3    3    0    0 -0.15069556133E+02  0.64656333638E+00 -0.81060438375E+02  0.82457893714E+02  0.10000000000E+01 0.  0.
         21    1    1    2  502  501  0.32863666203E+02 -0.31312373763E+02  0.29751823575E+02  0.54273900846E+02  0.00000000000E+00 0.  1.
<mgrwt>
<rscale>  1 0.13300005E+03</rscale>
<asrwt>0</asrwt>
<pdfrwt beam="1">  1        4 0.14184707E-01 0.13300005E+03</pdfrwt>
<pdfrwt beam="2">  1       -4 0.15442348E-01 0.13300005E+03</pdfrwt>
<totfact> 0.24314772E+03</totfact>
</mgrwt>
</event>
<event>
 6    4  0.5642870E-004  0.1333829E+03  0.7818608E-02  0.1222521E+00
         -4   -1    0    0    0  501 -0.00000000000E+00  0.00000000000E+00  0.22640724117E+03  0.22641080309E+03  0.12700000000E+01 0.  1.
          4   -1    0    0  502    0  0.00000000000E+00 -0.00000000000E+00 -0.41249444057E+02  0.41268989993E+02  0.12700000000E+01 0.  1.
         25    2    1    2    0    0  0.38620245506E+02 -0.25962782055E+02  0.17502033909E+03  0.22005251655E+03  0.12500160610E+03 0.  0.
    9000005    1    3    3    0    0  0.16208027758E+02 -0.65654079108E+02  0.15714453720E+03  0.17108057703E+03  0.10000000000E+01 0.  0.
    9000005    1    3    3    0    0  0.22412217748E+02  0.39691297053E+02  0.17875801897E+02  0.48971939512E+02  0.10000000000E+01 0.  0.
         21    1    1    2  502  501 -0.38620245506E+02  0.25962782055E+02  0.10137458021E+02  0.47627276535E+02  0.00000000000E+00 0.  1.
<mgrwt>
<rscale>  1 0.13338287E+03</rscale>
<asrwt>0</asrwt>
<pdfrwt beam="2">  1        4 0.63478459E-02 0.13338287E+03</pdfrwt>
<pdfrwt beam="1">  1       -4 0.34833661E-01 0.13338287E+03</pdfrwt>
<totfact> 0.21144130E+03</totfact>
</mgrwt>
</event>
<event>
 6    4  0.5642870E-004  0.1291127E+03  0.7818608E-02  0.1228778E+00
          4   -1    0    0  502    0  0.00000000000E+00  0.00000000000E+00  0.10466646789E+03  0.10467417256E+03  0.12700000000E+01 0.  1.
         -4   -1    0    0    0  501 -0.00000000000E+00 -0.00000000000E+00 -0.62545474589E+02  0.62558367079E+02  0.12700000000E+01 0.  1.
         25    2    1    2    0    0 -0.36058056309E+01  0.32131283753E+02  0.28941369919E+02  0.13231658766E+03  0.12499862098E+03 0.  0.
    9000005    1    3    3    0    0  0.13007118419E+02  0.45016307423E+02 -0.39136049690E+02  0.61059671215E+02  0.10000000000E+01 0.  0.
    9000005    1    3    3    0    0 -0.16612924050E+02 -0.12885023670E+02  0.68077419609E+02  0.71256916444E+02  0.10000000000E+01 0.  0.
         21    1    1    2  502  501  0.36058056309E+01 -0.32131283753E+02  0.13179623381E+02  0.34915951975E+02  0.00000000000E+00 0. -1.
<mgrwt>
<rscale>  1 0.12911265E+03</rscale>
<asrwt>0</asrwt>
<pdfrwt beam="1">  1        4 0.16104118E-01 0.12911265E+03</pdfrwt>
<pdfrwt beam="2">  1       -4 0.96239652E-02 0.12911265E+03</pdfrwt>
<totfact> 0.43471337E+03</totfact>
</mgrwt>
</event>
<event>
 6    4  0.5642870E-004  0.1326183E+03  0.7818608E-02  0.1223622E+00
         -4   -1    0    0    0  501 -0.00000000000E+00  0.00000000000E+00  0.18547117696E+02  0.18590547997E+02  0.12700000000E+01 0.  1.
          4   -1    0    0  502    0  0.00000000000E+00 -0.00000000000E+00 -0.46115257515E+03  0.46115432392E+03  0.12700000000E+01 0.  1.
         25    2    1    2    0    0  0.40698700787E+02  0.17537307556E+02 -0.26037587015E+03  0.29220403931E+03  0.12499466162E+03 0.  0.
    9000005    1    3    3    0    0  0.63143001953E+01  0.54065511668E+02 -0.22323500965E+03  0.22977776105E+03  0.10000000000E+01 0.  0.
    9000005    1    3    3    0    0  0.34384400592E+02 -0.36528204112E+02 -0.37140860500E+02  0.62426278268E+02  0.10000000000E+01 0.  0.
         21    1    1    2  502  501 -0.40698700787E+02 -0.17537307556E+02 -0.18222958731E+03  0.18754083260E+03  0.00000000000E+00 0. -1.
<mgrwt>
<rscale>  1 0.13261827E+03</rscale>
<asrwt>0</asrwt>
<pdfrwt beam="2">  1        4 0.70950017E-01 0.13261827E+03</pdfrwt>
<pdfrwt beam="1">  1       -4 0.28568784E-02 0.13261827E+03</pdfrwt>
<totfact> 0.17690976E+03</totfact>
</mgrwt>
</event>
<event>
 6    4  0.5642870E-004  0.1344092E+03  0.7818608E-02  0.1221056E+00
         -4   -1    0    0    0  501 -0.00000000000E+00  0.00000000000E+00  0.21671174495E+02  0.21708355626E+02  0.12700000000E+01 0. -1.
          4   -1    0    0  502    0  0.00000000000E+00 -0.00000000000E+00 -0.43304102698E+03  0.43304288927E+03  0.12700000000E+01 0. -1.
         25    2    1    2    0    0 -0.39346754102E+02 -0.29852158153E+02 -0.35613843881E+03  0.38065787501E+03  0.12500604707E+03 0.  0.
    9000005    1    3    3    0    0 -0.80038728545E+02 -0.11751880259E+02 -0.28880105265E+03  0.29991891032E+03  0.10000000000E+01 0.  0.
    9000005    1    3    3    0    0  0.40691974443E+02 -0.18100277894E+02 -0.67337386165E+02  0.80738964692E+02  0.10000000000E+01 0.  0.
         21    1    1    2  502  501  0.39346754102E+02  0.29852158153E+02 -0.55231413672E+02  0.74093369885E+02  0.00000000000E+00 0. -1.
<mgrwt>
<rscale>  1 0.13440919E+03</rscale>
<asrwt>0</asrwt>
<pdfrwt beam="2">  1        4 0.66624693E-01 0.13440919E+03</pdfrwt>
<pdfrwt beam="1">  1       -4 0.33370305E-02 0.13440919E+03</pdfrwt>
<totfact> 0.15920254E+03</totfact>
</mgrwt>
</event>
<event>
 6    4  0.5642870E-004  0.1268379E+03  0.7818608E-02  0.1232225E+00
         -4   -1    0    0    0  501 -0.00000000000E+00  0.00000000000E+00  0.79880400548E+01  0.80883671972E+01  0.12700000000E+01 0.  1.
          4   -1    0    0  502    0  0.00000000000E+00 -0.00000000000E+00 -0.83936406755E+03  0.83936502833E+03  0.12700000000E+01 0.  1.
         25    2    1    2    0    0 -0.18956305078E+02 -0.10163071046E+02 -0.51658839270E+03  0.53193178846E+03  0.12500092231E+03 0.  0.
    9000005    1    3    3    0    0 -0.63881699261E+02  0.26172602136E+02 -0.28385565595E+03  0.29213166555E+03  0.10000000000E+01 0.  0.
    9000005    1    3    3    0    0  0.44925394183E+02 -0.36335673183E+02 -0.23273273676E+03  0.23980012291E+03  0.10000000000E+01 0.  0.
         21    1    1    2  502  501  0.18956305078E+02  0.10163071046E+02 -0.31478763479E+03  0.31552160708E+03  0.00000000000E+00 0.  1.
<mgrwt>
<rscale>  1 0.12683793E+03</rscale>
<asrwt>0</asrwt>
<pdfrwt beam="2">  1        4 0.12914066E+00 0.12683793E+03</pdfrwt>
<pdfrwt beam="1">  1       -4 0.12367213E-02 0.12683793E+03</pdfrwt>
<totfact> 0.16065413E+03</totfact>
</mgrwt>
</event>
<event>
 6    4  0.5642870E-004  0.1279620E+03  0.7818608E-02  0.1230512E+00
         -4   -1    0    0    0  501 -0.00000000000E+00  0.00000000000E+00  0.22069557185E+03  0.22069922595E+03  0.12700000000E+01 0.  1.
          4   -1    0    0  502    0  0.00000000000E+00 -0.00000000000E+00 -0.31671927946E+02  0.31697380330E+02  0.12700000000E+01 0.  1.
         25    2    1    2    0    0  0.25737728959E+02  0.93447640299E+01  0.18466928460E+03  0.22467088263E+03  0.12499802207E+03 0.  0.
    9000005    1    3    3    0    0  0.61247463185E+02  0.35676940712E+02  0.15763984475E+03  0.17284506501E+03  0.10000000000E+01 0.  0.
    9000005    1    3    3    0    0 -0.35509734225E+02 -0.26332176682E+02  0.27029439843E+02  0.51825817618E+02  0.10000000000E+01 0.  0.
         21    1    1    2  502  501 -0.25737728959E+02 -0.93447640299E+01  0.43543593065E+01  0.27725723647E+02  0.00000000000E+00 0.  1.
<mgrwt>
<rscale>  1 0.12796195E+03</rscale>
<asrwt>0</asrwt>
<pdfrwt beam="2">  1        4 0.48748432E-02 0.12796195E+03</pdfrwt>
<pdfrwt beam="1">  1       -4 0.33955404E-01 0.12796195E+03</pdfrwt>
<totfact> 0.33699673E+03</totfact>
</mgrwt>
</event>
<event>
 6    4  0.5642870E-004  0.1325051E+03  0.7818608E-02  0.1223785E+00
          4   -1    0    0  502    0  0.00000000000E+00  0.00000000000E+00  0.66902060375E+02  0.66914113477E+02  0.12700000000E+01 0. -1.
         -4   -1    0    0    0  501 -0.00000000000E+00 -0.00000000000E+00 -0.14538042674E+03  0.14538597380E+03  0.12700000000E+01 0. -1.
         25    2    1    2    0    0 -0.30596816383E+02 -0.31556972373E+02 -0.97393969400E+02  0.16444815193E+03  0.12500240685E+03 0.  0.
    9000005    1    3    3    0    0 -0.62101069740E+02 -0.57630019902E+02 -0.88630462784E+02  0.12261370637E+03  0.10000000000E+01 0.  0.
    9000005    1    3    3    0    0  0.31504253357E+02  0.26073047528E+02 -0.87635066164E+01  0.41834445559E+02  0.10000000000E+01 0.  0.
         21    1    1    2  502  501  0.30596816383E+02  0.31556972373E+02  0.18915603039E+02  0.47851935347E+02  0.00000000000E+00 0. -1.
<mgrwt>
<rscale>  1 0.13250513E+03</rscale>
<asrwt>0</asrwt>
<pdfrwt beam="1">  1        4 0.10293979E-01 0.13250513E+03</pdfrwt>
<pdfrwt beam="2">  1       -4 0.22367573E-01 0.13250513E+03</pdfrwt>
<totfact> 0.21709919E+03</totfact>
</mgrwt>
</event>
<event>
 6    4  0.5642870E-004  0.1273315E+03  0.7818608E-02  0.1231470E+00
         -4   -1    0    0    0  501 -0.00000000000E+00  0.00000000000E+00  0.51958222340E+02  0.51973741146E+02  0.12700000000E+01 0. -1.
          4   -1    0    0  502    0  0.00000000000E+00 -0.00000000000E+00 -0.13956874580E+03  0.13957452383E+03  0.12700000000E+01 0. -1.
         25    2    1    2    0    0  0.18670874116E+02  0.15545375853E+02 -0.32640339671E+02  0.13144850328E+03  0.12499222772E+03 0.  0.
    9000005    1    3    3    0    0 -0.25439303484E+02  0.27291933383E+02 -0.65367563682E+02  0.75272346657E+02  0.10000000000E+01 0.  0.
    9000005    1    3    3    0    0  0.44110177600E+02 -0.11746557530E+02  0.32727224011E+02  0.56176156625E+02  0.10000000000E+01 0.  0.
         21    1    1    2  502  501 -0.18670874116E+02 -0.15545375853E+02 -0.54970183787E+02  0.60099761698E+02  0.00000000000E+00 0.  1.
<mgrwt>
<rscale>  1 0.12733152E+03</rscale>
<asrwt>0</asrwt>
<pdfrwt beam="2">  1        4 0.21473753E-01 0.12733152E+03</pdfrwt>
<pdfrwt beam="1">  1       -4 0.79952109E-02 0.12733152E+03</pdfrwt>
<totfact> 0.35323232E+03</totfact>
</mgrwt>
</event>
<event>
 6    4  0.5642870E-004  0.1301083E+03  0.7818608E-02  0.1227295E+00
          4   -1    0    0  502    0  0.00000000000E+00  0.00000000000E+00  0.25214488833E+02  0.25246452169E+02  0.12700000000E+01 0.  1.
         -4   -1    0    0    0  501 -0.00000000000E+00 -0.00000000000E+00 -0.32232085860E+03  0.32232336060E+03  0.12700000000E+01 0.  1.
         25    2    1    2    0    0 -0.17330394803E+02 -0.31698246313E+02 -0.27745015294E+03  0.30644210601E+03  0.12499222202E+03 0.  0.
    9000005    1    3    3    0    0  0.30408887456E+02 -0.43311077015E+02 -0.23686826199E+03  0.24270995729E+03  0.10000000000E+01 0.  0.
    9000005    1    3    3    0    0 -0.47739282259E+02  0.11612830703E+02 -0.40581890956E+02  0.63732148725E+02  0.10000000000E+01 0.  0.
         21    1    1    2  502  501  0.17330394803E+02  0.31698246313E+02 -0.19656216821E+02  0.41127706756E+02  0.00000000000E+00 0.  1.
<mgrwt>
<rscale>  1 0.13010833E+03</rscale>
<asrwt>0</asrwt>
<pdfrwt beam="1">  1        4 0.38818035E-02 0.13010833E+03</pdfrwt>
<pdfrwt beam="2">  1       -4 0.49590473E-01 0.13010833E+03</pdfrwt>
<totfact> 0.23030553E+03</totfact>
</mgrwt>
</event>
<event>
 6    4  0.5642870E-004  0.1288758E+03  0.7818608E-02  0.1229133E+00
         -4   -1    0    0    0  501 -0.00000000000E+00  0.00000000000E+00  0.42212008973E+03  0.42212200020E+03  0.12700000000E+01 0. -1.
          4   -1    0    0  502    0  0.00000000000E+00 -0.00000000000E+00 -0.26081111534E+02  0.26112014071E+02  0.12700000000E+01 0. -1.
         25    2    1    2    0    0  0.16923802020E+02 -0.26401618384E+02  0.39644998388E+03  0.41687114684E+03  0.12500201128E+03 0.  0.
    9000005    1    3    3    0    0  0.30141297387E+02 -0.65573348321E+02  0.14420616682E+03  0.16125997758E+03  0.10000000000E+01 0.  0.
    9000005    1    3    3    0    0 -0.13217495367E+02  0.39171729938E+02  0.25224381705E+03  0.25561116926E+03  0.10000000000E+01 0.  0.
         21    1    1    2  502  501 -0.16923802020E+02  0.26401618384E+02 -0.41100567742E+00  0.31362867435E+02  0.00000000000E+00 0. -1.
<mgrwt>
<rscale>  1 0.12887577E+03</rscale>
<asrwt>0</asrwt>
<pdfrwt beam="2">  1        4 0.40150029E-02 0.12887577E+03</pdfrwt>
<pdfrwt beam="1">  1       -4 0.64944075E-01 0.12887577E+03</pdfrwt>
<totfact> 0.12435187E+03</totfact>
</mgrwt>
</event>
<event>
 6    4  0.5642870E-004  0.1354089E+03  0.7818608E-02  0.1219644E+00
          4   -1    0    0  502    0  0.00000000000E+00  0.00000000000E+00  0.41816018264E+03  0.41816211120E+03  0.12700000000E+01 0. -1.
         -4   -1    0    0    0  501 -0.00000000000E+00 -0.00000000000E+00 -0.34477862217E+02  0.34501244660E+02  0.12700000000E+01 0. -1.
         25    2    1    2    0    0 -0.66567961895E+01 -0.51637056627E+02  0.11110072509E+03  0.17515403229E+03  0.12499946144E+03 0.  0.
    9000005    1    3    3    0    0 -0.37327215036E+01  0.25444040710E+02  0.92206714901E+02  0.95730928598E+02  0.10000000000E+01 0.  0.
    9000005    1    3    3    0    0 -0.29240746860E+01 -0.77081097337E+02  0.18894010185E+02  0.79423103693E+02  0.10000000000E+01 0.  0.
         21    1    1    2  502  501  0.66567961895E+01  0.51637056627E+02  0.27258159534E+03  0.27750932357E+03  0.00000000000E+00 0. -1.
<mgrwt>
<rscale>  1 0.13540888E+03</rscale>
<asrwt>0</asrwt>
<pdfrwt beam="1">  1        4 0.64334284E-01 0.13540888E+03</pdfrwt>
<pdfrwt beam="2">  1       -4 0.53062334E-02 0.13540888E+03</pdfrwt>
<totfact> 0.82071402E+02</totfact>
</mgrwt>
</event>
<event>
 6    4  0.5642870E-004  0.1386271E+03  0.7818608E-02  0.1215188E+00
         -4   -1    0    0    0  501 -0.00000000000E+00  0.00000000000E+00  0.13368002657E+03  0.13368605912E+03  0.12700000000E+01 0. -1.
          4   -1    0    0  502    0  0.00000000000E+00 -0.00000000000E+00 -0.96272197608E+02  0.96280574013E+02  0.12700000000E+01 0. -1.
         25    2    1    2    0    0 -0.57744768102E+02 -0.16018692899E+02  0.76581043368E+02  0.15837335487E+03  0.12500562613E+03 0.  0.
    9000005    1    3    3    0    0 -0.68884818060E+02 -0.36764255379E+02  0.98833591253E+02  0.12595954665E+03  0.10000000000E+01 0.  0.
    9000005    1    3    3    0    0  0.11140049959E+02  0.20745562480E+02 -0.22252547885E+02  0.32413808215E+02  0.10000000000E+01 0.  0.
         21    1    1    2  502  501  0.57744768102E+02  0.16018692899E+02 -0.39173214411E+02  0.71593278264E+02  0.00000000000E+00 0. -1.
<mgrwt>
<rscale>  1 0.13862707E+03</rscale>
<asrwt>0</asrwt>
<pdfrwt beam="2">  1        4 0.14812216E-01 0.13862707E+03</pdfrwt>
<pdfrwt beam="1">  1       -4 0.20567266E-01 0.13862707E+03</pdfrwt>
<totfact> 0.13674538E+03</totfact>
</mgrwt>
</event>
<event>
 6    4  0.5642870E-004  0.1398429E+03  0.7818608E-02  0.1213540E+00
          4   -1    0    0  502    0  0.00000000000E+00  0.00000000000E+00  0.44278291553E+02  0.44296501022E+02  0.12700000000E+01 0.  1.
         -4   -1    0    0    0  501 -0.00000000000E+00 -0.00000000000E+00 -0.23165747433E+03  0.23166095552E+03  0.12700000000E+01 0.  1.
         25    2    1    2    0    0  0.39692760457E+02 -0.48542396673E+02 -0.12683624215E+03  0.18879480876E+03  0.12499667190E+03 0.  0.
    9000005    1    3    3    0    0 -0.38252167321E+02  0.79230828092E+01 -0.16618138495E+02  0.42463703006E+02  0.10000000000E+01 0.  0.
    9000005    1    3    3    0    0  0.77944927779E+02 -0.56465479482E+02 -0.11021810365E+03  0.14633110576E+03  0.10000000000E+01 0.  0.
         21    1    1    2  502  501 -0.39692760457E+02  0.48542396673E+02 -0.60542940627E+02  0.87162647776E+02  0.00000000000E+00 0.  1.
<mgrwt>
<rscale>  1 0.13984294E+03</rscale>
<asrwt>0</asrwt>
<pdfrwt beam="1">  1        4 0.68137135E-02 0.13984294E+03</pdfrwt>
<pdfrwt beam="2">  1       -4 0.35641279E-01 0.13984294E+03</pdfrwt>
<totfact> 0.18204464E+03</totfact>
</mgrwt>
</event>
<event>
 6    4  0.5642870E-004  0.1667960E+03  0.7818608E-02  0.1181231E+00
         -4   -1    0    0    0  501 -0.00000000000E+00  0.00000000000E+00  0.21258467706E+03  0.21258847058E+03  0.12700000000E+01 0.  1.
          4   -1    0    0  502    0  0.00000000000E+00 -0.00000000000E+00 -0.24234254647E+03  0.24234587417E+03  0.12700000000E+01 0.  1.
         25    2    1    2    0    0 -0.10516278166E+03 -0.33702705280E+02  0.16272401065E+03  0.23302364844E+03  0.12500333635E+03 0.  0.
    9000005    1    3    3    0    0 -0.10090970824E+03 -0.74678180717E+02  0.12487545825E+03  0.17707196267E+03  0.10000000000E+01 0.  0.
    9000005    1    3    3    0    0 -0.42530734249E+01  0.40975475437E+02  0.37848552398E+02  0.55951685761E+02  0.10000000000E+01 0.  0.
         21    1    1    2  502  501  0.10516278166E+03  0.33702705280E+02 -0.19248188005E+03  0.22191069631E+03  0.00000000000E+00 0.  1.
<mgrwt>
<rscale>  1 0.16679603E+03</rscale>
<asrwt>0</asrwt>
<pdfrwt beam="2">  1        4 0.37284017E-01 0.16679603E+03</pdfrwt>
<pdfrwt beam="1">  1       -4 0.32705883E-01 0.16679603E+03</pdfrwt>
<totfact> 0.10902604E+02</totfact>
</mgrwt>
</event>
<event>
 6    4  0.5642870E-004  0.1287014E+03  0.7818608E-02  0.1229395E+00
         -4   -1    0    0    0  501 -0.00000000000E+00  0.00000000000E+00  0.14290859147E+03  0.14291423448E+03  0.12700000000E+01 0. -1.
          4   -1    0    0  502    0  0.00000000000E+00 -0.00000000000E+00 -0.47092570087E+02  0.47109691756E+02  0.12700000000E+01 0. -1.
         25    2    1    2    0    0 -0.11438366383E+02  0.28394099563E+02  0.93971225872E+02  0.15935693444E+03  0.12500792033E+03 0.  0.
    9000005    1    3    3    0    0 -0.31487348165E+02  0.60225972218E+02  0.10033600911E+03  0.12118966766E+03  0.10000000000E+01 0.  0.
    9000005    1    3    3    0    0  0.20048981783E+02 -0.31831872654E+02 -0.63647832388E+01  0.38167266772E+02  0.10000000000E+01 0.  0.
         21    1    1    2  502  501  0.11438366383E+02 -0.28394099563E+02  0.18447955135E+01  0.30666991799E+02  0.00000000000E+00 0. -1.
<mgrwt>
<rscale>  1 0.12870136E+03</rscale>
<asrwt>0</asrwt>
<pdfrwt beam="2">  1        4 0.72467620E-02 0.12870136E+03</pdfrwt>
<pdfrwt beam="1">  1       -4 0.21987688E-01 0.12870136E+03</pdfrwt>
<totfact> 0.39898649E+03</totfact>
</mgrwt>
</event>
<event>
 6    4  0.5642870E-004  0.1286416E+03  0.7818608E-02  0.1229485E+00
         -4   -1    0    0    0  501 -0.00000000000E+00  0.00000000000E+00  0.91828818529E+02  0.91837600211E+02  0.12700000000E+01 0. -1.
          4   -1    0    0  502    0  0.00000000000E+00 -0.00000000000E+00 -0.70015178363E+02  0.70026695633E+02  0.12700000000E+01 0. -1.
         25    2    1    2    0    0  0.70185533447E+01  0.29573246866E+02  0.25818401223E+02  0.13120691284E+03  0.12499930846E+03 0.  0.
    9000005    1    3    3    0    0 -0.21579725682E+02  0.60622810808E+02 -0.21438535439E+02  0.67833771475E+02  0.10000000000E+01 0.  0.
    9000005    1    3    3    0    0  0.28598279027E+02 -0.31049563942E+02  0.47256936662E+02  0.63373141369E+02  0.10000000000E+01 0.  0.
         21    1    1    2  502  501 -0.70185533447E+01 -0.29573246866E+02 -0.40047610570E+01  0.30657383000E+02  0.00000000000E+00 0. -1.
<mgrwt>
<rscale>  1 0.12864161E+03</rscale>
<asrwt>0</asrwt>
<pdfrwt beam="2">  1        4 0.10773127E-01 0.12864161E+03</pdfrwt>
<pdfrwt beam="1">  1       -4 0.14129072E-01 0.12864161E+03</pdfrwt>
<totfact> 0.45123228E+03</totfact>
</mgrwt>
</event>
<event>
 6    4  0.5642870E-004  0.1268356E+03  0.7818608E-02  0.1232228E+00
         -4   -1    0    0    0  501 -0.00000000000E+00  0.00000000000E+00  0.87383791773E+03  0.87383884061E+03  0.12700000000E+01 0.  1.
          4   -1    0    0  502    0  0.00000000000E+00 -0.00000000000E+00 -0.63177910144E+01  0.64441743693E+01  0.12700000000E+01 0.  1.
         25    2    1    2    0    0  0.21171354229E+02  0.43102357508E+01  0.70299774431E+03  0.71434803168E+03  0.12498190862E+03 0.  0.
    9000005    1    3    3    0    0  0.17211761618E+02 -0.25777229918E+02  0.66493666794E+03  0.66565943446E+03  0.10000000000E+01 0.  0.
    9000005    1    3    3    0    0  0.39595926103E+01  0.30087465669E+02  0.38061076370E+02  0.48688597212E+02  0.10000000000E+01 0.  0.
         21    1    1    2  502  501 -0.21171354229E+02 -0.43102357508E+01  0.16452238241E+03  0.16593498331E+03  0.00000000000E+00 0.  1.
<mgrwt>
<rscale>  1 0.12683565E+03</rscale>
<asrwt>0</asrwt>
<pdfrwt beam="2">  1        4 0.98176050E-03 0.12683565E+03</pdfrwt>
<pdfrwt beam="1">  1       -4 0.13444641E+00 0.12683565E+03</pdfrwt>
<totfact> 0.20618849E+03</totfact>
</mgrwt>
</event>
<event>
 6    4  0.5642870E-004  0.1432293E+03  0.7818608E-02  0.1209049E+00
          4   -1    0    0  502    0  0.00000000000E+00  0.00000000000E+00  0.83249553663E+02  0.83259240238E+02  0.12700000000E+01 0.  1.
         -4   -1    0    0    0  501 -0.00000000000E+00 -0.00000000000E+00 -0.13647004023E+03  0.13647594946E+03  0.12700000000E+01 0.  1.
         25    2    1    2    0    0 -0.46305430434E+02 -0.52394982660E+02 -0.33786147874E+02  0.14716025865E+03  0.12500084337E+03 0.  0.
    9000005    1    3    3    0    0  0.15862504469E+02  0.22076482093E+02  0.22233828646E+02  0.35133079084E+02  0.10000000000E+01 0.  0.
    9000005    1    3    3    0    0 -0.62167934903E+02 -0.74471464753E+02 -0.56019976520E+02  0.11202717957E+03  0.10000000000E+01 0.  0.
         21    1    1    2  502  501  0.46305430434E+02  0.52394982660E+02 -0.19434338694E+02  0.72574931044E+02  0.00000000000E+00 0.  1.
<mgrwt>
<rscale>  1 0.14322932E+03</rscale>
<asrwt>0</asrwt>
<pdfrwt beam="1">  1        4 0.12808823E-01 0.14322932E+03</pdfrwt>
<pdfrwt beam="2">  1       -4 0.20996590E-01 0.14322932E+03</pdfrwt>
<totfact> 0.17065531E+03</totfact>
</mgrwt>
</event>
<event>
 6    4  0.5642870E-004  0.1274757E+03  0.7818608E-02  0.1231250E+00
          4   -1    0    0  502    0  0.00000000000E+00  0.00000000000E+00  0.10672282149E+02  0.10747581415E+02  0.12700000000E+01 0.  1.
         -4   -1    0    0    0  501 -0.00000000000E+00 -0.00000000000E+00 -0.58447196117E+03  0.58447334096E+03  0.12700000000E+01 0.  1.
         25    2    1    2    0    0  0.18265450794E+02 -0.17076736443E+02 -0.40524999694E+03  0.42482656522E+03  0.12499923551E+03 0.  0.
    9000005    1    3    3    0    0 -0.31105207068E+02 -0.26899744620E+02 -0.44578592851E+02  0.60657902272E+02  0.10000000000E+01 0.  0.
    9000005    1    3    3    0    0  0.49370657863E+02  0.98230081775E+01 -0.36067140409E+03  0.36416866295E+03  0.10000000000E+01 0.  0.
         21    1    1    2  502  501 -0.18265450794E+02  0.17076736443E+02 -0.16854968208E+03  0.17039435715E+03  0.00000000000E+00 0.  1.
<mgrwt>
<rscale>  1 0.12747569E+03</rscale>
<asrwt>0</asrwt>
<pdfrwt beam="1">  1        4 0.16477884E-02 0.12747569E+03</pdfrwt>
<pdfrwt beam="2">  1       -4 0.89924637E-01 0.12747569E+03</pdfrwt>
<totfact> 0.24297439E+03</totfact>
</mgrwt>
</event>
<event>
 6    4  0.5642870E-004  0.1308852E+03  0.7818608E-02  0.1226148E+00
         -4   -1    0    0    0  501 -0.00000000000E+00  0.00000000000E+00  0.48383490493E+02  0.48400155499E+02  0.12700000000E+01 0.  1.
          4   -1    0    0  502    0  0.00000000000E+00 -0.00000000000E+00 -0.48561983058E+03  0.48562149123E+03  0.12700000000E+01 0.  1.
         25    2    1    2    0    0  0.18549138822E+02  0.34068660292E+02 -0.42833487623E+02  0.13771576210E+03  0.12500471713E+03 0.  0.
    9000005    1    3    3    0    0 -0.16769820534E+02 -0.25583175739E+02 -0.59052916132E+02  0.66512951110E+02  0.10000000000E+01 0.  0.
    9000005    1    3    3    0    0  0.35318959357E+02  0.59651836031E+02  0.16219428509E+02  0.71202810991E+02  0.10000000000E+01 0.  0.
         21    1    1    2  502  501 -0.18549138822E+02 -0.34068660292E+02 -0.39440285246E+03  0.39630588463E+03  0.00000000000E+00 0.  1.
<mgrwt>
<rscale>  1 0.13088515E+03</rscale>
<asrwt>0</asrwt>
<pdfrwt beam="2">  1        4 0.74712150E-01 0.13088515E+03</pdfrwt>
<pdfrwt beam="1">  1       -4 0.74450239E-02 0.13088515E+03</pdfrwt>
<totfact> 0.34022768E+02</totfact>
</mgrwt>
</event>
<event>
 6    4  0.5642870E-004  0.1342488E+03  0.7818608E-02  0.1221284E+00
          4   -1    0    0  502    0  0.00000000000E+00  0.00000000000E+00  0.81126775577E+01  0.82114820316E+01  0.12700000000E+01 0.  1.
         -4   -1    0    0    0  501 -0.00000000000E+00 -0.00000000000E+00 -0.19006528520E+04  0.19006532764E+04  0.12700000000E+01 0.  1.
         25    2    1    2    0    0 -0.25897078245E+02  0.41554519370E+02 -0.17921420403E+04  0.17971632718E+04  0.12500118553E+03 0.  0.
    9000005    1    3    3    0    0 -0.39338868983E+02  0.78424480138E+02 -0.93062123598E+03  0.93474853867E+03  0.10000000000E+01 0.  0.
    9000005    1    3    3    0    0  0.13441790739E+02 -0.36869960768E+02 -0.86152080431E+03  0.86241473317E+03  0.10000000000E+01 0.  0.
         21    1    1    2  502  501  0.25897078245E+02 -0.41554519370E+02 -0.10039813421E+03  0.11170148654E+03  0.00000000000E+00 0.  1.
<mgrwt>
<rscale>  1 0.13424877E+03</rscale>
<asrwt>0</asrwt>
<pdfrwt beam="1">  1        4 0.12557387E-02 0.13424877E+03</pdfrwt>
<pdfrwt beam="2">  1       -4 0.29241541E+00 0.13424877E+03</pdfrwt>
<totfact> 0.14548388E+02</totfact>
</mgrwt>
</event>
<event>
 6    4  0.5642870E-004  0.1282350E+03  0.7818608E-02  0.1230098E+00
         -4   -1    0    0    0  501 -0.00000000000E+00  0.00000000000E+00  0.14551797584E+03  0.14552351766E+03  0.12700000000E+01 0. -1.
          4   -1    0    0  502    0  0.00000000000E+00 -0.00000000000E+00 -0.67985317476E+02  0.67997178561E+02  0.12700000000E+01 0. -1.
         25    2    1    2    0    0 -0.11525432828E+02  0.26231261796E+02  0.11090168065E+03  0.16953880966E+03  0.12499324187E+03 0.  0.
    9000005    1    3    3    0    0  0.24727310194E+02 -0.39089591390E+02  0.71257059269E+02  0.84958840153E+02  0.10000000000E+01 0.  0.
    9000005    1    3    3    0    0 -0.36252743023E+02  0.65320853187E+02  0.39644621378E+02  0.84579969508E+02  0.10000000000E+01 0.  0.
         21    1    1    2  502  501  0.11525432828E+02 -0.26231261796E+02 -0.33369022283E+02  0.43981886561E+02  0.00000000000E+00 0. -1.
<mgrwt>
<rscale>  1 0.12823504E+03</rscale>
<asrwt>0</asrwt>
<pdfrwt beam="2">  1        4 0.10460618E-01 0.12823504E+03</pdfrwt>
<pdfrwt beam="1">  1       -4 0.22388720E-01 0.12823504E+03</pdfrwt>
<totfact> 0.20932267E+03</totfact>
</mgrwt>
</event>
<event>
 6    4  0.5642870E-004  0.1309796E+03  0.7818608E-02  0.1226009E+00
          4   -1    0    0  502    0  0.00000000000E+00  0.00000000000E+00  0.51935604601E+03  0.51935759879E+03  0.12700000000E+01 0. -1.
         -4   -1    0    0    0  501 -0.00000000000E+00 -0.00000000000E+00 -0.42396608049E+02  0.42415625353E+02  0.12700000000E+01 0. -1.
         25    2    1    2    0    0 -0.28452479007E+02  0.26782420242E+02  0.61884597317E+02  0.14486320396E+03  0.12501521060E+03 0.  0.
    9000005    1    3    3    0    0 -0.32067347535E+02  0.71352264346E+02  0.62497068851E+02  0.10013163346E+03  0.10000000000E+01 0.  0.
    9000005    1    3    3    0    0  0.36148685283E+01 -0.44569844104E+02 -0.61247153349E+00  0.44731570499E+02  0.10000000000E+01 0.  0.
         21    1    1    2  502  501  0.28452479007E+02 -0.26782420242E+02  0.41507484064E+03  0.41691002018E+03  0.00000000000E+00 0. -1.
<mgrwt>
<rscale>  1 0.13097956E+03</rscale>
<asrwt>0</asrwt>
<pdfrwt beam="1">  1        4 0.79902508E-01 0.13097956E+03</pdfrwt>
<pdfrwt beam="2">  1       -4 0.65241377E-02 0.13097956E+03</pdfrwt>
<totfact> 0.36461921E+02</totfact>
</mgrwt>
</event>
<event>
 6    4  0.5642870E-004  0.1518302E+03  0.7818608E-02  0.1198242E+00
          4   -1    0    0  502    0  0.00000000000E+00  0.00000000000E+00  0.20004928492E+03  0.20005331614E+03  0.12700000000E+01 0. -1.
         -4   -1    0    0    0  501 -0.00000000000E+00 -0.00000000000E+00 -0.74976650659E+02  0.74987405903E+02  0.12700000000E+01 0. -1.
         25    2    1    2    0    0  0.70027652637E+02 -0.50231132494E+02  0.47491642538E+02  0.15908448425E+03  0.12500151284E+03 0.  0.
    9000005    1    3    3    0    0  0.22093700663E+02  0.16748580100E+02  0.68646569025E+02  0.74040515823E+02  0.10000000000E+01 0.  0.
    9000005    1    3    3    0    0  0.47933951974E+02 -0.66979712594E+02 -0.21154926488E+02  0.85043968427E+02  0.10000000000E+01 0.  0.
         21    1    1    2  502  501 -0.70027652637E+02  0.50231132494E+02  0.77580991724E+02  0.11595623779E+03  0.00000000000E+00 0. -1.
<mgrwt>
<rscale>  1 0.15183022E+03</rscale>
<asrwt>0</asrwt>
<pdfrwt beam="1">  1        4 0.30777950E-01 0.15183022E+03</pdfrwt>
<pdfrwt beam="2">  1       -4 0.11536007E-01 0.15183022E+03</pdfrwt>
<totfact> 0.10172691E+03</totfact>
</mgrwt>
</event>
<event>
 6    4  0.5642870E-004  0.1297458E+03  0.7818608E-02  0.1227833E+00
          4   -1    0    0  502    0  0.00000000000E+00  0.00000000000E+00  0.14341287448E+03  0.14341849764E+03  0.12700000000E+01 0.  1.
         -4   -1    0    0    0  501 -0.00000000000E+00 -0.00000000000E+00 -0.47187952656E+02  0.47205039729E+02  0.12700000000E+01 0.  1.
         25    2    1    2    0    0 -0.15836652044E+02  0.30932334788E+02  0.77940336388E+02  0.15135605785E+03  0.12500540520E+03 0.  0.
    9000005    1    3    3    0    0  0.25016054152E+02  0.69104536900E+02  0.38927737539E+02  0.83172163225E+02  0.10000000000E+01 0.  0.
    9000005    1    3    3    0    0 -0.40852706196E+02 -0.38172202112E+02  0.39012598849E+02  0.68183894628E+02  0.10000000000E+01 0.  0.
         21    1    1    2  502  501  0.15836652044E+02 -0.30932334788E+02  0.18284585435E+02  0.39267479521E+02  0.00000000000E+00 0. -1.
<mgrwt>
<rscale>  1 0.12974575E+03</rscale>
<asrwt>0</asrwt>
<pdfrwt beam="1">  1        4 0.22065266E-01 0.12974575E+03</pdfrwt>
<pdfrwt beam="2">  1       -4 0.72614319E-02 0.12974575E+03</pdfrwt>
<totfact> 0.39591504E+03</totfact>
</mgrwt>
</event>
<event>
 6    4  0.5642870E-004  0.1278068E+03  0.7818608E-02  0.1230747E+00
          4   -1    0    0  502    0  0.00000000000E+00  0.00000000000E+00  0.71893526423E+02  0.71904742831E+02  0.12700000000E+01 0.  1.
         -4   -1    0    0    0  501 -0.00000000000E+00 -0.00000000000E+00 -0.11188380538E+03  0.11189101307E+03  0.12700000000E+01 0.  1.
         25    2    1    2    0    0  0.23074023404E+02 -0.13356833367E+02 -0.68296755973E+02  0.14491038340E+03  0.12499502705E+03 0.  0.
    9000005    1    3    3    0    0  0.33298455317E+02 -0.76988038572E+01  0.30259664476E+02  0.45658580809E+02  0.10000000000E+01 0.  0.
    9000005    1    3    3    0    0 -0.10224431913E+02 -0.56580295102E+01 -0.98556420450E+02  0.99251802592E+02  0.10000000000E+01 0.  0.
         21    1    1    2  502  501 -0.23074023404E+02  0.13356833367E+02  0.28306477016E+02  0.38885372503E+02  0.00000000000E+00 0.  1.
<mgrwt>
<rscale>  1 0.12780678E+03</rscale>
<asrwt>0</asrwt>
<pdfrwt beam="1">  1        4 0.11061960E-01 0.12780678E+03</pdfrwt>
<pdfrwt beam="2">  1       -4 0.17214311E-01 0.12780678E+03</pdfrwt>
<totfact> 0.30483570E+03</totfact>
</mgrwt>
</event>
<event>
 6    4  0.5642870E-004  0.1270145E+03  0.7818608E-02  0.1231954E+00
         -4   -1    0    0    0  501 -0.00000000000E+00  0.00000000000E+00  0.27210096930E+03  0.27210393308E+03  0.12700000000E+01 0. -1.
          4   -1    0    0  502    0  0.00000000000E+00 -0.00000000000E+00 -0.20686268855E+02  0.20725216987E+02  0.12700000000E+01 0. -1.
         25    2    1    2    0    0  0.21350962664E+02  0.72333595837E+01  0.22203675326E+03  0.25579877228E+03  0.12499802801E+03 0.  0.
    9000005    1    3    3    0    0  0.66204888197E+02  0.33563809698E+02  0.11656061564E+03  0.13819187263E+03  0.10000000000E+01 0.  0.
    9000005    1    3    3    0    0 -0.44853925533E+02 -0.26330450114E+02  0.10547613762E+03  0.11760689965E+03  0.10000000000E+01 0.  0.
         21    1    1    2  502  501 -0.21350962664E+02 -0.72333595837E+01  0.29377947193E+02  0.37030377783E+02  0.00000000000E+00 0. -1.
<mgrwt>
<rscale>  1 0.12701454E+03</rscale>
<asrwt>0</asrwt>
<pdfrwt beam="2">  1        4 0.31857271E-02 0.12701454E+03</pdfrwt>
<pdfrwt beam="1">  1       -4 0.41864909E-01 0.12701454E+03</pdfrwt>
<totfact> 0.43907853E+03</totfact>
</mgrwt>
</event>
<event>
 6    4  0.5642870E-004  0.1370759E+03  0.7818608E-02  0.1217319E+00
         -4   -1    0    0    0  501 -0.00000000000E+00  0.00000000000E+00  0.18248697707E+02  0.18292836522E+02  0.12700000000E+01 0.  1.
          4   -1    0    0  502    0  0.00000000000E+00 -0.00000000000E+00 -0.52816907253E+03  0.52817059941E+03  0.12700000000E+01 0.  1.
         25    2    1    2    0    0 -0.48726256391E+02  0.28124543886E+02 -0.31379762158E+03  0.34243066314E+03  0.12499829487E+03 0.  0.
    9000005    1    3    3    0    0 -0.37679882960E+02 -0.35071611235E+02 -0.53134531557E+02  0.73986957893E+02  0.10000000000E+01 0.  0.
    9000005    1    3    3    0    0 -0.11046373430E+02  0.63196155121E+02 -0.26066309002E+03  0.26844370525E+03  0.10000000000E+01 0.  0.
         21    1    1    2  502  501  0.48726256391E+02 -0.28124543886E+02 -0.19612275324E+03  0.20403277279E+03  0.00000000000E+00 0.  1.
<mgrwt>
<rscale>  1 0.13707593E+03</rscale>
<asrwt>0</asrwt>
<pdfrwt beam="2">  1        4 0.81260282E-01 0.13707593E+03</pdfrwt>
<pdfrwt beam="1">  1       -4 0.28110051E-02 0.13707593E+03</pdfrwt>
<totfact> 0.13576768E+03</totfact>
</mgrwt>
</event>
<event>
 6    4  0.5642870E-004  0.1292323E+03  0.7818608E-02  0.1228599E+00
          4   -1    0    0  502    0  0.00000000000E+00  0.00000000000E+00  0.45031135330E+02  0.45049040491E+02  0.12700000000E+01 0. -1.
         -4   -1    0    0    0  501 -0.00000000000E+00 -0.00000000000E+00 -0.16361252181E+03  0.16361745076E+03  0.12700000000E+01 0. -1.
         25    2    1    2    0    0  0.15181059455E+02  0.29062386084E+02 -0.11928711415E+03  0.17587038016E+03  0.12500355260E+03 0.  0.
    9000005    1    3    3    0    0 -0.60746981189E+01  0.53061533003E+02 -0.11217212777E+01  0.53429266329E+02  0.10000000000E+01 0.  0.
    9000005    1    3    3    0    0  0.21255757574E+02 -0.23999146918E+02 -0.11816539287E+03  0.12244111383E+03  0.10000000000E+01 0.  0.
         21    1    1    2  502  501 -0.15181059455E+02 -0.29062386084E+02  0.70572767229E+00  0.32796111090E+02  0.00000000000E+00 0. -1.
<mgrwt>
<rscale>  1 0.12923225E+03</rscale>
<asrwt>0</asrwt>
<pdfrwt beam="1">  1        4 0.69296235E-02 0.12923225E+03</pdfrwt>
<pdfrwt beam="2">  1       -4 0.25172913E-01 0.12923225E+03</pdfrwt>
<totfact> 0.33552314E+03</totfact>
</mgrwt>
</event>
<event>
 6    4  0.5642870E-004  0.1267107E+03  0.7818608E-02  0.1232420E+00
         -4   -1    0    0    0  501 -0.00000000000E+00  0.00000000000E+00  0.17867644880E+02  0.17912722673E+02  0.12700000000E+01 0. -1.
          4   -1    0    0  502    0  0.00000000000E+00 -0.00000000000E+00 -0.30582424287E+03  0.30582687983E+03  0.12700000000E+01 0. -1.
         25    2    1    2    0    0  0.14877424888E+02 -0.14436462590E+02 -0.25609603721E+03  0.28572849154E+03  0.12500336547E+03 0.  0.
    9000005    1    3    3    0    0  0.64260511522E+02  0.17341397657E+02 -0.11465460541E+03  0.13257758467E+03  0.10000000000E+01 0.  0.
    9000005    1    3    3    0    0 -0.49383086633E+02 -0.31777860248E+02 -0.14144143179E+03  0.15315090687E+03  0.10000000000E+01 0.  0.
         21    1    1    2  502  501 -0.14877424888E+02  0.14436462590E+02 -0.31860560778E+02  0.38011110961E+02  0.00000000000E+00 0.  1.
<mgrwt>
<rscale>  1 0.12671066E+03</rscale>
<asrwt>0</asrwt>
<pdfrwt beam="2">  1        4 0.47053550E-01 0.12671066E+03</pdfrwt>
<pdfrwt beam="1">  1       -4 0.27525390E-02 0.12671066E+03</pdfrwt>
<totfact> 0.43674000E+03</totfact>
</mgrwt>
</event>
<event>
 6    4  0.5642870E-004  0.1267345E+03  0.7818608E-02  0.1232383E+00
          4   -1    0    0  502    0  0.00000000000E+00  0.00000000000E+00  0.16575546894E+03  0.16576033417E+03  0.12700000000E+01 0.  1.
         -4   -1    0    0    0  501 -0.00000000000E+00 -0.00000000000E+00 -0.33314696712E+02  0.33338894958E+02  0.12700000000E+01 0.  1.
         25    2    1    2    0    0  0.20145549493E+02 -0.56804612638E+01  0.12111181258E+03  0.17529889024E+03  0.12499407573E+03 0.  0.
    9000005    1    3    3    0    0 -0.17699099379E+02 -0.52293011294E+02  0.94864173126E+02  0.10976351166E+03  0.10000000000E+01 0.  0.
    9000005    1    3    3    0    0  0.37844648871E+02  0.46612550030E+02  0.26247639459E+02  0.65535378580E+02  0.10000000000E+01 0.  0.
         21    1    1    2  502  501 -0.20145549493E+02  0.56804612638E+01  0.11328959642E+02  0.23800338886E+02  0.00000000000E+00 0. -1.
<mgrwt>
<rscale>  1 0.12673449E+03</rscale>
<asrwt>0</asrwt>
<pdfrwt beam="1">  1        4 0.25503077E-01 0.12673449E+03</pdfrwt>
<pdfrwt beam="2">  1       -4 0.51275735E-02 0.12673449E+03</pdfrwt>
<totfact> 0.53139578E+03</totfact>
</mgrwt>
</event>
<event>
 6    4  0.5642870E-004  0.1269894E+03  0.7818608E-02  0.1231993E+00
         -4   -1    0    0    0  501 -0.00000000000E+00  0.00000000000E+00  0.83201674138E+03  0.83201771065E+03  0.12700000000E+01 0.  1.
          4   -1    0    0  502    0  0.00000000000E+00 -0.00000000000E+00 -0.82811951314E+01  0.83780124615E+01  0.12700000000E+01 0.  1.
         25    2    1    2    0    0  0.20098488724E+02 -0.98881578722E+01  0.78837951378E+03  0.79854152444E+03  0.12499833431E+03 0.  0.
    9000005    1    3    3    0    0 -0.21112478767E+02 -0.21453759883E+02  0.46332096439E+02  0.55259965013E+02  0.10000000000E+01 0.  0.
    9000005    1    3    3    0    0  0.41210967491E+02  0.11565602011E+02  0.74204741734E+03  0.74328155942E+03  0.10000000000E+01 0.  0.
         21    1    1    2  502  501 -0.20098488724E+02  0.98881578722E+01  0.35356032463E+02  0.41854198674E+02  0.00000000000E+00 0.  1.
<mgrwt>
<rscale>  1 0.12698940E+03</rscale>
<asrwt>0</asrwt>
<pdfrwt beam="2">  1        4 0.12815518E-02 0.12698940E+03</pdfrwt>
<pdfrwt beam="1">  1       -4 0.12801012E+00 0.12698940E+03</pdfrwt>
<totfact> 0.15556124E+03</totfact>
</mgrwt>
</event>
<event>
 6    4  0.5642870E-004  0.1281061E+03  0.7818608E-02  0.1230293E+00
          4   -1    0    0  502    0  0.00000000000E+00  0.00000000000E+00  0.30086349498E+02  0.30113142084E+02  0.12700000000E+01 0.  1.
         -4   -1    0    0    0  501 -0.00000000000E+00 -0.00000000000E+00 -0.21129466972E+03  0.21129848640E+03  0.12700000000E+01 0.  1.
         25    2    1    2    0    0  0.27709507665E+02 -0.42188278481E+01 -0.16547766110E+03  0.20927023834E+03  0.12500224402E+03 0.  0.
    9000005    1    3    3    0    0  0.10929044933E+02  0.38028579169E+01 -0.18319540582E+03  0.18356323833E+03  0.10000000000E+01 0.  0.
    9000005    1    3    3    0    0  0.16780462732E+02 -0.80216857650E+01  0.17717744718E+02  0.25707000018E+02  0.10000000000E+01 0.  0.
         21    1    1    2  502  501 -0.27709507665E+02  0.42188278481E+01 -0.15730659125E+02  0.32141390137E+02  0.00000000000E+00 0.  1.
<mgrwt>
<rscale>  1 0.12810611E+03</rscale>
<asrwt>0</asrwt>
<pdfrwt beam="1">  1        4 0.46310238E-02 0.12810611E+03</pdfrwt>
<pdfrwt beam="2">  1       -4 0.32509226E-01 0.12810611E+03</pdfrwt>
<totfact> 0.39774043E+03</totfact>
</mgrwt>
</event>
<event>
 6    4  0.5642870E-004  0.1714887E+03  0.7818608E-02  0.1176304E+00
         -4   -1    0    0    0  501 -0.00000000000E+00  0.00000000000E+00  0.91632236945E+03  0.91632324955E+03  0.12700000000E+01 0.  1.
          4   -1    0    0  502    0  0.00000000000E+00 -0.00000000000E+00 -0.23047986799E+02  0.23082950320E+02  0.12700000000E+01 0.  1.
         25    2    1    2    0    0 -0.58490125839E+02 -0.10180339183E+03  0.58139718958E+03  0.60616093138E+03  0.12499342891E+03 0.  0.
    9000005    1    3    3    0    0  0.18393613732E+02 -0.77623747975E+02  0.18209518315E+03  0.19880499743E+03  0.10000000000E+01 0.  0.
    9000005    1    3    3    0    0 -0.76883739571E+02 -0.24179643856E+02  0.39930200642E+03  0.40735593395E+03  0.10000000000E+01 0.  0.
         21    1    1    2  502  501  0.58490125839E+02  0.10180339183E+03  0.31187719308E+03  0.33324526849E+03  0.00000000000E+00 0.  1.
<mgrwt>
<rscale>  1 0.17148872E+03</rscale>
<asrwt>0</asrwt>
<pdfrwt beam="2">  1        4 0.35486016E-02 0.17148872E+03</pdfrwt>
<pdfrwt beam="1">  1       -4 0.14097542E+00 0.17148872E+03</pdfrwt>
<totfact> 0.26788158E+02</totfact>
</mgrwt>
</event>
<event>
 6    4  0.5642870E-004  0.1283132E+03  0.7818608E-02  0.1229980E+00
         -4   -1    0    0    0  501 -0.00000000000E+00  0.00000000000E+00  0.45660955700E+02  0.45678613984E+02  0.12700000000E+01 0. -1.
          4   -1    0    0  502    0  0.00000000000E+00 -0.00000000000E+00 -0.13531530970E+03  0.13532126936E+03  0.12700000000E+01 0. -1.
         25    2    1    2    0    0  0.20736141914E+02  0.20162396273E+02 -0.73201113197E+02  0.14772498382E+03  0.12501103178E+03 0.  0.
    9000005    1    3    3    0    0  0.53185155456E+02 -0.14270738824E+02 -0.82793105573E+02  0.99438488916E+02  0.10000000000E+01 0.  0.
    9000005    1    3    3    0    0 -0.32449013542E+02  0.34433135097E+02  0.95919923768E+01  0.48286494905E+02  0.10000000000E+01 0.  0.
         21    1    1    2  502  501 -0.20736141914E+02 -0.20162396273E+02 -0.16453240807E+02  0.33274899519E+02  0.00000000000E+00 0. -1.
<mgrwt>
<rscale>  1 0.12831316E+03</rscale>
<asrwt>0</asrwt>
<pdfrwt beam="2">  1        4 0.20819557E-01 0.12831316E+03</pdfrwt>
<pdfrwt beam="1">  1       -4 0.70265792E-02 0.12831316E+03</pdfrwt>
<totfact> 0.46297483E+03</totfact>
</mgrwt>
</event>
<event>
 6    4  0.5642870E-004  0.1342404E+03  0.7818608E-02  0.1221296E+00
          4   -1    0    0  502    0  0.00000000000E+00  0.00000000000E+00  0.52065787278E+03  0.52065942169E+03  0.12700000000E+01 0. -1.
         -4   -1    0    0    0  501 -0.00000000000E+00 -0.00000000000E+00 -0.17881004864E+02  0.17926049061E+02  0.12700000000E+01 0. -1.
         25    2    1    2    0    0 -0.38290745205E+02 -0.30486941103E+02  0.28028423819E+03  0.31077281739E+03  0.12499942042E+03 0.  0.
    9000005    1    3    3    0    0 -0.27528638410E+02 -0.66480190759E+02  0.25625248988E+03  0.26616494936E+03  0.10000000000E+01 0.  0.
    9000005    1    3    3    0    0 -0.10762106796E+02  0.35993249657E+02  0.24031748307E+02  0.44607868030E+02  0.10000000000E+01 0.  0.
         21    1    1    2  502  501  0.38290745205E+02  0.30486941103E+02  0.22249262973E+03  0.22781265336E+03  0.00000000000E+00 0. -1.
<mgrwt>
<rscale>  1 0.13424042E+03</rscale>
<asrwt>0</asrwt>
<pdfrwt beam="1">  1        4 0.80104784E-01 0.13424042E+03</pdfrwt>
<pdfrwt beam="2">  1       -4 0.27545083E-02 0.13424042E+03</pdfrwt>
<totfact> 0.14401507E+03</totfact>
</mgrwt>
</event>
<event>
 6    4  0.5642870E-004  0.1274052E+03  0.7818608E-02  0.1231358E+00
          4   -1    0    0  502    0  0.00000000000E+00  0.00000000000E+00  0.11743194161E+03  0.11743880879E+03  0.12700000000E+01 0.  1.
         -4   -1    0    0    0  501 -0.00000000000E+00 -0.00000000000E+00 -0.50447378870E+02  0.50463362303E+02  0.12700000000E+01 0.  1.
         25    2    1    2    0    0  0.15629930004E+02 -0.19024600273E+02  0.45692508347E+02  0.13535095441E+03  0.12500338160E+03 0.  0.
    9000005    1    3    3    0    0 -0.22954390780E+02 -0.63724734849E+02  0.30977801972E+02  0.74487382171E+02  0.10000000000E+01 0.  0.
    9000005    1    3    3    0    0  0.38584320784E+02  0.44700134576E+02  0.14714706374E+02  0.60863572235E+02  0.10000000000E+01 0.  0.
         21    1    1    2  502  501 -0.15629930004E+02  0.19024600273E+02  0.21292054389E+02  0.32551216683E+02  0.00000000000E+00 0.  1.
<mgrwt>
<rscale>  1 0.12740516E+03</rscale>
<asrwt>0</asrwt>
<pdfrwt beam="1">  1        4 0.18068210E-01 0.12740516E+03</pdfrwt>
<pdfrwt beam="2">  1       -4 0.77628930E-02 0.12740516E+03</pdfrwt>
<totfact> 0.50558720E+03</totfact>
</mgrwt>
</event>
<event>
 6    4  0.5642870E-004  0.1306294E+03  0.7818608E-02  0.1226525E+00
          4   -1    0    0  502    0  0.00000000000E+00  0.00000000000E+00  0.73560372325E+02  0.73571334612E+02  0.12700000000E+01 0.  1.
         -4   -1    0    0    0  501 -0.00000000000E+00 -0.00000000000E+00 -0.11102182310E+03  0.11102908675E+03  0.12700000000E+01 0.  1.
         25    2    1    2    0    0  0.37480920691E+02  0.57629056905E+01 -0.56314564781E+02  0.14225103641E+03  0.12500398656E+03 0.  0.
    9000005    1    3    3    0    0  0.26578116094E+02  0.21153277083E+02  0.35129503114E+02  0.48876777467E+02  0.10000000000E+01 0.  0.
    9000005    1    3    3    0    0  0.10902804597E+02 -0.15390371392E+02 -0.91444067895E+02  0.93374258942E+02  0.10000000000E+01 0.  0.
         21    1    1    2  502  501 -0.37480920691E+02 -0.57629056905E+01  0.18853114008E+02  0.42349384950E+02  0.00000000000E+00 0.  1.
<mgrwt>
<rscale>  1 0.13062935E+03</rscale>
<asrwt>0</asrwt>
<pdfrwt beam="1">  1        4 0.11318382E-01 0.13062935E+03</pdfrwt>
<pdfrwt beam="2">  1       -4 0.17081682E-01 0.13062935E+03</pdfrwt>
<totfact> 0.29880284E+03</totfact>
</mgrwt>
</event>
<event>
 6    4  0.5642870E-004  0.1338072E+03  0.7818608E-02  0.1221913E+00
          4   -1    0    0  502    0  0.00000000000E+00  0.00000000000E+00  0.61264496110E+02  0.61277658111E+02  0.12700000000E+01 0.  1.
         -4   -1    0    0    0  501 -0.00000000000E+00 -0.00000000000E+00 -0.16779750929E+03  0.16780231531E+03  0.12700000000E+01 0.  1.
         25    2    1    2    0    0 -0.53250934724E+01 -0.47446349816E+02 -0.11972079486E+03  0.17954785943E+03  0.12499940949E+03 0.  0.
    9000005    1    3    3    0    0 -0.55211426765E+02 -0.56468526804E+02 -0.50511842424E+02  0.93752026058E+02  0.10000000000E+01 0.  0.
    9000005    1    3    3    0    0  0.49886333292E+02  0.90221769878E+01 -0.69208952434E+02  0.85795833372E+02  0.10000000000E+01 0.  0.
         21    1    1    2  502  501  0.53250934724E+01  0.47446349816E+02  0.13187781675E+02  0.49532113996E+02  0.00000000000E+00 0.  1.
<mgrwt>
<rscale>  1 0.13380719E+03</rscale>
<asrwt>0</asrwt>
<pdfrwt beam="1">  1        4 0.94266893E-02 0.13380719E+03</pdfrwt>
<pdfrwt beam="2">  1       -4 0.25816383E-01 0.13380719E+03</pdfrwt>
<totfact> 0.19387461E+03</totfact>
</mgrwt>
</event>
<event>
 6    4  0.5642870E-004  0.1325730E+03  0.7818608E-02  0.1223687E+00
          4   -1    0    0  502    0  0.00000000000E+00  0.00000000000E+00  0.84897124727E+02  0.84906623340E+02  0.12700000000E+01 0.  1.
         -4   -1    0    0    0  501 -0.00000000000E+00 -0.00000000000E+00 -0.94705337544E+02  0.94713852520E+02  0.12700000000E+01 0.  1.
         25    2    1    2    0    0  0.39599192513E+02 -0.19433455636E+02 -0.20714254647E+02  0.13418153888E+03  0.12501939763E+03 0.  0.
    9000005    1    3    3    0    0 -0.10441798402E+02 -0.41776713416E+02 -0.54749591010E+02  0.69662347459E+02  0.10000000000E+01 0.  0.
    9000005    1    3    3    0    0  0.50040990915E+02  0.22343257780E+02  0.34035336363E+02  0.64519191419E+02  0.10000000000E+01 0.  0.
         21    1    1    2  502  501 -0.39599192513E+02  0.19433455636E+02  0.10906041831E+02  0.45438936982E+02  0.00000000000E+00 0.  1.
<mgrwt>
<rscale>  1 0.13257302E+03</rscale>
<asrwt>0</asrwt>
<pdfrwt beam="1">  1        4 0.13062482E-01 0.13257302E+03</pdfrwt>
<pdfrwt beam="2">  1       -4 0.14571438E-01 0.13257302E+03</pdfrwt>
<totfact> 0.31006780E+03</totfact>
</mgrwt>
</event>
<event>
 6    4  0.5642870E-004  0.1408659E+03  0.7818608E-02  0.1212169E+00
          4   -1    0    0  502    0  0.00000000000E+00  0.00000000000E+00  0.57824259318E+02  0.57838204205E+02  0.12700000000E+01 0. -1.
         -4   -1    0    0    0  501 -0.00000000000E+00 -0.00000000000E+00 -0.25820032993E+03  0.25820345326E+03  0.12700000000E+01 0. -1.
         25    2    1    2    0    0 -0.12057999149E+02  0.63816780106E+02 -0.20740225502E+03  0.25071674619E+03  0.12500085865E+03 0.  0.
    9000005    1    3    3    0    0  0.26972611062E+02 -0.13732738971E+02 -0.13291016722E+03  0.13631662561E+03  0.10000000000E+01 0.  0.
    9000005    1    3    3    0    0 -0.39030610211E+02  0.77549519078E+02 -0.74492087803E+02  0.11440012058E+03  0.10000000000E+01 0.  0.
         21    1    1    2  502  501  0.12057999149E+02 -0.63816780106E+02  0.70261844099E+01  0.65324911282E+02  0.00000000000E+00 0. -1.
<mgrwt>
<rscale>  1 0.14086586E+03</rscale>
<asrwt>0</asrwt>
<pdfrwt beam="1">  1        4 0.88973530E-02 0.14086586E+03</pdfrwt>
<pdfrwt beam="2">  1       -4 0.39724440E-01 0.14086586E+03</pdfrwt>
<totfact> 0.94877264E+02</totfact>
</mgrwt>
</event>
<event>
 6    4  0.5642870E-004  0.1406327E+03  0.7818608E-02  0.1212480E+00
          4   -1    0    0  502    0  0.00000000000E+00  0.00000000000E+00  0.40263334364E+02  0.40283358774E+02  0.12700000000E+01 0.  1.
         -4   -1    0    0    0  501 -0.00000000000E+00 -0.00000000000E+00 -0.38407687192E+03  0.38407897162E+03  0.12700000000E+01 0.  1.
         25    2    1    2    0    0  0.12953384394E+02 -0.63121958677E+02 -0.32963886048E+03  0.35838435449E+03  0.12500158147E+03 0.  0.
    9000005    1    3    3    0    0  0.29007135100E+02 -0.97905538303E+02 -0.24784718643E+03  0.26805994878E+03  0.10000000000E+01 0.  0.
    9000005    1    3    3    0    0 -0.16053750706E+02  0.34783579626E+02 -0.81791674045E+02  0.90324405707E+02  0.10000000000E+01 0.  0.
         21    1    1    2  502  501 -0.12953384394E+02  0.63121958677E+02 -0.14174677072E+02  0.65977975906E+02  0.00000000000E+00 0.  1.
<mgrwt>
<rscale>  1 0.14063274E+03</rscale>
<asrwt>0</asrwt>
<pdfrwt beam="1">  1        4 0.61960612E-02 0.14063274E+03</pdfrwt>
<pdfrwt beam="2">  1       -4 0.59090449E-01 0.14063274E+03</pdfrwt>
<totfact> 0.76959656E+02</totfact>
</mgrwt>
</event>
<event>
 6    4  0.5642870E-004  0.1271082E+03  0.7818608E-02  0.1231811E+00
         -4   -1    0    0    0  501 -0.00000000000E+00  0.00000000000E+00  0.20400207071E+02  0.20439700305E+02  0.12700000000E+01 0.  1.
          4   -1    0    0  502    0  0.00000000000E+00 -0.00000000000E+00 -0.29726426358E+03  0.29726697648E+03  0.12700000000E+01 0.  1.
         25    2    1    2    0    0  0.20318845254E+02  0.10944005738E+02 -0.19594969305E+03  0.23356536143E+03  0.12499547640E+03 0.  0.
    9000005    1    3    3    0    0  0.61793833968E+02  0.20833653974E+02 -0.51944285780E+02  0.83377022492E+02  0.10000000000E+01 0.  0.
    9000005    1    3    3    0    0 -0.41474988714E+02 -0.98896482365E+01 -0.14400540727E+03  0.15018833894E+03  0.10000000000E+01 0.  0.
         21    1    1    2  502  501 -0.20318845254E+02 -0.10944005738E+02 -0.80914363464E+02  0.84141315351E+02  0.00000000000E+00 0.  1.
<mgrwt>
<rscale>  1 0.12710821E+03</rscale>
<asrwt>0</asrwt>
<pdfrwt beam="2">  1        4 0.45736207E-01 0.12710821E+03</pdfrwt>
<pdfrwt beam="1">  1       -4 0.31417402E-02 0.12710821E+03</pdfrwt>
<totfact> 0.37633951E+03</totfact>
</mgrwt>
</event>
<event>
 6    4  0.5642870E-004  0.1267231E+03  0.7818608E-02  0.1232401E+00
         -4   -1    0    0    0  501 -0.00000000000E+00  0.00000000000E+00  0.10324393519E+03  0.10325174601E+03  0.12700000000E+01 0.  1.
          4   -1    0    0  502    0  0.00000000000E+00 -0.00000000000E+00 -0.11229290845E+03  0.11230008989E+03  0.12700000000E+01 0.  1.
         25    2    1    2    0    0 -0.11435588727E+02 -0.17412242032E+02  0.62310551722E+02  0.14121381959E+03  0.12499911650E+03 0.  0.
    9000005    1    3    3    0    0  0.39897148177E+02 -0.15385892898E+02  0.76729986149E+02  0.87846450738E+02  0.10000000000E+01 0.  0.
    9000005    1    3    3    0    0 -0.51332736904E+02 -0.20263491339E+01 -0.14419434427E+02  0.53367368851E+02  0.10000000000E+01 0.  0.
         21    1    1    2  502  501  0.11435588727E+02  0.17412242032E+02 -0.71359524985E+02  0.74338016305E+02  0.00000000000E+00 0.  1.
<mgrwt>
<rscale>  1 0.12672308E+03</rscale>
<asrwt>0</asrwt>
<pdfrwt beam="2">  1        4 0.17276985E-01 0.12672308E+03</pdfrwt>
<pdfrwt beam="1">  1       -4 0.15884836E-01 0.12672308E+03</pdfrwt>
<totfact> 0.16198969E+03</totfact>
</mgrwt>
</event>
<event>
 6    4  0.5642870E-004  0.1286310E+03  0.7818608E-02  0.1229501E+00
          4   -1    0    0  502    0  0.00000000000E+00  0.00000000000E+00  0.63449750957E+03  0.63449878057E+03  0.12700000000E+01 0.  1.
         -4   -1    0    0    0  501 -0.00000000000E+00 -0.00000000000E+00 -0.11157563578E+02  0.11229609299E+02  0.12700000000E+01 0.  1.
         25    2    1    2    0    0 -0.14863170835E+02 -0.26438024937E+02  0.39583403313E+03  0.41620971221E+03  0.12500423890E+03 0.  0.
    9000005    1    3    3    0    0  0.84457244266E+01 -0.61060430280E+02  0.10023176514E+03  0.11767375727E+03  0.10000000000E+01 0.  0.
    9000005    1    3    3    0    0 -0.23308895262E+02  0.34622405343E+02  0.29560226799E+03  0.29853595494E+03  0.10000000000E+01 0.  0.
         21    1    1    2  502  501  0.14863170835E+02  0.26438024937E+02  0.22750591286E+03  0.22951867766E+03  0.00000000000E+00 0.  1.
<mgrwt>
<rscale>  1 0.12863103E+03</rscale>
<asrwt>0</asrwt>
<pdfrwt beam="1">  1        4 0.97620630E-01 0.12863103E+03</pdfrwt>
<pdfrwt beam="2">  1       -4 0.17221882E-02 0.12863103E+03</pdfrwt>
<totfact> 0.18880349E+03</totfact>
</mgrwt>
</event>
<event>
 6    4  0.5642870E-004  0.1276481E+03  0.7818608E-02  0.1230988E+00
          4   -1    0    0  502    0  0.00000000000E+00  0.00000000000E+00  0.22293545547E+03  0.22293907286E+03  0.12700000000E+01 0. -1.
         -4   -1    0    0    0  501 -0.00000000000E+00 -0.00000000000E+00 -0.30749521802E+02  0.30775737051E+02  0.12700000000E+01 0. -1.
         25    2    1    2    0    0  0.18919133861E+02 -0.17633881374E+02  0.11323153018E+03  0.17063240967E+03  0.12500060962E+03 0.  0.
    9000005    1    3    3    0    0 -0.22728997381E+02 -0.59950197617E+02  0.37102456000E+02  0.74082560414E+02  0.10000000000E+01 0.  0.
    9000005    1    3    3    0    0  0.41648131242E+02  0.42316316244E+02  0.76129074178E+02  0.96549849257E+02  0.10000000000E+01 0.  0.
         21    1    1    2  502  501 -0.18919133861E+02  0.17633881374E+02  0.78954403492E+02  0.83082400237E+02  0.00000000000E+00 0. -1.
<mgrwt>
<rscale>  1 0.12764811E+03</rscale>
<asrwt>0</asrwt>
<pdfrwt beam="1">  1        4 0.34300056E-01 0.12764811E+03</pdfrwt>
<pdfrwt beam="2">  1       -4 0.47329907E-02 0.12764811E+03</pdfrwt>
<totfact> 0.34632818E+03</totfact>
</mgrwt>
</event>
<event>
 6    4  0.5642870E-004  0.1340321E+03  0.7818608E-02  0.1221592E+00
          4   -1    0    0  502    0  0.00000000000E+00  0.00000000000E+00  0.17076999925E+03  0.17077472162E+03  0.12700000000E+01 0.  1.
         -4   -1    0    0    0  501 -0.00000000000E+00 -0.00000000000E+00 -0.59871287603E+02  0.59884755817E+02  0.12700000000E+01 0.  1.
         25    2    1    2    0    0  0.46679453413E+02  0.12672827521E+02  0.31493774210E+02  0.13768251245E+03  0.12500017797E+03 0.  0.
    9000005    1    3    3    0    0  0.43025032020E+02 -0.10493120233E+02  0.75655420724E+02  0.87669844516E+02  0.10000000000E+01 0.  0.
    9000005    1    3    3    0    0  0.36544213935E+01  0.23165947754E+02 -0.44161646515E+02  0.50012667935E+02  0.10000000000E+01 0.  0.
         21    1    1    2  502  501 -0.46679453413E+02 -0.12672827521E+02  0.79404937438E+02  0.92976964985E+02  0.00000000000E+00 0.  1.
<mgrwt>
<rscale>  1 0.13403215E+03</rscale>
<asrwt>0</asrwt>
<pdfrwt beam="1">  1        4 0.26273707E-01 0.13403215E+03</pdfrwt>
<pdfrwt beam="2">  1       -4 0.92123665E-02 0.13403215E+03</pdfrwt>
<totfact> 0.19510517E+03</totfact>
</mgrwt>
</event>
<event>
 6    4  0.5642870E-004  0.1329717E+03  0.7818608E-02  0.1223112E+00
          4   -1    0    0  502    0  0.00000000000E+00  0.00000000000E+00  0.21009761067E+02  0.21048110606E+02  0.12700000000E+01 0.  1.
         -4   -1    0    0    0  501 -0.00000000000E+00 -0.00000000000E+00 -0.38398999635E+03  0.38399209653E+03  0.12700000000E+01 0.  1.
         25    2    1    2    0    0 -0.18422710698E+02 -0.41438295207E+02 -0.29137806979E+03  0.32028527405E+03  0.12499979456E+03 0.  0.
    9000005    1    3    3    0    0 -0.68086648344E+02 -0.26043732368E+02 -0.22143147815E+03  0.23312435994E+03  0.10000000000E+01 0.  0.
    9000005    1    3    3    0    0  0.49663937646E+02 -0.15394562840E+02 -0.69946591635E+02  0.87160914112E+02  0.10000000000E+01 0.  0.
         21    1    1    2  502  501  0.18422710698E+02  0.41438295207E+02 -0.71602165497E+02  0.84754933090E+02  0.00000000000E+00 0.  1.
<mgrwt>
<rscale>  1 0.13297172E+03</rscale>
<asrwt>0</asrwt>
<pdfrwt beam="1">  1        4 0.32353827E-02 0.13297172E+03</pdfrwt>
<pdfrwt beam="2">  1       -4 0.59078491E-01 0.13297172E+03</pdfrwt>
<totfact> 0.21503018E+03</totfact>
</mgrwt>
</event>
<event>
 6    4  0.5642870E-004  0.1287432E+03  0.7818608E-02  0.1229333E+00
          4   -1    0    0  502    0  0.00000000000E+00  0.00000000000E+00  0.29633964171E+03  0.29634236306E+03  0.12700000000E+01 0.  1.
         -4   -1    0    0    0  501 -0.00000000000E+00 -0.00000000000E+00 -0.33055337647E+02  0.33079725617E+02  0.12700000000E+01 0.  1.
         25    2    1    2    0    0 -0.28814797880E+02  0.11242375010E+02  0.99415838999E+02  0.16266011036E+03  0.12497247251E+03 0.  0.
    9000005    1    3    3    0    0 -0.64341489718E+00 -0.38131223516E+02 -0.99264596596E+01  0.39420030326E+02  0.10000000000E+01 0.  0.
    9000005    1    3    3    0    0 -0.28171382983E+02  0.49373598526E+02  0.10934229866E+03  0.12324008003E+03  0.10000000000E+01 0.  0.
         21    1    1    2  502  501  0.28814797880E+02 -0.11242375010E+02  0.16386846506E+03  0.16676197832E+03  0.00000000000E+00 0.  1.
<mgrwt>
<rscale>  1 0.12874316E+03</rscale>
<asrwt>0</asrwt>
<pdfrwt beam="1">  1        4 0.45592800E-01 0.12874316E+03</pdfrwt>
<pdfrwt beam="2">  1       -4 0.50875218E-02 0.12874316E+03</pdfrwt>
<totfact> 0.17679595E+03</totfact>
</mgrwt>
</event>
<event>
 6    4  0.5642870E-004  0.1280562E+03  0.7818608E-02  0.1230369E+00
         -4   -1    0    0    0  501 -0.00000000000E+00  0.00000000000E+00  0.39489842809E+03  0.39490047025E+03  0.12700000000E+01 0. -1.
          4   -1    0    0  502    0  0.00000000000E+00 -0.00000000000E+00 -0.17948276988E+02  0.17993152776E+02  0.12700000000E+01 0. -1.
         25    2    1    2    0    0 -0.13234853492E+01 -0.27726736143E+02  0.35535559285E+03  0.37772476668E+03  0.12501151342E+03 0.  0.
    9000005    1    3    3    0    0 -0.68093622974E+01  0.17866571670E+02  0.31784570002E+03  0.31842184413E+03  0.10000000000E+01 0.  0.
    9000005    1    3    3    0    0  0.54858769482E+01 -0.45593307813E+02  0.37509892827E+02  0.59302922551E+02  0.10000000000E+01 0.  0.
         21    1    1    2  502  501  0.13234853492E+01  0.27726736143E+02  0.21594558251E+02  0.35168856346E+02  0.00000000000E+00 0.  1.
<mgrwt>
<rscale>  1 0.12805625E+03</rscale>
<asrwt>0</asrwt>
<pdfrwt beam="2">  1        4 0.27648828E-02 0.12805625E+03</pdfrwt>
<pdfrwt beam="1">  1       -4 0.60757206E-01 0.12805625E+03</pdfrwt>
<totfact> 0.25701493E+03</totfact>
</mgrwt>
</event>
<event>
 6    4  0.5642870E-004  0.1283424E+03  0.7818608E-02  0.1229936E+00
          4   -1    0    0  502    0  0.00000000000E+00  0.00000000000E+00  0.60154515767E+03  0.60154649830E+03  0.12700000000E+01 0. -1.
         -4   -1    0    0    0  501 -0.00000000000E+00 -0.00000000000E+00 -0.13100299948E+02  0.13161715646E+02  0.12700000000E+01 0. -1.
         25    2    1    2    0    0 -0.28649444491E+02  0.50732242593E+01  0.32131752403E+03  0.34600104866E+03  0.12500098458E+03 0.  0.
    9000005    1    3    3    0    0 -0.18145353221E+02 -0.41604185948E+02  0.27726348598E+03  0.28095587339E+03  0.10000000000E+01 0.  0.
    9000005    1    3    3    0    0 -0.10504091270E+02  0.46677410208E+02  0.44054038050E+02  0.65045175268E+02  0.10000000000E+01 0.  0.
         21    1    1    2  502  501  0.28649444491E+02 -0.50732242593E+01  0.26712733369E+03  0.26870716529E+03  0.00000000000E+00 0. -1.
<mgrwt>
<rscale>  1 0.12834241E+03</rscale>
<asrwt>0</asrwt>
<pdfrwt beam="1">  1        4 0.92550212E-01 0.12834241E+03</pdfrwt>
<pdfrwt beam="2">  1       -4 0.20202587E-02 0.12834241E+03</pdfrwt>
<totfact> 0.16682088E+03</totfact>
</mgrwt>
</event>
<event>
 6    4  0.5642870E-004  0.1277204E+03  0.7818608E-02  0.1230878E+00
          4   -1    0    0  502    0  0.00000000000E+00  0.00000000000E+00  0.53178654027E+02  0.53193816785E+02  0.12700000000E+01 0. -1.
         -4   -1    0    0    0  501 -0.00000000000E+00 -0.00000000000E+00 -0.12831958810E+03  0.12832587264E+03  0.12700000000E+01 0. -1.
         25    2    1    2    0    0  0.20795976872E+02 -0.15989045615E+02 -0.85084525290E+02  0.15346621834E+03  0.12499752595E+03 0.  0.
    9000005    1    3    3    0    0  0.63045044961E+02  0.12089125431E+02 -0.79849542137E+02  0.10245864545E+03  0.10000000000E+01 0.  0.
    9000005    1    3    3    0    0 -0.42249068089E+02 -0.28078171046E+02 -0.52349831525E+01  0.51007572892E+02  0.10000000000E+01 0.  0.
         21    1    1    2  502  501 -0.20795976872E+02  0.15989045615E+02  0.99435912188E+01  0.28053471088E+02  0.00000000000E+00 0.  1.
<mgrwt>
<rscale>  1 0.12772041E+03</rscale>
<asrwt>0</asrwt>
<pdfrwt beam="1">  1        4 0.81829812E-02 0.12772041E+03</pdfrwt>
<pdfrwt beam="2">  1       -4 0.19743125E-01 0.12772041E+03</pdfrwt>
<totfact> 0.39579588E+03</totfact>
</mgrwt>
</event>
<event>
 6    4  0.5642870E-004  0.1458359E+03  0.7818608E-02  0.1205685E+00
         -4   -1    0    0    0  501 -0.00000000000E+00  0.00000000000E+00  0.76467931793E+02  0.76478477316E+02  0.12700000000E+01 0.  1.
          4   -1    0    0  502    0  0.00000000000E+00 -0.00000000000E+00 -0.18917535521E+03  0.18917961814E+03  0.12700000000E+01 0.  1.
         25    2    1    2    0    0 -0.49192189050E+02 -0.56776096631E+02 -0.21365724900E+02  0.14739270533E+03  0.12499887509E+03 0.  0.
    9000005    1    3    3    0    0 -0.36214150340E+02 -0.76392434333E+02  0.30941835904E+02  0.90031471816E+02  0.10000000000E+01 0.  0.
    9000005    1    3    3    0    0 -0.12978038711E+02  0.19616337703E+02 -0.52307560803E+02  0.57361233519E+02  0.10000000000E+01 0.  0.
         21    1    1    2  502  501  0.49192189050E+02  0.56776096631E+02 -0.91341698520E+02  0.11826539012E+03  0.00000000000E+00 0.  1.
<mgrwt>
<rscale>  1 0.14583592E+03</rscale>
<asrwt>0</asrwt>
<pdfrwt beam="2">  1        4 0.29105040E-01 0.14583592E+03</pdfrwt>
<pdfrwt beam="1">  1       -4 0.11765436E-01 0.14583592E+03</pdfrwt>
<totfact> 0.10844014E+03</totfact>
</mgrwt>
</event>
<event>
 6    4  0.5642870E-004  0.1275195E+03  0.7818608E-02  0.1231183E+00
         -4   -1    0    0    0  501 -0.00000000000E+00  0.00000000000E+00  0.81741145111E+02  0.81751010416E+02  0.12700000000E+01 0. -1.
          4   -1    0    0  502    0  0.00000000000E+00 -0.00000000000E+00 -0.11209745923E+03  0.11210465318E+03  0.12700000000E+01 0. -1.
         25    2    1    2    0    0  0.14051783582E+02 -0.20935108576E+02  0.27759529465E+02  0.13050597798E+03  0.12500194966E+03 0.  0.
    9000005    1    3    3    0    0 -0.19943297197E+02  0.29564032038E+02  0.53582183730E+02  0.64372490295E+02  0.10000000000E+01 0.  0.
    9000005    1    3    3    0    0  0.33995080779E+02 -0.50499140614E+02 -0.25822654265E+02  0.66133487684E+02  0.10000000000E+01 0.  0.
         21    1    1    2  502  501 -0.14051783582E+02  0.20935108576E+02 -0.58115843580E+02  0.63349685618E+02  0.00000000000E+00 0. -1.
<mgrwt>
<rscale>  1 0.12751948E+03</rscale>
<asrwt>0</asrwt>
<pdfrwt beam="2">  1        4 0.17247075E-01 0.12751948E+03</pdfrwt>
<pdfrwt beam="1">  1       -4 0.12576873E-01 0.12751948E+03</pdfrwt>
<totfact> 0.24394603E+03</totfact>
</mgrwt>
</event>
<event>
 6    4  0.5642870E-004  0.1296927E+03  0.7818608E-02  0.1227912E+00
          4   -1    0    0  502    0  0.00000000000E+00  0.00000000000E+00  0.16456832405E+03  0.16457322437E+03  0.12700000000E+01 0.  1.
         -4   -1    0    0    0  501 -0.00000000000E+00 -0.00000000000E+00 -0.40971413701E+02  0.40991092211E+02  0.12700000000E+01 0.  1.
         25    2    1    2    0    0  0.22540726247E+02 -0.26197247161E+02  0.98236339323E+02  0.16269779513E+03  0.12500325627E+03 0.  0.
    9000005    1    3    3    0    0  0.68806107825E+01 -0.33474227658E+01 -0.30268846915E+02  0.31237015502E+02  0.10000000000E+01 0.  0.
    9000005    1    3    3    0    0  0.15660115464E+02 -0.22849824395E+02  0.12850518624E+03  0.13146077963E+03  0.10000000000E+01 0.  0.
         21    1    1    2  502  501 -0.22540726247E+02  0.26197247161E+02  0.25360571024E+02  0.42866521450E+02  0.00000000000E+00 0.  1.
<mgrwt>
<rscale>  1 0.12969269E+03</rscale>
<asrwt>0</asrwt>
<pdfrwt beam="1">  1        4 0.25320094E-01 0.12969269E+03</pdfrwt>
<pdfrwt beam="2">  1       -4 0.63051852E-02 0.12969269E+03</pdfrwt>
<totfact> 0.38764247E+03</totfact>
</mgrwt>
</event>
<event>
 6    4  0.5642870E-004  0.1268400E+03  0.7818608E-02  0.1232221E+00
         -4   -1    0    0    0  501 -0.00000000000E+00  0.00000000000E+00  0.82178584757E+01  0.83154132746E+01  0.12700000000E+01 0.  1.
          4   -1    0    0  502    0  0.00000000000E+00 -0.00000000000E+00 -0.76606249795E+03  0.76606355067E+03  0.12700000000E+01 0.  1.
         25    2    1    2    0    0 -0.11384423791E+02 -0.18274073456E+02 -0.50751275768E+03  0.52312292341E+03  0.12499938767E+03 0.  0.
    9000005    1    3    3    0    0 -0.57563662644E+02  0.13144141796E+02 -0.14885900984E+03  0.16014477366E+03  0.10000000000E+01 0.  0.
    9000005    1    3    3    0    0  0.46179238853E+02 -0.31418215252E+02 -0.35865374784E+03  0.36297814975E+03  0.10000000000E+01 0.  0.
         21    1    1    2  502  501  0.11384423791E+02  0.18274073456E+02 -0.25033188179E+03  0.25125604054E+03  0.00000000000E+00 0. -1.
<mgrwt>
<rscale>  1 0.12684003E+03</rscale>
<asrwt>0</asrwt>
<pdfrwt beam="2">  1        4 0.11786330E+00 0.12684003E+03</pdfrwt>
<pdfrwt beam="1">  1       -4 0.12718717E-02 0.12684003E+03</pdfrwt>
<totfact> 0.19204390E+03</totfact>
</mgrwt>
</event>
<event>
 6    4  0.5642870E-004  0.1269477E+03  0.7818608E-02  0.1232056E+00
         -4   -1    0    0    0  501 -0.00000000000E+00  0.00000000000E+00  0.87455240861E+01  0.88372558829E+01  0.12700000000E+01 0.  1.
          4   -1    0    0  502    0  0.00000000000E+00 -0.00000000000E+00 -0.72373761155E+03  0.72373872583E+03  0.12700000000E+01 0.  1.
         25    2    1    2    0    0  0.20581623962E+02  0.82369901088E+01 -0.47871939578E+03  0.49526556036E+03  0.12499705648E+03 0.  0.
    9000005    1    3    3    0    0  0.62317302648E+02  0.39680620532E+02 -0.25254760314E+03  0.26313359669E+03  0.10000000000E+01 0.  0.
    9000005    1    3    3    0    0 -0.41735678686E+02 -0.31443630424E+02 -0.22617179264E+03  0.23213196366E+03  0.10000000000E+01 0.  0.
         21    1    1    2  502  501 -0.20581623962E+02 -0.82369901088E+01 -0.23627269168E+03  0.23731042136E+03  0.00000000000E+00 0.  1.
<mgrwt>
<rscale>  1 0.12694769E+03</rscale>
<asrwt>0</asrwt>
<pdfrwt beam="2">  1        4 0.11135134E+00 0.12694769E+03</pdfrwt>
<pdfrwt beam="1">  1       -4 0.13526078E-02 0.12694769E+03</pdfrwt>
<totfact> 0.20016618E+03</totfact>
</mgrwt>
</event>
<event>
 6    4  0.5642870E-004  0.1307842E+03  0.7818608E-02  0.1226297E+00
         -4   -1    0    0    0  501 -0.00000000000E+00  0.00000000000E+00  0.11234781756E+03  0.11235499549E+03  0.12700000000E+01 0. -1.
          4   -1    0    0  502    0  0.00000000000E+00 -0.00000000000E+00 -0.17993760039E+03  0.17994208216E+03  0.12700000000E+01 0. -1.
         25    2    1    2    0    0  0.38305116397E+02 -0.35152425067E+01  0.70760039334E+02  0.14869933336E+03  0.12499947882E+03 0.  0.
    9000005    1    3    3    0    0 -0.42688251689E+02 -0.21318947647E+02  0.22735252038E+02  0.52864695651E+02  0.10000000000E+01 0.  0.
    9000005    1    3    3    0    0  0.80993368086E+02  0.17803705141E+02  0.48024787297E+02  0.95834637713E+02  0.10000000000E+01 0.  0.
         21    1    1    2  502  501 -0.38305116397E+02  0.35152425067E+01 -0.13834982216E+03  0.14359774428E+03  0.00000000000E+00 0. -1.
<mgrwt>
<rscale>  1 0.13078421E+03</rscale>
<asrwt>0</asrwt>
<pdfrwt beam="2">  1        4 0.27683605E-01 0.13078421E+03</pdfrwt>
<pdfrwt beam="1">  1       -4 0.17285176E-01 0.13078421E+03</pdfrwt>
<totfact> 0.59699778E+02</totfact>
</mgrwt>
</event>
<event>
 6    4  0.5642870E-004  0.1380985E+03  0.7818608E-02  0.1215911E+00
         -4   -1    0    0    0  501 -0.00000000000E+00  0.00000000000E+00  0.23537027561E+03  0.23537370189E+03  0.12700000000E+01 0. -1.
          4   -1    0    0  502    0  0.00000000000E+00 -0.00000000000E+00 -0.98506397450E+02  0.98514583888E+02  0.12700000000E+01 0. -1.
         25    2    1    2    0    0 -0.55660260126E+02  0.18622639133E+02  0.20296429299E+03  0.24549070614E+03  0.12500526119E+03 0.  0.
    9000005    1    3    3    0    0  0.66604267711E+01  0.79897615788E+01  0.17672426463E+03  0.17703294406E+03  0.10000000000E+01 0.  0.
    9000005    1    3    3    0    0 -0.62320686897E+02  0.10632877554E+02  0.26240028365E+02  0.68457762080E+02  0.10000000000E+01 0.  0.
         21    1    1    2  502  501  0.55660260126E+02 -0.18622639133E+02 -0.66100414829E+02  0.88397579640E+02  0.00000000000E+00 0. -1.
<mgrwt>
<rscale>  1 0.13809845E+03</rscale>
<asrwt>0</asrwt>
<pdfrwt beam="2">  1        4 0.15155724E-01 0.13809845E+03</pdfrwt>
<pdfrwt beam="1">  1       -4 0.36211704E-01 0.13809845E+03</pdfrwt>
<totfact> 0.45602180E+02</totfact>
</mgrwt>
</event>
<event>
 6    4  0.5642870E-004  0.1289056E+03  0.7818608E-02  0.1229089E+00
         -4   -1    0    0    0  501 -0.00000000000E+00  0.00000000000E+00  0.28945203665E+03  0.28945482276E+03  0.12700000000E+01 0.  1.
          4   -1    0    0  502    0  0.00000000000E+00 -0.00000000000E+00 -0.30382649518E+02  0.30409181043E+02  0.12700000000E+01 0.  1.
         25    2    1    2    0    0  0.16561348488E+02  0.26779110874E+02  0.25794044283E+03  0.28835728138E+03  0.12500100251E+03 0.  0.
    9000005    1    3    3    0    0 -0.31382067863E+02 -0.29822596915E+02  0.15840680429E+03  0.16421917402E+03  0.10000000000E+01 0.  0.
    9000005    1    3    3    0    0  0.47943416351E+02  0.56601707789E+02  0.99533638543E+02  0.12413810735E+03  0.10000000000E+01 0.  0.
         21    1    1    2  502  501 -0.16561348488E+02 -0.26779110874E+02  0.11289442950E+01  0.31506722428E+02  0.00000000000E+00 0. -1.
<mgrwt>
<rscale>  1 0.12890558E+03</rscale>
<asrwt>0</asrwt>
<pdfrwt beam="2">  1        4 0.46765089E-02 0.12890558E+03</pdfrwt>
<pdfrwt beam="1">  1       -4 0.44533339E-01 0.12890558E+03</pdfrwt>
<totfact> 0.21218188E+03</totfact>
</mgrwt>
</event>
<event>
 6    4  0.5642870E-004  0.1352531E+03  0.7818608E-02  0.1219863E+00
         -4   -1    0    0    0  501 -0.00000000000E+00  0.00000000000E+00  0.49802417656E+02  0.49818608013E+02  0.12700000000E+01 0. -1.
          4   -1    0    0  502    0  0.00000000000E+00 -0.00000000000E+00 -0.20443158429E+03  0.20443552909E+03  0.12700000000E+01 0. -1.
         25    2    1    2    0    0 -0.35825096839E+02  0.37214673084E+02 -0.63309741800E+02  0.14933699452E+03  0.12500018028E+03 0.  0.
    9000005    1    3    3    0    0  0.39074146758E+02  0.42950646889E+02 -0.14863663311E+02  0.59945604510E+02  0.10000000000E+01 0.  0.
    9000005    1    3    3    0    0 -0.74899243598E+02 -0.57359738045E+01 -0.48446078489E+02  0.89391390010E+02  0.10000000000E+01 0.  0.
         21    1    1    2  502  501  0.35825096839E+02 -0.37214673084E+02 -0.91319424833E+02  0.10491714258E+03  0.00000000000E+00 0. -1.
<mgrwt>
<rscale>  1 0.13525315E+03</rscale>
<asrwt>0</asrwt>
<pdfrwt beam="2">  1        4 0.31452561E-01 0.13525315E+03</pdfrwt>
<pdfrwt beam="1">  1       -4 0.76634594E-02 0.13525315E+03</pdfrwt>
<totfact> 0.18932413E+03</totfact>
</mgrwt>
</event>
<event>
 6    4  0.5642870E-004  0.1356127E+03  0.7818608E-02  0.1219357E+00
          4   -1    0    0  502    0  0.00000000000E+00  0.00000000000E+00  0.30823632851E+03  0.30823894484E+03  0.12700000000E+01 0.  1.
         -4   -1    0    0    0  501 -0.00000000000E+00 -0.00000000000E+00 -0.51698779012E+02  0.51714375674E+02  0.12700000000E+01 0.  1.
         25    2    1    2    0    0 -0.48127459397E+02  0.21077824627E+02  0.46375325696E+02  0.14332301941E+03  0.12502115830E+03 0.  0.
    9000005    1    3    3    0    0 -0.54573465739E+02 -0.78038383677E+01 -0.29029851803E+02  0.62312882711E+02  0.10000000000E+01 0.  0.
    9000005    1    3    3    0    0  0.64460063424E+01  0.28881662995E+02  0.75405177499E+02  0.81010136704E+02  0.10000000000E+01 0.  0.
         21    1    1    2  502  501  0.48127459397E+02 -0.21077824627E+02  0.21016222381E+03  0.21663030110E+03  0.00000000000E+00 0.  1.
<mgrwt>
<rscale>  1 0.13561275E+03</rscale>
<asrwt>0</asrwt>
<pdfrwt beam="1">  1        4 0.47422375E-01 0.13561275E+03</pdfrwt>
<pdfrwt beam="2">  1       -4 0.79550592E-02 0.13561275E+03</pdfrwt>
<totfact> 0.79682207E+02</totfact>
</mgrwt>
</event>
<event>
 6    4  0.5642870E-004  0.1273551E+03  0.7818608E-02  0.1231434E+00
          4   -1    0    0  502    0  0.00000000000E+00  0.00000000000E+00  0.25970911336E+02  0.26001944843E+02  0.12700000000E+01 0. -1.
         -4   -1    0    0    0  501 -0.00000000000E+00 -0.00000000000E+00 -0.26615952772E+03  0.26616255765E+03  0.12700000000E+01 0. -1.
         25    2    1    2    0    0 -0.19381497465E+02  0.14809690937E+02 -0.23490445215E+03  0.26720670249E+03  0.12499740326E+03 0.  0.
    9000005    1    3    3    0    0 -0.54039308606E+01 -0.49736110776E+02 -0.15849840363E+03  0.16620958799E+03  0.10000000000E+01 0.  0.
    9000005    1    3    3    0    0 -0.13977566604E+02  0.64545801713E+02 -0.76406048521E+02  0.10099711450E+03  0.10000000000E+01 0.  0.
         21    1    1    2  502  501  0.19381497465E+02 -0.14809690937E+02 -0.52841642291E+01  0.24957800008E+02  0.00000000000E+00 0. -1.
<mgrwt>
<rscale>  1 0.12735509E+03</rscale>
<asrwt>0</asrwt>
<pdfrwt beam="1">  1        4 0.39981453E-02 0.12735509E+03</pdfrwt>
<pdfrwt beam="2">  1       -4 0.40950238E-01 0.12735509E+03</pdfrwt>
<totfact> 0.32076562E+03</totfact>
</mgrwt>
</event>
<event>
 6    4  0.5642870E-004  0.1289331E+03  0.7818608E-02  0.1229047E+00
          4   -1    0    0  502    0  0.00000000000E+00  0.00000000000E+00  0.34690041931E+03  0.34690274404E+03  0.12700000000E+01 0. -1.
         -4   -1    0    0    0  501 -0.00000000000E+00 -0.00000000000E+00 -0.24866803840E+02  0.24899213506E+02  0.12700000000E+01 0. -1.
         25    2    1    2    0    0  0.31589431129E+02 -0.11267923881E+01  0.15412264758E+03  0.20094161996E+03  0.12499832925E+03 0.  0.
    9000005    1    3    3    0    0 -0.17194387706E+02 -0.48252962342E+02  0.29680314566E+02  0.59210779560E+02  0.10000000000E+01 0.  0.
    9000005    1    3    3    0    0  0.48783818835E+02  0.47126169954E+02  0.12444233302E+03  0.14173084040E+03  0.10000000000E+01 0.  0.
         21    1    1    2  502  501 -0.31589431129E+02  0.11267923881E+01  0.16791096789E+03  0.17086033758E+03  0.00000000000E+00 0. -1.
<mgrwt>
<rscale>  1 0.12893310E+03</rscale>
<asrwt>0</asrwt>
<pdfrwt beam="1">  1        4 0.53371968E-01 0.12893310E+03</pdfrwt>
<pdfrwt beam="2">  1       -4 0.38283339E-02 0.12893310E+03</pdfrwt>
<totfact> 0.20215062E+03</totfact>
</mgrwt>
</event>
<event>
 6    4  0.5642870E-004  0.1269984E+03  0.7818608E-02  0.1231979E+00
         -4   -1    0    0    0  501 -0.00000000000E+00  0.00000000000E+00  0.11050927268E+02  0.11123663672E+02  0.12700000000E+01 0. -1.
          4   -1    0    0  502    0  0.00000000000E+00 -0.00000000000E+00 -0.53738554738E+03  0.53738704807E+03  0.12700000000E+01 0. -1.
         25    2    1    2    0    0 -0.21990796655E+02  0.44840715025E+01 -0.38500585761E+03  0.40541102220E+03  0.12499953799E+03 0.  0.
    9000005    1    3    3    0    0 -0.51075595850E+02 -0.43454714804E+02 -0.15930239950E+03  0.17284467946E+03  0.10000000000E+01 0.  0.
    9000005    1    3    3    0    0  0.29084799195E+02  0.47938786307E+02 -0.22570345811E+03  0.23256634275E+03  0.10000000000E+01 0.  0.
         21    1    1    2  502  501  0.21990796655E+02 -0.44840715025E+01 -0.14132876250E+03  0.14309968954E+03  0.00000000000E+00 0. -1.
<mgrwt>
<rscale>  1 0.12699837E+03</rscale>
<asrwt>0</asrwt>
<pdfrwt beam="2">  1        4 0.82680390E-01 0.12699837E+03</pdfrwt>
<pdfrwt beam="1">  1       -4 0.17058536E-02 0.12699837E+03</pdfrwt>
<totfact> 0.27785058E+03</totfact>
</mgrwt>
</event>
<event>
 6    4  0.5642870E-004  0.1272043E+03  0.7818608E-02  0.1231664E+00
         -4   -1    0    0    0  501 -0.00000000000E+00  0.00000000000E+00  0.14738849804E+04  0.14738855275E+04  0.12700000000E+01 0.  1.
          4   -1    0    0  502    0  0.00000000000E+00 -0.00000000000E+00 -0.37935515235E+01  0.40004916149E+01  0.12700000000E+01 0.  1.
         25    2    1    2    0    0 -0.22099034420E+02 -0.81927121270E+01  0.12906539426E+04  0.12969072930E+04  0.12500175669E+03 0.  0.
    9000005    1    3    3    0    0 -0.47761786014E+01 -0.47270587520E+02  0.20597480991E+03  0.21138576737E+03  0.10000000000E+01 0.  0.
    9000005    1    3    3    0    0 -0.17322855819E+02  0.39077875393E+02  0.10846791327E+04  0.10855215256E+04  0.10000000000E+01 0.  0.
         21    1    1    2  502  501  0.22099034420E+02  0.81927121270E+01  0.17943748626E+03  0.18097872618E+03  0.00000000000E+00 0.  1.
<mgrwt>
<rscale>  1 0.12720427E+03</rscale>
<asrwt>0</asrwt>
<pdfrwt beam="2">  1        4 0.59958395E-03 0.12720427E+03</pdfrwt>
<pdfrwt beam="1">  1       -4 0.22676747E+00 0.12720427E+03</pdfrwt>
<totfact> 0.10444764E+03</totfact>
</mgrwt>
</event>
<event>
 6    4  0.5642870E-004  0.1270600E+03  0.7818608E-02  0.1231884E+00
          4   -1    0    0  502    0  0.00000000000E+00  0.00000000000E+00  0.53537827169E+02  0.53552888232E+02  0.12700000000E+01 0.  1.
         -4   -1    0    0    0  501 -0.00000000000E+00 -0.00000000000E+00 -0.12943383363E+03  0.12944006408E+03  0.12700000000E+01 0.  1.
         25    2    1    2    0    0  0.66557749830E+01  0.21797482108E+02 -0.90436720578E+02  0.15595849404E+03  0.12499928747E+03 0.  0.
    9000005    1    3    3    0    0  0.96579698092E+01  0.72272184374E+02 -0.71003981444E+02  0.10177971505E+03  0.10000000000E+01 0.  0.
    9000005    1    3    3    0    0 -0.30021948262E+01 -0.50474702265E+02 -0.19432739135E+02  0.54178778990E+02  0.10000000000E+01 0.  0.
         21    1    1    2  502  501 -0.66557749830E+01 -0.21797482108E+02  0.14540714116E+02  0.27034458269E+02  0.00000000000E+00 0.  1.
<mgrwt>
<rscale>  1 0.12706003E+03</rscale>
<asrwt>0</asrwt>
<pdfrwt beam="1">  1        4 0.82382267E-02 0.12706003E+03</pdfrwt>
<pdfrwt beam="2">  1       -4 0.19914535E-01 0.12706003E+03</pdfrwt>
<totfact> 0.38488690E+03</totfact>
</mgrwt>
</event>
<event>
 6    4  0.5642870E-004  0.1267971E+03  0.7818608E-02  0.1232287E+00
          4   -1    0    0  502    0  0.00000000000E+00  0.00000000000E+00  0.67041042945E+03  0.67041163237E+03  0.12700000000E+01 0. -1.
         -4   -1    0    0    0  501 -0.00000000000E+00 -0.00000000000E+00 -0.85654486870E+01  0.86590883590E+01  0.12700000000E+01 0. -1.
         25    2    1    2    0    0 -0.20170861606E+02 -0.68220536978E+01  0.60971001999E+03  0.62275501946E+03  0.12499640679E+03 0.  0.
    9000005    1    3    3    0    0  0.56709536980E+01  0.54955659095E+02  0.36017575394E+03  0.36438970610E+03  0.10000000000E+01 0.  0.
    9000005    1    3    3    0    0 -0.25841815304E+02 -0.61777712793E+02  0.24953426605E+03  0.25836531336E+03  0.10000000000E+01 0.  0.
         21    1    1    2  502  501  0.20170861606E+02  0.68220536978E+01  0.52134960779E+02  0.56315701275E+02  0.00000000000E+00 0.  1.
<mgrwt>
<rscale>  1 0.12679710E+03</rscale>
<asrwt>0</asrwt>
<pdfrwt beam="1">  1        4 0.10314738E+00 0.12679710E+03</pdfrwt>
<pdfrwt beam="2">  1       -4 0.13250567E-02 0.12679710E+03</pdfrwt>
<totfact> 0.24699795E+03</totfact>
</mgrwt>
</event>
<event>
 6    4  0.5642870E-004  0.1358586E+03  0.7818608E-02  0.1219013E+00
         -4   -1    0    0    0  501 -0.00000000000E+00  0.00000000000E+00  0.10842963207E+03  0.10843706936E+03  0.12700000000E+01 0. -1.
          4   -1    0    0  502    0  0.00000000000E+00 -0.00000000000E+00 -0.87158206655E+02  0.87167458879E+02  0.12700000000E+01 0. -1.
         25    2    1    2    0    0 -0.47394522576E+02  0.24186097975E+02  0.35705909718E+02  0.14047230135E+03  0.12500538929E+03 0.  0.
    9000005    1    3    3    0    0 -0.48134402618E+02 -0.21883016066E+02  0.66559812372E+02  0.85011738781E+02  0.10000000000E+01 0.  0.
    9000005    1    3    3    0    0  0.73988004240E+00  0.46069114041E+02 -0.30853902654E+02  0.55460562565E+02  0.10000000000E+01 0.  0.
         21    1    1    2  502  501  0.47394522576E+02 -0.24186097975E+02 -0.14434484299E+02  0.55132226895E+02  0.00000000000E+00 0. -1.
<mgrwt>
<rscale>  1 0.13585859E+03</rscale>
<asrwt>0</asrwt>
<pdfrwt beam="2">  1        4 0.13410239E-01 0.13585859E+03</pdfrwt>
<pdfrwt beam="1">  1       -4 0.16682766E-01 0.13585859E+03</pdfrwt>
<totfact> 0.23507598E+03</totfact>
</mgrwt>
</event>
<event>
 6    4  0.5642870E-004  0.1313627E+03  0.7818608E-02  0.1225448E+00
         -4   -1    0    0    0  501 -0.00000000000E+00  0.00000000000E+00  0.29275712380E+03  0.29275987846E+03  0.12700000000E+01 0.  1.
          4   -1    0    0  502    0  0.00000000000E+00 -0.00000000000E+00 -0.49236225433E+02  0.49252601910E+02  0.12700000000E+01 0.  1.
         25    2    1    2    0    0  0.40310425800E+02  0.24127325520E+01  0.26536588558E+03  0.29610000741E+03  0.12500163779E+03 0.  0.
    9000005    1    3    3    0    0  0.61141730285E+02 -0.43113690855E+02  0.20150260103E+03  0.21494510867E+03  0.10000000000E+01 0.  0.
    9000005    1    3    3    0    0 -0.20831304486E+02  0.45526423407E+02  0.63863284555E+02  0.81154898737E+02  0.10000000000E+01 0.  0.
         21    1    1    2  502  501 -0.40310425800E+02 -0.24127325520E+01 -0.21844987218E+02  0.45912472957E+02  0.00000000000E+00 0.  1.
<mgrwt>
<rscale>  1 0.13136271E+03</rscale>
<asrwt>0</asrwt>
<pdfrwt beam="2">  1        4 0.75762755E-02 0.13136271E+03</pdfrwt>
<pdfrwt beam="1">  1       -4 0.45041029E-01 0.13136271E+03</pdfrwt>
<totfact> 0.95174363E+02</totfact>
</mgrwt>
</event>
<event>
 6    4  0.5642870E-004  0.1276747E+03  0.7818608E-02  0.1230947E+00
         -4   -1    0    0    0  501 -0.00000000000E+00  0.00000000000E+00  0.68299665137E+03  0.68299783212E+03  0.12700000000E+01 0.  1.
          4   -1    0    0  502    0  0.00000000000E+00 -0.00000000000E+00 -0.90472611034E+01  0.91359637408E+01  0.12700000000E+01 0.  1.
         25    2    1    2    0    0  0.11661581603E+02  0.23202916690E+02  0.60789854292E+03  0.62116139092E+03  0.12500586888E+03 0.  0.
    9000005    1    3    3    0    0  0.46402265050E+02  0.22155043007E+02  0.55787380597E+03  0.56023941267E+03  0.10000000000E+01 0.  0.
    9000005    1    3    3    0    0 -0.34740683447E+02  0.10478736834E+01  0.50024736960E+02  0.60921978247E+02  0.10000000000E+01 0.  0.
         21    1    1    2  502  501 -0.11661581603E+02 -0.23202916690E+02  0.66050847339E+02  0.70972404938E+02  0.00000000000E+00 0.  1.
<mgrwt>
<rscale>  1 0.12767472E+03</rscale>
<asrwt>0</asrwt>
<pdfrwt beam="2">  1        4 0.13988004E-02 0.12767472E+03</pdfrwt>
<pdfrwt beam="1">  1       -4 0.10508333E+00 0.12767472E+03</pdfrwt>
<totfact> 0.21820065E+03</totfact>
</mgrwt>
</event>
<event>
 6    4  0.5642870E-004  0.1296212E+03  0.7818608E-02  0.1228019E+00
          4   -1    0    0  502    0  0.00000000000E+00  0.00000000000E+00  0.31879130083E+03  0.31879383053E+03  0.12700000000E+01 0.  1.
         -4   -1    0    0    0  501 -0.00000000000E+00 -0.00000000000E+00 -0.21120745295E+02  0.21158893681E+02  0.12700000000E+01 0.  1.
         25    2    1    2    0    0  0.32680007500E+02 -0.10407138056E+02  0.24313248815E+03  0.27552685824E+03  0.12500140560E+03 0.  0.
    9000005    1    3    3    0    0 -0.58511777668E+01  0.43871446968E+02  0.17403450916E+03  0.17957714364E+03  0.10000000000E+01 0.  0.
    9000005    1    3    3    0    0  0.38531185267E+02 -0.54278585023E+02  0.69097978994E+02  0.95949714597E+02  0.10000000000E+01 0.  0.
         21    1    1    2  502  501 -0.32680007500E+02  0.10407138056E+02  0.54538067385E+02  0.64425865977E+02  0.00000000000E+00 0.  1.
<mgrwt>
<rscale>  1 0.12962115E+03</rscale>
<asrwt>0</asrwt>
<pdfrwt beam="1">  1        4 0.49047942E-01 0.12962115E+03</pdfrwt>
<pdfrwt beam="2">  1       -4 0.32524747E-02 0.12962115E+03</pdfrwt>
<totfact> 0.31103027E+03</totfact>
</mgrwt>
</event>
<event>
 6    4  0.5642870E-004  0.1299400E+03  0.7818608E-02  0.1227545E+00
         -4   -1    0    0    0  501 -0.00000000000E+00  0.00000000000E+00  0.66451510746E+01  0.67654218497E+01  0.12700000000E+01 0.  1.
          4   -1    0    0  502    0  0.00000000000E+00 -0.00000000000E+00 -0.12059834957E+04  0.12059841644E+04  0.12700000000E+01 0.  1.
         25    2    1    2    0    0 -0.18314077037E+01 -0.35421686575E+02 -0.68670533808E+03  0.69889099740E+03  0.12500541979E+03 0.  0.
    9000005    1    3    3    0    0  0.10238121388E+02 -0.68944827602E+02 -0.61372940162E+03  0.61767547045E+03  0.10000000000E+01 0.  0.
    9000005    1    3    3    0    0 -0.12069529091E+02  0.33523141027E+02 -0.72975936459E+02  0.81215526957E+02  0.10000000000E+01 0.  0.
         21    1    1    2  502  501  0.18314077037E+01  0.35421686575E+02 -0.51263300651E+03  0.51385858882E+03  0.00000000000E+00 0.  1.
<mgrwt>
<rscale>  1 0.12994001E+03</rscale>
<asrwt>0</asrwt>
<pdfrwt beam="2">  1        4 0.18554505E+00 0.12994001E+03</pdfrwt>
<pdfrwt beam="1">  1       -4 0.10316349E-02 0.12994001E+03</pdfrwt>
<totfact> 0.83391752E+02</totfact>
</mgrwt>
</event>
<event>
 6    4  0.5642870E-004  0.1289911E+03  0.7818608E-02  0.1228961E+00
         -4   -1    0    0    0  501 -0.00000000000E+00  0.00000000000E+00  0.24357517196E+02  0.24390603599E+02  0.12700000000E+01 0. -1.
          4   -1    0    0  502    0  0.00000000000E+00 -0.00000000000E+00 -0.50688350862E+03  0.50688509961E+03  0.12700000000E+01 0. -1.
         25    2    1    2    0    0  0.31799907157E+02 -0.16490752916E+01 -0.15258664204E+03  0.19980333964E+03  0.12499895062E+03 0.  0.
    9000005    1    3    3    0    0  0.65271050896E+02  0.28315908938E+02 -0.13288865174E+03  0.15073982402E+03  0.10000000000E+01 0.  0.
    9000005    1    3    3    0    0 -0.33471143738E+02 -0.29964984230E+02 -0.19697990307E+02  0.49063515622E+02  0.10000000000E+01 0.  0.
         21    1    1    2  502  501 -0.31799907157E+02  0.16490752916E+01 -0.32993934937E+03  0.33147236357E+03  0.00000000000E+00 0. -1.
<mgrwt>
<rscale>  1 0.12899105E+03</rscale>
<asrwt>0</asrwt>
<pdfrwt beam="2">  1        4 0.77984738E-01 0.12899105E+03</pdfrwt>
<pdfrwt beam="1">  1       -4 0.37499782E-02 0.12899105E+03</pdfrwt>
<totfact> 0.93307213E+02</totfact>
</mgrwt>
</event>
<event>
 6    4  0.5642870E-004  0.1297081E+03  0.7818608E-02  0.1227889E+00
         -4   -1    0    0    0  501 -0.00000000000E+00  0.00000000000E+00  0.17353541470E+02  0.17399951194E+02  0.12700000000E+01 0.  1.
          4   -1    0    0  502    0  0.00000000000E+00 -0.00000000000E+00 -0.38847752351E+03  0.38847959942E+03  0.12700000000E+01 0.  1.
         25    2    1    2    0    0  0.27411501703E+02 -0.21130771058E+02 -0.29507776616E+03  0.32232760953E+03  0.12500519937E+03 0.  0.
    9000005    1    3    3    0    0  0.67077768847E+02  0.97221640966E+01 -0.99510548887E+02  0.12040472120E+03  0.10000000000E+01 0.  0.
    9000005    1    3    3    0    0 -0.39666267145E+02 -0.30852935155E+02 -0.19556721728E+03  0.20192288833E+03  0.10000000000E+01 0.  0.
         21    1    1    2  502  501 -0.27411501703E+02  0.21130771058E+02 -0.76046215874E+02  0.83551941089E+02  0.00000000000E+00 0. -1.
<mgrwt>
<rscale>  1 0.12970813E+03</rscale>
<asrwt>0</asrwt>
<pdfrwt beam="2">  1        4 0.59769496E-01 0.12970813E+03</pdfrwt>
<pdfrwt beam="1">  1       -4 0.26735056E-02 0.12970813E+03</pdfrwt>
<totfact> 0.28116636E+03</totfact>
</mgrwt>
</event>
<event>
 6    4  0.5642870E-004  0.1274922E+03  0.7818608E-02  0.1231225E+00
         -4   -1    0    0    0  501 -0.00000000000E+00  0.00000000000E+00  0.14371087173E+03  0.14371648323E+03  0.12700000000E+01 0. -1.
          4   -1    0    0  502    0  0.00000000000E+00 -0.00000000000E+00 -0.41838090790E+02  0.41857361849E+02  0.12700000000E+01 0. -1.
         25    2    1    2    0    0  0.25046074980E+02  0.15953451309E+01  0.96533037925E+02  0.15991524314E+03  0.12499762630E+03 0.  0.
    9000005    1    3    3    0    0  0.69107478490E+02 -0.23230806261E+02  0.76004776228E+02  0.10532445088E+03  0.10000000000E+01 0.  0.
    9000005    1    3    3    0    0 -0.44061403510E+02  0.24826151392E+02  0.20528261697E+02  0.54590792269E+02  0.10000000000E+01 0.  0.
         21    1    1    2  502  501 -0.25046074980E+02 -0.15953451309E+01  0.53397430138E+01  0.25658601939E+02  0.00000000000E+00 0. -1.
<mgrwt>
<rscale>  1 0.12749219E+03</rscale>
<asrwt>0</asrwt>
<pdfrwt beam="2">  1        4 0.64385435E-02 0.12749219E+03</pdfrwt>
<pdfrwt beam="1">  1       -4 0.22111279E-01 0.12749219E+03</pdfrwt>
<totfact> 0.47817006E+03</totfact>
</mgrwt>
</event>
<event>
 6    4  0.5642870E-004  0.1273663E+03  0.7818608E-02  0.1231417E+00
         -4   -1    0    0    0  501 -0.00000000000E+00  0.00000000000E+00  0.32294830117E+03  0.32295079831E+03  0.12700000000E+01 0. -1.
          4   -1    0    0  502    0  0.00000000000E+00 -0.00000000000E+00 -0.21917512207E+02  0.21954276152E+02  0.12700000000E+01 0. -1.
         25    2    1    2    0    0 -0.21422138256E+02 -0.11731092557E+02  0.29251178408E+03  0.31903810741E+03  0.12500257444E+03 0.  0.
    9000005    1    3    3    0    0 -0.13472267186E+02  0.53016739733E+02  0.81421094098E+02  0.98095215169E+02  0.10000000000E+01 0.  0.
    9000005    1    3    3    0    0 -0.79498710699E+01 -0.64747832289E+02  0.21109068998E+03  0.22094289224E+03  0.10000000000E+01 0.  0.
         21    1    1    2  502  501  0.21422138256E+02  0.11731092557E+02  0.85190048834E+01  0.25866967048E+02  0.00000000000E+00 0. -1.
<mgrwt>
<rscale>  1 0.12736628E+03</rscale>
<asrwt>0</asrwt>
<pdfrwt beam="2">  1        4 0.33749451E-02 0.12736628E+03</pdfrwt>
<pdfrwt beam="1">  1       -4 0.49687374E-01 0.12736628E+03</pdfrwt>
<totfact> 0.28465136E+03</totfact>
</mgrwt>
</event>
<event>
 6    4  0.5642870E-004  0.1324083E+03  0.7818608E-02  0.1223925E+00
          4   -1    0    0  502    0  0.00000000000E+00  0.00000000000E+00  0.96459314905E+02  0.96467675062E+02  0.12700000000E+01 0. -1.
         -4   -1    0    0    0  501 -0.00000000000E+00 -0.00000000000E+00 -0.93697954745E+02  0.93706561261E+02  0.12700000000E+01 0. -1.
         25    2    1    2    0    0  0.61763798644E+01  0.43238723268E+02 -0.29769139332E+02  0.13571353255E+03  0.12499690557E+03 0.  0.
    9000005    1    3    3    0    0  0.42925304260E+01 -0.44157273411E+02 -0.16218568111E+02  0.47247566754E+02  0.10000000000E+01 0.  0.
    9000005    1    3    3    0    0  0.18838494384E+01  0.87395996679E+02 -0.13550571221E+02  0.88465965799E+02  0.10000000000E+01 0.  0.
         21    1    1    2  502  501 -0.61763798644E+01 -0.43238723268E+02  0.32530499492E+02  0.54460703771E+02  0.00000000000E+00 0.  1.
<mgrwt>
<rscale>  1 0.13240831E+03</rscale>
<asrwt>0</asrwt>
<pdfrwt beam="1">  1        4 0.14841200E-01 0.13240831E+03</pdfrwt>
<pdfrwt beam="2">  1       -4 0.14416375E-01 0.13240831E+03</pdfrwt>
<totfact> 0.25312010E+03</totfact>
</mgrwt>
</event>
<event>
 6    4  0.5642870E-004  0.1266651E+03  0.7818608E-02  0.1232490E+00
         -4   -1    0    0    0  501 -0.00000000000E+00  0.00000000000E+00  0.22388996514E+03  0.22389356711E+03  0.12700000000E+01 0. -1.
          4   -1    0    0  502    0  0.00000000000E+00 -0.00000000000E+00 -0.41383351620E+02  0.41402834339E+02  0.12700000000E+01 0. -1.
         25    2    1    2    0    0  0.14136633602E+02 -0.14673480295E+02  0.20113042353E+03  0.23769202257E+03  0.12501557859E+03 0.  0.
    9000005    1    3    3    0    0  0.68029792570E+02  0.38924482976E+01  0.91098883291E+02  0.11376823092E+03  0.10000000000E+01 0.  0.
    9000005    1    3    3    0    0 -0.53893158968E+02 -0.18565928593E+02  0.11003154024E+03  0.12392379165E+03  0.10000000000E+01 0.  0.
         21    1    1    2  502  501 -0.14136633602E+02  0.14673480295E+02 -0.18623810012E+02  0.27604378872E+02  0.00000000000E+00 0. -1.
<mgrwt>
<rscale>  1 0.12666511E+03</rscale>
<asrwt>0</asrwt>
<pdfrwt beam="2">  1        4 0.63684453E-02 0.12666511E+03</pdfrwt>
<pdfrwt beam="1">  1       -4 0.34446385E-01 0.12666511E+03</pdfrwt>
<totfact> 0.21234283E+03</totfact>
</mgrwt>
</event>
<event>
 6    4  0.5642870E-004  0.1340377E+03  0.7818608E-02  0.1221585E+00
         -4   -1    0    0    0  501 -0.00000000000E+00  0.00000000000E+00  0.32325789695E+03  0.32326039170E+03  0.12700000000E+01 0. -1.
          4   -1    0    0  502    0  0.00000000000E+00 -0.00000000000E+00 -0.26787520511E+02  0.26817609049E+02  0.12700000000E+01 0. -1.
         25    2    1    2    0    0 -0.30115498125E+02 -0.37880591991E+02  0.24605776994E+03  0.28019729260E+03  0.12499685659E+03 0.  0.
    9000005    1    3    3    0    0 -0.21121004810E+02 -0.84127271630E+02  0.15261043622E+03  0.17554042247E+03  0.10000000000E+01 0.  0.
    9000005    1    3    3    0    0 -0.89944933152E+01  0.46246679639E+02  0.93447333714E+02  0.10465687013E+03  0.10000000000E+01 0.  0.
         21    1    1    2  502  501  0.30115498125E+02  0.37880591991E+02  0.50412606505E+02  0.69880708150E+02  0.00000000000E+00 0. -1.
<mgrwt>
<rscale>  1 0.13403767E+03</rscale>
<asrwt>0</asrwt>
<pdfrwt beam="2">  1        4 0.41236635E-02 0.13403767E+03</pdfrwt>
<pdfrwt beam="1">  1       -4 0.49734490E-01 0.13403767E+03</pdfrwt>
<totfact> 0.20943218E+03</totfact>
</mgrwt>
</event>
<event>
 6    4  0.5642870E-004  0.1287558E+03  0.7818608E-02  0.1229314E+00
         -4   -1    0    0    0  501 -0.00000000000E+00  0.00000000000E+00  0.11900385956E+04  0.11900392732E+04  0.12700000000E+01 0.  1.
          4   -1    0    0  502    0  0.00000000000E+00 -0.00000000000E+00 -0.73717969703E+01  0.74803937444E+01  0.12700000000E+01 0.  1.
         25    2    1    2    0    0 -0.19883562148E+02  0.23669360278E+02  0.11226525220E+04  0.11300118300E+04  0.12498982395E+03 0.  0.
    9000005    1    3    3    0    0 -0.11060029827E+02  0.17011023586E+02  0.24603014762E+02  0.31906230091E+02  0.10000000000E+01 0.  0.
    9000005    1    3    3    0    0 -0.88235323210E+01  0.66583366912E+01  0.10980495073E+04  0.10981055999E+04  0.10000000000E+01 0.  0.
         21    1    1    2  502  501  0.19883562148E+02 -0.23669360278E+02  0.60014276557E+02  0.67507836954E+02  0.00000000000E+00 0.  1.
<mgrwt>
<rscale>  1 0.12875578E+03</rscale>
<asrwt>0</asrwt>
<pdfrwt beam="2">  1        4 0.11425290E-02 0.12875578E+03</pdfrwt>
<pdfrwt beam="1">  1       -4 0.18309116E+00 0.12875578E+03</pdfrwt>
<totfact> 0.74022279E+02</totfact>
</mgrwt>
</event>
<event>
 6    4  0.5642870E-004  0.1303825E+03  0.7818608E-02  0.1226889E+00
          4   -1    0    0  502    0  0.00000000000E+00  0.00000000000E+00  0.35964126064E+02  0.35986542811E+02  0.12700000000E+01 0.  1.
         -4   -1    0    0    0  501 -0.00000000000E+00 -0.00000000000E+00 -0.24914155491E+03  0.24914479180E+03  0.12700000000E+01 0.  1.
         25    2    1    2    0    0  0.32346953728E+02  0.18132846992E+02 -0.21093846572E+03  0.24798111912E+03  0.12499789423E+03 0.  0.
    9000005    1    3    3    0    0 -0.15978354343E+02  0.62587470393E+02 -0.99517256921E+02  0.11864730795E+03  0.10000000000E+01 0.  0.
    9000005    1    3    3    0    0  0.48325308071E+02 -0.44454623401E+02 -0.11142120880E+03  0.12933381117E+03  0.10000000000E+01 0.  0.
         21    1    1    2  502  501 -0.32346953728E+02 -0.18132846992E+02 -0.22389631236E+01  0.37150215496E+02  0.00000000000E+00 0. -1.
<mgrwt>
<rscale>  1 0.13038251E+03</rscale>
<asrwt>0</asrwt>
<pdfrwt beam="1">  1        4 0.55349160E-02 0.13038251E+03</pdfrwt>
<pdfrwt beam="2">  1       -4 0.38331442E-01 0.13038251E+03</pdfrwt>
<totfact> 0.21820238E+03</totfact>
</mgrwt>
</event>
<event>
 6    4  0.5642870E-004  0.1271770E+03  0.7818608E-02  0.1231706E+00
          4   -1    0    0  502    0  0.00000000000E+00  0.00000000000E+00  0.74081474511E+01  0.75162190400E+01  0.12700000000E+01 0. -1.
         -4   -1    0    0    0  501 -0.00000000000E+00 -0.00000000000E+00 -0.89819081095E+03  0.89819170881E+03  0.12700000000E+01 0. -1.
         25    2    1    2    0    0  0.11008550063E+02  0.20690581519E+02 -0.84241980616E+03  0.85196544644E+03  0.12499881511E+03 0.  0.
    9000005    1    3    3    0    0  0.12840559018E+02 -0.50958067013E+02 -0.44934395089E+03  0.45240754939E+03  0.10000000000E+01 0.  0.
    9000005    1    3    3    0    0 -0.18320089556E+01  0.71648648532E+02 -0.39307585528E+03  0.39955789705E+03  0.10000000000E+01 0.  0.
         21    1    1    2  502  501 -0.11008550063E+02 -0.20690581519E+02 -0.48362857333E+02  0.53742481404E+02  0.00000000000E+00 0. -1.
<mgrwt>
<rscale>  1 0.12717701E+03</rscale>
<asrwt>0</asrwt>
<pdfrwt beam="1">  1        4 0.11480980E-02 0.12717701E+03</pdfrwt>
<pdfrwt beam="2">  1       -4 0.13819150E+00 0.12717701E+03</pdfrwt>
<totfact> 0.15227839E+03</totfact>
</mgrwt>
</event>
<event>
 6    4  0.5642870E-004  0.1440440E+03  0.7818608E-02  0.1207989E+00
         -4   -1    0    0    0  501 -0.00000000000E+00  0.00000000000E+00  0.23920939928E+03  0.23921277057E+03  0.12700000000E+01 0.  1.
          4   -1    0    0  502    0  0.00000000000E+00 -0.00000000000E+00 -0.68478344394E+02  0.68490120097E+02  0.12700000000E+01 0.  1.
         25    2    1    2    0    0 -0.57052821086E+02  0.43223752164E+02  0.18525595749E+03  0.23466666718E+03  0.12500143102E+03 0.  0.
    9000005    1    3    3    0    0 -0.29760273282E+00  0.37356685932E+02 -0.34410204419E+01  0.37529337496E+02  0.10000000000E+01 0.  0.
    9000005    1    3    3    0    0 -0.56755218353E+02  0.58670662324E+01  0.18869697793E+03  0.19713732969E+03  0.10000000000E+01 0.  0.
         21    1    1    2  502  501  0.57052821086E+02 -0.43223752164E+02 -0.14524902603E+02  0.73036223483E+02  0.00000000000E+00 0.  1.
<mgrwt>
<rscale>  1 0.14404400E+03</rscale>
<asrwt>0</asrwt>
<pdfrwt beam="2">  1        4 0.10536295E-01 0.14404400E+03</pdfrwt>
<pdfrwt beam="1">  1       -4 0.36802611E-01 0.14404400E+03</pdfrwt>
<totfact> 0.83271274E+02</totfact>
</mgrwt>
</event>
<event>
 6    4  0.5642870E-004  0.1267922E+03  0.7818608E-02  0.1232295E+00
         -4   -1    0    0    0  501 -0.00000000000E+00  0.00000000000E+00  0.39264355218E+02  0.39284888833E+02  0.12700000000E+01 0. -1.
          4   -1    0    0  502    0  0.00000000000E+00 -0.00000000000E+00 -0.24379066561E+03  0.24379397355E+03  0.12700000000E+01 0. -1.
         25    2    1    2    0    0  0.90304298034E+01 -0.19134168123E+02 -0.65991341660E+02  0.14293749585E+03  0.12501442114E+03 0.  0.
    9000005    1    3    3    0    0 -0.14706381573E+02 -0.30716067795E+02  0.28749461532E+02  0.44578986284E+02  0.10000000000E+01 0.  0.
    9000005    1    3    3    0    0  0.23736811376E+02  0.11581899673E+02 -0.94740803192E+02  0.98358509565E+02  0.10000000000E+01 0.  0.
         21    1    1    2  502  501 -0.90304298034E+01  0.19134168123E+02 -0.13853496873E+03  0.14014136653E+03  0.00000000000E+00 0. -1.
<mgrwt>
<rscale>  1 0.12679223E+03</rscale>
<asrwt>0</asrwt>
<pdfrwt beam="2">  1        4 0.37508090E-01 0.12679223E+03</pdfrwt>
<pdfrwt beam="1">  1       -4 0.60425041E-02 0.12679223E+03</pdfrwt>
<totfact> 0.19620321E+03</totfact>
</mgrwt>
</event>
<event>
 6    4  0.5642870E-004  0.1269396E+03  0.7818608E-02  0.1232069E+00
         -4   -1    0    0    0  501 -0.00000000000E+00  0.00000000000E+00  0.12624508067E+03  0.12625146848E+03  0.12700000000E+01 0. -1.
          4   -1    0    0  502    0  0.00000000000E+00 -0.00000000000E+00 -0.45462777892E+02  0.45480513120E+02  0.12700000000E+01 0. -1.
         25    2    1    2    0    0 -0.93830567322E+01  0.20055846042E+02  0.56729482719E+02  0.13903921685E+03  0.12499356343E+03 0.  0.
    9000005    1    3    3    0    0  0.15161621092E+02 -0.31624345636E+02  0.71759024339E+02  0.79876977691E+02  0.10000000000E+01 0.  0.
    9000005    1    3    3    0    0 -0.24544677824E+02  0.51680191678E+02 -0.15029541620E+02  0.59162239162E+02  0.10000000000E+01 0.  0.
         21    1    1    2  502  501  0.93830567322E+01 -0.20055846042E+02  0.24052820062E+02  0.32692764751E+02  0.00000000000E+00 0. -1.
<mgrwt>
<rscale>  1 0.12693963E+03</rscale>
<asrwt>0</asrwt>
<pdfrwt beam="2">  1        4 0.69961292E-02 0.12693963E+03</pdfrwt>
<pdfrwt beam="1">  1       -4 0.19424176E-01 0.12693963E+03</pdfrwt>
<totfact> 0.52679082E+03</totfact>
</mgrwt>
</event>
<event>
 6    4  0.5642870E-004  0.1304841E+03  0.7818608E-02  0.1226739E+00
         -4   -1    0    0    0  501 -0.00000000000E+00  0.00000000000E+00  0.19104939254E+03  0.19105361365E+03  0.12700000000E+01 0. -1.
          4   -1    0    0  502    0  0.00000000000E+00 -0.00000000000E+00 -0.45682332701E+02  0.45699982725E+02  0.12700000000E+01 0. -1.
         25    2    1    2    0    0  0.36533296697E+02 -0.81442274635E+01  0.15025675355E+03  0.19900549294E+03  0.12500033609E+03 0.  0.
    9000005    1    3    3    0    0  0.73387563147E+02  0.16288112808E+02  0.13040902475E+03  0.15052757482E+03  0.10000000000E+01 0.  0.
    9000005    1    3    3    0    0 -0.36854266449E+02 -0.24432340271E+02  0.19847728800E+02  0.48477918119E+02  0.10000000000E+01 0.  0.
         21    1    1    2  502  501 -0.36533296697E+02  0.81442274635E+01 -0.48896937171E+01  0.37748103439E+02  0.00000000000E+00 0. -1.
<mgrwt>
<rscale>  1 0.13048408E+03</rscale>
<asrwt>0</asrwt>
<pdfrwt beam="2">  1        4 0.70297337E-02 0.13048408E+03</pdfrwt>
<pdfrwt beam="1">  1       -4 0.29393896E-01 0.13048408E+03</pdfrwt>
<totfact> 0.24603961E+03</totfact>
</mgrwt>
</event>
<event>
 6    4  0.5642870E-004  0.1712008E+03  0.7818608E-02  0.1176601E+00
          4   -1    0    0  502    0  0.00000000000E+00  0.00000000000E+00  0.17975363240E+02  0.18020171575E+02  0.12700000000E+01 0. -1.
         -4   -1    0    0    0  501 -0.00000000000E+00 -0.00000000000E+00 -0.14040763671E+04  0.14040769415E+04  0.12700000000E+01 0. -1.
         25    2    1    2    0    0  0.45475723678E+01  0.11690223800E+03 -0.10960655005E+04  0.11093553555E+04  0.12499163916E+03 0.  0.
    9000005    1    3    3    0    0 -0.57465714110E+02  0.31259667929E+02 -0.40828449421E+03  0.41349329299E+03  0.10000000000E+01 0.  0.
    9000005    1    3    3    0    0  0.62013286478E+02  0.85642570071E+02 -0.68778100626E+03  0.69586206254E+03  0.10000000000E+01 0.  0.
         21    1    1    2  502  501 -0.45475723678E+01 -0.11690223800E+03 -0.29003550343E+03  0.31274175755E+03  0.00000000000E+00 0. -1.
<mgrwt>
<rscale>  1 0.17120083E+03</rscale>
<asrwt>0</asrwt>
<pdfrwt beam="1">  1        4 0.27689326E-02 0.17120083E+03</pdfrwt>
<pdfrwt beam="2">  1       -4 0.21601515E+00 0.17120083E+03</pdfrwt>
<totfact> 0.12363397E+02</totfact>
</mgrwt>
</event>
<event>
 6    4  0.5642870E-004  0.1269029E+03  0.7818608E-02  0.1232125E+00
         -4   -1    0    0    0  501 -0.00000000000E+00  0.00000000000E+00  0.10492815616E+03  0.10493584162E+03  0.12700000000E+01 0.  1.
          4   -1    0    0  502    0  0.00000000000E+00 -0.00000000000E+00 -0.61063367569E+02  0.61076572913E+02  0.12700000000E+01 0.  1.
         25    2    1    2    0    0 -0.71630350130E+01 -0.20693636469E+02  0.58434409052E+02  0.13971014274E+03  0.12499923265E+03 0.  0.
    9000005    1    3    3    0    0 -0.62289950108E+02 -0.42734947304E+01  0.53037425711E+02  0.81928439310E+02  0.10000000000E+01 0.  0.
    9000005    1    3    3    0    0  0.55126915095E+02 -0.16420141738E+02  0.53969833408E+01  0.57781703434E+02  0.10000000000E+01 0.  0.
         21    1    1    2  502  501  0.71630350130E+01  0.20693636469E+02 -0.14569620457E+02  0.26302271787E+02  0.00000000000E+00 0.  1.
<mgrwt>
<rscale>  1 0.12690289E+03</rscale>
<asrwt>0</asrwt>
<pdfrwt beam="2">  1        4 0.93959713E-02 0.12690289E+03</pdfrwt>
<pdfrwt beam="1">  1       -4 0.16144400E-01 0.12690289E+03</pdfrwt>
<totfact> 0.44862255E+03</totfact>
</mgrwt>
</event>
<event>
 6    4  0.5642870E-004  0.1296344E+03  0.7818608E-02  0.1227999E+00
          4   -1    0    0  502    0  0.00000000000E+00  0.00000000000E+00  0.52127477571E+03  0.52127632278E+03  0.12700000000E+01 0. -1.
         -4   -1    0    0    0  501 -0.00000000000E+00 -0.00000000000E+00 -0.33443465698E+02  0.33467570840E+02  0.12700000000E+01 0. -1.
         25    2    1    2    0    0 -0.22613824666E+02 -0.25855758092E+02  0.95752639755E+02  0.16116342032E+03  0.12500069894E+03 0.  0.
    9000005    1    3    3    0    0 -0.36359818924E+02 -0.49098724115E+02  0.11345212138E+03  0.12886079694E+03  0.10000000000E+01 0.  0.
    9000005    1    3    3    0    0  0.13745994258E+02  0.23242966022E+02 -0.17699481624E+02  0.32302623383E+02  0.10000000000E+01 0.  0.
         21    1    1    2  502  501  0.22613824666E+02  0.25855758092E+02  0.39207867025E+03  0.39358047330E+03  0.00000000000E+00 0. -1.
<mgrwt>
<rscale>  1 0.12963441E+03</rscale>
<asrwt>0</asrwt>
<pdfrwt beam="1">  1        4 0.80198094E-01 0.12963441E+03</pdfrwt>
<pdfrwt beam="2">  1       -4 0.51471217E-02 0.12963441E+03</pdfrwt>
<totfact> 0.52996073E+02</totfact>
</mgrwt>
</event>
<event>
 6    4  0.5642870E-004  0.1370078E+03  0.7818608E-02  0.1217413E+00
         -4   -1    0    0    0  501 -0.00000000000E+00  0.00000000000E+00  0.68513200363E+03  0.68513318070E+03  0.12700000000E+01 0. -1.
          4   -1    0    0  502    0  0.00000000000E+00 -0.00000000000E+00 -0.14384646217E+02  0.14440600639E+02  0.12700000000E+01 0. -1.
         25    2    1    2    0    0 -0.54695120112E+02 -0.12425839637E+02  0.54369002347E+03  0.56068705137E+03  0.12500068117E+03 0.  0.
    9000005    1    3    3    0    0 -0.29696742668E+02  0.55000710940E+02  0.19956063640E+03  0.20912298375E+03  0.10000000000E+01 0.  0.
    9000005    1    3    3    0    0 -0.24998377444E+02 -0.67426550577E+02  0.34412938707E+03  0.35156406762E+03  0.10000000000E+01 0.  0.
         21    1    1    2  502  501  0.54695120112E+02  0.12425839637E+02  0.12705733394E+03  0.13888672997E+03  0.00000000000E+00 0. -1.
<mgrwt>
<rscale>  1 0.13700777E+03</rscale>
<asrwt>0</asrwt>
<pdfrwt beam="2">  1        4 0.22174173E-02 0.13700777E+03</pdfrwt>
<pdfrwt beam="1">  1       -4 0.10540932E+00 0.13700777E+03</pdfrwt>
<totfact> 0.10857216E+03</totfact>
</mgrwt>
</event>
<event>
 6    4  0.5642870E-004  0.1484655E+03  0.7818608E-02  0.1202371E+00
          4   -1    0    0  502    0  0.00000000000E+00  0.00000000000E+00  0.28543371213E+02  0.28571610739E+02  0.12700000000E+01 0.  1.
         -4   -1    0    0    0  501 -0.00000000000E+00 -0.00000000000E+00 -0.45876494660E+03  0.45876670447E+03  0.12700000000E+01 0.  1.
         25    2    1    2    0    0  0.51761921106E+02  0.61132943940E+02 -0.26622332189E+03  0.30482267077E+03  0.12500188075E+03 0.  0.
    9000005    1    3    3    0    0 -0.36265112715E+02  0.17542430171E+02 -0.34174317316E+02  0.52837290057E+02  0.10000000000E+01 0.  0.
    9000005    1    3    3    0    0  0.88027033821E+02  0.43590513770E+02 -0.23204900457E+03  0.25198538072E+03  0.10000000000E+01 0.  0.
         21    1    1    2  502  501 -0.51761921106E+02 -0.61132943940E+02 -0.16399825351E+03  0.18251564444E+03  0.00000000000E+00 0.  1.
<mgrwt>
<rscale>  1 0.14846550E+03</rscale>
<asrwt>0</asrwt>
<pdfrwt beam="1">  1        4 0.43935957E-02 0.14846550E+03</pdfrwt>
<pdfrwt beam="2">  1       -4 0.70581524E-01 0.14846550E+03</pdfrwt>
<totfact> 0.92801291E+02</totfact>
</mgrwt>
</event>
<event>
 6    4  0.5642870E-004  0.1282576E+03  0.7818608E-02  0.1230064E+00
          4   -1    0    0  502    0  0.00000000000E+00  0.00000000000E+00  0.21199776623E+04  0.21199780427E+04  0.12700000000E+01 0.  1.
         -4   -1    0    0    0  501 -0.00000000000E+00 -0.00000000000E+00 -0.33072622677E+01  0.35427226405E+01  0.12700000000E+01 0.  1.
         25    2    1    2    0    0  0.17154134014E+02  0.23020427043E+02  0.19634075400E+04  0.19675922284E+04  0.12500321867E+03 0.  0.
    9000005    1    3    3    0    0  0.22121173573E+02  0.21820417028E+02  0.19619347914E+04  0.19621810830E+04  0.10000000000E+01 0.  0.
    9000005    1    3    3    0    0 -0.49670395589E+01  0.12000100145E+01  0.14727486667E+01  0.54111454102E+01  0.10000000000E+01 0.  0.
         21    1    1    2  502  501 -0.17154134014E+02 -0.23020427043E+02  0.15326286004E+03  0.15592853697E+03  0.00000000000E+00 0.  1.
<mgrwt>
<rscale>  1 0.12825759E+03</rscale>
<asrwt>0</asrwt>
<pdfrwt beam="1">  1        4 0.32616910E+00 0.12825759E+03</pdfrwt>
<pdfrwt beam="2">  1       -4 0.52695030E-03 0.12825759E+03</pdfrwt>
<totfact> 0.33740132E+02</totfact>
</mgrwt>
</event>
<event>
 6    4  0.5642870E-004  0.1306129E+03  0.7818608E-02  0.1226549E+00
         -4   -1    0    0    0  501 -0.00000000000E+00  0.00000000000E+00  0.83949174772E+02  0.83958780630E+02  0.12700000000E+01 0.  1.
          4   -1    0    0  502    0  0.00000000000E+00 -0.00000000000E+00 -0.86022972532E+02  0.86032346842E+02  0.12700000000E+01 0.  1.
         25    2    1    2    0    0 -0.19163812512E+02 -0.32662509853E+02  0.78322746350E+01  0.13084752608E+03  0.12500255715E+03 0.  0.
    9000005    1    3    3    0    0  0.53414214753E+02 -0.18288825952E+02  0.27301690407E+00  0.56467991204E+02  0.10000000000E+01 0.  0.
    9000005    1    3    3    0    0 -0.72578027264E+02 -0.14373683901E+02  0.75592577310E+01  0.74379534873E+02  0.10000000000E+01 0.  0.
         21    1    1    2  502  501  0.19163812512E+02  0.32662509853E+02 -0.99060723949E+01  0.39143601395E+02  0.00000000000E+00 0.  1.
<mgrwt>
<rscale>  1 0.13061290E+03</rscale>
<asrwt>0</asrwt>
<pdfrwt beam="2">  1        4 0.13235764E-01 0.13061290E+03</pdfrwt>
<pdfrwt beam="1">  1       -4 0.12916718E-01 0.13061290E+03</pdfrwt>
<totfact> 0.37205413E+03</totfact>
</mgrwt>
</event>
<event>
 6    4  0.5642870E-004  0.1271562E+03  0.7818608E-02  0.1231737E+00
          4   -1    0    0  502    0  0.00000000000E+00  0.00000000000E+00  0.36081504814E+02  0.36103848682E+02  0.12700000000E+01 0. -1.
         -4   -1    0    0    0  501 -0.00000000000E+00 -0.00000000000E+00 -0.15674823543E+03  0.15675338022E+03  0.12700000000E+01 0. -1.
         25    2    1    2    0    0  0.17149077192E+02  0.15728844417E+02 -0.10307171655E+03  0.16368409203E+03  0.12500886303E+03 0.  0.
    9000005    1    3    3    0    0 -0.36439294626E+02 -0.35262847575E+02 -0.26541472225E+02  0.57242819286E+02  0.10000000000E+01 0.  0.
    9000005    1    3    3    0    0  0.53588371818E+02  0.50991691992E+02 -0.76530244321E+02  0.10644127274E+03  0.10000000000E+01 0.  0.
         21    1    1    2  502  501 -0.17149077192E+02 -0.15728844417E+02 -0.17595014073E+02  0.29173136881E+02  0.00000000000E+00 0. -1.
<mgrwt>
<rscale>  1 0.12715622E+03</rscale>
<asrwt>0</asrwt>
<pdfrwt beam="1">  1        4 0.55531153E-02 0.12715622E+03</pdfrwt>
<pdfrwt beam="2">  1       -4 0.24117227E-01 0.12715622E+03</pdfrwt>
<totfact> 0.51841585E+03</totfact>
</mgrwt>
</event>
<event>
 6    4  0.5642870E-004  0.1288374E+03  0.7818608E-02  0.1229191E+00
          4   -1    0    0  502    0  0.00000000000E+00  0.00000000000E+00  0.39428718948E+03  0.39428923481E+03  0.12700000000E+01 0.  1.
         -4   -1    0    0    0  501 -0.00000000000E+00 -0.00000000000E+00 -0.16216972311E+02  0.16266625062E+02  0.12700000000E+01 0.  1.
         25    2    1    2    0    0  0.97351387957E+01  0.29639550933E+02  0.30718805912E+03  0.33311196898E+03  0.12500321718E+03 0.  0.
    9000005    1    3    3    0    0 -0.26694661152E+02  0.42317117697E+02  0.28339661937E+03  0.28778114471E+03  0.10000000000E+01 0.  0.
    9000005    1    3    3    0    0  0.36429799947E+02 -0.12677566764E+02  0.23791439754E+02  0.45330824268E+02  0.10000000000E+01 0.  0.
         21    1    1    2  502  501 -0.97351387957E+01 -0.29639550933E+02  0.70882158051E+02  0.77443890894E+02  0.00000000000E+00 0. -1.
<mgrwt>
<rscale>  1 0.12883742E+03</rscale>
<asrwt>0</asrwt>
<pdfrwt beam="1">  1        4 0.60663541E-01 0.12883742E+03</pdfrwt>
<pdfrwt beam="2">  1       -4 0.24988957E-02 0.12883742E+03</pdfrwt>
<totfact> 0.30222540E+03</totfact>
</mgrwt>
</event>
<event>
 6    4  0.5642870E-004  0.1457410E+03  0.7818608E-02  0.1205806E+00
          4   -1    0    0  502    0  0.00000000000E+00  0.00000000000E+00  0.27394738063E+02  0.27424160398E+02  0.12700000000E+01 0. -1.
         -4   -1    0    0    0  501 -0.00000000000E+00 -0.00000000000E+00 -0.69845173909E+03  0.69845289371E+03  0.12700000000E+01 0. -1.
         25    2    1    2    0    0  0.60646257895E+02 -0.44014069638E+02 -0.61569661559E+03  0.63271064816E+03  0.12500093968E+03 0.  0.
    9000005    1    3    3    0    0 -0.10349643404E+02 -0.53078930403E+02 -0.43505373528E+03  0.43840305719E+03  0.10000000000E+01 0.  0.
    9000005    1    3    3    0    0  0.70995901299E+02  0.90648607657E+01 -0.18064288031E+03  0.19430759097E+03  0.10000000000E+01 0.  0.
         21    1    1    2  502  501 -0.60646257895E+02  0.44014069638E+02 -0.55360385440E+02  0.93166405957E+02  0.00000000000E+00 0. -1.
<mgrwt>
<rscale>  1 0.14574101E+03</rscale>
<asrwt>0</asrwt>
<pdfrwt beam="1">  1        4 0.42169277E-02 0.14574101E+03</pdfrwt>
<pdfrwt beam="2">  1       -4 0.10745645E+00 0.14574101E+03</pdfrwt>
<totfact> 0.38291956E+02</totfact>
</mgrwt>
</event>
<event>
 6    4  0.5642870E-004  0.1267946E+03  0.7818608E-02  0.1232291E+00
          4   -1    0    0  502    0  0.00000000000E+00  0.00000000000E+00  0.65300409935E+01  0.66523932067E+01  0.12700000000E+01 0.  1.
         -4   -1    0    0    0  501 -0.00000000000E+00 -0.00000000000E+00 -0.83814506572E+03  0.83814602791E+03  0.12700000000E+01 0.  1.
         25    2    1    2    0    0  0.97962972039E+01  0.18742192509E+02 -0.68063495002E+03  0.69234442747E+03  0.12501853398E+03 0.  0.
    9000005    1    3    3    0    0  0.10443078480E+01  0.46643748193E+02 -0.93671610207E+02  0.10465228322E+03  0.10000000000E+01 0.  0.
    9000005    1    3    3    0    0  0.87519893559E+01 -0.27901555684E+02 -0.58696333982E+03  0.58769214425E+03  0.10000000000E+01 0.  0.
         21    1    1    2  502  501 -0.97962972039E+01 -0.18742192509E+02 -0.15098007471E+03  0.15245399364E+03  0.00000000000E+00 0.  1.
<mgrwt>
<rscale>  1 0.12679460E+03</rscale>
<asrwt>0</asrwt>
<pdfrwt beam="1">  1        4 0.10141081E-02 0.12679460E+03</pdfrwt>
<pdfrwt beam="2">  1       -4 0.12895480E+00 0.12679460E+03</pdfrwt>
<totfact> 0.21747554E+03</totfact>
</mgrwt>
</event>
<event>
 6    4  0.5642870E-004  0.1283034E+03  0.7818608E-02  0.1229995E+00
          4   -1    0    0  502    0  0.00000000000E+00  0.00000000000E+00  0.30621960777E+03  0.30622224132E+03  0.12700000000E+01 0.  1.
         -4   -1    0    0    0  501 -0.00000000000E+00 -0.00000000000E+00 -0.33285307451E+02  0.33309527047E+02  0.12700000000E+01 0.  1.
         25    2    1    2    0    0 -0.28896717322E+02  0.89212238540E+00  0.95978662432E+02  0.16023002846E+03  0.12500376884E+03 0.  0.
    9000005    1    3    3    0    0 -0.91398507683E+01 -0.25463656227E+00 -0.30680819762E+02  0.32029898737E+02  0.10000000000E+01 0.  0.
    9000005    1    3    3    0    0 -0.19756866554E+02  0.11467589477E+01  0.12665948219E+03  0.12820012973E+03  0.10000000000E+01 0.  0.
         21    1    1    2  502  501  0.28896717322E+02 -0.89212238540E+00  0.17695563788E+03  0.17930173991E+03  0.00000000000E+00 0.  1.
<mgrwt>
<rscale>  1 0.12830338E+03</rscale>
<asrwt>0</asrwt>
<pdfrwt beam="1">  1        4 0.47112774E-01 0.12830338E+03</pdfrwt>
<pdfrwt beam="2">  1       -4 0.51228823E-02 0.12830338E+03</pdfrwt>
<totfact> 0.16355546E+03</totfact>
</mgrwt>
</event>
<event>
 6    4  0.5642870E-004  0.1297038E+03  0.7818608E-02  0.1227896E+00
         -4   -1    0    0    0  501 -0.00000000000E+00  0.00000000000E+00  0.19570247858E+02  0.19611412525E+02  0.12700000000E+01 0.  1.
          4   -1    0    0  502    0  0.00000000000E+00 -0.00000000000E+00 -0.43406623777E+03  0.43406809566E+03  0.12700000000E+01 0.  1.
         25    2    1    2    0    0  0.30319657301E+02 -0.16707806191E+02 -0.21416309097E+03  0.25037750917E+03  0.12499854062E+03 0.  0.
    9000005    1    3    3    0    0  0.68991902364E+02  0.56392222261E+01 -0.18367900484E+03  0.19629228268E+03  0.10000000000E+01 0.  0.
    9000005    1    3    3    0    0 -0.38672245063E+02 -0.22347028417E+02 -0.30484086126E+02  0.54085226488E+02  0.10000000000E+01 0.  0.
         21    1    1    2  502  501 -0.30319657301E+02  0.16707806191E+02 -0.20033289894E+03  0.20330199902E+03  0.00000000000E+00 0.  1.
<mgrwt>
<rscale>  1 0.12970377E+03</rscale>
<asrwt>0</asrwt>
<pdfrwt beam="2">  1        4 0.66782724E-01 0.12970377E+03</pdfrwt>
<pdfrwt beam="1">  1       -4 0.30141171E-02 0.12970377E+03</pdfrwt>
<totfact> 0.18435954E+03</totfact>
</mgrwt>
</event>
<event>
 6    4  0.5642870E-004  0.1272642E+03  0.7818608E-02  0.1231573E+00
         -4   -1    0    0    0  501 -0.00000000000E+00  0.00000000000E+00  0.95480542272E+02  0.95488988122E+02  0.12700000000E+01 0. -1.
          4   -1    0    0  502    0  0.00000000000E+00 -0.00000000000E+00 -0.59817530492E+02  0.59831010807E+02  0.12700000000E+01 0. -1.
         25    2    1    2    0    0 -0.22033491087E+02 -0.92294464764E+01  0.30889497877E+02  0.13095929601E+03  0.12500207487E+03 0.  0.
    9000005    1    3    3    0    0  0.46678314228E+02  0.10588121200E+02 -0.95219080796E+01  0.48812294181E+02  0.10000000000E+01 0.  0.
    9000005    1    3    3    0    0 -0.68711805315E+02 -0.19817567676E+02  0.40411405957E+02  0.82147001830E+02  0.10000000000E+01 0.  0.
         21    1    1    2  502  501  0.22033491087E+02  0.92294464764E+01  0.47735139031E+01  0.24360702919E+02  0.00000000000E+00 0.  1.
<mgrwt>
<rscale>  1 0.12726420E+03</rscale>
<asrwt>0</asrwt>
<pdfrwt beam="2">  1        4 0.92043837E-02 0.12726420E+03</pdfrwt>
<pdfrwt beam="1">  1       -4 0.14691001E-01 0.12726420E+03</pdfrwt>
<totfact> 0.54800147E+03</totfact>
</mgrwt>
</event>
<event>
 6    4  0.5642870E-004  0.1288446E+03  0.7818608E-02  0.1229180E+00
         -4   -1    0    0    0  501 -0.00000000000E+00  0.00000000000E+00  0.13741413370E+02  0.13799976138E+02  0.12700000000E+01 0. -1.
          4   -1    0    0  502    0  0.00000000000E+00 -0.00000000000E+00 -0.62434160498E+03  0.62434289666E+03  0.12700000000E+01 0. -1.
         25    2    1    2    0    0  0.30596004044E+02  0.62357750107E+01 -0.30700241202E+03  0.33294357378E+03  0.12500376785E+03 0.  0.
    9000005    1    3    3    0    0  0.11931086508E+02  0.48086251244E+02 -0.26864227344E+03  0.27317450368E+03  0.10000000000E+01 0.  0.
    9000005    1    3    3    0    0  0.18664917536E+02 -0.41850476233E+02 -0.38360138585E+02  0.59769070093E+02  0.10000000000E+01 0.  0.
         21    1    1    2  502  501 -0.30596004044E+02 -0.62357750107E+01 -0.30359777959E+03  0.30519929902E+03  0.00000000000E+00 0. -1.
<mgrwt>
<rscale>  1 0.12884464E+03</rscale>
<asrwt>0</asrwt>
<pdfrwt beam="2">  1        4 0.96057137E-01 0.12884464E+03</pdfrwt>
<pdfrwt beam="1">  1       -4 0.21186683E-02 0.12884464E+03</pdfrwt>
<totfact> 0.14256352E+03</totfact>
</mgrwt>
</event>
<event>
 6    4  0.5642870E-004  0.1405461E+03  0.7818608E-02  0.1212596E+00
         -4   -1    0    0    0  501 -0.00000000000E+00  0.00000000000E+00  0.55736019726E+03  0.55736164416E+03  0.12700000000E+01 0. -1.
          4   -1    0    0  502    0  0.00000000000E+00 -0.00000000000E+00 -0.18789908941E+02  0.18832779350E+02  0.12700000000E+01 0. -1.
         25    2    1    2    0    0 -0.47186797053E+02  0.43604215551E+02  0.36824881511E+03  0.39415781823E+03  0.12500109763E+03 0.  0.
    9000005    1    3    3    0    0 -0.45011065196E+02  0.86521977240E+02  0.25911517255E+03  0.27686408432E+03  0.10000000000E+01 0.  0.
    9000005    1    3    3    0    0 -0.21757318563E+01 -0.42917761688E+02  0.10913364256E+03  0.11729373391E+03  0.10000000000E+01 0.  0.
         21    1    1    2  502  501  0.47186797053E+02 -0.43604215551E+02  0.17032147320E+03  0.18203660528E+03  0.00000000000E+00 0. -1.
<mgrwt>
<rscale>  1 0.14054606E+03</rscale>
<asrwt>0</asrwt>
<pdfrwt beam="2">  1        4 0.28941640E-02 0.14054606E+03</pdfrwt>
<pdfrwt beam="1">  1       -4 0.85751138E-01 0.14054606E+03</pdfrwt>
<totfact> 0.11566407E+03</totfact>
</mgrwt>
</event>
<event>
 6    4  0.5642870E-004  0.1302689E+03  0.7818608E-02  0.1227057E+00
          4   -1    0    0  502    0  0.00000000000E+00  0.00000000000E+00  0.83182651954E+02  0.83192346320E+02  0.12700000000E+01 0.  1.
         -4   -1    0    0    0  501 -0.00000000000E+00 -0.00000000000E+00 -0.13112071818E+03  0.13112686848E+03  0.12700000000E+01 0.  1.
         25    2    1    2    0    0 -0.34236684652E+02 -0.13131606575E+02 -0.90138162777E+02  0.15841359955E+03  0.12500156186E+03 0.  0.
    9000005    1    3    3    0    0 -0.68826173952E+02  0.29563855521E+02 -0.58062867940E+02  0.94780590880E+02  0.10000000000E+01 0.  0.
    9000005    1    3    3    0    0  0.34589489300E+02 -0.42695462096E+02 -0.32075294837E+02  0.63633008671E+02  0.10000000000E+01 0.  0.
         21    1    1    2  502  501  0.34236684652E+02  0.13131606575E+02  0.42200096550E+02  0.55905615246E+02  0.00000000000E+00 0.  1.
<mgrwt>
<rscale>  1 0.13026888E+03</rscale>
<asrwt>0</asrwt>
<pdfrwt beam="1">  1        4 0.12798550E-01 0.13026888E+03</pdfrwt>
<pdfrwt beam="2">  1       -4 0.20173637E-01 0.13026888E+03</pdfrwt>
<totfact> 0.17990272E+03</totfact>
</mgrwt>
</event>
<event>
 6    4  0.5642870E-004  0.1285957E+03  0.7818608E-02  0.1229555E+00
         -4   -1    0    0    0  501 -0.00000000000E+00  0.00000000000E+00  0.23368364864E+03  0.23368709965E+03  0.12700000000E+01 0. -1.
          4   -1    0    0  502    0  0.00000000000E+00 -0.00000000000E+00 -0.28278816402E+02  0.28307319850E+02  0.12700000000E+01 0. -1.
         25    2    1    2    0    0  0.73542338159E+01  0.29288532001E+02  0.14083857997E+03  0.19071536372E+03  0.12499976594E+03 0.  0.
    9000005    1    3    3    0    0 -0.56684235847E+02  0.30746510954E+02  0.73003204514E+02  0.97411079446E+02  0.10000000000E+01 0.  0.
    9000005    1    3    3    0    0  0.64038469663E+02 -0.14579789530E+01  0.67835375459E+02  0.93304284269E+02  0.10000000000E+01 0.  0.
         21    1    1    2  502  501 -0.73542338159E+01 -0.29288532001E+02  0.64566252265E+02  0.71279055783E+02  0.00000000000E+00 0.  1.
<mgrwt>
<rscale>  1 0.12859566E+03</rscale>
<asrwt>0</asrwt>
<pdfrwt beam="2">  1        4 0.43530454E-02 0.12859566E+03</pdfrwt>
<pdfrwt beam="1">  1       -4 0.35953787E-01 0.12859566E+03</pdfrwt>
<totfact> 0.36214418E+03</totfact>
</mgrwt>
</event>
<event>
 6    4  0.5642870E-004  0.1370439E+03  0.7818608E-02  0.1217363E+00
         -4   -1    0    0    0  501 -0.00000000000E+00  0.00000000000E+00  0.65933394600E+03  0.65933516913E+03  0.12700000000E+01 0. -1.
          4   -1    0    0  502    0  0.00000000000E+00 -0.00000000000E+00 -0.14810269715E+02  0.14864622062E+02  0.12700000000E+01 0. -1.
         25    2    1    2    0    0  0.31691723834E+02 -0.46392095277E+02  0.51686376339E+03  0.53472346623E+03  0.12499777425E+03 0.  0.
    9000005    1    3    3    0    0  0.62558458776E+02 -0.63793743590E+02  0.45255519597E+03  0.46129210690E+03  0.10000000000E+01 0.  0.
    9000005    1    3    3    0    0 -0.30866734942E+02  0.17401648313E+02  0.64308567423E+02  0.73431359336E+02  0.10000000000E+01 0.  0.
         21    1    1    2  502  501 -0.31691723834E+02  0.46392095277E+02  0.12765991289E+03  0.13947632496E+03  0.00000000000E+00 0.  1.
<mgrwt>
<rscale>  1 0.13704392E+03</rscale>
<asrwt>0</asrwt>
<pdfrwt beam="2">  1        4 0.22827785E-02 0.13704392E+03</pdfrwt>
<pdfrwt beam="1">  1       -4 0.10144025E+00 0.13704392E+03</pdfrwt>
<totfact> 0.11352990E+03</totfact>
</mgrwt>
</event>
<event>
 6    4  0.5642870E-004  0.1286439E+03  0.7818608E-02  0.1229482E+00
         -4   -1    0    0    0  501 -0.00000000000E+00  0.00000000000E+00  0.20285152955E+02  0.20324869751E+02  0.12700000000E+01 0.  1.
          4   -1    0    0  502    0  0.00000000000E+00 -0.00000000000E+00 -0.37036706865E+03  0.37036924608E+03  0.12700000000E+01 0.  1.
         25    2    1    2    0    0 -0.25436877590E+02  0.16701422532E+02 -0.20176086309E+03  0.23928372351E+03  0.12499312864E+03 0.  0.
    9000005    1    3    3    0    0 -0.62877365838E+02  0.18611222741E+02 -0.18837402576E+03  0.19946356642E+03  0.10000000000E+01 0.  0.
    9000005    1    3    3    0    0  0.37440488249E+02 -0.19098002091E+01 -0.13386837327E+02  0.39820157091E+02  0.10000000000E+01 0.  0.
         21    1    1    2  502  501  0.25436877590E+02 -0.16701422532E+02 -0.14832105261E+03  0.15141039232E+03  0.00000000000E+00 0. -1.
<mgrwt>
<rscale>  1 0.12864391E+03</rscale>
<asrwt>0</asrwt>
<pdfrwt beam="2">  1        4 0.56982767E-01 0.12864391E+03</pdfrwt>
<pdfrwt beam="1">  1       -4 0.31240157E-02 0.12864391E+03</pdfrwt>
<totfact> 0.24307881E+03</totfact>
</mgrwt>
</event>
<event>
 6    4  0.5642870E-004  0.1432932E+03  0.7818608E-02  0.1208965E+00
          4   -1    0    0  502    0  0.00000000000E+00  0.00000000000E+00  0.57190012275E+03  0.57190153288E+03  0.12700000000E+01 0. -1.
         -4   -1    0    0    0  501 -0.00000000000E+00 -0.00000000000E+00 -0.20266654713E+02  0.20306407690E+02  0.12700000000E+01 0. -1.
         25    2    1    2    0    0  0.61354249699E+02  0.33830763556E+02  0.33011227854E+03  0.35987089678E+03  0.12499632548E+03 0.  0.
    9000005    1    3    3    0    0  0.69900154320E+02  0.73017459431E+02  0.26194403072E+03  0.28077260583E+03  0.10000000000E+01 0.  0.
    9000005    1    3    3    0    0 -0.85459046205E+01 -0.39186695876E+02  0.68168247818E+02  0.79098290942E+02  0.10000000000E+01 0.  0.
         21    1    1    2  502  501 -0.61354249699E+02 -0.33830763556E+02  0.22152118950E+03  0.23233704379E+03  0.00000000000E+00 0. -1.
<mgrwt>
<rscale>  1 0.14329322E+03</rscale>
<asrwt>0</asrwt>
<pdfrwt beam="1">  1        4 0.87987812E-01 0.14329322E+03</pdfrwt>
<pdfrwt beam="2">  1       -4 0.31211129E-02 0.14329322E+03</pdfrwt>
<totfact> 0.97360429E+02</totfact>
</mgrwt>
</event>
<event>
 6    4  0.5642870E-004  0.1304277E+03  0.7818608E-02  0.1226822E+00
          4   -1    0    0  502    0  0.00000000000E+00  0.00000000000E+00  0.72541440662E+02  0.72552556904E+02  0.12700000000E+01 0. -1.
         -4   -1    0    0    0  501 -0.00000000000E+00 -0.00000000000E+00 -0.11279663351E+03  0.11280378287E+03  0.12700000000E+01 0. -1.
         25    2    1    2    0    0  0.31554754665E+02 -0.19764356815E+02 -0.59597045208E+02  0.14339874696E+03  0.12500024196E+03 0.  0.
    9000005    1    3    3    0    0  0.67124217196E+02 -0.28477341595E+02 -0.74131587433E+02  0.10398611337E+03  0.10000000000E+01 0.  0.
    9000005    1    3    3    0    0 -0.35569462531E+02  0.87129847804E+01  0.14534542225E+02  0.39412633586E+02  0.10000000000E+01 0.  0.
         21    1    1    2  502  501 -0.31554754665E+02  0.19764356815E+02  0.19341852364E+02  0.41957592819E+02  0.00000000000E+00 0. -1.
<mgrwt>
<rscale>  1 0.13042773E+03</rscale>
<asrwt>0</asrwt>
<pdfrwt beam="1">  1        4 0.11161627E-01 0.13042773E+03</pdfrwt>
<pdfrwt beam="2">  1       -4 0.17354733E-01 0.13042773E+03</pdfrwt>
<totfact> 0.29739710E+03</totfact>
</mgrwt>
</event>
<event>
 6    4  0.5642870E-004  0.1326179E+03  0.7818608E-02  0.1223622E+00
         -4   -1    0    0    0  501 -0.00000000000E+00  0.00000000000E+00  0.17476827134E+03  0.17477288568E+03  0.12700000000E+01 0.  1.
          4   -1    0    0  502    0  0.00000000000E+00 -0.00000000000E+00 -0.54752594991E+02  0.54767321992E+02  0.12700000000E+01 0.  1.
         25    2    1    2    0    0 -0.13552090627E+02  0.42163469219E+02  0.12825683802E+03  0.18449207738E+03  0.12500437120E+03 0.  0.
    9000005    1    3    3    0    0 -0.48497575490E+02 -0.22039997697E+02  0.82626921199E+02  0.98315738484E+02  0.10000000000E+01 0.  0.
    9000005    1    3    3    0    0  0.34945484864E+02  0.64203466916E+02  0.45629916825E+02  0.86176338898E+02  0.10000000000E+01 0.  0.
         21    1    1    2  502  501  0.13552090627E+02 -0.42163469219E+02 -0.82411616692E+01  0.45048130290E+02  0.00000000000E+00 0.  1.
<mgrwt>
<rscale>  1 0.13261791E+03</rscale>
<asrwt>0</asrwt>
<pdfrwt beam="2">  1        4 0.84249640E-02 0.13261791E+03</pdfrwt>
<pdfrwt beam="1">  1       -4 0.26888914E-01 0.13261791E+03</pdfrwt>
<totfact> 0.21640823E+03</totfact>
</mgrwt>
</event>
<event>
 6    4  0.5642870E-004  0.1267038E+03  0.7818608E-02  0.1232430E+00
         -4   -1    0    0    0  501 -0.00000000000E+00  0.00000000000E+00  0.20169848094E+03  0.20170247919E+03  0.12700000000E+01 0.  1.
          4   -1    0    0  502    0  0.00000000000E+00 -0.00000000000E+00 -0.33737441638E+02  0.33761336885E+02  0.12700000000E+01 0.  1.
         25    2    1    2    0    0  0.14616804307E+02  0.14631276678E+02  0.17275056876E+03  0.21423494852E+03  0.12500451565E+03 0.  0.
    9000005    1    3    3    0    0 -0.46990548115E+02  0.38334097060E+02  0.85229346069E+02  0.10460715100E+03  0.10000000000E+01 0.  0.
    9000005    1    3    3    0    0  0.61607352422E+02 -0.23702820382E+02  0.87521222696E+02  0.10962779752E+03  0.10000000000E+01 0.  0.
         21    1    1    2  502  501 -0.14616804307E+02 -0.14631276678E+02 -0.47895294635E+01  0.21228867559E+02  0.00000000000E+00 0. -1.
<mgrwt>
<rscale>  1 0.12670380E+03</rscale>
<asrwt>0</asrwt>
<pdfrwt beam="2">  1        4 0.51925211E-02 0.12670380E+03</pdfrwt>
<pdfrwt beam="1">  1       -4 0.31032682E-01 0.12670380E+03</pdfrwt>
<totfact> 0.36066393E+03</totfact>
</mgrwt>
</event>
<event>
 6    4  0.5642870E-004  0.1269413E+03  0.7818608E-02  0.1232066E+00
         -4   -1    0    0    0  501 -0.00000000000E+00  0.00000000000E+00  0.34352205406E+03  0.34352440164E+03  0.12700000000E+01 0.  1.
          4   -1    0    0  502    0  0.00000000000E+00 -0.00000000000E+00 -0.16196607304E+02  0.16246322297E+02  0.12700000000E+01 0.  1.
         25    2    1    2    0    0 -0.19206832575E+02  0.10959224519E+02  0.28583720576E+03  0.31275709655E+03  0.12500034490E+03 0.  0.
    9000005    1    3    3    0    0 -0.49423062265E+02 -0.26552360944E+02  0.23923630193E+03  0.24572886505E+03  0.10000000000E+01 0.  0.
    9000005    1    3    3    0    0  0.30216229691E+02  0.37511585464E+02  0.46600903825E+02  0.67028231500E+02  0.10000000000E+01 0.  0.
         21    1    1    2  502  501  0.19206832575E+02 -0.10959224519E+02  0.41488240997E+02  0.47013627393E+02  0.00000000000E+00 0. -1.
<mgrwt>
<rscale>  1 0.12694130E+03</rscale>
<asrwt>0</asrwt>
<pdfrwt beam="2">  1        4 0.24957907E-02 0.12694130E+03</pdfrwt>
<pdfrwt beam="1">  1       -4 0.52853548E-01 0.12694130E+03</pdfrwt>
<totfact> 0.40169762E+03</totfact>
</mgrwt>
</event>
<event>
 6    4  0.5642870E-004  0.1283965E+03  0.7818608E-02  0.1229855E+00
          4   -1    0    0  502    0  0.00000000000E+00  0.00000000000E+00  0.19341003984E+03  0.19341420943E+03  0.12700000000E+01 0.  1.
         -4   -1    0    0    0  501 -0.00000000000E+00 -0.00000000000E+00 -0.32187896416E+02  0.32212941121E+02  0.12700000000E+01 0.  1.
         25    2    1    2    0    0  0.72334633846E+01  0.28460633621E+02  0.12831182971E+03  0.18152024172E+03  0.12499336722E+03 0.  0.
    9000005    1    3    3    0    0 -0.40281463933E+02  0.54341042537E+02  0.41939807055E+02  0.79595808033E+02  0.10000000000E+01 0.  0.
    9000005    1    3    3    0    0  0.47514927318E+02 -0.25880408916E+02  0.86372022657E+02  0.10192443368E+03  0.10000000000E+01 0.  0.
         21    1    1    2  502  501 -0.72334633846E+01 -0.28460633621E+02  0.32910313708E+02  0.44106908835E+02  0.00000000000E+00 0.  1.
<mgrwt>
<rscale>  1 0.12839654E+03</rscale>
<asrwt>0</asrwt>
<pdfrwt beam="1">  1        4 0.29757638E-01 0.12839654E+03</pdfrwt>
<pdfrwt beam="2">  1       -4 0.49542314E-02 0.12839654E+03</pdfrwt>
<totfact> 0.42243413E+03</totfact>
</mgrwt>
</event>
<event>
 6    4  0.5642870E-004  0.1266772E+03  0.7818608E-02  0.1232471E+00
          4   -1    0    0  502    0  0.00000000000E+00  0.00000000000E+00  0.72911583817E+02  0.72922643635E+02  0.12700000000E+01 0.  1.
         -4   -1    0    0    0  501 -0.00000000000E+00 -0.00000000000E+00 -0.78832086224E+02  0.78842315532E+02  0.12700000000E+01 0.  1.
         25    2    1    2    0    0 -0.16888390665E+02  0.11729705326E+02 -0.17949686209E+02  0.12794259595E+03  0.12499725156E+03 0.  0.
    9000005    1    3    3    0    0  0.32654462715E+02  0.14931988633E+02  0.38571436326E+02  0.52707057592E+02  0.10000000000E+01 0.  0.
    9000005    1    3    3    0    0 -0.49542853381E+02 -0.32022833069E+01 -0.56521122535E+02  0.75235538358E+02  0.10000000000E+01 0.  0.
         21    1    1    2  502  501  0.16888390665E+02 -0.11729705326E+02  0.12029183801E+02  0.23822363217E+02  0.00000000000E+00 0.  1.
<mgrwt>
<rscale>  1 0.12667721E+03</rscale>
<asrwt>0</asrwt>
<pdfrwt beam="1">  1        4 0.11218804E-01 0.12667721E+03</pdfrwt>
<pdfrwt beam="2">  1       -4 0.12129651E-01 0.12667721E+03</pdfrwt>
<totfact> 0.54570007E+03</totfact>
</mgrwt>
</event>
<event>
 6    4  0.5642870E-004  0.1639250E+03  0.7818608E-02  0.1184335E+00
         -4   -1    0    0    0  501 -0.00000000000E+00  0.00000000000E+00  0.60692748138E+02  0.60706034103E+02  0.12700000000E+01 0.  1.
          4   -1    0    0  502    0  0.00000000000E+00 -0.00000000000E+00 -0.36787045384E+03  0.36787264605E+03  0.12700000000E+01 0.  1.
         25    2    1    2    0    0 -0.80939176446E+02  0.68521767772E+02 -0.90275003263E+02  0.18713890450E+03  0.12500004168E+03 0.  0.
    9000005    1    3    3    0    0 -0.13303019575E+02 -0.21591199444E+02  0.17808100884E+02  0.31004494518E+02  0.10000000000E+01 0.  0.
    9000005    1    3    3    0    0 -0.67636156871E+02  0.90112967216E+02 -0.10808310415E+03  0.15613440998E+03  0.10000000000E+01 0.  0.
         21    1    1    2  502  501  0.80939176446E+02 -0.68521767772E+02 -0.21690270244E+03  0.24143977566E+03  0.00000000000E+00 0.  1.
<mgrwt>
<rscale>  1 0.16392496E+03</rscale>
<asrwt>0</asrwt>
<pdfrwt beam="2">  1        4 0.56596644E-01 0.16392496E+03</pdfrwt>
<pdfrwt beam="1">  1       -4 0.93385367E-02 0.16392496E+03</pdfrwt>
<totfact> 0.43972340E+02</totfact>
</mgrwt>
</event>
<event>
 6    4  0.5642870E-004  0.1737395E+03  0.7818608E-02  0.1174003E+00
          4   -1    0    0  502    0  0.00000000000E+00  0.00000000000E+00  0.10996542411E+02  0.11069636173E+02  0.12700000000E+01 0.  1.
         -4   -1    0    0    0  501 -0.00000000000E+00 -0.00000000000E+00 -0.19669878343E+04  0.19669882443E+04  0.12700000000E+01 0.  1.
         25    2    1    2    0    0  0.10176204620E+03  0.64848051948E+02 -0.11924123678E+04  0.12050031882E+04  0.12499857939E+03 0.  0.
    9000005    1    3    3    0    0  0.12362989414E+03  0.22018456703E+02 -0.84775417198E+03  0.85700484203E+03  0.10000000000E+01 0.  0.
    9000005    1    3    3    0    0 -0.21867847939E+02  0.42829595245E+02 -0.34465819584E+03  0.34799834620E+03  0.10000000000E+01 0.  0.
         21    1    1    2  502  501 -0.10176204620E+03 -0.64848051948E+02 -0.76357892410E+03  0.77305469226E+03  0.00000000000E+00 0.  1.
<mgrwt>
<rscale>  1 0.17373954E+03</rscale>
<asrwt>0</asrwt>
<pdfrwt beam="1">  1        4 0.16974314E-02 0.17373954E+03</pdfrwt>
<pdfrwt beam="2">  1       -4 0.30261889E+00 0.17373954E+03</pdfrwt>
<totfact> 0.82377925E+01</totfact>
</mgrwt>
</event>
<event>
 6    4  0.5642870E-004  0.1289071E+03  0.7818608E-02  0.1229086E+00
         -4   -1    0    0    0  501 -0.00000000000E+00  0.00000000000E+00  0.19491469013E+02  0.19532799705E+02  0.12700000000E+01 0. -1.
          4   -1    0    0  502    0  0.00000000000E+00 -0.00000000000E+00 -0.12153459589E+04  0.12153466224E+04  0.12700000000E+01 0. -1.
         25    2    1    2    0    0 -0.24150820483E+02 -0.20209046115E+02 -0.19637909189E+03  0.23490805313E+03  0.12500151207E+03 0.  0.
    9000005    1    3    3    0    0 -0.17116162999E+02 -0.15576978292E+02 -0.21405376403E+03  0.21530355126E+03  0.10000000000E+01 0.  0.
    9000005    1    3    3    0    0 -0.70346574840E+01 -0.46320678227E+01  0.17674672144E+02  0.19604501871E+02  0.10000000000E+01 0.  0.
         21    1    1    2  502  501  0.24150820483E+02  0.20209046115E+02 -0.99947539799E+03  0.99997136902E+03  0.00000000000E+00 0. -1.
<mgrwt>
<rscale>  1 0.12890712E+03</rscale>
<asrwt>0</asrwt>
<pdfrwt beam="2">  1        4 0.18697947E+00 0.12890712E+03</pdfrwt>
<pdfrwt beam="1">  1       -4 0.30019188E-02 0.12890712E+03</pdfrwt>
<totfact> 0.15856990E+02</totfact>
</mgrwt>
</event>
<event>
 6    4  0.5642870E-004  0.1268305E+03  0.7818608E-02  0.1232236E+00
         -4   -1    0    0    0  501 -0.00000000000E+00  0.00000000000E+00  0.20679399142E+03  0.20679789116E+03  0.12700000000E+01 0. -1.
          4   -1    0    0  502    0  0.00000000000E+00 -0.00000000000E+00 -0.27534796810E+02  0.27564069645E+02  0.12700000000E+01 0. -1.
         25    2    1    2    0    0  0.24168065681E+01 -0.21301627983E+02  0.16687893206E+03  0.20960572503E+03  0.12500552665E+03 0.  0.
    9000005    1    3    3    0    0 -0.11764345651E+02 -0.21801916525E+02  0.18495170250E+03  0.18660615116E+03  0.10000000000E+01 0.  0.
    9000005    1    3    3    0    0  0.14181152219E+02  0.50028854206E+00 -0.18072770442E+02  0.22999573873E+02  0.10000000000E+01 0.  0.
         21    1    1    2  502  501 -0.24168065681E+01  0.21301627983E+02  0.12380262551E+02  0.24756235771E+02  0.00000000000E+00 0. -1.
<mgrwt>
<rscale>  1 0.12683052E+03</rscale>
<asrwt>0</asrwt>
<pdfrwt beam="2">  1        4 0.42386744E-02 0.12683052E+03</pdfrwt>
<pdfrwt beam="1">  1       -4 0.31817012E-01 0.12683052E+03</pdfrwt>
<totfact> 0.47604222E+03</totfact>
</mgrwt>
</event>
<event>
 6    4  0.5642870E-004  0.1321830E+03  0.7818608E-02  0.1224252E+00
          4   -1    0    0  502    0  0.00000000000E+00  0.00000000000E+00  0.19675511206E+02  0.19716456102E+02  0.12700000000E+01 0. -1.
         -4   -1    0    0    0  501 -0.00000000000E+00 -0.00000000000E+00 -0.43939852647E+03  0.43940036181E+03  0.12700000000E+01 0. -1.
         25    2    1    2    0    0 -0.12190810872E+02  0.41217486657E+02 -0.37251879359E+03  0.39527532968E+03  0.12499935041E+03 0.  0.
    9000005    1    3    3    0    0  0.20673090204E+02 -0.36195075146E+02 -0.71919695063E+02  0.83131839035E+02  0.10000000000E+01 0.  0.
    9000005    1    3    3    0    0 -0.32863901076E+02  0.77412561803E+02 -0.30059909852E+03  0.31214349064E+03  0.10000000000E+01 0.  0.
         21    1    1    2  502  501  0.12190810872E+02 -0.41217486657E+02 -0.47204221674E+02  0.63841488234E+02  0.00000000000E+00 0. -1.
<mgrwt>
<rscale>  1 0.13218296E+03</rscale>
<asrwt>0</asrwt>
<pdfrwt beam="1">  1        4 0.30302928E-02 0.13218296E+03</pdfrwt>
<pdfrwt beam="2">  1       -4 0.67603057E-01 0.13218296E+03</pdfrwt>
<totfact> 0.17887973E+03</totfact>
</mgrwt>
</event>
<event>
 6    4  0.5642870E-004  0.1323973E+03  0.7818608E-02  0.1223941E+00
         -4   -1    0    0    0  501 -0.00000000000E+00  0.00000000000E+00  0.50279327839E+02  0.50295364677E+02  0.12700000000E+01 0.  1.
          4   -1    0    0  502    0  0.00000000000E+00 -0.00000000000E+00 -0.17200493489E+03  0.17200962336E+03  0.12700000000E+01 0.  1.
         25    2    1    2    0    0 -0.11165938796E+02  0.42196546894E+02 -0.56790742365E+02  0.14406328936E+03  0.12499526457E+03 0.  0.
    9000005    1    3    3    0    0 -0.35633792408E+02  0.68167783353E+02 -0.71905300541E+02  0.10529950662E+03  0.10000000000E+01 0.  0.
    9000005    1    3    3    0    0  0.24467853612E+02 -0.25971236459E+02  0.15114558175E+02  0.38763782741E+02  0.10000000000E+01 0.  0.
         21    1    1    2  502  501  0.11165938796E+02 -0.42196546894E+02 -0.64934864686E+02  0.78241698670E+02  0.00000000000E+00 0.  1.
<mgrwt>
<rscale>  1 0.13239729E+03</rscale>
<asrwt>0</asrwt>
<pdfrwt beam="2">  1        4 0.26463892E-01 0.13239729E+03</pdfrwt>
<pdfrwt beam="1">  1       -4 0.77368755E-02 0.13239729E+03</pdfrwt>
<totfact> 0.25661631E+03</totfact>
</mgrwt>
</event>
<event>
 6    4  0.5642870E-004  0.1307029E+03  0.7818608E-02  0.1226417E+00
         -4   -1    0    0    0  501 -0.00000000000E+00  0.00000000000E+00  0.71636814888E+02  0.71648071484E+02  0.12700000000E+01 0.  1.
          4   -1    0    0  502    0  0.00000000000E+00 -0.00000000000E+00 -0.11008249802E+03  0.11008982365E+03  0.12700000000E+01 0.  1.
         25    2    1    2    0    0  0.37495438208E+02 -0.73001897441E+01 -0.47315484923E+01  0.13078847383E+03  0.12499614665E+03 0.  0.
    9000005    1    3    3    0    0  0.41437615558E+02  0.46690804378E+01 -0.60566530311E+02  0.73540335117E+02  0.10000000000E+01 0.  0.
    9000005    1    3    3    0    0 -0.39421773501E+01 -0.11969270182E+02  0.55834981819E+02  0.57248138709E+02  0.10000000000E+01 0.  0.
         21    1    1    2  502  501 -0.37495438208E+02  0.73001897441E+01 -0.33714134641E+02  0.50949421305E+02  0.00000000000E+00 0. -1.
<mgrwt>
<rscale>  1 0.13070286E+03</rscale>
<asrwt>0</asrwt>
<pdfrwt beam="2">  1        4 0.16937198E-01 0.13070286E+03</pdfrwt>
<pdfrwt beam="1">  1       -4 0.11022478E-01 0.13070286E+03</pdfrwt>
<totfact> 0.31732478E+03</totfact>
</mgrwt>
</event>
<event>
 6    4  0.5642870E-004  0.1305095E+03  0.7818608E-02  0.1226702E+00
         -4   -1    0    0    0  501 -0.00000000000E+00  0.00000000000E+00  0.10268815596E+03  0.10269600905E+03  0.12700000000E+01 0.  1.
          4   -1    0    0  502    0  0.00000000000E+00 -0.00000000000E+00 -0.79023041583E+02  0.79033246176E+02  0.12700000000E+01 0.  1.
         25    2    1    2    0    0  0.35371379393E+02 -0.12537719542E+02  0.45617692278E+02  0.13825231228E+03  0.12499759642E+03 0.  0.
    9000005    1    3    3    0    0  0.25288675561E+01 -0.67616879831E+01 -0.42973790161E+02  0.43587409149E+02  0.10000000000E+01 0.  0.
    9000005    1    3    3    0    0  0.32842511837E+02 -0.57760315591E+01  0.88591482439E+02  0.94664903133E+02  0.10000000000E+01 0.  0.
         21    1    1    2  502  501 -0.35371379393E+02  0.12537719542E+02 -0.21952577899E+02  0.43476942945E+02  0.00000000000E+00 0.  1.
<mgrwt>
<rscale>  1 0.13050949E+03</rscale>
<asrwt>0</asrwt>
<pdfrwt beam="2">  1        4 0.12158780E-01 0.13050949E+03</pdfrwt>
<pdfrwt beam="1">  1       -4 0.15799567E-01 0.13050949E+03</pdfrwt>
<totfact> 0.30330382E+03</totfact>
</mgrwt>
</event>
<event>
 6    4  0.5642870E-004  0.1288405E+03  0.7818608E-02  0.1229186E+00
         -4   -1    0    0    0  501 -0.00000000000E+00  0.00000000000E+00  0.99872059126E+01  0.10067630403E+02  0.12700000000E+01 0.  1.
          4   -1    0    0  502    0  0.00000000000E+00 -0.00000000000E+00 -0.83673545159E+03  0.83673641539E+03  0.12700000000E+01 0.  1.
         25    2    1    2    0    0  0.20208732622E+02 -0.23875258412E+02 -0.43161563998E+03  0.45043528199E+03  0.12498584619E+03 0.  0.
    9000005    1    3    3    0    0 -0.38417611829E+02  0.10401626419E+02 -0.29699571106E+03  0.29965239715E+03  0.10000000000E+01 0.  0.
    9000005    1    3    3    0    0  0.58626344452E+02 -0.34276884831E+02 -0.13461992892E+03  0.15078288484E+03  0.10000000000E+01 0.  0.
         21    1    1    2  502  501 -0.20208732622E+02  0.23875258412E+02 -0.39513260570E+03  0.39636876381E+03  0.00000000000E+00 0.  1.
<mgrwt>
<rscale>  1 0.12884053E+03</rscale>
<asrwt>0</asrwt>
<pdfrwt beam="2">  1        4 0.12873474E+00 0.12884053E+03</pdfrwt>
<pdfrwt beam="1">  1       -4 0.15427545E-02 0.12884053E+03</pdfrwt>
<totfact> 0.11610966E+03</totfact>
</mgrwt>
</event>
<event>
 6    4  0.5642870E-004  0.1292082E+03  0.7818608E-02  0.1228635E+00
          4   -1    0    0  502    0  0.00000000000E+00  0.00000000000E+00  0.84738611005E+01  0.85685017332E+01  0.12700000000E+01 0.  1.
         -4   -1    0    0    0  501 -0.00000000000E+00 -0.00000000000E+00 -0.77490309238E+03  0.77490413309E+03  0.12700000000E+01 0.  1.
         25    2    1    2    0    0  0.32603117193E+02 -0.28826545685E+01 -0.63670970962E+03  0.64968763100E+03  0.12499396227E+03 0.  0.
    9000005    1    3    3    0    0 -0.20823515238E+02  0.74975678388E+01 -0.17883736796E+02  0.28472097783E+02  0.10000000000E+01 0.  0.
    9000005    1    3    3    0    0  0.53426632431E+02 -0.10380222407E+02 -0.61882597282E+03  0.62121553322E+03  0.10000000000E+01 0.  0.
         21    1    1    2  502  501 -0.32603117193E+02  0.28826545685E+01 -0.12971952166E+03  0.13378500382E+03  0.00000000000E+00 0.  1.
<mgrwt>
<rscale>  1 0.12920822E+03</rscale>
<asrwt>0</asrwt>
<pdfrwt beam="1">  1        4 0.13110317E-02 0.12920822E+03</pdfrwt>
<pdfrwt beam="2">  1       -4 0.11922317E+00 0.12920822E+03</pdfrwt>
<totfact> 0.17919860E+03</totfact>
</mgrwt>
</event>
<event>
 6    4  0.5642870E-004  0.1271460E+03  0.7818608E-02  0.1231753E+00
         -4   -1    0    0    0  501 -0.00000000000E+00  0.00000000000E+00  0.13655832711E+04  0.13655838616E+04  0.12700000000E+01 0.  1.
          4   -1    0    0  502    0  0.00000000000E+00 -0.00000000000E+00 -0.40875996122E+01  0.42803470174E+01  0.12700000000E+01 0.  1.
         25    2    1    2    0    0 -0.19967889288E+02  0.11926003833E+02  0.11966698652E+04  0.12034055273E+04  0.12500060319E+03 0.  0.
    9000005    1    3    3    0    0 -0.22239304658E+02  0.58701111529E+02  0.36057844495E+03  0.36600303569E+03  0.10000000000E+01 0.  0.
    9000005    1    3    3    0    0  0.22714153707E+01 -0.46775107697E+02  0.83609142020E+03  0.83740249161E+03  0.10000000000E+01 0.  0.
         21    1    1    2  502  501  0.19967889288E+02 -0.11926003833E+02  0.16482580629E+03  0.16645868132E+03  0.00000000000E+00 0. -1.
<mgrwt>
<rscale>  1 0.12714597E+03</rscale>
<asrwt>0</asrwt>
<pdfrwt beam="2">  1        4 0.64373446E-03 0.12714597E+03</pdfrwt>
<pdfrwt beam="1">  1       -4 0.21010433E+00 0.12714597E+03</pdfrwt>
<totfact> 0.11815639E+03</totfact>
</mgrwt>
</event>
<event>
 6    4  0.5642870E-004  0.1272945E+03  0.7818608E-02  0.1231526E+00
          4   -1    0    0  502    0  0.00000000000E+00  0.00000000000E+00  0.47448651817E+01  0.49118881902E+01  0.12700000000E+01 0. -1.
         -4   -1    0    0    0  501 -0.00000000000E+00 -0.00000000000E+00 -0.13744208750E+04  0.13744214618E+04  0.12700000000E+01 0. -1.
         25    2    1    2    0    0 -0.15683617727E+02  0.18245493552E+02 -0.12854754660E+04  0.12917627757E+04  0.12500008407E+03 0.  0.
    9000005    1    3    3    0    0 -0.49087549374E+02  0.35323764374E+02 -0.11373407132E+04  0.11389478714E+04  0.10000000000E+01 0.  0.
    9000005    1    3    3    0    0  0.33403931646E+02 -0.17078270822E+02 -0.14813475277E+03  0.15281490425E+03  0.10000000000E+01 0.  0.
         21    1    1    2  502  501  0.15683617727E+02 -0.18245493552E+02 -0.84200543834E+02  0.87570574293E+02  0.00000000000E+00 0. -1.
<mgrwt>
<rscale>  1 0.12729452E+03</rscale>
<asrwt>0</asrwt>
<pdfrwt beam="1">  1        4 0.74287341E-03 0.12729452E+03</pdfrwt>
<pdfrwt beam="2">  1       -4 0.21146195E+00 0.12729452E+03</pdfrwt>
<totfact> 0.93698363E+02</totfact>
</mgrwt>
</event>
<event>
 6    4  0.5642870E-004  0.2232153E+03  0.7818608E-02  0.1131508E+00
          4   -1    0    0  502    0  0.00000000000E+00  0.00000000000E+00  0.98160825094E+02  0.98169040349E+02  0.12700000000E+01 0. -1.
         -4   -1    0    0    0  501 -0.00000000000E+00 -0.00000000000E+00 -0.76899422270E+03  0.76899527141E+03  0.12700000000E+01 0. -1.
         25    2    1    2    0    0  0.17383496128E+03 -0.63094252038E+02 -0.64238060577E+03  0.68005728418E+03  0.12500235480E+03 0.  0.
    9000005    1    3    3    0    0  0.10053095479E+02 -0.37926768225E+02 -0.26510136048E+03  0.26799111143E+03  0.10000000000E+01 0.  0.
    9000005    1    3    3    0    0  0.16378186580E+03 -0.25167483812E+02 -0.37727924528E+03  0.41206617275E+03  0.10000000000E+01 0.  0.
         21    1    1    2  502  501 -0.17383496128E+03  0.63094252038E+02 -0.28452791840E+02  0.18710702757E+03  0.00000000000E+00 0. -1.
<mgrwt>
<rscale>  1 0.22321529E+03</rscale>
<asrwt>0</asrwt>
<pdfrwt beam="1">  1        4 0.15102379E-01 0.22321529E+03</pdfrwt>
<pdfrwt beam="2">  1       -4 0.11830751E+00 0.22321529E+03</pdfrwt>
<totfact> 0.38412725E+01</totfact>
</mgrwt>
</event>
<event>
 6    4  0.5642870E-004  0.1314887E+03  0.7818608E-02  0.1225263E+00
          4   -1    0    0  502    0  0.00000000000E+00  0.00000000000E+00  0.87399627488E+02  0.87408854157E+02  0.12700000000E+01 0. -1.
         -4   -1    0    0    0  501 -0.00000000000E+00 -0.00000000000E+00 -0.18204047658E+03  0.18204490659E+03  0.12700000000E+01 0. -1.
         25    2    1    2    0    0 -0.40539596423E+02 -0.45528274692E+01 -0.15077882489E+03  0.20005880817E+03  0.12500034229E+03 0.  0.
    9000005    1    3    3    0    0  0.34747888114E+02 -0.33314399254E+02 -0.76855892658E+02  0.90692299355E+02  0.10000000000E+01 0.  0.
    9000005    1    3    3    0    0 -0.75287484536E+02  0.28761571785E+02 -0.73922932235E+02  0.10936650881E+03  0.10000000000E+01 0.  0.
         21    1    1    2  502  501  0.40539596423E+02  0.45528274692E+01  0.56137975800E+02  0.69394952576E+02  0.00000000000E+00 0. -1.
<mgrwt>
<rscale>  1 0.13148868E+03</rscale>
<asrwt>0</asrwt>
<pdfrwt beam="1">  1        4 0.13447147E-01 0.13148868E+03</pdfrwt>
<pdfrwt beam="2">  1       -4 0.28007278E-01 0.13148868E+03</pdfrwt>
<totfact> 0.90699127E+02</totfact>
</mgrwt>
</event>
<event>
 6    4  0.5642870E-004  0.1277094E+03  0.7818608E-02  0.1230895E+00
          4   -1    0    0  502    0  0.00000000000E+00  0.00000000000E+00  0.19932767248E+02  0.19973184778E+02  0.12700000000E+01 0.  1.
         -4   -1    0    0    0  501 -0.00000000000E+00 -0.00000000000E+00 -0.39440719188E+03  0.39440923659E+03  0.12700000000E+01 0.  1.
         25    2    1    2    0    0  0.92919379714E+01 -0.24488451593E+02 -0.36472013480E+03  0.38643299306E+03  0.12499462798E+03 0.  0.
    9000005    1    3    3    0    0  0.71234299750E+01 -0.35008093343E+02 -0.37181043332E+03  0.37352417349E+03  0.10000000000E+01 0.  0.
    9000005    1    3    3    0    0  0.21685079964E+01  0.10519641749E+02  0.70902985253E+01  0.12908819568E+02  0.10000000000E+01 0.  0.
         21    1    1    2  502  501 -0.92919379714E+01  0.24488451593E+02 -0.97542898376E+01  0.27949428312E+02  0.00000000000E+00 0. -1.
<mgrwt>
<rscale>  1 0.12770936E+03</rscale>
<asrwt>0</asrwt>
<pdfrwt beam="1">  1        4 0.30698462E-02 0.12770936E+03</pdfrwt>
<pdfrwt beam="2">  1       -4 0.60681290E-01 0.12770936E+03</pdfrwt>
<totfact> 0.21868716E+03</totfact>
</mgrwt>
</event>
<event>
 6    4  0.5642870E-004  0.1266151E+03  0.7818608E-02  0.1232567E+00
         -4   -1    0    0    0  501 -0.00000000000E+00  0.00000000000E+00  0.23532644528E+03  0.23532987219E+03  0.12700000000E+01 0.  1.
          4   -1    0    0  502    0  0.00000000000E+00 -0.00000000000E+00 -0.24445349951E+02  0.24478317634E+02  0.12700000000E+01 0.  1.
         25    2    1    2    0    0  0.12962167760E+02 -0.15434257021E+02  0.20051164899E+03  0.23714192635E+03  0.12500055107E+03 0.  0.
    9000005    1    3    3    0    0  0.34795442292E+02  0.31100642436E+02  0.17227306894E+03  0.17848524602E+03  0.10000000000E+01 0.  0.
    9000005    1    3    3    0    0 -0.21833274532E+02 -0.46534899457E+02  0.28238580053E+02  0.58656680333E+02  0.10000000000E+01 0.  0.
         21    1    1    2  502  501 -0.12962167760E+02  0.15434257021E+02  0.10369446336E+02  0.22666263480E+02  0.00000000000E+00 0.  1.
<mgrwt>
<rscale>  1 0.12661505E+03</rscale>
<asrwt>0</asrwt>
<pdfrwt beam="2">  1        4 0.37636227E-02 0.12661505E+03</pdfrwt>
<pdfrwt beam="1">  1       -4 0.36206868E-01 0.12661505E+03</pdfrwt>
<totfact> 0.44833956E+03</totfact>
</mgrwt>
</event>
<event>
 6    4  0.5642870E-004  0.1350260E+03  0.7818608E-02  0.1220183E+00
          4   -1    0    0  502    0  0.00000000000E+00  0.00000000000E+00  0.13014368302E+03  0.13014987949E+03  0.12700000000E+01 0.  1.
         -4   -1    0    0    0  501 -0.00000000000E+00 -0.00000000000E+00 -0.67066017864E+02  0.67078041505E+02  0.12700000000E+01 0.  1.
         25    2    1    2    0    0 -0.17602760786E+02 -0.47927316600E+02  0.37582143719E+02  0.14015860807E+03  0.12500053210E+03 0.  0.
    9000005    1    3    3    0    0 -0.35789547370E+02 -0.64170690286E+02  0.68711268708E+02  0.10060321884E+03  0.10000000000E+01 0.  0.
    9000005    1    3    3    0    0  0.18186786584E+02  0.16243373686E+02 -0.31129124990E+02  0.39555389235E+02  0.10000000000E+01 0.  0.
         21    1    1    2  502  501  0.17602760786E+02  0.47927316600E+02  0.25495521437E+02  0.57069312920E+02  0.00000000000E+00 0. -1.
<mgrwt>
<rscale>  1 0.13502599E+03</rscale>
<asrwt>0</asrwt>
<pdfrwt beam="1">  1        4 0.20023506E-01 0.13502599E+03</pdfrwt>
<pdfrwt beam="2">  1       -4 0.10319251E-01 0.13502599E+03</pdfrwt>
<totfact> 0.26528862E+03</totfact>
</mgrwt>
</event>
<event>
 6    4  0.5642870E-004  0.1284213E+03  0.7818608E-02  0.1229817E+00
          4   -1    0    0  502    0  0.00000000000E+00  0.00000000000E+00  0.16128581888E+02  0.16178505917E+02  0.12700000000E+01 0. -1.
         -4   -1    0    0    0  501 -0.00000000000E+00 -0.00000000000E+00 -0.44979405656E+03  0.44979584949E+03  0.12700000000E+01 0. -1.
         25    2    1    2    0    0  0.27265292694E+02 -0.11117861931E+02 -0.40502911910E+03  0.42490071544E+03  0.12500011049E+03 0.  0.
    9000005    1    3    3    0    0  0.29177478311E+02 -0.62555161267E+02 -0.15578196565E+03  0.17039217783E+03  0.10000000000E+01 0.  0.
    9000005    1    3    3    0    0 -0.19121856174E+01  0.51437299336E+02 -0.24924715345E+03  0.25450853762E+03  0.10000000000E+01 0.  0.
         21    1    1    2  502  501 -0.27265292694E+02  0.11117861931E+02 -0.28636355576E+02  0.41073639969E+02  0.00000000000E+00 0. -1.
<mgrwt>
<rscale>  1 0.12842130E+03</rscale>
<asrwt>0</asrwt>
<pdfrwt beam="1">  1        4 0.24852989E-02 0.12842130E+03</pdfrwt>
<pdfrwt beam="2">  1       -4 0.69203054E-01 0.12842130E+03</pdfrwt>
<totfact> 0.23019010E+03</totfact>
</mgrwt>
</event>
<event>
 6    4  0.5642870E-004  0.1299484E+03  0.7818608E-02  0.1227532E+00
         -4   -1    0    0    0  501 -0.00000000000E+00  0.00000000000E+00  0.12773041776E+03  0.12773673130E+03  0.12700000000E+01 0. -1.
          4   -1    0    0  502    0  0.00000000000E+00 -0.00000000000E+00 -0.59858137612E+02  0.59871608784E+02  0.12700000000E+01 0. -1.
         25    2    1    2    0    0  0.24264109880E+02 -0.25931854951E+02  0.76857651273E+02  0.15097577228E+03  0.12500150850E+03 0.  0.
    9000005    1    3    3    0    0 -0.39311671412E+02 -0.32633268478E+01  0.73459343396E+02  0.83386641277E+02  0.10000000000E+01 0.  0.
    9000005    1    3    3    0    0  0.63575781293E+02 -0.22668528103E+02  0.33983078774E+01  0.67589131003E+02  0.10000000000E+01 0.  0.
         21    1    1    2  502  501 -0.24264109880E+02  0.25931854951E+02 -0.89853711207E+01  0.36632567800E+02  0.00000000000E+00 0.  1.
<mgrwt>
<rscale>  1 0.12994839E+03</rscale>
<asrwt>0</asrwt>
<pdfrwt beam="2">  1        4 0.92104662E-02 0.12994839E+03</pdfrwt>
<pdfrwt beam="1">  1       -4 0.19652355E-01 0.12994839E+03</pdfrwt>
<totfact> 0.32914220E+03</totfact>
</mgrwt>
</event>
<event>
 6    4  0.5642870E-004  0.1274833E+03  0.7818608E-02  0.1231239E+00
         -4   -1    0    0    0  501 -0.00000000000E+00  0.00000000000E+00  0.10621064293E+03  0.10621823558E+03  0.12700000000E+01 0.  1.
          4   -1    0    0  502    0  0.00000000000E+00 -0.00000000000E+00 -0.60337155543E+02  0.60350519791E+02  0.12700000000E+01 0.  1.
         25    2    1    2    0    0 -0.21301801262E+02 -0.13155082792E+02  0.56409142662E+02  0.13940585839E+03  0.12500071615E+03 0.  0.
    9000005    1    3    3    0    0 -0.52977547567E+02  0.25647299129E+02 -0.62293835308E+01  0.59196365749E+02  0.10000000000E+01 0.  0.
    9000005    1    3    3    0    0  0.31675746305E+02 -0.38802381920E+02  0.62638526193E+02  0.80209492644E+02  0.10000000000E+01 0.  0.
         21    1    1    2  502  501  0.21301801262E+02  0.13155082792E+02 -0.10535655279E+02  0.27162896981E+02  0.00000000000E+00 0.  1.
<mgrwt>
<rscale>  1 0.12748334E+03</rscale>
<asrwt>0</asrwt>
<pdfrwt beam="2">  1        4 0.92842515E-02 0.12748334E+03</pdfrwt>
<pdfrwt beam="1">  1       -4 0.16341711E-01 0.12748334E+03</pdfrwt>
<totfact> 0.44853969E+03</totfact>
</mgrwt>
</event>
<event>
 6    4  0.5642870E-004  0.1268088E+03  0.7818608E-02  0.1232269E+00
         -4   -1    0    0    0  501 -0.00000000000E+00  0.00000000000E+00  0.72371188867E+02  0.72382331255E+02  0.12700000000E+01 0. -1.
          4   -1    0    0  502    0  0.00000000000E+00 -0.00000000000E+00 -0.75927700180E+02  0.75938320726E+02  0.12700000000E+01 0. -1.
         25    2    1    2    0    0 -0.18316840508E+02  0.10996890637E+02 -0.10824283206E+01  0.12681345931E+03  0.12499617419E+03 0.  0.
    9000005    1    3    3    0    0  0.21228243689E+02 -0.46488197949E+02 -0.19392540508E+02  0.54670481121E+02  0.10000000000E+01 0.  0.
    9000005    1    3    3    0    0 -0.39545084196E+02  0.57485088586E+02  0.18310112187E+02  0.72142978190E+02  0.10000000000E+01 0.  0.
         21    1    1    2  502  501  0.18316840508E+02 -0.10996890637E+02 -0.24740829927E+01  0.21507192669E+02  0.00000000000E+00 0. -1.
<mgrwt>
<rscale>  1 0.12680884E+03</rscale>
<asrwt>0</asrwt>
<pdfrwt beam="2">  1        4 0.11682859E-01 0.12680884E+03</pdfrwt>
<pdfrwt beam="1">  1       -4 0.11135703E-01 0.12680884E+03</pdfrwt>
<totfact> 0.58934487E+03</totfact>
</mgrwt>
</event>
<event>
 6    4  0.5642870E-004  0.1279271E+03  0.7818608E-02  0.1230564E+00
         -4   -1    0    0    0  501 -0.00000000000E+00  0.00000000000E+00  0.82554898816E+01  0.83526051735E+01  0.12700000000E+01 0.  1.
          4   -1    0    0  502    0  0.00000000000E+00 -0.00000000000E+00 -0.73113459793E+03  0.73113570094E+03  0.12700000000E+01 0.  1.
         25    2    1    2    0    0 -0.23691922904E+02  0.13414713302E+02 -0.62056614328E+03  0.63361477542E+03  0.12499633471E+03 0.  0.
    9000005    1    3    3    0    0 -0.32605814102E+02 -0.46954171650E+02 -0.18055139668E+03  0.18938753970E+03  0.10000000000E+01 0.  0.
    9000005    1    3    3    0    0  0.89138911977E+01  0.60368884952E+02 -0.44001474660E+03  0.44422723572E+03  0.10000000000E+01 0.  0.
         21    1    1    2  502  501  0.23691922904E+02 -0.13414713302E+02 -0.10231296477E+03  0.10587353070E+03  0.00000000000E+00 0.  1.
<mgrwt>
<rscale>  1 0.12792711E+03</rscale>
<asrwt>0</asrwt>
<pdfrwt beam="2">  1        4 0.11248975E+00 0.12792711E+03</pdfrwt>
<pdfrwt beam="1">  1       -4 0.12776312E-02 0.12792711E+03</pdfrwt>
<totfact> 0.21344471E+03</totfact>
</mgrwt>
</event>
<event>
 6    4  0.5642870E-004  0.1271073E+03  0.7818608E-02  0.1231812E+00
          4   -1    0    0  502    0  0.00000000000E+00  0.00000000000E+00  0.43946943257E+02  0.43965289964E+02  0.12700000000E+01 0.  1.
         -4   -1    0    0    0  501 -0.00000000000E+00 -0.00000000000E+00 -0.14817989988E+03  0.14818534215E+03  0.12700000000E+01 0.  1.
         25    2    1    2    0    0 -0.18308063937E+02  0.13982041086E+02 -0.11033957454E+03  0.16831843833E+03  0.12500236916E+03 0.  0.
    9000005    1    3    3    0    0 -0.54453074826E+02  0.28775997962E+02 -0.11348469709E+03  0.12912386259E+03  0.10000000000E+01 0.  0.
    9000005    1    3    3    0    0  0.36145010889E+02 -0.14793956876E+02  0.31451225469E+01  0.39194575748E+02  0.10000000000E+01 0.  0.
         21    1    1    2  502  501  0.18308063937E+02 -0.13982041086E+02  0.61066179151E+01  0.23832193781E+02  0.00000000000E+00 0.  1.
<mgrwt>
<rscale>  1 0.12710734E+03</rscale>
<asrwt>0</asrwt>
<pdfrwt beam="1">  1        4 0.67628982E-02 0.12710734E+03</pdfrwt>
<pdfrwt beam="2">  1       -4 0.22798737E-01 0.12710734E+03</pdfrwt>
<totfact> 0.41705463E+03</totfact>
</mgrwt>
</event>
<event>
 6    4  0.5642870E-004  0.1288639E+03  0.7818608E-02  0.1229151E+00
          4   -1    0    0  502    0  0.00000000000E+00  0.00000000000E+00  0.74427503958E+02  0.74438338545E+02  0.12700000000E+01 0. -1.
         -4   -1    0    0    0  501 -0.00000000000E+00 -0.00000000000E+00 -0.86233146890E+02  0.86242498355E+02  0.12700000000E+01 0. -1.
         25    2    1    2    0    0  0.16346462476E+01 -0.31284012665E+02 -0.78091778315E+01  0.12910025347E+03  0.12499812266E+03 0.  0.
    9000005    1    3    3    0    0 -0.63259848383E+01 -0.66112660712E+02 -0.42852559129E+02  0.79045833632E+02  0.10000000000E+01 0.  0.
    9000005    1    3    3    0    0  0.79606310859E+01  0.34828648048E+02  0.35043381298E+02  0.50054419834E+02  0.10000000000E+01 0.  0.
         21    1    1    2  502  501 -0.16346462476E+01  0.31284012665E+02 -0.39964651010E+01  0.31580583435E+02  0.00000000000E+00 0. -1.
<mgrwt>
<rscale>  1 0.12886385E+03</rscale>
<asrwt>0</asrwt>
<pdfrwt beam="1">  1        4 0.11451938E-01 0.12886385E+03</pdfrwt>
<pdfrwt beam="2">  1       -4 0.13268191E-01 0.12886385E+03</pdfrwt>
<totfact> 0.45368468E+03</totfact>
</mgrwt>
</event>
<event>
 6    4  0.5642870E-004  0.1326626E+03  0.7818608E-02  0.1223558E+00
          4   -1    0    0  502    0  0.00000000000E+00  0.00000000000E+00  0.15897389320E+03  0.15897896596E+03  0.12700000000E+01 0. -1.
         -4   -1    0    0    0  501 -0.00000000000E+00 -0.00000000000E+00 -0.49887692897E+02  0.49903855588E+02  0.12700000000E+01 0. -1.
         25    2    1    2    0    0 -0.24669545858E+02  0.36913625764E+02  0.91355414906E+02  0.16107505010E+03  0.12501263006E+03 0.  0.
    9000005    1    3    3    0    0 -0.41687043259E+02 -0.57863574273E+01  0.10499258682E+03  0.11311823370E+03  0.10000000000E+01 0.  0.
    9000005    1    3    3    0    0  0.17017497401E+02  0.42699983191E+02 -0.13637171911E+02  0.47956816408E+02  0.10000000000E+01 0.  0.
         21    1    1    2  502  501  0.24669545858E+02 -0.36913625764E+02  0.17730785393E+02  0.47807771445E+02  0.00000000000E+00 0. -1.
<mgrwt>
<rscale>  1 0.13266258E+03</rscale>
<asrwt>0</asrwt>
<pdfrwt beam="1">  1        4 0.24459155E-01 0.13266258E+03</pdfrwt>
<pdfrwt beam="2">  1       -4 0.76766633E-02 0.13266258E+03</pdfrwt>
<totfact> 0.30085457E+03</totfact>
</mgrwt>
</event>
<event>
 6    4  0.5642870E-004  0.1288745E+03  0.7818608E-02  0.1229135E+00
         -4   -1    0    0    0  501 -0.00000000000E+00  0.00000000000E+00  0.62282809011E+03  0.62282938493E+03  0.12700000000E+01 0. -1.
          4   -1    0    0  502    0  0.00000000000E+00 -0.00000000000E+00 -0.11624639898E+02  0.11693808308E+02  0.12700000000E+01 0. -1.
         25    2    1    2    0    0  0.26561044174E+01  0.31251717513E+02  0.55864718001E+03  0.57331954730E+03  0.12499962739E+03 0.  0.
    9000005    1    3    3    0    0  0.13327075801E+02 -0.83187933748E+00 -0.25680023741E+00  0.13392868214E+02  0.10000000000E+01 0.  0.
    9000005    1    3    3    0    0 -0.10670971384E+02  0.32083596851E+02  0.55890398025E+03  0.55992667909E+03  0.10000000000E+01 0.  0.
         21    1    1    2  502  501 -0.26561044174E+01 -0.31251717513E+02  0.52556270203E+02  0.61203645936E+02  0.00000000000E+00 0. -1.
<mgrwt>
<rscale>  1 0.12887448E+03</rscale>
<asrwt>0</asrwt>
<pdfrwt beam="2">  1        4 0.17938262E-02 0.12887448E+03</pdfrwt>
<pdfrwt beam="1">  1       -4 0.95825135E-01 0.12887448E+03</pdfrwt>
<totfact> 0.18516258E+03</totfact>
</mgrwt>
</event>
<event>
 6    4  0.5642870E-004  0.1274898E+03  0.7818608E-02  0.1231229E+00
         -4   -1    0    0    0  501 -0.00000000000E+00  0.00000000000E+00  0.86516858731E+02  0.86526179533E+02  0.12700000000E+01 0. -1.
          4   -1    0    0  502    0  0.00000000000E+00 -0.00000000000E+00 -0.69602770018E+02  0.69614355518E+02  0.12700000000E+01 0. -1.
         25    2    1    2    0    0  0.10640925435E+02  0.22734443996E+02  0.24697551016E+02  0.12985999999E+03  0.12499426520E+03 0.  0.
    9000005    1    3    3    0    0 -0.10817415251E+02  0.14855364137E+02 -0.49185076659E+02  0.52515427089E+02  0.10000000000E+01 0.  0.
    9000005    1    3    3    0    0  0.21458340686E+02  0.78790798587E+01  0.73882627675E+02  0.77344572897E+02  0.10000000000E+01 0.  0.
         21    1    1    2  502  501 -0.10640925435E+02 -0.22734443996E+02 -0.77834623029E+01  0.26280535066E+02  0.00000000000E+00 0. -1.
<mgrwt>
<rscale>  1 0.12748981E+03</rscale>
<asrwt>0</asrwt>
<pdfrwt beam="2">  1        4 0.10709727E-01 0.12748981E+03</pdfrwt>
<pdfrwt beam="1">  1       -4 0.13311894E-01 0.12748981E+03</pdfrwt>
<totfact> 0.50408189E+03</totfact>
</mgrwt>
</event>
<event>
 6    4  0.5642870E-004  0.1267902E+03  0.7818608E-02  0.1232298E+00
         -4   -1    0    0    0  501 -0.00000000000E+00  0.00000000000E+00  0.23518719222E+03  0.23519062116E+03  0.12700000000E+01 0. -1.
          4   -1    0    0  502    0  0.00000000000E+00 -0.00000000000E+00 -0.23378274001E+02  0.23412744292E+02  0.12700000000E+01 0. -1.
         25    2    1    2    0    0  0.20656783042E+02  0.49487565716E+01  0.18718028166E+03  0.22608010276E+03  0.12499824858E+03 0.  0.
    9000005    1    3    3    0    0  0.51557144553E+02 -0.44733354191E+02  0.99499475207E+02  0.12066630722E+03  0.10000000000E+01 0.  0.
    9000005    1    3    3    0    0 -0.30900361511E+02  0.49682110763E+02  0.87680806450E+02  0.10541379554E+03  0.10000000000E+01 0.  0.
         21    1    1    2  502  501 -0.20656783042E+02 -0.49487565716E+01  0.24628636559E+02  0.32523262690E+02  0.00000000000E+00 0.  1.
<mgrwt>
<rscale>  1 0.12679020E+03</rscale>
<asrwt>0</asrwt>
<pdfrwt beam="2">  1        4 0.35995729E-02 0.12679020E+03</pdfrwt>
<pdfrwt beam="1">  1       -4 0.36185560E-01 0.12679020E+03</pdfrwt>
<totfact> 0.48174942E+03</totfact>
</mgrwt>
</event>
<event>
 6    4  0.5642870E-004  0.1277469E+03  0.7818608E-02  0.1230838E+00
          4   -1    0    0  502    0  0.00000000000E+00  0.00000000000E+00  0.12357230745E+02  0.12422320705E+02  0.12700000000E+01 0. -1.
         -4   -1    0    0    0  501 -0.00000000000E+00 -0.00000000000E+00 -0.49371183961E+03  0.49371347305E+03  0.12700000000E+01 0. -1.
         25    2    1    2    0    0 -0.11267944493E+02 -0.23793433647E+02 -0.42769842638E+03  0.44636891349E+03  0.12500467569E+03 0.  0.
    9000005    1    3    3    0    0 -0.33523698629E+02 -0.65748366686E+02 -0.18722093630E+03  0.20124454050E+03  0.10000000000E+01 0.  0.
    9000005    1    3    3    0    0  0.22255754136E+02  0.41954933039E+02 -0.24047749008E+03  0.24512437299E+03  0.10000000000E+01 0.  0.
         21    1    1    2  502  501  0.11267944493E+02  0.23793433647E+02 -0.53656182478E+02  0.59766880259E+02  0.00000000000E+00 0. -1.
<mgrwt>
<rscale>  1 0.12774687E+03</rscale>
<asrwt>0</asrwt>
<pdfrwt beam="1">  1        4 0.19062454E-02 0.12774687E+03</pdfrwt>
<pdfrwt beam="2">  1       -4 0.75960785E-01 0.12774687E+03</pdfrwt>
<totfact> 0.28289879E+03</totfact>
</mgrwt>
</event>
<event>
 6    4  0.5642870E-004  0.1283382E+03  0.7818608E-02  0.1229943E+00
         -4   -1    0    0    0  501 -0.00000000000E+00  0.00000000000E+00  0.86496100556E+02  0.86505423596E+02  0.12700000000E+01 0.  1.
          4   -1    0    0  502    0  0.00000000000E+00 -0.00000000000E+00 -0.71513592476E+02  0.71524868465E+02  0.12700000000E+01 0.  1.
         25    2    1    2    0    0 -0.49544324729E+00  0.28971972288E+02  0.12660589924E+02  0.12896120287E+03  0.12502432030E+03 0.  0.
    9000005    1    3    3    0    0 -0.30778265983E+01 -0.13854940150E+02 -0.50574713470E+02  0.52537929401E+02  0.10000000000E+01 0.  0.
    9000005    1    3    3    0    0  0.25823833510E+01  0.42826912438E+02  0.63235303395E+02  0.76423273472E+02  0.10000000000E+01 0.  0.
         21    1    1    2  502  501  0.49544324729E+00 -0.28971972288E+02  0.23219181558E+01  0.29069089187E+02  0.00000000000E+00 0.  1.
<mgrwt>
<rscale>  1 0.12833823E+03</rscale>
<asrwt>0</asrwt>
<pdfrwt beam="2">  1        4 0.11003676E-01 0.12833823E+03</pdfrwt>
<pdfrwt beam="1">  1       -4 0.13308677E-01 0.12833823E+03</pdfrwt>
<totfact> 0.48248930E+03</totfact>
</mgrwt>
</event>
<event>
 6    4  0.5642870E-004  0.1274382E+03  0.7818608E-02  0.1231307E+00
         -4   -1    0    0    0  501 -0.00000000000E+00  0.00000000000E+00  0.27821644246E+03  0.27821934108E+03  0.12700000000E+01 0.  1.
          4   -1    0    0  502    0  0.00000000000E+00 -0.00000000000E+00 -0.21285388243E+02  0.21323242076E+02  0.12700000000E+01 0.  1.
         25    2    1    2    0    0 -0.21940891050E+02  0.11580931599E+02  0.19637960259E+03  0.23410559843E+03  0.12499984891E+03 0.  0.
    9000005    1    3    3    0    0  0.19518998681E+02  0.38014007961E+02  0.13645550932E+02  0.44869334417E+02  0.10000000000E+01 0.  0.
    9000005    1    3    3    0    0 -0.41459889731E+02 -0.26433076362E+02  0.18273405166E+03  0.18923626402E+03  0.10000000000E+01 0.  0.
         21    1    1    2  502  501  0.21940891050E+02 -0.11580931599E+02  0.60551451622E+02  0.65436984728E+02  0.00000000000E+00 0. -1.
<mgrwt>
<rscale>  1 0.12743815E+03</rscale>
<asrwt>0</asrwt>
<pdfrwt beam="2">  1        4 0.32778101E-02 0.12743815E+03</pdfrwt>
<pdfrwt beam="1">  1       -4 0.42805661E-01 0.12743815E+03</pdfrwt>
<totfact> 0.40211230E+03</totfact>
</mgrwt>
</event>
<event>
 6    4  0.5642870E-004  0.1367805E+03  0.7818608E-02  0.1217728E+00
         -4   -1    0    0    0  501 -0.00000000000E+00  0.00000000000E+00  0.85884452572E+01  0.86818368987E+01  0.12700000000E+01 0. -1.
          4   -1    0    0  502    0  0.00000000000E+00 -0.00000000000E+00 -0.13891012803E+04  0.13891018609E+04  0.12700000000E+01 0. -1.
         25    2    1    2    0    0  0.26849543936E+02 -0.48607668202E+02 -0.60427243914E+03  0.61955959401E+03  0.12500122562E+03 0.  0.
    9000005    1    3    3    0    0 -0.28688868421E+01  0.95689657553E+01  0.16070875802E+01  0.10167514339E+02  0.10000000000E+01 0.  0.
    9000005    1    3    3    0    0  0.29718430778E+02 -0.58176633957E+02 -0.60587952672E+03  0.60939207967E+03  0.10000000000E+01 0.  0.
         21    1    1    2  502  501 -0.26849543936E+02  0.48607668202E+02 -0.77624039591E+03  0.77822410375E+03  0.00000000000E+00 0. -1.
<mgrwt>
<rscale>  1 0.13678052E+03</rscale>
<asrwt>0</asrwt>
<pdfrwt beam="2">  1        4 0.21371494E+00 0.13678052E+03</pdfrwt>
<pdfrwt beam="1">  1       -4 0.13285290E-02 0.13678052E+03</pdfrwt>
<totfact> 0.38353106E+02</totfact>
</mgrwt>
</event>
<event>
 6    4  0.5642870E-004  0.1809287E+03  0.7818608E-02  0.1166907E+00
         -4   -1    0    0    0  501 -0.00000000000E+00  0.00000000000E+00  0.15454428142E+02  0.15506522796E+02  0.12700000000E+01 0.  1.
          4   -1    0    0  502    0  0.00000000000E+00 -0.00000000000E+00 -0.16694047459E+04  0.16694052290E+04  0.12700000000E+01 0.  1.
         25    2    1    2    0    0  0.59017797478E+02 -0.11673499061E+03 -0.74821687483E+03  0.76978158175E+03  0.12500013346E+03 0.  0.
    9000005    1    3    3    0    0 -0.38197889787E+02 -0.33872790602E+02 -0.16416500677E+03  0.17192322175E+03  0.10000000000E+01 0.  0.
    9000005    1    3    3    0    0  0.97215687264E+02 -0.82862200008E+02 -0.58405186806E+03  0.59785836000E+03  0.10000000000E+01 0.  0.
         21    1    1    2  502  501 -0.59017797478E+02  0.11673499061E+03 -0.90573344291E+03  0.91513017001E+03  0.00000000000E+00 0.  1.
<mgrwt>
<rscale>  1 0.18092869E+03</rscale>
<asrwt>0</asrwt>
<pdfrwt beam="2">  1        4 0.25683540E+00 0.18092869E+03</pdfrwt>
<pdfrwt beam="1">  1       -4 0.23816501E-02 0.18092869E+03</pdfrwt>
<totfact> 0.90351115E+01</totfact>
</mgrwt>
</event>
<event>
 6    4  0.5642870E-004  0.1615700E+03  0.7818608E-02  0.1186936E+00
         -4   -1    0    0    0  501 -0.00000000000E+00  0.00000000000E+00  0.11985337114E+04  0.11985343843E+04  0.12700000000E+01 0. -1.
          4   -1    0    0  502    0  0.00000000000E+00 -0.00000000000E+00 -0.14710121791E+02  0.14764842807E+02  0.12700000000E+01 0. -1.
         25    2    1    2    0    0  0.67654018953E+02 -0.76837681198E+02  0.65284002308E+03  0.67253620739E+03  0.12499503582E+03 0.  0.
    9000005    1    3    3    0    0  0.10050036986E+03 -0.36612754144E+02  0.37860020482E+03  0.39342080931E+03  0.10000000000E+01 0.  0.
    9000005    1    3    3    0    0 -0.32846350912E+02 -0.40224927054E+02  0.27423981826E+03  0.27911539807E+03  0.10000000000E+01 0.  0.
         21    1    1    2  502  501 -0.67654018953E+02  0.76837681198E+02  0.53098356654E+03  0.54076301969E+03  0.00000000000E+00 0. -1.
<mgrwt>
<rscale>  1 0.16156997E+03</rscale>
<asrwt>0</asrwt>
<pdfrwt beam="2">  1        4 0.22673566E-02 0.16156997E+03</pdfrwt>
<pdfrwt beam="1">  1       -4 0.18439408E+00 0.16156997E+03</pdfrwt>
<totfact> 0.26438875E+02</totfact>
</mgrwt>
</event>
<event>
 6    4  0.5642870E-004  0.1430606E+03  0.7818608E-02  0.1209269E+00
         -4   -1    0    0    0  501 -0.00000000000E+00  0.00000000000E+00  0.55606858545E+03  0.55607003572E+03  0.12700000000E+01 0.  1.
          4   -1    0    0  502    0  0.00000000000E+00 -0.00000000000E+00 -0.28082864100E+02  0.28111566233E+02  0.12700000000E+01 0.  1.
         25    2    1    2    0    0  0.40050750788E+02  0.56893848976E+02  0.47681389084E+03  0.49781303749E+03  0.12500144440E+03 0.  0.
    9000005    1    3    3    0    0 -0.34795074345E+02 -0.12603670408E+02  0.81456963641E+02  0.89475061509E+02  0.10000000000E+01 0.  0.
    9000005    1    3    3    0    0  0.74845825133E+02  0.69497519384E+02  0.39535692720E+03  0.40833797598E+03  0.10000000000E+01 0.  0.
         21    1    1    2  502  501 -0.40050750788E+02 -0.56893848976E+02  0.51171830509E+02  0.86368564464E+02  0.00000000000E+00 0.  1.
<mgrwt>
<rscale>  1 0.14306059E+03</rscale>
<asrwt>0</asrwt>
<pdfrwt beam="2">  1        4 0.43227602E-02 0.14306059E+03</pdfrwt>
<pdfrwt beam="1">  1       -4 0.85551330E-01 0.14306059E+03</pdfrwt>
<totfact> 0.61895662E+02</totfact>
</mgrwt>
</event>
<event>
 6    4  0.5642870E-004  0.1478224E+03  0.7818608E-02  0.1203175E+00
         -4   -1    0    0    0  501 -0.00000000000E+00  0.00000000000E+00  0.74618434307E+03  0.74618542384E+03  0.12700000000E+01 0.  1.
          4   -1    0    0  502    0  0.00000000000E+00 -0.00000000000E+00 -0.19280320134E+02  0.19322102485E+02  0.12700000000E+01 0.  1.
         25    2    1    2    0    0  0.54178833371E+02  0.57360930963E+02  0.58238164080E+03  0.60084927015E+03  0.12500339001E+03 0.  0.
    9000005    1    3    3    0    0  0.15117184511E+02  0.25395220432E+01  0.46708135120E+03  0.46733389250E+03  0.10000000000E+01 0.  0.
    9000005    1    3    3    0    0  0.39061648859E+02  0.54821408920E+02  0.11530028960E+03  0.13351537765E+03  0.10000000000E+01 0.  0.
         21    1    1    2  502  501 -0.54178833371E+02 -0.57360930963E+02  0.14452238214E+03  0.16465825617E+03  0.00000000000E+00 0.  1.
<mgrwt>
<rscale>  1 0.14782243E+03</rscale>
<asrwt>0</asrwt>
<pdfrwt beam="2">  1        4 0.29695010E-02 0.14782243E+03</pdfrwt>
<pdfrwt beam="1">  1       -4 0.11480086E+00 0.14782243E+03</pdfrwt>
<totfact> 0.57176881E+02</totfact>
</mgrwt>
</event>
<event>
 6    4  0.5642870E-004  0.1273908E+03  0.7818608E-02  0.1231379E+00
         -4   -1    0    0    0  501 -0.00000000000E+00  0.00000000000E+00  0.28732199721E+03  0.28732480398E+03  0.12700000000E+01 0. -1.
          4   -1    0    0  502    0  0.00000000000E+00 -0.00000000000E+00 -0.24788055486E+02  0.24820567978E+02  0.12700000000E+01 0. -1.
         25    2    1    2    0    0  0.17281830460E+02 -0.17461329223E+02  0.25717942777E+03  0.28700117776E+03  0.12499943313E+03 0.  0.
    9000005    1    3    3    0    0  0.13523139936E+01 -0.42792916828E+02  0.25320124690E+03  0.25679745698E+03  0.10000000000E+01 0.  0.
    9000005    1    3    3    0    0  0.15929516467E+02  0.25331587605E+02  0.39781808783E+01  0.30203720773E+02  0.10000000000E+01 0.  0.
         21    1    1    2  502  501 -0.17281830460E+02  0.17461329223E+02  0.53545139510E+01  0.25144194200E+02  0.00000000000E+00 0. -1.
<mgrwt>
<rscale>  1 0.12739081E+03</rscale>
<asrwt>0</asrwt>
<pdfrwt beam="2">  1        4 0.38162637E-02 0.12739081E+03</pdfrwt>
<pdfrwt beam="1">  1       -4 0.44206103E-01 0.12739081E+03</pdfrwt>
<totfact> 0.29671904E+03</totfact>
</mgrwt>
</event>
<event>
 6    4  0.5642870E-004  0.1376515E+03  0.7818608E-02  0.1216524E+00
         -4   -1    0    0    0  501 -0.00000000000E+00  0.00000000000E+00  0.55698822160E+02  0.55713299041E+02  0.12700000000E+01 0.  1.
          4   -1    0    0  502    0  0.00000000000E+00 -0.00000000000E+00 -0.18226761275E+03  0.18227203723E+03  0.12700000000E+01 0.  1.
         25    2    1    2    0    0 -0.43099890432E+02  0.38278692033E+02 -0.60659222142E+02  0.15042432879E+03  0.12500031457E+03 0.  0.
    9000005    1    3    3    0    0  0.46905281660E+01  0.35399652028E+02 -0.88215661567E+02  0.95174257884E+02  0.10000000000E+01 0.  0.
    9000005    1    3    3    0    0 -0.47790418598E+02  0.28790400048E+01  0.27556439425E+02  0.55250070904E+02  0.10000000000E+01 0.  0.
         21    1    1    2  502  501  0.43099890432E+02 -0.38278692033E+02 -0.65909568445E+02  0.87561007484E+02  0.00000000000E+00 0.  1.
<mgrwt>
<rscale>  1 0.13765151E+03</rscale>
<asrwt>0</asrwt>
<pdfrwt beam="2">  1        4 0.28042625E-01 0.13765151E+03</pdfrwt>
<pdfrwt beam="1">  1       -4 0.85705036E-02 0.13765151E+03</pdfrwt>
<totfact> 0.19606099E+03</totfact>
</mgrwt>
</event>
<event>
 6    4  0.5642870E-004  0.1285296E+03  0.7818608E-02  0.1229654E+00
          4   -1    0    0  502    0  0.00000000000E+00  0.00000000000E+00  0.31253404399E+03  0.31253662434E+03  0.12700000000E+01 0. -1.
         -4   -1    0    0    0  501 -0.00000000000E+00 -0.00000000000E+00 -0.23892228936E+02  0.23925958780E+02  0.12700000000E+01 0. -1.
         25    2    1    2    0    0 -0.19474925592E+02 -0.22752148705E+02  0.16449551696E+03  0.20875496265E+03  0.12499170504E+03 0.  0.
    9000005    1    3    3    0    0  0.44348465510E+02 -0.38364393597E+02  0.10420116847E+03  0.11957213973E+03  0.10000000000E+01 0.  0.
    9000005    1    3    3    0    0 -0.63823391103E+02  0.15612244893E+02  0.60294348490E+02  0.89182822911E+02  0.10000000000E+01 0.  0.
         21    1    1    2  502  501  0.19474925592E+02  0.22752148705E+02  0.12414629809E+03  0.12770762047E+03  0.00000000000E+00 0. -1.
<mgrwt>
<rscale>  1 0.12852960E+03</rscale>
<asrwt>0</asrwt>
<pdfrwt beam="1">  1        4 0.48084954E-01 0.12852960E+03</pdfrwt>
<pdfrwt beam="2">  1       -4 0.36785206E-02 0.12852960E+03</pdfrwt>
<totfact> 0.26616479E+03</totfact>
</mgrwt>
</event>
<event>
 6    4  0.5642870E-004  0.1343352E+03  0.7818608E-02  0.1221161E+00
          4   -1    0    0  502    0  0.00000000000E+00  0.00000000000E+00  0.45083604594E+02  0.45101488924E+02  0.12700000000E+01 0.  1.
         -4   -1    0    0    0  501 -0.00000000000E+00 -0.00000000000E+00 -0.20294003630E+03  0.20294401010E+03  0.12700000000E+01 0.  1.
         25    2    1    2    0    0 -0.15529253973E+02  0.46686230705E+02 -0.14399785611E+03  0.19692972862E+03  0.12500069433E+03 0.  0.
    9000005    1    3    3    0    0 -0.15353468490E+02 -0.21765648339E+02  0.99461404057E+01  0.28449923572E+02  0.10000000000E+01 0.  0.
    9000005    1    3    3    0    0 -0.17578548339E+00  0.68451879044E+02 -0.15394399652E+03  0.16847980505E+03  0.10000000000E+01 0.  0.
         21    1    1    2  502  501  0.15529253973E+02 -0.46686230705E+02 -0.13858575600E+02  0.51115770405E+02  0.00000000000E+00 0.  1.
<mgrwt>
<rscale>  1 0.13433516E+03</rscale>
<asrwt>0</asrwt>
<pdfrwt beam="1">  1        4 0.69376206E-02 0.13433516E+03</pdfrwt>
<pdfrwt beam="2">  1       -4 0.31223225E-01 0.13433516E+03</pdfrwt>
<totfact> 0.22579624E+03</totfact>
</mgrwt>
</event>
<event>
 6    4  0.5642870E-004  0.1370119E+03  0.7818608E-02  0.1217407E+00
          4   -1    0    0  502    0  0.00000000000E+00  0.00000000000E+00  0.51732067312E+01  0.53268159236E+01  0.12700000000E+01 0. -1.
         -4   -1    0    0    0  501 -0.00000000000E+00 -0.00000000000E+00 -0.18494980535E+04  0.18494984895E+04  0.12700000000E+01 0. -1.
         25    2    1    2    0    0 -0.28721300297E+01 -0.55900601726E+02 -0.14649784399E+04  0.14713714975E+04  0.12505649923E+03 0.  0.
    9000005    1    3    3    0    0  0.32117343343E+02 -0.32806657496E+02 -0.13104376793E+04  0.13112420493E+04  0.10000000000E+01 0.  0.
    9000005    1    3    3    0    0 -0.34989473373E+02 -0.23093944229E+02 -0.15454076055E+03  0.16012944820E+03  0.10000000000E+01 0.  0.
         21    1    1    2  502  501  0.28721300297E+01  0.55900601726E+02 -0.37934640687E+03  0.38345380792E+03  0.00000000000E+00 0. -1.
<mgrwt>
<rscale>  1 0.13701188E+03</rscale>
<asrwt>0</asrwt>
<pdfrwt beam="1">  1        4 0.80772906E-03 0.13701188E+03</pdfrwt>
<pdfrwt beam="2">  1       -4 0.28454949E+00 0.13701188E+03</pdfrwt>
<totfact> 0.31466140E+02</totfact>
</mgrwt>
</event>
<event>
 6    4  0.5642870E-004  0.1383672E+03  0.7818608E-02  0.1215543E+00
         -4   -1    0    0    0  501 -0.00000000000E+00  0.00000000000E+00  0.45471226345E+03  0.45471403698E+03  0.12700000000E+01 0.  1.
          4   -1    0    0  502    0  0.00000000000E+00 -0.00000000000E+00 -0.32375591194E+02  0.32400490816E+02  0.12700000000E+01 0.  1.
         25    2    1    2    0    0  0.18440629107E+02  0.56396651064E+02  0.40076680525E+03  0.42398055742E+03  0.12499936731E+03 0.  0.
    9000005    1    3    3    0    0  0.27175440929E+02 -0.35658918992E+02  0.15637731500E+03  0.16268044670E+03  0.10000000000E+01 0.  0.
    9000005    1    3    3    0    0 -0.87348118219E+01  0.92055570057E+02  0.24438949025E+03  0.26130011072E+03  0.10000000000E+01 0.  0.
         21    1    1    2  502  501 -0.18440629107E+02 -0.56396651064E+02  0.21569867004E+02  0.63133970378E+02  0.00000000000E+00 0.  1.
<mgrwt>
<rscale>  1 0.13836720E+03</rscale>
<asrwt>0</asrwt>
<pdfrwt beam="2">  1        4 0.49829120E-02 0.13836720E+03</pdfrwt>
<pdfrwt beam="1">  1       -4 0.69957784E-01 0.13836720E+03</pdfrwt>
<totfact> 0.76225646E+02</totfact>
</mgrwt>
</event>
<event>
 6    4  0.5642870E-004  0.1270258E+03  0.7818608E-02  0.1231937E+00
         -4   -1    0    0    0  501 -0.00000000000E+00  0.00000000000E+00  0.49604799166E+03  0.49604961741E+03  0.12700000000E+01 0.  1.
          4   -1    0    0  502    0  0.00000000000E+00 -0.00000000000E+00 -0.11484513578E+02  0.11554520852E+02  0.12700000000E+01 0.  1.
         25    2    1    2    0    0 -0.19303059983E+02 -0.11759480689E+02  0.43423682738E+03  0.45243471483E+03  0.12499862167E+03 0.  0.
    9000005    1    3    3    0    0  0.43749108926E+02 -0.21936454194E+02  0.91251129504E+02  0.10355173195E+03  0.10000000000E+01 0.  0.
    9000005    1    3    3    0    0 -0.63052168909E+02  0.10176973505E+02  0.34298569787E+03  0.34888298287E+03  0.10000000000E+01 0.  0.
         21    1    1    2  502  501  0.19303059983E+02  0.11759480689E+02  0.50326650707E+02  0.55169423435E+02  0.00000000000E+00 0.  1.
<mgrwt>
<rscale>  1 0.12702578E+03</rscale>
<asrwt>0</asrwt>
<pdfrwt beam="2">  1        4 0.17723589E-02 0.12702578E+03</pdfrwt>
<pdfrwt beam="1">  1       -4 0.76320566E-01 0.12702578E+03</pdfrwt>
<totfact> 0.31264659E+03</totfact>
</mgrwt>
</event>
<event>
 6    4  0.5642870E-004  0.1292498E+03  0.7818608E-02  0.1228573E+00
          4   -1    0    0  502    0  0.00000000000E+00  0.00000000000E+00  0.17072665397E+03  0.17073137754E+03  0.12700000000E+01 0.  1.
         -4   -1    0    0    0  501 -0.00000000000E+00 -0.00000000000E+00 -0.47519292254E+02  0.47536260226E+02  0.12700000000E+01 0.  1.
         25    2    1    2    0    0  0.31965638933E+02  0.75148073641E+01  0.51006453097E+02  0.13895026509E+03  0.12500897372E+03 0.  0.
    9000005    1    3    3    0    0  0.60016456295E+02  0.24731557795E+02 -0.13697595825E+02  0.66349446935E+02  0.10000000000E+01 0.  0.
    9000005    1    3    3    0    0 -0.28050817362E+02 -0.17216750431E+02  0.64704048922E+02  0.72600818157E+02  0.10000000000E+01 0.  0.
         21    1    1    2  502  501 -0.31965638933E+02 -0.75148073641E+01  0.72200908621E+02  0.79317372673E+02  0.00000000000E+00 0.  1.
<mgrwt>
<rscale>  1 0.12924983E+03</rscale>
<asrwt>0</asrwt>
<pdfrwt beam="1">  1        4 0.26267308E-01 0.12924983E+03</pdfrwt>
<pdfrwt beam="2">  1       -4 0.73123289E-02 0.12924983E+03</pdfrwt>
<totfact> 0.28392679E+03</totfact>
</mgrwt>
</event>
<event>
 6    4  0.5642870E-004  0.1272656E+03  0.7818608E-02  0.1231570E+00
         -4   -1    0    0    0  501 -0.00000000000E+00  0.00000000000E+00  0.71283184053E+01  0.72405678843E+01  0.12700000000E+01 0. -1.
          4   -1    0    0  502    0  0.00000000000E+00 -0.00000000000E+00 -0.99462737264E+03  0.99462818345E+03  0.12700000000E+01 0. -1.
         25    2    1    2    0    0 -0.10144889570E+02  0.21702977058E+02 -0.94094099119E+03  0.94950854476E+03  0.12499035833E+03 0.  0.
    9000005    1    3    3    0    0 -0.64538384251E+02  0.16050450544E+02 -0.65618163980E+03  0.65954390636E+03  0.10000000000E+01 0.  0.
    9000005    1    3    3    0    0  0.54393494681E+02  0.56525265142E+01 -0.28475935138E+03  0.28996463840E+03  0.10000000000E+01 0.  0.
         21    1    1    2  502  501  0.10144889570E+02 -0.21702977058E+02 -0.46558063054E+02  0.52360206578E+02  0.00000000000E+00 0. -1.
<mgrwt>
<rscale>  1 0.12726558E+03</rscale>
<asrwt>0</asrwt>
<pdfrwt beam="2">  1        4 0.15302818E+00 0.12726558E+03</pdfrwt>
<pdfrwt beam="1">  1       -4 0.11053621E-02 0.12726558E+03</pdfrwt>
<totfact> 0.12471428E+03</totfact>
</mgrwt>
</event>
<event>
 6    4  0.5642870E-004  0.1290052E+03  0.7818608E-02  0.1228939E+00
         -4   -1    0    0    0  501 -0.00000000000E+00  0.00000000000E+00  0.14404760009E+03  0.14405319848E+03  0.12700000000E+01 0. -1.
          4   -1    0    0  502    0  0.00000000000E+00 -0.00000000000E+00 -0.44916510354E+02  0.44934461190E+02  0.12700000000E+01 0. -1.
         25    2    1    2    0    0 -0.30711616848E+02 -0.85452525376E+01  0.80616994579E+02  0.15212309037E+03  0.12500444015E+03 0.  0.
    9000005    1    3    3    0    0 -0.18261534599E+02  0.39130992064E+02  0.91916101344E+02  0.10155928255E+03  0.10000000000E+01 0.  0.
    9000005    1    3    3    0    0 -0.12450082248E+02 -0.47676244601E+02 -0.11299106765E+02  0.50563807817E+02  0.10000000000E+01 0.  0.
         21    1    1    2  502  501  0.30711616848E+02  0.85452525376E+01  0.18514095161E+02  0.36864569304E+02  0.00000000000E+00 0.  1.
<mgrwt>
<rscale>  1 0.12900517E+03</rscale>
<asrwt>0</asrwt>
<pdfrwt beam="2">  1        4 0.69120440E-02 0.12900517E+03</pdfrwt>
<pdfrwt beam="1">  1       -4 0.22162980E-01 0.12900517E+03</pdfrwt>
<totfact> 0.42525237E+03</totfact>
</mgrwt>
</event>
<event>
 6    4  0.5642870E-004  0.1297726E+03  0.7818608E-02  0.1227794E+00
         -4   -1    0    0    0  501 -0.00000000000E+00  0.00000000000E+00  0.13097670949E+03  0.13098286655E+03  0.12700000000E+01 0.  1.
          4   -1    0    0  502    0  0.00000000000E+00 -0.00000000000E+00 -0.52879749766E+02  0.52894998207E+02  0.12700000000E+01 0.  1.
         25    2    1    2    0    0 -0.34636044205E+02 -0.41484353102E+01  0.72181955261E+02  0.14849633919E+03  0.12499625200E+03 0.  0.
    9000005    1    3    3    0    0 -0.23190490184E+02 -0.22750826081E+02  0.10452196209E+03  0.10945884835E+03  0.10000000000E+01 0.  0.
    9000005    1    3    3    0    0 -0.11445554021E+02  0.18602390771E+02 -0.32340006830E+02  0.39037490839E+02  0.10000000000E+01 0.  0.
         21    1    1    2  502  501  0.34636044205E+02  0.41484353102E+01  0.59150044648E+01  0.35381525568E+02  0.00000000000E+00 0. -1.
<mgrwt>
<rscale>  1 0.12977260E+03</rscale>
<asrwt>0</asrwt>
<pdfrwt beam="2">  1        4 0.81369927E-02 0.12977260E+03</pdfrwt>
<pdfrwt beam="1">  1       -4 0.20151910E-01 0.12977260E+03</pdfrwt>
<totfact> 0.38658534E+03</totfact>
</mgrwt>
</event>
<event>
 6    4  0.5642870E-004  0.1659528E+03  0.7818608E-02  0.1182135E+00
         -4   -1    0    0    0  501 -0.00000000000E+00  0.00000000000E+00  0.16712108234E+04  0.16712113060E+04  0.12700000000E+01 0. -1.
          4   -1    0    0  502    0  0.00000000000E+00 -0.00000000000E+00 -0.16112024078E+02  0.16161999255E+02  0.12700000000E+01 0. -1.
         25    2    1    2    0    0 -0.10915337241E+03 -0.44384930640E+00  0.14013631832E+04  0.14111552417E+04  0.12500275710E+03 0.  0.
    9000005    1    3    3    0    0 -0.44814043801E+02 -0.56187955156E+02  0.41998972500E+03  0.42609594451E+03  0.10000000000E+01 0.  0.
    9000005    1    3    3    0    0 -0.64339328607E+02  0.55744105849E+02  0.98137345822E+03  0.98505929722E+03  0.10000000000E+01 0.  0.
         21    1    1    2  502  501  0.10915337241E+03  0.44384930640E+00  0.25373561610E+03  0.27621806347E+03  0.00000000000E+00 0. -1.
<mgrwt>
<rscale>  1 0.16595284E+03</rscale>
<asrwt>0</asrwt>
<pdfrwt beam="2">  1        4 0.24826552E-02 0.16595284E+03</pdfrwt>
<pdfrwt beam="1">  1       -4 0.25711315E+00 0.16595284E+03</pdfrwt>
<totfact> 0.83591143E+01</totfact>
</mgrwt>
</event>
<event>
 6    4  0.5642870E-004  0.1287316E+03  0.7818608E-02  0.1229350E+00
         -4   -1    0    0    0  501 -0.00000000000E+00  0.00000000000E+00  0.91418696905E+02  0.91427517979E+02  0.12700000000E+01 0. -1.
          4   -1    0    0  502    0  0.00000000000E+00 -0.00000000000E+00 -0.13130424508E+03  0.13131038678E+03  0.12700000000E+01 0. -1.
         25    2    1    2    0    0  0.30512242414E+02  0.40565425084E+01  0.41878257613E+02  0.13537216541E+03  0.12499752891E+03 0.  0.
    9000005    1    3    3    0    0  0.71965373245E+02 -0.25339740584E+02  0.35461439349E+02  0.84140543615E+02  0.10000000000E+01 0.  0.
    9000005    1    3    3    0    0 -0.41453130831E+02  0.29396283093E+02  0.64168182642E+01  0.51231621797E+02  0.10000000000E+01 0.  0.
         21    1    1    2  502  501 -0.30512242414E+02 -0.40565425084E+01 -0.81763805793E+02  0.87365739349E+02  0.00000000000E+00 0.  1.
<mgrwt>
<rscale>  1 0.12873164E+03</rscale>
<asrwt>0</asrwt>
<pdfrwt beam="2">  1        4 0.20201804E-01 0.12873164E+03</pdfrwt>
<pdfrwt beam="1">  1       -4 0.14065566E-01 0.12873164E+03</pdfrwt>
<totfact> 0.15205605E+03</totfact>
</mgrwt>
</event>
<event>
 6    4  0.5642870E-004  0.1270876E+03  0.7818608E-02  0.1231842E+00
          4   -1    0    0  502    0  0.00000000000E+00  0.00000000000E+00  0.46392638348E+03  0.46392812179E+03  0.12700000000E+01 0. -1.
         -4   -1    0    0    0  501 -0.00000000000E+00 -0.00000000000E+00 -0.32549563588E+02  0.32574330228E+02  0.12700000000E+01 0. -1.
         25    2    1    2    0    0 -0.19800683847E+02  0.11585148818E+02  0.93324960466E+02  0.15767308137E+03  0.12499987835E+03 0.  0.
    9000005    1    3    3    0    0 -0.38892110865E+02  0.14451177593E+01 -0.18973107868E+02  0.43308930662E+02  0.10000000000E+01 0.  0.
    9000005    1    3    3    0    0  0.19091427018E+02  0.10140031059E+02  0.11229806833E+03  0.11436415071E+03  0.10000000000E+01 0.  0.
         21    1    1    2  502  501  0.19800683847E+02 -0.11585148818E+02  0.33805185943E+03  0.33882937065E+03  0.00000000000E+00 0. -1.
<mgrwt>
<rscale>  1 0.12708758E+03</rscale>
<asrwt>0</asrwt>
<pdfrwt beam="1">  1        4 0.71375332E-01 0.12708758E+03</pdfrwt>
<pdfrwt beam="2">  1       -4 0.50096638E-02 0.12708758E+03</pdfrwt>
<totfact> 0.71119133E+02</totfact>
</mgrwt>
</event>
<event>
 6    4  0.5642870E-004  0.1769266E+03  0.7818608E-02  0.1170811E+00
          4   -1    0    0  502    0  0.00000000000E+00  0.00000000000E+00  0.43208627501E+03  0.43208814142E+03  0.12700000000E+01 0.  1.
         -4   -1    0    0    0  501 -0.00000000000E+00 -0.00000000000E+00 -0.53058669116E+02  0.53073866152E+02  0.12700000000E+01 0.  1.
         25    2    1    2    0    0  0.71249862972E+02 -0.10296643926E+03  0.23818361362E+03  0.29670601603E+03  0.12499758223E+03 0.  0.
    9000005    1    3    3    0    0  0.32020254030E+02 -0.94223231394E+02  0.23636318991E+03  0.25646027285E+03  0.10000000000E+01 0.  0.
    9000005    1    3    3    0    0  0.39229608942E+02 -0.87432078669E+01  0.18204237031E+01  0.40245743179E+02  0.10000000000E+01 0.  0.
         21    1    1    2  502  501 -0.71249862972E+02  0.10296643926E+03  0.14084399228E+03  0.18845599154E+03  0.00000000000E+00 0.  1.
<mgrwt>
<rscale>  1 0.17692661E+03</rscale>
<asrwt>0</asrwt>
<pdfrwt beam="1">  1        4 0.66476126E-01 0.17692661E+03</pdfrwt>
<pdfrwt beam="2">  1       -4 0.81641845E-02 0.17692661E+03</pdfrwt>
<totfact> 0.39687762E+02</totfact>
</mgrwt>
</event>
<event>
 6    4  0.5642870E-004  0.1297398E+03  0.7818608E-02  0.1227842E+00
         -4   -1    0    0    0  501 -0.00000000000E+00  0.00000000000E+00  0.17723829373E+03  0.17724284376E+03  0.12700000000E+01 0. -1.
          4   -1    0    0  502    0  0.00000000000E+00 -0.00000000000E+00 -0.40490091019E+02  0.40510003341E+02  0.12700000000E+01 0. -1.
         25    2    1    2    0    0  0.11666719037E+02 -0.32720458149E+02  0.12727709776E+03  0.18174670119E+03  0.12500265223E+03 0.  0.
    9000005    1    3    3    0    0  0.13293002298E+02  0.40687968193E+02  0.10972586799E+02  0.44199686954E+02  0.10000000000E+01 0.  0.
    9000005    1    3    3    0    0 -0.16262832610E+01 -0.73408426342E+02  0.11630451096E+03  0.13754701423E+03  0.10000000000E+01 0.  0.
         21    1    1    2  502  501 -0.11666719037E+02  0.32720458149E+02  0.94711049535E+01  0.36006145915E+02  0.00000000000E+00 0. -1.
<mgrwt>
<rscale>  1 0.12973975E+03</rscale>
<asrwt>0</asrwt>
<pdfrwt beam="2">  1        4 0.62311265E-02 0.12973975E+03</pdfrwt>
<pdfrwt beam="1">  1       -4 0.27269312E-01 0.12973975E+03</pdfrwt>
<totfact> 0.34439263E+03</totfact>
</mgrwt>
</event>
<event>
 6    4  0.5642870E-004  0.1282082E+03  0.7818608E-02  0.1230139E+00
         -4   -1    0    0    0  501 -0.00000000000E+00  0.00000000000E+00  0.11480658149E+03  0.11481360570E+03  0.12700000000E+01 0. -1.
          4   -1    0    0  502    0  0.00000000000E+00 -0.00000000000E+00 -0.86941797186E+02  0.86951072437E+02  0.12700000000E+01 0. -1.
         25    2    1    2    0    0 -0.28311408871E+02  0.32283604482E+01  0.73634863626E+02  0.14784938954E+03  0.12500156264E+03 0.  0.
    9000005    1    3    3    0    0 -0.70250882535E+02  0.32117702176E+02  0.45674686327E+02  0.89743580612E+02  0.10000000000E+01 0.  0.
    9000005    1    3    3    0    0  0.41939473664E+02 -0.28889341728E+02  0.27960177300E+02  0.58105808930E+02  0.10000000000E+01 0.  0.
         21    1    1    2  502  501  0.28311408871E+02 -0.32283604482E+01 -0.45770079320E+02  0.53915288596E+02  0.00000000000E+00 0. -1.
<mgrwt>
<rscale>  1 0.12820822E+03</rscale>
<asrwt>0</asrwt>
<pdfrwt beam="2">  1        4 0.13376915E-01 0.12820822E+03</pdfrwt>
<pdfrwt beam="1">  1       -4 0.17663805E-01 0.12820822E+03</pdfrwt>
<totfact> 0.21057865E+03</totfact>
</mgrwt>
</event>
<event>
 6    4  0.5642870E-004  0.1273490E+03  0.7818608E-02  0.1231443E+00
          4   -1    0    0  502    0  0.00000000000E+00  0.00000000000E+00  0.59517884200E+03  0.59518019697E+03  0.12700000000E+01 0.  1.
         -4   -1    0    0    0  501 -0.00000000000E+00 -0.00000000000E+00 -0.23565652599E+02  0.23599849204E+02  0.12700000000E+01 0.  1.
         25    2    1    2    0    0 -0.23190667035E+02  0.74102581722E+01  0.15129470311E+03  0.19775706713E+03  0.12500020579E+03 0.  0.
    9000005    1    3    3    0    0 -0.69975578014E+01 -0.58030982762E+02  0.55458064664E+02  0.80580132240E+02  0.10000000000E+01 0.  0.
    9000005    1    3    3    0    0 -0.16193109233E+02  0.65441240934E+02  0.95836638441E+02  0.11717693489E+03  0.10000000000E+01 0.  0.
         21    1    1    2  502  501  0.23190667035E+02 -0.74102581722E+01  0.42031848629E+03  0.42102297905E+03  0.00000000000E+00 0.  1.
<mgrwt>
<rscale>  1 0.12734901E+03</rscale>
<asrwt>0</asrwt>
<pdfrwt beam="1">  1        4 0.91568706E-01 0.12734901E+03</pdfrwt>
<pdfrwt beam="2">  1       -4 0.36282199E-02 0.12734901E+03</pdfrwt>
<totfact> 0.68525174E+02</totfact>
</mgrwt>
</event>
<event>
 6    4  0.5642870E-004  0.1273462E+03  0.7818608E-02  0.1231447E+00
          4   -1    0    0  502    0  0.00000000000E+00  0.00000000000E+00  0.47510133899E+02  0.47527105141E+02  0.12700000000E+01 0. -1.
         -4   -1    0    0    0  501 -0.00000000000E+00 -0.00000000000E+00 -0.12829781308E+03  0.12830409869E+03  0.12700000000E+01 0. -1.
         25    2    1    2    0    0  0.30946962651E+01 -0.23994490749E+02 -0.82242094000E+02  0.15159428873E+03  0.12502701156E+03 0.  0.
    9000005    1    3    3    0    0 -0.14611154598E+02 -0.41163384580E+02  0.18812284709E+02  0.47569024846E+02  0.10000000000E+01 0.  0.
    9000005    1    3    3    0    0  0.17705850864E+02  0.17168893831E+02 -0.10105437871E+03  0.10402526388E+03  0.10000000000E+01 0.  0.
         21    1    1    2  502  501 -0.30946962651E+01  0.23994490749E+02  0.14544148180E+01  0.24236915103E+02  0.00000000000E+00 0. -1.
<mgrwt>
<rscale>  1 0.12734625E+03</rscale>
<asrwt>0</asrwt>
<pdfrwt beam="1">  1        4 0.73110404E-02 0.12734625E+03</pdfrwt>
<pdfrwt beam="2">  1       -4 0.19739914E-01 0.12734625E+03</pdfrwt>
<totfact> 0.47648217E+03</totfact>
</mgrwt>
</event>
<event>
 6    4  0.5642870E-004  0.1282851E+03  0.7818608E-02  0.1230023E+00
          4   -1    0    0  502    0  0.00000000000E+00  0.00000000000E+00  0.58419252576E+02  0.58433055470E+02  0.12700000000E+01 0.  1.
         -4   -1    0    0    0  501 -0.00000000000E+00 -0.00000000000E+00 -0.11532983855E+03  0.11533683089E+03  0.12700000000E+01 0.  1.
         25    2    1    2    0    0  0.24616601283E+02 -0.15042305631E+02 -0.64994213433E+02  0.14381002904E+03  0.12499931462E+03 0.  0.
    9000005    1    3    3    0    0  0.59881204465E+02 -0.47111112392E+02 -0.21249257222E+02  0.79105919447E+02  0.10000000000E+01 0.  0.
    9000005    1    3    3    0    0 -0.35264603182E+02  0.32068806761E+02 -0.43744956211E+02  0.64704109596E+02  0.10000000000E+01 0.  0.
         21    1    1    2  502  501 -0.24616601283E+02  0.15042305631E+02  0.80836274625E+01  0.29959857316E+02  0.00000000000E+00 0.  1.
<mgrwt>
<rscale>  1 0.12828514E+03</rscale>
<asrwt>0</asrwt>
<pdfrwt beam="1">  1        4 0.89891770E-02 0.12828514E+03</pdfrwt>
<pdfrwt beam="2">  1       -4 0.17744652E-01 0.12828514E+03</pdfrwt>
<totfact> 0.40997278E+03</totfact>
</mgrwt>
</event>
<event>
 6    4  0.5642870E-004  0.1265968E+03  0.7818608E-02  0.1232595E+00
          4   -1    0    0  502    0  0.00000000000E+00  0.00000000000E+00  0.12709418310E+03  0.12710052824E+03  0.12700000000E+01 0.  1.
         -4   -1    0    0    0  501 -0.00000000000E+00 -0.00000000000E+00 -0.45236345979E+02  0.45254169947E+02  0.12700000000E+01 0.  1.
         25    2    1    2    0    0 -0.36839584820E+01 -0.19700957532E+02  0.84400154588E+02  0.15215166238E+03  0.12500017197E+03 0.  0.
    9000005    1    3    3    0    0  0.28809606394E+02 -0.50609026897E+02  0.89733994873E+02  0.10697876827E+03  0.10000000000E+01 0.  0.
    9000005    1    3    3    0    0 -0.32493564875E+02  0.30908069365E+02 -0.53338402841E+01  0.45172894111E+02  0.10000000000E+01 0.  0.
         21    1    1    2  502  501  0.36839584820E+01  0.19700957532E+02 -0.25423174642E+01  0.20203035809E+02  0.00000000000E+00 0. -1.
<mgrwt>
<rscale>  1 0.12659677E+03</rscale>
<asrwt>0</asrwt>
<pdfrwt beam="1">  1        4 0.19554810E-01 0.12659677E+03</pdfrwt>
<pdfrwt beam="2">  1       -4 0.69612971E-02 0.12659677E+03</pdfrwt>
<totfact> 0.52441878E+03</totfact>
</mgrwt>
</event>
<event>
 6    4  0.5642870E-004  0.1459857E+03  0.7818608E-02  0.1205494E+00
          4   -1    0    0  502    0  0.00000000000E+00  0.00000000000E+00  0.14566900875E+03  0.14567454482E+03  0.12700000000E+01 0.  1.
         -4   -1    0    0    0  501 -0.00000000000E+00 -0.00000000000E+00 -0.10965605231E+03  0.10966340642E+03  0.12700000000E+01 0.  1.
         25    2    1    2    0    0  0.42961527328E+02 -0.61916927468E+02 -0.36794229706E+02  0.15055109571E+03  0.12502966985E+03 0.  0.
    9000005    1    3    3    0    0 -0.75280056491E+01 -0.46194106892E+02 -0.72810864826E+02  0.86562049521E+02  0.10000000000E+01 0.  0.
    9000005    1    3    3    0    0  0.50489532977E+02 -0.15722820576E+02  0.36016635120E+02  0.63989046191E+02  0.10000000000E+01 0.  0.
         21    1    1    2  502  501 -0.42961527328E+02  0.61916927468E+02  0.72807186149E+02  0.10478685553E+03  0.00000000000E+00 0.  1.
<mgrwt>
<rscale>  1 0.14598567E+03</rscale>
<asrwt>0</asrwt>
<pdfrwt beam="1">  1        4 0.22411608E-01 0.14598567E+03</pdfrwt>
<pdfrwt beam="2">  1       -4 0.16871153E-01 0.14598567E+03</pdfrwt>
<totfact> 0.94093090E+02</totfact>
</mgrwt>
</event>
<event>
 6    4  0.5642870E-004  0.1308230E+03  0.7818608E-02  0.1226240E+00
         -4   -1    0    0    0  501 -0.00000000000E+00  0.00000000000E+00  0.28157663524E+03  0.28157949928E+03  0.12700000000E+01 0. -1.
          4   -1    0    0  502    0  0.00000000000E+00 -0.00000000000E+00 -0.26832083876E+02  0.26862122499E+02  0.12700000000E+01 0. -1.
         25    2    1    2    0    0 -0.24586182294E+02 -0.29761143874E+02  0.16371092548E+03  0.20956125423E+03  0.12499778442E+03 0.  0.
    9000005    1    3    3    0    0 -0.57686566938E+02 -0.61936511943E+02  0.10680475540E+03  0.13627959235E+03  0.10000000000E+01 0.  0.
    9000005    1    3    3    0    0  0.33100384644E+02  0.32175368069E+02  0.56906170088E+02  0.73281661881E+02  0.10000000000E+01 0.  0.
         21    1    1    2  502  501  0.24586182294E+02  0.29761143874E+02  0.91033625881E+02  0.98880367544E+02  0.00000000000E+00 0. -1.
<mgrwt>
<rscale>  1 0.13082298E+03</rscale>
<asrwt>0</asrwt>
<pdfrwt beam="2">  1        4 0.41305438E-02 0.13082298E+03</pdfrwt>
<pdfrwt beam="1">  1       -4 0.43322014E-01 0.13082298E+03</pdfrwt>
<totfact> 0.27421310E+03</totfact>
</mgrwt>
</event>
<event>
 6    4  0.5642870E-004  0.1308434E+03  0.7818608E-02  0.1226210E+00
          4   -1    0    0  502    0  0.00000000000E+00  0.00000000000E+00  0.35243738733E+03  0.35243967553E+03  0.12700000000E+01 0. -1.
         -4   -1    0    0    0  501 -0.00000000000E+00 -0.00000000000E+00 -0.21408925708E+02  0.21446561495E+02  0.12700000000E+01 0. -1.
         25    2    1    2    0    0 -0.29884836041E+02 -0.24506007769E+02  0.28624644458E+03  0.31473324140E+03  0.12500535333E+03 0.  0.
    9000005    1    3    3    0    0  0.24232102199E+01  0.42526307537E+02  0.43726260628E+02  0.61051983170E+02  0.10000000000E+01 0.  0.
    9000005    1    3    3    0    0 -0.32308046261E+02 -0.67032315306E+02  0.24252018396E+03  0.25368125823E+03  0.10000000000E+01 0.  0.
         21    1    1    2  502  501  0.29884836041E+02  0.24506007769E+02  0.44782017035E+02  0.59152995627E+02  0.00000000000E+00 0. -1.
<mgrwt>
<rscale>  1 0.13084337E+03</rscale>
<asrwt>0</asrwt>
<pdfrwt beam="1">  1        4 0.54224206E-01 0.13084337E+03</pdfrwt>
<pdfrwt beam="2">  1       -4 0.32967521E-02 0.13084337E+03</pdfrwt>
<totfact> 0.24855230E+03</totfact>
</mgrwt>
</event>
<event>
 6    4  0.5642870E-004  0.1324578E+03  0.7818608E-02  0.1223854E+00
          4   -1    0    0  502    0  0.00000000000E+00  0.00000000000E+00  0.19472026326E+04  0.19472030467E+04  0.12700000000E+01 0.  1.
         -4   -1    0    0    0  501 -0.00000000000E+00 -0.00000000000E+00 -0.49513724200E+01  0.51116522614E+01  0.12700000000E+01 0.  1.
         25    2    1    2    0    0 -0.38848888739E+02  0.20266727724E+02  0.96100114730E+03  0.97008674155E+03  0.12500041844E+03 0.  0.
    9000005    1    3    3    0    0  0.69653491920E+00  0.68619694985E+02  0.57172423083E+03  0.57582874522E+03  0.10000000000E+01 0.  0.
    9000005    1    3    3    0    0 -0.39545423658E+02 -0.48352967261E+02  0.38927691647E+03  0.39425799633E+03  0.10000000000E+01 0.  0.
         21    1    1    2  502  501  0.38848888739E+02 -0.20266727724E+02  0.98125011285E+03  0.98222795744E+03  0.00000000000E+00 0.  1.
<mgrwt>
<rscale>  1 0.13245785E+03</rscale>
<asrwt>0</asrwt>
<pdfrwt beam="1">  1        4 0.29958149E+00 0.13245785E+03</pdfrwt>
<pdfrwt beam="2">  1       -4 0.77411199E-03 0.13245785E+03</pdfrwt>
<totfact> 0.27342966E+02</totfact>
</mgrwt>
</event>
<event>
 6    4  0.5642870E-004  0.1266758E+03  0.7818608E-02  0.1232473E+00
          4   -1    0    0  502    0  0.00000000000E+00  0.00000000000E+00  0.49695302958E+02  0.49711528201E+02  0.12700000000E+01 0. -1.
         -4   -1    0    0    0  501 -0.00000000000E+00 -0.00000000000E+00 -0.11060514270E+03  0.11061243371E+03  0.12700000000E+01 0. -1.
         25    2    1    2    0    0  0.51725856835E+01 -0.19905895781E+02 -0.58773591989E+02  0.13964634396E+03  0.12499506365E+03 0.  0.
    9000005    1    3    3    0    0  0.22861656628E+02 -0.20498309323E+02  0.33634393435E+02  0.45553358280E+02  0.10000000000E+01 0.  0.
    9000005    1    3    3    0    0 -0.17689070945E+02  0.59241354167E+00 -0.92407985424E+02  0.94092985683E+02  0.10000000000E+01 0.  0.
         21    1    1    2  502  501 -0.51725856835E+01  0.19905895781E+02 -0.21362477504E+01  0.20677617947E+02  0.00000000000E+00 0.  1.
<mgrwt>
<rscale>  1 0.12667583E+03</rscale>
<asrwt>0</asrwt>
<pdfrwt beam="1">  1        4 0.76472402E-02 0.12667583E+03</pdfrwt>
<pdfrwt beam="2">  1       -4 0.17017985E-01 0.12667583E+03</pdfrwt>
<totfact> 0.57540579E+03</totfact>
</mgrwt>
</event>
<event>
 6    4  0.5642870E-004  0.1274150E+03  0.7818608E-02  0.1231343E+00
         -4   -1    0    0    0  501 -0.00000000000E+00  0.00000000000E+00  0.12651073837E+03  0.12651711277E+03  0.12700000000E+01 0.  1.
          4   -1    0    0  502    0  0.00000000000E+00 -0.00000000000E+00 -0.46999411984E+02  0.47016567578E+02  0.12700000000E+01 0.  1.
         25    2    1    2    0    0 -0.19306086815E+02  0.15397904002E+02  0.76600659695E+02  0.14866819390E+03  0.12499900149E+03 0.  0.
    9000005    1    3    3    0    0  0.36598839723E+02 -0.31009631470E+02  0.78177170306E+01  0.48612642518E+02  0.10000000000E+01 0.  0.
    9000005    1    3    3    0    0 -0.55904926538E+02  0.46407535472E+02  0.68782942664E+02  0.10005555138E+03  0.10000000000E+01 0.  0.
         21    1    1    2  502  501  0.19306086815E+02 -0.15397904002E+02  0.29106666901E+01  0.24865486449E+02  0.00000000000E+00 0. -1.
<mgrwt>
<rscale>  1 0.12741496E+03</rscale>
<asrwt>0</asrwt>
<pdfrwt beam="2">  1        4 0.72324887E-02 0.12741496E+03</pdfrwt>
<pdfrwt beam="1">  1       -4 0.19465001E-01 0.12741496E+03</pdfrwt>
<totfact> 0.49743349E+03</totfact>
</mgrwt>
</event>
<event>
 6    4  0.5642870E-004  0.1322983E+03  0.7818608E-02  0.1224085E+00
          4   -1    0    0  502    0  0.00000000000E+00  0.00000000000E+00  0.79807563043E+02  0.79817667335E+02  0.12700000000E+01 0.  1.
         -4   -1    0    0    0  501 -0.00000000000E+00 -0.00000000000E+00 -0.10494436300E+03  0.10495204727E+03  0.12700000000E+01 0.  1.
         25    2    1    2    0    0  0.22543434902E+01  0.43274037495E+02 -0.41185261845E+02  0.13856065148E+03  0.12500041584E+03 0.  0.
    9000005    1    3    3    0    0 -0.51156399190E+02  0.50666166036E+02 -0.44297589204E+02  0.84541788296E+02  0.10000000000E+01 0.  0.
    9000005    1    3    3    0    0  0.53410742680E+02 -0.73921285408E+01  0.31123273598E+01  0.54018863183E+02  0.10000000000E+01 0.  0.
         21    1    1    2  502  501 -0.22543434902E+01 -0.43274037495E+02  0.16048461888E+02  0.46209063123E+02  0.00000000000E+00 0.  1.
<mgrwt>
<rscale>  1 0.13229826E+03</rscale>
<asrwt>0</asrwt>
<pdfrwt beam="1">  1        4 0.12279455E-01 0.13229826E+03</pdfrwt>
<pdfrwt beam="2">  1       -4 0.16146655E-01 0.13229826E+03</pdfrwt>
<totfact> 0.28799613E+03</totfact>
</mgrwt>
</event>
<event>
 6    4  0.5642870E-004  0.1271857E+03  0.7818608E-02  0.1231692E+00
         -4   -1    0    0    0  501 -0.00000000000E+00  0.00000000000E+00  0.47920219486E+01  0.49574564402E+01  0.12700000000E+01 0. -1.
          4   -1    0    0  502    0  0.00000000000E+00 -0.00000000000E+00 -0.11708216537E+04  0.11708223425E+04  0.12700000000E+01 0. -1.
         25    2    1    2    0    0 -0.20566665596E+02 -0.11348019885E+02 -0.10142284561E+04  0.10221719795E+04  0.12499771612E+03 0.  0.
    9000005    1    3    3    0    0 -0.52086054057E+02  0.33814688073E+02 -0.33462942956E+03  0.34034430402E+03  0.10000000000E+01 0.  0.
    9000005    1    3    3    0    0  0.31519388462E+02 -0.45162707958E+02 -0.67959902659E+03  0.68182767543E+03  0.10000000000E+01 0.  0.
         21    1    1    2  502  501  0.20566665596E+02  0.11348019885E+02 -0.15180117558E+03  0.15360781945E+03  0.00000000000E+00 0. -1.
<mgrwt>
<rscale>  1 0.12718567E+03</rscale>
<asrwt>0</asrwt>
<pdfrwt beam="2">  1        4 0.18013896E+00 0.12718567E+03</pdfrwt>
<pdfrwt beam="1">  1       -4 0.75001379E-03 0.12718567E+03</pdfrwt>
<totfact> 0.14516628E+03</totfact>
</mgrwt>
</event>
<event>
 6    4  0.5642870E-004  0.1298477E+03  0.7818608E-02  0.1227682E+00
          4   -1    0    0  502    0  0.00000000000E+00  0.00000000000E+00  0.10549523081E+04  0.10549530725E+04  0.12700000000E+01 0. -1.
         -4   -1    0    0    0  501 -0.00000000000E+00 -0.00000000000E+00 -0.97359927411E+01  0.98184751696E+01  0.12700000000E+01 0. -1.
         25    2    1    2    0    0 -0.30562596847E+02 -0.17365448970E+02  0.44579920518E+03  0.46432462823E+03  0.12499919158E+03 0.  0.
    9000005    1    3    3    0    0 -0.34936844855E+02  0.22312388819E+02  0.40542351158E+03  0.40753852525E+03  0.10000000000E+01 0.  0.
    9000005    1    3    3    0    0  0.43742480084E+01 -0.39677837789E+02  0.40375693599E+02  0.56786102972E+02  0.10000000000E+01 0.  0.
         21    1    1    2  502  501  0.30562596847E+02  0.17365448970E+02  0.59941711018E+03  0.60044691948E+03  0.00000000000E+00 0. -1.
<mgrwt>
<rscale>  1 0.12984771E+03</rscale>
<asrwt>0</asrwt>
<pdfrwt beam="1">  1        4 0.16230673E+00 0.12984771E+03</pdfrwt>
<pdfrwt beam="2">  1       -4 0.15042489E-02 0.12984771E+03</pdfrwt>
<totfact> 0.67414830E+02</totfact>
</mgrwt>
</event>
<event>
 6    4  0.5642870E-004  0.1493892E+03  0.7818608E-02  0.1201226E+00
          4   -1    0    0  502    0  0.00000000000E+00  0.00000000000E+00  0.70211985345E+02  0.70223470337E+02  0.12700000000E+01 0.  1.
         -4   -1    0    0    0  501 -0.00000000000E+00 -0.00000000000E+00 -0.19230505105E+03  0.19230924460E+03  0.12700000000E+01 0.  1.
         25    2    1    2    0    0 -0.63459415485E+02 -0.51631161388E+02 -0.65874722899E+02  0.16326854060E+03  0.12499705193E+03 0.  0.
    9000005    1    3    3    0    0 -0.97658379420E+02 -0.56696424031E+02 -0.39014752979E+02  0.11947717154E+03  0.10000000000E+01 0.  0.
    9000005    1    3    3    0    0  0.34198963935E+02  0.50652626430E+01 -0.26859969919E+02  0.43791369058E+02  0.10000000000E+01 0.  0.
         21    1    1    2  502  501  0.63459415485E+02  0.51631161388E+02 -0.56218342808E+02  0.99264174344E+02  0.00000000000E+00 0.  1.
<mgrwt>
<rscale>  1 0.14938921E+03</rscale>
<asrwt>0</asrwt>
<pdfrwt beam="1">  1        4 0.10803050E-01 0.14938921E+03</pdfrwt>
<pdfrwt beam="2">  1       -4 0.29586598E-01 0.14938921E+03</pdfrwt>
<totfact> 0.12219732E+03</totfact>
</mgrwt>
</event>
<event>
 6    4  0.5642870E-004  0.1284994E+03  0.7818608E-02  0.1229700E+00
         -4   -1    0    0    0  501 -0.00000000000E+00  0.00000000000E+00  0.10318215028E+03  0.10318996577E+03  0.12700000000E+01 0.  1.
          4   -1    0    0  502    0  0.00000000000E+00 -0.00000000000E+00 -0.62132901775E+02  0.62145879855E+02  0.12700000000E+01 0.  1.
         25    2    1    2    0    0  0.11149274791E+02  0.27618259476E+02  0.42961078375E+02  0.13549075092E+03  0.12500005897E+03 0.  0.
    9000005    1    3    3    0    0 -0.15787301325E+02 -0.23036693109E+02  0.67520898940E+02  0.73075302984E+02  0.10000000000E+01 0.  0.
    9000005    1    3    3    0    0  0.26936576116E+02  0.50654952585E+02 -0.24559820565E+02  0.62415447931E+02  0.10000000000E+01 0.  0.
         21    1    1    2  502  501 -0.11149274791E+02 -0.27618259476E+02 -0.19118298718E+01  0.29845094711E+02  0.00000000000E+00 0.  1.
<mgrwt>
<rscale>  1 0.12849937E+03</rscale>
<asrwt>0</asrwt>
<pdfrwt beam="2">  1        4 0.95605074E-02 0.12849937E+03</pdfrwt>
<pdfrwt beam="1">  1       -4 0.15875777E-01 0.12849937E+03</pdfrwt>
<totfact> 0.45018579E+03</totfact>
</mgrwt>
</event>
<event>
 6    4  0.5642870E-004  0.1277649E+03  0.7818608E-02  0.1230810E+00
          4   -1    0    0  502    0  0.00000000000E+00  0.00000000000E+00  0.49181942825E+02  0.49198337370E+02  0.12700000000E+01 0. -1.
         -4   -1    0    0    0  501 -0.00000000000E+00 -0.00000000000E+00 -0.13010743585E+03  0.13011363404E+03  0.12700000000E+01 0. -1.
         25    2    1    2    0    0 -0.25185956958E+02 -0.80940318697E+01 -0.83657230786E+02  0.15271670546E+03  0.12499605627E+03 0.  0.
    9000005    1    3    3    0    0 -0.78102729366E+01 -0.66372209816E+02 -0.46898102223E+02  0.81649878086E+02  0.10000000000E+01 0.  0.
    9000005    1    3    3    0    0 -0.17375684021E+02  0.58278177947E+02 -0.36759128563E+02  0.71066827372E+02  0.10000000000E+01 0.  0.
         21    1    1    2  502  501  0.25185956958E+02  0.80940318697E+01  0.27317377645E+01  0.26595265951E+02  0.00000000000E+00 0. -1.
<mgrwt>
<rscale>  1 0.12776486E+03</rscale>
<asrwt>0</asrwt>
<pdfrwt beam="1">  1        4 0.75681907E-02 0.12776486E+03</pdfrwt>
<pdfrwt beam="2">  1       -4 0.20018266E-01 0.12776486E+03</pdfrwt>
<totfact> 0.43931070E+03</totfact>
</mgrwt>
</event>
<event>
 6    4  0.5642870E-004  0.1296506E+03  0.7818608E-02  0.1227975E+00
          4   -1    0    0  502    0  0.00000000000E+00  0.00000000000E+00  0.12113403573E+02  0.12179796637E+02  0.12700000000E+01 0.  1.
         -4   -1    0    0    0  501 -0.00000000000E+00 -0.00000000000E+00 -0.72548880578E+03  0.72548991737E+03  0.12700000000E+01 0.  1.
         25    2    1    2    0    0  0.24136617166E+02  0.24512174624E+02 -0.66938663277E+03  0.68182676612E+03  0.12500340742E+03 0.  0.
    9000005    1    3    3    0    0  0.25996763206E+02 -0.30172840633E+02 -0.74988817303E+02  0.84914985306E+02  0.10000000000E+01 0.  0.
    9000005    1    3    3    0    0 -0.18601460400E+01  0.54685015257E+02 -0.59439781547E+03  0.59691178081E+03  0.10000000000E+01 0.  0.
         21    1    1    2  502  501 -0.24136617166E+02 -0.24512174624E+02 -0.43988769429E+02  0.55842947888E+02  0.00000000000E+00 0.  1.
<mgrwt>
<rscale>  1 0.12965059E+03</rscale>
<asrwt>0</asrwt>
<pdfrwt beam="1">  1        4 0.18687938E-02 0.12965059E+03</pdfrwt>
<pdfrwt beam="2">  1       -4 0.11161882E+00 0.12965059E+03</pdfrwt>
<totfact> 0.12210239E+03</totfact>
</mgrwt>
</event>
<event>
 6    4  0.5642870E-004  0.1292156E+03  0.7818608E-02  0.1228624E+00
          4   -1    0    0  502    0  0.00000000000E+00  0.00000000000E+00  0.25947034597E+02  0.25978096628E+02  0.12700000000E+01 0.  1.
         -4   -1    0    0    0  501 -0.00000000000E+00 -0.00000000000E+00 -0.26396168959E+03  0.26396474475E+03  0.12700000000E+01 0.  1.
         25    2    1    2    0    0  0.22370033912E+02  0.23906689214E+02 -0.21133745450E+03  0.24770990124E+03  0.12499890916E+03 0.  0.
    9000005    1    3    3    0    0  0.16703520528E+02 -0.24667274350E+02  0.98736596810E+00  0.29823764240E+02  0.10000000000E+01 0.  0.
    9000005    1    3    3    0    0  0.56665133833E+01  0.48573963564E+02 -0.21232482047E+03  0.21788613700E+03  0.10000000000E+01 0.  0.
         21    1    1    2  502  501 -0.22370033912E+02 -0.23906689214E+02 -0.26677200488E+02  0.42232940133E+02  0.00000000000E+00 0.  1.
<mgrwt>
<rscale>  1 0.12921562E+03</rscale>
<asrwt>0</asrwt>
<pdfrwt beam="1">  1        4 0.39944761E-02 0.12921562E+03</pdfrwt>
<pdfrwt beam="2">  1       -4 0.40612113E-01 0.12921562E+03</pdfrwt>
<totfact> 0.32767740E+03</totfact>
</mgrwt>
</event>
<event>
 6    4  0.5642870E-004  0.1294865E+03  0.7818608E-02  0.1228220E+00
          4   -1    0    0  502    0  0.00000000000E+00  0.00000000000E+00  0.44421994740E+03  0.44422176283E+03  0.12700000000E+01 0.  1.
         -4   -1    0    0    0  501 -0.00000000000E+00 -0.00000000000E+00 -0.10408371519E+04  0.10408379267E+04  0.12700000000E+01 0.  1.
         25    2    1    2    0    0  0.26867583674E+02  0.20596845522E+02 -0.10361577950E+04  0.10442172826E+04  0.12498263875E+03 0.  0.
    9000005    1    3    3    0    0  0.27939959467E+02  0.57929925465E+02 -0.91895474778E+03  0.92120320563E+03  0.10000000000E+01 0.  0.
    9000005    1    3    3    0    0 -0.10723757934E+01 -0.37333079944E+02 -0.11720304720E+03  0.12301407692E+03  0.10000000000E+01 0.  0.
         21    1    1    2  502  501 -0.26867583674E+02 -0.20596845522E+02  0.43954059049E+03  0.44084240698E+03  0.00000000000E+00 0.  1.
<mgrwt>
<rscale>  1 0.12948651E+03</rscale>
<asrwt>0</asrwt>
<pdfrwt beam="1">  1        4 0.68341730E-01 0.12948651E+03</pdfrwt>
<pdfrwt beam="2">  1       -4 0.16012899E+00 0.12948651E+03</pdfrwt>
<totfact> 0.93445607E-01</totfact>
</mgrwt>
</event>
<event>
 6    4  0.5642870E-004  0.1403656E+03  0.7818608E-02  0.1212838E+00
         -4   -1    0    0    0  501 -0.00000000000E+00  0.00000000000E+00  0.56174968853E+01  0.57592682918E+01  0.12700000000E+01 0. -1.
          4   -1    0    0  502    0  0.00000000000E+00 -0.00000000000E+00 -0.20046176720E+04  0.20046180743E+04  0.12700000000E+01 0. -1.
         25    2    1    2    0    0 -0.12856280644E+01 -0.63839720689E+02 -0.10671038995E+04  0.10762960660E+04  0.12500130627E+03 0.  0.
    9000005    1    3    3    0    0 -0.59901188280E+02 -0.50047842034E+02 -0.69185046873E+03  0.69624062646E+03  0.10000000000E+01 0.  0.
    9000005    1    3    3    0    0  0.58615560215E+02 -0.13791878655E+02 -0.37525343074E+03  0.38005543950E+03  0.10000000000E+01 0.  0.
         21    1    1    2  502  501  0.12856280644E+01  0.63839720689E+02 -0.93189627566E+03  0.93408127663E+03  0.00000000000E+00 0. -1.
<mgrwt>
<rscale>  1 0.14036556E+03</rscale>
<asrwt>0</asrwt>
<pdfrwt beam="2">  1        4 0.30841309E+00 0.14036556E+03</pdfrwt>
<pdfrwt beam="1">  1       -4 0.87516833E-03 0.14036556E+03</pdfrwt>
<totfact> 0.20371469E+02</totfact>
</mgrwt>
</event>
<event>
 6    4  0.5642870E-004  0.1371818E+03  0.7818608E-02  0.1217172E+00
         -4   -1    0    0    0  501 -0.00000000000E+00  0.00000000000E+00  0.62386967589E+03  0.62387096855E+03  0.12700000000E+01 0. -1.
          4   -1    0    0  502    0  0.00000000000E+00 -0.00000000000E+00 -0.17169253711E+02  0.17216160228E+02  0.12700000000E+01 0. -1.
         25    2    1    2    0    0  0.53941429119E+02  0.16853761491E+02  0.51845481960E+03  0.53629679799E+03  0.12500051406E+03 0.  0.
    9000005    1    3    3    0    0  0.29674858956E+01  0.61957727745E+02  0.16349968573E+03  0.17487342061E+03  0.10000000000E+01 0.  0.
    9000005    1    3    3    0    0  0.50973943224E+02 -0.45103966255E+02  0.35495513386E+03  0.36142337738E+03  0.10000000000E+01 0.  0.
         21    1    1    2  502  501 -0.53941429119E+02 -0.16853761491E+02  0.88245602586E+02  0.10479033079E+03  0.00000000000E+00 0. -1.
<mgrwt>
<rscale>  1 0.13718183E+03</rscale>
<asrwt>0</asrwt>
<pdfrwt beam="2">  1        4 0.26451318E-02 0.13718183E+03</pdfrwt>
<pdfrwt beam="1">  1       -4 0.95983638E-01 0.13718183E+03</pdfrwt>
<totfact> 0.10260574E+03</totfact>
</mgrwt>
</event>
<event>
 6    4  0.5642870E-004  0.1267382E+03  0.7818608E-02  0.1232378E+00
          4   -1    0    0  502    0  0.00000000000E+00  0.00000000000E+00  0.80587098070E+03  0.80587198142E+03  0.12700000000E+01 0. -1.
         -4   -1    0    0    0  501 -0.00000000000E+00 -0.00000000000E+00 -0.67182127888E+01  0.68371984815E+01  0.12700000000E+01 0. -1.
         25    2    1    2    0    0 -0.20758812275E+02  0.25684521697E+01  0.67186923960E+03  0.68371839801E+03  0.12500018968E+03 0.  0.
    9000005    1    3    3    0    0 -0.38724159529E+02  0.21367396200E+02  0.81142501473E+02  0.92418784330E+02  0.10000000000E+01 0.  0.
    9000005    1    3    3    0    0  0.17965347254E+02 -0.18798944031E+02  0.59072673812E+03  0.59129961368E+03  0.10000000000E+01 0.  0.
         21    1    1    2  502  501  0.20758812275E+02 -0.25684521697E+01  0.12728352831E+03  0.12899078189E+03  0.00000000000E+00 0.  1.
<mgrwt>
<rscale>  1 0.12673821E+03</rscale>
<asrwt>0</asrwt>
<pdfrwt beam="1">  1        4 0.12398937E+00 0.12673821E+03</pdfrwt>
<pdfrwt beam="2">  1       -4 0.10428011E-02 0.12673821E+03</pdfrwt>
<totfact> 0.22938514E+03</totfact>
</mgrwt>
</event>
<event>
 6    4  0.5642870E-004  0.1327342E+03  0.7818608E-02  0.1223454E+00
         -4   -1    0    0    0  501 -0.00000000000E+00  0.00000000000E+00  0.74078998769E+02  0.74089884321E+02  0.12700000000E+01 0. -1.
          4   -1    0    0  502    0  0.00000000000E+00 -0.00000000000E+00 -0.35314934010E+03  0.35315162369E+03  0.12700000000E+01 0. -1.
         25    2    1    2    0    0 -0.30307126056E+02  0.32763448212E+02  0.11529833491E+02  0.13323397913E+03  0.12500556270E+03 0.  0.
    9000005    1    3    3    0    0  0.28636911334E+02  0.51365321030E+02  0.33427386521E+02  0.67652487500E+02  0.10000000000E+01 0.  0.
    9000005    1    3    3    0    0 -0.58944037390E+02 -0.18601872819E+02 -0.21897553030E+02  0.65581491633E+02  0.10000000000E+01 0.  0.
         21    1    1    2  502  501  0.30307126056E+02 -0.32763448212E+02 -0.29060017482E+03  0.29400752888E+03  0.00000000000E+00 0. -1.
<mgrwt>
<rscale>  1 0.13273416E+03</rscale>
<asrwt>0</asrwt>
<pdfrwt beam="2">  1        4 0.54331680E-01 0.13273416E+03</pdfrwt>
<pdfrwt beam="1">  1       -4 0.11397782E-01 0.13273416E+03</pdfrwt>
<totfact> 0.32874219E+02</totfact>
</mgrwt>
</event>
<event>
 6    4  0.5642870E-004  0.1270709E+03  0.7818608E-02  0.1231868E+00
         -4   -1    0    0    0  501 -0.00000000000E+00  0.00000000000E+00  0.20841799144E+04  0.20841803013E+04  0.12700000000E+01 0. -1.
          4   -1    0    0  502    0  0.00000000000E+00 -0.00000000000E+00 -0.25456738764E+01  0.28448823323E+01  0.12700000000E+01 0. -1.
         25    2    1    2    0    0 -0.15611304850E+02 -0.16670640586E+02  0.17637881753E+04  0.17683596156E+04  0.12500151861E+03 0.  0.
    9000005    1    3    3    0    0  0.38649795781E+02 -0.43936576438E+02  0.56233936640E+03  0.56537668192E+03  0.10000000000E+01 0.  0.
    9000005    1    3    3    0    0 -0.54261100631E+02  0.27265935852E+02  0.12014488089E+04  0.12029829337E+04  0.10000000000E+01 0.  0.
         21    1    1    2  502  501  0.15611304850E+02  0.16670640586E+02  0.31784606520E+03  0.31866556805E+03  0.00000000000E+00 0. -1.
<mgrwt>
<rscale>  1 0.12707086E+03</rscale>
<asrwt>0</asrwt>
<pdfrwt beam="2">  1        4 0.41468734E-03 0.12707086E+03</pdfrwt>
<pdfrwt beam="1">  1       -4 0.32066657E+00 0.12707086E+03</pdfrwt>
<totfact> 0.51685861E+02</totfact>
</mgrwt>
</event>
<event>
 6    4  0.5642870E-004  0.1287867E+03  0.7818608E-02  0.1229267E+00
          4   -1    0    0  502    0  0.00000000000E+00  0.00000000000E+00  0.14641780082E+02  0.14696755559E+02  0.12700000000E+01 0.  1.
         -4   -1    0    0    0  501 -0.00000000000E+00 -0.00000000000E+00 -0.48179330864E+03  0.48179498248E+03  0.12700000000E+01 0.  1.
         25    2    1    2    0    0 -0.23052334027E+02  0.20743811779E+02 -0.42550176133E+03  0.44456468401E+03  0.12499717412E+03 0.  0.
    9000005    1    3    3    0    0  0.33812391694E+02 -0.12327309343E+02 -0.41382480523E+02  0.54852074546E+02  0.10000000000E+01 0.  0.
    9000005    1    3    3    0    0 -0.56864725721E+02  0.33071121122E+02 -0.38411928081E+03  0.38971260946E+03  0.10000000000E+01 0.  0.
         21    1    1    2  502  501  0.23052334027E+02 -0.20743811779E+02 -0.41649767221E+02  0.51927054035E+02  0.00000000000E+00 0.  1.
<mgrwt>
<rscale>  1 0.12878668E+03</rscale>
<asrwt>0</asrwt>
<pdfrwt beam="1">  1        4 0.22569396E-02 0.12878668E+03</pdfrwt>
<pdfrwt beam="2">  1       -4 0.74126393E-01 0.12878668E+03</pdfrwt>
<totfact> 0.23047519E+03</totfact>
</mgrwt>
</event>
<event>
 6    4  0.5642870E-004  0.1327711E+03  0.7818608E-02  0.1223401E+00
         -4   -1    0    0    0  501 -0.00000000000E+00  0.00000000000E+00  0.28710291046E+02  0.28738366550E+02  0.12700000000E+01 0. -1.
          4   -1    0    0  502    0  0.00000000000E+00 -0.00000000000E+00 -0.33172049958E+03  0.33172293069E+03  0.12700000000E+01 0. -1.
         25    2    1    2    0    0 -0.16622463768E+02  0.41558146840E+02 -0.14666475998E+03  0.19783508424E+03  0.12499913145E+03 0.  0.
    9000005    1    3    3    0    0  0.21313639124E+02  0.13327175547E+02 -0.14838791026E+03  0.15050533788E+03  0.10000000000E+01 0.  0.
    9000005    1    3    3    0    0 -0.37936102892E+02  0.28230971293E+02  0.17231502795E+01  0.47329746351E+02  0.10000000000E+01 0.  0.
         21    1    1    2  502  501  0.16622463768E+02 -0.41558146840E+02 -0.15634544856E+03  0.16262621300E+03  0.00000000000E+00 0. -1.
<mgrwt>
<rscale>  1 0.13277111E+03</rscale>
<asrwt>0</asrwt>
<pdfrwt beam="2">  1        4 0.51036267E-01 0.13277111E+03</pdfrwt>
<pdfrwt beam="1">  1       -4 0.44193148E-02 0.13277111E+03</pdfrwt>
<totfact> 0.17756090E+03</totfact>
</mgrwt>
</event>
<event>
 6    4  0.5642870E-004  0.1308430E+03  0.7818608E-02  0.1226210E+00
         -4   -1    0    0    0  501 -0.00000000000E+00  0.00000000000E+00  0.72366618257E+03  0.72366729696E+03  0.12700000000E+01 0. -1.
          4   -1    0    0  502    0  0.00000000000E+00 -0.00000000000E+00 -0.12268566280E+02  0.12334124151E+02  0.12700000000E+01 0. -1.
         25    2    1    2    0    0  0.21547856683E+02  0.32108619058E+02  0.65287779031E+03  0.66585982448E+03  0.12499849293E+03 0.  0.
    9000005    1    3    3    0    0 -0.77491645623E+01 -0.39468739759E+02  0.38327727630E+03  0.38538331761E+03  0.10000000000E+01 0.  0.
    9000005    1    3    3    0    0  0.29297021246E+02  0.71577358817E+02  0.26960051401E+03  0.28047650686E+03  0.10000000000E+01 0.  0.
         21    1    1    2  502  501 -0.21547856683E+02 -0.32108619058E+02  0.58519825982E+02  0.70141596635E+02  0.00000000000E+00 0. -1.
<mgrwt>
<rscale>  1 0.13084302E+03</rscale>
<asrwt>0</asrwt>
<pdfrwt beam="2">  1        4 0.18926003E-02 0.13084302E+03</pdfrwt>
<pdfrwt beam="1">  1       -4 0.11133839E+00 0.13084302E+03</pdfrwt>
<totfact> 0.12070450E+03</totfact>
</mgrwt>
</event>
<event>
 6    4  0.5642870E-004  0.1498948E+03  0.7818608E-02  0.1200602E+00
         -4   -1    0    0    0  501 -0.00000000000E+00  0.00000000000E+00  0.13100336191E+04  0.13100342347E+04  0.12700000000E+01 0. -1.
          4   -1    0    0  502    0  0.00000000000E+00 -0.00000000000E+00 -0.15452424726E+02  0.15504526110E+02  0.12700000000E+01 0. -1.
         25    2    1    2    0    0  0.82193036093E+02 -0.94085883769E+01  0.11435620704E+04  0.11533441252E+04  0.12499698235E+03 0.  0.
    9000005    1    3    3    0    0  0.34885752294E+02 -0.14564992139E+02  0.10233968749E+04  0.10240953658E+04  0.10000000000E+01 0.  0.
    9000005    1    3    3    0    0  0.47307283799E+02  0.51564037622E+01  0.12016519552E+03  0.12924875943E+03  0.10000000000E+01 0.  0.
         21    1    1    2  502  501 -0.82193036093E+02  0.94085883769E+01  0.15101912393E+03  0.17219463554E+03  0.00000000000E+00 0. -1.
<mgrwt>
<rscale>  1 0.14989484E+03</rscale>
<asrwt>0</asrwt>
<pdfrwt beam="2">  1        4 0.23813513E-02 0.14989484E+03</pdfrwt>
<pdfrwt beam="1">  1       -4 0.20154768E+00 0.14989484E+03</pdfrwt>
<totfact> 0.18842545E+02</totfact>
</mgrwt>
</event>
<event>
 6    4  0.5642870E-004  0.1273492E+03  0.7818608E-02  0.1231443E+00
         -4   -1    0    0    0  501 -0.00000000000E+00  0.00000000000E+00  0.98118990897E+02  0.98127209655E+02  0.12700000000E+01 0.  1.
          4   -1    0    0  502    0  0.00000000000E+00 -0.00000000000E+00 -0.89242924203E+02  0.89251960316E+02  0.12700000000E+01 0.  1.
         25    2    1    2    0    0 -0.68978336697E+01 -0.23390923342E+02  0.52224646852E+02  0.13764171119E+03  0.12499244584E+03 0.  0.
    9000005    1    3    3    0    0 -0.18828118044E+02  0.39862851928E+02 -0.13024511623E+02  0.45980244627E+02  0.10000000000E+01 0.  0.
    9000005    1    3    3    0    0  0.11930284374E+02 -0.63253775270E+02  0.65249158476E+02  0.91661466565E+02  0.10000000000E+01 0.  0.
         21    1    1    2  502  501  0.68978336697E+01  0.23390923342E+02 -0.43348580157E+02  0.49737458779E+02  0.00000000000E+00 0.  1.
<mgrwt>
<rscale>  1 0.12734923E+03</rscale>
<asrwt>0</asrwt>
<pdfrwt beam="2">  1        4 0.13731008E-01 0.12734923E+03</pdfrwt>
<pdfrwt beam="1">  1       -4 0.15096557E-01 0.12734923E+03</pdfrwt>
<totfact> 0.26488870E+03</totfact>
</mgrwt>
</event>
<event>
 6    4  0.5642870E-004  0.1295137E+03  0.7818608E-02  0.1228179E+00
          4   -1    0    0  502    0  0.00000000000E+00  0.00000000000E+00  0.16822181411E+03  0.16822660801E+03  0.12700000000E+01 0. -1.
         -4   -1    0    0    0  501 -0.00000000000E+00 -0.00000000000E+00 -0.40260065971E+02  0.40280092006E+02  0.12700000000E+01 0. -1.
         25    2    1    2    0    0 -0.32908218681E+02 -0.81817305809E+01  0.90639642955E+02  0.15808020790E+03  0.12499566265E+03 0.  0.
    9000005    1    3    3    0    0  0.15844623710E+02 -0.37124284178E+02  0.92936259309E+02  0.10132824320E+03  0.10000000000E+01 0.  0.
    9000005    1    3    3    0    0 -0.48752842391E+02  0.28942553597E+02 -0.22966163536E+01  0.56751964694E+02  0.10000000000E+01 0.  0.
         21    1    1    2  502  501  0.32908218681E+02  0.81817305809E+01  0.37322105179E+02  0.50426492116E+02  0.00000000000E+00 0. -1.
<mgrwt>
<rscale>  1 0.12951373E+03</rscale>
<asrwt>0</asrwt>
<pdfrwt beam="1">  1        4 0.25882188E-01 0.12951373E+03</pdfrwt>
<pdfrwt beam="2">  1       -4 0.61957656E-02 0.12951373E+03</pdfrwt>
<totfact> 0.38284537E+03</totfact>
</mgrwt>
</event>
<event>
 6    4  0.5642870E-004  0.1284759E+03  0.7818608E-02  0.1229735E+00
          4   -1    0    0  502    0  0.00000000000E+00  0.00000000000E+00  0.31589706365E+01  0.34047019668E+01  0.12700000000E+01 0.  1.
         -4   -1    0    0    0  501 -0.00000000000E+00 -0.00000000000E+00 -0.20196736777E+04  0.20196740770E+04  0.12700000000E+01 0.  1.
         25    2    1    2    0    0  0.29254159178E+02  0.47839789861E+01 -0.14103354097E+04  0.14161751351E+04  0.12500941312E+03 0.  0.
    9000005    1    3    3    0    0 -0.19181695017E+02  0.28020356432E+02 -0.11424212980E+04  0.11429262881E+04  0.10000000000E+01 0.  0.
    9000005    1    3    3    0    0  0.48435854194E+02 -0.23236377446E+02 -0.26791411162E+03  0.27324884704E+03  0.10000000000E+01 0.  0.
         21    1    1    2  502  501 -0.29254159178E+02 -0.47839789861E+01 -0.60617929741E+03  0.60690364382E+03  0.00000000000E+00 0. -1.
<mgrwt>
<rscale>  1 0.12847586E+03</rscale>
<asrwt>0</asrwt>
<pdfrwt beam="1">  1        4 0.50493022E-03 0.12847586E+03</pdfrwt>
<pdfrwt beam="2">  1       -4 0.31073697E+00 0.12847586E+03</pdfrwt>
<totfact> 0.44260118E+02</totfact>
</mgrwt>
</event>
<event>
 6    4  0.5642870E-004  0.1733502E+03  0.7818608E-02  0.1174399E+00
          4   -1    0    0  502    0  0.00000000000E+00  0.00000000000E+00  0.60767769028E+03  0.60767901738E+03  0.12700000000E+01 0.  1.
         -4   -1    0    0    0  501 -0.00000000000E+00 -0.00000000000E+00 -0.36108795070E+02  0.36131122061E+02  0.12700000000E+01 0.  1.
         25    2    1    2    0    0  0.11390240086E+03 -0.38107683014E+02  0.38047975313E+03  0.41810898161E+03  0.12499730210E+03 0.  0.
    9000005    1    3    3    0    0 -0.70929950392E+01  0.18255576012E+02  0.15381656649E+03  0.15506164181E+03  0.10000000000E+01 0.  0.
    9000005    1    3    3    0    0  0.12099539590E+03 -0.56363259026E+02  0.22666318664E+03  0.26304733980E+03  0.10000000000E+01 0.  0.
         21    1    1    2  502  501 -0.11390240086E+03  0.38107683014E+02  0.19108914208E+03  0.22570115784E+03  0.00000000000E+00 0.  1.
<mgrwt>
<rscale>  1 0.17335016E+03</rscale>
<asrwt>0</asrwt>
<pdfrwt beam="1">  1        4 0.93490691E-01 0.17335016E+03</pdfrwt>
<pdfrwt beam="2">  1       -4 0.55570190E-02 0.17335016E+03</pdfrwt>
<totfact> 0.34972133E+02</totfact>
</mgrwt>
</event>
<event>
 6    4  0.5642870E-004  0.2365527E+03  0.7818608E-02  0.1122111E+00
         -4   -1    0    0    0  501 -0.00000000000E+00  0.00000000000E+00  0.11035606566E+04  0.11035613873E+04  0.12700000000E+01 0.  1.
          4   -1    0    0  502    0  0.00000000000E+00 -0.00000000000E+00 -0.66751849253E+02  0.66763929473E+02  0.12700000000E+01 0.  1.
         25    2    1    2    0    0  0.16767685337E+03  0.11053639498E+03  0.89172942377E+03  0.92257171077E+03  0.12499349793E+03 0.  0.
    9000005    1    3    3    0    0 -0.55161637703E+01  0.36883427177E+02  0.28197299854E+03  0.28443028525E+03  0.10000000000E+01 0.  0.
    9000005    1    3    3    0    0  0.17319301714E+03  0.73652967808E+02  0.60975642523E+03  0.63814142552E+03  0.10000000000E+01 0.  0.
         21    1    1    2  502  501 -0.16767685337E+03 -0.11053639498E+03  0.14507938353E+03  0.24775360603E+03  0.00000000000E+00 0.  1.
<mgrwt>
<rscale>  1 0.23655273E+03</rscale>
<asrwt>0</asrwt>
<pdfrwt beam="2">  1        4 0.10270499E-01 0.23655273E+03</pdfrwt>
<pdfrwt beam="1">  1       -4 0.16977957E+00 0.23655273E+03</pdfrwt>
<totfact> 0.30000055E+01</totfact>
</mgrwt>
</event>
<event>
 6    4  0.5642870E-004  0.1275578E+03  0.7818608E-02  0.1231125E+00
         -4   -1    0    0    0  501 -0.00000000000E+00  0.00000000000E+00  0.14839010572E+03  0.14839554028E+03  0.12700000000E+01 0.  1.
          4   -1    0    0  502    0  0.00000000000E+00 -0.00000000000E+00 -0.88784446722E+02  0.88793529493E+02  0.12700000000E+01 0.  1.
         25    2    1    2    0    0  0.18118555729E+02 -0.17836044043E+02  0.11783257953E+03  0.17365340417E+03  0.12499832580E+03 0.  0.
    9000005    1    3    3    0    0  0.30428185854E+01  0.37938670932E+02 -0.45207146397E+01  0.38341079248E+02  0.10000000000E+01 0.  0.
    9000005    1    3    3    0    0  0.15075737143E+02 -0.55774714976E+02  0.12235329417E+03  0.13531232492E+03  0.10000000000E+01 0.  0.
         21    1    1    2  502  501 -0.18118555729E+02  0.17836044043E+02 -0.58226920535E+02  0.63535665604E+02  0.00000000000E+00 0.  1.
<mgrwt>
<rscale>  1 0.12755778E+03</rscale>
<asrwt>0</asrwt>
<pdfrwt beam="2">  1        4 0.13660262E-01 0.12755778E+03</pdfrwt>
<pdfrwt beam="1">  1       -4 0.22830364E-01 0.12755778E+03</pdfrwt>
<totfact> 0.12789938E+03</totfact>
</mgrwt>
</event>
<event>
 6    4  0.5642870E-004  0.1277241E+03  0.7818608E-02  0.1230872E+00
         -4   -1    0    0    0  501 -0.00000000000E+00  0.00000000000E+00  0.94410064075E+03  0.94410149495E+03  0.12700000000E+01 0.  1.
          4   -1    0    0  502    0  0.00000000000E+00 -0.00000000000E+00 -0.72335610105E+01  0.73442021277E+01  0.12700000000E+01 0.  1.
         25    2    1    2    0    0 -0.87918083717E+01 -0.24712397979E+02  0.87463672862E+03  0.88391337068E+03  0.12500176520E+03 0.  0.
    9000005    1    3    3    0    0 -0.62587144128E+01  0.26633223290E+01  0.83834348412E+03  0.83837167304E+03  0.10000000000E+01 0.  0.
    9000005    1    3    3    0    0 -0.25330939589E+01 -0.27375720308E+02  0.36293244505E+02  0.45541697641E+02  0.10000000000E+01 0.  0.
         21    1    1    2  502  501  0.87918083717E+01  0.24712397979E+02  0.62230351116E+02  0.67532326395E+02  0.00000000000E+00 0.  1.
<mgrwt>
<rscale>  1 0.12772408E+03</rscale>
<asrwt>0</asrwt>
<pdfrwt beam="2">  1        4 0.11214332E-02 0.12772408E+03</pdfrwt>
<pdfrwt beam="1">  1       -4 0.14525468E+00 0.12772408E+03</pdfrwt>
<totfact> 0.13938755E+03</totfact>
</mgrwt>
</event>
<event>
 6    4  0.5642870E-004  0.1269128E+03  0.7818608E-02  0.1232110E+00
          4   -1    0    0  502    0  0.00000000000E+00  0.00000000000E+00  0.36297078990E+01  0.38454751894E+01  0.12700000000E+01 0. -1.
         -4   -1    0    0    0  501 -0.00000000000E+00 -0.00000000000E+00 -0.15006125043E+04  0.15006130417E+04  0.12700000000E+01 0. -1.
         25    2    1    2    0    0  0.13764733541E+02  0.17209402882E+02 -0.13264941684E+04  0.13325515545E+04  0.12498494000E+03 0.  0.
    9000005    1    3    3    0    0  0.27667066974E+02  0.64003402552E+02 -0.53085608305E+03  0.53541673773E+03  0.10000000000E+01 0.  0.
    9000005    1    3    3    0    0 -0.13902333433E+02 -0.46793999670E+02 -0.79563808536E+03  0.79713481680E+03  0.10000000000E+01 0.  0.
         21    1    1    2  502  501 -0.13764733541E+02 -0.17209402882E+02 -0.17048862798E+03  0.17190696236E+03  0.00000000000E+00 0.  1.
<mgrwt>
<rscale>  1 0.12691283E+03</rscale>
<asrwt>0</asrwt>
<pdfrwt beam="1">  1        4 0.57505662E-03 0.12691283E+03</pdfrwt>
<pdfrwt beam="2">  1       -4 0.23087962E+00 0.12691283E+03</pdfrwt>
<totfact> 0.10506582E+03</totfact>
</mgrwt>
</event>
<event>
 6    4  0.5642870E-004  0.1271409E+03  0.7818608E-02  0.1231761E+00
         -4   -1    0    0    0  501 -0.00000000000E+00  0.00000000000E+00  0.46738906161E+03  0.46739078704E+03  0.12700000000E+01 0. -1.
          4   -1    0    0  502    0  0.00000000000E+00 -0.00000000000E+00 -0.15543979843E+02  0.15595775369E+02  0.12700000000E+01 0. -1.
         25    2    1    2    0    0 -0.86916639040E+01 -0.21545651531E+02  0.43768809639E+03  0.45578030658E+03  0.12500023210E+03 0.  0.
    9000005    1    3    3    0    0  0.44864503036E+02  0.26935887895E+02  0.23015471276E+03  0.23603084013E+03  0.10000000000E+01 0.  0.
    9000005    1    3    3    0    0 -0.53556166940E+02 -0.48481539425E+02  0.20753338363E+03  0.21974946645E+03  0.10000000000E+01 0.  0.
         21    1    1    2  502  501  0.86916639040E+01  0.21545651531E+02  0.14156985376E+02  0.27206255829E+02  0.00000000000E+00 0. -1.
<mgrwt>
<rscale>  1 0.12714094E+03</rscale>
<asrwt>0</asrwt>
<pdfrwt beam="2">  1        4 0.23954987E-02 0.12714094E+03</pdfrwt>
<pdfrwt beam="1">  1       -4 0.71910119E-01 0.12714094E+03</pdfrwt>
<totfact> 0.22381607E+03</totfact>
</mgrwt>
</event>
<event>
 6    4  0.5642870E-004  0.1268225E+03  0.7818608E-02  0.1232248E+00
         -4   -1    0    0    0  501 -0.00000000000E+00  0.00000000000E+00  0.24264585909E+03  0.24264918264E+03  0.12700000000E+01 0. -1.
          4   -1    0    0  502    0  0.00000000000E+00 -0.00000000000E+00 -0.23971958600E+02  0.24005576417E+02  0.12700000000E+01 0. -1.
         25    2    1    2    0    0  0.14604500744E+02 -0.15699898246E+02  0.15987771875E+03  0.20407066176E+03  0.12499668712E+03 0.  0.
    9000005    1    3    3    0    0  0.38096180941E+02  0.34602058062E+02  0.23038571964E+02  0.56395010618E+02  0.10000000000E+01 0.  0.
    9000005    1    3    3    0    0 -0.23491680197E+02 -0.50301956308E+02  0.13683914679E+03  0.14767565114E+03  0.10000000000E+01 0.  0.
         21    1    1    2  502  501 -0.14604500744E+02  0.15699898246E+02  0.58796181740E+02  0.62584097294E+02  0.00000000000E+00 0.  1.
<mgrwt>
<rscale>  1 0.12682251E+03</rscale>
<asrwt>0</asrwt>
<pdfrwt beam="2">  1        4 0.36908354E-02 0.12682251E+03</pdfrwt>
<pdfrwt beam="1">  1       -4 0.37332973E-01 0.12682251E+03</pdfrwt>
<totfact> 0.43588644E+03</totfact>
</mgrwt>
</event>
<event>
 6    4  0.5642870E-004  0.1303389E+03  0.7818608E-02  0.1226954E+00
         -4   -1    0    0    0  501 -0.00000000000E+00  0.00000000000E+00  0.40210077822E+02  0.40230128740E+02  0.12700000000E+01 0.  1.
          4   -1    0    0  502    0  0.00000000000E+00 -0.00000000000E+00 -0.26038420690E+03  0.26038730403E+03  0.12700000000E+01 0.  1.
         25    2    1    2    0    0 -0.20552040418E+02  0.30659227185E+02 -0.74053647929E+02  0.14990721551E+03  0.12500342361E+03 0.  0.
    9000005    1    3    3    0    0 -0.35266598139E+02  0.51951759323E+02 -0.96833056385E+02  0.11541385987E+03  0.10000000000E+01 0.  0.
    9000005    1    3    3    0    0  0.14714557721E+02 -0.21292532138E+02  0.22779408456E+02  0.34493355641E+02  0.10000000000E+01 0.  0.
         21    1    1    2  502  501  0.20552040418E+02 -0.30659227185E+02 -0.14612048115E+03  0.15071021726E+03  0.00000000000E+00 0. -1.
<mgrwt>
<rscale>  1 0.13033891E+03</rscale>
<asrwt>0</asrwt>
<pdfrwt beam="2">  1        4 0.40060888E-01 0.13033891E+03</pdfrwt>
<pdfrwt beam="1">  1       -4 0.61879466E-02 0.13033891E+03</pdfrwt>
<totfact> 0.16700708E+03</totfact>
</mgrwt>
</event>
<event>
 6    4  0.5642870E-004  0.1281127E+03  0.7818608E-02  0.1230283E+00
          4   -1    0    0  502    0  0.00000000000E+00  0.00000000000E+00  0.42141997216E+02  0.42161129365E+02  0.12700000000E+01 0.  1.
         -4   -1    0    0    0  501 -0.00000000000E+00 -0.00000000000E+00 -0.44009293746E+03  0.44009476991E+03  0.12700000000E+01 0.  1.
         25    2    1    2    0    0 -0.27529129266E+02 -0.54193359279E+01 -0.42463232379E+03  0.44353744904E+03  0.12500254451E+03 0.  0.
    9000005    1    3    3    0    0  0.24519118380E+02  0.28375902110E+02 -0.31762925368E+03  0.31983702378E+03  0.10000000000E+01 0.  0.
    9000005    1    3    3    0    0 -0.52048247645E+02 -0.33795238038E+02 -0.10700307011E+03  0.12370042526E+03  0.10000000000E+01 0.  0.
         21    1    1    2  502  501  0.27529129266E+02  0.54193359279E+01  0.26681383550E+02  0.38718450229E+02  0.00000000000E+00 0.  1.
<mgrwt>
<rscale>  1 0.12811268E+03</rscale>
<asrwt>0</asrwt>
<pdfrwt beam="1">  1        4 0.64849972E-02 0.12811268E+03</pdfrwt>
<pdfrwt beam="2">  1       -4 0.67708215E-01 0.12811268E+03</pdfrwt>
<totfact> 0.52554704E+02</totfact>
</mgrwt>
</event>
<event>
 6    4  0.5642870E-004  0.1281212E+03  0.7818608E-02  0.1230270E+00
         -4   -1    0    0    0  501 -0.00000000000E+00  0.00000000000E+00  0.25478935099E+03  0.25479251614E+03  0.12700000000E+01 0.  1.
          4   -1    0    0  502    0  0.00000000000E+00 -0.00000000000E+00 -0.25327017782E+02  0.25358839282E+02  0.12700000000E+01 0.  1.
         25    2    1    2    0    0 -0.26822400661E+02  0.85489201909E+01  0.20974826149E+03  0.24578320392E+03  0.12499009928E+03 0.  0.
    9000005    1    3    3    0    0  0.23042397453E+02 -0.47668892224E+02  0.84979342960E+02  0.10012873761E+03  0.10000000000E+01 0.  0.
    9000005    1    3    3    0    0 -0.49864798115E+02  0.56217812415E+02  0.12476891853E+03  0.14565446630E+03  0.10000000000E+01 0.  0.
         21    1    1    2  502  501  0.26822400661E+02 -0.85489201909E+01  0.19714071722E+02  0.34368151500E+02  0.00000000000E+00 0. -1.
<mgrwt>
<rscale>  1 0.12812123E+03</rscale>
<asrwt>0</asrwt>
<pdfrwt beam="2">  1        4 0.38991555E-02 0.12812123E+03</pdfrwt>
<pdfrwt beam="1">  1       -4 0.39201053E-01 0.12812123E+03</pdfrwt>
<totfact> 0.36420870E+03</totfact>
</mgrwt>
</event>
<event>
 6    4  0.5642870E-004  0.1296027E+03  0.7818608E-02  0.1228046E+00
         -4   -1    0    0    0  501 -0.00000000000E+00  0.00000000000E+00  0.51347346631E+02  0.51363050007E+02  0.12700000000E+01 0.  1.
          4   -1    0    0  502    0  0.00000000000E+00 -0.00000000000E+00 -0.13303299345E+03  0.13303905535E+03  0.12700000000E+01 0.  1.
         25    2    1    2    0    0 -0.27089361160E+02 -0.20925465276E+02 -0.54104696907E+02  0.14044283576E+03  0.12500065321E+03 0.  0.
    9000005    1    3    3    0    0 -0.72087949750E+00 -0.70105225683E+02 -0.46455721491E+02  0.84109431068E+02  0.10000000000E+01 0.  0.
    9000005    1    3    3    0    0 -0.26368481662E+02  0.49179760408E+02 -0.76489754155E+01  0.56333404689E+02  0.10000000000E+01 0.  0.
         21    1    1    2  502  501  0.27089361160E+02  0.20925465276E+02 -0.27580949916E+02  0.43959269595E+02  0.00000000000E+00 0.  1.
<mgrwt>
<rscale>  1 0.12960275E+03</rscale>
<asrwt>0</asrwt>
<pdfrwt beam="2">  1        4 0.20468288E-01 0.12960275E+03</pdfrwt>
<pdfrwt beam="1">  1       -4 0.79012661E-02 0.12960275E+03</pdfrwt>
<totfact> 0.39451055E+03</totfact>
</mgrwt>
</event>
<event>
 6    4  0.5642870E-004  0.1269380E+03  0.7818608E-02  0.1232071E+00
          4   -1    0    0  502    0  0.00000000000E+00  0.00000000000E+00  0.23449251073E+02  0.23483617181E+02  0.12700000000E+01 0.  1.
         -4   -1    0    0    0  501 -0.00000000000E+00 -0.00000000000E+00 -0.28654882439E+03  0.28655163873E+03  0.12700000000E+01 0.  1.
         25    2    1    2    0    0 -0.18907470871E+02  0.11445358694E+02 -0.25772435927E+03  0.28728923172E+03  0.12499907444E+03 0.  0.
    9000005    1    3    3    0    0 -0.19269034982E+02  0.54949672214E+02 -0.55546148662E+02  0.80480661135E+02  0.10000000000E+01 0.  0.
    9000005    1    3    3    0    0  0.36156411059E+00 -0.43504313520E+02 -0.20217821061E+03  0.20680857059E+03  0.10000000000E+01 0.  0.
         21    1    1    2  502  501  0.18907470871E+02 -0.11445358694E+02 -0.53752140457E+01  0.22746024189E+02  0.00000000000E+00 0.  1.
<mgrwt>
<rscale>  1 0.12693801E+03</rscale>
<asrwt>0</asrwt>
<pdfrwt beam="1">  1        4 0.36104373E-02 0.12693801E+03</pdfrwt>
<pdfrwt beam="2">  1       -4 0.44087292E-01 0.12693801E+03</pdfrwt>
<totfact> 0.32534916E+03</totfact>
</mgrwt>
</event>
<event>
 6    4  0.5642870E-004  0.1289146E+03  0.7818608E-02  0.1229075E+00
         -4   -1    0    0    0  501 -0.00000000000E+00  0.00000000000E+00  0.11380441078E+02  0.11451084627E+02  0.12700000000E+01 0. -1.
          4   -1    0    0  502    0  0.00000000000E+00 -0.00000000000E+00 -0.56998265207E+03  0.56998406694E+03  0.12700000000E+01 0. -1.
         25    2    1    2    0    0  0.21124168881E+02  0.23395333942E+02 -0.42245920186E+03  0.44169077387E+03  0.12500156129E+03 0.  0.
    9000005    1    3    3    0    0  0.45507427590E+02  0.29126744741E+02 -0.70444758199E+02  0.88784892762E+02  0.10000000000E+01 0.  0.
    9000005    1    3    3    0    0 -0.24383258709E+02 -0.57314107996E+01 -0.35201444366E+03  0.35290588111E+03  0.10000000000E+01 0.  0.
         21    1    1    2  502  501 -0.21124168881E+02 -0.23395333942E+02 -0.13614300914E+03  0.13974437770E+03  0.00000000000E+00 0. -1.
<mgrwt>
<rscale>  1 0.12891455E+03</rscale>
<asrwt>0</asrwt>
<pdfrwt beam="2">  1        4 0.87695159E-01 0.12891455E+03</pdfrwt>
<pdfrwt beam="1">  1       -4 0.17563805E-02 0.12891455E+03</pdfrwt>
<totfact> 0.23380166E+03</totfact>
</mgrwt>
</event>
<event>
 6    4  0.5642870E-004  0.1283184E+03  0.7818608E-02  0.1229972E+00
         -4   -1    0    0    0  501 -0.00000000000E+00  0.00000000000E+00  0.46906651384E+02  0.46923840892E+02  0.12700000000E+01 0. -1.
          4   -1    0    0  502    0  0.00000000000E+00 -0.00000000000E+00 -0.13709814846E+03  0.13710403062E+03  0.12700000000E+01 0. -1.
         25    2    1    2    0    0 -0.67273960309E+01  0.28194154742E+02 -0.58328487529E+02  0.14095328972E+03  0.12500179681E+03 0.  0.
    9000005    1    3    3    0    0 -0.38425738058E+02  0.58472360753E+02 -0.66289987331E+02  0.96389401584E+02  0.10000000000E+01 0.  0.
    9000005    1    3    3    0    0  0.31698342028E+02 -0.30278206011E+02  0.79614998018E+01  0.44563888134E+02  0.10000000000E+01 0.  0.
         21    1    1    2  502  501  0.67273960309E+01 -0.28194154742E+02 -0.31863009549E+02  0.43074581791E+02  0.00000000000E+00 0.  1.
<mgrwt>
<rscale>  1 0.12831842E+03</rscale>
<asrwt>0</asrwt>
<pdfrwt beam="2">  1        4 0.21093797E-01 0.12831842E+03</pdfrwt>
<pdfrwt beam="1">  1       -4 0.72181827E-02 0.12831842E+03</pdfrwt>
<totfact> 0.43263032E+03</totfact>
</mgrwt>
</event>
<event>
 6    4  0.5642870E-004  0.1274605E+03  0.7818608E-02  0.1231273E+00
          4   -1    0    0  502    0  0.00000000000E+00  0.00000000000E+00  0.96700018922E+02  0.96708358271E+02  0.12700000000E+01 0. -1.
         -4   -1    0    0    0  501 -0.00000000000E+00 -0.00000000000E+00 -0.60842539348E+02  0.60855792611E+02  0.12700000000E+01 0. -1.
         25    2    1    2    0    0  0.17696009165E+02 -0.17494873125E+02  0.22874561866E+02  0.12949681260E+03  0.12500783802E+03 0.  0.
    9000005    1    3    3    0    0 -0.46283783153E+02 -0.35726639146E+02  0.23334488373E+02  0.62960937693E+02  0.10000000000E+01 0.  0.
    9000005    1    3    3    0    0  0.63979792318E+02  0.18231766020E+02 -0.45992650620E+00  0.66535874907E+02  0.10000000000E+01 0.  0.
         21    1    1    2  502  501 -0.17696009165E+02  0.17494873125E+02  0.12982917707E+02  0.28067338282E+02  0.00000000000E+00 0.  1.
<mgrwt>
<rscale>  1 0.12746050E+03</rscale>
<asrwt>0</asrwt>
<pdfrwt beam="1">  1        4 0.14878587E-01 0.12746050E+03</pdfrwt>
<pdfrwt beam="2">  1       -4 0.93620518E-02 0.12746050E+03</pdfrwt>
<totfact> 0.52121394E+03</totfact>
</mgrwt>
</event>
<event>
 6    4  0.5642870E-004  0.1360642E+03  0.7818608E-02  0.1218725E+00
         -4   -1    0    0    0  501 -0.00000000000E+00  0.00000000000E+00  0.25221562649E+02  0.25253517032E+02  0.12700000000E+01 0. -1.
          4   -1    0    0  502    0  0.00000000000E+00 -0.00000000000E+00 -0.36883051082E+03  0.36883269732E+03  0.12700000000E+01 0. -1.
         25    2    1    2    0    0 -0.30251205113E+02 -0.44432553133E+02 -0.27596772654E+03  0.30768759137E+03  0.12499632237E+03 0.  0.
    9000005    1    3    3    0    0 -0.71616926925E+02 -0.44299685421E+02 -0.23425351257E+03  0.24893202787E+03  0.10000000000E+01 0.  0.
    9000005    1    3    3    0    0  0.41365721812E+02 -0.13286771291E+00 -0.41714213967E+02  0.58755563496E+02  0.10000000000E+01 0.  0.
         21    1    1    2  502  501  0.30251205113E+02  0.44432553133E+02 -0.67641221635E+02  0.86398622981E+02  0.00000000000E+00 0.  1.
<mgrwt>
<rscale>  1 0.13606420E+03</rscale>
<asrwt>0</asrwt>
<pdfrwt beam="2">  1        4 0.56745778E-01 0.13606420E+03</pdfrwt>
<pdfrwt beam="1">  1       -4 0.38828669E-02 0.13606420E+03</pdfrwt>
<totfact> 0.17625713E+03</totfact>
</mgrwt>
</event>
<event>
 6    4  0.5642870E-004  0.1398822E+03  0.7818608E-02  0.1213488E+00
         -4   -1    0    0    0  501 -0.00000000000E+00  0.00000000000E+00  0.85246956569E+02  0.85256416206E+02  0.12700000000E+01 0. -1.
          4   -1    0    0  502    0  0.00000000000E+00 -0.00000000000E+00 -0.17479182565E+03  0.17479643936E+03  0.12700000000E+01 0. -1.
         25    2    1    2    0    0 -0.64942279023E+01 -0.62445627430E+02  0.12289071364E+02  0.14042099189E+03  0.12500160922E+03 0.  0.
    9000005    1    3    3    0    0 -0.53332862651E+02 -0.45678002700E+02 -0.28786325898E+02  0.75898133889E+02  0.10000000000E+01 0.  0.
    9000005    1    3    3    0    0  0.46838634748E+02 -0.16767624730E+02  0.41075397262E+02  0.64522857999E+02  0.10000000000E+01 0.  0.
         21    1    1    2  502  501  0.64942279023E+01  0.62445627430E+02 -0.10183394044E+03  0.11963186368E+03  0.00000000000E+00 0. -1.
<mgrwt>
<rscale>  1 0.13988221E+03</rscale>
<asrwt>0</asrwt>
<pdfrwt beam="2">  1        4 0.26892133E-01 0.13988221E+03</pdfrwt>
<pdfrwt beam="1">  1       -4 0.13115999E-01 0.13988221E+03</pdfrwt>
<totfact> 0.10346704E+03</totfact>
</mgrwt>
</event>
<event>
 6    4  0.5642870E-004  0.1302514E+03  0.7818608E-02  0.1227083E+00
          4   -1    0    0  502    0  0.00000000000E+00  0.00000000000E+00  0.54409126096E+02  0.54423946040E+02  0.12700000000E+01 0. -1.
         -4   -1    0    0    0  501 -0.00000000000E+00 -0.00000000000E+00 -0.15509218049E+03  0.15509738022E+03  0.12700000000E+01 0. -1.
         25    2    1    2    0    0 -0.15694225112E+01  0.36599726915E+02 -0.11135701346E+03  0.17136459029E+03  0.12499374089E+03 0.  0.
    9000005    1    3    3    0    0 -0.54073424561E+02  0.49824530941E+02 -0.47074764367E+02  0.87312384960E+02  0.10000000000E+01 0.  0.
    9000005    1    3    3    0    0  0.52504002050E+02 -0.13224804025E+02 -0.64282249093E+02  0.84052205332E+02  0.10000000000E+01 0.  0.
         21    1    1    2  502  501  0.15694225112E+01 -0.36599726915E+02  0.10673959064E+02  0.38156735964E+02  0.00000000000E+00 0. -1.
<mgrwt>
<rscale>  1 0.13025144E+03</rscale>
<asrwt>0</asrwt>
<pdfrwt beam="1">  1        4 0.83721748E-02 0.13025144E+03</pdfrwt>
<pdfrwt beam="2">  1       -4 0.23861875E-01 0.13025144E+03</pdfrwt>
<totfact> 0.27152813E+03</totfact>
</mgrwt>
</event>
<event>
 6    4  0.5642870E-004  0.1270628E+03  0.7818608E-02  0.1231880E+00
          4   -1    0    0  502    0  0.00000000000E+00  0.00000000000E+00  0.40655440719E+02  0.40675272096E+02  0.12700000000E+01 0.  1.
         -4   -1    0    0    0  501 -0.00000000000E+00 -0.00000000000E+00 -0.15663545070E+03  0.15664059920E+03  0.12700000000E+01 0.  1.
         25    2    1    2    0    0 -0.14310806044E+02  0.17422906147E+02 -0.11958054536E+03  0.17448342326E+03  0.12504639673E+03 0.  0.
    9000005    1    3    3    0    0  0.16624671975E+02  0.60155051119E+02 -0.27180183747E+02  0.68079161877E+02  0.10000000000E+01 0.  0.
    9000005    1    3    3    0    0 -0.30935478019E+02 -0.42732144972E+02 -0.92400361612E+02  0.10640426138E+03  0.10000000000E+01 0.  0.
         21    1    1    2  502  501  0.14310806044E+02 -0.17422906147E+02  0.36005353749E+01  0.22832448034E+02  0.00000000000E+00 0.  1.
<mgrwt>
<rscale>  1 0.12706281E+03</rscale>
<asrwt>0</asrwt>
<pdfrwt beam="1">  1        4 0.62566048E-02 0.12706281E+03</pdfrwt>
<pdfrwt beam="2">  1       -4 0.24099683E-01 0.12706281E+03</pdfrwt>
<totfact> 0.42776029E+03</totfact>
</mgrwt>
</event>
<event>
 6    4  0.5642870E-004  0.1270284E+03  0.7818608E-02  0.1231933E+00
         -4   -1    0    0    0  501 -0.00000000000E+00  0.00000000000E+00  0.19237321633E+03  0.19237740840E+03  0.12700000000E+01 0.  1.
          4   -1    0    0  502    0  0.00000000000E+00 -0.00000000000E+00 -0.30547739336E+02  0.30574127600E+02  0.12700000000E+01 0.  1.
         25    2    1    2    0    0  0.22000112128E+02 -0.52359262423E+01  0.15253688600E+03  0.19850367761E+03  0.12499915430E+03 0.  0.
    9000005    1    3    3    0    0  0.52553023478E+02  0.33082020686E+02  0.13097307866E+03  0.14495236356E+03  0.10000000000E+01 0.  0.
    9000005    1    3    3    0    0 -0.30552911349E+02 -0.38317946928E+02  0.21563807344E+02  0.53551314045E+02  0.10000000000E+01 0.  0.
         21    1    1    2  502  501 -0.22000112128E+02  0.52359262423E+01  0.92885909961E+01  0.24447858392E+02  0.00000000000E+00 0.  1.
<mgrwt>
<rscale>  1 0.12702838E+03</rscale>
<asrwt>0</asrwt>
<pdfrwt beam="2">  1        4 0.47020044E-02 0.12702838E+03</pdfrwt>
<pdfrwt beam="1">  1       -4 0.29598232E-01 0.12702838E+03</pdfrwt>
<totfact> 0.46276476E+03</totfact>
</mgrwt>
</event>
<event>
 6    4  0.5642870E-004  0.1938076E+03  0.7818608E-02  0.1155071E+00
          4   -1    0    0  502    0  0.00000000000E+00  0.00000000000E+00  0.94491095642E+03  0.94491180989E+03  0.12700000000E+01 0.  1.
         -4   -1    0    0    0  501 -0.00000000000E+00 -0.00000000000E+00 -0.51829455517E+02  0.51845012867E+02  0.12700000000E+01 0.  1.
         25    2    1    2    0    0  0.12287933209E+03  0.82692867254E+02  0.16733738515E+03  0.25605312890E+03  0.12499585512E+03 0.  0.
    9000005    1    3    3    0    0  0.79206234608E+02  0.62466447163E+02  0.17994187803E+03  0.20629048473E+03  0.10000000000E+01 0.  0.
    9000005    1    3    3    0    0  0.43673097483E+02  0.20226420092E+02 -0.12604492877E+02  0.49762644163E+02  0.10000000000E+01 0.  0.
         21    1    1    2  502  501 -0.12287933209E+03 -0.82692867254E+02  0.72574411575E+03  0.74070369386E+03  0.00000000000E+00 0.  1.
<mgrwt>
<rscale>  1 0.19380765E+03</rscale>
<asrwt>0</asrwt>
<pdfrwt beam="1">  1        4 0.14537218E+00 0.19380765E+03</pdfrwt>
<pdfrwt beam="2">  1       -4 0.79750248E-02 0.19380765E+03</pdfrwt>
<totfact> 0.67650451E+01</totfact>
</mgrwt>
</event>
<event>
 6    4  0.5642870E-004  0.1279493E+03  0.7818608E-02  0.1230531E+00
          4   -1    0    0  502    0  0.00000000000E+00  0.00000000000E+00  0.43198709593E+03  0.43198896277E+03  0.12700000000E+01 0.  1.
         -4   -1    0    0    0  501 -0.00000000000E+00 -0.00000000000E+00 -0.61160710146E+02  0.61173894478E+02  0.12700000000E+01 0.  1.
         25    2    1    2    0    0  0.27295030452E+02  0.14077002682E+01  0.68190574572E+01  0.12813089236E+03  0.12499610284E+03 0.  0.
    9000005    1    3    3    0    0  0.61073542288E+02  0.41264671187E+02  0.15041960713E+02  0.75233046182E+02  0.10000000000E+01 0.  0.
    9000005    1    3    3    0    0 -0.33778511836E+02 -0.39856970919E+02 -0.82229032559E+01  0.52897846181E+02  0.10000000000E+01 0.  0.
         21    1    1    2  502  501 -0.27295030452E+02 -0.14077002682E+01  0.36400732833E+03  0.36503196488E+03  0.00000000000E+00 0.  1.
<mgrwt>
<rscale>  1 0.12794931E+03</rscale>
<asrwt>0</asrwt>
<pdfrwt beam="1">  1        4 0.66460712E-01 0.12794931E+03</pdfrwt>
<pdfrwt beam="2">  1       -4 0.94104977E-02 0.12794931E+03</pdfrwt>
<totfact> 0.29552810E+02</totfact>
</mgrwt>
</event>
<event>
 6    4  0.5642870E-004  0.1276409E+03  0.7818608E-02  0.1230999E+00
          4   -1    0    0  502    0  0.00000000000E+00  0.00000000000E+00  0.36902338303E+03  0.36902556838E+03  0.12700000000E+01 0. -1.
         -4   -1    0    0    0  501 -0.00000000000E+00 -0.00000000000E+00 -0.18896252824E+02  0.18938882512E+02  0.12700000000E+01 0. -1.
         25    2    1    2    0    0 -0.12021710072E+02 -0.22863733081E+02  0.21213362381E+03  0.24757399676E+03  0.12499975088E+03 0.  0.
    9000005    1    3    3    0    0  0.24818494777E+02 -0.64842462272E+02  0.14061765724E+03  0.15682738320E+03  0.10000000000E+01 0.  0.
    9000005    1    3    3    0    0 -0.36840204849E+02  0.41978729192E+02  0.71515966572E+02  0.90746613560E+02  0.10000000000E+01 0.  0.
         21    1    1    2  502  501  0.12021710072E+02  0.22863733081E+02  0.13799350639E+03  0.14039045413E+03  0.00000000000E+00 0. -1.
<mgrwt>
<rscale>  1 0.12764094E+03</rscale>
<asrwt>0</asrwt>
<pdfrwt beam="1">  1        4 0.56776272E-01 0.12764094E+03</pdfrwt>
<pdfrwt beam="2">  1       -4 0.29105633E-02 0.12764094E+03</pdfrwt>
<totfact> 0.27309956E+03</totfact>
</mgrwt>
</event>
<event>
 6    4  0.5642870E-004  0.1276474E+03  0.7818608E-02  0.1230989E+00
          4   -1    0    0  502    0  0.00000000000E+00  0.00000000000E+00  0.54892689441E+03  0.54892836354E+03  0.12700000000E+01 0.  1.
         -4   -1    0    0    0  501 -0.00000000000E+00 -0.00000000000E+00 -0.11765956165E+02  0.11834298647E+02  0.12700000000E+01 0.  1.
         25    2    1    2    0    0 -0.21419931879E+02 -0.14502076827E+02  0.36516554913E+03  0.38683297068E+03  0.12499898087E+03 0.  0.
    9000005    1    3    3    0    0 -0.45956184764E+02 -0.55199931098E+02  0.28236644678E+03  0.29136028140E+03  0.10000000000E+01 0.  0.
    9000005    1    3    3    0    0  0.24536252885E+02  0.40697854271E+02  0.82799102351E+02  0.95472689278E+02  0.10000000000E+01 0.  0.
         21    1    1    2  502  501  0.21419931879E+02  0.14502076827E+02  0.17199538911E+03  0.17392969152E+03  0.00000000000E+00 0.  1.
<mgrwt>
<rscale>  1 0.12764744E+03</rscale>
<asrwt>0</asrwt>
<pdfrwt beam="1">  1        4 0.84455674E-01 0.12764744E+03</pdfrwt>
<pdfrwt beam="2">  1       -4 0.18155170E-02 0.12764744E+03</pdfrwt>
<totfact> 0.24120099E+03</totfact>
</mgrwt>
</event>
<event>
 6    4  0.5642870E-004  0.1315215E+03  0.7818608E-02  0.1225215E+00
          4   -1    0    0  502    0  0.00000000000E+00  0.00000000000E+00  0.15196531726E+04  0.15196537033E+04  0.12700000000E+01 0.  1.
         -4   -1    0    0    0  501 -0.00000000000E+00 -0.00000000000E+00 -0.48079516336E+01  0.49728562126E+01  0.12700000000E+01 0.  1.
         25    2    1    2    0    0  0.19984990462E+02  0.35687202420E+02  0.11537030892E+04  0.11611755784E+04  0.12499971910E+03 0.  0.
    9000005    1    3    3    0    0 -0.94969151395E+01  0.20839079092E+02  0.10818892409E+04  0.10821320567E+04  0.10000000000E+01 0.  0.
    9000005    1    3    3    0    0  0.29481905601E+02  0.14848123328E+02  0.71813848288E+02  0.79043521747E+02  0.10000000000E+01 0.  0.
         21    1    1    2  502  501 -0.19984990462E+02 -0.35687202420E+02  0.36114213181E+03  0.36345098105E+03  0.00000000000E+00 0.  1.
<mgrwt>
<rscale>  1 0.13152150E+03</rscale>
<asrwt>0</asrwt>
<pdfrwt beam="1">  1        4 0.23380554E+00 0.13152150E+03</pdfrwt>
<pdfrwt beam="2">  1       -4 0.75241060E-03 0.13152150E+03</pdfrwt>
<totfact> 0.68160761E+02</totfact>
</mgrwt>
</event>
<event>
 6    4  0.5642870E-004  0.1268295E+03  0.7818608E-02  0.1232237E+00
         -4   -1    0    0    0  501 -0.00000000000E+00  0.00000000000E+00  0.21316267641E+03  0.21316645963E+03  0.12700000000E+01 0. -1.
          4   -1    0    0  502    0  0.00000000000E+00 -0.00000000000E+00 -0.26024297001E+02  0.26055266922E+02  0.12700000000E+01 0. -1.
         25    2    1    2    0    0 -0.19500772601E+02 -0.89701592430E+01  0.16773027573E+03  0.21028354456E+03  0.12499991931E+03 0.  0.
    9000005    1    3    3    0    0  0.48895763288E+02  0.58319126304E+01  0.35630612962E+02  0.60789369568E+02  0.10000000000E+01 0.  0.
    9000005    1    3    3    0    0 -0.68396535888E+02 -0.14802071873E+02  0.13209966277E+03  0.14949417500E+03  0.10000000000E+01 0.  0.
         21    1    1    2  502  501  0.19500772601E+02  0.89701592430E+01  0.19408103670E+02  0.28938181991E+02  0.00000000000E+00 0. -1.
<mgrwt>
<rscale>  1 0.12682951E+03</rscale>
<asrwt>0</asrwt>
<pdfrwt beam="2">  1        4 0.40064113E-02 0.12682951E+03</pdfrwt>
<pdfrwt beam="1">  1       -4 0.32796931E-01 0.12682951E+03</pdfrwt>
<totfact> 0.49137145E+03</totfact>
</mgrwt>
</event>
<event>
 6    4  0.5642870E-004  0.1270646E+03  0.7818608E-02  0.1231877E+00
          4   -1    0    0  502    0  0.00000000000E+00  0.00000000000E+00  0.10658164928E+03  0.10658921552E+03  0.12700000000E+01 0. -1.
         -4   -1    0    0    0  501 -0.00000000000E+00 -0.00000000000E+00 -0.54244506370E+02  0.54259371277E+02  0.12700000000E+01 0. -1.
         25    2    1    2    0    0 -0.14065433489E+02  0.17974088265E+02  0.33901040076E+02  0.13150929307E+03  0.12499803750E+03 0.  0.
    9000005    1    3    3    0    0  0.47801147329E+01  0.70715704912E+02  0.22249211980E+02  0.74293928768E+02  0.10000000000E+01 0.  0.
    9000005    1    3    3    0    0 -0.18845548222E+02 -0.52741616647E+02  0.11651828096E+02  0.57215364303E+02  0.10000000000E+01 0.  0.
         21    1    1    2  502  501  0.14065433489E+02 -0.17974088265E+02  0.18436102838E+02  0.29339293721E+02  0.00000000000E+00 0. -1.
<mgrwt>
<rscale>  1 0.12706460E+03</rscale>
<asrwt>0</asrwt>
<pdfrwt beam="1">  1        4 0.16398902E-01 0.12706460E+03</pdfrwt>
<pdfrwt beam="2">  1       -4 0.83470343E-02 0.12706460E+03</pdfrwt>
<totfact> 0.53182570E+03</totfact>
</mgrwt>
</event>
<event>
 6    4  0.5642870E-004  0.1282530E+03  0.7818608E-02  0.1230071E+00
          4   -1    0    0  502    0  0.00000000000E+00  0.00000000000E+00  0.84484127580E+01  0.85433353047E+01  0.12700000000E+01 0. -1.
         -4   -1    0    0    0  501 -0.00000000000E+00 -0.00000000000E+00 -0.93270567802E+03  0.93270654266E+03  0.12700000000E+01 0. -1.
         25    2    1    2    0    0 -0.17592216211E+02 -0.22685485424E+02 -0.87409484152E+03  0.88345380477E+03  0.12499886350E+03 0.  0.
    9000005    1    3    3    0    0 -0.50311155566E+02 -0.33942486258E+02 -0.79248466296E+03  0.79480579123E+03  0.10000000000E+01 0.  0.
    9000005    1    3    3    0    0  0.32718939355E+02  0.11257000833E+02 -0.81610178553E+02  0.88648013535E+02  0.10000000000E+01 0.  0.
         21    1    1    2  502  501  0.17592216211E+02  0.22685485424E+02 -0.50162423747E+02  0.57796073191E+02  0.00000000000E+00 0. -1.
<mgrwt>
<rscale>  1 0.12825300E+03</rscale>
<asrwt>0</asrwt>
<pdfrwt beam="1">  1        4 0.13071248E-02 0.12825300E+03</pdfrwt>
<pdfrwt beam="2">  1       -4 0.14350047E+00 0.12825300E+03</pdfrwt>
<totfact> 0.11408881E+03</totfact>
</mgrwt>
</event>
<event>
 6    4  0.5642870E-004  0.1283421E+03  0.7818608E-02  0.1229937E+00
          4   -1    0    0  502    0  0.00000000000E+00  0.00000000000E+00  0.39209700635E+03  0.39209906311E+03  0.12700000000E+01 0. -1.
         -4   -1    0    0    0  501 -0.00000000000E+00 -0.00000000000E+00 -0.15791369289E+02  0.15842356012E+02  0.12700000000E+01 0. -1.
         25    2    1    2    0    0 -0.26810480885E+02 -0.11331616098E+02  0.30213533879E+03  0.32826431730E+03  0.12499796661E+03 0.  0.
    9000005    1    3    3    0    0 -0.11422165785E+02  0.53456654831E+02  0.19130061092E+03  0.19895980386E+03  0.10000000000E+01 0.  0.
    9000005    1    3    3    0    0 -0.15388315100E+02 -0.64788270929E+02  0.11083472787E+03  0.12930451343E+03  0.10000000000E+01 0.  0.
         21    1    1    2  502  501  0.26810480885E+02  0.11331616098E+02  0.74170298276E+02  0.79677101824E+02  0.00000000000E+00 0.  1.
<mgrwt>
<rscale>  1 0.12834212E+03</rscale>
<asrwt>0</asrwt>
<pdfrwt beam="1">  1        4 0.60326690E-01 0.12834212E+03</pdfrwt>
<pdfrwt beam="2">  1       -4 0.24335219E-02 0.12834212E+03</pdfrwt>
<totfact> 0.31832376E+03</totfact>
</mgrwt>
</event>
<event>
 6    4  0.5642870E-004  0.1287244E+03  0.7818608E-02  0.1229361E+00
          4   -1    0    0  502    0  0.00000000000E+00  0.00000000000E+00  0.22448601587E+02  0.22484497175E+02  0.12700000000E+01 0. -1.
         -4   -1    0    0    0  501 -0.00000000000E+00 -0.00000000000E+00 -0.30991755337E+03  0.30992015550E+03  0.12700000000E+01 0. -1.
         25    2    1    2    0    0 -0.27191371769E+02  0.14391691342E+02 -0.26399730982E+03  0.29370827746E+03  0.12499392457E+03 0.  0.
    9000005    1    3    3    0    0  0.84990032393E+01 -0.48905084460E+02 -0.64558451493E+02  0.81441598715E+02  0.10000000000E+01 0.  0.
    9000005    1    3    3    0    0 -0.35690375008E+02  0.63296775802E+02 -0.19943885833E+03  0.21226667875E+03  0.10000000000E+01 0.  0.
         21    1    1    2  502  501  0.27191371769E+02 -0.14391691342E+02 -0.23471641962E+02  0.38696375215E+02  0.00000000000E+00 0.  1.
<mgrwt>
<rscale>  1 0.12872441E+03</rscale>
<asrwt>0</asrwt>
<pdfrwt beam="1">  1        4 0.34565926E-02 0.12872441E+03</pdfrwt>
<pdfrwt beam="2">  1       -4 0.47682582E-01 0.12872441E+03</pdfrwt>
<totfact> 0.29875316E+03</totfact>
</mgrwt>
</event>
<event>
 6    4  0.5642870E-004  0.1285067E+03  0.7818608E-02  0.1229689E+00
          4   -1    0    0  502    0  0.00000000000E+00  0.00000000000E+00  0.87276544131E+01  0.88195720732E+01  0.12700000000E+01 0. -1.
         -4   -1    0    0    0  501 -0.00000000000E+00 -0.00000000000E+00 -0.73971689125E+03  0.73971798146E+03  0.12700000000E+01 0. -1.
         25    2    1    2    0    0  0.33515872040E+01 -0.29626842139E+02 -0.64045076932E+03  0.65321600816E+03  0.12499992995E+03 0.  0.
    9000005    1    3    3    0    0  0.13076868085E+02 -0.43945914395E+02 -0.63246752533E+03  0.63412807734E+03  0.10000000000E+01 0.  0.
    9000005    1    3    3    0    0 -0.97252808813E+01  0.14319072257E+02 -0.79832439846E+01  0.19087930821E+02  0.10000000000E+01 0.  0.
         21    1    1    2  502  501 -0.33515872040E+01  0.29626842139E+02 -0.90538467515E+02  0.95321545371E+02  0.00000000000E+00 0. -1.
<mgrwt>
<rscale>  1 0.12850667E+03</rscale>
<asrwt>0</asrwt>
<pdfrwt beam="1">  1        4 0.13498711E-02 0.12850667E+03</pdfrwt>
<pdfrwt beam="2">  1       -4 0.11380970E+00 0.12850667E+03</pdfrwt>
<totfact> 0.19122409E+03</totfact>
</mgrwt>
</event>
<event>
 6    4  0.5642870E-004  0.1326103E+03  0.7818608E-02  0.1223633E+00
         -4   -1    0    0    0  501 -0.00000000000E+00  0.00000000000E+00  0.36256109055E+03  0.36256331486E+03  0.12700000000E+01 0.  1.
          4   -1    0    0  502    0  0.00000000000E+00 -0.00000000000E+00 -0.21966528445E+02  0.22003210492E+02  0.12700000000E+01 0.  1.
         25    2    1    2    0    0 -0.98286756241E+01  0.43170808166E+02  0.27663394830E+03  0.30677654103E+03  0.12500073292E+03 0.  0.
    9000005    1    3    3    0    0 -0.39167897117E+02  0.93424562472E+01  0.17698723007E+02  0.43996027655E+02  0.10000000000E+01 0.  0.
    9000005    1    3    3    0    0  0.29339221493E+02  0.33828351919E+02  0.25893522530E+03  0.26278051338E+03  0.10000000000E+01 0.  0.
         21    1    1    2  502  501  0.98286756241E+01 -0.43170808166E+02  0.63960613799E+02  0.77789984315E+02  0.00000000000E+00 0. -1.
<mgrwt>
<rscale>  1 0.13261035E+03</rscale>
<asrwt>0</asrwt>
<pdfrwt beam="2">  1        4 0.33824589E-02 0.13261035E+03</pdfrwt>
<pdfrwt beam="1">  1       -4 0.55781619E-01 0.13261035E+03</pdfrwt>
<totfact> 0.22584899E+03</totfact>
</mgrwt>
</event>
<event>
 6    4  0.5642870E-004  0.1313412E+03  0.7818608E-02  0.1225479E+00
          4   -1    0    0  502    0  0.00000000000E+00  0.00000000000E+00  0.17186429923E+04  0.17186434615E+04  0.12700000000E+01 0.  1.
         -4   -1    0    0    0  501 -0.00000000000E+00 -0.00000000000E+00 -0.45679309867E+01  0.47411911477E+01  0.12700000000E+01 0.  1.
         25    2    1    2    0    0  0.95256415682E+01  0.39168665586E+02  0.10666487370E+04  0.10747046332E+04  0.12500239340E+03 0.  0.
    9000005    1    3    3    0    0 -0.15702056154E+02 -0.95002939347E+01  0.22214029218E+02  0.28831809627E+02  0.10000000000E+01 0.  0.
    9000005    1    3    3    0    0  0.25227697722E+02  0.48668959521E+02  0.10444347078E+04  0.10458728236E+04  0.10000000000E+01 0.  0.
         21    1    1    2  502  501 -0.95256415682E+01 -0.39168665586E+02  0.64742632431E+03  0.64868001944E+03  0.00000000000E+00 0. -1.
<mgrwt>
<rscale>  1 0.13134124E+03</rscale>
<asrwt>0</asrwt>
<pdfrwt beam="1">  1        4 0.26441996E+00 0.13134124E+03</pdfrwt>
<pdfrwt beam="2">  1       -4 0.71612247E-03 0.13134124E+03</pdfrwt>
<totfact> 0.48829516E+02</totfact>
</mgrwt>
</event>
<event>
 6    4  0.5642870E-004  0.1311340E+03  0.7818608E-02  0.1225783E+00
          4   -1    0    0  502    0  0.00000000000E+00  0.00000000000E+00  0.18405844503E+03  0.18406282646E+03  0.12700000000E+01 0.  1.
         -4   -1    0    0    0  501 -0.00000000000E+00 -0.00000000000E+00 -0.42341054364E+02  0.42360096609E+02  0.12700000000E+01 0.  1.
         25    2    1    2    0    0  0.11003791773E+02 -0.38080380525E+02  0.81716704757E+02  0.15451130285E+03  0.12499969623E+03 0.  0.
    9000005    1    3    3    0    0  0.30026721296E+02  0.16197317838E+02  0.90129721331E+02  0.96375950133E+02  0.10000000000E+01 0.  0.
    9000005    1    3    3    0    0 -0.19022929523E+02 -0.54277698363E+02 -0.84130165739E+01  0.58135352713E+02  0.10000000000E+01 0.  0.
         21    1    1    2  502  501 -0.11003791773E+02  0.38080380525E+02  0.60000685904E+02  0.71911620224E+02  0.00000000000E+00 0. -1.
<mgrwt>
<rscale>  1 0.13113399E+03</rscale>
<asrwt>0</asrwt>
<pdfrwt beam="1">  1        4 0.28318486E-01 0.13113399E+03</pdfrwt>
<pdfrwt beam="2">  1       -4 0.65158101E-02 0.13113399E+03</pdfrwt>
<totfact> 0.29915325E+03</totfact>
</mgrwt>
</event>
<event>
 6    4  0.5642870E-004  0.1537886E+03  0.7818608E-02  0.1195893E+00
          4   -1    0    0  502    0  0.00000000000E+00  0.00000000000E+00  0.74504420793E+03  0.74504529035E+03  0.12700000000E+01 0. -1.
         -4   -1    0    0    0  501 -0.00000000000E+00 -0.00000000000E+00 -0.20766191493E+02  0.20804990006E+02  0.12700000000E+01 0. -1.
         25    2    1    2    0    0  0.88813579413E+02  0.11731376597E+02  0.53096775601E+03  0.55279081947E+03  0.12500182033E+03 0.  0.
    9000005    1    3    3    0    0  0.96450990387E+02  0.82091409256E+01  0.53480263890E+03  0.54349337265E+03  0.10000000000E+01 0.  0.
    9000005    1    3    3    0    0 -0.76374109745E+01  0.35222356710E+01 -0.38348828936E+01  0.92974468175E+01  0.10000000000E+01 0.  0.
         21    1    1    2  502  501 -0.88813579413E+02 -0.11731376597E+02  0.19331026043E+03  0.21305946088E+03  0.00000000000E+00 0. -1.
<mgrwt>
<rscale>  1 0.15378860E+03</rscale>
<asrwt>0</asrwt>
<pdfrwt beam="1">  1        4 0.11462523E+00 0.15378860E+03</pdfrwt>
<pdfrwt beam="2">  1       -4 0.31978672E-02 0.15378860E+03</pdfrwt>
<totfact> 0.51454958E+02</totfact>
</mgrwt>
</event>
<event>
 6    4  0.5642870E-004  0.1284271E+03  0.7818608E-02  0.1229809E+00
         -4   -1    0    0    0  501 -0.00000000000E+00  0.00000000000E+00  0.23275494920E+02  0.23310117198E+02  0.12700000000E+01 0.  1.
          4   -1    0    0  502    0  0.00000000000E+00 -0.00000000000E+00 -0.26793795784E+03  0.26794096766E+03  0.12700000000E+01 0.  1.
         25    2    1    2    0    0 -0.20622044327E+02 -0.21022822551E+02 -0.20358899848E+03  0.24071142458E+03  0.12500512726E+03 0.  0.
    9000005    1    3    3    0    0 -0.54805647997E+02 -0.33975148835E+02 -0.19170243260E+03  0.20225922094E+03  0.10000000000E+01 0.  0.
    9000005    1    3    3    0    0  0.34183603670E+02  0.12952326284E+02 -0.11886565876E+02  0.38452203635E+02  0.10000000000E+01 0.  0.
         21    1    1    2  502  501  0.20622044327E+02  0.21022822551E+02 -0.41073464443E+02  0.50539660283E+02  0.00000000000E+00 0. -1.
<mgrwt>
<rscale>  1 0.12842706E+03</rscale>
<asrwt>0</asrwt>
<pdfrwt beam="2">  1        4 0.41224117E-01 0.12842706E+03</pdfrwt>
<pdfrwt beam="1">  1       -4 0.35837403E-02 0.12842706E+03</pdfrwt>
<totfact> 0.37717023E+03</totfact>
</mgrwt>
</event>
<event>
 6    4  0.5642870E-004  0.1274384E+03  0.7818608E-02  0.1231307E+00
          4   -1    0    0  502    0  0.00000000000E+00  0.00000000000E+00  0.42965788468E+02  0.42984553955E+02  0.12700000000E+01 0. -1.
         -4   -1    0    0    0  501 -0.00000000000E+00 -0.00000000000E+00 -0.14028124737E+03  0.14028699606E+03  0.12700000000E+01 0. -1.
         25    2    1    2    0    0  0.24706685343E+02 -0.22220082875E+01 -0.93756149265E+02  0.15821109697E+03  0.12500071223E+03 0.  0.
    9000005    1    3    3    0    0  0.13033103155E+02  0.47115280796E+02 -0.95697059075E+02  0.10746459221E+03  0.10000000000E+01 0.  0.
    9000005    1    3    3    0    0  0.11673582187E+02 -0.49337289083E+02  0.19409098097E+01  0.50746504767E+02  0.10000000000E+01 0.  0.
         21    1    1    2  502  501 -0.24706685343E+02  0.22220082875E+01 -0.35593096328E+01  0.25060453039E+02  0.00000000000E+00 0. -1.
<mgrwt>
<rscale>  1 0.12743836E+03</rscale>
<asrwt>0</asrwt>
<pdfrwt beam="1">  1        4 0.66120071E-02 0.12743836E+03</pdfrwt>
<pdfrwt beam="2">  1       -4 0.21583616E-01 0.12743836E+03</pdfrwt>
<totfact> 0.47833165E+03</totfact>
</mgrwt>
</event>
<event>
 6    4  0.5642870E-004  0.1284985E+03  0.7818608E-02  0.1229701E+00
          4   -1    0    0  502    0  0.00000000000E+00  0.00000000000E+00  0.33748088729E+02  0.33771976443E+02  0.12700000000E+01 0. -1.
         -4   -1    0    0    0  501 -0.00000000000E+00 -0.00000000000E+00 -0.23469155905E+03  0.23469499524E+03  0.12700000000E+01 0. -1.
         25    2    1    2    0    0  0.12999235149E+02  0.26766392360E+02 -0.20117316696E+03  0.23871007945E+03  0.12500575608E+03 0.  0.
    9000005    1    3    3    0    0  0.33632406059E+02  0.50665194153E+02 -0.19780210145E+03  0.20694146992E+03  0.10000000000E+01 0.  0.
    9000005    1    3    3    0    0 -0.20633170910E+02 -0.23898801793E+02 -0.33710655153E+01  0.31768609533E+02  0.10000000000E+01 0.  0.
         21    1    1    2  502  501 -0.12999235149E+02 -0.26766392360E+02  0.22969664095E+00  0.29756892226E+02  0.00000000000E+00 0. -1.
<mgrwt>
<rscale>  1 0.12849848E+03</rscale>
<asrwt>0</asrwt>
<pdfrwt beam="1">  1        4 0.51941156E-02 0.12849848E+03</pdfrwt>
<pdfrwt beam="2">  1       -4 0.36108495E-01 0.12849848E+03</pdfrwt>
<totfact> 0.27060335E+03</totfact>
</mgrwt>
</event>
<event>
 6    4  0.5642870E-004  0.1540484E+03  0.7818608E-02  0.1195585E+00
          4   -1    0    0  502    0  0.00000000000E+00  0.00000000000E+00  0.25916906402E+03  0.25917217568E+03  0.12700000000E+01 0. -1.
         -4   -1    0    0    0  501 -0.00000000000E+00 -0.00000000000E+00 -0.10683125110E+03  0.10683879965E+03  0.12700000000E+01 0. -1.
         25    2    1    2    0    0  0.89911681768E+02  0.46017932375E+01 -0.35167935001E+02  0.15801171445E+03  0.12500252491E+03 0.  0.
    9000005    1    3    3    0    0  0.95847354026E+02 -0.40828856937E+02 -0.40695582253E+02  0.11185187190E+03  0.10000000000E+01 0.  0.
    9000005    1    3    3    0    0 -0.59356722580E+01  0.45430650174E+02  0.55276472526E+01  0.46159842553E+02  0.10000000000E+01 0.  0.
         21    1    1    2  502  501 -0.89911681768E+02 -0.46017932375E+01  0.18750574792E+03  0.20799926087E+03  0.00000000000E+00 0. -1.
<mgrwt>
<rscale>  1 0.15404843E+03</rscale>
<asrwt>0</asrwt>
<pdfrwt beam="1">  1        4 0.39872984E-01 0.15404843E+03</pdfrwt>
<pdfrwt beam="2">  1       -4 0.16436397E-01 0.15404843E+03</pdfrwt>
<totfact> 0.33419651E+02</totfact>
</mgrwt>
</event>
<event>
 6    4  0.5642870E-004  0.1266869E+03  0.7818608E-02  0.1232456E+00
         -4   -1    0    0    0  501 -0.00000000000E+00  0.00000000000E+00  0.10531138802E+04  0.10531146460E+04  0.12700000000E+01 0. -1.
          4   -1    0    0  502    0  0.00000000000E+00 -0.00000000000E+00 -0.57698113426E+01  0.59079288189E+01  0.12700000000E+01 0. -1.
         25    2    1    2    0    0 -0.16767687448E+02  0.11944503475E+02  0.99043175732E+03  0.99850119254E+03  0.12500295634E+03 0.  0.
    9000005    1    3    3    0    0 -0.49913476313E+02 -0.10239556956E+02  0.17965704428E+03  0.18674543423E+03  0.10000000000E+01 0.  0.
    9000005    1    3    3    0    0  0.33145788865E+02  0.22184060432E+02  0.81077471304E+03  0.81175575831E+03  0.10000000000E+01 0.  0.
         21    1    1    2  502  501  0.16767687448E+02 -0.11944503475E+02  0.56912311582E+02  0.60521382298E+02  0.00000000000E+00 0.  1.
<mgrwt>
<rscale>  1 0.12668688E+03</rscale>
<asrwt>0</asrwt>
<pdfrwt beam="2">  1        4 0.89834827E-03 0.12668688E+03</pdfrwt>
<pdfrwt beam="1">  1       -4 0.16202790E+00 0.12668688E+03</pdfrwt>
<totfact> 0.14680861E+03</totfact>
</mgrwt>
</event>
<event>
 6    4  0.5642870E-004  0.1267550E+03  0.7818608E-02  0.1232352E+00
          4   -1    0    0  502    0  0.00000000000E+00  0.00000000000E+00  0.68100440401E+02  0.68112281439E+02  0.12700000000E+01 0.  1.
         -4   -1    0    0    0  501 -0.00000000000E+00 -0.00000000000E+00 -0.10423134417E+03  0.10423908100E+03  0.12700000000E+01 0.  1.
         25    2    1    2    0    0 -0.10218826833E+02  0.18371123794E+02 -0.60259430890E+02  0.14034966823E+03  0.12499963100E+03 0.  0.
    9000005    1    3    3    0    0 -0.19938149110E+02 -0.47892612575E+02 -0.50960738519E+02  0.72727085735E+02  0.10000000000E+01 0.  0.
    9000005    1    3    3    0    0  0.97193222773E+01  0.66263736368E+02 -0.92986923715E+01  0.67622582492E+02  0.10000000000E+01 0.  0.
         21    1    1    2  502  501  0.10218826833E+02 -0.18371123794E+02  0.24128527122E+02  0.32001694210E+02  0.00000000000E+00 0.  1.
<mgrwt>
<rscale>  1 0.12675500E+03</rscale>
<asrwt>0</asrwt>
<pdfrwt beam="1">  1        4 0.10478497E-01 0.12675500E+03</pdfrwt>
<pdfrwt beam="2">  1       -4 0.16037097E-01 0.12675500E+03</pdfrwt>
<totfact> 0.37775197E+03</totfact>
</mgrwt>
</event>
<event>
 6    4  0.5642870E-004  0.1405010E+03  0.7818608E-02  0.1212656E+00
          4   -1    0    0  502    0  0.00000000000E+00  0.00000000000E+00  0.58069086176E+03  0.58069225053E+03  0.12700000000E+01 0.  1.
         -4   -1    0    0    0  501 -0.00000000000E+00 -0.00000000000E+00 -0.18921572141E+02  0.18964144913E+02  0.12700000000E+01 0.  1.
         25    2    1    2    0    0  0.37899020878E+02 -0.51761621138E+02  0.31932883175E+03  0.34887167339E+03  0.12499976200E+03 0.  0.
    9000005    1    3    3    0    0 -0.21473029469E+02  0.15832712429E+02  0.13175992032E+02  0.29772009396E+02  0.10000000000E+01 0.  0.
    9000005    1    3    3    0    0  0.59372050348E+02 -0.67594333567E+02  0.30615283972E+03  0.31909966400E+03  0.10000000000E+01 0.  0.
         21    1    1    2  502  501 -0.37899020878E+02  0.51761621138E+02  0.24244045786E+03  0.25078472205E+03  0.00000000000E+00 0. -1.
<mgrwt>
<rscale>  1 0.14050104E+03</rscale>
<asrwt>0</asrwt>
<pdfrwt beam="1">  1        4 0.89340429E-01 0.14050104E+03</pdfrwt>
<pdfrwt beam="2">  1       -4 0.29143930E-02 0.14050104E+03</pdfrwt>
<totfact> 0.10432262E+03</totfact>
</mgrwt>
</event>
<event>
 6    4  0.5642870E-004  0.1282652E+03  0.7818608E-02  0.1230053E+00
         -4   -1    0    0    0  501 -0.00000000000E+00  0.00000000000E+00  0.15876807403E+02  0.15927520627E+02  0.12700000000E+01 0. -1.
          4   -1    0    0  502    0  0.00000000000E+00 -0.00000000000E+00 -0.38763277513E+03  0.38763485557E+03  0.12700000000E+01 0. -1.
         25    2    1    2    0    0 -0.77564103453E+01 -0.27682639896E+02 -0.30108367837E+03  0.32726648551E+03  0.12500192280E+03 0.  0.
    9000005    1    3    3    0    0 -0.39410327112E+02 -0.66967444260E+02 -0.17635027330E+03  0.19271282098E+03  0.10000000000E+01 0.  0.
    9000005    1    3    3    0    0  0.31653916767E+02  0.39284804364E+02 -0.12473340506E+03  0.13455366453E+03  0.10000000000E+01 0.  0.
         21    1    1    2  502  501  0.77564103453E+01  0.27682639896E+02 -0.70672289356E+02  0.76295890688E+02  0.00000000000E+00 0. -1.
<mgrwt>
<rscale>  1 0.12826524E+03</rscale>
<asrwt>0</asrwt>
<pdfrwt beam="2">  1        4 0.59639865E-01 0.12826524E+03</pdfrwt>
<pdfrwt beam="1">  1       -4 0.24466471E-02 0.12826524E+03</pdfrwt>
<totfact> 0.32330514E+03</totfact>
</mgrwt>
</event>
<event>
 6    4  0.5642870E-004  0.1266532E+03  0.7818608E-02  0.1232508E+00
         -4   -1    0    0    0  501 -0.00000000000E+00  0.00000000000E+00  0.97549213524E+02  0.97557480283E+02  0.12700000000E+01 0.  1.
          4   -1    0    0  502    0  0.00000000000E+00 -0.00000000000E+00 -0.60568787766E+02  0.60582100917E+02  0.12700000000E+01 0.  1.
         25    2    1    2    0    0 -0.12580172238E+02  0.16043576653E+02  0.47413940900E+02  0.13523728167E+03  0.12500153390E+03 0.  0.
    9000005    1    3    3    0    0  0.37871865030E+02  0.63191572129E+01 -0.25449070793E+02  0.46074560366E+02  0.10000000000E+01 0.  0.
    9000005    1    3    3    0    0 -0.50452037268E+02  0.97244194400E+01  0.72863011693E+02  0.89162721307E+02  0.10000000000E+01 0.  0.
         21    1    1    2  502  501  0.12580172238E+02 -0.16043576653E+02 -0.10433515143E+02  0.22902299526E+02  0.00000000000E+00 0.  1.
<mgrwt>
<rscale>  1 0.12665323E+03</rscale>
<asrwt>0</asrwt>
<pdfrwt beam="2">  1        4 0.93199350E-02 0.12665323E+03</pdfrwt>
<pdfrwt beam="1">  1       -4 0.15009231E-01 0.12665323E+03</pdfrwt>
<totfact> 0.51638911E+03</totfact>
</mgrwt>
</event>
<event>
 6    4  0.5642870E-004  0.1277659E+03  0.7818608E-02  0.1230809E+00
          4   -1    0    0  502    0  0.00000000000E+00  0.00000000000E+00  0.15932017939E+02  0.15982555978E+02  0.12700000000E+01 0.  1.
         -4   -1    0    0    0  501 -0.00000000000E+00 -0.00000000000E+00 -0.44042147978E+03  0.44042331086E+03  0.12700000000E+01 0.  1.
         25    2    1    2    0    0 -0.30560067668E+00  0.26431989123E+02 -0.40161695411E+03  0.42145025140E+03  0.12500157253E+03 0.  0.
    9000005    1    3    3    0    0  0.32882348511E+02 -0.35380777869E+02 -0.91244051200E+02  0.10324497647E+03  0.10000000000E+01 0.  0.
    9000005    1    3    3    0    0 -0.33187949188E+02  0.61812766993E+02 -0.31037290291E+03  0.31820527494E+03  0.10000000000E+01 0.  0.
         21    1    1    2  502  501  0.30560067668E+00 -0.26431989123E+02 -0.22872507725E+02  0.34955615434E+02  0.00000000000E+00 0.  1.
<mgrwt>
<rscale>  1 0.12776594E+03</rscale>
<asrwt>0</asrwt>
<pdfrwt beam="1">  1        4 0.24551084E-02 0.12776594E+03</pdfrwt>
<pdfrwt beam="2">  1       -4 0.67761170E-01 0.12776594E+03</pdfrwt>
<totfact> 0.24514672E+03</totfact>
</mgrwt>
</event>
<event>
 6    4  0.5642870E-004  0.1271868E+03  0.7818608E-02  0.1231691E+00
         -4   -1    0    0    0  501 -0.00000000000E+00  0.00000000000E+00  0.10833856632E+02  0.10908040591E+02  0.12700000000E+01 0. -1.
          4   -1    0    0  502    0  0.00000000000E+00 -0.00000000000E+00 -0.53115627123E+03  0.53115778952E+03  0.12700000000E+01 0. -1.
         25    2    1    2    0    0 -0.97232871521E+01  0.21426239724E+02 -0.41053508236E+03  0.42978544722E+03  0.12499140264E+03 0.  0.
    9000005    1    3    3    0    0  0.28955854560E+02  0.24912028030E+02 -0.33685772477E+02  0.50939001965E+02  0.10000000000E+01 0.  0.
    9000005    1    3    3    0    0 -0.38679141712E+02 -0.34857883054E+01 -0.37684930988E+03  0.37884644526E+03  0.10000000000E+01 0.  0.
         21    1    1    2  502  501  0.97232871521E+01 -0.21426239724E+02 -0.10978733224E+03  0.11228038289E+03  0.00000000000E+00 0.  1.
<mgrwt>
<rscale>  1 0.12718678E+03</rscale>
<asrwt>0</asrwt>
<pdfrwt beam="2">  1        4 0.81722152E-01 0.12718678E+03</pdfrwt>
<pdfrwt beam="1">  1       -4 0.16725708E-02 0.12718678E+03</pdfrwt>
<totfact> 0.29395550E+03</totfact>
</mgrwt>
</event>
<event>
 6    4  0.5642870E-004  0.1292523E+03  0.7818608E-02  0.1228569E+00
          4   -1    0    0  502    0  0.00000000000E+00  0.00000000000E+00  0.10612451016E+02  0.10688171806E+02  0.12700000000E+01 0.  1.
         -4   -1    0    0    0  501 -0.00000000000E+00 -0.00000000000E+00 -0.63010902567E+03  0.63011030553E+03  0.12700000000E+01 0.  1.
         25    2    1    2    0    0  0.32602689627E+02 -0.42196646047E+01 -0.45255500218E+03  0.47065080747E+03  0.12500164652E+03 0.  0.
    9000005    1    3    3    0    0  0.92241507122E+01 -0.63562640066E+02 -0.25938930588E+03  0.26722482327E+03  0.10000000000E+01 0.  0.
    9000005    1    3    3    0    0  0.23378538915E+02  0.59342975462E+02 -0.19316569630E+03  0.20342598420E+03  0.10000000000E+01 0.  0.
         21    1    1    2  502  501 -0.32602689627E+02  0.42196646047E+01 -0.16694157247E+03  0.17014766986E+03  0.00000000000E+00 0.  1.
<mgrwt>
<rscale>  1 0.12925228E+03</rscale>
<asrwt>0</asrwt>
<pdfrwt beam="1">  1        4 0.16386084E-02 0.12925228E+03</pdfrwt>
<pdfrwt beam="2">  1       -4 0.96945744E-01 0.12925228E+03</pdfrwt>
<totfact> 0.20722111E+03</totfact>
</mgrwt>
</event>
<event>
 6    4  0.5642870E-004  0.1272610E+03  0.7818608E-02  0.1231577E+00
         -4   -1    0    0    0  501 -0.00000000000E+00  0.00000000000E+00  0.71782723714E+03  0.71782836060E+03  0.12700000000E+01 0. -1.
          4   -1    0    0  502    0  0.00000000000E+00 -0.00000000000E+00 -0.96219285162E+01  0.97053803826E+01  0.12700000000E+01 0. -1.
         25    2    1    2    0    0 -0.81719571284E+01  0.22451538964E+02  0.67338308185E+03  0.68530294698E+03  0.12499800687E+03 0.  0.
    9000005    1    3    3    0    0 -0.35303209388E+01 -0.52211115578E+02  0.26341767492E+03  0.26856718939E+03  0.10000000000E+01 0.  0.
    9000005    1    3    3    0    0 -0.46416361896E+01  0.74662654541E+02  0.40996540693E+03  0.41673575759E+03  0.10000000000E+01 0.  0.
         21    1    1    2  502  501  0.81719571284E+01 -0.22451538964E+02  0.34822226774E+02  0.42230794009E+02  0.00000000000E+00 0. -1.
<mgrwt>
<rscale>  1 0.12726097E+03</rscale>
<asrwt>0</asrwt>
<pdfrwt beam="2">  1        4 0.14868017E-02 0.12726097E+03</pdfrwt>
<pdfrwt beam="1">  1       -4 0.11044152E+00 0.12726097E+03</pdfrwt>
<totfact> 0.17684194E+03</totfact>
</mgrwt>
</event>
<event>
 6    4  0.5642870E-004  0.1288337E+03  0.7818608E-02  0.1229197E+00
         -4   -1    0    0    0  501 -0.00000000000E+00  0.00000000000E+00  0.40493528702E+03  0.40493727856E+03  0.12700000000E+01 0.  1.
          4   -1    0    0  502    0  0.00000000000E+00 -0.00000000000E+00 -0.18168754681E+02  0.18213087235E+02  0.12700000000E+01 0.  1.
         25    2    1    2    0    0  0.15891026186E+02 -0.26892081444E+02  0.35878097453E+03  0.38121112161E+03  0.12498969076E+03 0.  0.
    9000005    1    3    3    0    0  0.44527500023E+02  0.16368007044E+02  0.29592092795E+03  0.29970119371E+03  0.10000000000E+01 0.  0.
    9000005    1    3    3    0    0 -0.28636473838E+02 -0.43260088488E+02  0.62860046579E+02  0.81509927896E+02  0.10000000000E+01 0.  0.
         21    1    1    2  502  501 -0.15891026186E+02  0.26892081444E+02  0.27985557806E+02  0.41939244191E+02  0.00000000000E+00 0.  1.
<mgrwt>
<rscale>  1 0.12883374E+03</rscale>
<asrwt>0</asrwt>
<pdfrwt beam="2">  1        4 0.27987566E-02 0.12883374E+03</pdfrwt>
<pdfrwt beam="1">  1       -4 0.62301296E-01 0.12883374E+03</pdfrwt>
<totfact> 0.23953822E+03</totfact>
</mgrwt>
</event>
<event>
 6    4  0.5642870E-004  0.1300110E+03  0.7818608E-02  0.1227439E+00
         -4   -1    0    0    0  501 -0.00000000000E+00  0.00000000000E+00  0.19484475119E+03  0.19484889008E+03  0.12700000000E+01 0. -1.
          4   -1    0    0  502    0  0.00000000000E+00 -0.00000000000E+00 -0.35277350453E+02  0.35300203327E+02  0.12700000000E+01 0. -1.
         25    2    1    2    0    0  0.26633588289E+02 -0.23839988231E+02  0.12188323960E+03  0.17820884827E+03  0.12500070577E+03 0.  0.
    9000005    1    3    3    0    0  0.21423022410E+02 -0.45028672069E+02 -0.43829062422E+01  0.50067325319E+02  0.10000000000E+01 0.  0.
    9000005    1    3    3    0    0  0.52105658791E+01  0.21188683838E+02  0.12626614584E+03  0.12814152295E+03  0.10000000000E+01 0.  0.
         21    1    1    2  502  501 -0.26633588289E+02  0.23839988231E+02  0.37684161138E+02  0.51940245135E+02  0.00000000000E+00 0. -1.
<mgrwt>
<rscale>  1 0.13001104E+03</rscale>
<asrwt>0</asrwt>
<pdfrwt beam="2">  1        4 0.54293609E-02 0.13001104E+03</pdfrwt>
<pdfrwt beam="1">  1       -4 0.29978192E-01 0.13001104E+03</pdfrwt>
<totfact> 0.36060834E+03</totfact>
</mgrwt>
</event>
<event>
 6    4  0.5642870E-004  0.1377622E+03  0.7818608E-02  0.1216372E+00
          4   -1    0    0  502    0  0.00000000000E+00  0.00000000000E+00  0.37992978089E+03  0.37993190351E+03  0.12700000000E+01 0. -1.
         -4   -1    0    0    0  501 -0.00000000000E+00 -0.00000000000E+00 -0.26575449342E+02  0.26605777713E+02  0.12700000000E+01 0. -1.
         25    2    1    2    0    0 -0.47573608430E+02 -0.32847025467E+02  0.20187245852E+03  0.24439905795E+03  0.12504493079E+03 0.  0.
    9000005    1    3    3    0    0 -0.13711858125E+02  0.40287056121E+02  0.12863586033E+03  0.13549629702E+03  0.10000000000E+01 0.  0.
    9000005    1    3    3    0    0 -0.33861750305E+02 -0.73134081588E+02  0.73236598190E+02  0.10890276093E+03  0.10000000000E+01 0.  0.
         21    1    1    2  502  501  0.47573608430E+02  0.32847025467E+02  0.15148187303E+03  0.16213862327E+03  0.00000000000E+00 0. -1.
<mgrwt>
<rscale>  1 0.13776215E+03</rscale>
<asrwt>0</asrwt>
<pdfrwt beam="1">  1        4 0.58453234E-01 0.13776215E+03</pdfrwt>
<pdfrwt beam="2">  1       -4 0.40910267E-02 0.13776215E+03</pdfrwt>
<totfact> 0.15291035E+03</totfact>
</mgrwt>
</event>
<event>
 6    4  0.5642870E-004  0.1324182E+03  0.7818608E-02  0.1223911E+00
          4   -1    0    0  502    0  0.00000000000E+00  0.00000000000E+00  0.60801788579E+02  0.60815050723E+02  0.12700000000E+01 0. -1.
         -4   -1    0    0    0  501 -0.00000000000E+00 -0.00000000000E+00 -0.12751763413E+03  0.12752395820E+03  0.12700000000E+01 0. -1.
         25    2    1    2    0    0 -0.42887462610E+02 -0.83852128601E+01 -0.50977533102E+02  0.14189182684E+03  0.12499974160E+03 0.  0.
    9000005    1    3    3    0    0 -0.30582181639E+02  0.18199504057E+02  0.35684436908E+02  0.50407051284E+02  0.10000000000E+01 0.  0.
    9000005    1    3    3    0    0 -0.12305280971E+02 -0.26584716917E+02 -0.86661970010E+02  0.91484775560E+02  0.10000000000E+01 0.  0.
         21    1    1    2  502  501  0.42887462610E+02  0.83852128601E+01 -0.15738312449E+02  0.46447182074E+02  0.00000000000E+00 0. -1.
<mgrwt>
<rscale>  1 0.13241821E+03</rscale>
<asrwt>0</asrwt>
<pdfrwt beam="1">  1        4 0.93556280E-02 0.13241821E+03</pdfrwt>
<pdfrwt beam="2">  1       -4 0.19619604E-01 0.13241821E+03</pdfrwt>
<totfact> 0.32306815E+03</totfact>
</mgrwt>
</event>
<event>
 6    4  0.5642870E-004  0.1306735E+03  0.7818608E-02  0.1226460E+00
          4   -1    0    0  502    0  0.00000000000E+00  0.00000000000E+00  0.11324536181E+03  0.11325248285E+03  0.12700000000E+01 0. -1.
         -4   -1    0    0    0  501 -0.00000000000E+00 -0.00000000000E+00 -0.64593784498E+02  0.64606268239E+02  0.12700000000E+01 0. -1.
         25    2    1    2    0    0 -0.36084307353E+02 -0.12153421721E+02  0.25025343050E+02  0.13304824069E+03  0.12500313460E+03 0.  0.
    9000005    1    3    3    0    0  0.23912241521E+02  0.42715065547E+02  0.43752809480E+01  0.49158063455E+02  0.10000000000E+01 0.  0.
    9000005    1    3    3    0    0 -0.59996548874E+02 -0.54868487267E+02  0.20650062102E+02  0.83890177235E+02  0.10000000000E+01 0.  0.
         21    1    1    2  502  501  0.36084307353E+02  0.12153421721E+02  0.23626234259E+02  0.44810510396E+02  0.00000000000E+00 0. -1.
<mgrwt>
<rscale>  1 0.13067351E+03</rscale>
<asrwt>0</asrwt>
<pdfrwt beam="1">  1        4 0.17423871E-01 0.13067351E+03</pdfrwt>
<pdfrwt beam="2">  1       -4 0.99390135E-02 0.13067351E+03</pdfrwt>
<totfact> 0.35946511E+03</totfact>
</mgrwt>
</event>
<event>
 6    4  0.5642870E-004  0.1275783E+03  0.7818608E-02  0.1231094E+00
          4   -1    0    0  502    0  0.00000000000E+00  0.00000000000E+00  0.12927372294E+03  0.12927996110E+03  0.12700000000E+01 0.  1.
         -4   -1    0    0    0  501 -0.00000000000E+00 -0.00000000000E+00 -0.48052953610E+02  0.48069733207E+02  0.12700000000E+01 0.  1.
         25    2    1    2    0    0  0.63640074749E+01  0.24715884980E+02  0.50004279887E+02  0.13702792879E+03  0.12499939880E+03 0.  0.
    9000005    1    3    3    0    0  0.57465447213E+02  0.41525335825E+02  0.42593897783E+02  0.82715604738E+02  0.10000000000E+01 0.  0.
    9000005    1    3    3    0    0 -0.51101439738E+02 -0.16809450845E+02  0.74103821038E+01  0.54312324052E+02  0.10000000000E+01 0.  0.
         21    1    1    2  502  501 -0.63640074749E+01 -0.24715884980E+02  0.31216489442E+02  0.40321765519E+02  0.00000000000E+00 0.  1.
<mgrwt>
<rscale>  1 0.12757831E+03</rscale>
<asrwt>0</asrwt>
<pdfrwt beam="1">  1        4 0.19890036E-01 0.12757831E+03</pdfrwt>
<pdfrwt beam="2">  1       -4 0.73945327E-02 0.12757831E+03</pdfrwt>
<totfact> 0.46156000E+03</totfact>
</mgrwt>
</event>
<event>
 6    4  0.5642870E-004  0.1279694E+03  0.7818608E-02  0.1230500E+00
          4   -1    0    0  502    0  0.00000000000E+00  0.00000000000E+00  0.55450400269E+02  0.55464941990E+02  0.12700000000E+01 0. -1.
         -4   -1    0    0    0  501 -0.00000000000E+00 -0.00000000000E+00 -0.11640048563E+03  0.11640741366E+03  0.12700000000E+01 0. -1.
         25    2    1    2    0    0 -0.10328269845E+02 -0.25160328402E+02 -0.66344381276E+02  0.14414486546E+03  0.12504579173E+03 0.  0.
    9000005    1    3    3    0    0 -0.65114686905E+02 -0.32328994130E+02 -0.37355047815E+02  0.81740356676E+02  0.10000000000E+01 0.  0.
    9000005    1    3    3    0    0  0.54786417060E+02  0.71686657282E+01 -0.28989333461E+02  0.62404508789E+02  0.10000000000E+01 0.  0.
         21    1    1    2  502  501  0.10328269845E+02  0.25160328402E+02  0.53942959190E+01  0.27727490181E+02  0.00000000000E+00 0.  1.
<mgrwt>
<rscale>  1 0.12796939E+03</rscale>
<asrwt>0</asrwt>
<pdfrwt beam="1">  1        4 0.85324824E-02 0.12796939E+03</pdfrwt>
<pdfrwt beam="2">  1       -4 0.17909418E-01 0.12796939E+03</pdfrwt>
<totfact> 0.43962513E+03</totfact>
</mgrwt>
</event>
<event>
 6    4  0.5642870E-004  0.1278222E+03  0.7818608E-02  0.1230723E+00
         -4   -1    0    0    0  501 -0.00000000000E+00  0.00000000000E+00  0.47080960488E+03  0.47081131777E+03  0.12700000000E+01 0. -1.
          4   -1    0    0  502    0  0.00000000000E+00 -0.00000000000E+00 -0.13918509482E+02  0.13976330212E+02  0.12700000000E+01 0. -1.
         25    2    1    2    0    0 -0.26198090099E+02 -0.51593253906E+01  0.42149149724E+03  0.44044703328E+03  0.12500219323E+03 0.  0.
    9000005    1    3    3    0    0  0.49667691413E+02  0.93950999246E+01  0.16430992767E+03  0.17191247716E+03  0.10000000000E+01 0.  0.
    9000005    1    3    3    0    0 -0.75865781512E+02 -0.14554425315E+02  0.25718156958E+03  0.26853455612E+03  0.10000000000E+01 0.  0.
         21    1    1    2  502  501  0.26198090099E+02  0.51593253906E+01  0.35399598151E+02  0.44340614706E+02  0.00000000000E+00 0.  1.
<mgrwt>
<rscale>  1 0.12782217E+03</rscale>
<asrwt>0</asrwt>
<pdfrwt beam="2">  1        4 0.21458887E-02 0.12782217E+03</pdfrwt>
<pdfrwt beam="1">  1       -4 0.72436826E-01 0.12782217E+03</pdfrwt>
<totfact> 0.26148970E+03</totfact>
</mgrwt>
</event>
<event>
 6    4  0.5642870E-004  0.1407472E+03  0.7818608E-02  0.1212327E+00
         -4   -1    0    0    0  501 -0.00000000000E+00  0.00000000000E+00  0.37513986542E+02  0.37535477701E+02  0.12700000000E+01 0. -1.
          4   -1    0    0  502    0  0.00000000000E+00 -0.00000000000E+00 -0.28117741939E+03  0.28118028749E+03  0.12700000000E+01 0. -1.
         25    2    1    2    0    0  0.61818404267E+02  0.19080875307E+02 -0.16761652420E+03  0.21887225152E+03  0.12499667352E+03 0.  0.
    9000005    1    3    3    0    0  0.65006539840E+02  0.39442943545E+02 -0.33359602319E+02  0.83038901031E+02  0.10000000000E+01 0.  0.
    9000005    1    3    3    0    0 -0.31881355727E+01 -0.20362068239E+02 -0.13425692188E+03  0.13583335049E+03  0.10000000000E+01 0.  0.
         21    1    1    2  502  501 -0.61818404267E+02 -0.19080875307E+02 -0.76046908649E+02  0.99843513678E+02  0.00000000000E+00 0. -1.
<mgrwt>
<rscale>  1 0.14074716E+03</rscale>
<asrwt>0</asrwt>
<pdfrwt beam="2">  1        4 0.43259937E-01 0.14074716E+03</pdfrwt>
<pdfrwt beam="1">  1       -4 0.57732565E-02 0.14074716E+03</pdfrwt>
<totfact> 0.16327694E+03</totfact>
</mgrwt>
</event>
<event>
 6    4  0.5642870E-004  0.1364212E+03  0.7818608E-02  0.1218227E+00
         -4   -1    0    0    0  501 -0.00000000000E+00  0.00000000000E+00  0.11540004574E+03  0.11540703382E+03  0.12700000000E+01 0.  1.
          4   -1    0    0  502    0  0.00000000000E+00 -0.00000000000E+00 -0.13772094334E+03  0.13772679889E+03  0.12700000000E+01 0.  1.
         25    2    1    2    0    0  0.97538735650E+00  0.54650180646E+02  0.64216726589E+02  0.15077977063E+03  0.12499263032E+03 0.  0.
    9000005    1    3    3    0    0  0.11010623072E+02  0.94510547241E+02  0.48056717628E+02  0.10660171420E+03  0.10000000000E+01 0.  0.
    9000005    1    3    3    0    0 -0.10035235715E+02 -0.39860366595E+02  0.16160008961E+02  0.44178056438E+02  0.10000000000E+01 0.  0.
         21    1    1    2  502  501 -0.97538735650E+00 -0.54650180646E+02 -0.86537624189E+02  0.10235406209E+03  0.00000000000E+00 0.  1.
<mgrwt>
<rscale>  1 0.13642123E+03</rscale>
<asrwt>0</asrwt>
<pdfrwt beam="2">  1        4 0.21188825E-01 0.13642123E+03</pdfrwt>
<pdfrwt beam="1">  1       -4 0.17754841E-01 0.13642123E+03</pdfrwt>
<totfact> 0.93881132E+02</totfact>
</mgrwt>
</event>
<event>
 6    4  0.5642870E-004  0.1341079E+03  0.7818608E-02  0.1221485E+00
         -4   -1    0    0    0  501 -0.00000000000E+00  0.00000000000E+00  0.13122809642E+02  0.13184120483E+02  0.12700000000E+01 0.  1.
          4   -1    0    0  502    0  0.00000000000E+00 -0.00000000000E+00 -0.64972865889E+03  0.64972990010E+03  0.12700000000E+01 0.  1.
         25    2    1    2    0    0  0.35656145263E+02 -0.32985139910E+02 -0.41839644486E+03  0.43936374813E+03  0.12500215178E+03 0.  0.
    9000005    1    3    3    0    0  0.67838579338E+02  0.25015788018E+01 -0.34564821435E+03  0.35225277689E+03  0.10000000000E+01 0.  0.
    9000005    1    3    3    0    0 -0.32182434075E+02 -0.35486718712E+02 -0.72748230503E+02  0.87110971234E+02  0.10000000000E+01 0.  0.
         21    1    1    2  502  501 -0.35656145263E+02  0.32985139910E+02 -0.21820940439E+03  0.22355027246E+03  0.00000000000E+00 0.  1.
<mgrwt>
<rscale>  1 0.13410786E+03</rscale>
<asrwt>0</asrwt>
<pdfrwt beam="2">  1        4 0.99963042E-01 0.13410786E+03</pdfrwt>
<pdfrwt beam="1">  1       -4 0.20237060E-02 0.13410786E+03</pdfrwt>
<totfact> 0.14084842E+03</totfact>
</mgrwt>
</event>
<event>
 6    4  0.5642870E-004  0.1282051E+03  0.7818608E-02  0.1230144E+00
          4   -1    0    0  502    0  0.00000000000E+00  0.00000000000E+00  0.43039929579E+02  0.43058662754E+02  0.12700000000E+01 0. -1.
         -4   -1    0    0    0  501 -0.00000000000E+00 -0.00000000000E+00 -0.86480399841E+03  0.86480493093E+03  0.12700000000E+01 0. -1.
         25    2    1    2    0    0 -0.32480807631E+00 -0.28466468312E+02 -0.85473869817E+03  0.86430017442E+03  0.12500441606E+03 0.  0.
    9000005    1    3    3    0    0  0.33937243570E+02  0.17188112761E+02 -0.66672199351E+03  0.66780714608E+03  0.10000000000E+01 0.  0.
    9000005    1    3    3    0    0 -0.34262051647E+02 -0.45654581073E+02 -0.18801670466E+03  0.19649302834E+03  0.10000000000E+01 0.  0.
         21    1    1    2  502  501  0.32480807631E+00  0.28466468312E+02  0.32974629337E+02  0.43563419269E+02  0.00000000000E+00 0. -1.
<mgrwt>
<rscale>  1 0.12820511E+03</rscale>
<asrwt>0</asrwt>
<pdfrwt beam="1">  1        4 0.66230410E-02 0.12820511E+03</pdfrwt>
<pdfrwt beam="2">  1       -4 0.13304827E+00 0.12820511E+03</pdfrwt>
<totfact> 0.10825312E+02</totfact>
</mgrwt>
</event>
<event>
 6    4  0.5642870E-004  0.1285605E+03  0.7818608E-02  0.1229607E+00
         -4   -1    0    0    0  501 -0.00000000000E+00  0.00000000000E+00  0.30287305630E+02  0.30313920603E+02  0.12700000000E+01 0.  1.
          4   -1    0    0  502    0  0.00000000000E+00 -0.00000000000E+00 -0.22152693357E+03  0.22153057396E+03  0.12700000000E+01 0.  1.
         25    2    1    2    0    0  0.22542626771E+00 -0.30050185520E+02 -0.12597193189E+03  0.17999091696E+03  0.12499895238E+03 0.  0.
    9000005    1    3    3    0    0 -0.18937455057E+02 -0.82945892728E+01  0.21411036910E+02  0.29780193365E+02  0.10000000000E+01 0.  0.
    9000005    1    3    3    0    0  0.19162881325E+02 -0.21755596247E+02 -0.14738296880E+03  0.15021072359E+03  0.10000000000E+01 0.  0.
         21    1    1    2  502  501 -0.22542626771E+00  0.30050185520E+02 -0.65267696047E+02  0.71853577601E+02  0.00000000000E+00 0.  1.
<mgrwt>
<rscale>  1 0.12856050E+03</rscale>
<asrwt>0</asrwt>
<pdfrwt beam="2">  1        4 0.34083393E-01 0.12856050E+03</pdfrwt>
<pdfrwt beam="1">  1       -4 0.46619130E-02 0.12856050E+03</pdfrwt>
<totfact> 0.35978872E+03</totfact>
</mgrwt>
</event>
<event>
 6    4  0.5642870E-004  0.1337071E+03  0.7818608E-02  0.1222056E+00
         -4   -1    0    0    0  501 -0.00000000000E+00  0.00000000000E+00  0.79098727840E+02  0.79108922669E+02  0.12700000000E+01 0. -1.
          4   -1    0    0  502    0  0.00000000000E+00 -0.00000000000E+00 -0.10524457038E+03  0.10525223273E+03  0.12700000000E+01 0. -1.
         25    2    1    2    0    0  0.47087421413E+02  0.58483600807E+01 -0.93752902543E+01  0.13403541651E+03  0.12500467287E+03 0.  0.
    9000005    1    3    3    0    0  0.49911268622E+02  0.33479836746E+02  0.43569859939E+02  0.74238580934E+02  0.10000000000E+01 0.  0.
    9000005    1    3    3    0    0 -0.28238472083E+01 -0.27631476665E+02 -0.52945150194E+02  0.59796835575E+02  0.10000000000E+01 0.  0.
         21    1    1    2  502  501 -0.47087421413E+02 -0.58483600807E+01 -0.16770552289E+02  0.50325738893E+02  0.00000000000E+00 0.  1.
<mgrwt>
<rscale>  1 0.13370713E+03</rscale>
<asrwt>0</asrwt>
<pdfrwt beam="2">  1        4 0.16192846E-01 0.13370713E+03</pdfrwt>
<pdfrwt beam="1">  1       -4 0.12170409E-01 0.13370713E+03</pdfrwt>
<totfact> 0.29167576E+03</totfact>
</mgrwt>
</event>
<event>
 6    4  0.5642870E-004  0.1281348E+03  0.7818608E-02  0.1230250E+00
         -4   -1    0    0    0  501 -0.00000000000E+00  0.00000000000E+00  0.51613418691E+03  0.51613574939E+03  0.12700000000E+01 0. -1.
          4   -1    0    0  502    0  0.00000000000E+00 -0.00000000000E+00 -0.12000726769E+02  0.12067739763E+02  0.12700000000E+01 0. -1.
         25    2    1    2    0    0  0.46153788250E+01  0.27722146678E+02  0.43770391827E+03  0.45607372295E+03  0.12501480538E+03 0.  0.
    9000005    1    3    3    0    0 -0.32894570634E+02  0.60439778353E+02  0.16359441136E+03  0.17748000173E+03  0.10000000000E+01 0.  0.
    9000005    1    3    3    0    0  0.37509949459E+02 -0.32717631675E+02  0.27410950690E+03  0.27859372122E+03  0.10000000000E+01 0.  0.
         21    1    1    2  502  501 -0.46153788250E+01 -0.27722146678E+02  0.66429541872E+02  0.72129766196E+02  0.00000000000E+00 0.  1.
<mgrwt>
<rscale>  1 0.12813478E+03</rscale>
<asrwt>0</asrwt>
<pdfrwt beam="2">  1        4 0.18515407E-02 0.12813478E+03</pdfrwt>
<pdfrwt beam="1">  1       -4 0.79410532E-01 0.12813478E+03</pdfrwt>
<totfact> 0.26853244E+03</totfact>
</mgrwt>
</event>
<event>
 6    4  0.5642870E-004  0.1268579E+03  0.7818608E-02  0.1232194E+00
          4   -1    0    0  502    0  0.00000000000E+00  0.00000000000E+00  0.19946368414E+03  0.19946772719E+03  0.12700000000E+01 0.  1.
         -4   -1    0    0    0  501 -0.00000000000E+00 -0.00000000000E+00 -0.28389160354E+02  0.28417553125E+02  0.12700000000E+01 0.  1.
         25    2    1    2    0    0 -0.16697037194E+02 -0.13762493945E+02  0.13108890252E+03  0.18242048956E+03  0.12499894942E+03 0.  0.
    9000005    1    3    3    0    0 -0.58900071682E+02  0.29424660710E+02  0.77327379087E+02  0.10156550920E+03  0.10000000000E+01 0.  0.
    9000005    1    3    3    0    0  0.42203034488E+02 -0.43187154655E+02  0.53761523430E+02  0.80854980358E+02  0.10000000000E+01 0.  0.
         21    1    1    2  502  501  0.16697037194E+02  0.13762493945E+02  0.39985621265E+02  0.45464790757E+02  0.00000000000E+00 0.  1.
<mgrwt>
<rscale>  1 0.12685793E+03</rscale>
<asrwt>0</asrwt>
<pdfrwt beam="1">  1        4 0.30689215E-01 0.12685793E+03</pdfrwt>
<pdfrwt beam="2">  1       -4 0.43700583E-02 0.12685793E+03</pdfrwt>
<totfact> 0.48562329E+03</totfact>
</mgrwt>
</event>
<event>
 6    4  0.5642870E-004  0.1322516E+03  0.7818608E-02  0.1224152E+00
          4   -1    0    0  502    0  0.00000000000E+00  0.00000000000E+00  0.17673722700E+03  0.17674178993E+03  0.12700000000E+01 0. -1.
         -4   -1    0    0    0  501 -0.00000000000E+00 -0.00000000000E+00 -0.45803074798E+02  0.45820678311E+02  0.12700000000E+01 0. -1.
         25    2    1    2    0    0  0.26466433419E+02  0.34125423915E+02  0.75476895417E+02  0.15227360721E+03  0.12500189221E+03 0.  0.
    9000005    1    3    3    0    0 -0.27216064058E+02  0.22279456507E+02 -0.21182347615E+02  0.41070429453E+02  0.10000000000E+01 0.  0.
    9000005    1    3    3    0    0  0.53682497476E+02  0.11845967409E+02  0.96659243032E+02  0.11120317775E+03  0.10000000000E+01 0.  0.
         21    1    1    2  502  501 -0.26466433419E+02 -0.34125423915E+02  0.55457256786E+02  0.70288861035E+02  0.00000000000E+00 0. -1.
<mgrwt>
<rscale>  1 0.13225162E+03</rscale>
<asrwt>0</asrwt>
<pdfrwt beam="1">  1        4 0.27192047E-01 0.13225162E+03</pdfrwt>
<pdfrwt beam="2">  1       -4 0.70483321E-02 0.13225162E+03</pdfrwt>
<totfact> 0.28436928E+03</totfact>
</mgrwt>
</event>
<event>
 6    4  0.5642870E-004  0.1288132E+03  0.7818608E-02  0.1229228E+00
         -4   -1    0    0    0  501 -0.00000000000E+00  0.00000000000E+00  0.87599490204E+01  0.88515313274E+01  0.12700000000E+01 0.  1.
          4   -1    0    0  502    0  0.00000000000E+00 -0.00000000000E+00 -0.72815245420E+03  0.72815356173E+03  0.12700000000E+01 0.  1.
         25    2    1    2    0    0  0.16431173527E+02  0.26430669539E+02 -0.59423585849E+03  0.60803707389E+03  0.12499705580E+03 0.  0.
    9000005    1    3    3    0    0  0.96363410156E+01  0.31572372359E+02 -0.32834430252E+02  0.46570093134E+02  0.10000000000E+01 0.  0.
    9000005    1    3    3    0    0  0.67948325115E+01 -0.51417028201E+01 -0.56140142823E+03  0.56146698076E+03  0.10000000000E+01 0.  0.
         21    1    1    2  502  501 -0.16431173527E+02 -0.26430669539E+02 -0.12515664669E+03  0.12896801916E+03  0.00000000000E+00 0.  1.
<mgrwt>
<rscale>  1 0.12881315E+03</rscale>
<asrwt>0</asrwt>
<pdfrwt beam="2">  1        4 0.11203054E+00 0.12881315E+03</pdfrwt>
<pdfrwt beam="1">  1       -4 0.13548150E-02 0.12881315E+03</pdfrwt>
<totfact> 0.19748467E+03</totfact>
</mgrwt>
</event>
<event>
 6    4  0.5642870E-004  0.1293585E+03  0.7818608E-02  0.1228411E+00
         -4   -1    0    0    0  501 -0.00000000000E+00  0.00000000000E+00  0.20976958525E+02  0.21015367924E+02  0.12700000000E+01 0. -1.
          4   -1    0    0  502    0  0.00000000000E+00 -0.00000000000E+00 -0.40671205242E+03  0.40671403526E+03  0.12700000000E+01 0. -1.
         25    2    1    2    0    0 -0.33255912343E+02  0.16879460579E+01 -0.19431813965E+03  0.23343772751E+03  0.12499931344E+03 0.  0.
    9000005    1    3    3    0    0  0.56728987017E+01  0.57860899998E+01  0.16821328092E+02  0.18698066636E+02  0.10000000000E+01 0.  0.
    9000005    1    3    3    0    0 -0.38928811045E+02 -0.40981439419E+01 -0.21113946774E+03  0.21473966087E+03  0.10000000000E+01 0.  0.
         21    1    1    2  502  501  0.33255912343E+02 -0.16879460579E+01 -0.19141695424E+03  0.19429167568E+03  0.00000000000E+00 0. -1.
<mgrwt>
<rscale>  1 0.12935855E+03</rscale>
<asrwt>0</asrwt>
<pdfrwt beam="2">  1        4 0.62574186E-01 0.12935855E+03</pdfrwt>
<pdfrwt beam="1">  1       -4 0.32303318E-02 0.12935855E+03</pdfrwt>
<totfact> 0.18980267E+03</totfact>
</mgrwt>
</event>
<event>
 6    4  0.5642870E-004  0.1267873E+03  0.7818608E-02  0.1232302E+00
         -4   -1    0    0    0  501 -0.00000000000E+00  0.00000000000E+00  0.31730324342E+02  0.31755729922E+02  0.12700000000E+01 0. -1.
          4   -1    0    0  502    0  0.00000000000E+00 -0.00000000000E+00 -0.17940507436E+03  0.17940956943E+03  0.12700000000E+01 0. -1.
         25    2    1    2    0    0  0.68325611795E+01  0.20087528277E+02 -0.13928521801E+03  0.18834914429E+03  0.12499934206E+03 0.  0.
    9000005    1    3    3    0    0  0.17227186772E+02  0.58380723303E+02 -0.22332425804E+02  0.64844599311E+02  0.10000000000E+01 0.  0.
    9000005    1    3    3    0    0 -0.10394625593E+02 -0.38293195026E+02 -0.11695279221E+03  0.12350454498E+03  0.10000000000E+01 0.  0.
         21    1    1    2  502  501 -0.68325611795E+01 -0.20087528277E+02 -0.83895320013E+01  0.22816155061E+02  0.00000000000E+00 0. -1.
<mgrwt>
<rscale>  1 0.12678733E+03</rscale>
<asrwt>0</asrwt>
<pdfrwt beam="2">  1        4 0.27603080E-01 0.12678733E+03</pdfrwt>
<pdfrwt beam="1">  1       -4 0.48838885E-02 0.12678733E+03</pdfrwt>
<totfact> 0.49612597E+03</totfact>
</mgrwt>
</event>
<event>
 6    4  0.5642870E-004  0.1653868E+03  0.7818608E-02  0.1182746E+00
          4   -1    0    0  502    0  0.00000000000E+00  0.00000000000E+00  0.30279818222E+03  0.30280084553E+03  0.12700000000E+01 0. -1.
         -4   -1    0    0    0  501 -0.00000000000E+00 -0.00000000000E+00 -0.95211819928E+02  0.95220289613E+02  0.12700000000E+01 0. -1.
         25    2    1    2    0    0  0.32409555629E+02 -0.10333332465E+03  0.23400341310E+03  0.28654909447E+03  0.12499852367E+03 0.  0.
    9000005    1    3    3    0    0  0.61228765631E+02 -0.65050472330E+02  0.21868859670E+03  0.23623341850E+03  0.10000000000E+01 0.  0.
    9000005    1    3    3    0    0 -0.28819210002E+02 -0.38282852318E+02  0.15314816400E+02  0.50315675968E+02  0.10000000000E+01 0.  0.
         21    1    1    2  502  501 -0.32409555629E+02  0.10333332465E+03 -0.26417050807E+02  0.11147204068E+03  0.00000000000E+00 0. -1.
<mgrwt>
<rscale>  1 0.16538678E+03</rscale>
<asrwt>0</asrwt>
<pdfrwt beam="1">  1        4 0.46585191E-01 0.16538678E+03</pdfrwt>
<pdfrwt beam="2">  1       -4 0.14648829E-01 0.16538678E+03</pdfrwt>
<totfact> 0.30360742E+02</totfact>
</mgrwt>
</event>
<event>
 6    4  0.5642870E-004  0.1271642E+03  0.7818608E-02  0.1231725E+00
          4   -1    0    0  502    0  0.00000000000E+00  0.00000000000E+00  0.42492503038E+02  0.42511477444E+02  0.12700000000E+01 0. -1.
         -4   -1    0    0    0  501 -0.00000000000E+00 -0.00000000000E+00 -0.13968282857E+03  0.13968860189E+03  0.12700000000E+01 0. -1.
         25    2    1    2    0    0 -0.48611882139E+01  0.22873964416E+02 -0.94962947402E+02  0.15870942987E+03  0.12499548932E+03 0.  0.
    9000005    1    3    3    0    0 -0.58623587450E+02  0.20812051037E+02 -0.17940207557E+02  0.64751197062E+02  0.10000000000E+01 0.  0.
    9000005    1    3    3    0    0  0.53762399236E+02  0.20619133790E+01 -0.77022739845E+02  0.93958232804E+02  0.10000000000E+01 0.  0.
         21    1    1    2  502  501  0.48611882139E+01 -0.22873964416E+02 -0.22273781298E+01  0.23490649465E+02  0.00000000000E+00 0.  1.
<mgrwt>
<rscale>  1 0.12716415E+03</rscale>
<asrwt>0</asrwt>
<pdfrwt beam="1">  1        4 0.65392119E-02 0.12716415E+03</pdfrwt>
<pdfrwt beam="2">  1       -4 0.21491569E-01 0.12716415E+03</pdfrwt>
<totfact> 0.49057545E+03</totfact>
</mgrwt>
</event>
<event>
 6    4  0.5642870E-004  0.1279261E+03  0.7818608E-02  0.1230566E+00
         -4   -1    0    0    0  501 -0.00000000000E+00  0.00000000000E+00  0.73371532559E+02  0.73382523056E+02  0.12700000000E+01 0.  1.
          4   -1    0    0  502    0  0.00000000000E+00 -0.00000000000E+00 -0.83026334858E+02  0.83036047473E+02  0.12700000000E+01 0.  1.
         25    2    1    2    0    0  0.18566154369E+02  0.19869823823E+02 -0.14674974441E+02  0.12876510573E+03  0.12500234235E+03 0.  0.
    9000005    1    3    3    0    0 -0.42617806809E+02  0.34030048168E+02  0.18670247549E+02  0.57653272059E+02  0.10000000000E+01 0.  0.
    9000005    1    3    3    0    0  0.61183961178E+02 -0.14160224345E+02 -0.33345221991E+02  0.71111833675E+02  0.10000000000E+01 0.  0.
         21    1    1    2  502  501 -0.18566154369E+02 -0.19869823823E+02  0.50201721425E+01  0.27653464795E+02  0.00000000000E+00 0.  1.
<mgrwt>
<rscale>  1 0.12792614E+03</rscale>
<asrwt>0</asrwt>
<pdfrwt beam="2">  1        4 0.12774875E-01 0.12792614E+03</pdfrwt>
<pdfrwt beam="1">  1       -4 0.11289521E-01 0.12792614E+03</pdfrwt>
<totfact> 0.49525392E+03</totfact>
</mgrwt>
</event>
<event>
 6    4  0.5642870E-004  0.1371386E+03  0.7818608E-02  0.1217232E+00
          4   -1    0    0  502    0  0.00000000000E+00  0.00000000000E+00  0.21422696749E+02  0.21460308385E+02  0.12700000000E+01 0. -1.
         -4   -1    0    0    0  501 -0.00000000000E+00 -0.00000000000E+00 -0.44394146787E+03  0.44394328443E+03  0.12700000000E+01 0. -1.
         25    2    1    2    0    0 -0.52847348447E+02  0.19701269845E+02 -0.32500966362E+03  0.35275809439E+03  0.12500403769E+03 0.  0.
    9000005    1    3    3    0    0  0.25718240598E+02  0.43682497590E+00 -0.21321219806E+03  0.21476047150E+03  0.10000000000E+01 0.  0.
    9000005    1    3    3    0    0 -0.78565589045E+02  0.19264444869E+02 -0.11179746556E+03  0.13799762290E+03  0.10000000000E+01 0.  0.
         21    1    1    2  502  501  0.52847348447E+02 -0.19701269845E+02 -0.97509107494E+02  0.11264549843E+03  0.00000000000E+00 0. -1.
<mgrwt>
<rscale>  1 0.13713859E+03</rscale>
<asrwt>0</asrwt>
<pdfrwt beam="1">  1        4 0.32988328E-02 0.13713859E+03</pdfrwt>
<pdfrwt beam="2">  1       -4 0.68301713E-01 0.13713859E+03</pdfrwt>
<totfact> 0.15436741E+03</totfact>
</mgrwt>
</event>
<event>
 6    4  0.5642870E-004  0.1469420E+03  0.7818608E-02  0.1204282E+00
         -4   -1    0    0    0  501 -0.00000000000E+00  0.00000000000E+00  0.11693637133E+04  0.11693644030E+04  0.12700000000E+01 0.  1.
          4   -1    0    0  502    0  0.00000000000E+00 -0.00000000000E+00 -0.12309859806E+02  0.12375198925E+02  0.12700000000E+01 0.  1.
         25    2    1    2    0    0 -0.31384550432E+02 -0.70588344944E+02  0.93852137121E+03  0.94995489517E+03  0.12499693675E+03 0.  0.
    9000005    1    3    3    0    0 -0.62155642917E+02 -0.62813141124E+02  0.36465689373E+03  0.37521255948E+03  0.10000000000E+01 0.  0.
    9000005    1    3    3    0    0  0.30771092485E+02 -0.77752038199E+01  0.57386447748E+03  0.57474233569E+03  0.10000000000E+01 0.  0.
         21    1    1    2  502  501  0.31384550432E+02  0.70588344944E+02  0.21853248229E+03  0.23178470671E+03  0.00000000000E+00 0.  1.
<mgrwt>
<rscale>  1 0.14694196E+03</rscale>
<asrwt>0</asrwt>
<pdfrwt beam="2">  1        4 0.18989040E-02 0.14694196E+03</pdfrwt>
<pdfrwt beam="1">  1       -4 0.17990716E+00 0.14694196E+03</pdfrwt>
<totfact> 0.36652893E+02</totfact>
</mgrwt>
</event>
<event>
 6    4  0.5642870E-004  0.1276904E+03  0.7818608E-02  0.1230924E+00
         -4   -1    0    0    0  501 -0.00000000000E+00  0.00000000000E+00  0.73133736141E+03  0.73133846411E+03  0.12700000000E+01 0. -1.
          4   -1    0    0  502    0  0.00000000000E+00 -0.00000000000E+00 -0.18362535527E+02  0.18406401359E+02  0.12700000000E+01 0. -1.
         25    2    1    2    0    0 -0.26004836315E+02  0.19801084907E+01  0.71230138553E+03  0.72365605823E+03  0.12499861775E+03 0.  0.
    9000005    1    3    3    0    0 -0.23158428684E+02  0.39435259055E+02  0.64463755482E+03  0.64625848510E+03  0.10000000000E+01 0.  0.
    9000005    1    3    3    0    0 -0.28464076309E+01 -0.37455150564E+02  0.67663830712E+02  0.77397573133E+02  0.10000000000E+01 0.  0.
         21    1    1    2  502  501  0.26004836315E+02 -0.19801084907E+01  0.67344034860E+00  0.26088807242E+02  0.00000000000E+00 0. -1.
<mgrwt>
<rscale>  1 0.12769036E+03</rscale>
<asrwt>0</asrwt>
<pdfrwt beam="2">  1        4 0.28284642E-02 0.12769036E+03</pdfrwt>
<pdfrwt beam="1">  1       -4 0.11251691E+00 0.12769036E+03</pdfrwt>
<totfact> 0.62895131E+02</totfact>
</mgrwt>
</event>
<event>
 6    4  0.5642870E-004  0.1311030E+03  0.7818608E-02  0.1225828E+00
         -4   -1    0    0    0  501 -0.00000000000E+00  0.00000000000E+00  0.72538390931E+02  0.72549507641E+02  0.12700000000E+01 0.  1.
          4   -1    0    0  502    0  0.00000000000E+00 -0.00000000000E+00 -0.15363392585E+03  0.15363917493E+03  0.12700000000E+01 0.  1.
         25    2    1    2    0    0 -0.11488642594E+01  0.39523283097E+02  0.52630436980E+01  0.13120861152E+03  0.12499836124E+03 0.  0.
    9000005    1    3    3    0    0  0.31024407415E+01 -0.30388622540E+02  0.42132114444E+02  0.52050058463E+02  0.10000000000E+01 0.  0.
    9000005    1    3    3    0    0 -0.42513050009E+01  0.69911905637E+02 -0.36869070746E+02  0.79158553055E+02  0.10000000000E+01 0.  0.
         21    1    1    2  502  501  0.11488642594E+01 -0.39523283097E+02 -0.86358578620E+02  0.94980071053E+02  0.00000000000E+00 0.  1.
<mgrwt>
<rscale>  1 0.13110301E+03</rscale>
<asrwt>0</asrwt>
<pdfrwt beam="2">  1        4 0.23637247E-01 0.13110301E+03</pdfrwt>
<pdfrwt beam="1">  1       -4 0.11161011E-01 0.13110301E+03</pdfrwt>
<totfact> 0.17073498E+03</totfact>
</mgrwt>
</event>
<event>
 6    4  0.5642870E-004  0.1275007E+03  0.7818608E-02  0.1231212E+00
         -4   -1    0    0    0  501 -0.00000000000E+00  0.00000000000E+00  0.51281888517E+02  0.51297611931E+02  0.12700000000E+01 0.  1.
          4   -1    0    0  502    0  0.00000000000E+00 -0.00000000000E+00 -0.15300225994E+03  0.15300753069E+03  0.12700000000E+01 0.  1.
         25    2    1    2    0    0  0.22935376515E+02 -0.10270899956E+02 -0.33829292435E+02  0.13191231502E+03  0.12499965978E+03 0.  0.
    9000005    1    3    3    0    0 -0.60217590479E+01 -0.36922022685E+02  0.35886558590E+02  0.51849227849E+02  0.10000000000E+01 0.  0.
    9000005    1    3    3    0    0  0.28957135563E+02  0.26651122728E+02 -0.69715851024E+02  0.80063087167E+02  0.10000000000E+01 0.  0.
         21    1    1    2  502  501 -0.22935376515E+02  0.10270899956E+02 -0.67891078991E+02  0.72392827603E+02  0.00000000000E+00 0.  1.
<mgrwt>
<rscale>  1 0.12750074E+03</rscale>
<asrwt>0</asrwt>
<pdfrwt beam="2">  1        4 0.23540424E-01 0.12750074E+03</pdfrwt>
<pdfrwt beam="1">  1       -4 0.78911363E-02 0.12750074E+03</pdfrwt>
<totfact> 0.30546132E+03</totfact>
</mgrwt>
</event>
<event>
 6    4  0.5642870E-004  0.1392300E+03  0.7818608E-02  0.1214369E+00
         -4   -1    0    0    0  501 -0.00000000000E+00  0.00000000000E+00  0.63408443771E+02  0.63421160834E+02  0.12700000000E+01 0.  1.
          4   -1    0    0  502    0  0.00000000000E+00 -0.00000000000E+00 -0.16912216179E+03  0.16912693017E+03  0.12700000000E+01 0.  1.
         25    2    1    2    0    0  0.77693813393E+01  0.60819855552E+02 -0.99060381823E+02  0.17087406893E+03  0.12500228026E+03 0.  0.
    9000005    1    3    3    0    0 -0.44058864723E+02 -0.15714346426E+02 -0.33949039532E+02  0.57807106219E+02  0.10000000000E+01 0.  0.
    9000005    1    3    3    0    0  0.51828246062E+02  0.76534201979E+02 -0.65111342291E+02  0.11306696271E+03  0.10000000000E+01 0.  0.
         21    1    1    2  502  501 -0.77693813393E+01 -0.60819855552E+02 -0.66533361967E+01  0.61674022071E+02  0.00000000000E+00 0.  1.
<mgrwt>
<rscale>  1 0.13922998E+03</rscale>
<asrwt>0</asrwt>
<pdfrwt beam="2">  1        4 0.26020139E-01 0.13922998E+03</pdfrwt>
<pdfrwt beam="1">  1       -4 0.97564903E-02 0.13922998E+03</pdfrwt>
<totfact> 0.18191865E+03</totfact>
</mgrwt>
</event>
<event>
 6    4  0.5642870E-004  0.1322998E+03  0.7818608E-02  0.1224083E+00
         -4   -1    0    0    0  501 -0.00000000000E+00  0.00000000000E+00  0.21653436455E+03  0.21653808887E+03  0.12700000000E+01 0.  1.
          4   -1    0    0  502    0  0.00000000000E+00 -0.00000000000E+00 -0.35657993323E+02  0.35680602403E+02  0.12700000000E+01 0.  1.
         25    2    1    2    0    0 -0.43437402544E+02  0.17779999944E+01  0.13533737519E+03  0.18926021778E+03  0.12495301393E+03 0.  0.
    9000005    1    3    3    0    0 -0.71884871398E+02  0.39036270856E+02  0.10620711669E+03  0.13406049684E+03  0.10000000000E+01 0.  0.
    9000005    1    3    3    0    0  0.28447468854E+02 -0.37258270862E+02  0.29130258498E+02  0.55199720941E+02  0.10000000000E+01 0.  0.
         21    1    1    2  502  501  0.43437402544E+02 -0.17779999944E+01  0.45538996042E+02  0.62958473490E+02  0.00000000000E+00 0.  1.
<mgrwt>
<rscale>  1 0.13229975E+03</rscale>
<asrwt>0</asrwt>
<pdfrwt beam="2">  1        4 0.54878706E-02 0.13229975E+03</pdfrwt>
<pdfrwt beam="1">  1       -4 0.33315006E-01 0.13229975E+03</pdfrwt>
<totfact> 0.29119673E+03</totfact>
</mgrwt>
</event>
<event>
 6    4  0.5642870E-004  0.1324289E+03  0.7818608E-02  0.1223896E+00
         -4   -1    0    0    0  501 -0.00000000000E+00  0.00000000000E+00  0.15370388876E+03  0.15370913544E+03  0.12700000000E+01 0. -1.
          4   -1    0    0  502    0  0.00000000000E+00 -0.00000000000E+00 -0.51963799326E+02  0.51979316467E+02  0.12700000000E+01 0. -1.
         25    2    1    2    0    0 -0.34920816989E+02  0.26321553140E+02  0.90933025727E+02  0.16064313867E+03  0.12500046086E+03 0.  0.
    9000005    1    3    3    0    0 -0.52495780520E+02 -0.18174580207E+02 -0.25546893788E+01  0.55620578709E+02  0.10000000000E+01 0.  0.
    9000005    1    3    3    0    0  0.17574963531E+02  0.44496133347E+02  0.93487715105E+02  0.10502255996E+03  0.10000000000E+01 0.  0.
         21    1    1    2  502  501  0.34920816989E+02 -0.26321553140E+02  0.10807063705E+02  0.45045313239E+02  0.00000000000E+00 0.  1.
<mgrwt>
<rscale>  1 0.13242886E+03</rscale>
<asrwt>0</asrwt>
<pdfrwt beam="2">  1        4 0.79960279E-02 0.13242886E+03</pdfrwt>
<pdfrwt beam="1">  1       -4 0.23648349E-01 0.13242886E+03</pdfrwt>
<totfact> 0.29908699E+03</totfact>
</mgrwt>
</event>
<event>
 6    4  0.5642870E-004  0.1282907E+03  0.7818608E-02  0.1230014E+00
         -4   -1    0    0    0  501 -0.00000000000E+00  0.00000000000E+00  0.42892042584E+01  0.44732732054E+01  0.12700000000E+01 0. -1.
          4   -1    0    0  502    0  0.00000000000E+00 -0.00000000000E+00 -0.14090265617E+04  0.14090271341E+04  0.12700000000E+01 0. -1.
         25    2    1    2    0    0 -0.21379781529E+02 -0.19384621506E+02 -0.11450406748E+04  0.11522051230E+04  0.12500255940E+03 0.  0.
    9000005    1    3    3    0    0  0.15385590549E+02  0.40169640769E+02 -0.73297523351E+03  0.73423702534E+03  0.10000000000E+01 0.  0.
    9000005    1    3    3    0    0 -0.36765372078E+02 -0.59554262275E+02 -0.41206544131E+03  0.41796809766E+03  0.10000000000E+01 0.  0.
         21    1    1    2  502  501  0.21379781529E+02  0.19384621506E+02 -0.25969668266E+03  0.26129528429E+03  0.00000000000E+00 0. -1.
<mgrwt>
<rscale>  1 0.12829068E+03</rscale>
<asrwt>0</asrwt>
<pdfrwt beam="2">  1        4 0.21678716E+00 0.12829068E+03</pdfrwt>
<pdfrwt beam="1">  1       -4 0.67408188E-03 0.12829068E+03</pdfrwt>
<totfact> 0.10074578E+03</totfact>
</mgrwt>
</event>
<event>
 6    4  0.5642870E-004  0.1277372E+03  0.7818608E-02  0.1230853E+00
         -4   -1    0    0    0  501 -0.00000000000E+00  0.00000000000E+00  0.63965770054E+02  0.63978376336E+02  0.12700000000E+01 0.  1.
          4   -1    0    0  502    0  0.00000000000E+00 -0.00000000000E+00 -0.17194341586E+03  0.17194810600E+03  0.12700000000E+01 0.  1.
         25    2    1    2    0    0 -0.84213380264E+01  0.24898740571E+02 -0.30677083489E+01  0.12777399187E+03  0.12500366374E+03 0.  0.
    9000005    1    3    3    0    0  0.96092831866E+01  0.73726708071E+02 -0.10818445223E+02  0.75139899942E+02  0.10000000000E+01 0.  0.
    9000005    1    3    3    0    0 -0.18030621213E+02 -0.48827967500E+02  0.77507368736E+01  0.52634091933E+02  0.10000000000E+01 0.  0.
         21    1    1    2  502  501  0.84213380264E+01 -0.24898740571E+02 -0.10490993745E+03  0.10815249046E+03  0.00000000000E+00 0.  1.
<mgrwt>
<rscale>  1 0.12773716E+03</rscale>
<asrwt>0</asrwt>
<pdfrwt beam="2">  1        4 0.26454164E-01 0.12773716E+03</pdfrwt>
<pdfrwt beam="1">  1       -4 0.98422183E-02 0.12773716E+03</pdfrwt>
<totfact> 0.17053867E+03</totfact>
</mgrwt>
</event>
<event>
 6    4  0.5642870E-004  0.1270663E+03  0.7818608E-02  0.1231875E+00
         -4   -1    0    0    0  501 -0.00000000000E+00  0.00000000000E+00  0.31657459358E+03  0.31657714100E+03  0.12700000000E+01 0. -1.
          4   -1    0    0  502    0  0.00000000000E+00 -0.00000000000E+00 -0.18948737089E+02  0.18991248966E+02  0.12700000000E+01 0. -1.
         25    2    1    2    0    0 -0.21338570572E+01  0.22693165241E+02  0.21389818546E+03  0.24879364715E+03  0.12500524798E+03 0.  0.
    9000005    1    3    3    0    0 -0.18711261313E+01  0.42092203981E+02  0.91519489681E+01  0.43127867081E+02  0.10000000000E+01 0.  0.
    9000005    1    3    3    0    0 -0.26273092587E+00 -0.19399038740E+02  0.20474623649E+03  0.20566578007E+03  0.10000000000E+01 0.  0.
         21    1    1    2  502  501  0.21338570572E+01 -0.22693165241E+02  0.83727671032E+02  0.86774742818E+02  0.00000000000E+00 0. -1.
<mgrwt>
<rscale>  1 0.12706630E+03</rscale>
<asrwt>0</asrwt>
<pdfrwt beam="2">  1        4 0.29186565E-02 0.12706630E+03</pdfrwt>
<pdfrwt beam="1">  1       -4 0.48707248E-01 0.12706630E+03</pdfrwt>
<totfact> 0.37197715E+03</totfact>
</mgrwt>
</event>
<event>
 6    4  0.5642870E-004  0.1276986E+03  0.7818608E-02  0.1230911E+00
          4   -1    0    0  502    0  0.00000000000E+00  0.00000000000E+00  0.59440683101E+03  0.59440818774E+03  0.12700000000E+01 0. -1.
         -4   -1    0    0    0  501 -0.00000000000E+00 -0.00000000000E+00 -0.12270928076E+02  0.12336473396E+02  0.12700000000E+01 0. -1.
         25    2    1    2    0    0  0.18818560744E+02  0.18128502164E+02  0.33977664702E+03  0.36298086204E+03  0.12499662209E+03 0.  0.
    9000005    1    3    3    0    0  0.55416903256E+02 -0.24535037026E+02  0.10202070204E+03  0.11866855040E+03  0.10000000000E+01 0.  0.
    9000005    1    3    3    0    0 -0.36598342513E+02  0.42663539190E+02  0.23775594497E+03  0.24431231164E+03  0.10000000000E+01 0.  0.
         21    1    1    2  502  501 -0.18818560744E+02 -0.18128502164E+02  0.24235925592E+03  0.24376379909E+03  0.00000000000E+00 0. -1.
<mgrwt>
<rscale>  1 0.12769862E+03</rscale>
<asrwt>0</asrwt>
<pdfrwt beam="1">  1        4 0.91452358E-01 0.12769862E+03</pdfrwt>
<pdfrwt beam="2">  1       -4 0.18929813E-02 0.12769862E+03</pdfrwt>
<totfact> 0.18920876E+03</totfact>
</mgrwt>
</event>
<event>
 6    4  0.5642870E-004  0.1527085E+03  0.7818608E-02  0.1197184E+00
         -4   -1    0    0    0  501 -0.00000000000E+00  0.00000000000E+00  0.26934206741E+03  0.26934506154E+03  0.12700000000E+01 0.  1.
          4   -1    0    0  502    0  0.00000000000E+00 -0.00000000000E+00 -0.55854169203E+02  0.55868605830E+02  0.12700000000E+01 0.  1.
         25    2    1    2    0    0 -0.13143523613E+02 -0.86734728130E+02  0.16562540043E+03  0.22528127037E+03  0.12499684890E+03 0.  0.
    9000005    1    3    3    0    0 -0.15619420000E+02 -0.47894539393E+02  0.17755228493E+03  0.18456344998E+03  0.10000000000E+01 0.  0.
    9000005    1    3    3    0    0  0.24758963868E+01 -0.38840188737E+02 -0.11926884493E+02  0.40717820395E+02  0.10000000000E+01 0.  0.
         21    1    1    2  502  501  0.13143523613E+02  0.86734728130E+02  0.47862497773E+02  0.99932396999E+02  0.00000000000E+00 0.  1.
<mgrwt>
<rscale>  1 0.15270847E+03</rscale>
<asrwt>0</asrwt>
<pdfrwt beam="2">  1        4 0.85942901E-02 0.15270847E+03</pdfrwt>
<pdfrwt beam="1">  1       -4 0.41438581E-01 0.15270847E+03</pdfrwt>
<totfact> 0.94005284E+02</totfact>
</mgrwt>
</event>
<event>
 6    4  0.5642870E-004  0.1302048E+03  0.7818608E-02  0.1227152E+00
          4   -1    0    0  502    0  0.00000000000E+00  0.00000000000E+00  0.24171132500E+03  0.24171466139E+03  0.12700000000E+01 0.  1.
         -4   -1    0    0    0  501 -0.00000000000E+00 -0.00000000000E+00 -0.10253540657E+03  0.10254327135E+03  0.12700000000E+01 0.  1.
         25    2    1    2    0    0 -0.76810967948E+01  0.35627137962E+02 -0.58863908418E+02  0.14289243117E+03  0.12499997986E+03 0.  0.
    9000005    1    3    3    0    0 -0.41273537498E+00 -0.47114143747E+02 -0.20365114437E+02  0.51338589555E+02  0.10000000000E+01 0.  0.
    9000005    1    3    3    0    0 -0.72683614198E+01  0.82741281709E+02 -0.38498793981E+02  0.91553841615E+02  0.10000000000E+01 0.  0.
         21    1    1    2  502  501  0.76810967948E+01 -0.35627137962E+02  0.19803982685E+03  0.20136550158E+03  0.00000000000E+00 0.  1.
<mgrwt>
<rscale>  1 0.13020479E+03</rscale>
<asrwt>0</asrwt>
<pdfrwt beam="1">  1        4 0.37187219E-01 0.13020479E+03</pdfrwt>
<pdfrwt beam="2">  1       -4 0.15775540E-01 0.13020479E+03</pdfrwt>
<totfact> 0.39920886E+02</totfact>
</mgrwt>
</event>
<event>
 6    4  0.5642870E-004  0.1283749E+03  0.7818608E-02  0.1229887E+00
         -4   -1    0    0    0  501 -0.00000000000E+00  0.00000000000E+00  0.65639518370E+03  0.65639641230E+03  0.12700000000E+01 0.  1.
          4   -1    0    0  502    0  0.00000000000E+00 -0.00000000000E+00 -0.96375194809E+01  0.97208375022E+01  0.12700000000E+01 0.  1.
         25    2    1    2    0    0 -0.29220068351E+02 -0.53404703122E+00  0.48282446984E+03  0.49959941346E+03  0.12500403056E+03 0.  0.
    9000005    1    3    3    0    0  0.83507373834E+01  0.58080700819E+02  0.21329954373E+03  0.22122567206E+03  0.10000000000E+01 0.  0.
    9000005    1    3    3    0    0 -0.37570805734E+02 -0.58614747850E+02  0.26952492611E+03  0.27837374140E+03  0.10000000000E+01 0.  0.
         21    1    1    2  502  501  0.29220068351E+02  0.53404703122E+00  0.16393319438E+03  0.16651783634E+03  0.00000000000E+00 0. -1.
<mgrwt>
<rscale>  1 0.12837486E+03</rscale>
<asrwt>0</asrwt>
<pdfrwt beam="2">  1        4 0.14891992E-02 0.12837486E+03</pdfrwt>
<pdfrwt beam="1">  1       -4 0.10099035E+00 0.12837486E+03</pdfrwt>
<totfact> 0.21787238E+03</totfact>
</mgrwt>
</event>
<event>
 6    4  0.5642870E-004  0.1274612E+03  0.7818608E-02  0.1231272E+00
          4   -1    0    0  502    0  0.00000000000E+00  0.00000000000E+00  0.46181701269E+02  0.46199160513E+02  0.12700000000E+01 0. -1.
         -4   -1    0    0    0  501 -0.00000000000E+00 -0.00000000000E+00 -0.16716042797E+03  0.16716525231E+03  0.12700000000E+01 0. -1.
         25    2    1    2    0    0 -0.15026426613E+02  0.19852768652E+02 -0.13427506455E+03  0.18513821009E+03  0.12500575169E+03 0.  0.
    9000005    1    3    3    0    0 -0.46341214871E+02 -0.34727462688E+02 -0.35233161283E+02  0.67792923779E+02  0.10000000000E+01 0.  0.
    9000005    1    3    3    0    0  0.31314788259E+02  0.54580231340E+02 -0.99041903272E+02  0.11734528632E+03  0.10000000000E+01 0.  0.
         21    1    1    2  502  501  0.15026426613E+02 -0.19852768652E+02  0.13296337855E+02  0.28226202725E+02  0.00000000000E+00 0. -1.
<mgrwt>
<rscale>  1 0.12746122E+03</rscale>
<asrwt>0</asrwt>
<pdfrwt beam="1">  1        4 0.71065913E-02 0.12746122E+03</pdfrwt>
<pdfrwt beam="2">  1       -4 0.25718703E-01 0.12746122E+03</pdfrwt>
<totfact> 0.30838587E+03</totfact>
</mgrwt>
</event>
<event>
 6    4  0.5642870E-004  0.1268156E+03  0.7818608E-02  0.1232259E+00
         -4   -1    0    0    0  501 -0.00000000000E+00  0.00000000000E+00  0.38422954767E+02  0.38443937793E+02  0.12700000000E+01 0.  1.
          4   -1    0    0  502    0  0.00000000000E+00 -0.00000000000E+00 -0.14771390458E+03  0.14771936402E+03  0.12700000000E+01 0.  1.
         25    2    1    2    0    0  0.40619492870E+01 -0.20994157068E+02 -0.80158261159E+02  0.15002512793E+03  0.12499975247E+03 0.  0.
    9000005    1    3    3    0    0 -0.20936852041E+02  0.88665945821E+01  0.27405955595E+02  0.35623793663E+02  0.10000000000E+01 0.  0.
    9000005    1    3    3    0    0  0.24998801328E+02 -0.29860751650E+02 -0.10756421675E+03  0.11440133427E+03  0.10000000000E+01 0.  0.
         21    1    1    2  502  501 -0.40619492870E+01  0.20994157068E+02 -0.29132688652E+02  0.36138173876E+02  0.00000000000E+00 0.  1.
<mgrwt>
<rscale>  1 0.12681558E+03</rscale>
<asrwt>0</asrwt>
<pdfrwt beam="2">  1        4 0.22727250E-01 0.12681558E+03</pdfrwt>
<pdfrwt beam="1">  1       -4 0.59132579E-02 0.12681558E+03</pdfrwt>
<totfact> 0.52164667E+03</totfact>
</mgrwt>
</event>
<event>
 6    4  0.5642870E-004  0.1267326E+03  0.7818608E-02  0.1232386E+00
         -4   -1    0    0    0  501 -0.00000000000E+00  0.00000000000E+00  0.78714959796E+03  0.78715062248E+03  0.12700000000E+01 0.  1.
          4   -1    0    0  502    0  0.00000000000E+00 -0.00000000000E+00 -0.11473199844E+02  0.11543275734E+02  0.12700000000E+01 0.  1.
         25    2    1    2    0    0 -0.10714712112E+02  0.17932743175E+02  0.76463340564E+03  0.77506476331E+03  0.12499901589E+03 0.  0.
    9000005    1    3    3    0    0  0.44614177672E+02  0.21518542370E+02  0.58432596932E+03  0.58642246797E+03  0.10000000000E+01 0.  0.
    9000005    1    3    3    0    0 -0.55328889784E+02 -0.35857991944E+01  0.18030743632E+03  0.18864229534E+03  0.10000000000E+01 0.  0.
         21    1    1    2  502  501  0.10714712112E+02 -0.17932743175E+02  0.11042992479E+02  0.23629134904E+02  0.00000000000E+00 0.  1.
<mgrwt>
<rscale>  1 0.12673256E+03</rscale>
<asrwt>0</asrwt>
<pdfrwt beam="2">  1        4 0.17705768E-02 0.12673256E+03</pdfrwt>
<pdfrwt beam="1">  1       -4 0.12110542E+00 0.12673256E+03</pdfrwt>
<totfact> 0.10870670E+03</totfact>
</mgrwt>
</event>
<event>
 6    4  0.5642870E-004  0.1286194E+03  0.7818608E-02  0.1229519E+00
         -4   -1    0    0    0  501 -0.00000000000E+00  0.00000000000E+00  0.16602886244E+03  0.16603371966E+03  0.12700000000E+01 0. -1.
          4   -1    0    0  502    0  0.00000000000E+00 -0.00000000000E+00 -0.47876898175E+02  0.47893739454E+02  0.12700000000E+01 0. -1.
         25    2    1    2    0    0 -0.31020680426E+01 -0.30140203040E+02  0.12859578527E+03  0.18187862041E+03  0.12499960763E+03 0.  0.
    9000005    1    3    3    0    0  0.48748271791E+02 -0.47485366731E+02  0.97703016974E+02  0.11907196808E+03  0.10000000000E+01 0.  0.
    9000005    1    3    3    0    0 -0.51850339834E+02  0.17345163691E+02  0.30892768291E+02  0.62806652331E+02  0.10000000000E+01 0.  0.
         21    1    1    2  502  501  0.31020680426E+01  0.30140203040E+02 -0.10443820995E+02  0.32048838706E+02  0.00000000000E+00 0. -1.
<mgrwt>
<rscale>  1 0.12861943E+03</rscale>
<asrwt>0</asrwt>
<pdfrwt beam="2">  1        4 0.73673459E-02 0.12861943E+03</pdfrwt>
<pdfrwt beam="1">  1       -4 0.25544571E-01 0.12861943E+03</pdfrwt>
<totfact> 0.29497415E+03</totfact>
</mgrwt>
</event>
<event>
 6    4  0.5642870E-004  0.1294488E+03  0.7818608E-02  0.1228276E+00
         -4   -1    0    0    0  501 -0.00000000000E+00  0.00000000000E+00  0.25714282188E+02  0.25745625035E+02  0.12700000000E+01 0.  1.
          4   -1    0    0  502    0  0.00000000000E+00 -0.00000000000E+00 -0.29047444035E+03  0.29047721666E+03  0.12700000000E+01 0.  1.
         25    2    1    2    0    0 -0.95362482966E+01 -0.32249809982E+02 -0.15781212026E+03  0.20411185612E+03  0.12500397686E+03 0.  0.
    9000005    1    3    3    0    0 -0.77345647821E+01 -0.62789189408E+02 -0.25352994672E+02  0.68162160600E+02  0.10000000000E+01 0.  0.
    9000005    1    3    3    0    0 -0.18016835145E+01  0.30539379426E+02 -0.13245912559E+03  0.13594969552E+03  0.10000000000E+01 0.  0.
         21    1    1    2  502  501  0.95362482966E+01  0.32249809982E+02 -0.10694803790E+03  0.11211098557E+03  0.00000000000E+00 0.  1.
<mgrwt>
<rscale>  1 0.12944877E+03</rscale>
<asrwt>0</asrwt>
<pdfrwt beam="2">  1        4 0.44690998E-01 0.12944877E+03</pdfrwt>
<pdfrwt beam="1">  1       -4 0.39586682E-02 0.12944877E+03</pdfrwt>
<totfact> 0.27501051E+03</totfact>
</mgrwt>
</event>
<event>
 6    4  0.5642870E-004  0.1295512E+03  0.7818608E-02  0.1228123E+00
          4   -1    0    0  502    0  0.00000000000E+00  0.00000000000E+00  0.32551390730E+03  0.32551638475E+03  0.12700000000E+01 0. -1.
         -4   -1    0    0    0  501 -0.00000000000E+00 -0.00000000000E+00 -0.26535679918E+02  0.26566053691E+02  0.12700000000E+01 0. -1.
         25    2    1    2    0    0  0.21717283441E+02 -0.26236840575E+02  0.14526792691E+03  0.19464397849E+03  0.12499398213E+03 0.  0.
    9000005    1    3    3    0    0 -0.22006686852E+02 -0.57661585005E+02  0.12045181503E+03  0.13534693345E+03  0.10000000000E+01 0.  0.
    9000005    1    3    3    0    0  0.43723970293E+02  0.31424744430E+02  0.24816111877E+02  0.59297045031E+02  0.10000000000E+01 0.  0.
         21    1    1    2  502  501 -0.21717283441E+02  0.26236840575E+02  0.15371030047E+03  0.15743845996E+03  0.00000000000E+00 0.  1.
<mgrwt>
<rscale>  1 0.12955118E+03</rscale>
<asrwt>0</asrwt>
<pdfrwt beam="1">  1        4 0.50081590E-01 0.12955118E+03</pdfrwt>
<pdfrwt beam="2">  1       -4 0.40849393E-02 0.12955118E+03</pdfrwt>
<totfact> 0.20798038E+03</totfact>
</mgrwt>
</event>
<event>
 6    4  0.5642870E-004  0.1275312E+03  0.7818608E-02  0.1231166E+00
         -4   -1    0    0    0  501 -0.00000000000E+00  0.00000000000E+00  0.57126169004E+02  0.57140284258E+02  0.12700000000E+01 0.  1.
          4   -1    0    0  502    0  0.00000000000E+00 -0.00000000000E+00 -0.10245690007E+03  0.10246477088E+03  0.12700000000E+01 0.  1.
         25    2    1    2    0    0  0.15721567736E+02 -0.19814685508E+02 -0.34698666013E+02  0.13216730266E+03  0.12499763604E+03 0.  0.
    9000005    1    3    3    0    0 -0.12248397071E+02  0.47789341303E+02  0.37969356059E+01  0.49490010032E+02  0.10000000000E+01 0.  0.
    9000005    1    3    3    0    0  0.27969964806E+02 -0.67604026812E+02 -0.38495601618E+02  0.82677292628E+02  0.10000000000E+01 0.  0.
         21    1    1    2  502  501 -0.15721567736E+02  0.19814685508E+02 -0.10632065054E+02  0.27437752480E+02  0.00000000000E+00 0.  1.
<mgrwt>
<rscale>  1 0.12753117E+03</rscale>
<asrwt>0</asrwt>
<pdfrwt beam="2">  1        4 0.15764291E-01 0.12753117E+03</pdfrwt>
<pdfrwt beam="1">  1       -4 0.87903326E-02 0.12753117E+03</pdfrwt>
<totfact> 0.52348099E+03</totfact>
</mgrwt>
</event>
<event>
 6    4  0.5642870E-004  0.1324997E+03  0.7818608E-02  0.1223793E+00
          4   -1    0    0  502    0  0.00000000000E+00  0.00000000000E+00  0.14347203371E+03  0.14347765455E+03  0.12700000000E+01 0.  1.
         -4   -1    0    0    0  501 -0.00000000000E+00 -0.00000000000E+00 -0.58447290386E+02  0.58461086660E+02  0.12700000000E+01 0.  1.
         25    2    1    2    0    0 -0.43003894285E+02  0.90122296306E+01  0.38576039111E+02  0.13800097984E+03  0.12500241772E+03 0.  0.
    9000005    1    3    3    0    0  0.45014687061E+01  0.37889308783E+02 -0.30833214912E+02  0.49066792054E+02  0.10000000000E+01 0.  0.
    9000005    1    3    3    0    0 -0.47505362991E+02 -0.28877079153E+02  0.69409254023E+02  0.88934187787E+02  0.10000000000E+01 0.  0.
         21    1    1    2  502  501  0.43003894285E+02 -0.90122296306E+01  0.46448704209E+02  0.63937761372E+02  0.00000000000E+00 0.  1.
<mgrwt>
<rscale>  1 0.13249966E+03</rscale>
<asrwt>0</asrwt>
<pdfrwt beam="1">  1        4 0.22074114E-01 0.13249966E+03</pdfrwt>
<pdfrwt beam="2">  1       -4 0.89933846E-02 0.13249966E+03</pdfrwt>
<totfact> 0.27898797E+03</totfact>
</mgrwt>
</event>
<event>
 6    4  0.5642870E-004  0.1279924E+03  0.7818608E-02  0.1230465E+00
         -4   -1    0    0    0  501 -0.00000000000E+00  0.00000000000E+00  0.95143126243E+02  0.95151602043E+02  0.12700000000E+01 0.  1.
          4   -1    0    0  502    0  0.00000000000E+00 -0.00000000000E+00 -0.68367148588E+02  0.68378943441E+02  0.12700000000E+01 0.  1.
         25    2    1    2    0    0 -0.25539854075E+02  0.10246255252E+02  0.38442845099E+02  0.13364098729E+03  0.12499916501E+03 0.  0.
    9000005    1    3    3    0    0 -0.60873891661E+02  0.36351674402E+02  0.51684751984E+02  0.87746159491E+02  0.10000000000E+01 0.  0.
    9000005    1    3    3    0    0  0.35334037586E+02 -0.26105419150E+02 -0.13241906884E+02  0.45894827803E+02  0.10000000000E+01 0.  0.
         21    1    1    2  502  501  0.25539854075E+02 -0.10246255252E+02 -0.11666867444E+02  0.29889558190E+02  0.00000000000E+00 0. -1.
<mgrwt>
<rscale>  1 0.12799243E+03</rscale>
<asrwt>0</asrwt>
<pdfrwt beam="2">  1        4 0.10519582E-01 0.12799243E+03</pdfrwt>
<pdfrwt beam="1">  1       -4 0.14638963E-01 0.12799243E+03</pdfrwt>
<totfact> 0.44116589E+03</totfact>
</mgrwt>
</event>
<event>
 6    4  0.5642870E-004  0.1841211E+03  0.7818608E-02  0.1163873E+00
         -4   -1    0    0    0  501 -0.00000000000E+00  0.00000000000E+00  0.57714276110E+03  0.57714415841E+03  0.12700000000E+01 0. -1.
          4   -1    0    0  502    0  0.00000000000E+00 -0.00000000000E+00 -0.46265159959E+02  0.46282587720E+02  0.12700000000E+01 0. -1.
         25    2    1    2    0    0  0.84515796778E+02  0.10550917199E+03  0.37008863242E+03  0.41335961938E+03  0.12500189523E+03 0.  0.
    9000005    1    3    3    0    0  0.18570947423E+02  0.57464452657E+02  0.29930852219E+03  0.30534183281E+03  0.10000000000E+01 0.  0.
    9000005    1    3    3    0    0  0.65944849354E+02  0.48044719333E+02  0.70780110232E+02  0.10801778658E+03  0.10000000000E+01 0.  0.
         21    1    1    2  502  501 -0.84515796778E+02 -0.10550917199E+03  0.16078896872E+03  0.21006712675E+03  0.00000000000E+00 0. -1.
<mgrwt>
<rscale>  1 0.18412110E+03</rscale>
<asrwt>0</asrwt>
<pdfrwt beam="2">  1        4 0.71191652E-02 0.18412110E+03</pdfrwt>
<pdfrwt beam="1">  1       -4 0.88792639E-01 0.18412110E+03</pdfrwt>
<totfact> 0.26465258E+02</totfact>
</mgrwt>
</event>
<event>
 6    4  0.5642870E-004  0.1291093E+03  0.7818608E-02  0.1228783E+00
          4   -1    0    0  502    0  0.00000000000E+00  0.00000000000E+00  0.79196349009E+01  0.80208177241E+01  0.12700000000E+01 0. -1.
         -4   -1    0    0    0  501 -0.00000000000E+00 -0.00000000000E+00 -0.96886315185E+03  0.96886398422E+03  0.12700000000E+01 0. -1.
         25    2    1    2    0    0 -0.22249394195E+02 -0.23414160895E+02 -0.88485436814E+03  0.89422394640E+03  0.12500382004E+03 0.  0.
    9000005    1    3    3    0    0  0.32640768517E+01  0.49622671976E+02 -0.42574657827E+03  0.42864228989E+03  0.10000000000E+01 0.  0.
    9000005    1    3    3    0    0 -0.25513471047E+02 -0.73036832870E+02 -0.45910778986E+03  0.46558165651E+03  0.10000000000E+01 0.  0.
         21    1    1    2  502  501  0.22249394195E+02  0.23414160895E+02 -0.76089148814E+02  0.82660855547E+02  0.00000000000E+00 0. -1.
<mgrwt>
<rscale>  1 0.12910931E+03</rscale>
<asrwt>0</asrwt>
<pdfrwt beam="1">  1        4 0.12262535E-02 0.12910931E+03</pdfrwt>
<pdfrwt beam="2">  1       -4 0.14906362E+00 0.12910931E+03</pdfrwt>
<totfact> 0.11432906E+03</totfact>
</mgrwt>
</event>
<event>
 6    4  0.5642870E-004  0.1267454E+03  0.7818608E-02  0.1232366E+00
          4   -1    0    0  502    0  0.00000000000E+00  0.00000000000E+00  0.46266107209E+03  0.46266281515E+03  0.12700000000E+01 0.  1.
         -4   -1    0    0    0  501 -0.00000000000E+00 -0.00000000000E+00 -0.26943491425E+02  0.26973405980E+02  0.12700000000E+01 0.  1.
         25    2    1    2    0    0  0.78782193421E+01  0.19411084260E+02  0.12433195094E+03  0.17754670363E+03  0.12500216564E+03 0.  0.
    9000005    1    3    3    0    0 -0.51737175069E+01  0.62936030088E+02  0.24293647146E+02  0.67667514568E+02  0.10000000000E+01 0.  0.
    9000005    1    3    3    0    0  0.13051936849E+02 -0.43524945828E+02  0.10003830379E+03  0.10987918907E+03  0.10000000000E+01 0.  0.
         21    1    1    2  502  501 -0.78782193421E+01 -0.19411084260E+02  0.31138562973E+03  0.31208951750E+03  0.00000000000E+00 0.  1.
<mgrwt>
<rscale>  1 0.12674541E+03</rscale>
<asrwt>0</asrwt>
<pdfrwt beam="1">  1        4 0.71181058E-01 0.12674541E+03</pdfrwt>
<pdfrwt beam="2">  1       -4 0.41475879E-02 0.12674541E+03</pdfrwt>
<totfact> 0.96670131E+02</totfact>
</mgrwt>
</event>
<event>
 6    4  0.5642870E-004  0.1277219E+03  0.7818608E-02  0.1230876E+00
         -4   -1    0    0    0  501 -0.00000000000E+00  0.00000000000E+00  0.11334778800E+03  0.11335490260E+03  0.12700000000E+01 0.  1.
          4   -1    0    0  502    0  0.00000000000E+00 -0.00000000000E+00 -0.52260882652E+02  0.52276311611E+02  0.12700000000E+01 0.  1.
         25    2    1    2    0    0  0.15130060870E+02  0.21404113906E+02  0.49646652399E+02  0.13703166489E+03  0.12500332897E+03 0.  0.
    9000005    1    3    3    0    0  0.36612614581E+02  0.64076396810E+02  0.50171228771E+02  0.89243601289E+02  0.10000000000E+01 0.  0.
    9000005    1    3    3    0    0 -0.21482553711E+02 -0.42672282904E+02 -0.52457637183E+00  0.47788063599E+02  0.10000000000E+01 0.  0.
         21    1    1    2  502  501 -0.15130060870E+02 -0.21404113906E+02  0.11440252944E+02  0.28599549322E+02  0.00000000000E+00 0. -1.
<mgrwt>
<rscale>  1 0.12772191E+03</rscale>
<asrwt>0</asrwt>
<pdfrwt beam="2">  1        4 0.80418699E-02 0.12772191E+03</pdfrwt>
<pdfrwt beam="1">  1       -4 0.17439855E-01 0.12772191E+03</pdfrwt>
<totfact> 0.50813801E+03</totfact>
</mgrwt>
</event>
<event>
 6    4  0.5642870E-004  0.1270031E+03  0.7818608E-02  0.1231972E+00
         -4   -1    0    0    0  501 -0.00000000000E+00  0.00000000000E+00  0.15496009436E+02  0.15547964768E+02  0.12700000000E+01 0. -1.
          4   -1    0    0  502    0  0.00000000000E+00 -0.00000000000E+00 -0.37288816492E+03  0.37289032763E+03  0.12700000000E+01 0. -1.
         25    2    1    2    0    0  0.22463758930E+02  0.27141293803E+00 -0.27281292057E+03  0.30092634402E+03  0.12500032305E+03 0.  0.
    9000005    1    3    3    0    0 -0.50106725094E+02  0.13433849733E+02 -0.13476153720E+03  0.14440506961E+03  0.10000000000E+01 0.  0.
    9000005    1    3    3    0    0  0.72570484024E+02 -0.13162436795E+02 -0.13805138337E+03  0.15652127441E+03  0.10000000000E+01 0.  0.
         21    1    1    2  502  501 -0.22463758930E+02 -0.27141293803E+00 -0.84579234917E+02  0.87511948380E+02  0.00000000000E+00 0.  1.
<mgrwt>
<rscale>  1 0.12700305E+03</rscale>
<asrwt>0</asrwt>
<pdfrwt beam="2">  1        4 0.57371566E-01 0.12700305E+03</pdfrwt>
<pdfrwt beam="1">  1       -4 0.23881647E-02 0.12700305E+03</pdfrwt>
<totfact> 0.36309020E+03</totfact>
</mgrwt>
</event>
<event>
 6    4  0.5642870E-004  0.1294593E+03  0.7818608E-02  0.1228260E+00
          4   -1    0    0  502    0  0.00000000000E+00  0.00000000000E+00  0.42748583105E+01  0.44595194332E+01  0.12700000000E+01 0.  1.
         -4   -1    0    0    0  501 -0.00000000000E+00 -0.00000000000E+00 -0.15326141441E+04  0.15326146703E+04  0.12700000000E+01 0.  1.
         25    2    1    2    0    0 -0.18168679971E+02 -0.28366967500E+02 -0.12581883560E+04  0.12648310803E+04  0.12499974672E+03 0.  0.
    9000005    1    3    3    0    0  0.50642464784E+00  0.34310908466E+02 -0.12134160691E+03  0.12610424447E+03  0.10000000000E+01 0.  0.
    9000005    1    3    3    0    0 -0.18675104619E+02 -0.62677875966E+02 -0.11368467491E+04  0.11387268358E+04  0.10000000000E+01 0.  0.
         21    1    1    2  502  501  0.18168679971E+02  0.28366967500E+02 -0.27015092981E+03  0.27224310947E+03  0.00000000000E+00 0.  1.
<mgrwt>
<rscale>  1 0.12945935E+03</rscale>
<asrwt>0</asrwt>
<pdfrwt beam="1">  1        4 0.67191691E-03 0.12945935E+03</pdfrwt>
<pdfrwt beam="2">  1       -4 0.23580061E+00 0.12945935E+03</pdfrwt>
<totfact> 0.78326604E+02</totfact>
</mgrwt>
</event>
<event>
 6    4  0.5642870E-004  0.1296255E+03  0.7818608E-02  0.1228012E+00
         -4   -1    0    0    0  501 -0.00000000000E+00  0.00000000000E+00  0.13717319983E+03  0.13717907877E+03  0.12700000000E+01 0. -1.
          4   -1    0    0  502    0  0.00000000000E+00 -0.00000000000E+00 -0.50991916137E+02  0.51007728938E+02  0.12700000000E+01 0. -1.
         25    2    1    2    0    0 -0.27907987316E+02  0.19951598230E+02  0.51725845235E+02  0.13956480376E+03  0.12500339738E+03 0.  0.
    9000005    1    3    3    0    0 -0.38985916891E+01  0.62703963545E+02  0.63283439258E+02  0.89178359178E+02  0.10000000000E+01 0.  0.
    9000005    1    3    3    0    0 -0.24009395627E+02 -0.42752365315E+02 -0.11557594023E+02  0.50386444586E+02  0.10000000000E+01 0.  0.
         21    1    1    2  502  501  0.27907987316E+02 -0.19951598230E+02  0.34455438456E+02  0.48622003940E+02  0.00000000000E+00 0.  1.
<mgrwt>
<rscale>  1 0.12962550E+03</rscale>
<asrwt>0</asrwt>
<pdfrwt beam="2">  1        4 0.78465788E-02 0.12962550E+03</pdfrwt>
<pdfrwt beam="1">  1       -4 0.21105238E-01 0.12962550E+03</pdfrwt>
<totfact> 0.37760838E+03</totfact>
</mgrwt>
</event>
<event>
 6    4  0.5642870E-004  0.1277613E+03  0.7818608E-02  0.1230816E+00
         -4   -1    0    0    0  501 -0.00000000000E+00  0.00000000000E+00  0.15214197246E+03  0.15214727301E+03  0.12700000000E+01 0.  1.
          4   -1    0    0  502    0  0.00000000000E+00 -0.00000000000E+00 -0.40255451860E+02  0.40275480189E+02  0.12700000000E+01 0.  1.
         25    2    1    2    0    0  0.26406947416E+02 -0.40252429468E+00  0.10434512520E+03  0.16495711026E+03  0.12500181668E+03 0.  0.
    9000005    1    3    3    0    0 -0.43433824992E+02  0.26610595684E+02  0.56551898134E+02  0.76116608823E+02  0.10000000000E+01 0.  0.
    9000005    1    3    3    0    0  0.69840772408E+02 -0.27013119979E+02  0.47793227067E+02  0.88840501434E+02  0.10000000000E+01 0.  0.
         21    1    1    2  502  501 -0.26406947416E+02  0.40252429468E+00  0.75413953972E+01  0.27465642941E+02  0.00000000000E+00 0.  1.
<mgrwt>
<rscale>  1 0.12776127E+03</rscale>
<asrwt>0</asrwt>
<pdfrwt beam="2">  1        4 0.61950947E-02 0.12776127E+03</pdfrwt>
<pdfrwt beam="1">  1       -4 0.23408406E-01 0.12776127E+03</pdfrwt>
<totfact> 0.45913023E+03</totfact>
</mgrwt>
</event>
<event>
 6    4  0.5642870E-004  0.1273478E+03  0.7818608E-02  0.1231445E+00
         -4   -1    0    0    0  501 -0.00000000000E+00  0.00000000000E+00  0.84354525650E+03  0.84354621253E+03  0.12700000000E+01 0.  1.
          4   -1    0    0  502    0  0.00000000000E+00 -0.00000000000E+00 -0.74903547837E+01  0.75972570567E+01  0.12700000000E+01 0.  1.
         25    2    1    2    0    0 -0.24092753871E+02  0.33833165825E+01  0.77545558697E+03  0.78584274548E+03  0.12500218255E+03 0.  0.
    9000005    1    3    3    0    0 -0.45051634894E+02 -0.46915411948E+02  0.55279055812E+03  0.55660498276E+03  0.10000000000E+01 0.  0.
    9000005    1    3    3    0    0  0.20958881023E+02  0.50298728531E+02  0.22266502885E+03  0.22923776272E+03  0.10000000000E+01 0.  0.
         21    1    1    2  502  501  0.24092753871E+02 -0.33833165825E+01  0.60599314753E+02  0.65300724105E+02  0.00000000000E+00 0.  1.
<mgrwt>
<rscale>  1 0.12734777E+03</rscale>
<asrwt>0</asrwt>
<pdfrwt beam="2">  1        4 0.11606601E-02 0.12734777E+03</pdfrwt>
<pdfrwt beam="1">  1       -4 0.12978438E+00 0.12734777E+03</pdfrwt>
<totfact> 0.17485688E+03</totfact>
</mgrwt>
</event>
<event>
 6    4  0.5642870E-004  0.1287944E+03  0.7818608E-02  0.1229256E+00
          4   -1    0    0  502    0  0.00000000000E+00  0.00000000000E+00  0.71543591130E+03  0.71543703851E+03  0.12700000000E+01 0.  1.
         -4   -1    0    0    0  501 -0.00000000000E+00 -0.00000000000E+00 -0.11386885797E+02  0.11457489609E+02  0.12700000000E+01 0.  1.
         25    2    1    2    0    0 -0.32396604114E+01 -0.30870586213E+02  0.37735025345E+03  0.39872448659E+03  0.12499805575E+03 0.  0.
    9000005    1    3    3    0    0  0.52934340399E+02 -0.20380607011E+02  0.95018429568E+02  0.11066578285E+03  0.10000000000E+01 0.  0.
    9000005    1    3    3    0    0 -0.56174000810E+02 -0.10489979202E+02  0.28233182388E+03  0.28805870375E+03  0.10000000000E+01 0.  0.
         21    1    1    2  502  501  0.32396604114E+01  0.30870586213E+02  0.32669877206E+03  0.32817004153E+03  0.00000000000E+00 0.  1.
<mgrwt>
<rscale>  1 0.12879442E+03</rscale>
<asrwt>0</asrwt>
<pdfrwt beam="1">  1        4 0.11007258E+00 0.12879442E+03</pdfrwt>
<pdfrwt beam="2">  1       -4 0.17573463E-02 0.12879442E+03</pdfrwt>
<totfact> 0.13845561E+03</totfact>
</mgrwt>
</event>
<event>
 6    4  0.5642870E-004  0.1297873E+03  0.7818608E-02  0.1227772E+00
          4   -1    0    0  502    0  0.00000000000E+00  0.00000000000E+00  0.41706809316E+03  0.41707002677E+03  0.12700000000E+01 0.  1.
         -4   -1    0    0    0  501 -0.00000000000E+00 -0.00000000000E+00 -0.21294839738E+02  0.21332676800E+02  0.12700000000E+01 0.  1.
         25    2    1    2    0    0 -0.26556155882E+02  0.22676844816E+02  0.19259089504E+03  0.23224126328E+03  0.12500113124E+03 0.  0.
    9000005    1    3    3    0    0 -0.44247511375E+02  0.11581610141E+02  0.79672063166E+01  0.46437617648E+02  0.10000000000E+01 0.  0.
    9000005    1    3    3    0    0  0.17691355493E+02  0.11095234675E+02  0.18462368873E+03  0.18580364563E+03  0.10000000000E+01 0.  0.
         21    1    1    2  502  501  0.26556155882E+02 -0.22676844816E+02  0.20318235838E+03  0.20616144029E+03  0.00000000000E+00 0.  1.
<mgrwt>
<rscale>  1 0.12978733E+03</rscale>
<asrwt>0</asrwt>
<pdfrwt beam="1">  1        4 0.64167378E-01 0.12978733E+03</pdfrwt>
<pdfrwt beam="2">  1       -4 0.32791886E-02 0.12978733E+03</pdfrwt>
<totfact> 0.17590085E+03</totfact>
</mgrwt>
</event>
<event>
 6    4  0.5642870E-004  0.1265974E+03  0.7818608E-02  0.1232594E+00
          4   -1    0    0  502    0  0.00000000000E+00  0.00000000000E+00  0.29530068356E+01  0.32145216395E+01  0.12700000000E+01 0. -1.
         -4   -1    0    0    0  501 -0.00000000000E+00 -0.00000000000E+00 -0.19799591846E+04  0.19799595920E+04  0.12700000000E+01 0. -1.
         25    2    1    2    0    0  0.14688863194E+02  0.13642455839E+02 -0.18717182407E+04  0.18759946892E+04  0.12500008875E+03 0.  0.
    9000005    1    3    3    0    0  0.66141852913E+00  0.43238816826E+02 -0.17298775583E+04  0.17304182730E+04  0.10000000000E+01 0.  0.
    9000005    1    3    3    0    0  0.14027444665E+02 -0.29596360986E+02 -0.14184068239E+03  0.14557641625E+03  0.10000000000E+01 0.  0.
         21    1    1    2  502  501 -0.14688863194E+02 -0.13642455839E+02 -0.10528793711E+03  0.10717942435E+03  0.00000000000E+00 0.  1.
<mgrwt>
<rscale>  1 0.12659740E+03</rscale>
<asrwt>0</asrwt>
<pdfrwt beam="1">  1        4 0.47445818E-03 0.12659740E+03</pdfrwt>
<pdfrwt beam="2">  1       -4 0.30462824E+00 0.12659740E+03</pdfrwt>
<totfact> 0.52530619E+02</totfact>
</mgrwt>
</event>
<event>
 6    4  0.5642870E-004  0.1487446E+03  0.7818608E-02  0.1202024E+00
         -4   -1    0    0    0  501 -0.00000000000E+00  0.00000000000E+00  0.32830302531E+02  0.32854857545E+02  0.12700000000E+01 0.  1.
          4   -1    0    0  502    0  0.00000000000E+00 -0.00000000000E+00 -0.68620981612E+03  0.68621099134E+03  0.12700000000E+01 0.  1.
         25    2    1    2    0    0 -0.45950245715E+02  0.66249814117E+02 -0.15735198785E+03  0.21652851769E+03  0.12499795175E+03 0.  0.
    9000005    1    3    3    0    0 -0.82223019845E+02  0.32061625222E+02 -0.58705865608E+02  0.10599977104E+03  0.10000000000E+01 0.  0.
    9000005    1    3    3    0    0  0.36272774130E+02  0.34188188895E+02 -0.98646122238E+02  0.11052874665E+03  0.10000000000E+01 0.  0.
         21    1    1    2  502  501  0.45950245715E+02 -0.66249814117E+02 -0.49602752574E+03  0.50253733120E+03  0.00000000000E+00 0.  1.
<mgrwt>
<rscale>  1 0.14874458E+03</rscale>
<asrwt>0</asrwt>
<pdfrwt beam="2">  1        4 0.10557271E+00 0.14874458E+03</pdfrwt>
<pdfrwt beam="1">  1       -4 0.50527955E-02 0.14874458E+03</pdfrwt>
<totfact> 0.29978568E+02</totfact>
</mgrwt>
</event>
<event>
 6    4  0.5642870E-004  0.1275261E+03  0.7818608E-02  0.1231173E+00
         -4   -1    0    0    0  501 -0.00000000000E+00  0.00000000000E+00  0.10548050407E+02  0.10624230202E+02  0.12700000000E+01 0.  1.
          4   -1    0    0  502    0  0.00000000000E+00 -0.00000000000E+00 -0.60976103436E+03  0.60976235692E+03  0.12700000000E+01 0.  1.
         25    2    1    2    0    0 -0.25080213869E+02 -0.26713414727E+01 -0.40661037946E+03  0.42613953708E+03  0.12500700456E+03 0.  0.
    9000005    1    3    3    0    0  0.32363833007E+02 -0.42697661907E+02 -0.12593299638E+03  0.13685988308E+03  0.10000000000E+01 0.  0.
    9000005    1    3    3    0    0 -0.57444046876E+02  0.40026320435E+02 -0.28067738308E+03  0.28927965400E+03  0.10000000000E+01 0.  0.
         21    1    1    2  502  501  0.25080213869E+02  0.26713414727E+01 -0.19260260449E+03  0.19424705004E+03  0.00000000000E+00 0.  1.
<mgrwt>
<rscale>  1 0.12752609E+03</rscale>
<asrwt>0</asrwt>
<pdfrwt beam="2">  1        4 0.93815324E-01 0.12752609E+03</pdfrwt>
<pdfrwt beam="1">  1       -4 0.16287392E-02 0.12752609E+03</pdfrwt>
<totfact> 0.22471786E+03</totfact>
</mgrwt>
</event>
<event>
 6    4  0.5642870E-004  0.1272409E+03  0.7818608E-02  0.1231608E+00
         -4   -1    0    0    0  501 -0.00000000000E+00  0.00000000000E+00  0.38575055511E+02  0.38595955846E+02  0.12700000000E+01 0. -1.
          4   -1    0    0  502    0  0.00000000000E+00 -0.00000000000E+00 -0.17178805128E+03  0.17179274566E+03  0.12700000000E+01 0. -1.
         25    2    1    2    0    0 -0.59078919033E+01 -0.23029645464E+02 -0.75461563103E+02  0.14793475262E+03  0.12499990308E+03 0.  0.
    9000005    1    3    3    0    0 -0.11200092068E+02 -0.70141032930E+02 -0.70790331169E+02  0.10028697597E+03  0.10000000000E+01 0.  0.
    9000005    1    3    3    0    0  0.52922001650E+01  0.47111387466E+02 -0.46712319338E+01  0.47647776647E+02  0.10000000000E+01 0.  0.
         21    1    1    2  502  501  0.59078919033E+01  0.23029645464E+02 -0.57751432663E+02  0.62453948887E+02  0.00000000000E+00 0. -1.
<mgrwt>
<rscale>  1 0.12724089E+03</rscale>
<asrwt>0</asrwt>
<pdfrwt beam="2">  1        4 0.26430899E-01 0.12724089E+03</pdfrwt>
<pdfrwt beam="1">  1       -4 0.59365928E-02 0.12724089E+03</pdfrwt>
<totfact> 0.39298618E+03</totfact>
</mgrwt>
</event>
<event>
 6    4  0.5642870E-004  0.1317092E+03  0.7818608E-02  0.1224941E+00
          4   -1    0    0  502    0  0.00000000000E+00  0.00000000000E+00  0.15041251123E+04  0.15041256485E+04  0.12700000000E+01 0. -1.
         -4   -1    0    0    0  501 -0.00000000000E+00 -0.00000000000E+00 -0.26528543272E+02  0.26558925206E+02  0.12700000000E+01 0. -1.
         25    2    1    2    0    0 -0.31152755345E+02  0.27431645761E+02  0.13916503215E+03  0.19160953160E+03  0.12499726827E+03 0.  0.
    9000005    1    3    3    0    0  0.16273667025E+02 -0.41926378623E+02  0.30961066760E+02  0.54609899448E+02  0.10000000000E+01 0.  0.
    9000005    1    3    3    0    0 -0.47426422370E+02  0.69358024383E+02  0.10820396539E+03  0.13699963216E+03  0.10000000000E+01 0.  0.
         21    1    1    2  502  501  0.31152755345E+02 -0.27431645761E+02  0.13384315369E+04  0.13390750421E+04  0.00000000000E+00 0. -1.
<mgrwt>
<rscale>  1 0.13170917E+03</rscale>
<asrwt>0</asrwt>
<pdfrwt beam="1">  1        4 0.23140622E+00 0.13170917E+03</pdfrwt>
<pdfrwt beam="2">  1       -4 0.40836930E-02 0.13170917E+03</pdfrwt>
<totfact> 0.52491319E+01</totfact>
</mgrwt>
</event>
<event>
 6    4  0.5642870E-004  0.1271997E+03  0.7818608E-02  0.1231671E+00
          4   -1    0    0  502    0  0.00000000000E+00  0.00000000000E+00  0.67551370229E+02  0.67563307496E+02  0.12700000000E+01 0.  1.
         -4   -1    0    0    0  501 -0.00000000000E+00 -0.00000000000E+00 -0.95077672172E+03  0.95077756992E+03  0.12700000000E+01 0.  1.
         25    2    1    2    0    0  0.18234905013E+02  0.14852507557E+02 -0.94433430031E+03  0.95286254233E+03  0.12500658020E+03 0.  0.
    9000005    1    3    3    0    0 -0.28319944584E+02  0.53994354313E+02 -0.33547608265E+03  0.34097303645E+03  0.10000000000E+01 0.  0.
    9000005    1    3    3    0    0  0.46554849598E+02 -0.39141846756E+02 -0.60885821766E+03  0.61188950588E+03  0.10000000000E+01 0.  0.
         21    1    1    2  502  501 -0.18234905013E+02 -0.14852507557E+02  0.61108948812E+02  0.65478335093E+02  0.00000000000E+00 0.  1.
<mgrwt>
<rscale>  1 0.12719966E+03</rscale>
<asrwt>0</asrwt>
<pdfrwt beam="1">  1        4 0.10393503E-01 0.12719966E+03</pdfrwt>
<pdfrwt beam="2">  1       -4 0.14627432E+00 0.12719966E+03</pdfrwt>
<totfact> 0.40420236E+01</totfact>
</mgrwt>
</event>
<event>
 6    4  0.5642870E-004  0.1496825E+03  0.7818608E-02  0.1200864E+00
         -4   -1    0    0    0  501 -0.00000000000E+00  0.00000000000E+00  0.86479982135E+03  0.86480075388E+03  0.12700000000E+01 0.  1.
          4   -1    0    0  502    0  0.00000000000E+00 -0.00000000000E+00 -0.18373585394E+02  0.18417424908E+02  0.12700000000E+01 0.  1.
         25    2    1    2    0    0  0.29158432156E+02 -0.77007964751E+02  0.69414081482E+03  0.71009599565E+03  0.12499764577E+03 0.  0.
    9000005    1    3    3    0    0 -0.17121313360E+02 -0.34104344793E+02  0.56569087231E+03  0.56697743229E+03  0.10000000000E+01 0.  0.
    9000005    1    3    3    0    0  0.46279745517E+02 -0.42903619959E+02  0.12844994251E+03  0.14311856337E+03  0.10000000000E+01 0.  0.
         21    1    1    2  502  501 -0.29158432156E+02  0.77007964751E+02  0.15228542114E+03  0.17312218313E+03  0.00000000000E+00 0. -1.
<mgrwt>
<rscale>  1 0.14968250E+03</rscale>
<asrwt>0</asrwt>
<pdfrwt beam="2">  1        4 0.28301499E-02 0.14968250E+03</pdfrwt>
<pdfrwt beam="1">  1       -4 0.13304955E+00 0.14968250E+03</pdfrwt>
<totfact> 0.43202957E+02</totfact>
</mgrwt>
</event>
<event>
 6    4  0.5642870E-004  0.1278439E+03  0.7818608E-02  0.1230691E+00
          4   -1    0    0  502    0  0.00000000000E+00  0.00000000000E+00  0.92287547216E+01  0.93157293709E+01  0.12700000000E+01 0.  1.
         -4   -1    0    0    0  501 -0.00000000000E+00 -0.00000000000E+00 -0.71542377546E+03  0.71542490269E+03  0.12700000000E+01 0.  1.
         25    2    1    2    0    0  0.26167388867E+02 -0.65894021984E+01 -0.64935908078E+03  0.66182420708E+03  0.12496364602E+03 0.  0.
    9000005    1    3    3    0    0  0.17230977839E+02  0.58594776434E+02 -0.35320464143E+03  0.35844772722E+03  0.10000000000E+01 0.  0.
    9000005    1    3    3    0    0  0.89364110276E+01 -0.65184178633E+02 -0.29615443935E+03  0.30337647986E+03  0.10000000000E+01 0.  0.
         21    1    1    2  502  501 -0.26167388867E+02  0.65894021984E+01 -0.56835939954E+02  0.62916424977E+02  0.00000000000E+00 0.  1.
<mgrwt>
<rscale>  1 0.12784391E+03</rscale>
<asrwt>0</asrwt>
<pdfrwt beam="1">  1        4 0.14265860E-02 0.12784391E+03</pdfrwt>
<pdfrwt beam="2">  1       -4 0.11007193E+00 0.12784391E+03</pdfrwt>
<totfact> 0.19001093E+03</totfact>
</mgrwt>
</event>
<event>
 6    4  0.5642870E-004  0.1266873E+03  0.7818608E-02  0.1232456E+00
         -4   -1    0    0    0  501 -0.00000000000E+00  0.00000000000E+00  0.80567492828E+03  0.80567592924E+03  0.12700000000E+01 0.  1.
          4   -1    0    0  502    0  0.00000000000E+00 -0.00000000000E+00 -0.86218903134E+01  0.87149235554E+01  0.12700000000E+01 0.  1.
         25    2    1    2    0    0 -0.15269521575E+02 -0.13882947818E+02  0.77006606830E+03  0.78041746526E+03  0.12499510389E+03 0.  0.
    9000005    1    3    3    0    0  0.48778250131E+01 -0.33902661524E+02  0.73255486663E+03  0.73335585922E+03  0.10000000000E+01 0.  0.
    9000005    1    3    3    0    0 -0.20147346588E+02  0.20019713706E+02  0.37511201673E+02  0.47061606032E+02  0.10000000000E+01 0.  0.
         21    1    1    2  502  501  0.15269521575E+02  0.13882947818E+02  0.26986969661E+02  0.33973387537E+02  0.00000000000E+00 0.  1.
<mgrwt>
<rscale>  1 0.12668729E+03</rscale>
<asrwt>0</asrwt>
<pdfrwt beam="2">  1        4 0.13336771E-02 0.12668729E+03</pdfrwt>
<pdfrwt beam="1">  1       -4 0.12395731E+00 0.12668729E+03</pdfrwt>
<totfact> 0.15825309E+03</totfact>
</mgrwt>
</event>
<event>
 6    4  0.5642870E-004  0.1265991E+03  0.7818608E-02  0.1232591E+00
         -4   -1    0    0    0  501 -0.00000000000E+00  0.00000000000E+00  0.14742402658E+04  0.14742408128E+04  0.12700000000E+01 0.  1.
          4   -1    0    0  502    0  0.00000000000E+00 -0.00000000000E+00 -0.35683363303E+01  0.37876013737E+01  0.12700000000E+01 0.  1.
         25    2    1    2    0    0 -0.64683790982E+01  0.18977861445E+02  0.13122789637E+04  0.13183714984E+04  0.12500132043E+03 0.  0.
    9000005    1    3    3    0    0 -0.20041544455E+02  0.38955058275E+02  0.12601392763E+04  0.12609009301E+04  0.10000000000E+01 0.  0.
    9000005    1    3    3    0    0  0.13573165357E+02 -0.19977196830E+02  0.52139687463E+02  0.57470568291E+02  0.10000000000E+01 0.  0.
         21    1    1    2  502  501  0.64683790982E+01 -0.18977861445E+02  0.15839296572E+03  0.15965691574E+03  0.00000000000E+00 0. -1.
<mgrwt>
<rscale>  1 0.12659909E+03</rscale>
<asrwt>0</asrwt>
<pdfrwt beam="2">  1        4 0.56588499E-03 0.12659909E+03</pdfrwt>
<pdfrwt beam="1">  1       -4 0.22682248E+00 0.12659909E+03</pdfrwt>
<totfact> 0.11360968E+03</totfact>
</mgrwt>
</event>
<event>
 6    4  0.5642870E-004  0.1363308E+03  0.7818608E-02  0.1218353E+00
         -4   -1    0    0    0  501 -0.00000000000E+00  0.00000000000E+00  0.52620711527E+02  0.52636035011E+02  0.12700000000E+01 0. -1.
          4   -1    0    0  502    0  0.00000000000E+00 -0.00000000000E+00 -0.23734448133E+03  0.23734787911E+03  0.12700000000E+01 0. -1.
         25    2    1    2    0    0 -0.12015521994E+02  0.53074825393E+02 -0.50906591885E+02  0.14552510696E+03  0.12499906320E+03 0.  0.
    9000005    1    3    3    0    0  0.40274232134E+02  0.56098964856E+02  0.45775322945E+01  0.69217493698E+02  0.10000000000E+01 0.  0.
    9000005    1    3    3    0    0 -0.52289754128E+02 -0.30241394627E+01 -0.55484124180E+02  0.76307613265E+02  0.10000000000E+01 0.  0.
         21    1    1    2  502  501  0.12015521994E+02 -0.53074825393E+02 -0.13381717791E+03  0.14445880715E+03  0.00000000000E+00 0. -1.
<mgrwt>
<rscale>  1 0.13633076E+03</rscale>
<asrwt>0</asrwt>
<pdfrwt beam="2">  1        4 0.36515975E-01 0.13633076E+03</pdfrwt>
<pdfrwt beam="1">  1       -4 0.80969343E-02 0.13633076E+03</pdfrwt>
<totfact> 0.12996873E+03</totfact>
</mgrwt>
</event>
<event>
 6    4  0.5642870E-004  0.1384841E+03  0.7818608E-02  0.1215383E+00
         -4   -1    0    0    0  501 -0.00000000000E+00  0.00000000000E+00  0.76341024047E+02  0.76351587099E+02  0.12700000000E+01 0. -1.
          4   -1    0    0  502    0  0.00000000000E+00 -0.00000000000E+00 -0.20124199601E+03  0.20124600333E+03  0.12700000000E+01 0. -1.
         25    2    1    2    0    0 -0.37315248137E+02 -0.46477885518E+02  0.79437565875E+00  0.13848633280E+03  0.12500084702E+03 0.  0.
    9000005    1    3    3    0    0  0.34043711406E+02 -0.35464285970E+02  0.33208857339E+02  0.59333953782E+02  0.10000000000E+01 0.  0.
    9000005    1    3    3    0    0 -0.71358959542E+02 -0.11013599548E+02 -0.32414481681E+02  0.79152379020E+02  0.10000000000E+01 0.  0.
         21    1    1    2  502  501  0.37315248137E+02  0.46477885518E+02 -0.12569534762E+03  0.13911125763E+03  0.00000000000E+00 0. -1.
<mgrwt>
<rscale>  1 0.13848405E+03</rscale>
<asrwt>0</asrwt>
<pdfrwt beam="2">  1        4 0.30961428E-01 0.13848405E+03</pdfrwt>
<pdfrwt beam="1">  1       -4 0.11745894E-01 0.13848405E+03</pdfrwt>
<totfact> 0.95724331E+02</totfact>
</mgrwt>
</event>
<event>
 6    4  0.5642870E-004  0.1437036E+03  0.7818608E-02  0.1208431E+00
          4   -1    0    0  502    0  0.00000000000E+00  0.00000000000E+00  0.70194680151E+02  0.70206167973E+02  0.12700000000E+01 0. -1.
         -4   -1    0    0    0  501 -0.00000000000E+00 -0.00000000000E+00 -0.19872381723E+03  0.19872787533E+03  0.12700000000E+01 0. -1.
         25    2    1    2    0    0  0.36627281428E+02  0.60697506163E+02 -0.13573883362E+03  0.19767588781E+03  0.12499992268E+03 0.  0.
    9000005    1    3    3    0    0  0.45849953004E+02 -0.12023120428E+02 -0.11033371843E+03  0.12008872985E+03  0.10000000000E+01 0.  0.
    9000005    1    3    3    0    0 -0.92226715765E+01  0.72720626591E+02 -0.25405115196E+02  0.77587157964E+02  0.10000000000E+01 0.  0.
         21    1    1    2  502  501 -0.36627281428E+02 -0.60697506163E+02  0.72096965473E+01  0.71258155488E+02  0.00000000000E+00 0. -1.
<mgrwt>
<rscale>  1 0.14370360E+03</rscale>
<asrwt>0</asrwt>
<pdfrwt beam="1">  1        4 0.10800377E-01 0.14370360E+03</pdfrwt>
<pdfrwt beam="2">  1       -4 0.30574091E-01 0.14370360E+03</pdfrwt>
<totfact> 0.11396113E+03</totfact>
</mgrwt>
</event>
<event>
 6    4  0.5642870E-004  0.1270957E+03  0.7818608E-02  0.1231830E+00
         -4   -1    0    0    0  501 -0.00000000000E+00  0.00000000000E+00  0.11389842246E+04  0.11389849326E+04  0.12700000000E+01 0.  1.
          4   -1    0    0  502    0  0.00000000000E+00 -0.00000000000E+00 -0.73698373515E+01  0.74784625818E+01  0.12700000000E+01 0.  1.
         25    2    1    2    0    0  0.12181546994E+02 -0.19497647168E+02  0.11002981968E+04  0.11076143011E+04  0.12499907881E+03 0.  0.
    9000005    1    3    3    0    0  0.10841964374E+01  0.29078023156E+02  0.92261132413E+03  0.92307061610E+03  0.10000000000E+01 0.  0.
    9000005    1    3    3    0    0  0.11097350556E+02 -0.48575670323E+02  0.17768687269E+03  0.18454368497E+03  0.10000000000E+01 0.  0.
         21    1    1    2  502  501 -0.12181546994E+02  0.19497647168E+02  0.31316190395E+02  0.38849094109E+02  0.00000000000E+00 0. -1.
<mgrwt>
<rscale>  1 0.12709570E+03</rscale>
<asrwt>0</asrwt>
<pdfrwt beam="2">  1        4 0.11422317E-02 0.12709570E+03</pdfrwt>
<pdfrwt beam="1">  1       -4 0.17523670E+00 0.12709570E+03</pdfrwt>
<totfact> 0.83194627E+02</totfact>
</mgrwt>
</event>
<event>
 6    4  0.5642870E-004  0.1272639E+03  0.7818608E-02  0.1231573E+00
          4   -1    0    0  502    0  0.00000000000E+00  0.00000000000E+00  0.14662692713E+03  0.14663242704E+03  0.12700000000E+01 0.  1.
         -4   -1    0    0    0  501 -0.00000000000E+00 -0.00000000000E+00 -0.43170206857E+02  0.43188883525E+02  0.12700000000E+01 0.  1.
         25    2    1    2    0    0 -0.22718678809E+02 -0.73815564365E+01  0.61050366602E+02  0.14114971131E+03  0.12500187198E+03 0.  0.
    9000005    1    3    3    0    0 -0.25626823394E+02  0.51362724398E+02  0.14779646033E+01  0.57428633226E+02  0.10000000000E+01 0.  0.
    9000005    1    3    3    0    0  0.29081445842E+01 -0.58744280835E+02  0.59572401999E+02  0.83721078084E+02  0.10000000000E+01 0.  0.
         21    1    1    2  502  501  0.22718678809E+02  0.73815564365E+01  0.42406353667E+02  0.48671599250E+02  0.00000000000E+00 0.  1.
<mgrwt>
<rscale>  1 0.12726387E+03</rscale>
<asrwt>0</asrwt>
<pdfrwt beam="1">  1        4 0.22559848E-01 0.12726387E+03</pdfrwt>
<pdfrwt beam="2">  1       -4 0.66434301E-02 0.12726387E+03</pdfrwt>
<totfact> 0.43784015E+03</totfact>
</mgrwt>
</event>
<event>
 6    4  0.5642870E-004  0.1289919E+03  0.7818608E-02  0.1228959E+00
         -4   -1    0    0    0  501 -0.00000000000E+00  0.00000000000E+00  0.78294634672E+02  0.78304934189E+02  0.12700000000E+01 0.  1.
          4   -1    0    0  502    0  0.00000000000E+00 -0.00000000000E+00 -0.82630546301E+02  0.82640305433E+02  0.12700000000E+01 0.  1.
         25    2    1    2    0    0  0.24850345233E+02 -0.19911723506E+02 -0.18574552514E+01  0.12900530948E+03  0.12499961338E+03 0.  0.
    9000005    1    3    3    0    0 -0.35920967866E+02 -0.47397969348E+02 -0.14237947795E+02  0.61160465893E+02  0.10000000000E+01 0.  0.
    9000005    1    3    3    0    0  0.60771313100E+02  0.27486245843E+02  0.12380492544E+02  0.67844843592E+02  0.10000000000E+01 0.  0.
         21    1    1    2  502  501 -0.24850345233E+02  0.19911723506E+02 -0.24784563781E+01  0.31939930138E+02  0.00000000000E+00 0. -1.
<mgrwt>
<rscale>  1 0.12899194E+03</rscale>
<asrwt>0</asrwt>
<pdfrwt beam="2">  1        4 0.12713935E-01 0.12899194E+03</pdfrwt>
<pdfrwt beam="1">  1       -4 0.12046871E-01 0.12899194E+03</pdfrwt>
<totfact> 0.44796053E+03</totfact>
</mgrwt>
</event>
<event>
 6    4  0.5642870E-004  0.1267009E+03  0.7818608E-02  0.1232435E+00
          4   -1    0    0  502    0  0.00000000000E+00  0.00000000000E+00  0.45444193199E+01  0.47185428848E+01  0.12700000000E+01 0. -1.
         -4   -1    0    0    0  501 -0.00000000000E+00 -0.00000000000E+00 -0.14508374751E+04  0.14508380310E+04  0.12700000000E+01 0. -1.
         25    2    1    2    0    0  0.17967625738E+02  0.10249639730E+02 -0.13866859277E+04  0.13924621968E+04  0.12500086758E+03 0.  0.
    9000005    1    3    3    0    0 -0.22730452502E+02 -0.39411838435E+02 -0.26035983121E+03  0.26430703393E+03  0.10000000000E+01 0.  0.
    9000005    1    3    3    0    0  0.40698078240E+02  0.49661478164E+02 -0.11263260965E+04  0.11281551629E+04  0.10000000000E+01 0.  0.
         21    1    1    2  502  501 -0.17967625738E+02 -0.10249639730E+02 -0.59607128141E+02  0.63094377043E+02  0.00000000000E+00 0. -1.
<mgrwt>
<rscale>  1 0.12670086E+03</rscale>
<asrwt>0</asrwt>
<pdfrwt beam="1">  1        4 0.71257947E-03 0.12670086E+03</pdfrwt>
<pdfrwt beam="2">  1       -4 0.22321884E+00 0.12670086E+03</pdfrwt>
<totfact> 0.84731265E+02</totfact>
</mgrwt>
</event>
<event>
 6    4  0.5642870E-004  0.1500437E+03  0.7818608E-02  0.1200419E+00
         -4   -1    0    0    0  501 -0.00000000000E+00  0.00000000000E+00  0.52256993385E+03  0.52257147709E+03  0.12700000000E+01 0.  1.
          4   -1    0    0  502    0  0.00000000000E+00 -0.00000000000E+00 -0.28737956767E+02  0.28766005269E+02  0.12700000000E+01 0.  1.
         25    2    1    2    0    0  0.55221304369E+01 -0.82815961513E+02  0.39342947533E+03  0.42106991247E+03  0.12499656684E+03 0.  0.
    9000005    1    3    3    0    0  0.14337358785E+02 -0.11275000962E+03  0.34681855180E+03  0.36496881017E+03  0.10000000000E+01 0.  0.
    9000005    1    3    3    0    0 -0.88152283476E+01  0.29934048102E+02  0.46610923524E+02  0.56101102292E+02  0.10000000000E+01 0.  0.
         21    1    1    2  502  501 -0.55221304369E+01  0.82815961513E+02  0.10040250176E+03  0.13026756989E+03  0.00000000000E+00 0.  1.
<mgrwt>
<rscale>  1 0.15004372E+03</rscale>
<asrwt>0</asrwt>
<pdfrwt beam="2">  1        4 0.44235008E-02 0.15004372E+03</pdfrwt>
<pdfrwt beam="1">  1       -4 0.80397644E-01 0.15004372E+03</pdfrwt>
<totfact> 0.69155826E+02</totfact>
</mgrwt>
</event>
<event>
 6    4  0.5642870E-004  0.1374378E+03  0.7818608E-02  0.1216819E+00
          4   -1    0    0  502    0  0.00000000000E+00  0.00000000000E+00  0.51603795275E+02  0.51619420636E+02  0.12700000000E+01 0.  1.
         -4   -1    0    0    0  501 -0.00000000000E+00 -0.00000000000E+00 -0.18558033419E+03  0.18558467970E+03  0.12700000000E+01 0.  1.
         25    2    1    2    0    0 -0.14189121054E+02 -0.55333211178E+02 -0.10618372065E+03  0.17367823031E+03  0.12500419887E+03 0.  0.
    9000005    1    3    3    0    0  0.22089754601E+02  0.33885386633E+02 -0.23863652143E+02  0.46974999513E+02  0.10000000000E+01 0.  0.
    9000005    1    3    3    0    0 -0.36278875656E+02 -0.89218597811E+02 -0.82320068511E+02  0.12670323079E+03  0.10000000000E+01 0.  0.
         21    1    1    2  502  501  0.14189121054E+02  0.55333211178E+02 -0.27792818263E+02  0.63525870026E+02  0.00000000000E+00 0.  1.
<mgrwt>
<rscale>  1 0.13743779E+03</rscale>
<asrwt>0</asrwt>
<pdfrwt beam="1">  1        4 0.79405817E-02 0.13743779E+03</pdfrwt>
<pdfrwt beam="2">  1       -4 0.28552357E-01 0.13743779E+03</pdfrwt>
<totfact> 0.21509246E+03</totfact>
</mgrwt>
</event>
<event>
 6    4  0.5642870E-004  0.1294755E+03  0.7818608E-02  0.1228236E+00
          4   -1    0    0  502    0  0.00000000000E+00  0.00000000000E+00  0.24839897428E+04  0.24839900675E+04  0.12700000000E+01 0.  1.
         -4   -1    0    0    0  501 -0.00000000000E+00 -0.00000000000E+00 -0.53308796804E+01  0.54800710002E+01  0.12700000000E+01 0.  1.
         25    2    1    2    0    0 -0.21895916366E+02 -0.25680284919E+02  0.79509743853E+03  0.80557050411E+03  0.12499996861E+03 0.  0.
    9000005    1    3    3    0    0 -0.16971558417E+02 -0.69758311344E+02  0.64698138605E+03  0.65095327765E+03  0.10000000000E+01 0.  0.
    9000005    1    3    3    0    0 -0.49243579488E+01  0.44078026425E+02  0.14811605248E+03  0.15461722646E+03  0.10000000000E+01 0.  0.
         21    1    1    2  502  501  0.21895916366E+02  0.25680284919E+02  0.16835614246E+04  0.16838996344E+04  0.00000000000E+00 0.  1.
<mgrwt>
<rscale>  1 0.12947548E+03</rscale>
<asrwt>0</asrwt>
<pdfrwt beam="1">  1        4 0.38216325E+00 0.12947548E+03</pdfrwt>
<pdfrwt beam="2">  1       -4 0.83163770E-03 0.12947548E+03</pdfrwt>
<totfact> 0.77847368E+01</totfact>
</mgrwt>
</event>
<event>
 6    4  0.5642870E-004  0.1380005E+03  0.7818608E-02  0.1216045E+00
         -4   -1    0    0    0  501 -0.00000000000E+00  0.00000000000E+00  0.61018250401E+03  0.61018382566E+03  0.12700000000E+01 0. -1.
          4   -1    0    0  502    0  0.00000000000E+00 -0.00000000000E+00 -0.21050311899E+02  0.21088587697E+02  0.12700000000E+01 0. -1.
         25    2    1    2    0    0  0.49527184810E+02 -0.31090312759E+02  0.53167036901E+03  0.54928820332E+03  0.12499839772E+03 0.  0.
    9000005    1    3    3    0    0 -0.26190450788E+02  0.79416214337E+01  0.31923237142E+03  0.32040492510E+03  0.10000000000E+01 0.  0.
    9000005    1    3    3    0    0  0.75717635597E+02 -0.39031934192E+02  0.21243799759E+03  0.22888327822E+03  0.10000000000E+01 0.  0.
         21    1    1    2  502  501 -0.49527184810E+02  0.31090312759E+02  0.57461823099E+02  0.81984210043E+02  0.00000000000E+00 0. -1.
<mgrwt>
<rscale>  1 0.13800054E+03</rscale>
<asrwt>0</asrwt>
<pdfrwt beam="2">  1        4 0.32415553E-02 0.13800054E+03</pdfrwt>
<pdfrwt beam="1">  1       -4 0.93877282E-01 0.13800054E+03</pdfrwt>
<totfact> 0.78612007E+02</totfact>
</mgrwt>
</event>
<event>
 6    4  0.5642870E-004  0.1282435E+03  0.7818608E-02  0.1230086E+00
          4   -1    0    0  502    0  0.00000000000E+00  0.00000000000E+00  0.38336760068E+03  0.38336970427E+03  0.12700000000E+01 0. -1.
         -4   -1    0    0    0  501 -0.00000000000E+00 -0.00000000000E+00 -0.17580765398E+02  0.17626576865E+02  0.12700000000E+01 0. -1.
         25    2    1    2    0    0 -0.26839707015E+02 -0.10032182149E+02  0.24138252548E+03  0.27333482710E+03  0.12500155816E+03 0.  0.
    9000005    1    3    3    0    0 -0.75131261998E+02 -0.24448002678E+00  0.11186316404E+03  0.13475583019E+03  0.10000000000E+01 0.  0.
    9000005    1    3    3    0    0  0.48291554983E+02 -0.97877021221E+01  0.12951936144E+03  0.13857899691E+03  0.10000000000E+01 0.  0.
         21    1    1    2  502  501  0.26839707015E+02  0.10032182149E+02  0.12440430980E+03  0.12766145404E+03  0.00000000000E+00 0.  1.
<mgrwt>
<rscale>  1 0.12824353E+03</rscale>
<asrwt>0</asrwt>
<pdfrwt beam="1">  1        4 0.58983306E-01 0.12824353E+03</pdfrwt>
<pdfrwt beam="2">  1       -4 0.27084194E-02 0.12824353E+03</pdfrwt>
<totfact> 0.28252072E+03</totfact>
</mgrwt>
</event>
<event>
 6    4  0.5642870E-004  0.1276717E+03  0.7818608E-02  0.1230952E+00
         -4   -1    0    0    0  501 -0.00000000000E+00  0.00000000000E+00  0.58811412922E+03  0.58811550047E+03  0.12700000000E+01 0.  1.
          4   -1    0    0  502    0  0.00000000000E+00 -0.00000000000E+00 -0.13606821302E+02  0.13665960849E+02  0.12700000000E+01 0.  1.
         25    2    1    2    0    0 -0.25948711578E+02 -0.62124933381E+00  0.55450306838E+03  0.56901118236E+03  0.12500540479E+03 0.  0.
    9000005    1    3    3    0    0  0.12801347697E+02  0.39210903344E+02  0.69431263704E+02  0.80765523730E+02  0.10000000000E+01 0.  0.
    9000005    1    3    3    0    0 -0.38750059275E+02 -0.39832152677E+02  0.48507180467E+03  0.48824565863E+03  0.10000000000E+01 0.  0.
         21    1    1    2  502  501  0.25948711578E+02  0.62124933381E+00  0.20004239542E+02  0.32770278958E+02  0.00000000000E+00 0.  1.
<mgrwt>
<rscale>  1 0.12767174E+03</rscale>
<asrwt>0</asrwt>
<pdfrwt beam="2">  1        4 0.20980113E-02 0.12767174E+03</pdfrwt>
<pdfrwt beam="1">  1       -4 0.90483772E-01 0.12767174E+03</pdfrwt>
<totfact> 0.16545312E+03</totfact>
</mgrwt>
</event>
<event>
 6    4  0.5642870E-004  0.1268639E+03  0.7818608E-02  0.1232185E+00
          4   -1    0    0  502    0  0.00000000000E+00  0.00000000000E+00  0.21976948123E+02  0.22013612807E+02  0.12700000000E+01 0. -1.
         -4   -1    0    0    0  501 -0.00000000000E+00 -0.00000000000E+00 -0.26015650430E+03  0.26015960415E+03  0.12700000000E+01 0. -1.
         25    2    1    2    0    0 -0.20120553713E+02  0.80339380243E+01 -0.21969830178E+03  0.25369625072E+03  0.12500025193E+03 0.  0.
    9000005    1    3    3    0    0  0.33033860172E+02  0.44066282620E+02 -0.14542031492E+03  0.15550286548E+03  0.10000000000E+01 0.  0.
    9000005    1    3    3    0    0 -0.53154413885E+02 -0.36032344595E+02 -0.74277986858E+02  0.98193385236E+02  0.10000000000E+01 0.  0.
         21    1    1    2  502  501  0.20120553713E+02 -0.80339380243E+01 -0.18481254403E+02  0.28476966240E+02  0.00000000000E+00 0. -1.
<mgrwt>
<rscale>  1 0.12686388E+03</rscale>
<asrwt>0</asrwt>
<pdfrwt beam="1">  1        4 0.33841279E-02 0.12686388E+03</pdfrwt>
<pdfrwt beam="2">  1       -4 0.40027134E-01 0.12686388E+03</pdfrwt>
<totfact> 0.43615329E+03</totfact>
</mgrwt>
</event>
<event>
 6    4  0.5642870E-004  0.1266080E+03  0.7818608E-02  0.1232578E+00
          4   -1    0    0  502    0  0.00000000000E+00  0.00000000000E+00  0.20181199934E+03  0.20181599535E+03  0.12700000000E+01 0.  1.
         -4   -1    0    0    0  501 -0.00000000000E+00 -0.00000000000E+00 -0.29337406602E+02  0.29364882532E+02  0.12700000000E+01 0.  1.
         25    2    1    2    0    0  0.89786030143E+01  0.17972673325E+02  0.11781092308E+03  0.17294215297E+03  0.12500376946E+03 0.  0.
    9000005    1    3    3    0    0  0.24405935222E+02 -0.26543345880E+02 -0.94055561570E+01  0.37278188947E+02  0.10000000000E+01 0.  0.
    9000005    1    3    3    0    0 -0.15427332207E+02  0.44516019205E+02  0.12721647923E+03  0.13566396402E+03  0.10000000000E+01 0.  0.
         21    1    1    2  502  501 -0.89786030143E+01 -0.17972673325E+02  0.54663669659E+02  0.58238724910E+02  0.00000000000E+00 0. -1.
<mgrwt>
<rscale>  1 0.12660796E+03</rscale>
<asrwt>0</asrwt>
<pdfrwt beam="1">  1        4 0.31050421E-01 0.12660796E+03</pdfrwt>
<pdfrwt beam="2">  1       -4 0.45158681E-02 0.12660796E+03</pdfrwt>
<totfact> 0.45052924E+03</totfact>
</mgrwt>
</event>
<event>
 6    4  0.5642870E-004  0.1270166E+03  0.7818608E-02  0.1231951E+00
          4   -1    0    0  502    0  0.00000000000E+00  0.00000000000E+00  0.10789717828E+03  0.10790465227E+03  0.12700000000E+01 0.  1.
         -4   -1    0    0    0  501 -0.00000000000E+00 -0.00000000000E+00 -0.10699355355E+03  0.10700109065E+03  0.12700000000E+01 0.  1.
         25    2    1    2    0    0  0.19690034980E+02  0.11021743403E+02 -0.66820956705E+02  0.14352090394E+03  0.12499613318E+03 0.  0.
    9000005    1    3    3    0    0  0.69189109979E+02  0.23796226786E+02 -0.53611269372E+02  0.90711419087E+02  0.10000000000E+01 0.  0.
    9000005    1    3    3    0    0 -0.49499075000E+02 -0.12774483384E+02 -0.13209687332E+02  0.52809484858E+02  0.10000000000E+01 0.  0.
         21    1    1    2  502  501 -0.19690034980E+02 -0.11021743403E+02  0.67724581436E+02  0.71384838977E+02  0.00000000000E+00 0.  1.
<mgrwt>
<rscale>  1 0.12701657E+03</rscale>
<asrwt>0</asrwt>
<pdfrwt beam="1">  1        4 0.16600721E-01 0.12701657E+03</pdfrwt>
<pdfrwt beam="2">  1       -4 0.16461701E-01 0.12701657E+03</pdfrwt>
<totfact> 0.16334507E+03</totfact>
</mgrwt>
</event>
<event>
 6    4  0.5642870E-004  0.1280871E+03  0.7818608E-02  0.1230322E+00
         -4   -1    0    0    0  501 -0.00000000000E+00  0.00000000000E+00  0.36432375416E+03  0.36432596771E+03  0.12700000000E+01 0. -1.
          4   -1    0    0  502    0  0.00000000000E+00 -0.00000000000E+00 -0.11042204435E+03  0.11042934745E+03  0.12700000000E+01 0. -1.
         25    2    1    2    0    0 -0.25948465522E+02 -0.10407098354E+02  0.35103768418E+03  0.37367599940E+03  0.12499866500E+03 0.  0.
    9000005    1    3    3    0    0 -0.46566245327E+02 -0.43079732874E+02  0.91904953072E+02  0.11167720890E+03  0.10000000000E+01 0.  0.
    9000005    1    3    3    0    0  0.20617779805E+02  0.32672634520E+02  0.25913273111E+03  0.26199879050E+03  0.10000000000E+01 0.  0.
         21    1    1    2  502  501  0.25948465522E+02  0.10407098354E+02 -0.97135974364E+02  0.10107931576E+03  0.00000000000E+00 0. -1.
<mgrwt>
<rscale>  1 0.12808707E+03</rscale>
<asrwt>0</asrwt>
<pdfrwt beam="2">  1        4 0.16988739E-01 0.12808707E+03</pdfrwt>
<pdfrwt beam="1">  1       -4 0.56050540E-01 0.12808707E+03</pdfrwt>
<totfact> 0.15334363E+02</totfact>
</mgrwt>
</event>
<event>
 6    4  0.5642870E-004  0.1327425E+03  0.7818608E-02  0.1223442E+00
          4   -1    0    0  502    0  0.00000000000E+00  0.00000000000E+00  0.29789905418E+02  0.29816964380E+02  0.12700000000E+01 0.  1.
         -4   -1    0    0    0  501 -0.00000000000E+00 -0.00000000000E+00 -0.64832642375E+03  0.64832766765E+03  0.12700000000E+01 0.  1.
         25    2    1    2    0    0 -0.13937289869E+02  0.42483305301E+02 -0.61936086782E+03  0.63342596892E+03  0.12498597617E+03 0.  0.
    9000005    1    3    3    0    0  0.39736143598E+02  0.56986046475E+02 -0.44560001548E+03  0.45098419529E+03  0.10000000000E+01 0.  0.
    9000005    1    3    3    0    0 -0.53673433467E+02 -0.14502741174E+02 -0.17376085233E+03  0.18244177363E+03  0.10000000000E+01 0.  0.
         21    1    1    2  502  501  0.13937289869E+02 -0.42483305301E+02  0.82434948133E+00  0.44718663109E+02  0.00000000000E+00 0.  1.
<mgrwt>
<rscale>  1 0.13274251E+03</rscale>
<asrwt>0</asrwt>
<pdfrwt beam="1">  1        4 0.45852400E-02 0.13274251E+03</pdfrwt>
<pdfrwt beam="2">  1       -4 0.99744693E-01 0.13274251E+03</pdfrwt>
<totfact> 0.39182615E+02</totfact>
</mgrwt>
</event>
<event>
 6    4  0.5642870E-004  0.1277908E+03  0.7818608E-02  0.1230771E+00
          4   -1    0    0  502    0  0.00000000000E+00  0.00000000000E+00  0.31643124975E+02  0.31668600509E+02  0.12700000000E+01 0. -1.
         -4   -1    0    0    0  501 -0.00000000000E+00 -0.00000000000E+00 -0.29197661408E+03  0.29197937610E+03  0.12700000000E+01 0. -1.
         25    2    1    2    0    0  0.82760856916E+01  0.25250983704E+02 -0.26721402336E+03  0.29619897801E+03  0.12499757807E+03 0.  0.
    9000005    1    3    3    0    0 -0.39889404864E+02  0.46343876417E+02 -0.20892483354E+03  0.21769130799E+03  0.10000000000E+01 0.  0.
    9000005    1    3    3    0    0  0.48165490555E+02 -0.21092892713E+02 -0.58289189815E+02  0.78507670025E+02  0.10000000000E+01 0.  0.
         21    1    1    2  502  501 -0.82760856916E+01 -0.25250983704E+02  0.68805342561E+01  0.27448998598E+02  0.00000000000E+00 0. -1.
<mgrwt>
<rscale>  1 0.12779085E+03</rscale>
<asrwt>0</asrwt>
<pdfrwt beam="1">  1        4 0.48703454E-02 0.12779085E+03</pdfrwt>
<pdfrwt beam="2">  1       -4 0.44921649E-01 0.12779085E+03</pdfrwt>
<totfact> 0.19500381E+03</totfact>
</mgrwt>
</event>
<event>
 6    4  0.5642870E-004  0.1267485E+03  0.7818608E-02  0.1232362E+00
          4   -1    0    0  502    0  0.00000000000E+00  0.00000000000E+00  0.26528716606E+02  0.26559098343E+02  0.12700000000E+01 0.  1.
         -4   -1    0    0    0  501 -0.00000000000E+00 -0.00000000000E+00 -0.22016543711E+03  0.22016910001E+03  0.12700000000E+01 0.  1.
         25    2    1    2    0    0 -0.20744826802E+02 -0.32280459430E+01 -0.18447485108E+03  0.22382169336E+03  0.12499764644E+03 0.  0.
    9000005    1    3    3    0    0  0.19997205056E+02 -0.54712853362E+02 -0.11042451480E+03  0.12485174409E+03  0.10000000000E+01 0.  0.
    9000005    1    3    3    0    0 -0.40742031858E+02  0.51484807419E+02 -0.74050336280E+02  0.98969949268E+02  0.10000000000E+01 0.  0.
         21    1    1    2  502  501  0.20744826802E+02  0.32280459430E+01 -0.91618694215E+01  0.22906504992E+02  0.00000000000E+00 0.  1.
<mgrwt>
<rscale>  1 0.12674849E+03</rscale>
<asrwt>0</asrwt>
<pdfrwt beam="1">  1        4 0.40839600E-02 0.12674849E+03</pdfrwt>
<pdfrwt beam="2">  1       -4 0.33874223E-01 0.12674849E+03</pdfrwt>
<totfact> 0.44798221E+03</totfact>
</mgrwt>
</event>
<event>
 6    4  0.5642870E-004  0.1268814E+03  0.7818608E-02  0.1232158E+00
          4   -1    0    0  502    0  0.00000000000E+00  0.00000000000E+00  0.19723363964E+03  0.19723772841E+03  0.12700000000E+01 0.  1.
         -4   -1    0    0    0  501 -0.00000000000E+00 -0.00000000000E+00 -0.28246314087E+02  0.28274850301E+02  0.12700000000E+01 0.  1.
         25    2    1    2    0    0 -0.84067950864E+01 -0.20083915452E+02  0.13608842539E+03  0.18606165355E+03  0.12499936613E+03 0.  0.
    9000005    1    3    3    0    0 -0.21337018045E+02 -0.51022765086E+02  0.14164080621E+03  0.15205824174E+03  0.10000000000E+01 0.  0.
    9000005    1    3    3    0    0  0.12930222958E+02  0.30938849634E+02 -0.55523808181E+01  0.34003411817E+02  0.10000000000E+01 0.  0.
         21    1    1    2  502  501  0.84067950864E+01  0.20083915452E+02  0.32898900165E+02  0.39450925155E+02  0.00000000000E+00 0.  1.
<mgrwt>
<rscale>  1 0.12688136E+03</rscale>
<asrwt>0</asrwt>
<pdfrwt beam="1">  1        4 0.30346145E-01 0.12688136E+03</pdfrwt>
<pdfrwt beam="2">  1       -4 0.43480966E-02 0.12688136E+03</pdfrwt>
<totfact> 0.50008163E+03</totfact>
</mgrwt>
</event>
<event>
 6    4  0.5642870E-004  0.1344749E+03  0.7818608E-02  0.1220963E+00
         -4   -1    0    0    0  501 -0.00000000000E+00  0.00000000000E+00  0.78693917233E+03  0.78694019712E+03  0.12700000000E+01 0. -1.
          4   -1    0    0  502    0  0.00000000000E+00 -0.00000000000E+00 -0.10755782104E+02  0.10830500851E+02  0.12700000000E+01 0. -1.
         25    2    1    2    0    0  0.18169640638E+02 -0.46127882151E+02  0.58598302705E+03  0.60121511931E+03  0.12500237734E+03 0.  0.
    9000005    1    3    3    0    0  0.61991093368E+02 -0.18018597983E+02  0.46556800869E+03  0.47002354861E+03  0.10000000000E+01 0.  0.
    9000005    1    3    3    0    0 -0.43821452731E+02 -0.28109284169E+02  0.12041501836E+03  0.13119157070E+03  0.10000000000E+01 0.  0.
         21    1    1    2  502  501 -0.18169640638E+02  0.46127882151E+02  0.19020036317E+03  0.19655557866E+03  0.00000000000E+00 0.  1.
<mgrwt>
<rscale>  1 0.13447495E+03</rscale>
<asrwt>0</asrwt>
<pdfrwt beam="2">  1        4 0.16605616E-02 0.13447495E+03</pdfrwt>
<pdfrwt beam="1">  1       -4 0.12107343E+00 0.13447495E+03</pdfrwt>
<totfact> 0.12152204E+03</totfact>
</mgrwt>
</event>
<event>
 6    4  0.5642870E-004  0.1306485E+03  0.7818608E-02  0.1226497E+00
          4   -1    0    0  502    0  0.00000000000E+00  0.00000000000E+00  0.20803564545E+02  0.20842293487E+02  0.12700000000E+01 0. -1.
         -4   -1    0    0    0  501 -0.00000000000E+00 -0.00000000000E+00 -0.10555245005E+04  0.10555252645E+04  0.12700000000E+01 0. -1.
         25    2    1    2    0    0  0.54744958655E+01 -0.37606012906E+02 -0.10297923746E+04  0.10380468974E+04  0.12499937688E+03 0.  0.
    9000005    1    3    3    0    0  0.10004958078E+02 -0.17508953011E+01 -0.95418967071E+03  0.95424425202E+03  0.10000000000E+01 0.  0.
    9000005    1    3    3    0    0 -0.45304622127E+01 -0.35855117605E+02 -0.75602703862E+02  0.83802645409E+02  0.10000000000E+01 0.  0.
         21    1    1    2  502  501 -0.54744958655E+01  0.37606012906E+02 -0.49285614007E+01  0.38320660605E+02  0.00000000000E+00 0. -1.
<mgrwt>
<rscale>  1 0.13064848E+03</rscale>
<asrwt>0</asrwt>
<pdfrwt beam="1">  1        4 0.32035871E-02 0.13064848E+03</pdfrwt>
<pdfrwt beam="2">  1       -4 0.16239138E+00 0.13064848E+03</pdfrwt>
<totfact> 0.20955268E+02</totfact>
</mgrwt>
</event>
<event>
 6    4  0.5642870E-004  0.1274553E+03  0.7818608E-02  0.1231281E+00
         -4   -1    0    0    0  501 -0.00000000000E+00  0.00000000000E+00  0.89023001539E+01  0.89924328204E+01  0.12700000000E+01 0. -1.
          4   -1    0    0  502    0  0.00000000000E+00 -0.00000000000E+00 -0.67537210997E+03  0.67537330406E+03  0.12700000000E+01 0. -1.
         25    2    1    2    0    0 -0.22643630692E+02 -0.10381231152E+02 -0.59984724766E+03  0.61323859888E+03  0.12499741860E+03 0.  0.
    9000005    1    3    3    0    0 -0.43406464618E+01 -0.39033618600E+02 -0.56436755184E+02  0.68764612472E+02  0.10000000000E+01 0.  0.
    9000005    1    3    3    0    0 -0.18302984231E+02  0.28652387448E+02 -0.54341049248E+03  0.54447398641E+03  0.10000000000E+01 0.  0.
         21    1    1    2  502  501  0.22643630692E+02  0.10381231152E+02 -0.66622562157E+02  0.71127137996E+02  0.00000000000E+00 0. -1.
<mgrwt>
<rscale>  1 0.12745532E+03</rscale>
<asrwt>0</asrwt>
<pdfrwt beam="2">  1        4 0.10391039E+00 0.12745532E+03</pdfrwt>
<pdfrwt beam="1">  1       -4 0.13766103E-02 0.12745532E+03</pdfrwt>
<totfact> 0.22940755E+03</totfact>
</mgrwt>
</event>
<event>
 6    4  0.5642870E-004  0.1304741E+03  0.7818608E-02  0.1226754E+00
         -4   -1    0    0    0  501 -0.00000000000E+00  0.00000000000E+00  0.85716421181E+03  0.85716515265E+03  0.12700000000E+01 0. -1.
          4   -1    0    0  502    0  0.00000000000E+00 -0.00000000000E+00 -0.83568301246E+01  0.84527811832E+01  0.12700000000E+01 0. -1.
         25    2    1    2    0    0  0.33044492944E+02 -0.17526135866E+02  0.70830661963E+03  0.72022340817E+03  0.12499754524E+03 0.  0.
    9000005    1    3    3    0    0  0.19326207330E+02  0.50495662924E+02  0.43034796344E+03  0.43373227215E+03  0.10000000000E+01 0.  0.
    9000005    1    3    3    0    0  0.13718285614E+02 -0.68021798790E+02  0.27795865619E+03  0.28649113602E+03  0.10000000000E+01 0.  0.
         21    1    1    2  502  501 -0.33044492944E+02  0.17526135866E+02  0.14050076206E+03  0.14539452566E+03  0.00000000000E+00 0. -1.
<mgrwt>
<rscale>  1 0.13047410E+03</rscale>
<asrwt>0</asrwt>
<pdfrwt beam="2">  1        4 0.12931192E-02 0.13047410E+03</pdfrwt>
<pdfrwt beam="1">  1       -4 0.13187889E+00 0.13047410E+03</pdfrwt>
<totfact> 0.14354045E+03</totfact>
</mgrwt>
</event>
<event>
 6    4  0.5642870E-004  0.1299561E+03  0.7818608E-02  0.1227521E+00
          4   -1    0    0  502    0  0.00000000000E+00  0.00000000000E+00  0.67802557680E+03  0.67802676620E+03  0.12700000000E+01 0.  1.
         -4   -1    0    0    0  501 -0.00000000000E+00 -0.00000000000E+00 -0.10412537679E+02  0.10489701660E+02  0.12700000000E+01 0.  1.
         25    2    1    2    0    0  0.35506871297E+02 -0.20536745087E+01  0.56997073102E+03  0.58459834712E+03  0.12499455088E+03 0.  0.
    9000005    1    3    3    0    0  0.68463252503E+02 -0.12413403828E+02  0.17818005510E+03  0.19128628172E+03  0.10000000000E+01 0.  0.
    9000005    1    3    3    0    0 -0.32956381207E+02  0.10359729319E+02  0.39179067592E+03  0.39331206541E+03  0.10000000000E+01 0.  0.
         21    1    1    2  502  501 -0.35506871297E+02  0.20536745087E+01  0.97642308092E+02  0.10391812074E+03  0.00000000000E+00 0. -1.
<mgrwt>
<rscale>  1 0.12995612E+03</rscale>
<asrwt>0</asrwt>
<pdfrwt beam="1">  1        4 0.10431766E+00 0.12995612E+03</pdfrwt>
<pdfrwt beam="2">  1       -4 0.16079559E-02 0.12995612E+03</pdfrwt>
<totfact> 0.18023851E+03</totfact>
</mgrwt>
</event>
<event>
 6    4  0.5642870E-004  0.1342110E+03  0.7818608E-02  0.1221338E+00
          4   -1    0    0  502    0  0.00000000000E+00  0.00000000000E+00  0.18243988905E+02  0.18288139084E+02  0.12700000000E+01 0. -1.
         -4   -1    0    0    0  501 -0.00000000000E+00 -0.00000000000E+00 -0.46992279119E+03  0.46992450732E+03  0.12700000000E+01 0. -1.
         25    2    1    2    0    0 -0.47906523660E+02 -0.96315495536E+01 -0.36210668936E+03  0.38617850912E+03  0.12499913870E+03 0.  0.
    9000005    1    3    3    0    0 -0.75890096049E+01  0.55709395519E+02 -0.17896094724E+03  0.18758771403E+03  0.10000000000E+01 0.  0.
    9000005    1    3    3    0    0 -0.40317514056E+02 -0.65340945073E+02 -0.18314574211E+03  0.19859079510E+03  0.10000000000E+01 0.  0.
         21    1    1    2  502  501  0.47906523660E+02  0.96315495536E+01 -0.89572112929E+02  0.10203413728E+03  0.00000000000E+00 0. -1.
<mgrwt>
<rscale>  1 0.13421098E+03</rscale>
<asrwt>0</asrwt>
<pdfrwt beam="1">  1        4 0.28102961E-02 0.13421098E+03</pdfrwt>
<pdfrwt beam="2">  1       -4 0.72299333E-01 0.13421098E+03</pdfrwt>
<totfact> 0.17470800E+03</totfact>
</mgrwt>
</event>
<event>
 6    4  0.5642870E-004  0.1267396E+03  0.7818608E-02  0.1232375E+00
          4   -1    0    0  502    0  0.00000000000E+00  0.00000000000E+00  0.13455663226E+02  0.13515464211E+02  0.12700000000E+01 0.  1.
         -4   -1    0    0    0  501 -0.00000000000E+00 -0.00000000000E+00 -0.55822743317E+03  0.55822887783E+03  0.12700000000E+01 0.  1.
         25    2    1    2    0    0 -0.16433657407E+02 -0.12982554385E+02 -0.53270394336E+03  0.54757319700E+03  0.12499721191E+03 0.  0.
    9000005    1    3    3    0    0 -0.38092385762E+02 -0.54597931480E+02 -0.42368066702E+03  0.42888025320E+03  0.10000000000E+01 0.  0.
    9000005    1    3    3    0    0  0.21658728354E+02  0.41615377094E+02 -0.10902327634E+03  0.11869294381E+03  0.10000000000E+01 0.  0.
         21    1    1    2  502  501  0.16433657407E+02  0.12982554385E+02 -0.12067826582E+02  0.24171145040E+02  0.00000000000E+00 0.  1.
<mgrwt>
<rscale>  1 0.12673955E+03</rscale>
<asrwt>0</asrwt>
<pdfrwt beam="1">  1        4 0.20748137E-02 0.12673955E+03</pdfrwt>
<pdfrwt beam="2">  1       -4 0.85885837E-01 0.12673955E+03</pdfrwt>
<totfact> 0.18892417E+03</totfact>
</mgrwt>
</event>
<event>
 6    4  0.5642870E-004  0.1272462E+03  0.7818608E-02  0.1231600E+00
          4   -1    0    0  502    0  0.00000000000E+00  0.00000000000E+00  0.63802609658E+02  0.63815248171E+02  0.12700000000E+01 0. -1.
         -4   -1    0    0    0  501 -0.00000000000E+00 -0.00000000000E+00 -0.95086714699E+02  0.95095195526E+02  0.12700000000E+01 0. -1.
         25    2    1    2    0    0  0.99361916086E+01 -0.21619957411E+02 -0.40285171658E+02  0.13347091417E+03  0.12500175764E+03 0.  0.
    9000005    1    3    3    0    0  0.62366792803E+02 -0.89990536748E+01  0.47566163817E+01  0.63199882998E+02  0.10000000000E+01 0.  0.
    9000005    1    3    3    0    0 -0.52430601194E+02 -0.12620903736E+02 -0.45041788040E+02  0.70271031176E+02  0.10000000000E+01 0.  0.
         21    1    1    2  502  501 -0.99361916086E+01  0.21619957411E+02  0.90010666178E+01  0.25439529524E+02  0.00000000000E+00 0.  1.
<mgrwt>
<rscale>  1 0.12724618E+03</rscale>
<asrwt>0</asrwt>
<pdfrwt beam="1">  1        4 0.98174106E-02 0.12724618E+03</pdfrwt>
<pdfrwt beam="2">  1       -4 0.14630350E-01 0.12724618E+03</pdfrwt>
<totfact> 0.49540400E+03</totfact>
</mgrwt>
</event>
<event>
 6    4  0.5642870E-004  0.1295010E+03  0.7818608E-02  0.1228198E+00
         -4   -1    0    0    0  501 -0.00000000000E+00  0.00000000000E+00  0.81343823466E+03  0.81343922607E+03  0.12700000000E+01 0.  1.
          4   -1    0    0  502    0  0.00000000000E+00 -0.00000000000E+00 -0.93819283055E+01  0.94674959059E+01  0.12700000000E+01 0.  1.
         25    2    1    2    0    0 -0.23445685784E+02  0.24420695604E+02  0.48261607912E+03  0.49968869921E+03  0.12499778293E+03 0.  0.
    9000005    1    3    3    0    0 -0.60102841685E+02 -0.26630272425E+02  0.21728084597E+03  0.22700988748E+03  0.10000000000E+01 0.  0.
    9000005    1    3    3    0    0  0.36657155901E+02  0.51050968029E+02  0.26533523316E+03  0.27267881173E+03  0.10000000000E+01 0.  0.
         21    1    1    2  502  501  0.23445685784E+02 -0.24420695604E+02  0.32144022724E+03  0.32321802277E+03  0.00000000000E+00 0.  1.
<mgrwt>
<rscale>  1 0.12950103E+03</rscale>
<asrwt>0</asrwt>
<pdfrwt beam="2">  1        4 0.14500323E-02 0.12950103E+03</pdfrwt>
<pdfrwt beam="1">  1       -4 0.12515098E+00 0.12950103E+03</pdfrwt>
<totfact> 0.13682939E+03</totfact>
</mgrwt>
</event>
<event>
 6    4  0.5642870E-004  0.1268247E+03  0.7818608E-02  0.1232245E+00
         -4   -1    0    0    0  501 -0.00000000000E+00  0.00000000000E+00  0.25554838554E+02  0.25586376717E+02  0.12700000000E+01 0. -1.
          4   -1    0    0  502    0  0.00000000000E+00 -0.00000000000E+00 -0.24454075202E+03  0.24454404982E+03  0.12700000000E+01 0. -1.
         25    2    1    2    0    0 -0.10047153787E+02  0.18933583801E+02 -0.14280497409E+03  0.19099155227E+03  0.12500034608E+03 0.  0.
    9000005    1    3    3    0    0 -0.23770490205E+02  0.32638617351E+02  0.60806180355E+01  0.40844699324E+02  0.10000000000E+01 0.  0.
    9000005    1    3    3    0    0  0.13723336418E+02 -0.13705033550E+02 -0.14888559213E+03  0.15014685295E+03  0.10000000000E+01 0.  0.
         21    1    1    2  502  501  0.10047153787E+02 -0.18933583801E+02 -0.76180939381E+02  0.79138874264E+02  0.00000000000E+00 0. -1.
<mgrwt>
<rscale>  1 0.12682473E+03</rscale>
<asrwt>0</asrwt>
<pdfrwt beam="2">  1        4 0.37624332E-01 0.12682473E+03</pdfrwt>
<pdfrwt beam="1">  1       -4 0.39341935E-02 0.12682473E+03</pdfrwt>
<totfact> 0.38808956E+03</totfact>
</mgrwt>
</event>
<event>
 6    4  0.5642870E-004  0.1411153E+03  0.7818608E-02  0.1211836E+00
          4   -1    0    0  502    0  0.00000000000E+00  0.00000000000E+00  0.46212877673E+03  0.46213052180E+03  0.12700000000E+01 0. -1.
         -4   -1    0    0    0  501 -0.00000000000E+00 -0.00000000000E+00 -0.24075942785E+02  0.24109415609E+02  0.12700000000E+01 0. -1.
         25    2    1    2    0    0  0.26132483372E+02  0.60031316056E+02  0.24948628675E+03  0.28663029757E+03  0.12500741825E+03 0.  0.
    9000005    1    3    3    0    0  0.55787178151E+02  0.83327463877E+02  0.20563923586E+03  0.22878848486E+03  0.10000000000E+01 0.  0.
    9000005    1    3    3    0    0 -0.29654694779E+02 -0.23296147821E+02  0.43847050891E+02  0.57841812710E+02  0.10000000000E+01 0.  0.
         21    1    1    2  502  501 -0.26132483372E+02 -0.60031316056E+02  0.18856654719E+03  0.19960963984E+03  0.00000000000E+00 0. -1.
<mgrwt>
<rscale>  1 0.14111527E+03</rscale>
<asrwt>0</asrwt>
<pdfrwt beam="1">  1        4 0.71099444E-01 0.14111527E+03</pdfrwt>
<pdfrwt beam="2">  1       -4 0.37067002E-02 0.14111527E+03</pdfrwt>
<totfact> 0.11848152E+03</totfact>
</mgrwt>
</event>
<event>
 6    4  0.5642870E-004  0.1285208E+03  0.7818608E-02  0.1229667E+00
          4   -1    0    0  502    0  0.00000000000E+00  0.00000000000E+00  0.77799005312E+02  0.77809370436E+02  0.12700000000E+01 0.  1.
         -4   -1    0    0    0  501 -0.00000000000E+00 -0.00000000000E+00 -0.80898078637E+02  0.80908046739E+02  0.12700000000E+01 0.  1.
         25    2    1    2    0    0 -0.34494256989E+01  0.29667824495E+02 -0.63229921666E+01  0.12867624542E+03  0.12500207021E+03 0.  0.
    9000005    1    3    3    0    0 -0.17350892512E+02 -0.43037829333E+02  0.19399104031E+02  0.50305401916E+02  0.10000000000E+01 0.  0.
    9000005    1    3    3    0    0  0.13901466813E+02  0.72705653828E+02 -0.25722096198E+02  0.78370843500E+02  0.10000000000E+01 0.  0.
         21    1    1    2  502  501  0.34494256989E+01 -0.29667824495E+02  0.32239188423E+01  0.30041171759E+02  0.00000000000E+00 0. -1.
<mgrwt>
<rscale>  1 0.12852080E+03</rscale>
<asrwt>0</asrwt>
<pdfrwt beam="1">  1        4 0.11970642E-01 0.12852080E+03</pdfrwt>
<pdfrwt beam="2">  1       -4 0.12447422E-01 0.12852080E+03</pdfrwt>
<totfact> 0.46917678E+03</totfact>
</mgrwt>
</event>
<event>
 6    4  0.5642870E-004  0.1270281E+03  0.7818608E-02  0.1231933E+00
         -4   -1    0    0    0  501 -0.00000000000E+00  0.00000000000E+00  0.18998882533E+02  0.19041282454E+02  0.12700000000E+01 0. -1.
          4   -1    0    0  502    0  0.00000000000E+00 -0.00000000000E+00 -0.36699063876E+03  0.36699283622E+03  0.12700000000E+01 0. -1.
         25    2    1    2    0    0  0.17742905520E+02 -0.13994871818E+02 -0.20426539745E+03  0.24054207992E+03  0.12500188992E+03 0.  0.
    9000005    1    3    3    0    0  0.45984148208E+02  0.17322691573E+02 -0.22694278905E+02  0.54135458110E+02  0.10000000000E+01 0.  0.
    9000005    1    3    3    0    0 -0.28241242689E+02 -0.31317563390E+02 -0.18157111855E+03  0.18640662181E+03  0.10000000000E+01 0.  0.
         21    1    1    2  502  501 -0.17742905520E+02  0.13994871818E+02 -0.14372635877E+03  0.14549203875E+03  0.00000000000E+00 0. -1.
<mgrwt>
<rscale>  1 0.12702811E+03</rscale>
<asrwt>0</asrwt>
<pdfrwt beam="2">  1        4 0.56463524E-01 0.12702811E+03</pdfrwt>
<pdfrwt beam="1">  1       -4 0.29263358E-02 0.12702811E+03</pdfrwt>
<totfact> 0.27361194E+03</totfact>
</mgrwt>
</event>
<event>
 6    4  0.5642870E-004  0.1268543E+03  0.7818608E-02  0.1232199E+00
          4   -1    0    0  502    0  0.00000000000E+00  0.00000000000E+00  0.84885909180E+02  0.84895409047E+02  0.12700000000E+01 0. -1.
         -4   -1    0    0    0  501 -0.00000000000E+00 -0.00000000000E+00 -0.84469129758E+02  0.84478676494E+02  0.12700000000E+01 0. -1.
         25    2    1    2    0    0 -0.10841965926E+02 -0.18741532794E+02 -0.31593042365E+02  0.13072926742E+03  0.12499291083E+03 0.  0.
    9000005    1    3    3    0    0  0.39091392851E+02  0.31984147243E+02  0.48615945836E+01  0.50751923824E+02  0.10000000000E+01 0.  0.
    9000005    1    3    3    0    0 -0.49933358777E+02 -0.50725680037E+02 -0.36454636949E+02  0.79977343599E+02  0.10000000000E+01 0.  0.
         21    1    1    2  502  501  0.10841965926E+02  0.18741532794E+02  0.32009821786E+02  0.38644818119E+02  0.00000000000E+00 0.  1.
<mgrwt>
<rscale>  1 0.12685433E+03</rscale>
<asrwt>0</asrwt>
<pdfrwt beam="1">  1        4 0.13060836E-01 0.12685433E+03</pdfrwt>
<pdfrwt beam="2">  1       -4 0.12996716E-01 0.12685433E+03</pdfrwt>
<totfact> 0.37396550E+03</totfact>
</mgrwt>
</event>
<event>
 6    4  0.5642870E-004  0.1267179E+03  0.7818608E-02  0.1232409E+00
         -4   -1    0    0    0  501 -0.00000000000E+00  0.00000000000E+00  0.22525989072E+03  0.22526347078E+03  0.12700000000E+01 0.  1.
          4   -1    0    0  502    0  0.00000000000E+00 -0.00000000000E+00 -0.24469564786E+02  0.24502499889E+02  0.12700000000E+01 0.  1.
         25    2    1    2    0    0 -0.10255856954E+02  0.18081875327E+02  0.18183466252E+03  0.22163317854E+03  0.12500113808E+03 0.  0.
    9000005    1    3    3    0    0  0.11500917366E+02  0.67903624682E+02  0.75468352104E+02  0.10217458351E+03  0.10000000000E+01 0.  0.
    9000005    1    3    3    0    0 -0.21756774320E+02 -0.49821749354E+02  0.10636631041E+03  0.11945859504E+03  0.10000000000E+01 0.  0.
         21    1    1    2  502  501  0.10255856954E+02 -0.18081875327E+02  0.18955663420E+02  0.28132792128E+02  0.00000000000E+00 0. -1.
<mgrwt>
<rscale>  1 0.12671788E+03</rscale>
<asrwt>0</asrwt>
<pdfrwt beam="2">  1        4 0.37673574E-02 0.12671788E+03</pdfrwt>
<pdfrwt beam="1">  1       -4 0.34658176E-01 0.12671788E+03</pdfrwt>
<totfact> 0.48715244E+03</totfact>
</mgrwt>
</event>
<event>
 6    4  0.5642870E-004  0.1274113E+03  0.7818608E-02  0.1231348E+00
         -4   -1    0    0    0  501 -0.00000000000E+00  0.00000000000E+00  0.39574082327E+03  0.39574286109E+03  0.12700000000E+01 0. -1.
          4   -1    0    0  502    0  0.00000000000E+00 -0.00000000000E+00 -0.50258421387E+02  0.50274464893E+02  0.12700000000E+01 0. -1.
         25    2    1    2    0    0  0.18171800489E+02  0.16714922901E+02  0.38157659792E+03  0.40228639907E+03  0.12499617519E+03 0.  0.
    9000005    1    3    3    0    0 -0.49455666199E+02 -0.16187451178E+02  0.14651412967E+03  0.15548403998E+03  0.10000000000E+01 0.  0.
    9000005    1    3    3    0    0  0.67627466689E+02  0.32902374079E+02  0.23506246825E+03  0.24680235909E+03  0.10000000000E+01 0.  0.
         21    1    1    2  502  501 -0.18171800489E+02 -0.16714922901E+02 -0.36094196043E+02  0.43730926912E+02  0.00000000000E+00 0. -1.
<mgrwt>
<rscale>  1 0.12741133E+03</rscale>
<asrwt>0</asrwt>
<pdfrwt beam="2">  1        4 0.77334554E-02 0.12741133E+03</pdfrwt>
<pdfrwt beam="1">  1       -4 0.60884596E-01 0.12741133E+03</pdfrwt>
<totfact> 0.49267584E+02</totfact>
</mgrwt>
</event>
<event>
 6    4  0.5642870E-004  0.1326215E+03  0.7818608E-02  0.1223617E+00
          4   -1    0    0  502    0  0.00000000000E+00  0.00000000000E+00  0.15247240095E+02  0.15300040213E+02  0.12700000000E+01 0. -1.
         -4   -1    0    0    0  501 -0.00000000000E+00 -0.00000000000E+00 -0.51657318955E+03  0.51657475070E+03  0.12700000000E+01 0. -1.
         25    2    1    2    0    0  0.43999173637E+02  0.52780274958E+01 -0.39555960054E+03  0.41720000982E+03  0.12499866305E+03 0.  0.
    9000005    1    3    3    0    0 -0.24300202419E+02  0.24274863546E+02 -0.32549740244E+02  0.47331326072E+02  0.10000000000E+01 0.  0.
    9000005    1    3    3    0    0  0.68299376055E+02 -0.18996836050E+02 -0.36300986029E+03  0.36986868375E+03  0.10000000000E+01 0.  0.
         21    1    1    2  502  501 -0.43999173637E+02 -0.52780274958E+01 -0.10576634892E+03  0.11467478109E+03  0.00000000000E+00 0. -1.
<mgrwt>
<rscale>  1 0.13262146E+03</rscale>
<asrwt>0</asrwt>
<pdfrwt beam="1">  1        4 0.23499113E-02 0.13262146E+03</pdfrwt>
<pdfrwt beam="2">  1       -4 0.79476966E-01 0.13262146E+03</pdfrwt>
<totfact> 0.18710247E+03</totfact>
</mgrwt>
</event>
<event>
 6    4  0.5642870E-004  0.1308156E+03  0.7818608E-02  0.1226251E+00
          4   -1    0    0  502    0  0.00000000000E+00  0.00000000000E+00  0.30622528955E+02  0.30648852827E+02  0.12700000000E+01 0. -1.
         -4   -1    0    0    0  501 -0.00000000000E+00 -0.00000000000E+00 -0.41473378785E+03  0.41473573235E+03  0.12700000000E+01 0. -1.
         25    2    1    2    0    0 -0.32369401991E+02 -0.21054141460E+02 -0.38514691823E+03  0.40675651704E+03  0.12498664118E+03 0.  0.
    9000005    1    3    3    0    0 -0.21660795732E+02  0.28141582192E+02 -0.33065882229E+03  0.33256186714E+03  0.10000000000E+01 0.  0.
    9000005    1    3    3    0    0 -0.10708606259E+02 -0.49195723652E+02 -0.54488095940E+02  0.74194649894E+02  0.10000000000E+01 0.  0.
         21    1    1    2  502  501  0.32369401991E+02  0.21054141460E+02  0.10356593319E+01  0.38628068139E+02  0.00000000000E+00 0. -1.
<mgrwt>
<rscale>  1 0.13081558E+03</rscale>
<asrwt>0</asrwt>
<pdfrwt beam="1">  1        4 0.47133331E-02 0.13081558E+03</pdfrwt>
<pdfrwt beam="2">  1       -4 0.63807369E-01 0.13081558E+03</pdfrwt>
<totfact> 0.10031240E+03</totfact>
</mgrwt>
</event>
<event>
 6    4  0.5642870E-004  0.1451830E+03  0.7818608E-02  0.1206520E+00
         -4   -1    0    0    0  501 -0.00000000000E+00  0.00000000000E+00  0.11713776112E+03  0.11714464554E+03  0.12700000000E+01 0. -1.
          4   -1    0    0  502    0  0.00000000000E+00 -0.00000000000E+00 -0.18581861494E+03  0.18582295488E+03  0.12700000000E+01 0. -1.
         25    2    1    2    0    0 -0.67504029053E+02  0.29947686941E+02  0.57994632831E+02  0.15633766892E+03  0.12499772556E+03 0.  0.
    9000005    1    3    3    0    0  0.22903488485E+02  0.42085398580E+02  0.41995744743E+02  0.63721214167E+02  0.10000000000E+01 0.  0.
    9000005    1    3    3    0    0 -0.90407517539E+02 -0.12137711639E+02  0.15998888088E+02  0.92616454755E+02  0.10000000000E+01 0.  0.
         21    1    1    2  502  501  0.67504029053E+02 -0.29947686941E+02 -0.12667548666E+03  0.14662993150E+03  0.00000000000E+00 0. -1.
<mgrwt>
<rscale>  1 0.14518295E+03</rscale>
<asrwt>0</asrwt>
<pdfrwt beam="2">  1        4 0.28588343E-01 0.14518295E+03</pdfrwt>
<pdfrwt beam="1">  1       -4 0.18022057E-01 0.14518295E+03</pdfrwt>
<totfact> 0.53262727E+02</totfact>
</mgrwt>
</event>
<event>
 6    4  0.5642870E-004  0.1272547E+03  0.7818608E-02  0.1231587E+00
          4   -1    0    0  502    0  0.00000000000E+00  0.00000000000E+00  0.33985136099E+02  0.34008857312E+02  0.12700000000E+01 0. -1.
         -4   -1    0    0    0  501 -0.00000000000E+00 -0.00000000000E+00 -0.16851790587E+03  0.16852269135E+03  0.12700000000E+01 0. -1.
         25    2    1    2    0    0  0.14661020129E+02  0.18886289338E+02 -0.11719058454E+03  0.17299531964E+03  0.12498843977E+03 0.  0.
    9000005    1    3    3    0    0  0.40227834023E+02 -0.32936323397E+02 -0.99976188073E+02  0.11269125170E+03  0.10000000000E+01 0.  0.
    9000005    1    3    3    0    0 -0.25566813894E+02  0.51822612735E+02 -0.17214396464E+02  0.60304067931E+02  0.10000000000E+01 0.  0.
         21    1    1    2  502  501 -0.14661020129E+02 -0.18886289338E+02 -0.17342185233E+02  0.29536229022E+02  0.00000000000E+00 0.  1.
<mgrwt>
<rscale>  1 0.12725466E+03</rscale>
<asrwt>0</asrwt>
<pdfrwt beam="1">  1        4 0.52306754E-02 0.12725466E+03</pdfrwt>
<pdfrwt beam="2">  1       -4 0.25928024E-01 0.12725466E+03</pdfrwt>
<totfact> 0.49967028E+03</totfact>
</mgrwt>
</event>
<event>
 6    4  0.5642870E-004  0.1406644E+03  0.7818608E-02  0.1212438E+00
         -4   -1    0    0    0  501 -0.00000000000E+00  0.00000000000E+00  0.48652287974E+03  0.48652453732E+03  0.12700000000E+01 0. -1.
          4   -1    0    0  502    0  0.00000000000E+00 -0.00000000000E+00 -0.35426001896E+02  0.35448758940E+02  0.12700000000E+01 0. -1.
         25    2    1    2    0    0 -0.27525635614E+02  0.58347699080E+02  0.43254794031E+03  0.45484522696E+03  0.12499738085E+03 0.  0.
    9000005    1    3    3    0    0  0.26274569365E+01  0.55435598069E+02  0.41719018454E+03  0.42086655740E+03  0.10000000000E+01 0.  0.
    9000005    1    3    3    0    0 -0.30153092550E+02  0.29121010112E+01  0.15357755770E+02  0.33978669558E+02  0.10000000000E+01 0.  0.
         21    1    1    2  502  501  0.27525635614E+02 -0.58347699080E+02  0.18548937536E+02  0.67128069298E+02  0.00000000000E+00 0. -1.
<mgrwt>
<rscale>  1 0.14066435E+03</rscale>
<asrwt>0</asrwt>
<pdfrwt beam="2">  1        4 0.54520319E-02 0.14066435E+03</pdfrwt>
<pdfrwt beam="1">  1       -4 0.74851555E-01 0.14066435E+03</pdfrwt>
<totfact> 0.57110535E+02</totfact>
</mgrwt>
</event>
<event>
 6    4  0.5642870E-004  0.1304178E+03  0.7818608E-02  0.1226837E+00
         -4   -1    0    0    0  501 -0.00000000000E+00  0.00000000000E+00  0.92474389907E+02  0.92483110289E+02  0.12700000000E+01 0.  1.
          4   -1    0    0  502    0  0.00000000000E+00 -0.00000000000E+00 -0.84878110497E+02  0.84887611237E+02  0.12700000000E+01 0.  1.
         25    2    1    2    0    0  0.33366438136E+02 -0.16452089526E+02  0.30161441825E+02  0.13386006768E+03  0.12499925881E+03 0.  0.
    9000005    1    3    3    0    0 -0.94323762766E+01 -0.49046701255E+02  0.55255346557E+02  0.74489609674E+02  0.10000000000E+01 0.  0.
    9000005    1    3    3    0    0  0.42798814412E+02  0.32594611728E+02 -0.25093904732E+02  0.59370458003E+02  0.10000000000E+01 0.  0.
         21    1    1    2  502  501 -0.33366438136E+02  0.16452089526E+02 -0.22565162415E+02  0.43510653850E+02  0.00000000000E+00 0. -1.
<mgrwt>
<rscale>  1 0.13041781E+03</rscale>
<asrwt>0</asrwt>
<pdfrwt beam="2">  1        4 0.13059572E-01 0.13041781E+03</pdfrwt>
<pdfrwt beam="1">  1       -4 0.14228231E-01 0.13041781E+03</pdfrwt>
<totfact> 0.32203050E+03</totfact>
</mgrwt>
</event>
<event>
 6    4  0.5642870E-004  0.1269778E+03  0.7818608E-02  0.1232010E+00
          4   -1    0    0  502    0  0.00000000000E+00  0.00000000000E+00  0.64573659967E+02  0.64586147598E+02  0.12700000000E+01 0. -1.
         -4   -1    0    0    0  501 -0.00000000000E+00 -0.00000000000E+00 -0.86313500546E+02  0.86322843306E+02  0.12700000000E+01 0. -1.
         25    2    1    2    0    0  0.17504758289E+02 -0.13864599753E+02 -0.19504881233E+02  0.12846709410E+03  0.12499884073E+03 0.  0.
    9000005    1    3    3    0    0 -0.25209564414E+02 -0.47232405885E+02  0.24266600784E+02  0.58790222122E+02  0.10000000000E+01 0.  0.
    9000005    1    3    3    0    0  0.42714322704E+02  0.33367806132E+02 -0.43771482017E+02  0.69676871974E+02  0.10000000000E+01 0.  0.
         21    1    1    2  502  501 -0.17504758289E+02  0.13864599753E+02 -0.22349593456E+01  0.22441896808E+02  0.00000000000E+00 0. -1.
<mgrwt>
<rscale>  1 0.12697777E+03</rscale>
<asrwt>0</asrwt>
<pdfrwt beam="1">  1        4 0.99360885E-02 0.12697777E+03</pdfrwt>
<pdfrwt beam="2">  1       -4 0.13280679E-01 0.12697777E+03</pdfrwt>
<totfact> 0.57377642E+03</totfact>
</mgrwt>
</event>
<event>
 6    4  0.5642870E-004  0.1287727E+03  0.7818608E-02  0.1229288E+00
          4   -1    0    0  502    0  0.00000000000E+00  0.00000000000E+00  0.87941961782E+02  0.87951131557E+02  0.12700000000E+01 0.  1.
         -4   -1    0    0    0  501 -0.00000000000E+00 -0.00000000000E+00 -0.75433976976E+02  0.75444667025E+02  0.12700000000E+01 0.  1.
         25    2    1    2    0    0 -0.30814373825E+02 -0.29371588179E+01 -0.29289187762E+01  0.12880605258E+03  0.12499707229E+03 0.  0.
    9000005    1    3    3    0    0  0.48872792218E+02 -0.36490337855E+01  0.74672207781E+00  0.49024716834E+02  0.10000000000E+01 0.  0.
    9000005    1    3    3    0    0 -0.79687166043E+02  0.71187496763E+00 -0.36756408540E+01  0.79781335748E+02  0.10000000000E+01 0.  0.
         21    1    1    2  502  501  0.30814373825E+02  0.29371588179E+01  0.15436903582E+02  0.34589746000E+02  0.00000000000E+00 0.  1.
<mgrwt>
<rscale>  1 0.12877275E+03</rscale>
<asrwt>0</asrwt>
<pdfrwt beam="1">  1        4 0.13531060E-01 0.12877275E+03</pdfrwt>
<pdfrwt beam="2">  1       -4 0.11606755E-01 0.12877275E+03</pdfrwt>
<totfact> 0.42859158E+03</totfact>
</mgrwt>
</event>
<event>
 6    4  0.5642870E-004  0.1267381E+03  0.7818608E-02  0.1232378E+00
         -4   -1    0    0    0  501 -0.00000000000E+00  0.00000000000E+00  0.44679363180E+03  0.44679543676E+03  0.12700000000E+01 0.  1.
          4   -1    0    0  502    0  0.00000000000E+00 -0.00000000000E+00 -0.12646963104E+02  0.12710569451E+02  0.12700000000E+01 0.  1.
         25    2    1    2    0    0  0.16565163509E+02  0.12793280742E+02  0.39850540377E+03  0.41817354392E+03  0.12499793329E+03 0.  0.
    9000005    1    3    3    0    0 -0.16292011113E+02  0.40131831575E+02  0.35332086324E+03  0.35596716974E+03  0.10000000000E+01 0.  0.
    9000005    1    3    3    0    0  0.32857174622E+02 -0.27338550833E+02  0.45184540534E+02  0.62206374183E+02  0.10000000000E+01 0.  0.
         21    1    1    2  502  501 -0.16565163509E+02 -0.12793280742E+02  0.35641264917E+02  0.41332462292E+02  0.00000000000E+00 0.  1.
<mgrwt>
<rscale>  1 0.12673814E+03</rscale>
<asrwt>0</asrwt>
<pdfrwt beam="2">  1        4 0.19507184E-02 0.12673814E+03</pdfrwt>
<pdfrwt beam="1">  1       -4 0.68742509E-01 0.12673814E+03</pdfrwt>
<totfact> 0.33836493E+03</totfact>
</mgrwt>
</event>
<event>
 6    4  0.5642870E-004  0.1291069E+03  0.7818608E-02  0.1228787E+00
          4   -1    0    0  502    0  0.00000000000E+00  0.00000000000E+00  0.21925991328E+03  0.21926359130E+03  0.12700000000E+01 0.  1.
         -4   -1    0    0    0  501 -0.00000000000E+00 -0.00000000000E+00 -0.54963206876E+02  0.54977877461E+02  0.12700000000E+01 0.  1.
         25    2    1    2    0    0 -0.17901606991E+02 -0.26886590473E+02  0.25327532705E+02  0.13156775879E+03  0.12500093983E+03 0.  0.
    9000005    1    3    3    0    0  0.35081835089E+02  0.27963183306E+02  0.31840419682E+02  0.55022605349E+02  0.10000000000E+01 0.  0.
    9000005    1    3    3    0    0 -0.52983442080E+02 -0.54849773779E+02 -0.65128869777E+01  0.76545153439E+02  0.10000000000E+01 0.  0.
         21    1    1    2  502  501  0.17901606991E+02  0.26886590473E+02  0.13896917370E+03  0.14267370997E+03  0.00000000000E+00 0. -1.
<mgrwt>
<rscale>  1 0.12910690E+03</rscale>
<asrwt>0</asrwt>
<pdfrwt beam="1">  1        4 0.33733705E-01 0.12910690E+03</pdfrwt>
<pdfrwt beam="2">  1       -4 0.84572896E-02 0.12910690E+03</pdfrwt>
<totfact> 0.13922868E+03</totfact>
</mgrwt>
</event>
<event>
 6    4  0.5642870E-004  0.1284203E+03  0.7818608E-02  0.1229819E+00
         -4   -1    0    0    0  501 -0.00000000000E+00  0.00000000000E+00  0.53963958941E+03  0.53964108383E+03  0.12700000000E+01 0. -1.
          4   -1    0    0  502    0  0.00000000000E+00 -0.00000000000E+00 -0.13231645167E+02  0.13292454018E+02  0.12700000000E+01 0. -1.
         25    2    1    2    0    0  0.11644002409E+01 -0.29406560346E+02  0.48760634440E+03  0.50423378662E+03  0.12500265139E+03 0.  0.
    9000005    1    3    3    0    0  0.46611215841E+02 -0.32230565026E+02  0.10859879386E+03  0.12249943996E+03  0.10000000000E+01 0.  0.
    9000005    1    3    3    0    0 -0.45446815601E+02  0.28240046805E+01  0.37900755054E+03  0.38173434666E+03  0.10000000000E+01 0.  0.
         21    1    1    2  502  501 -0.11644002409E+01  0.29406560346E+02  0.38801599847E+02  0.48699751232E+02  0.00000000000E+00 0. -1.
<mgrwt>
<rscale>  1 0.12842027E+03</rscale>
<asrwt>0</asrwt>
<pdfrwt beam="2">  1        4 0.20404301E-02 0.12842027E+03</pdfrwt>
<pdfrwt beam="1">  1       -4 0.83026276E-01 0.12842027E+03</pdfrwt>
<totfact> 0.20968369E+03</totfact>
</mgrwt>
</event>
<event>
 6    4  0.5642870E-004  0.1274610E+03  0.7818608E-02  0.1231273E+00
          4   -1    0    0  502    0  0.00000000000E+00  0.00000000000E+00  0.68837339707E+02  0.68849054009E+02  0.12700000000E+01 0.  1.
         -4   -1    0    0    0  501 -0.00000000000E+00 -0.00000000000E+00 -0.91581844316E+02  0.91590649677E+02  0.12700000000E+01 0.  1.
         25    2    1    2    0    0  0.16173974668E+02  0.18963587867E+02 -0.35677246731E+02  0.13235997897E+03  0.12500033191E+03 0.  0.
    9000005    1    3    3    0    0  0.41704594941E+02  0.60054732836E+02 -0.15315351308E+01  0.73138155399E+02  0.10000000000E+01 0.  0.
    9000005    1    3    3    0    0 -0.25530620273E+02 -0.41091144970E+02 -0.34145711600E+02  0.59221823572E+02  0.10000000000E+01 0.  0.
         21    1    1    2  502  501 -0.16173974668E+02 -0.18963587867E+02  0.12932742122E+02  0.28079724716E+02  0.00000000000E+00 0.  1.
<mgrwt>
<rscale>  1 0.12746097E+03</rscale>
<asrwt>0</asrwt>
<pdfrwt beam="1">  1        4 0.10591938E-01 0.12746097E+03</pdfrwt>
<pdfrwt beam="2">  1       -4 0.14091093E-01 0.12746097E+03</pdfrwt>
<totfact> 0.46546500E+03</totfact>
</mgrwt>
</event>
<event>
 6    4  0.5642870E-004  0.1286743E+03  0.7818608E-02  0.1229436E+00
          4   -1    0    0  502    0  0.00000000000E+00  0.00000000000E+00  0.33285520392E+02  0.33309739834E+02  0.12700000000E+01 0.  1.
         -4   -1    0    0    0  501 -0.00000000000E+00 -0.00000000000E+00 -0.24357607573E+03  0.24357938658E+03  0.12700000000E+01 0.  1.
         25    2    1    2    0    0  0.29845714587E+02 -0.65305650236E+01 -0.21005846126E+03  0.24633640433E+03  0.12499460786E+03 0.  0.
    9000005    1    3    3    0    0  0.11846310716E+02 -0.61148726491E+02 -0.15355318099E+03  0.16570781883E+03  0.10000000000E+01 0.  0.
    9000005    1    3    3    0    0  0.17999403871E+02  0.54618161467E+02 -0.56505280278E+02  0.80628585508E+02  0.10000000000E+01 0.  0.
         21    1    1    2  502  501 -0.29845714587E+02  0.65305650236E+01 -0.23209406893E+00  0.30552722078E+02  0.00000000000E+00 0.  1.
<mgrwt>
<rscale>  1 0.12867427E+03</rscale>
<asrwt>0</asrwt>
<pdfrwt beam="1">  1        4 0.51229672E-02 0.12867427E+03</pdfrwt>
<pdfrwt beam="2">  1       -4 0.37475359E-01 0.12867427E+03</pdfrwt>
<totfact> 0.25750315E+03</totfact>
</mgrwt>
</event>
<event>
 6    4  0.5642870E-004  0.1297758E+03  0.7818608E-02  0.1227789E+00
         -4   -1    0    0    0  501 -0.00000000000E+00  0.00000000000E+00  0.17271941867E+03  0.17272408774E+03  0.12700000000E+01 0. -1.
          4   -1    0    0  502    0  0.00000000000E+00 -0.00000000000E+00 -0.78029477795E+02  0.78039812308E+02  0.12700000000E+01 0. -1.
         25    2    1    2    0    0  0.11791457854E+02 -0.32829253374E+02  0.14175066966E+03  0.19218480353E+03  0.12499979201E+03 0.  0.
    9000005    1    3    3    0    0  0.56242354317E+02 -0.46836896922E+02  0.48139709513E+02  0.87608954818E+02  0.10000000000E+01 0.  0.
    9000005    1    3    3    0    0 -0.44450896464E+02  0.14007643547E+02  0.93610960149E+02  0.10457584871E+03  0.10000000000E+01 0.  0.
         21    1    1    2  502  501 -0.11791457854E+02  0.32829253374E+02 -0.47060728783E+02  0.58579096520E+02  0.00000000000E+00 0. -1.
<mgrwt>
<rscale>  1 0.12977575E+03</rscale>
<asrwt>0</asrwt>
<pdfrwt beam="2">  1        4 0.12005689E-01 0.12977575E+03</pdfrwt>
<pdfrwt beam="1">  1       -4 0.26573372E-01 0.12977575E+03</pdfrwt>
<totfact> 0.12120462E+03</totfact>
</mgrwt>
</event>
<event>
 6    4  0.5642870E-004  0.1309911E+03  0.7818608E-02  0.1225992E+00
         -4   -1    0    0    0  501 -0.00000000000E+00  0.00000000000E+00  0.22199231896E+03  0.22199595172E+03  0.12700000000E+01 0.  1.
          4   -1    0    0  502    0  0.00000000000E+00 -0.00000000000E+00 -0.33397994978E+02  0.33422132915E+02  0.12700000000E+01 0.  1.
         25    2    1    2    0    0 -0.37690875202E+02  0.10852593601E+02  0.12736415424E+03  0.18270278674E+03  0.12498119712E+03 0.  0.
    9000005    1    3    3    0    0  0.18083788166E+02  0.87728951074E+01  0.12523311696E+03  0.12683974404E+03  0.10000000000E+01 0.  0.
    9000005    1    3    3    0    0 -0.55774663368E+02  0.20796984939E+01  0.21310372786E+01  0.55863042698E+02  0.10000000000E+01 0.  0.
         21    1    1    2  502  501  0.37690875202E+02 -0.10852593601E+02  0.61230169745E+02  0.72715297898E+02  0.00000000000E+00 0.  1.
<mgrwt>
<rscale>  1 0.13099115E+03</rscale>
<asrwt>0</asrwt>
<pdfrwt beam="2">  1        4 0.51402893E-02 0.13099115E+03</pdfrwt>
<pdfrwt beam="1">  1       -4 0.34154800E-01 0.13099115E+03</pdfrwt>
<totfact> 0.30776334E+03</totfact>
</mgrwt>
</event>
<event>
 6    4  0.5642870E-004  0.1288099E+03  0.7818608E-02  0.1229232E+00
          4   -1    0    0  502    0  0.00000000000E+00  0.00000000000E+00  0.68489153592E+03  0.68489271340E+03  0.12700000000E+01 0.  1.
         -4   -1    0    0    0  501 -0.00000000000E+00 -0.00000000000E+00 -0.95249454155E+01  0.96092395729E+01  0.12700000000E+01 0.  1.
         25    2    1    2    0    0 -0.11940855153E+02 -0.28713062176E+02  0.49561360322E+03  0.51207892703E+03  0.12499983937E+03 0.  0.
    9000005    1    3    3    0    0  0.63639869922E+01 -0.12803134552E+02 -0.14657648844E+01  0.14407256903E+02  0.10000000000E+01 0.  0.
    9000005    1    3    3    0    0 -0.18304842146E+02 -0.15909927624E+02  0.49707936811E+03  0.49767167012E+03  0.10000000000E+01 0.  0.
         21    1    1    2  502  501  0.11940855153E+02  0.28713062176E+02  0.17975298728E+03  0.18242302595E+03  0.00000000000E+00 0.  1.
<mgrwt>
<rscale>  1 0.12880987E+03</rscale>
<asrwt>0</asrwt>
<pdfrwt beam="1">  1        4 0.10537453E+00 0.12880987E+03</pdfrwt>
<pdfrwt beam="2">  1       -4 0.14719506E-02 0.12880987E+03</pdfrwt>
<totfact> 0.20103119E+03</totfact>
</mgrwt>
</event>
<event>
 6    4  0.5642870E-004  0.1273886E+03  0.7818608E-02  0.1231383E+00
         -4   -1    0    0    0  501 -0.00000000000E+00  0.00000000000E+00  0.68639937090E+02  0.68651685076E+02  0.12700000000E+01 0. -1.
          4   -1    0    0  502    0  0.00000000000E+00 -0.00000000000E+00 -0.99537605988E+02  0.99545707622E+02  0.12700000000E+01 0. -1.
         25    2    1    2    0    0 -0.24776611218E+02  0.16530167779E+01  0.14758916234E+01  0.12739714333E+03  0.12494495165E+03 0.  0.
    9000005    1    3    3    0    0 -0.10904863406E+02  0.63275360259E+02  0.89511347089E+00  0.64222180669E+02  0.10000000000E+01 0.  0.
    9000005    1    3    3    0    0 -0.13871747812E+02 -0.61622343481E+02  0.58077815246E+00  0.63174962657E+02  0.10000000000E+01 0.  0.
         21    1    1    2  502  501  0.24776611218E+02 -0.16530167779E+01 -0.32373560522E+02  0.40800249372E+02  0.00000000000E+00 0. -1.
<mgrwt>
<rscale>  1 0.12738859E+03</rscale>
<asrwt>0</asrwt>
<pdfrwt beam="2">  1        4 0.15315005E-01 0.12738859E+03</pdfrwt>
<pdfrwt beam="1">  1       -4 0.10561517E-01 0.12738859E+03</pdfrwt>
<totfact> 0.40456404E+03</totfact>
</mgrwt>
</event>
<event>
 6    4  0.5642870E-004  0.1842539E+03  0.7818608E-02  0.1163748E+00
         -4   -1    0    0    0  501 -0.00000000000E+00  0.00000000000E+00  0.42494165756E+03  0.42494355534E+03  0.12700000000E+01 0.  1.
          4   -1    0    0  502    0  0.00000000000E+00 -0.00000000000E+00 -0.72195104604E+02  0.72206274165E+02  0.12700000000E+01 0.  1.
         25    2    1    2    0    0 -0.74838230326E+02  0.11279889584E+03  0.29959861244E+03  0.35172268210E+03  0.12500065962E+03 0.  0.
    9000005    1    3    3    0    0  0.21204007615E+01  0.73167221477E+02  0.53018359348E+02  0.90387415197E+02  0.10000000000E+01 0.  0.
    9000005    1    3    3    0    0 -0.76958631087E+02  0.39631674367E+02  0.24658025310E+03  0.26133526691E+03  0.10000000000E+01 0.  0.
         21    1    1    2  502  501  0.74838230326E+02 -0.11279889584E+03  0.53147940509E+02  0.14542714741E+03  0.00000000000E+00 0.  1.
<mgrwt>
<rscale>  1 0.18425395E+03</rscale>
<asrwt>0</asrwt>
<pdfrwt beam="2">  1        4 0.11107944E-01 0.18425395E+03</pdfrwt>
<pdfrwt beam="1">  1       -4 0.65376644E-01 0.18425395E+03</pdfrwt>
<totfact> 0.24622328E+02</totfact>
</mgrwt>
</event>
<event>
 6    4  0.5642870E-004  0.1372445E+03  0.7818608E-02  0.1217085E+00
         -4   -1    0    0    0  501 -0.00000000000E+00  0.00000000000E+00  0.54872917077E+02  0.54887611795E+02  0.12700000000E+01 0. -1.
          4   -1    0    0  502    0  0.00000000000E+00 -0.00000000000E+00 -0.17332572742E+03  0.17333038016E+03  0.12700000000E+01 0. -1.
         25    2    1    2    0    0 -0.30544358578E+02 -0.47729407956E+02 -0.72232093809E+02  0.15509201256E+03  0.12500001104E+03 0.  0.
    9000005    1    3    3    0    0  0.38998629874E+02 -0.12677976331E+02 -0.65016518901E+02  0.76875041112E+02  0.10000000000E+01 0.  0.
    9000005    1    3    3    0    0 -0.69542988452E+02 -0.35051431625E+02 -0.72155749074E+01  0.78216971452E+02  0.10000000000E+01 0.  0.
         21    1    1    2  502  501  0.30544358578E+02  0.47729407956E+02 -0.46220716535E+02  0.73125979390E+02  0.00000000000E+00 0. -1.
<mgrwt>
<rscale>  1 0.13724452E+03</rscale>
<asrwt>0</asrwt>
<pdfrwt beam="2">  1        4 0.26666985E-01 0.13724452E+03</pdfrwt>
<pdfrwt beam="1">  1       -4 0.84434756E-02 0.13724452E+03</pdfrwt>
<totfact> 0.22064778E+03</totfact>
</mgrwt>
</event>
<event>
 6    4  0.5642870E-004  0.1271008E+03  0.7818608E-02  0.1231822E+00
          4   -1    0    0  502    0  0.00000000000E+00  0.00000000000E+00  0.12528865957E+03  0.12529509614E+03  0.12700000000E+01 0. -1.
         -4   -1    0    0    0  501 -0.00000000000E+00 -0.00000000000E+00 -0.51186371422E+02  0.51202124168E+02  0.12700000000E+01 0. -1.
         25    2    1    2    0    0  0.22098444304E+02  0.67014961461E+01  0.36270714558E+02  0.13217477395E+03  0.12498541852E+03 0.  0.
    9000005    1    3    3    0    0  0.25395836984E+02  0.87244688163E+01  0.81990071338E+02  0.86281149102E+02  0.10000000000E+01 0.  0.
    9000005    1    3    3    0    0 -0.32973926804E+01 -0.20229726701E+01 -0.45719356780E+02  0.45893624844E+02  0.10000000000E+01 0.  0.
         21    1    1    2  502  501 -0.22098444304E+02 -0.67014961461E+01  0.37831573586E+02  0.44322446359E+02  0.00000000000E+00 0. -1.
<mgrwt>
<rscale>  1 0.12710077E+03</rscale>
<asrwt>0</asrwt>
<pdfrwt beam="1">  1        4 0.19276885E-01 0.12710077E+03</pdfrwt>
<pdfrwt beam="2">  1       -4 0.78765334E-02 0.12710077E+03</pdfrwt>
<totfact> 0.43951536E+03</totfact>
</mgrwt>
</event>
<event>
 6    4  0.5642870E-004  0.1307571E+03  0.7818608E-02  0.1226337E+00
          4   -1    0    0  502    0  0.00000000000E+00  0.00000000000E+00  0.24951562011E+03  0.24951885216E+03  0.12700000000E+01 0.  1.
         -4   -1    0    0    0  501 -0.00000000000E+00 -0.00000000000E+00 -0.29588308398E+02  0.29615551554E+02  0.12700000000E+01 0.  1.
         25    2    1    2    0    0 -0.32164525771E+02 -0.20913941662E+02  0.14706265641E+03  0.19678631529E+03  0.12500191718E+03 0.  0.
    9000005    1    3    3    0    0 -0.13908438074E+02 -0.45645255046E+02  0.15729220304E+03  0.16437387595E+03  0.10000000000E+01 0.  0.
    9000005    1    3    3    0    0 -0.18256087697E+02  0.24731313384E+02 -0.10229546627E+02  0.32412439339E+02  0.10000000000E+01 0.  0.
         21    1    1    2  502  501  0.32164525771E+02  0.20913941662E+02  0.72864655306E+02  0.82348088422E+02  0.00000000000E+00 0. -1.
<mgrwt>
<rscale>  1 0.13075714E+03</rscale>
<asrwt>0</asrwt>
<pdfrwt beam="1">  1        4 0.38389364E-01 0.13075714E+03</pdfrwt>
<pdfrwt beam="2">  1       -4 0.45543915E-02 0.13075714E+03</pdfrwt>
<totfact> 0.29781172E+03</totfact>
</mgrwt>
</event>
<event>
 6    4  0.5642870E-004  0.1274160E+03  0.7818608E-02  0.1231341E+00
          4   -1    0    0  502    0  0.00000000000E+00  0.00000000000E+00  0.59920828586E+02  0.59934285667E+02  0.12700000000E+01 0.  1.
         -4   -1    0    0    0  501 -0.00000000000E+00 -0.00000000000E+00 -0.97226322428E+02  0.97234616638E+02  0.12700000000E+01 0.  1.
         25    2    1    2    0    0  0.24579040642E+02  0.23964522200E+01 -0.26155361343E+02  0.13007281999E+03  0.12499985340E+03 0.  0.
    9000005    1    3    3    0    0 -0.11374722749E+02 -0.39793446752E+02 -0.53991344027E+02  0.68036519251E+02  0.10000000000E+01 0.  0.
    9000005    1    3    3    0    0  0.35953763391E+02  0.42189898972E+02  0.27835982684E+02  0.62036300738E+02  0.10000000000E+01 0.  0.
         21    1    1    2  502  501 -0.24579040642E+02 -0.23964522200E+01 -0.11150132499E+02  0.27096082316E+02  0.00000000000E+00 0.  1.
<mgrwt>
<rscale>  1 0.12741599E+03</rscale>
<asrwt>0</asrwt>
<pdfrwt beam="1">  1        4 0.92202622E-02 0.12741599E+03</pdfrwt>
<pdfrwt beam="2">  1       -4 0.14959569E-01 0.12741599E+03</pdfrwt>
<totfact> 0.52961251E+03</totfact>
</mgrwt>
</event>
<event>
 6    4  0.5642870E-004  0.1323544E+03  0.7818608E-02  0.1224003E+00
         -4   -1    0    0    0  501 -0.00000000000E+00  0.00000000000E+00  0.28251812374E+02  0.28280343040E+02  0.12700000000E+01 0.  1.
          4   -1    0    0  502    0  0.00000000000E+00 -0.00000000000E+00 -0.27674904205E+03  0.27675195605E+03  0.12700000000E+01 0.  1.
         25    2    1    2    0    0  0.34763640890E+02  0.26184864131E+02 -0.17210759361E+03  0.21711452878E+03  0.12499414783E+03 0.  0.
    9000005    1    3    3    0    0  0.68241497935E+02 -0.18650503180E+02 -0.64105075143E+02  0.95473577331E+02  0.10000000000E+01 0.  0.
    9000005    1    3    3    0    0 -0.33477857044E+02  0.44835367311E+02 -0.10800251847E+03  0.12164095145E+03  0.10000000000E+01 0.  0.
         21    1    1    2  502  501 -0.34763640890E+02 -0.26184864131E+02 -0.76389636066E+02  0.87917770307E+02  0.00000000000E+00 0. -1.
<mgrwt>
<rscale>  1 0.13235443E+03</rscale>
<asrwt>0</asrwt>
<pdfrwt beam="2">  1        4 0.42579193E-01 0.13235443E+03</pdfrwt>
<pdfrwt beam="1">  1       -4 0.43488517E-02 0.13235443E+03</pdfrwt>
<totfact> 0.26218533E+03</totfact>
</mgrwt>
</event>
<event>
 6    4  0.5642870E-004  0.1358221E+03  0.7818608E-02  0.1219064E+00
         -4   -1    0    0    0  501 -0.00000000000E+00  0.00000000000E+00  0.48034165094E+03  0.48034332985E+03  0.12700000000E+01 0.  1.
          4   -1    0    0  502    0  0.00000000000E+00 -0.00000000000E+00 -0.19460934663E+02  0.19502330065E+02  0.12700000000E+01 0.  1.
         25    2    1    2    0    0  0.53017811877E+02  0.33936630792E+01  0.27800971341E+03  0.30941402122E+03  0.12500092180E+03 0.  0.
    9000005    1    3    3    0    0  0.51356475009E+01 -0.33725767535E+02  0.11365752836E+02  0.35971969762E+02  0.10000000000E+01 0.  0.
    9000005    1    3    3    0    0  0.47882164376E+02  0.37119430614E+02  0.26664396058E+03  0.27344205146E+03  0.10000000000E+01 0.  0.
         21    1    1    2  502  501 -0.53017811877E+02 -0.33936630792E+01  0.18287100287E+03  0.19043163869E+03  0.00000000000E+00 0.  1.
<mgrwt>
<rscale>  1 0.13582207E+03</rscale>
<asrwt>0</asrwt>
<pdfrwt beam="2">  1        4 0.29973037E-02 0.13582207E+03</pdfrwt>
<pdfrwt beam="1">  1       -4 0.73902020E-01 0.13582207E+03</pdfrwt>
<totfact> 0.15099771E+03</totfact>
</mgrwt>
</event>
<event>
 6    4  0.5642870E-004  0.1268280E+03  0.7818608E-02  0.1232240E+00
         -4   -1    0    0    0  501 -0.00000000000E+00  0.00000000000E+00  0.82181240810E+03  0.82181338941E+03  0.12700000000E+01 0. -1.
          4   -1    0    0  502    0  0.00000000000E+00 -0.00000000000E+00 -0.68018533473E+01  0.69194009104E+01  0.12700000000E+01 0. -1.
         25    2    1    2    0    0 -0.18984475093E+02  0.99866227452E+01  0.73669970207E+03  0.74753714649E+03  0.12500076570E+03 0.  0.
    9000005    1    3    3    0    0 -0.41648625415E+02 -0.44850994443E+02  0.25747085734E+03  0.26464780763E+03  0.10000000000E+01 0.  0.
    9000005    1    3    3    0    0  0.22664150322E+02  0.54837617188E+02  0.47922884473E+03  0.48288933887E+03  0.10000000000E+01 0.  0.
         21    1    1    2  502  501  0.18984475093E+02 -0.99866227452E+01  0.78310852683E+02  0.81195643826E+02  0.00000000000E+00 0.  1.
<mgrwt>
<rscale>  1 0.12682797E+03</rscale>
<asrwt>0</asrwt>
<pdfrwt beam="2">  1        4 0.10555562E-02 0.12682797E+03</pdfrwt>
<pdfrwt beam="1">  1       -4 0.12644184E+00 0.12682797E+03</pdfrwt>
<totfact> 0.21481055E+03</totfact>
</mgrwt>
</event>
<event>
 6    4  0.5642870E-004  0.1279966E+03  0.7818608E-02  0.1230459E+00
         -4   -1    0    0    0  501 -0.00000000000E+00  0.00000000000E+00  0.15839257068E+02  0.15890090134E+02  0.12700000000E+01 0. -1.
          4   -1    0    0  502    0  0.00000000000E+00 -0.00000000000E+00 -0.41754156299E+03  0.41754349441E+03  0.12700000000E+01 0. -1.
         25    2    1    2    0    0  0.21240235293E+02 -0.17520281388E+02 -0.26892867416E+03  0.29783511424E+03  0.12500006255E+03 0.  0.
    9000005    1    3    3    0    0  0.70080569285E+02 -0.53912056714E+01 -0.20341367203E+03  0.21521726989E+03  0.10000000000E+01 0.  0.
    9000005    1    3    3    0    0 -0.48840333992E+02 -0.12129075717E+02 -0.65515002124E+02  0.82617844353E+02  0.10000000000E+01 0.  0.
         21    1    1    2  502  501 -0.21240235293E+02  0.17520281388E+02 -0.13277363176E+03  0.13559847030E+03  0.00000000000E+00 0. -1.
<mgrwt>
<rscale>  1 0.12799658E+03</rscale>
<asrwt>0</asrwt>
<pdfrwt beam="2">  1        4 0.64241214E-01 0.12799658E+03</pdfrwt>
<pdfrwt beam="1">  1       -4 0.24408679E-02 0.12799658E+03</pdfrwt>
<totfact> 0.27728530E+03</totfact>
</mgrwt>
</event>
<event>
 6    4  0.5642870E-004  0.1273281E+03  0.7818608E-02  0.1231475E+00
          4   -1    0    0  502    0  0.00000000000E+00  0.00000000000E+00  0.17863820868E+03  0.17864272306E+03  0.12700000000E+01 0. -1.
         -4   -1    0    0    0  501 -0.00000000000E+00 -0.00000000000E+00 -0.32300803476E+02  0.32325760706E+02  0.12700000000E+01 0. -1.
         25    2    1    2    0    0 -0.17048429033E+00 -0.24234752589E+02  0.11705274978E+03  0.17295607341E+03  0.12500041919E+03 0.  0.
    9000005    1    3    3    0    0 -0.76399689103E+01 -0.45717425858E+02 -0.69504955211E+01  0.46880289461E+02  0.10000000000E+01 0.  0.
    9000005    1    3    3    0    0  0.74694846200E+01  0.21482673269E+02  0.12400324530E+03  0.12607578394E+03  0.10000000000E+01 0.  0.
         21    1    1    2  502  501  0.17048429033E+00  0.24234752589E+02  0.29284655426E+02  0.38012410359E+02  0.00000000000E+00 0. -1.
<mgrwt>
<rscale>  1 0.12732815E+03</rscale>
<asrwt>0</asrwt>
<pdfrwt beam="1">  1        4 0.27485068E-01 0.12732815E+03</pdfrwt>
<pdfrwt beam="2">  1       -4 0.49716214E-02 0.12732815E+03</pdfrwt>
<totfact> 0.48654931E+03</totfact>
</mgrwt>
</event>
<event>
 6    4  0.5642870E-004  0.1270883E+03  0.7818608E-02  0.1231841E+00
          4   -1    0    0  502    0  0.00000000000E+00  0.00000000000E+00  0.14323966364E+03  0.14324529360E+03  0.12700000000E+01 0. -1.
         -4   -1    0    0    0  501 -0.00000000000E+00 -0.00000000000E+00 -0.46049345941E+02  0.46066855347E+02  0.12700000000E+01 0. -1.
         25    2    1    2    0    0  0.15957261613E+02 -0.16505562844E+02  0.49508159297E+02  0.13639092416E+03  0.12499743419E+03 0.  0.
    9000005    1    3    3    0    0 -0.40831786333E+02 -0.10764651950E+02  0.64745449788E+02  0.77305147144E+02  0.10000000000E+01 0.  0.
    9000005    1    3    3    0    0  0.56789047947E+02 -0.57409108942E+01 -0.15237290491E+02  0.59085777020E+02  0.10000000000E+01 0.  0.
         21    1    1    2  502  501 -0.15957261613E+02  0.16505562844E+02  0.47682158399E+02  0.52921224784E+02  0.00000000000E+00 0. -1.
<mgrwt>
<rscale>  1 0.12708826E+03</rscale>
<asrwt>0</asrwt>
<pdfrwt beam="1">  1        4 0.22038651E-01 0.12708826E+03</pdfrwt>
<pdfrwt beam="2">  1       -4 0.70862948E-02 0.12708826E+03</pdfrwt>
<totfact> 0.41090775E+03</totfact>
</mgrwt>
</event>
<event>
 6    4  0.5642870E-004  0.1288682E+03  0.7818608E-02  0.1229145E+00
         -4   -1    0    0    0  501 -0.00000000000E+00  0.00000000000E+00  0.16173409806E+03  0.16173908425E+03  0.12700000000E+01 0.  1.
          4   -1    0    0  502    0  0.00000000000E+00 -0.00000000000E+00 -0.47445654253E+02  0.47462648551E+02  0.12700000000E+01 0.  1.
         25    2    1    2    0    0 -0.98441593934E+01 -0.29754528476E+02  0.12142114705E+03  0.17705962811E+03  0.12499911006E+03 0.  0.
    9000005    1    3    3    0    0 -0.18064623999E+01 -0.60118164643E+02  0.96102176420E+01  0.60916445313E+02  0.10000000000E+01 0.  0.
    9000005    1    3    3    0    0 -0.80376969935E+01  0.30363636166E+02  0.11181092941E+03  0.11614318279E+03  0.10000000000E+01 0.  0.
         21    1    1    2  502  501  0.98441593934E+01  0.29754528476E+02 -0.71327032422E+01  0.32142104700E+02  0.00000000000E+00 0. -1.
<mgrwt>
<rscale>  1 0.12886822E+03</rscale>
<asrwt>0</asrwt>
<pdfrwt beam="2">  1        4 0.73010222E-02 0.12886822E+03</pdfrwt>
<pdfrwt beam="1">  1       -4 0.24883860E-01 0.12886822E+03</pdfrwt>
<totfact> 0.31438019E+03</totfact>
</mgrwt>
</event>
<event>
 6    4  0.5642870E-004  0.1297454E+03  0.7818608E-02  0.1227834E+00
         -4   -1    0    0    0  501 -0.00000000000E+00  0.00000000000E+00  0.87391041396E+01  0.88309026244E+01  0.12700000000E+01 0.  1.
          4   -1    0    0  502    0  0.00000000000E+00 -0.00000000000E+00 -0.77507405609E+03  0.77507509658E+03  0.12700000000E+01 0.  1.
         25    2    1    2    0    0 -0.21281349227E+02  0.27497863553E+02 -0.62855344045E+03  0.64180472110E+03  0.12499937680E+03 0.  0.
    9000005    1    3    3    0    0  0.29470990275E+02  0.26293767060E+02 -0.52487739643E+03  0.52636221629E+03  0.10000000000E+01 0.  0.
    9000005    1    3    3    0    0 -0.50752339502E+02  0.12040964932E+01 -0.10367604402E+03  0.11544250481E+03  0.10000000000E+01 0.  0.
         21    1    1    2  502  501  0.21281349227E+02 -0.27497863553E+02 -0.13778151150E+03  0.14210127810E+03  0.00000000000E+00 0.  1.
<mgrwt>
<rscale>  1 0.12974541E+03</rscale>
<asrwt>0</asrwt>
<pdfrwt beam="2">  1        4 0.11924925E+00 0.12974541E+03</pdfrwt>
<pdfrwt beam="1">  1       -4 0.13516196E-02 0.12974541E+03</pdfrwt>
<totfact> 0.17116689E+03</totfact>
</mgrwt>
</event>
<event>
 6    4  0.5642870E-004  0.1353702E+03  0.7818608E-02  0.1219698E+00
         -4   -1    0    0    0  501 -0.00000000000E+00  0.00000000000E+00  0.45131190937E+03  0.45131369627E+03  0.12700000000E+01 0. -1.
          4   -1    0    0  502    0  0.00000000000E+00 -0.00000000000E+00 -0.19437200317E+02  0.19478646158E+02  0.12700000000E+01 0. -1.
         25    2    1    2    0    0  0.17137601015E+02  0.49051567725E+02  0.31885946827E+03  0.34640505082E+03  0.12500138024E+03 0.  0.
    9000005    1    3    3    0    0  0.55675169005E+02 -0.16095594542E+02  0.11161732048E+03  0.12577050067E+03  0.10000000000E+01 0.  0.
    9000005    1    3    3    0    0 -0.38537567990E+02  0.65147162267E+02  0.20724214779E+03  0.22063455015E+03  0.10000000000E+01 0.  0.
         21    1    1    2  502  501 -0.17137601015E+02 -0.49051567725E+02  0.11301524078E+03  0.12438729161E+03  0.00000000000E+00 0. -1.
<mgrwt>
<rscale>  1 0.13537023E+03</rscale>
<asrwt>0</asrwt>
<pdfrwt beam="2">  1        4 0.29936639E-02 0.13537023E+03</pdfrwt>
<pdfrwt beam="1">  1       -4 0.69435931E-01 0.13537023E+03</pdfrwt>
<totfact> 0.17303703E+03</totfact>
</mgrwt>
</event>
<event>
 6    4  0.5642870E-004  0.1279076E+03  0.7818608E-02  0.1230594E+00
          4   -1    0    0  502    0  0.00000000000E+00  0.00000000000E+00  0.28253427386E+03  0.28253712819E+03  0.12700000000E+01 0. -1.
         -4   -1    0    0    0  501 -0.00000000000E+00 -0.00000000000E+00 -0.34314678889E+02  0.34338172451E+02  0.12700000000E+01 0. -1.
         25    2    1    2    0    0  0.13408400820E+02 -0.23586384815E+02  0.90126235523E+02  0.15647077121E+03  0.12499704457E+03 0.  0.
    9000005    1    3    3    0    0  0.87869513021E+01 -0.75079618912E+02  0.46009813329E+02  0.88498941303E+02  0.10000000000E+01 0.  0.
    9000005    1    3    3    0    0  0.46214495179E+01  0.51493234097E+02  0.44116422194E+02  0.67971829905E+02  0.10000000000E+01 0.  0.
         21    1    1    2  502  501 -0.13408400820E+02  0.23586384815E+02  0.15809335945E+03  0.16040452944E+03  0.00000000000E+00 0. -1.
<mgrwt>
<rscale>  1 0.12790764E+03</rscale>
<asrwt>0</asrwt>
<pdfrwt beam="1">  1        4 0.43468837E-01 0.12790764E+03</pdfrwt>
<pdfrwt beam="2">  1       -4 0.52812083E-02 0.12790764E+03</pdfrwt>
<totfact> 0.18285137E+03</totfact>
</mgrwt>
</event>
<event>
 6    4  0.5642870E-004  0.1267638E+03  0.7818608E-02  0.1232338E+00
          4   -1    0    0  502    0  0.00000000000E+00  0.00000000000E+00  0.28562325527E+03  0.28562607873E+03  0.12700000000E+01 0.  1.
         -4   -1    0    0    0  501 -0.00000000000E+00 -0.00000000000E+00 -0.19177896685E+02  0.19219901698E+02  0.12700000000E+01 0.  1.
         25    2    1    2    0    0  0.19587948165E+02 -0.77544037980E+01  0.23471784124E+03  0.26676115604E+03  0.12500092354E+03 0.  0.
    9000005    1    3    3    0    0 -0.11526994927E+02  0.44387709503E+02  0.17747258924E+03  0.18330482891E+03  0.10000000000E+01 0.  0.
    9000005    1    3    3    0    0  0.31114943092E+02 -0.52142113301E+02  0.57245251993E+02  0.83456327135E+02  0.10000000000E+01 0.  0.
         21    1    1    2  502  501 -0.19587948165E+02  0.77544037980E+01  0.31727517346E+02  0.38084824386E+02  0.00000000000E+00 0.  1.
<mgrwt>
<rscale>  1 0.12676375E+03</rscale>
<asrwt>0</asrwt>
<pdfrwt beam="1">  1        4 0.43945483E-01 0.12676375E+03</pdfrwt>
<pdfrwt beam="2">  1       -4 0.29538943E-02 0.12676375E+03</pdfrwt>
<totfact> 0.44862615E+03</totfact>
</mgrwt>
</event>
<event>
 6    4  0.5642870E-004  0.1283340E+03  0.7818608E-02  0.1229949E+00
         -4   -1    0    0    0  501 -0.00000000000E+00  0.00000000000E+00  0.28647907851E+03  0.28648189353E+03  0.12700000000E+01 0.  1.
          4   -1    0    0  502    0  0.00000000000E+00 -0.00000000000E+00 -0.30484115510E+02  0.30510558803E+02  0.12700000000E+01 0.  1.
         25    2    1    2    0    0  0.15786241326E+02  0.24408075809E+02  0.25768670463E+03  0.28787507660E+03  0.12499864962E+03 0.  0.
    9000005    1    3    3    0    0  0.37557819921E+02 -0.13754666974E+02  0.17446363887E+02  0.43648096335E+02  0.10000000000E+01 0.  0.
    9000005    1    3    3    0    0 -0.21771578595E+02  0.38162742783E+02  0.24024034074E+03  0.24422698027E+03  0.10000000000E+01 0.  0.
         21    1    1    2  502  501 -0.15786241326E+02 -0.24408075809E+02 -0.16917416310E+01  0.29117375734E+02  0.00000000000E+00 0.  1.
<mgrwt>
<rscale>  1 0.12833403E+03</rscale>
<asrwt>0</asrwt>
<pdfrwt beam="2">  1        4 0.46921145E-02 0.12833403E+03</pdfrwt>
<pdfrwt beam="1">  1       -4 0.44075956E-01 0.12833403E+03</pdfrwt>
<totfact> 0.21522481E+03</totfact>
</mgrwt>
</event>
<event>
 6    4  0.5642870E-004  0.1272721E+03  0.7818608E-02  0.1231561E+00
          4   -1    0    0  502    0  0.00000000000E+00  0.00000000000E+00  0.36499152853E+03  0.36499373803E+03  0.12700000000E+01 0. -1.
         -4   -1    0    0    0  501 -0.00000000000E+00 -0.00000000000E+00 -0.15712821836E+02  0.15764062612E+02  0.12700000000E+01 0. -1.
         25    2    1    2    0    0 -0.20361576447E+02  0.12620809458E+02  0.28369018231E+03  0.31093135036E+03  0.12499722587E+03 0.  0.
    9000005    1    3    3    0    0  0.42538059632E+02  0.13021844960E+02  0.20705544318E+03  0.21178293490E+03  0.10000000000E+01 0.  0.
    9000005    1    3    3    0    0 -0.62899636078E+02 -0.40103550243E+00  0.76634739124E+02  0.99148415463E+02  0.10000000000E+01 0.  0.
         21    1    1    2  502  501  0.20361576447E+02 -0.12620809458E+02  0.65588524385E+02  0.69826450274E+02  0.00000000000E+00 0.  1.
<mgrwt>
<rscale>  1 0.12727209E+03</rscale>
<asrwt>0</asrwt>
<pdfrwt beam="1">  1        4 0.56156657E-01 0.12727209E+03</pdfrwt>
<pdfrwt beam="2">  1       -4 0.24214687E-02 0.12727209E+03</pdfrwt>
<totfact> 0.37173054E+03</totfact>
</mgrwt>
</event>
<event>
 6    4  0.5642870E-004  0.1296872E+03  0.7818608E-02  0.1227921E+00
          4   -1    0    0  502    0  0.00000000000E+00  0.00000000000E+00  0.17012279876E+02  0.17059618008E+02  0.12700000000E+01 0. -1.
         -4   -1    0    0    0  501 -0.00000000000E+00 -0.00000000000E+00 -0.48942144024E+03  0.48942308800E+03  0.12700000000E+01 0. -1.
         25    2    1    2    0    0  0.34435575743E+02  0.28864026544E+01 -0.44138557918E+03  0.46004346843E+03  0.12499849256E+03 0.  0.
    9000005    1    3    3    0    0  0.24297875957E+01  0.28342658079E+02 -0.40281674670E+03  0.40382117522E+03  0.10000000000E+01 0.  0.
    9000005    1    3    3    0    0  0.32005788147E+02 -0.25456255424E+02 -0.38568832483E+02  0.56222293214E+02  0.10000000000E+01 0.  0.
         21    1    1    2  502  501 -0.34435575743E+02 -0.28864026544E+01 -0.31023581184E+02  0.46439237575E+02  0.00000000000E+00 0. -1.
<mgrwt>
<rscale>  1 0.12968717E+03</rscale>
<asrwt>0</asrwt>
<pdfrwt beam="1">  1        4 0.26210423E-02 0.12968717E+03</pdfrwt>
<pdfrwt beam="2">  1       -4 0.75299364E-01 0.12968717E+03</pdfrwt>
<totfact> 0.17689789E+03</totfact>
</mgrwt>
</event>
<event>
 6    4  0.5642870E-004  0.1317211E+03  0.7818608E-02  0.1224924E+00
          4   -1    0    0  502    0  0.00000000000E+00  0.00000000000E+00  0.13351173655E+03  0.13351777671E+03  0.12700000000E+01 0. -1.
         -4   -1    0    0    0  501 -0.00000000000E+00 -0.00000000000E+00 -0.79609222203E+02  0.79619351666E+02  0.12700000000E+01 0. -1.
         25    2    1    2    0    0  0.40164620150E+02  0.10609569393E+02 -0.15111053638E+02  0.13258508159E+03  0.12499880097E+03 0.  0.
    9000005    1    3    3    0    0 -0.40103221377E+02  0.27606592564E+02 -0.13426527776E+02  0.50513997723E+02  0.10000000000E+01 0.  0.
    9000005    1    3    3    0    0  0.80267841527E+02 -0.16997023171E+02 -0.16845258622E+01  0.82071083869E+02  0.10000000000E+01 0.  0.
         21    1    1    2  502  501 -0.40164620150E+02 -0.10609569393E+02  0.69013567990E+02  0.80552046785E+02  0.00000000000E+00 0. -1.
<mgrwt>
<rscale>  1 0.13172114E+03</rscale>
<asrwt>0</asrwt>
<pdfrwt beam="1">  1        4 0.20541511E-01 0.13172114E+03</pdfrwt>
<pdfrwt beam="2">  1       -4 0.12248817E-01 0.13172114E+03</pdfrwt>
<totfact> 0.18824219E+03</totfact>
</mgrwt>
</event>
<event>
 6    4  0.5642870E-004  0.1283785E+03  0.7818608E-02  0.1229882E+00
         -4   -1    0    0    0  501 -0.00000000000E+00  0.00000000000E+00  0.13694762107E+03  0.13695350969E+03  0.12700000000E+01 0. -1.
          4   -1    0    0  502    0  0.00000000000E+00 -0.00000000000E+00 -0.45435359883E+02  0.45453105809E+02  0.12700000000E+01 0. -1.
         25    2    1    2    0    0 -0.27685114247E+02 -0.94796544312E+01  0.71393909092E+02  0.14689496262E+03  0.12499884155E+03 0.  0.
    9000005    1    3    3    0    0 -0.68367644117E+02 -0.38388664099E+02  0.41697989804E+02  0.88811860959E+02  0.10000000000E+01 0.  0.
    9000005    1    3    3    0    0  0.40682529869E+02  0.28909009667E+02  0.29695919288E+02  0.58083101664E+02  0.10000000000E+01 0.  0.
         21    1    1    2  502  501  0.27685114247E+02  0.94796544312E+01  0.20118352094E+02  0.35511652876E+02  0.00000000000E+00 0. -1.
<mgrwt>
<rscale>  1 0.12837850E+03</rscale>
<asrwt>0</asrwt>
<pdfrwt beam="2">  1        4 0.69918735E-02 0.12837850E+03</pdfrwt>
<pdfrwt beam="1">  1       -4 0.21070682E-01 0.12837850E+03</pdfrwt>
<totfact> 0.45680817E+03</totfact>
</mgrwt>
</event>
<event>
 6    4  0.5642870E-004  0.1360466E+03  0.7818608E-02  0.1218750E+00
         -4   -1    0    0    0  501 -0.00000000000E+00  0.00000000000E+00  0.49559628954E+02  0.49575898600E+02  0.12700000000E+01 0.  1.
          4   -1    0    0  502    0  0.00000000000E+00 -0.00000000000E+00 -0.33947976304E+03  0.33948213858E+03  0.12700000000E+01 0.  1.
         25    2    1    2    0    0 -0.22583581556E+02 -0.48729823638E+02 -0.52803110929E+02  0.14593441320E+03  0.12499628220E+03 0.  0.
    9000005    1    3    3    0    0 -0.35422575328E+02  0.26503796138E+02  0.11953460434E+02  0.45837705756E+02  0.10000000000E+01 0.  0.
    9000005    1    3    3    0    0  0.12838993772E+02 -0.75233619775E+02 -0.64756571364E+02  0.10009670744E+03  0.10000000000E+01 0.  0.
         21    1    1    2  502  501  0.22583581556E+02  0.48729823638E+02 -0.23711702315E+03  0.24312362398E+03  0.00000000000E+00 0.  1.
<mgrwt>
<rscale>  1 0.13604663E+03</rscale>
<asrwt>0</asrwt>
<pdfrwt beam="2">  1        4 0.52229089E-01 0.13604663E+03</pdfrwt>
<pdfrwt beam="1">  1       -4 0.76259928E-02 0.13604663E+03</pdfrwt>
<totfact> 0.70246591E+02</totfact>
</mgrwt>
</event>
<event>
 6    4  0.5642870E-004  0.1265919E+03  0.7818608E-02  0.1232602E+00
         -4   -1    0    0    0  501 -0.00000000000E+00  0.00000000000E+00  0.73443351880E+02  0.73454331631E+02  0.12700000000E+01 0.  1.
          4   -1    0    0  502    0  0.00000000000E+00 -0.00000000000E+00 -0.85737590544E+02  0.85746996054E+02  0.12700000000E+01 0.  1.
         25    2    1    2    0    0 -0.19418564963E+02  0.48778194498E+01  0.12642246473E+02  0.12722161413E+03  0.12499855567E+03 0.  0.
    9000005    1    3    3    0    0  0.50350117037E+01 -0.30226922514E+02  0.57538564487E+02  0.65197427793E+02  0.10000000000E+01 0.  0.
    9000005    1    3    3    0    0 -0.24453576667E+02  0.35104741964E+02 -0.44896318014E+02  0.62024186342E+02  0.10000000000E+01 0.  0.
         21    1    1    2  502  501  0.19418564963E+02 -0.48778194498E+01 -0.24936485137E+02  0.31979713551E+02  0.00000000000E+00 0.  1.
<mgrwt>
<rscale>  1 0.12659191E+03</rscale>
<asrwt>0</asrwt>
<pdfrwt beam="2">  1        4 0.13191967E-01 0.12659191E+03</pdfrwt>
<pdfrwt beam="1">  1       -4 0.11300545E-01 0.12659191E+03</pdfrwt>
<totfact> 0.46661631E+03</totfact>
</mgrwt>
</event>
<event>
 6    4  0.5642870E-004  0.1308830E+03  0.7818608E-02  0.1226151E+00
         -4   -1    0    0    0  501 -0.00000000000E+00  0.00000000000E+00  0.19549458845E+03  0.19549871358E+03  0.12700000000E+01 0.  1.
          4   -1    0    0  502    0  0.00000000000E+00 -0.00000000000E+00 -0.61637615282E+02  0.61650697625E+02  0.12700000000E+01 0.  1.
         25    2    1    2    0    0  0.13330740592E+02  0.36439276605E+02  0.16269429573E+03  0.20880563501E+03  0.12499931930E+03 0.  0.
    9000005    1    3    3    0    0  0.61296995320E+02  0.47182583056E+02  0.12437837670E+03  0.14647354153E+03  0.10000000000E+01 0.  0.
    9000005    1    3    3    0    0 -0.47966254728E+02 -0.10743306451E+02  0.38315919034E+02  0.62332093479E+02  0.10000000000E+01 0.  0.
         21    1    1    2  502  501 -0.13330740592E+02 -0.36439276605E+02 -0.28837322565E+02  0.48343776197E+02  0.00000000000E+00 0.  1.
<mgrwt>
<rscale>  1 0.13088300E+03</rscale>
<asrwt>0</asrwt>
<pdfrwt beam="2">  1        4 0.94840336E-02 0.13088300E+03</pdfrwt>
<pdfrwt beam="1">  1       -4 0.30077414E-01 0.13088300E+03</pdfrwt>
<totfact> 0.14349749E+03</totfact>
</mgrwt>
</event>
<event>
 6    4  0.5642870E-004  0.1281437E+03  0.7818608E-02  0.1230236E+00
          4   -1    0    0  502    0  0.00000000000E+00  0.00000000000E+00  0.27608156674E+03  0.27608448778E+03  0.12700000000E+01 0. -1.
         -4   -1    0    0    0  501 -0.00000000000E+00 -0.00000000000E+00 -0.34039624547E+02  0.34063307815E+02  0.12700000000E+01 0. -1.
         25    2    1    2    0    0  0.18067756257E+02 -0.21679323469E+02  0.92689099575E+02  0.15815204408E+03  0.12499745191E+03 0.  0.
    9000005    1    3    3    0    0 -0.51756464581E+01 -0.65205403801E+02  0.86440764883E+02  0.10840451021E+03  0.10000000000E+01 0.  0.
    9000005    1    3    3    0    0  0.23243402715E+02  0.43526080332E+02  0.62483346915E+01  0.49747533861E+02  0.10000000000E+01 0.  0.
         21    1    1    2  502  501 -0.18067756257E+02  0.21679323469E+02  0.14935284261E+03  0.15199575152E+03  0.00000000000E+00 0. -1.
<mgrwt>
<rscale>  1 0.12814367E+03</rscale>
<asrwt>0</asrwt>
<pdfrwt beam="1">  1        4 0.42476133E-01 0.12814367E+03</pdfrwt>
<pdfrwt beam="2">  1       -4 0.52389119E-02 0.12814367E+03</pdfrwt>
<totfact> 0.19401696E+03</totfact>
</mgrwt>
</event>
<event>
 6    4  0.5642870E-004  0.1365365E+03  0.7818608E-02  0.1218067E+00
          4   -1    0    0  502    0  0.00000000000E+00  0.00000000000E+00  0.35662596397E+02  0.35685202560E+02  0.12700000000E+01 0. -1.
         -4   -1    0    0    0  501 -0.00000000000E+00 -0.00000000000E+00 -0.27545536524E+03  0.27545829292E+03  0.12700000000E+01 0. -1.
         25    2    1    2    0    0 -0.22103282547E+02  0.50283958320E+02 -0.20437489980E+03  0.24578711086E+03  0.12500069053E+03 0.  0.
    9000005    1    3    3    0    0 -0.54921618477E+02  0.46570877038E+02 -0.49403872076E+02  0.87332544566E+02  0.10000000000E+01 0.  0.
    9000005    1    3    3    0    0  0.32818335930E+02  0.37130812817E+01 -0.15497102772E+03  0.15845456629E+03  0.10000000000E+01 0.  0.
         21    1    1    2  502  501  0.22103282547E+02 -0.50283958320E+02 -0.35417869048E+02  0.65356384627E+02  0.00000000000E+00 0. -1.
<mgrwt>
<rscale>  1 0.13653646E+03</rscale>
<asrwt>0</asrwt>
<pdfrwt beam="1">  1        4 0.54885176E-02 0.13653646E+03</pdfrwt>
<pdfrwt beam="2">  1       -4 0.42379711E-01 0.13653646E+03</pdfrwt>
<totfact> 0.18339948E+03</totfact>
</mgrwt>
</event>
<event>
 6    4  0.5642870E-004  0.1266100E+03  0.7818608E-02  0.1232574E+00
         -4   -1    0    0    0  501 -0.00000000000E+00  0.00000000000E+00  0.19054803903E+03  0.19055227125E+03  0.12700000000E+01 0.  1.
          4   -1    0    0  502    0  0.00000000000E+00 -0.00000000000E+00 -0.37347786215E+02  0.37369372957E+02  0.12700000000E+01 0.  1.
         25    2    1    2    0    0  0.80348384202E+01  0.18460311251E+02  0.16228709283E+03  0.20583290541E+03  0.12499897091E+03 0.  0.
    9000005    1    3    3    0    0  0.51161533625E+02  0.19385995080E+02  0.15189489384E+03  0.16145085352E+03  0.10000000000E+01 0.  0.
    9000005    1    3    3    0    0 -0.43126695205E+02 -0.92568382913E+00  0.10392198992E+02  0.44382051887E+02  0.10000000000E+01 0.  0.
         21    1    1    2  502  501 -0.80348384202E+01 -0.18460311251E+02 -0.90868400215E+01  0.22088738794E+02  0.00000000000E+00 0.  1.
<mgrwt>
<rscale>  1 0.12660997E+03</rscale>
<asrwt>0</asrwt>
<pdfrwt beam="2">  1        4 0.57477994E-02 0.12660997E+03</pdfrwt>
<pdfrwt beam="1">  1       -4 0.29317068E-01 0.12660997E+03</pdfrwt>
<totfact> 0.34077788E+03</totfact>
</mgrwt>
</event>
<event>
 6    4  0.5642870E-004  0.1266470E+03  0.7818608E-02  0.1232517E+00
          4   -1    0    0  502    0  0.00000000000E+00  0.00000000000E+00  0.78312237632E+02  0.78322534835E+02  0.12700000000E+01 0. -1.
         -4   -1    0    0    0  501 -0.00000000000E+00 -0.00000000000E+00 -0.70672597413E+02  0.70684007562E+02  0.12700000000E+01 0. -1.
         25    2    1    2    0    0 -0.19817734643E+02  0.46358467136E+01 -0.15942871882E+01  0.12665706597E+03  0.12500094771E+03 0.  0.
    9000005    1    3    3    0    0  0.49915092471E+02  0.22338912940E+02 -0.57755643438E+00  0.54698053522E+02  0.10000000000E+01 0.  0.
    9000005    1    3    3    0    0 -0.69732827114E+02 -0.17703066226E+02 -0.10167307538E+01  0.71959012449E+02  0.10000000000E+01 0.  0.
         21    1    1    2  502  501  0.19817734643E+02 -0.46358467136E+01  0.92339274078E+01  0.22349476426E+02  0.00000000000E+00 0. -1.
<mgrwt>
<rscale>  1 0.12664703E+03</rscale>
<asrwt>0</asrwt>
<pdfrwt beam="1">  1        4 0.12049706E-01 0.12664703E+03</pdfrwt>
<pdfrwt beam="2">  1       -4 0.10874377E-01 0.12664703E+03</pdfrwt>
<totfact> 0.58183968E+03</totfact>
</mgrwt>
</event>
<event>
 6    4  0.5642870E-004  0.1301523E+03  0.7818608E-02  0.1227230E+00
          4   -1    0    0  502    0  0.00000000000E+00  0.00000000000E+00  0.15263558473E+03  0.15264086814E+03  0.12700000000E+01 0. -1.
         -4   -1    0    0    0  501 -0.00000000000E+00 -0.00000000000E+00 -0.49985691630E+02  0.50001822644E+02  0.12700000000E+01 0. -1.
         25    2    1    2    0    0  0.35392011445E+02  0.78378560419E+01  0.51546139220E+02  0.13998792143E+03  0.12500234885E+03 0.  0.
    9000005    1    3    3    0    0  0.66179478960E+02  0.42918845042E+02  0.14087783024E+02  0.80132492322E+02  0.10000000000E+01 0.  0.
    9000005    1    3    3    0    0 -0.30787467515E+02 -0.35080989000E+02  0.37458356196E+02  0.59855429112E+02  0.10000000000E+01 0.  0.
         21    1    1    2  502  501 -0.35392011445E+02 -0.78378560419E+01  0.51103753883E+02  0.62654769350E+02  0.00000000000E+00 0. -1.
<mgrwt>
<rscale>  1 0.13015227E+03</rscale>
<asrwt>0</asrwt>
<pdfrwt beam="1">  1        4 0.23484044E-01 0.13015227E+03</pdfrwt>
<pdfrwt beam="2">  1       -4 0.76917539E-02 0.13015227E+03</pdfrwt>
<totfact> 0.32164929E+03</totfact>
</mgrwt>
</event>
<event>
 6    4  0.5642870E-004  0.1274063E+03  0.7818608E-02  0.1231356E+00
          4   -1    0    0  502    0  0.00000000000E+00  0.00000000000E+00  0.40940795206E+03  0.40940992185E+03  0.12700000000E+01 0.  1.
         -4   -1    0    0    0  501 -0.00000000000E+00 -0.00000000000E+00 -0.17891459593E+02  0.17936477535E+02  0.12700000000E+01 0.  1.
         25    2    1    2    0    0  0.67298695181E+01  0.23661086526E+02  0.22124480135E+03  0.25530690695E+03  0.12500886551E+03 0.  0.
    9000005    1    3    3    0    0 -0.25743581189E+02 -0.44684590824E+02  0.95849244256E+02  0.10884632403E+03  0.10000000000E+01 0.  0.
    9000005    1    3    3    0    0  0.32473450707E+02  0.68345677351E+02  0.12539555709E+03  0.14646058293E+03  0.10000000000E+01 0.  0.
         21    1    1    2  502  501 -0.67298695181E+01 -0.23661086526E+02  0.17027169112E+03  0.17203949243E+03  0.00000000000E+00 0.  1.
<mgrwt>
<rscale>  1 0.12740626E+03</rscale>
<asrwt>0</asrwt>
<pdfrwt beam="1">  1        4 0.62989455E-01 0.12740626E+03</pdfrwt>
<pdfrwt beam="2">  1       -4 0.27561466E-02 0.12740626E+03</pdfrwt>
<totfact> 0.23907903E+03</totfact>
</mgrwt>
</event>
<event>
 6    4  0.5642870E-004  0.1378104E+03  0.7818608E-02  0.1216306E+00
         -4   -1    0    0    0  501 -0.00000000000E+00  0.00000000000E+00  0.96461193213E+03  0.96461276817E+03  0.12700000000E+01 0.  1.
          4   -1    0    0  502    0  0.00000000000E+00 -0.00000000000E+00 -0.12684063365E+02  0.12747484593E+02  0.12700000000E+01 0.  1.
         25    2    1    2    0    0  0.57421551366E+02  0.83508385087E+01  0.84056354638E+03  0.85178564002E+03  0.12499891987E+03 0.  0.
    9000005    1    3    3    0    0 -0.10440823082E+02 -0.45869776923E+02  0.39844976561E+03  0.40121847283E+03  0.10000000000E+01 0.  0.
    9000005    1    3    3    0    0  0.67862374448E+02  0.54220615432E+02  0.44211378077E+03  0.45056716719E+03  0.10000000000E+01 0.  0.
         21    1    1    2  502  501 -0.57421551366E+02 -0.83508385087E+01  0.11136432238E+03  0.12557461274E+03  0.00000000000E+00 0.  1.
<mgrwt>
<rscale>  1 0.13781038E+03</rscale>
<asrwt>0</asrwt>
<pdfrwt beam="2">  1        4 0.19563375E-02 0.13781038E+03</pdfrwt>
<pdfrwt beam="1">  1       -4 0.14840676E+00 0.13781038E+03</pdfrwt>
<totfact> 0.57416521E+02</totfact>
</mgrwt>
</event>
<event>
 6    4  0.5642870E-004  0.1277885E+03  0.7818608E-02  0.1230775E+00
         -4   -1    0    0    0  501 -0.00000000000E+00  0.00000000000E+00  0.13760668241E+02  0.13819149411E+02  0.12700000000E+01 0. -1.
          4   -1    0    0  502    0  0.00000000000E+00 -0.00000000000E+00 -0.53192348148E+03  0.53192499758E+03  0.12700000000E+01 0. -1.
         25    2    1    2    0    0  0.82542068340E+01  0.25245396399E+02 -0.30155310723E+03  0.32751209914E+03  0.12499774652E+03 0.  0.
    9000005    1    3    3    0    0 -0.29478000104E+02 -0.14792389583E+02 -0.15936482038E+02  0.36643399671E+02  0.10000000000E+01 0.  0.
    9000005    1    3    3    0    0  0.37732206938E+02  0.40037785982E+02 -0.28561662519E+03  0.29086869947E+03  0.10000000000E+01 0.  0.
         21    1    1    2  502  501 -0.82542068340E+01 -0.25245396399E+02 -0.21660970602E+03  0.21823204785E+03  0.00000000000E+00 0. -1.
<mgrwt>
<rscale>  1 0.12778849E+03</rscale>
<asrwt>0</asrwt>
<pdfrwt beam="2">  1        4 0.81838981E-01 0.12778849E+03</pdfrwt>
<pdfrwt beam="1">  1       -4 0.21216415E-02 0.12778849E+03</pdfrwt>
<totfact> 0.20362751E+03</totfact>
</mgrwt>
</event>
<event>
 6    4  0.5642870E-004  0.1271094E+03  0.7818608E-02  0.1231809E+00
          4   -1    0    0  502    0  0.00000000000E+00  0.00000000000E+00  0.16759381371E+03  0.16759862558E+03  0.12700000000E+01 0. -1.
         -4   -1    0    0    0  501 -0.00000000000E+00 -0.00000000000E+00 -0.43033122398E+02  0.43051858535E+02  0.12700000000E+01 0. -1.
         25    2    1    2    0    0 -0.10730409208E+02  0.20418666514E+02  0.57082018348E+02  0.13933824863E+03  0.12499890835E+03 0.  0.
    9000005    1    3    3    0    0 -0.29630980082E+02  0.68884159706E+02  0.36210113992E+02  0.83277816940E+02  0.10000000000E+01 0.  0.
    9000005    1    3    3    0    0  0.18900570875E+02 -0.48465493193E+02  0.20871904356E+02  0.56060431690E+02  0.10000000000E+01 0.  0.
         21    1    1    2  502  501  0.10730409208E+02 -0.20418666514E+02  0.67478672967E+02  0.71312235481E+02  0.00000000000E+00 0. -1.
<mgrwt>
<rscale>  1 0.12710937E+03</rscale>
<asrwt>0</asrwt>
<pdfrwt beam="1">  1        4 0.25785475E-01 0.12710937E+03</pdfrwt>
<pdfrwt beam="2">  1       -4 0.66222917E-02 0.12710937E+03</pdfrwt>
<totfact> 0.34427332E+03</totfact>
</mgrwt>
</event>
<event>
 6    4  0.5642870E-004  0.1271764E+03  0.7818608E-02  0.1231707E+00
         -4   -1    0    0    0  501 -0.00000000000E+00  0.00000000000E+00  0.14855540293E+02  0.14909727610E+02  0.12700000000E+01 0.  1.
          4   -1    0    0  502    0  0.00000000000E+00 -0.00000000000E+00 -0.38620380702E+03  0.38620589516E+03  0.12700000000E+01 0.  1.
         25    2    1    2    0    0 -0.93697566337E+01  0.21471666813E+02 -0.29478306278E+03  0.32104655714E+03  0.12500005174E+03 0.  0.
    9000005    1    3    3    0    0  0.52381094639E+02  0.32746275181E+02 -0.17863807448E+03  0.18902026153E+03  0.10000000000E+01 0.  0.
    9000005    1    3    3    0    0 -0.61750851272E+02 -0.11274608368E+02 -0.11614498830E+03  0.13202629562E+03  0.10000000000E+01 0.  0.
         21    1    1    2  502  501  0.93697566337E+01 -0.21471666813E+02 -0.76565203942E+02  0.80069065624E+02  0.00000000000E+00 0. -1.
<mgrwt>
<rscale>  1 0.12717640E+03</rscale>
<asrwt>0</asrwt>
<pdfrwt beam="2">  1        4 0.59420292E-01 0.12717640E+03</pdfrwt>
<pdfrwt beam="1">  1       -4 0.22897969E-02 0.12717640E+03</pdfrwt>
<totfact> 0.36027123E+03</totfact>
</mgrwt>
</event>
<event>
 6    4  0.5642870E-004  0.1274447E+03  0.7818608E-02  0.1231297E+00
         -4   -1    0    0    0  501 -0.00000000000E+00  0.00000000000E+00  0.19580177409E+03  0.19580589276E+03  0.12700000000E+01 0.  1.
          4   -1    0    0  502    0  0.00000000000E+00 -0.00000000000E+00 -0.30226128881E+02  0.30252797674E+02  0.12700000000E+01 0.  1.
         25    2    1    2    0    0  0.24579317434E+02 -0.36504097827E+01  0.14956250573E+03  0.19649707726E+03  0.12499875965E+03 0.  0.
    9000005    1    3    3    0    0  0.97009776141E+01 -0.50658231117E+02  0.15832095050E+02  0.53963140942E+02  0.10000000000E+01 0.  0.
    9000005    1    3    3    0    0  0.14878339820E+02  0.47007821335E+02  0.13373041068E+03  0.14253393632E+03  0.10000000000E+01 0.  0.
         21    1    1    2  502  501 -0.24579317434E+02  0.36504097827E+01  0.16013139485E+02  0.29561613171E+02  0.00000000000E+00 0.  1.
<mgrwt>
<rscale>  1 0.12744473E+03</rscale>
<asrwt>0</asrwt>
<pdfrwt beam="2">  1        4 0.46525417E-02 0.12744473E+03</pdfrwt>
<pdfrwt beam="1">  1       -4 0.30125719E-01 0.12744473E+03</pdfrwt>
<totfact> 0.45560937E+03</totfact>
</mgrwt>
</event>
<event>
 6    4  0.5642870E-004  0.1271998E+03  0.7818608E-02  0.1231671E+00
          4   -1    0    0  502    0  0.00000000000E+00  0.00000000000E+00  0.49061724268E+02  0.49078158972E+02  0.12700000000E+01 0.  1.
         -4   -1    0    0    0  501 -0.00000000000E+00 -0.00000000000E+00 -0.13796099505E+03  0.13796684042E+03  0.12700000000E+01 0.  1.
         25    2    1    2    0    0 -0.23376934908E+02  0.28495633076E+01 -0.99231772217E+02  0.16132804618E+03  0.12500077108E+03 0.  0.
    9000005    1    3    3    0    0  0.35122100769E+02 -0.40643849057E+02 -0.34621843440E+02  0.63915228794E+02  0.10000000000E+01 0.  0.
    9000005    1    3    3    0    0 -0.58499035677E+02  0.43493412365E+02 -0.64609928777E+02  0.97412817385E+02  0.10000000000E+01 0.  0.
         21    1    1    2  502  501  0.23376934908E+02 -0.28495633076E+01  0.10332501433E+02  0.25716953214E+02  0.00000000000E+00 0. -1.
<mgrwt>
<rscale>  1 0.12719982E+03</rscale>
<asrwt>0</asrwt>
<pdfrwt beam="1">  1        4 0.75496715E-02 0.12719982E+03</pdfrwt>
<pdfrwt beam="2">  1       -4 0.21226482E-01 0.12719982E+03</pdfrwt>
<totfact> 0.39642886E+03</totfact>
</mgrwt>
</event>
<event>
 6    4  0.5642870E-004  0.1277266E+03  0.7818608E-02  0.1230869E+00
         -4   -1    0    0    0  501 -0.00000000000E+00  0.00000000000E+00  0.31936412674E+03  0.31936665190E+03  0.12700000000E+01 0.  1.
          4   -1    0    0  502    0  0.00000000000E+00 -0.00000000000E+00 -0.20664320268E+02  0.20703309690E+02  0.12700000000E+01 0.  1.
         25    2    1    2    0    0  0.37955775984E+01 -0.25972994478E+02  0.19505876878E+03  0.23315659692E+03  0.12500029024E+03 0.  0.
    9000005    1    3    3    0    0  0.10471756075E+02 -0.54364185616E+02  0.25249036461E+02  0.60857507303E+02  0.10000000000E+01 0.  0.
    9000005    1    3    3    0    0 -0.66761784766E+01  0.28391191138E+02  0.16980973232E+03  0.17229908962E+03  0.10000000000E+01 0.  0.
         21    1    1    2  502  501 -0.37955775984E+01  0.25972994478E+02  0.10364103769E+03  0.10691336467E+03  0.00000000000E+00 0.  1.
<mgrwt>
<rscale>  1 0.12772657E+03</rscale>
<asrwt>0</asrwt>
<pdfrwt beam="2">  1        4 0.31823196E-02 0.12772657E+03</pdfrwt>
<pdfrwt beam="1">  1       -4 0.49136136E-01 0.12772657E+03</pdfrwt>
<totfact> 0.31955109E+03</totfact>
</mgrwt>
</event>
<event>
 6    4  0.5642870E-004  0.1271441E+03  0.7818608E-02  0.1231756E+00
         -4   -1    0    0    0  501 -0.00000000000E+00  0.00000000000E+00  0.27858151586E+02  0.27887084999E+02  0.12700000000E+01 0.  1.
          4   -1    0    0  502    0  0.00000000000E+00 -0.00000000000E+00 -0.20369678742E+03  0.20370074645E+03  0.12700000000E+01 0.  1.
         25    2    1    2    0    0  0.13875777960E+02 -0.18652792442E+02 -0.14294847172E+03  0.19131095502E+03  0.12500060825E+03 0.  0.
    9000005    1    3    3    0    0  0.18656706900E+02  0.49174545647E+02 -0.93316484770E+02  0.10712224317E+03  0.10000000000E+01 0.  0.
    9000005    1    3    3    0    0 -0.47809289394E+01 -0.67827338089E+02 -0.49631986951E+02  0.84188711847E+02  0.10000000000E+01 0.  0.
         21    1    1    2  502  501 -0.13875777960E+02  0.18652792442E+02 -0.32890164109E+02  0.40276876430E+02  0.00000000000E+00 0.  1.
<mgrwt>
<rscale>  1 0.12714408E+03</rscale>
<asrwt>0</asrwt>
<pdfrwt beam="2">  1        4 0.31340497E-01 0.12714408E+03</pdfrwt>
<pdfrwt beam="1">  1       -4 0.42883998E-02 0.12714408E+03</pdfrwt>
<totfact> 0.48117862E+03</totfact>
</mgrwt>
</event>
<event>
 6    4  0.5642870E-004  0.1308752E+03  0.7818608E-02  0.1226163E+00
         -4   -1    0    0    0  501 -0.00000000000E+00  0.00000000000E+00  0.14242948037E+03  0.14243514236E+03  0.12700000000E+01 0.  1.
          4   -1    0    0  502    0  0.00000000000E+00 -0.00000000000E+00 -0.50697505820E+02  0.50713410420E+02  0.12700000000E+01 0.  1.
         25    2    1    2    0    0 -0.18105713772E+02 -0.34284502352E+02  0.75714701290E+02  0.15119861815E+03  0.12500024866E+03 0.  0.
    9000005    1    3    3    0    0 -0.31602845035E+02 -0.78263432191E+02  0.42925958152E+02  0.94697109332E+02  0.10000000000E+01 0.  0.
    9000005    1    3    3    0    0  0.13497131263E+02  0.43978929839E+02  0.32788743139E+02  0.56501508818E+02  0.10000000000E+01 0.  0.
         21    1    1    2  502  501  0.18105713772E+02  0.34284502352E+02  0.16017273263E+02  0.41949934631E+02  0.00000000000E+00 0.  1.
<mgrwt>
<rscale>  1 0.13087515E+03</rscale>
<asrwt>0</asrwt>
<pdfrwt beam="2">  1        4 0.78012754E-02 0.13087515E+03</pdfrwt>
<pdfrwt beam="1">  1       -4 0.21913886E-01 0.13087515E+03</pdfrwt>
<totfact> 0.35696601E+03</totfact>
</mgrwt>
</event>
<event>
 6    4  0.5642870E-004  0.1281442E+03  0.7818608E-02  0.1230236E+00
         -4   -1    0    0    0  501 -0.00000000000E+00  0.00000000000E+00  0.70380346444E+03  0.70380461029E+03  0.12700000000E+01 0. -1.
          4   -1    0    0  502    0  0.00000000000E+00 -0.00000000000E+00 -0.20910706003E+02  0.20949236873E+02  0.12700000000E+01 0. -1.
         25    2    1    2    0    0  0.14717502400E+02  0.24056853720E+02  0.68461020537E+03  0.69649987909E+03  0.12500244475E+03 0.  0.
    9000005    1    3    3    0    0  0.44116344053E+02  0.41032844551E+02  0.62496310353E+03  0.62786131185E+03  0.10000000000E+01 0.  0.
    9000005    1    3    3    0    0 -0.29398841654E+02 -0.16975990830E+02  0.59647101841E+02  0.68638567244E+02  0.10000000000E+01 0.  0.
         21    1    1    2  502  501 -0.14717502400E+02 -0.24056853720E+02 -0.17174469269E+01  0.28253968071E+02  0.00000000000E+00 0. -1.
<mgrwt>
<rscale>  1 0.12814425E+03</rscale>
<asrwt>0</asrwt>
<pdfrwt beam="2">  1        4 0.32200837E-02 0.12814425E+03</pdfrwt>
<pdfrwt beam="1">  1       -4 0.10828051E+00 0.12814425E+03</pdfrwt>
<totfact> 0.56237787E+02</totfact>
</mgrwt>
</event>
<event>
 6    4  0.5642870E-004  0.1287901E+03  0.7818608E-02  0.1229262E+00
          4   -1    0    0  502    0  0.00000000000E+00  0.00000000000E+00  0.10484602213E+04  0.10484609905E+04  0.12700000000E+01 0.  1.
         -4   -1    0    0    0  501 -0.00000000000E+00 -0.00000000000E+00 -0.63662372921E+01  0.64916775381E+01  0.12700000000E+01 0.  1.
         25    2    1    2    0    0 -0.41985561040E+01  0.30758260619E+02  0.72572070116E+03  0.73705999341E+03  0.12499279706E+03 0.  0.
    9000005    1    3    3    0    0  0.46439468418E+02  0.53653336215E+02  0.47340922313E+03  0.47869885864E+03  0.10000000000E+01 0.  0.
    9000005    1    3    3    0    0 -0.50638024522E+02 -0.22895075596E+02  0.25231147803E+03  0.25836113477E+03  0.10000000000E+01 0.  0.
         21    1    1    2  502  501  0.41985561040E+01 -0.30758260619E+02  0.31637328289E+03  0.31789267465E+03  0.00000000000E+00 0.  1.
<mgrwt>
<rscale>  1 0.12879013E+03</rscale>
<asrwt>0</asrwt>
<pdfrwt beam="1">  1        4 0.16131118E+00 0.12879013E+03</pdfrwt>
<pdfrwt beam="2">  1       -4 0.98913018E-03 0.12879013E+03</pdfrwt>
<totfact> 0.12898095E+03</totfact>
</mgrwt>
</event>
<event>
 6    4  0.5642870E-004  0.1294766E+03  0.7818608E-02  0.1228234E+00
         -4   -1    0    0    0  501 -0.00000000000E+00  0.00000000000E+00  0.34254633652E+02  0.34278168368E+02  0.12700000000E+01 0.  1.
          4   -1    0    0  502    0  0.00000000000E+00 -0.00000000000E+00 -0.19669356736E+03  0.19669766735E+03  0.12700000000E+01 0.  1.
         25    2    1    2    0    0  0.26698132225E+02  0.20645165243E+02 -0.13851997949E+03  0.18961003483E+03  0.12500066991E+03 0.  0.
    9000005    1    3    3    0    0  0.46954497587E+02  0.31355807309E+01  0.14565140910E+01  0.47092230182E+02  0.10000000000E+01 0.  0.
    9000005    1    3    3    0    0 -0.20256365363E+02  0.17509584512E+02 -0.13997649358E+03  0.14251780465E+03  0.10000000000E+01 0.  0.
         21    1    1    2  502  501 -0.26698132225E+02 -0.20645165243E+02 -0.23918954226E+02  0.41365800892E+02  0.00000000000E+00 0.  1.
<mgrwt>
<rscale>  1 0.12947656E+03</rscale>
<asrwt>0</asrwt>
<pdfrwt beam="2">  1        4 0.30262674E-01 0.12947656E+03</pdfrwt>
<pdfrwt beam="1">  1       -4 0.52720695E-02 0.12947656E+03</pdfrwt>
<totfact> 0.37105249E+03</totfact>
</mgrwt>
</event>
<event>
 6    4  0.5642870E-004  0.1274123E+03  0.7818608E-02  0.1231347E+00
          4   -1    0    0  502    0  0.00000000000E+00  0.00000000000E+00  0.28895206327E+03  0.28895485420E+03  0.12700000000E+01 0.  1.
         -4   -1    0    0    0  501 -0.00000000000E+00 -0.00000000000E+00 -0.20223286439E+02  0.20263124497E+02  0.12700000000E+01 0.  1.
         25    2    1    2    0    0 -0.16286862893E+01  0.24604530653E+02  0.21166807529E+03  0.24705722574E+03  0.12500345254E+03 0.  0.
    9000005    1    3    3    0    0 -0.35962539365E+02 -0.35964646294E+02  0.51401099833E+02  0.72317584893E+02  0.10000000000E+01 0.  0.
    9000005    1    3    3    0    0  0.34333853076E+02  0.60569176947E+02  0.16026697545E+03  0.17473964085E+03  0.10000000000E+01 0.  0.
         21    1    1    2  502  501  0.16286862893E+01 -0.24604530653E+02  0.57060701542E+02  0.62160752957E+02  0.00000000000E+00 0.  1.
<mgrwt>
<rscale>  1 0.12741232E+03</rscale>
<asrwt>0</asrwt>
<pdfrwt beam="1">  1        4 0.44457441E-01 0.12741232E+03</pdfrwt>
<pdfrwt beam="2">  1       -4 0.31145541E-02 0.12741232E+03</pdfrwt>
<totfact> 0.40401613E+03</totfact>
</mgrwt>
</event>
<event>
 6    4  0.5642870E-004  0.1266077E+03  0.7818608E-02  0.1232578E+00
          4   -1    0    0  502    0  0.00000000000E+00  0.00000000000E+00  0.33152430180E+03  0.33152673434E+03  0.12700000000E+01 0.  1.
         -4   -1    0    0    0  501 -0.00000000000E+00 -0.00000000000E+00 -0.17519763653E+02  0.17565734214E+02  0.12700000000E+01 0.  1.
         25    2    1    2    0    0 -0.14969913335E+02  0.13449947709E+02  0.22829453774E+03  0.26105154871E+03  0.12499806287E+03 0.  0.
    9000005    1    3    3    0    0 -0.52779731120E+02  0.29593356998E+02  0.51279976755E+02  0.79322776121E+02  0.10000000000E+01 0.  0.
    9000005    1    3    3    0    0  0.37809817784E+02 -0.16143409289E+02  0.17701456098E+03  0.18172877258E+03  0.10000000000E+01 0.  0.
         21    1    1    2  502  501  0.14969913335E+02 -0.13449947709E+02  0.85710000406E+02  0.88040919851E+02  0.00000000000E+00 0.  1.
<mgrwt>
<rscale>  1 0.12660772E+03</rscale>
<asrwt>0</asrwt>
<pdfrwt beam="1">  1        4 0.51007458E-01 0.12660772E+03</pdfrwt>
<pdfrwt beam="2">  1       -4 0.26990718E-02 0.12660772E+03</pdfrwt>
<totfact> 0.38226172E+03</totfact>
</mgrwt>
</event>
<event>
 6    4  0.5642870E-004  0.1270359E+03  0.7818608E-02  0.1231921E+00
         -4   -1    0    0    0  501 -0.00000000000E+00  0.00000000000E+00  0.13388558539E+03  0.13389160868E+03  0.12700000000E+01 0.  1.
          4   -1    0    0  502    0  0.00000000000E+00 -0.00000000000E+00 -0.43548872939E+02  0.43567387279E+02  0.12700000000E+01 0.  1.
         25    2    1    2    0    0  0.16350652136E+02 -0.15715569367E+02  0.62573865656E+02  0.14161072392E+03  0.12499514199E+03 0.  0.
    9000005    1    3    3    0    0  0.52103333767E+02  0.13667455234E+02 -0.10712639555E+02  0.54930113493E+02  0.10000000000E+01 0.  0.
    9000005    1    3    3    0    0 -0.35752681630E+02 -0.29383024601E+02  0.73286505212E+02  0.86680610431E+02  0.10000000000E+01 0.  0.
         21    1    1    2  502  501 -0.16350652136E+02  0.15715569367E+02  0.27762846792E+02  0.35848272034E+02  0.00000000000E+00 0.  1.
<mgrwt>
<rscale>  1 0.12703586E+03</rscale>
<asrwt>0</asrwt>
<pdfrwt beam="2">  1        4 0.67017142E-02 0.12703586E+03</pdfrwt>
<pdfrwt beam="1">  1       -4 0.20599670E-01 0.12703586E+03</pdfrwt>
<totfact> 0.50867619E+03</totfact>
</mgrwt>
</event>
<event>
 6    4  0.5642870E-004  0.1285485E+03  0.7818608E-02  0.1229626E+00
         -4   -1    0    0    0  501 -0.00000000000E+00  0.00000000000E+00  0.12521920569E+03  0.12522564583E+03  0.12700000000E+01 0.  1.
          4   -1    0    0  502    0  0.00000000000E+00 -0.00000000000E+00 -0.53625485068E+02  0.53640521518E+02  0.12700000000E+01 0.  1.
         25    2    1    2    0    0 -0.25358650293E+02  0.15995438295E+02  0.38454489351E+02  0.13417697581E+03  0.12500319154E+03 0.  0.
    9000005    1    3    3    0    0  0.24605885178E+02  0.28990068591E+02 -0.29990611343E+02  0.48438728627E+02  0.10000000000E+01 0.  0.
    9000005    1    3    3    0    0 -0.49964535471E+02 -0.12994630295E+02  0.68445100694E+02  0.85738247185E+02  0.10000000000E+01 0.  0.
         21    1    1    2  502  501  0.25358650293E+02 -0.15995438295E+02  0.33139231270E+02  0.44689191536E+02  0.00000000000E+00 0.  1.
<mgrwt>
<rscale>  1 0.12854849E+03</rscale>
<asrwt>0</asrwt>
<pdfrwt beam="2">  1        4 0.82517268E-02 0.12854849E+03</pdfrwt>
<pdfrwt beam="1">  1       -4 0.19266145E-01 0.12854849E+03</pdfrwt>
<totfact> 0.40848359E+03</totfact>
</mgrwt>
</event>
<event>
 6    4  0.5642870E-004  0.1360206E+03  0.7818608E-02  0.1218786E+00
          4   -1    0    0  502    0  0.00000000000E+00  0.00000000000E+00  0.71661785411E+03  0.71661897947E+03  0.12700000000E+01 0.  1.
         -4   -1    0    0    0  501 -0.00000000000E+00 -0.00000000000E+00 -0.13482468710E+02  0.13542151325E+02  0.12700000000E+01 0.  1.
         25    2    1    2    0    0  0.41754638347E+02 -0.33675882099E+02  0.40480718073E+03  0.42704855672E+03  0.12499640541E+03 0.  0.
    9000005    1    3    3    0    0  0.12480082791E+01 -0.14432091500E+01 -0.93869181875E+01  0.96309194979E+01  0.10000000000E+01 0.  0.
    9000005    1    3    3    0    0  0.40506630068E+02 -0.32232672949E+02  0.41419409892E+03  0.41741763722E+03  0.10000000000E+01 0.  0.
         21    1    1    2  502  501 -0.41754638347E+02  0.33675882099E+02  0.29832820467E+03  0.30311257408E+03  0.00000000000E+00 0. -1.
<mgrwt>
<rscale>  1 0.13602065E+03</rscale>
<asrwt>0</asrwt>
<pdfrwt beam="1">  1        4 0.11025359E+00 0.13602065E+03</pdfrwt>
<pdfrwt beam="2">  1       -4 0.20789032E-02 0.13602065E+03</pdfrwt>
<totfact> 0.10777277E+03</totfact>
</mgrwt>
</event>
<event>
 6    4  0.5642870E-004  0.1268378E+03  0.7818608E-02  0.1232225E+00
          4   -1    0    0  502    0  0.00000000000E+00  0.00000000000E+00  0.87574426979E+02  0.87583635234E+02  0.12700000000E+01 0. -1.
         -4   -1    0    0    0  501 -0.00000000000E+00 -0.00000000000E+00 -0.75789689164E+02  0.75800329047E+02  0.12700000000E+01 0. -1.
         25    2    1    2    0    0  0.15681095313E+01 -0.21208291066E+02 -0.16596790815E+02  0.12791902744E+03  0.12504228701E+03 0.  0.
    9000005    1    3    3    0    0  0.10867999759E+02 -0.41869363377E+02 -0.62908558106E+02  0.76352103385E+02  0.10000000000E+01 0.  0.
    9000005    1    3    3    0    0 -0.92998902279E+01  0.20661072312E+02  0.46311767291E+02  0.51566924059E+02  0.10000000000E+01 0.  0.
         21    1    1    2  502  501 -0.15681095313E+01  0.21208291066E+02  0.28381528630E+02  0.35464936836E+02  0.00000000000E+00 0.  1.
<mgrwt>
<rscale>  1 0.12683779E+03</rscale>
<asrwt>0</asrwt>
<pdfrwt beam="1">  1        4 0.13474516E-01 0.12683779E+03</pdfrwt>
<pdfrwt beam="2">  1       -4 0.11661479E-01 0.12683779E+03</pdfrwt>
<totfact> 0.42664560E+03</totfact>
</mgrwt>
</event>
<event>
 6    4  0.5642870E-004  0.1269560E+03  0.7818608E-02  0.1232044E+00
          4   -1    0    0  502    0  0.00000000000E+00  0.00000000000E+00  0.26991952663E+03  0.26992251435E+03  0.12700000000E+01 0.  1.
         -4   -1    0    0    0  501 -0.00000000000E+00 -0.00000000000E+00 -0.22231113426E+02  0.22267359614E+02  0.12700000000E+01 0.  1.
         25    2    1    2    0    0  0.21056301750E+02  0.69598493057E+01  0.17504862377E+03  0.21624024359E+03  0.12500405961E+03 0.  0.
    9000005    1    3    3    0    0  0.25097893008E+02 -0.30393989583E+02  0.23506672522E+01  0.39499676869E+02  0.10000000000E+01 0.  0.
    9000005    1    3    3    0    0 -0.40415912583E+01  0.37353838889E+02  0.17269795652E+03  0.17674056672E+03  0.10000000000E+01 0.  0.
         21    1    1    2  502  501 -0.21056301750E+02 -0.69598493057E+01  0.72639789428E+02  0.75949630373E+02  0.00000000000E+00 0.  1.
<mgrwt>
<rscale>  1 0.12695599E+03</rscale>
<asrwt>0</asrwt>
<pdfrwt beam="1">  1        4 0.41529100E-01 0.12695599E+03</pdfrwt>
<pdfrwt beam="2">  1       -4 0.34231892E-02 0.12695599E+03</pdfrwt>
<totfact> 0.39842693E+03</totfact>
</mgrwt>
</event>
<event>
 6    4  0.5642870E-004  0.1274140E+03  0.7818608E-02  0.1231344E+00
          4   -1    0    0  502    0  0.00000000000E+00  0.00000000000E+00  0.42555859774E+02  0.42574805944E+02  0.12700000000E+01 0. -1.
         -4   -1    0    0    0  501 -0.00000000000E+00 -0.00000000000E+00 -0.14026969091E+03  0.14027544007E+03  0.12700000000E+01 0. -1.
         25    2    1    2    0    0 -0.11314806873E+02  0.21928431238E+02 -0.92960116325E+02  0.15772100497E+03  0.12500180490E+03 0.  0.
    9000005    1    3    3    0    0 -0.66090790034E+02 -0.15667954519E+01 -0.36050683209E+02  0.75306700467E+02  0.10000000000E+01 0.  0.
    9000005    1    3    3    0    0  0.54775983161E+02  0.23495226690E+02 -0.56909433117E+02  0.82414304499E+02  0.10000000000E+01 0.  0.
         21    1    1    2  502  501  0.11314806873E+02 -0.21928431238E+02 -0.47537148057E+01  0.25129241047E+02  0.00000000000E+00 0. -1.
<mgrwt>
<rscale>  1 0.12741402E+03</rscale>
<asrwt>0</asrwt>
<pdfrwt beam="1">  1        4 0.65489551E-02 0.12741402E+03</pdfrwt>
<pdfrwt beam="2">  1       -4 0.21581852E-01 0.12741402E+03</pdfrwt>
<totfact> 0.48592254E+03</totfact>
</mgrwt>
</event>
<event>
 6    4  0.5642870E-004  0.1266238E+03  0.7818608E-02  0.1232553E+00
         -4   -1    0    0    0  501 -0.00000000000E+00  0.00000000000E+00  0.59048845754E+02  0.59062501512E+02  0.12700000000E+01 0.  1.
          4   -1    0    0  502    0  0.00000000000E+00 -0.00000000000E+00 -0.96879540620E+02  0.96887864517E+02  0.12700000000E+01 0.  1.
         25    2    1    2    0    0 -0.19375073066E+02 -0.55443551933E+01 -0.18395844447E+02  0.12795310292E+03  0.12500982411E+03 0.  0.
    9000005    1    3    3    0    0 -0.15289400017E+02  0.50547905185E+02 -0.41470974917E+02  0.67154286773E+02  0.10000000000E+01 0.  0.
    9000005    1    3    3    0    0 -0.40856730496E+01 -0.56092260378E+02  0.23075130470E+02  0.60798816146E+02  0.10000000000E+01 0.  0.
         21    1    1    2  502  501  0.19375073066E+02  0.55443551933E+01 -0.19434850420E+02  0.27997263110E+02  0.00000000000E+00 0. -1.
<mgrwt>
<rscale>  1 0.12662381E+03</rscale>
<asrwt>0</asrwt>
<pdfrwt beam="2">  1        4 0.14906235E-01 0.12662381E+03</pdfrwt>
<pdfrwt beam="1">  1       -4 0.90861285E-02 0.12662381E+03</pdfrwt>
<totfact> 0.54526706E+03</totfact>
</mgrwt>
</event>
<event>
 6    4  0.5642870E-004  0.1473385E+03  0.7818608E-02  0.1203782E+00
         -4   -1    0    0    0  501 -0.00000000000E+00  0.00000000000E+00  0.25818134659E+04  0.25818137783E+04  0.12700000000E+01 0. -1.
          4   -1    0    0  502    0  0.00000000000E+00 -0.00000000000E+00 -0.55491022330E+01  0.56925772364E+01  0.12700000000E+01 0. -1.
         25    2    1    2    0    0 -0.55551279240E+02  0.54753903975E+02  0.20734242400E+04  0.20786526195E+04  0.12499879629E+03 0.  0.
    9000005    1    3    3    0    0 -0.41317689902E+02  0.64190731984E+01  0.18081452759E+04  0.18086289544E+04  0.10000000000E+01 0.  0.
    9000005    1    3    3    0    0 -0.14233589337E+02  0.48334830777E+02  0.26527896409E+03  0.27002366512E+03  0.10000000000E+01 0.  0.
         21    1    1    2  502  501  0.55551279240E+02 -0.54753903975E+02  0.50284012367E+03  0.50885373596E+03  0.00000000000E+00 0. -1.
<mgrwt>
<rscale>  1 0.14733850E+03</rscale>
<asrwt>0</asrwt>
<pdfrwt beam="2">  1        4 0.86477032E-03 0.14733850E+03</pdfrwt>
<pdfrwt beam="1">  1       -4 0.39721234E+00 0.14733850E+03</pdfrwt>
<totfact> 0.59310345E+01</totfact>
</mgrwt>
</event>
<event>
 6    4  0.5642870E-004  0.1268279E+03  0.7818608E-02  0.1232240E+00
         -4   -1    0    0    0  501 -0.00000000000E+00  0.00000000000E+00  0.11654917239E+03  0.11655609158E+03  0.12700000000E+01 0.  1.
          4   -1    0    0  502    0  0.00000000000E+00 -0.00000000000E+00 -0.67149935065E+02  0.67161943682E+02  0.12700000000E+01 0.  1.
         25    2    1    2    0    0 -0.20607027335E+02  0.59813132789E+01  0.77294067492E+02  0.14852503547E+03  0.12499955043E+03 0.  0.
    9000005    1    3    3    0    0 -0.53036700707E+02 -0.28481463154E+02  0.28102583630E+01  0.60274230956E+02  0.10000000000E+01 0.  0.
    9000005    1    3    3    0    0  0.32429673371E+02  0.34462776433E+02  0.74483809129E+02  0.88250804511E+02  0.10000000000E+01 0.  0.
         21    1    1    2  502  501  0.20607027335E+02 -0.59813132789E+01 -0.27894830172E+02  0.35192999793E+02  0.00000000000E+00 0.  1.
<mgrwt>
<rscale>  1 0.12682789E+03</rscale>
<asrwt>0</asrwt>
<pdfrwt beam="2">  1        4 0.10332215E-01 0.12682789E+03</pdfrwt>
<pdfrwt beam="1">  1       -4 0.17932098E-01 0.12682789E+03</pdfrwt>
<totfact> 0.31766597E+03</totfact>
</mgrwt>
</event>
<event>
 6    4  0.5642870E-004  0.1307869E+03  0.7818608E-02  0.1226293E+00
         -4   -1    0    0    0  501 -0.00000000000E+00  0.00000000000E+00  0.32202109245E+02  0.32227142905E+02  0.12700000000E+01 0.  1.
          4   -1    0    0  502    0  0.00000000000E+00 -0.00000000000E+00 -0.22231201621E+03  0.22231564374E+03  0.12700000000E+01 0.  1.
         25    2    1    2    0    0  0.37627672331E+02 -0.79528055886E+01 -0.14534299988E+03  0.19552444363E+03  0.12500452633E+03 0.  0.
    9000005    1    3    3    0    0  0.92121950691E+01  0.16808443443E+02  0.18943217222E+02  0.26967272529E+02  0.10000000000E+01 0.  0.
    9000005    1    3    3    0    0  0.28415477262E+02 -0.24761249031E+02 -0.16428621710E+03  0.16855717110E+03  0.10000000000E+01 0.  0.
         21    1    1    2  502  501 -0.37627672331E+02  0.79528055886E+01 -0.44766907094E+02  0.59018343017E+02  0.00000000000E+00 0.  1.
<mgrwt>
<rscale>  1 0.13078693E+03</rscale>
<asrwt>0</asrwt>
<pdfrwt beam="2">  1        4 0.34204052E-01 0.13078693E+03</pdfrwt>
<pdfrwt beam="1">  1       -4 0.49563755E-02 0.13078693E+03</pdfrwt>
<totfact> 0.32529980E+03</totfact>
</mgrwt>
</event>
<event>
 6    4  0.5642870E-004  0.1322041E+03  0.7818608E-02  0.1224221E+00
         -4   -1    0    0    0  501 -0.00000000000E+00  0.00000000000E+00  0.18510665365E+02  0.18554180991E+02  0.12700000000E+01 0. -1.
          4   -1    0    0  502    0  0.00000000000E+00 -0.00000000000E+00 -0.41603227629E+03  0.41603421472E+03  0.12700000000E+01 0. -1.
         25    2    1    2    0    0 -0.42455671481E+02 -0.72730383302E+01 -0.31117104008E+03  0.33809071588E+03  0.12499013901E+03 0.  0.
    9000005    1    3    3    0    0  0.15092550607E+02 -0.29814538100E+02 -0.17019892171E+02  0.37514910308E+02  0.10000000000E+01 0.  0.
    9000005    1    3    3    0    0 -0.57548222088E+02  0.22541499769E+02 -0.29415114791E+03  0.30057580557E+03  0.10000000000E+01 0.  0.
         21    1    1    2  502  501  0.42455671481E+02  0.72730383302E+01 -0.86350570844E+02  0.96497679830E+02  0.00000000000E+00 0. -1.
<mgrwt>
<rscale>  1 0.13220407E+03</rscale>
<asrwt>0</asrwt>
<pdfrwt beam="2">  1        4 0.64008455E-01 0.13220407E+03</pdfrwt>
<pdfrwt beam="1">  1       -4 0.28512914E-02 0.13220407E+03</pdfrwt>
<totfact> 0.22107726E+03</totfact>
</mgrwt>
</event>
<event>
 6    4  0.5642870E-004  0.1269320E+03  0.7818608E-02  0.1232080E+00
         -4   -1    0    0    0  501 -0.00000000000E+00  0.00000000000E+00  0.87056187458E+01  0.87977666341E+01  0.12700000000E+01 0. -1.
          4   -1    0    0  502    0  0.00000000000E+00 -0.00000000000E+00 -0.74179746616E+03  0.74179855331E+03  0.12700000000E+01 0. -1.
         25    2    1    2    0    0  0.68017553595E+01 -0.20994162510E+02 -0.47848900584E+03  0.49503883977E+03  0.12499882176E+03 0.  0.
    9000005    1    3    3    0    0 -0.55294147711E+02 -0.16479776284E+02 -0.31188988742E+03  0.31718342906E+03  0.10000000000E+01 0.  0.
    9000005    1    3    3    0    0  0.62095903071E+02 -0.45143862255E+01 -0.16659911842E+03  0.17785541071E+03  0.10000000000E+01 0.  0.
         21    1    1    2  502  501 -0.68017553595E+01  0.20994162510E+02 -0.25460284157E+03  0.25555748017E+03  0.00000000000E+00 0. -1.
<mgrwt>
<rscale>  1 0.12693197E+03</rscale>
<asrwt>0</asrwt>
<pdfrwt beam="2">  1        4 0.11412981E+00 0.12693197E+03</pdfrwt>
<pdfrwt beam="1">  1       -4 0.13464985E-02 0.12693197E+03</pdfrwt>
<totfact> 0.19014738E+03</totfact>
</mgrwt>
</event>
<event>
 6    4  0.5642870E-004  0.1303112E+03  0.7818608E-02  0.1226995E+00
         -4   -1    0    0    0  501 -0.00000000000E+00  0.00000000000E+00  0.74025930754E+02  0.74036824108E+02  0.12700000000E+01 0. -1.
          4   -1    0    0  502    0  0.00000000000E+00 -0.00000000000E+00 -0.13492034908E+03  0.13492632618E+03  0.12700000000E+01 0. -1.
         25    2    1    2    0    0 -0.31934892844E+02 -0.18335975471E+02  0.83050516056E+01  0.13057557464E+03  0.12499984573E+03 0.  0.
    9000005    1    3    3    0    0 -0.45484463464E+02 -0.62400540591E+02  0.25554782475E+02  0.81343166830E+02  0.10000000000E+01 0.  0.
    9000005    1    3    3    0    0  0.13549570621E+02  0.44064565120E+02 -0.17249730869E+02  0.49232407805E+02  0.10000000000E+01 0.  0.
         21    1    1    2  502  501  0.31934892844E+02  0.18335975471E+02 -0.69199469931E+02  0.78387575649E+02  0.00000000000E+00 0. -1.
<mgrwt>
<rscale>  1 0.13031119E+03</rscale>
<asrwt>0</asrwt>
<pdfrwt beam="2">  1        4 0.20758275E-01 0.13031119E+03</pdfrwt>
<pdfrwt beam="1">  1       -4 0.11389902E-01 0.13031119E+03</pdfrwt>
<totfact> 0.20859385E+03</totfact>
</mgrwt>
</event>
<event>
 6    4  0.5642870E-004  0.1550191E+03  0.7818608E-02  0.1194438E+00
         -4   -1    0    0    0  501 -0.00000000000E+00  0.00000000000E+00  0.14388912212E+03  0.14389472668E+03  0.12700000000E+01 0.  1.
          4   -1    0    0  502    0  0.00000000000E+00 -0.00000000000E+00 -0.27091336990E+03  0.27091634666E+03  0.12700000000E+01 0.  1.
         25    2    1    2    0    0  0.86689916202E+02  0.29859990124E+02  0.89973546923E+02  0.17923772280E+03  0.12499664615E+03 0.  0.
    9000005    1    3    3    0    0  0.35768767928E+02  0.66367656878E+02  0.76624073568E+01  0.75787750495E+02  0.10000000000E+01 0.  0.
    9000005    1    3    3    0    0  0.50921148274E+02 -0.36507666754E+02  0.82311139566E+02  0.10344997231E+03  0.10000000000E+01 0.  0.
         21    1    1    2  502  501 -0.86689916202E+02 -0.29859990124E+02 -0.21699779470E+03  0.23557335054E+03  0.00000000000E+00 0.  1.
<mgrwt>
<rscale>  1 0.15501910E+03</rscale>
<asrwt>0</asrwt>
<pdfrwt beam="2">  1        4 0.41679640E-01 0.15501910E+03</pdfrwt>
<pdfrwt beam="1">  1       -4 0.22137448E-01 0.15501910E+03</pdfrwt>
<totfact> 0.17959259E+02</totfact>
</mgrwt>
</event>
<event>
 6    4  0.5642870E-004  0.1290322E+03  0.7818608E-02  0.1228899E+00
          4   -1    0    0  502    0  0.00000000000E+00  0.00000000000E+00  0.43022187674E+03  0.43022375123E+03  0.12700000000E+01 0. -1.
         -4   -1    0    0    0  501 -0.00000000000E+00 -0.00000000000E+00 -0.70123985463E+02  0.70135484865E+02  0.12700000000E+01 0. -1.
         25    2    1    2    0    0 -0.15125056187E+02 -0.28208002586E+02 -0.94967832535E+01  0.12938122843E+03  0.12499941857E+03 0.  0.
    9000005    1    3    3    0    0 -0.30704806283E+02 -0.65592751853E+02  0.24532471790E+02  0.76472455150E+02  0.10000000000E+01 0.  0.
    9000005    1    3    3    0    0  0.15579750096E+02  0.37384749267E+02 -0.34029255044E+02  0.52908773277E+02  0.10000000000E+01 0.  0.
         21    1    1    2  502  501  0.15125056187E+02  0.28208002586E+02  0.36959467453E+03  0.37097800767E+03  0.00000000000E+00 0. -1.
<mgrwt>
<rscale>  1 0.12903222E+03</rscale>
<asrwt>0</asrwt>
<pdfrwt beam="1">  1        4 0.66189010E-01 0.12903222E+03</pdfrwt>
<pdfrwt beam="2">  1       -4 0.10789334E-01 0.12903222E+03</pdfrwt>
<totfact> 0.23718383E+02</totfact>
</mgrwt>
</event>
<event>
 6    4  0.5642870E-004  0.1275305E+03  0.7818608E-02  0.1231167E+00
         -4   -1    0    0    0  501 -0.00000000000E+00  0.00000000000E+00  0.96031513072E+01  0.96867649414E+01  0.12700000000E+01 0.  1.
          4   -1    0    0  502    0  0.00000000000E+00 -0.00000000000E+00 -0.65303779041E+03  0.65303902533E+03  0.12700000000E+01 0.  1.
         25    2    1    2    0    0 -0.24968555676E+02  0.38004684631E+01 -0.45249832352E+03  0.47012633819E+03  0.12500467487E+03 0.  0.
    9000005    1    3    3    0    0 -0.73622881615E+00  0.45908177060E+02 -0.38051693434E+03  0.38327828020E+03  0.10000000000E+01 0.  0.
    9000005    1    3    3    0    0 -0.24232326860E+02 -0.42107708597E+02 -0.71981389173E+02  0.86848057984E+02  0.10000000000E+01 0.  0.
         21    1    1    2  502  501  0.24968555676E+02 -0.38004684631E+01 -0.19093631559E+03  0.19259945208E+03  0.00000000000E+00 0.  1.
<mgrwt>
<rscale>  1 0.12753055E+03</rscale>
<asrwt>0</asrwt>
<pdfrwt beam="2">  1        4 0.10047384E+00 0.12753055E+03</pdfrwt>
<pdfrwt beam="1">  1       -4 0.14839352E-02 0.12753055E+03</pdfrwt>
<totfact> 0.22133156E+03</totfact>
</mgrwt>
</event>
<event>
 6    4  0.5642870E-004  0.1266432E+03  0.7818608E-02  0.1232523E+00
          4   -1    0    0  502    0  0.00000000000E+00  0.00000000000E+00  0.21932496481E+03  0.21932864174E+03  0.12700000000E+01 0.  1.
         -4   -1    0    0    0  501 -0.00000000000E+00 -0.00000000000E+00 -0.28014512039E+02  0.28043284130E+02  0.12700000000E+01 0.  1.
         25    2    1    2    0    0 -0.10767044437E+02 -0.17240994206E+02  0.12471097934E+03  0.17773952689E+03  0.12500131969E+03 0.  0.
    9000005    1    3    3    0    0  0.28749972118E+02  0.56904704565E+01 -0.13416716732E+02  0.32248265669E+02  0.10000000000E+01 0.  0.
    9000005    1    3    3    0    0 -0.39517016556E+02 -0.22931464663E+02  0.13812769607E+03  0.14549126122E+03  0.10000000000E+01 0.  0.
         21    1    1    2  502  501  0.10767044437E+02  0.17240994206E+02  0.66599473433E+02  0.69632398987E+02  0.00000000000E+00 0.  1.
<mgrwt>
<rscale>  1 0.12664324E+03</rscale>
<asrwt>0</asrwt>
<pdfrwt beam="1">  1        4 0.33744798E-01 0.12664324E+03</pdfrwt>
<pdfrwt beam="2">  1       -4 0.43124211E-02 0.12664324E+03</pdfrwt>
<totfact> 0.41378373E+03</totfact>
</mgrwt>
</event>
<event>
 6    4  0.5642870E-004  0.1529168E+03  0.7818608E-02  0.1196934E+00
         -4   -1    0    0    0  501 -0.00000000000E+00  0.00000000000E+00  0.28156218261E+03  0.28156504680E+03  0.12700000000E+01 0.  1.
          4   -1    0    0  502    0  0.00000000000E+00 -0.00000000000E+00 -0.62692123509E+02  0.62704985847E+02  0.12700000000E+01 0.  1.
         25    2    1    2    0    0  0.34857955068E+02  0.80936364114E+02  0.20392190869E+03  0.25488759998E+03  0.12497108350E+03 0.  0.
    9000005    1    3    3    0    0  0.85597574981E+01  0.52395243761E+01 -0.17062311843E+02  0.19820306495E+02  0.10000000000E+01 0.  0.
    9000005    1    3    3    0    0  0.26298197570E+02  0.75696839738E+02  0.22098422054E+03  0.23506729349E+03  0.10000000000E+01 0.  0.
         21    1    1    2  502  501 -0.34857955068E+02 -0.80936364114E+02  0.14948150409E+02  0.89382432660E+02  0.00000000000E+00 0.  1.
<mgrwt>
<rscale>  1 0.15291679E+03</rscale>
<asrwt>0</asrwt>
<pdfrwt beam="2">  1        4 0.96461518E-02 0.15291679E+03</pdfrwt>
<pdfrwt beam="1">  1       -4 0.43318469E-01 0.15291679E+03</pdfrwt>
<totfact> 0.70932400E+02</totfact>
</mgrwt>
</event>
<event>
 6    4  0.5642870E-004  0.1291369E+03  0.7818608E-02  0.1228742E+00
         -4   -1    0    0    0  501 -0.00000000000E+00  0.00000000000E+00  0.28308389624E+02  0.28336863325E+02  0.12700000000E+01 0.  1.
          4   -1    0    0  502    0  0.00000000000E+00 -0.00000000000E+00 -0.26124609935E+03  0.26124918627E+03  0.12700000000E+01 0.  1.
         25    2    1    2    0    0 -0.32159762125E+02  0.42089790397E+01 -0.13679664370E+03  0.18812142334E+03  0.12499752952E+03 0.  0.
    9000005    1    3    3    0    0 -0.20865739866E+02  0.13510509300E+01  0.21141073105E+02  0.29751460650E+02  0.10000000000E+01 0.  0.
    9000005    1    3    3    0    0 -0.11294022259E+02  0.28579281097E+01 -0.15793771681E+03  0.15836996269E+03  0.10000000000E+01 0.  0.
         21    1    1    2  502  501  0.32159762125E+02 -0.42089790397E+01 -0.96141066022E+02  0.10146462625E+03  0.00000000000E+00 0.  1.
<mgrwt>
<rscale>  1 0.12913694E+03</rscale>
<asrwt>0</asrwt>
<pdfrwt beam="2">  1        4 0.40194134E-01 0.12913694E+03</pdfrwt>
<pdfrwt beam="1">  1       -4 0.43575648E-02 0.12913694E+03</pdfrwt>
<totfact> 0.29116999E+03</totfact>
</mgrwt>
</event>
<event>
 6    4  0.5642870E-004  0.1300130E+03  0.7818608E-02  0.1227436E+00
         -4   -1    0    0    0  501 -0.00000000000E+00  0.00000000000E+00  0.86813181079E+02  0.86822470070E+02  0.12700000000E+01 0. -1.
          4   -1    0    0  502    0  0.00000000000E+00 -0.00000000000E+00 -0.79397150275E+02  0.79407306791E+02  0.12700000000E+01 0. -1.
         25    2    1    2    0    0  0.31190982756E+02 -0.17506414719E+02  0.18137789513E+01  0.13002567230E+03  0.12499613474E+03 0.  0.
    9000005    1    3    3    0    0  0.30280969641E+02 -0.56906954977E+02  0.39399985243E+02  0.75555922893E+02  0.10000000000E+01 0.  0.
    9000005    1    3    3    0    0  0.91001311489E+00  0.39400540258E+02 -0.37586206291E+02  0.54469749402E+02  0.10000000000E+01 0.  0.
         21    1    1    2  502  501 -0.31190982756E+02  0.17506414719E+02  0.56022518523E+01  0.36204104565E+02  0.00000000000E+00 0. -1.
<mgrwt>
<rscale>  1 0.13001302E+03</rscale>
<asrwt>0</asrwt>
<pdfrwt beam="2">  1        4 0.12216442E-01 0.13001302E+03</pdfrwt>
<pdfrwt beam="1">  1       -4 0.13357370E-01 0.13001302E+03</pdfrwt>
<totfact> 0.40252860E+03</totfact>
</mgrwt>
</event>
<event>
 6    4  0.5642870E-004  0.1273989E+03  0.7818608E-02  0.1231367E+00
          4   -1    0    0  502    0  0.00000000000E+00  0.00000000000E+00  0.19453657857E+02  0.19495068710E+02  0.12700000000E+01 0.  1.
         -4   -1    0    0    0  501 -0.00000000000E+00 -0.00000000000E+00 -0.51615256073E+03  0.51615412316E+03  0.12700000000E+01 0.  1.
         25    2    1    2    0    0 -0.38178558330E+01 -0.24310683587E+02 -0.49483307567E+03  0.51096991573E+03  0.12499958655E+03 0.  0.
    9000005    1    3    3    0    0  0.44035055841E+02 -0.47632804907E+02 -0.36368322249E+03  0.36942449372E+03  0.10000000000E+01 0.  0.
    9000005    1    3    3    0    0 -0.47852911674E+02  0.23322121320E+02 -0.13114985319E+03  0.14154542200E+03  0.10000000000E+01 0.  0.
         21    1    1    2  502  501  0.38178558330E+01  0.24310683587E+02 -0.18658272025E+01  0.24679276139E+02  0.00000000000E+00 0.  1.
<mgrwt>
<rscale>  1 0.12739891E+03</rscale>
<asrwt>0</asrwt>
<pdfrwt beam="1">  1        4 0.29961765E-02 0.12739891E+03</pdfrwt>
<pdfrwt beam="2">  1       -4 0.79411382E-01 0.12739891E+03</pdfrwt>
<totfact> 0.12725899E+03</totfact>
</mgrwt>
</event>
<event>
 6    4  0.5642870E-004  0.1275892E+03  0.7818608E-02  0.1231077E+00
          4   -1    0    0  502    0  0.00000000000E+00  0.00000000000E+00  0.79568697529E+01  0.80575850144E+01  0.12700000000E+01 0.  1.
         -4   -1    0    0    0  501 -0.00000000000E+00 -0.00000000000E+00 -0.78321579767E+03  0.78321682734E+03  0.12700000000E+01 0.  1.
         25    2    1    2    0    0  0.15133071876E+02  0.20609994869E+02 -0.70621570506E+03  0.71764868060E+03  0.12500089977E+03 0.  0.
    9000005    1    3    3    0    0  0.48016114123E+02  0.52609043921E+02 -0.55695099311E+03  0.56148790498E+03  0.10000000000E+01 0.  0.
    9000005    1    3    3    0    0 -0.32883042247E+02 -0.31999049052E+02 -0.14926471195E+03  0.15616077562E+03  0.10000000000E+01 0.  0.
         21    1    1    2  502  501 -0.15133071876E+02 -0.20609994869E+02 -0.69043222857E+02  0.73625731747E+02  0.00000000000E+00 0.  1.
<mgrwt>
<rscale>  1 0.12758921E+03</rscale>
<asrwt>0</asrwt>
<pdfrwt beam="1">  1        4 0.12319610E-02 0.12758921E+03</pdfrwt>
<pdfrwt beam="2">  1       -4 0.12050250E+00 0.12758921E+03</pdfrwt>
<totfact> 0.19136981E+03</totfact>
</mgrwt>
</event>
<event>
 6    4  0.5642870E-004  0.1281257E+03  0.7818608E-02  0.1230264E+00
         -4   -1    0    0    0  501 -0.00000000000E+00  0.00000000000E+00  0.95874147078E+02  0.95882558257E+02  0.12700000000E+01 0. -1.
          4   -1    0    0  502    0  0.00000000000E+00 -0.00000000000E+00 -0.71126672702E+02  0.71138010021E+02  0.12700000000E+01 0. -1.
         25    2    1    2    0    0  0.95929144086E+01  0.26442008826E+02  0.41010735416E+02  0.13452906943E+03  0.12499994506E+03 0.  0.
    9000005    1    3    3    0    0  0.19328037816E+01 -0.47187348495E+02 -0.47800939425E+01  0.47478741417E+02  0.10000000000E+01 0.  0.
    9000005    1    3    3    0    0  0.76601106270E+01  0.73629357320E+02  0.45790829359E+02  0.87050328015E+02  0.10000000000E+01 0.  0.
         21    1    1    2  502  501 -0.95929144086E+01 -0.26442008826E+02 -0.16263261040E+02  0.32491498846E+02  0.00000000000E+00 0.  1.
<mgrwt>
<rscale>  1 0.12812568E+03</rscale>
<asrwt>0</asrwt>
<pdfrwt beam="2">  1        4 0.10944084E-01 0.12812568E+03</pdfrwt>
<pdfrwt beam="1">  1       -4 0.14751388E-01 0.12812568E+03</pdfrwt>
<totfact> 0.40724384E+03</totfact>
</mgrwt>
</event>
<event>
 6    4  0.5642870E-004  0.2299614E+03  0.7818608E-02  0.1126667E+00
         -4   -1    0    0    0  501 -0.00000000000E+00  0.00000000000E+00  0.32439910520E+03  0.32440159118E+03  0.12700000000E+01 0. -1.
          4   -1    0    0  502    0  0.00000000000E+00 -0.00000000000E+00 -0.17684845647E+03  0.17685301653E+03  0.12700000000E+01 0. -1.
         25    2    1    2    0    0 -0.84299580229E+02  0.17363987858E+03 -0.38503446999E+02  0.23316254665E+03  0.12500012427E+03 0.  0.
    9000005    1    3    3    0    0 -0.10889248964E+03  0.16873053534E+03 -0.19663512925E+02  0.20178013182E+03  0.10000000000E+01 0.  0.
    9000005    1    3    3    0    0  0.24592909412E+02  0.49093432397E+01 -0.18839934075E+02  0.31382414826E+02  0.10000000000E+01 0.  0.
         21    1    1    2  502  501  0.84299580229E+02 -0.17363987858E+03  0.18605409573E+03  0.26809206106E+03  0.00000000000E+00 0. -1.
<mgrwt>
<rscale>  1 0.22996143E+03</rscale>
<asrwt>0</asrwt>
<pdfrwt beam="2">  1        4 0.27207997E-01 0.22996143E+03</pdfrwt>
<pdfrwt beam="1">  1       -4 0.49908096E-01 0.22996143E+03</pdfrwt>
<totfact> 0.90086602E+01</totfact>
</mgrwt>
</event>
<event>
 6    4  0.5642870E-004  0.1284002E+03  0.7818608E-02  0.1229849E+00
          4   -1    0    0  502    0  0.00000000000E+00  0.00000000000E+00  0.56257644763E+02  0.56271977878E+02  0.12700000000E+01 0. -1.
         -4   -1    0    0    0  501 -0.00000000000E+00 -0.00000000000E+00 -0.11918679205E+03  0.11919355813E+03  0.12700000000E+01 0. -1.
         25    2    1    2    0    0  0.29185848934E+02 -0.32334049817E+01 -0.68572595807E+02  0.14556374347E+03  0.12499733530E+03 0.  0.
    9000005    1    3    3    0    0 -0.42311356666E+01  0.50638194246E+02  0.17819699889E+01  0.50855723793E+02  0.10000000000E+01 0.  0.
    9000005    1    3    3    0    0  0.33416984601E+02 -0.53871599227E+02 -0.70354565796E+02  0.94708019679E+02  0.10000000000E+01 0.  0.
         21    1    1    2  502  501 -0.29185848934E+02  0.32334049817E+01  0.56434485161E+01  0.29901792537E+02  0.00000000000E+00 0.  1.
<mgrwt>
<rscale>  1 0.12840017E+03</rscale>
<asrwt>0</asrwt>
<pdfrwt beam="1">  1        4 0.86566454E-02 0.12840017E+03</pdfrwt>
<pdfrwt beam="2">  1       -4 0.18338052E-01 0.12840017E+03</pdfrwt>
<totfact> 0.41186452E+03</totfact>
</mgrwt>
</event>
<event>
 6    4  0.5642870E-004  0.1271555E+03  0.7818608E-02  0.1231739E+00
         -4   -1    0    0    0  501 -0.00000000000E+00  0.00000000000E+00  0.16941554025E+03  0.16942030037E+03  0.12700000000E+01 0.  1.
          4   -1    0    0  502    0  0.00000000000E+00 -0.00000000000E+00 -0.33636133412E+02  0.33660100578E+02  0.12700000000E+01 0.  1.
         25    2    1    2    0    0  0.23210053985E+02 -0.31825742808E+01  0.10880666632E+03  0.16735416247E+03  0.12497875689E+03 0.  0.
    9000005    1    3    3    0    0 -0.39442556431E+02  0.28912969519E+02  0.17268141925E+02  0.51873536507E+02  0.10000000000E+01 0.  0.
    9000005    1    3    3    0    0  0.62652610416E+02 -0.32095543800E+02  0.91538524393E+02  0.11548062596E+03  0.10000000000E+01 0.  0.
         21    1    1    2  502  501 -0.23210053985E+02  0.31825742808E+01  0.26972740520E+02  0.35726238484E+02  0.00000000000E+00 0.  1.
<mgrwt>
<rscale>  1 0.12715552E+03</rscale>
<asrwt>0</asrwt>
<pdfrwt beam="2">  1        4 0.51769996E-02 0.12715552E+03</pdfrwt>
<pdfrwt beam="1">  1       -4 0.26066139E-01 0.12715552E+03</pdfrwt>
<totfact> 0.50295877E+03</totfact>
</mgrwt>
</event>
<event>
 6    4  0.5642870E-004  0.1296264E+03  0.7818608E-02  0.1228011E+00
         -4   -1    0    0    0  501 -0.00000000000E+00  0.00000000000E+00  0.36320882932E+03  0.36321104966E+03  0.12700000000E+01 0.  1.
          4   -1    0    0  502    0  0.00000000000E+00 -0.00000000000E+00 -0.30852924374E+02  0.30879051839E+02  0.12700000000E+01 0.  1.
         25    2    1    2    0    0 -0.95833836527E+01  0.32955786151E+02  0.33545547258E+03  0.35962950947E+03  0.12500033966E+03 0.  0.
    9000005    1    3    3    0    0  0.44341576444E+01 -0.22926424786E+02  0.27544019900E+03  0.27643007422E+03  0.10000000000E+01 0.  0.
    9000005    1    3    3    0    0 -0.14017541297E+02  0.55882210937E+02  0.60015273579E+02  0.83199435250E+02  0.10000000000E+01 0.  0.
         21    1    1    2  502  501  0.95833836527E+01 -0.32955786151E+02 -0.30995676406E+01  0.34460592024E+02  0.00000000000E+00 0. -1.
<mgrwt>
<rscale>  1 0.12962642E+03</rscale>
<asrwt>0</asrwt>
<pdfrwt beam="2">  1        4 0.47487840E-02 0.12962642E+03</pdfrwt>
<pdfrwt beam="1">  1       -4 0.55880466E-01 0.12962642E+03</pdfrwt>
<totfact> 0.13063115E+03</totfact>
</mgrwt>
</event>
<event>
 6    4  0.5642870E-004  0.1272421E+03  0.7818608E-02  0.1231606E+00
         -4   -1    0    0    0  501 -0.00000000000E+00  0.00000000000E+00  0.62315031552E+02  0.62327971709E+02  0.12700000000E+01 0.  1.
          4   -1    0    0  502    0  0.00000000000E+00 -0.00000000000E+00 -0.91579843002E+02  0.91588648555E+02  0.12700000000E+01 0.  1.
         25    2    1    2    0    0  0.36551344494E+01 -0.23520585396E+02 -0.23013183112E+02  0.12930644347E+03  0.12499588705E+03 0.  0.
    9000005    1    3    3    0    0 -0.44407413688E+02  0.11304081909E+02  0.25671707695E+02  0.52534153026E+02  0.10000000000E+01 0.  0.
    9000005    1    3    3    0    0  0.48062548137E+02 -0.34824667305E+02 -0.48684890807E+02  0.76772290439E+02  0.10000000000E+01 0.  0.
         21    1    1    2  502  501 -0.36551344494E+01  0.23520585396E+02 -0.62516283372E+01  0.24610176799E+02  0.00000000000E+00 0.  1.
<mgrwt>
<rscale>  1 0.12724209E+03</rscale>
<asrwt>0</asrwt>
<pdfrwt beam="2">  1        4 0.14090879E-01 0.12724209E+03</pdfrwt>
<pdfrwt beam="1">  1       -4 0.95886007E-02 0.12724209E+03</pdfrwt>
<totfact> 0.55015009E+03</totfact>
</mgrwt>
</event>
<event>
 6    4  0.5642870E-004  0.1270499E+03  0.7818608E-02  0.1231900E+00
         -4   -1    0    0    0  501 -0.00000000000E+00  0.00000000000E+00  0.78824999104E+03  0.78825101413E+03  0.12700000000E+01 0. -1.
          4   -1    0    0  502    0  0.00000000000E+00 -0.00000000000E+00 -0.11457133210E+02  0.11527306771E+02  0.12700000000E+01 0. -1.
         25    2    1    2    0    0  0.22152306357E+02  0.50164270620E+01  0.76234504406E+03  0.77285939558E+03  0.12500315966E+03 0.  0.
    9000005    1    3    3    0    0  0.29325557673E+02  0.14653281253E+02  0.46446377042E+02  0.56859237813E+02  0.10000000000E+01 0.  0.
    9000005    1    3    3    0    0 -0.71732513154E+01 -0.96368541910E+01  0.71589866702E+03  0.71600015777E+03  0.10000000000E+01 0.  0.
         21    1    1    2  502  501 -0.22152306357E+02 -0.50164270620E+01  0.14447813773E+02  0.26918925317E+02  0.00000000000E+00 0. -1.
<mgrwt>
<rscale>  1 0.12704991E+03</rscale>
<asrwt>0</asrwt>
<pdfrwt beam="2">  1        4 0.17681125E-02 0.12704991E+03</pdfrwt>
<pdfrwt beam="1">  1       -4 0.12127471E+00 0.12704991E+03</pdfrwt>
<totfact> 0.10863102E+03</totfact>
</mgrwt>
</event>
<event>
 6    4  0.5642870E-004  0.1275646E+03  0.7818608E-02  0.1231115E+00
          4   -1    0    0  502    0  0.00000000000E+00  0.00000000000E+00  0.17623178191E+03  0.17623635793E+03  0.12700000000E+01 0.  1.
         -4   -1    0    0    0  501 -0.00000000000E+00 -0.00000000000E+00 -0.47843861421E+02  0.47860714325E+02  0.12700000000E+01 0.  1.
         25    2    1    2    0    0 -0.11088783868E+02 -0.22575064935E+02  0.42276429371E+02  0.13438763246E+03  0.12506056371E+03 0.  0.
    9000005    1    3    3    0    0  0.19030461183E+02  0.10316135615E+02 -0.37313001521E+02  0.43149057804E+02  0.10000000000E+01 0.  0.
    9000005    1    3    3    0    0 -0.30119245051E+02 -0.32891200550E+02  0.79589430892E+02  0.91238574659E+02  0.10000000000E+01 0.  0.
         21    1    1    2  502  501  0.11088783868E+02  0.22575064935E+02  0.86111491118E+02  0.89709439788E+02  0.00000000000E+00 0.  1.
<mgrwt>
<rscale>  1 0.12756465E+03</rscale>
<asrwt>0</asrwt>
<pdfrwt beam="1">  1        4 0.27114230E-01 0.12756465E+03</pdfrwt>
<pdfrwt beam="2">  1       -4 0.73622425E-02 0.12756465E+03</pdfrwt>
<totfact> 0.26385482E+03</totfact>
</mgrwt>
</event>
<event>
 6    4  0.5642870E-004  0.1328516E+03  0.7818608E-02  0.1223285E+00
         -4   -1    0    0    0  501 -0.00000000000E+00  0.00000000000E+00  0.50108688950E+03  0.50108849890E+03  0.12700000000E+01 0. -1.
          4   -1    0    0  502    0  0.00000000000E+00 -0.00000000000E+00 -0.21197721124E+02  0.21235731229E+02  0.12700000000E+01 0. -1.
         25    2    1    2    0    0  0.34478185927E+02  0.28893340502E+02  0.44773715339E+03  0.46703117001E+03  0.12500393913E+03 0.  0.
    9000005    1    3    3    0    0  0.48363152906E+02  0.42569026144E+02  0.44202613650E+03  0.44669813286E+03  0.10000000000E+01 0.  0.
    9000005    1    3    3    0    0 -0.13884966979E+02 -0.13675685642E+02  0.57110168904E+01  0.20333037149E+02  0.10000000000E+01 0.  0.
         21    1    1    2  502  501 -0.34478185927E+02 -0.28893340502E+02  0.32152014982E+02  0.55293060121E+02  0.00000000000E+00 0. -1.
<mgrwt>
<rscale>  1 0.13285163E+03</rscale>
<asrwt>0</asrwt>
<pdfrwt beam="2">  1        4 0.32642359E-02 0.13285163E+03</pdfrwt>
<pdfrwt beam="1">  1       -4 0.77093330E-01 0.13285163E+03</pdfrwt>
<totfact> 0.11985098E+03</totfact>
</mgrwt>
</event>
<event>
 6    4  0.5642870E-004  0.1272171E+03  0.7818608E-02  0.1231644E+00
         -4   -1    0    0    0  501 -0.00000000000E+00  0.00000000000E+00  0.18650349295E+02  0.18693539762E+02  0.12700000000E+01 0. -1.
          4   -1    0    0  502    0  0.00000000000E+00 -0.00000000000E+00 -0.30632601691E+03  0.30632864955E+03  0.12700000000E+01 0. -1.
         25    2    1    2    0    0  0.22529727328E+02  0.73182152323E+01 -0.23384326856E+03  0.26620831276E+03  0.12499218632E+03 0.  0.
    9000005    1    3    3    0    0  0.63100977970E+02  0.96375934105E+01 -0.59775138676E+02  0.87456754063E+02  0.10000000000E+01 0.  0.
    9000005    1    3    3    0    0 -0.40571250643E+02 -0.23193781782E+01 -0.17406812989E+03  0.17875155869E+03  0.10000000000E+01 0.  0.
         21    1    1    2  502  501 -0.22529727328E+02 -0.73182152323E+01 -0.53832399054E+02  0.58813876556E+02  0.00000000000E+00 0. -1.
<mgrwt>
<rscale>  1 0.12721710E+03</rscale>
<asrwt>0</asrwt>
<pdfrwt beam="2">  1        4 0.47130601E-01 0.12721710E+03</pdfrwt>
<pdfrwt beam="1">  1       -4 0.28728096E-02 0.12721710E+03</pdfrwt>
<totfact> 0.40761855E+03</totfact>
</mgrwt>
</event>
<event>
 6    4  0.5642870E-004  0.1469072E+03  0.7818608E-02  0.1204326E+00
          4   -1    0    0  502    0  0.00000000000E+00  0.00000000000E+00  0.18606921693E+03  0.18607355102E+03  0.12700000000E+01 0. -1.
         -4   -1    0    0    0  501 -0.00000000000E+00 -0.00000000000E+00 -0.97697281848E+02  0.97705536079E+02  0.12700000000E+01 0. -1.
         25    2    1    2    0    0 -0.46898301245E+02  0.61293628954E+02 -0.22572165224E+02  0.14863119402E+03  0.12500147832E+03 0.  0.
    9000005    1    3    3    0    0 -0.43596412833E+02  0.25925437326E+02  0.47858159480E+02  0.69743665958E+02  0.10000000000E+01 0.  0.
    9000005    1    3    3    0    0 -0.33018884123E+01  0.35368191628E+02 -0.70430324704E+02  0.78887528064E+02  0.10000000000E+01 0.  0.
         21    1    1    2  502  501  0.46898301245E+02 -0.61293628954E+02  0.11094410030E+03  0.13514789307E+03  0.00000000000E+00 0. -1.
<mgrwt>
<rscale>  1 0.14690721E+03</rscale>
<asrwt>0</asrwt>
<pdfrwt beam="1">  1        4 0.28627002E-01 0.14690721E+03</pdfrwt>
<pdfrwt beam="2">  1       -4 0.15031319E-01 0.14690721E+03</pdfrwt>
<totfact> 0.73349203E+02</totfact>
</mgrwt>
</event>
<event>
 6    4  0.5642870E-004  0.1289113E+03  0.7818608E-02  0.1229080E+00
         -4   -1    0    0    0  501 -0.00000000000E+00  0.00000000000E+00  0.38961117263E+02  0.38981810609E+02  0.12700000000E+01 0. -1.
          4   -1    0    0  502    0  0.00000000000E+00 -0.00000000000E+00 -0.22757097486E+03  0.22757451856E+03  0.12700000000E+01 0. -1.
         25    2    1    2    0    0  0.31327580103E+02  0.35437555612E+01 -0.76066641881E+02  0.14968053663E+03  0.12499661419E+03 0.  0.
    9000005    1    3    3    0    0  0.39087412233E+02  0.13404051875E+02  0.24686102093E+02  0.48144553568E+02  0.10000000000E+01 0.  0.
    9000005    1    3    3    0    0 -0.77598321300E+01 -0.98602963134E+01 -0.10075274397E+03  0.10153598306E+03  0.10000000000E+01 0.  0.
         21    1    1    2  502  501 -0.31327580103E+02 -0.35437555612E+01 -0.11254321571E+03  0.11687579254E+03  0.00000000000E+00 0. -1.
<mgrwt>
<rscale>  1 0.12891132E+03</rscale>
<asrwt>0</asrwt>
<pdfrwt beam="2">  1        4 0.35012783E-01 0.12891132E+03</pdfrwt>
<pdfrwt beam="1">  1       -4 0.59958826E-02 0.12891132E+03</pdfrwt>
<totfact> 0.22791120E+03</totfact>
</mgrwt>
</event>
<event>
 6    4  0.5642870E-004  0.1276297E+03  0.7818608E-02  0.1231016E+00
         -4   -1    0    0    0  501 -0.00000000000E+00  0.00000000000E+00  0.17035134147E+02  0.17082408946E+02  0.12700000000E+01 0.  1.
          4   -1    0    0  502    0  0.00000000000E+00 -0.00000000000E+00 -0.34480604279E+03  0.34480838163E+03  0.12700000000E+01 0.  1.
         25    2    1    2    0    0  0.16886714397E+02  0.19451839275E+02 -0.27424669730E+03  0.30249065274E+03  0.12500323534E+03 0.  0.
    9000005    1    3    3    0    0  0.12326579285E+02  0.60409463896E+02 -0.66481691512E+02  0.90675593140E+02  0.10000000000E+01 0.  0.
    9000005    1    3    3    0    0  0.45601351117E+01 -0.40957624621E+02 -0.20776500578E+03  0.21181505960E+03  0.10000000000E+01 0.  0.
         21    1    1    2  502  501 -0.16886714397E+02 -0.19451839275E+02 -0.53524211343E+02  0.59400137830E+02  0.00000000000E+00 0. -1.
<mgrwt>
<rscale>  1 0.12762971E+03</rscale>
<asrwt>0</asrwt>
<pdfrwt beam="2">  1        4 0.53050895E-01 0.12762971E+03</pdfrwt>
<pdfrwt beam="1">  1       -4 0.26246065E-02 0.12762971E+03</pdfrwt>
<totfact> 0.36914778E+03</totfact>
</mgrwt>
</event>
<event>
 6    4  0.5642870E-004  0.1325823E+03  0.7818608E-02  0.1223674E+00
          4   -1    0    0  502    0  0.00000000000E+00  0.00000000000E+00  0.17423320609E+03  0.17423783459E+03  0.12700000000E+01 0.  1.
         -4   -1    0    0    0  501 -0.00000000000E+00 -0.00000000000E+00 -0.46272846340E+02  0.46290271206E+02  0.12700000000E+01 0.  1.
         25    2    1    2    0    0  0.35084075197E+02  0.26889217434E+02  0.78019379191E+02  0.15383459873E+03  0.12499655151E+03 0.  0.
    9000005    1    3    3    0    0  0.59641717924E+02 -0.27392188914E+02  0.15452197780E+02  0.67433203592E+02  0.10000000000E+01 0.  0.
    9000005    1    3    3    0    0 -0.24557642727E+02  0.54281406348E+02  0.62567181411E+02  0.86401395135E+02  0.10000000000E+01 0.  0.
         21    1    1    2  502  501 -0.35084075197E+02 -0.26889217434E+02  0.49940980555E+02  0.66693507071E+02  0.00000000000E+00 0.  1.
<mgrwt>
<rscale>  1 0.13258228E+03</rscale>
<asrwt>0</asrwt>
<pdfrwt beam="1">  1        4 0.26806805E-01 0.13258228E+03</pdfrwt>
<pdfrwt beam="2">  1       -4 0.71205959E-02 0.13258228E+03</pdfrwt>
<totfact> 0.28734989E+03</totfact>
</mgrwt>
</event>
<event>
 6    4  0.5642870E-004  0.1281285E+03  0.7818608E-02  0.1230259E+00
         -4   -1    0    0    0  501 -0.00000000000E+00  0.00000000000E+00  0.43379035045E+03  0.43379220952E+03  0.12700000000E+01 0. -1.
          4   -1    0    0  502    0  0.00000000000E+00 -0.00000000000E+00 -0.14348411992E+02  0.14404507166E+02  0.12700000000E+01 0. -1.
         25    2    1    2    0    0 -0.11113022443E+02  0.25887630981E+02  0.36607475374E+03  0.38785000915E+03  0.12499294208E+03 0.  0.
    9000005    1    3    3    0    0 -0.23424833596E+02 -0.35132331220E+02  0.27055636777E+03  0.27383343782E+03  0.10000000000E+01 0.  0.
    9000005    1    3    3    0    0  0.12311811153E+02  0.61019962201E+02  0.95518385966E+02  0.11401657133E+03  0.10000000000E+01 0.  0.
         21    1    1    2  502  501  0.11113022443E+02 -0.25887630981E+02  0.53367184719E+02  0.60346707536E+02  0.00000000000E+00 0. -1.
<mgrwt>
<rscale>  1 0.12812847E+03</rscale>
<asrwt>0</asrwt>
<pdfrwt beam="2">  1        4 0.22119060E-02 0.12812847E+03</pdfrwt>
<pdfrwt beam="1">  1       -4 0.66741435E-01 0.12812847E+03</pdfrwt>
<totfact> 0.29780391E+03</totfact>
</mgrwt>
</event>
<event>
 6    4  0.5642870E-004  0.1269133E+03  0.7818608E-02  0.1232109E+00
          4   -1    0    0  502    0  0.00000000000E+00  0.00000000000E+00  0.55129828819E+03  0.55129975101E+03  0.12700000000E+01 0. -1.
         -4   -1    0    0    0  501 -0.00000000000E+00 -0.00000000000E+00 -0.12757455080E+02  0.12820513255E+02  0.12700000000E+01 0. -1.
         25    2    1    2    0    0 -0.11904761318E+02 -0.18475882652E+02  0.31654694685E+03  0.34104097988E+03  0.12499559520E+03 0.  0.
    9000005    1    3    3    0    0 -0.27736420588E+02 -0.36602567238E+02  0.31340006737E+03  0.31674857408E+03  0.10000000000E+01 0.  0.
    9000005    1    3    3    0    0  0.15831659270E+02  0.18126684586E+02  0.31468794818E+01  0.24292405805E+02  0.10000000000E+01 0.  0.
         21    1    1    2  502  501  0.11904761318E+02  0.18475882652E+02  0.22199388626E+03  0.22307928438E+03  0.00000000000E+00 0. -1.
<mgrwt>
<rscale>  1 0.12691328E+03</rscale>
<asrwt>0</asrwt>
<pdfrwt beam="1">  1        4 0.84820088E-01 0.12691328E+03</pdfrwt>
<pdfrwt beam="2">  1       -4 0.19676485E-02 0.12691328E+03</pdfrwt>
<totfact> 0.21085224E+03</totfact>
</mgrwt>
</event>
<event>
 6    4  0.5642870E-004  0.1271098E+03  0.7818608E-02  0.1231808E+00
          4   -1    0    0  502    0  0.00000000000E+00  0.00000000000E+00  0.13372826970E+03  0.13373430007E+03  0.12700000000E+01 0.  1.
         -4   -1    0    0    0  501 -0.00000000000E+00 -0.00000000000E+00 -0.42665963114E+02  0.42684860413E+02  0.12700000000E+01 0.  1.
         25    2    1    2    0    0 -0.22584961629E+02 -0.43907092667E+01  0.69415388098E+02  0.14482884710E+03  0.12501015970E+03 0.  0.
    9000005    1    3    3    0    0  0.45524588153E+02  0.21962671466E+02  0.45389540409E+02  0.67941573745E+02  0.10000000000E+01 0.  0.
    9000005    1    3    3    0    0 -0.68109549782E+02 -0.26353380733E+02  0.24025847689E+02  0.76887273360E+02  0.10000000000E+01 0.  0.
         21    1    1    2  502  501  0.22584961629E+02  0.43907092667E+01  0.21646918484E+02  0.31590313381E+02  0.00000000000E+00 0.  1.
<mgrwt>
<rscale>  1 0.12710979E+03</rscale>
<asrwt>0</asrwt>
<pdfrwt beam="1">  1        4 0.20575497E-01 0.12710979E+03</pdfrwt>
<pdfrwt beam="2">  1       -4 0.65659120E-02 0.12710979E+03</pdfrwt>
<totfact> 0.52716657E+03</totfact>
</mgrwt>
</event>
<event>
 6    4  0.5642870E-004  0.1395805E+03  0.7818608E-02  0.1213895E+00
         -4   -1    0    0    0  501 -0.00000000000E+00  0.00000000000E+00  0.22622323462E+03  0.22622679943E+03  0.12700000000E+01 0. -1.
          4   -1    0    0  502    0  0.00000000000E+00 -0.00000000000E+00 -0.55523878620E+02  0.55538401102E+02  0.12700000000E+01 0. -1.
         25    2    1    2    0    0 -0.54227312786E+02  0.30280211079E+02  0.16959344345E+03  0.21964663908E+03  0.12500086944E+03 0.  0.
    9000005    1    3    3    0    0 -0.72503553170E+02  0.21760917413E+01  0.17133794195E+03  0.18606233082E+03  0.10000000000E+01 0.  0.
    9000005    1    3    3    0    0  0.18276240383E+02  0.28104119337E+02 -0.17444984994E+01  0.33584308260E+02  0.10000000000E+01 0.  0.
         21    1    1    2  502  501  0.54227312786E+02 -0.30280211079E+02  0.11059125493E+01  0.62118561458E+02  0.00000000000E+00 0. -1.
<mgrwt>
<rscale>  1 0.13958048E+03</rscale>
<asrwt>0</asrwt>
<pdfrwt beam="2">  1        4 0.85435264E-02 0.13958048E+03</pdfrwt>
<pdfrwt beam="1">  1       -4 0.34804966E-01 0.13958048E+03</pdfrwt>
<totfact> 0.13109651E+03</totfact>
</mgrwt>
</event>
<event>
 6    4  0.5642870E-004  0.1319173E+03  0.7818608E-02  0.1224638E+00
          4   -1    0    0  502    0  0.00000000000E+00  0.00000000000E+00  0.49893854226E+02  0.49910014922E+02  0.12700000000E+01 0. -1.
         -4   -1    0    0    0  501 -0.00000000000E+00 -0.00000000000E+00 -0.19464784962E+03  0.19465199270E+03  0.12700000000E+01 0. -1.
         25    2    1    2    0    0 -0.29094607870E+02 -0.30514003644E+02 -0.15255907279E+03  0.20168404290E+03  0.12499832737E+03 0.  0.
    9000005    1    3    3    0    0  0.28476158076E+02 -0.77107072735E+01 -0.13373781559E+03  0.13695674465E+03  0.10000000000E+01 0.  0.
    9000005    1    3    3    0    0 -0.57570765946E+02 -0.22803296371E+02 -0.18821257199E+02  0.64727298256E+02  0.10000000000E+01 0.  0.
         21    1    1    2  502  501  0.29094607870E+02  0.30514003644E+02  0.78050773924E+01  0.42877964721E+02  0.00000000000E+00 0. -1.
<mgrwt>
<rscale>  1 0.13191733E+03</rscale>
<asrwt>0</asrwt>
<pdfrwt beam="1">  1        4 0.76775395E-02 0.13191733E+03</pdfrwt>
<pdfrwt beam="2">  1       -4 0.29947384E-01 0.13191733E+03</pdfrwt>
<totfact> 0.20598438E+03</totfact>
</mgrwt>
</event>
<event>
 6    4  0.5642870E-004  0.1271599E+03  0.7818608E-02  0.1231732E+00
          4   -1    0    0  502    0  0.00000000000E+00  0.00000000000E+00  0.30872799372E+02  0.30898910030E+02  0.12700000000E+01 0. -1.
         -4   -1    0    0    0  501 -0.00000000000E+00 -0.00000000000E+00 -0.33000998261E+03  0.33001242631E+03  0.12700000000E+01 0. -1.
         25    2    1    2    0    0  0.95143060591E+01 -0.21363583348E+02 -0.31004347505E+03  0.33510684227E+03  0.12499085807E+03 0.  0.
    9000005    1    3    3    0    0  0.38259375222E+02  0.42320381229E+02 -0.14927673575E+03  0.15981031974E+03  0.10000000000E+01 0.  0.
    9000005    1    3    3    0    0 -0.28745069163E+02 -0.63683964577E+02 -0.16076673930E+03  0.17529652252E+03  0.10000000000E+01 0.  0.
         21    1    1    2  502  501 -0.95143060591E+01  0.21363583348E+02  0.10906291814E+02  0.25804494073E+02  0.00000000000E+00 0.  1.
<mgrwt>
<rscale>  1 0.12715990E+03</rscale>
<asrwt>0</asrwt>
<pdfrwt beam="1">  1        4 0.47518582E-02 0.12715990E+03</pdfrwt>
<pdfrwt beam="2">  1       -4 0.50772961E-01 0.12715990E+03</pdfrwt>
<totfact> 0.15823182E+03</totfact>
</mgrwt>
</event>
<event>
 6    4  0.5642870E-004  0.1271461E+03  0.7818608E-02  0.1231753E+00
         -4   -1    0    0    0  501 -0.00000000000E+00  0.00000000000E+00  0.37412748397E+03  0.37412963952E+03  0.12700000000E+01 0.  1.
          4   -1    0    0  502    0  0.00000000000E+00 -0.00000000000E+00 -0.15113656580E+02  0.15166921745E+02  0.12700000000E+01 0.  1.
         25    2    1    2    0    0  0.28200170314E+01 -0.23140663887E+02  0.30777888312E+03  0.33300746520E+03  0.12499075230E+03 0.  0.
    9000005    1    3    3    0    0 -0.26043597134E+02  0.54315317266E+01  0.28537350199E+03  0.28661264126E+03  0.10000000000E+01 0.  0.
    9000005    1    3    3    0    0  0.28863614165E+02 -0.28572195614E+02  0.22405381128E+02  0.46394823939E+02  0.10000000000E+01 0.  0.
         21    1    1    2  502  501 -0.28200170314E+01  0.23140663887E+02  0.51234944271E+02  0.56289096063E+02  0.00000000000E+00 0.  1.
<mgrwt>
<rscale>  1 0.12714610E+03</rscale>
<asrwt>0</asrwt>
<pdfrwt beam="2">  1        4 0.23294411E-02 0.12714610E+03</pdfrwt>
<pdfrwt beam="1">  1       -4 0.57562338E-01 0.12714610E+03</pdfrwt>
<totfact> 0.37486499E+03</totfact>
</mgrwt>
</event>
<event>
 6    4  0.5642870E-004  0.1291761E+03  0.7818608E-02  0.1228683E+00
         -4   -1    0    0    0  501 -0.00000000000E+00  0.00000000000E+00  0.31212527399E+03  0.31212785772E+03  0.12700000000E+01 0. -1.
          4   -1    0    0  502    0  0.00000000000E+00 -0.00000000000E+00 -0.43858380166E+02  0.43876763905E+02  0.12700000000E+01 0. -1.
         25    2    1    2    0    0  0.29884247739E+02 -0.13279604295E+02  0.28950133039E+03  0.31701337326E+03  0.12496816545E+03 0.  0.
    9000005    1    3    3    0    0  0.17350546544E+02  0.87561932738E+01 -0.60467788346E+01  0.20378319860E+02  0.10000000000E+01 0.  0.
    9000005    1    3    3    0    0  0.12533701195E+02 -0.22035797569E+02  0.29554810922E+03  0.29663505340E+03  0.10000000000E+01 0.  0.
         21    1    1    2  502  501 -0.29884247739E+02  0.13279604295E+02 -0.21234436561E+02  0.38991248367E+02  0.00000000000E+00 0. -1.
<mgrwt>
<rscale>  1 0.12917608E+03</rscale>
<asrwt>0</asrwt>
<pdfrwt beam="2">  1        4 0.67490559E-02 0.12917608E+03</pdfrwt>
<pdfrwt beam="1">  1       -4 0.48020887E-01 0.12917608E+03</pdfrwt>
<totfact> 0.10079487E+03</totfact>
</mgrwt>
</event>
<event>
 6    4  0.5642870E-004  0.1327545E+03  0.7818608E-02  0.1223425E+00
         -4   -1    0    0    0  501 -0.00000000000E+00  0.00000000000E+00  0.90944928303E+02  0.90953795325E+02  0.12700000000E+01 0. -1.
          4   -1    0    0  502    0  0.00000000000E+00 -0.00000000000E+00 -0.18322918266E+03  0.18323358392E+03  0.12700000000E+01 0. -1.
         25    2    1    2    0    0  0.44421127359E+02  0.50583105086E+01  0.36650905073E+02  0.13772090572E+03  0.12499974387E+03 0.  0.
    9000005    1    3    3    0    0  0.46348621193E+02  0.58450448610E+02  0.31873055676E+01  0.74671336843E+02  0.10000000000E+01 0.  0.
    9000005    1    3    3    0    0 -0.19274938334E+01 -0.53392138101E+02  0.33463599505E+02  0.63049568875E+02  0.10000000000E+01 0.  0.
         21    1    1    2  502  501 -0.44421127359E+02 -0.50583105086E+01 -0.12893515943E+03  0.13646647353E+03  0.00000000000E+00 0. -1.
<mgrwt>
<rscale>  1 0.13275451E+03</rscale>
<asrwt>0</asrwt>
<pdfrwt beam="2">  1        4 0.28190126E-01 0.13275451E+03</pdfrwt>
<pdfrwt beam="1">  1       -4 0.13992548E-01 0.13275451E+03</pdfrwt>
<totfact> 0.83813697E+02</totfact>
</mgrwt>
</event>
<event>
 6    4  0.5642870E-004  0.1548019E+03  0.7818608E-02  0.1194694E+00
         -4   -1    0    0    0  501 -0.00000000000E+00  0.00000000000E+00  0.10619934292E+04  0.10619941886E+04  0.12700000000E+01 0.  1.
          4   -1    0    0  502    0  0.00000000000E+00 -0.00000000000E+00 -0.72271839438E+02  0.72282997141E+02  0.12700000000E+01 0.  1.
         25    2    1    2    0    0  0.11526239993E+02  0.90589138340E+02  0.10248194562E+04  0.10364451540E+04  0.12499757366E+03 0.  0.
    9000005    1    3    3    0    0  0.20059709646E+02  0.12014999974E+03  0.73903056718E+03  0.74900306649E+03  0.10000000000E+01 0.  0.
    9000005    1    3    3    0    0 -0.85334696528E+01 -0.29560861400E+02  0.28578888898E+03  0.28744208755E+03  0.10000000000E+01 0.  0.
         21    1    1    2  502  501 -0.11526239993E+02 -0.90589138340E+02 -0.35097866404E+02  0.97832031665E+02  0.00000000000E+00 0.  1.
<mgrwt>
<rscale>  1 0.15480194E+03</rscale>
<asrwt>0</asrwt>
<pdfrwt beam="2">  1        4 0.11119661E-01 0.15480194E+03</pdfrwt>
<pdfrwt beam="1">  1       -4 0.16338452E+00 0.15480194E+03</pdfrwt>
<totfact> 0.27789995E+01</totfact>
</mgrwt>
</event>
<event>
 6    4  0.5642870E-004  0.1266027E+03  0.7818608E-02  0.1232586E+00
         -4   -1    0    0    0  501 -0.00000000000E+00  0.00000000000E+00  0.96663665401E+02  0.96672007886E+02  0.12700000000E+01 0. -1.
          4   -1    0    0  502    0  0.00000000000E+00 -0.00000000000E+00 -0.74736975590E+02  0.74747765320E+02  0.12700000000E+01 0. -1.
         25    2    1    2    0    0  0.17295931496E+02 -0.10718955961E+02  0.50532616388E+02  0.13631501144E+03  0.12495675957E+03 0.  0.
    9000005    1    3    3    0    0  0.31074585647E+01 -0.62423662921E+02  0.53963611884E+02  0.82579909171E+02  0.10000000000E+01 0.  0.
    9000005    1    3    3    0    0  0.14188472932E+02  0.51704706960E+02 -0.34309954961E+01  0.53735102270E+02  0.10000000000E+01 0.  0.
         21    1    1    2  502  501 -0.17295931496E+02  0.10718955961E+02 -0.28605926577E+02  0.35104761764E+02  0.00000000000E+00 0. -1.
<mgrwt>
<rscale>  1 0.12660267E+03</rscale>
<asrwt>0</asrwt>
<pdfrwt beam="2">  1        4 0.11499468E-01 0.12660267E+03</pdfrwt>
<pdfrwt beam="1">  1       -4 0.14872805E-01 0.12660267E+03</pdfrwt>
<totfact> 0.36800998E+03</totfact>
</mgrwt>
</event>
<event>
 6    4  0.5642870E-004  0.1276207E+03  0.7818608E-02  0.1231030E+00
          4   -1    0    0  502    0  0.00000000000E+00  0.00000000000E+00  0.61335428892E+03  0.61335560374E+03  0.12700000000E+01 0.  1.
         -4   -1    0    0    0  501 -0.00000000000E+00 -0.00000000000E+00 -0.10450480521E+02  0.10527366390E+02  0.12700000000E+01 0.  1.
         25    2    1    2    0    0 -0.13506369797E+02 -0.21918790882E+02  0.41375154885E+03  0.43298657752E+03  0.12499670682E+03 0.  0.
    9000005    1    3    3    0    0 -0.38062715064E+02 -0.30843631815E+02  0.40084256359E+03  0.40382652301E+03  0.10000000000E+01 0.  0.
    9000005    1    3    3    0    0  0.24556345267E+02  0.89248409333E+01  0.12908985263E+02  0.29160054511E+02  0.10000000000E+01 0.  0.
         21    1    1    2  502  501  0.13506369797E+02  0.21918790882E+02  0.18915225955E+03  0.19089639261E+03  0.00000000000E+00 0.  1.
<mgrwt>
<rscale>  1 0.12762066E+03</rscale>
<asrwt>0</asrwt>
<pdfrwt beam="1">  1        4 0.94368227E-01 0.12762066E+03</pdfrwt>
<pdfrwt beam="2">  1       -4 0.16137814E-02 0.12762066E+03</pdfrwt>
<totfact> 0.22491606E+03</totfact>
</mgrwt>
</event>
<event>
 6    4  0.5642870E-004  0.1280132E+03  0.7818608E-02  0.1230434E+00
          4   -1    0    0  502    0  0.00000000000E+00  0.00000000000E+00  0.23307492348E+02  0.23342067165E+02  0.12700000000E+01 0.  1.
         -4   -1    0    0    0  501 -0.00000000000E+00 -0.00000000000E+00 -0.35377991591E+03  0.35378219542E+03  0.12700000000E+01 0.  1.
         25    2    1    2    0    0 -0.15872183234E+02 -0.22596747579E+02 -0.32454740026E+03  0.34888165111E+03  0.12499940907E+03 0.  0.
    9000005    1    3    3    0    0 -0.17157347115E+02  0.50812246658E+02 -0.15829114952E+03  0.16713272267E+03  0.10000000000E+01 0.  0.
    9000005    1    3    3    0    0  0.12851638809E+01 -0.73408994237E+02 -0.16625625074E+03  0.18174892845E+03  0.10000000000E+01 0.  0.
         21    1    1    2  502  501  0.15872183234E+02  0.22596747579E+02 -0.59250233002E+01  0.28242611475E+02  0.00000000000E+00 0.  1.
<mgrwt>
<rscale>  1 0.12801325E+03</rscale>
<asrwt>0</asrwt>
<pdfrwt beam="1">  1        4 0.35886033E-02 0.12801325E+03</pdfrwt>
<pdfrwt beam="2">  1       -4 0.54430510E-01 0.12801325E+03</pdfrwt>
<totfact> 0.21466722E+03</totfact>
</mgrwt>
</event>
<event>
 6    4  0.5642870E-004  0.1273238E+03  0.7818608E-02  0.1231482E+00
          4   -1    0    0  502    0  0.00000000000E+00  0.00000000000E+00  0.56950522829E+02  0.56964681606E+02  0.12700000000E+01 0.  1.
         -4   -1    0    0    0  501 -0.00000000000E+00 -0.00000000000E+00 -0.10333344873E+03  0.10334125278E+03  0.12700000000E+01 0.  1.
         25    2    1    2    0    0 -0.18574148385E+02 -0.15605489621E+02 -0.29347058953E+02  0.13066219884E+03  0.12499131986E+03 0.  0.
    9000005    1    3    3    0    0  0.23989177260E+02  0.18837634131E+00  0.40658195911E+02  0.47218693396E+02  0.10000000000E+01 0.  0.
    9000005    1    3    3    0    0 -0.42563325644E+02 -0.15793865963E+02 -0.70005254864E+02  0.83443505443E+02  0.10000000000E+01 0.  0.
         21    1    1    2  502  501  0.18574148385E+02  0.15605489621E+02 -0.17035866944E+02  0.29643735545E+02  0.00000000000E+00 0.  1.
<mgrwt>
<rscale>  1 0.12732384E+03</rscale>
<asrwt>0</asrwt>
<pdfrwt beam="1">  1        4 0.87633083E-02 0.12732384E+03</pdfrwt>
<pdfrwt beam="2">  1       -4 0.15899143E-01 0.12732384E+03</pdfrwt>
<totfact> 0.51816119E+03</totfact>
</mgrwt>
</event>
<event>
 6    4  0.5642870E-004  0.1271760E+03  0.7818608E-02  0.1231707E+00
         -4   -1    0    0    0  501 -0.00000000000E+00  0.00000000000E+00  0.11777704245E+04  0.11777711092E+04  0.12700000000E+01 0. -1.
          4   -1    0    0  502    0  0.00000000000E+00 -0.00000000000E+00 -0.49592051558E+01  0.51192397656E+01  0.12700000000E+01 0. -1.
         25    2    1    2    0    0  0.16451172549E+02  0.16677887040E+02  0.10648025426E+04  0.10723703633E+04  0.12499979309E+03 0.  0.
    9000005    1    3    3    0    0  0.35029046350E+01 -0.22407350181E+02  0.95222153192E+03  0.95249210261E+03  0.10000000000E+01 0.  0.
    9000005    1    3    3    0    0  0.12948267914E+02  0.39085237220E+02  0.11258101070E+03  0.11987826066E+03  0.10000000000E+01 0.  0.
         21    1    1    2  502  501 -0.16451172549E+02 -0.16677887040E+02  0.10800867675E+03  0.11051998574E+03  0.00000000000E+00 0. -1.
<mgrwt>
<rscale>  1 0.12717602E+03</rscale>
<asrwt>0</asrwt>
<pdfrwt beam="2">  1        4 0.77531675E-03 0.12717602E+03</pdfrwt>
<pdfrwt beam="1">  1       -4 0.18120803E+00 0.12717602E+03</pdfrwt>
<totfact> 0.13594341E+03</totfact>
</mgrwt>
</event>
<event>
 6    4  0.5642870E-004  0.1275573E+03  0.7818608E-02  0.1231126E+00
         -4   -1    0    0    0  501 -0.00000000000E+00  0.00000000000E+00  0.23117533793E+03  0.23117882638E+03  0.12700000000E+01 0. -1.
          4   -1    0    0  502    0  0.00000000000E+00 -0.00000000000E+00 -0.25573975770E+02  0.25605490362E+02  0.12700000000E+01 0. -1.
         25    2    1    2    0    0 -0.14855698872E+02 -0.20595833280E+02  0.18096764100E+03  0.22140493920E+03  0.12500391944E+03 0.  0.
    9000005    1    3    3    0    0 -0.34274710215E+02  0.23010414937E+02  0.16645809519E+03  0.17150373876E+03  0.10000000000E+01 0.  0.
    9000005    1    3    3    0    0  0.19419011344E+02 -0.43606248216E+02  0.14509545809E+02  0.49901200433E+02  0.10000000000E+01 0.  0.
         21    1    1    2  502  501  0.14855698872E+02  0.20595833280E+02  0.24633721166E+02  0.35379377551E+02  0.00000000000E+00 0. -1.
<mgrwt>
<rscale>  1 0.12755728E+03</rscale>
<asrwt>0</asrwt>
<pdfrwt beam="2">  1        4 0.39371505E-02 0.12755728E+03</pdfrwt>
<pdfrwt beam="1">  1       -4 0.35568128E-01 0.12755728E+03</pdfrwt>
<totfact> 0.43288618E+03</totfact>
</mgrwt>
</event>
<event>
 6    4  0.5642870E-004  0.1271684E+03  0.7818608E-02  0.1231719E+00
          4   -1    0    0  502    0  0.00000000000E+00  0.00000000000E+00  0.58820955160E+01  0.60176363848E+01  0.12700000000E+01 0.  1.
         -4   -1    0    0    0  501 -0.00000000000E+00 -0.00000000000E+00 -0.13088654356E+04  0.13088660517E+04  0.12700000000E+01 0.  1.
         25    2    1    2    0    0  0.12011089954E+02 -0.20060859724E+02 -0.12558227456E+04  0.12622450517E+04  0.12500039097E+03 0.  0.
    9000005    1    3    3    0    0  0.26898262943E+02  0.38638187883E+02 -0.90563504384E+03  0.90685845574E+03  0.10000000000E+01 0.  0.
    9000005    1    3    3    0    0 -0.14887172989E+02 -0.58699047607E+02 -0.35018770178E+03  0.35538659596E+03  0.10000000000E+01 0.  0.
         21    1    1    2  502  501 -0.12011089954E+02  0.20060859724E+02 -0.47160594421E+02  0.52638636388E+02  0.00000000000E+00 0.  1.
<mgrwt>
<rscale>  1 0.12716840E+03</rscale>
<asrwt>0</asrwt>
<pdfrwt beam="1">  1        4 0.91541243E-03 0.12716840E+03</pdfrwt>
<pdfrwt beam="2">  1       -4 0.20137416E+00 0.12716840E+03</pdfrwt>
<totfact> 0.78984879E+02</totfact>
</mgrwt>
</event>
<event>
 6    4  0.5642870E-004  0.1277686E+03  0.7818608E-02  0.1230805E+00
         -4   -1    0    0    0  501 -0.00000000000E+00  0.00000000000E+00  0.38666613545E+02  0.38687464418E+02  0.12700000000E+01 0. -1.
          4   -1    0    0  502    0  0.00000000000E+00 -0.00000000000E+00 -0.18373796966E+03  0.18374235874E+03  0.12700000000E+01 0. -1.
         25    2    1    2    0    0 -0.15764966997E+02 -0.21368829353E+02 -0.76556027812E+02  0.14894845637E+03  0.12497862301E+03 0.  0.
    9000005    1    3    3    0    0 -0.33752279691E+02  0.41674536403E+02 -0.82535840793E+01  0.54268821793E+02  0.10000000000E+01 0.  0.
    9000005    1    3    3    0    0  0.17987312694E+02 -0.63043365755E+02 -0.68302443733E+02  0.94679634577E+02  0.10000000000E+01 0.  0.
         21    1    1    2  502  501  0.15764966997E+02  0.21368829353E+02 -0.68515328301E+02  0.73481366785E+02  0.00000000000E+00 0.  1.
<mgrwt>
<rscale>  1 0.12776861E+03</rscale>
<asrwt>0</asrwt>
<pdfrwt beam="2">  1        4 0.28269321E-01 0.12776861E+03</pdfrwt>
<pdfrwt beam="1">  1       -4 0.59506514E-02 0.12776861E+03</pdfrwt>
<totfact> 0.34570090E+03</totfact>
</mgrwt>
</event>
<event>
 6    4  0.5642870E-004  0.1295398E+03  0.7818608E-02  0.1228140E+00
         -4   -1    0    0    0  501 -0.00000000000E+00  0.00000000000E+00  0.95608603774E+01  0.96448406496E+01  0.12700000000E+01 0. -1.
          4   -1    0    0  502    0  0.00000000000E+00 -0.00000000000E+00 -0.74905460666E+03  0.74905568328E+03  0.12700000000E+01 0. -1.
         25    2    1    2    0    0 -0.18660695393E+02  0.28405990668E+02 -0.48718112150E+03  0.50410912093E+03  0.12500175519E+03 0.  0.
    9000005    1    3    3    0    0  0.15483169363E+02  0.12312255304E+02 -0.49689982903E+01  0.20420849841E+02  0.10000000000E+01 0.  0.
    9000005    1    3    3    0    0 -0.34143864756E+02  0.16093735364E+02 -0.48221212321E+03  0.48368827109E+03  0.10000000000E+01 0.  0.
         21    1    1    2  502  501  0.18660695393E+02 -0.28405990668E+02 -0.25231262478E+03  0.25459140300E+03  0.00000000000E+00 0.  1.
<mgrwt>
<rscale>  1 0.12953980E+03</rscale>
<asrwt>0</asrwt>
<pdfrwt beam="2">  1        4 0.11524567E+00 0.12953980E+03</pdfrwt>
<pdfrwt beam="1">  1       -4 0.14774450E-02 0.12953980E+03</pdfrwt>
<totfact> 0.16211068E+03</totfact>
</mgrwt>
</event>
<event>
 6    4  0.5642870E-004  0.1284896E+03  0.7818608E-02  0.1229714E+00
         -4   -1    0    0    0  501 -0.00000000000E+00  0.00000000000E+00  0.14843649593E+03  0.14844192879E+03  0.12700000000E+01 0.  1.
          4   -1    0    0  502    0  0.00000000000E+00 -0.00000000000E+00 -0.42298263503E+02  0.42317325003E+02  0.12700000000E+01 0.  1.
         25    2    1    2    0    0  0.18804134886E+01 -0.29694239468E+02  0.90356729182E+02  0.15707929452E+03  0.12499712974E+03 0.  0.
    9000005    1    3    3    0    0  0.47702118743E+02  0.11347600522E+01 -0.38416294146E+01  0.47880454567E+02  0.10000000000E+01 0.  0.
    9000005    1    3    3    0    0 -0.45821705254E+02 -0.30828999520E+02  0.94198358597E+02  0.10919883995E+03  0.10000000000E+01 0.  0.
         21    1    1    2  502  501 -0.18804134886E+01  0.29694239468E+02  0.15781503244E+02  0.33679959280E+02  0.00000000000E+00 0.  1.
<mgrwt>
<rscale>  1 0.12848956E+03</rscale>
<asrwt>0</asrwt>
<pdfrwt beam="2">  1        4 0.65093093E-02 0.12848956E+03</pdfrwt>
<pdfrwt beam="1">  1       -4 0.22838268E-01 0.12848956E+03</pdfrwt>
<totfact> 0.44371797E+03</totfact>
</mgrwt>
</event>
<event>
 6    4  0.5642870E-004  0.1313388E+03  0.7818608E-02  0.1225483E+00
         -4   -1    0    0    0  501 -0.00000000000E+00  0.00000000000E+00  0.11630176067E+03  0.11630869458E+03  0.12700000000E+01 0. -1.
          4   -1    0    0  502    0  0.00000000000E+00 -0.00000000000E+00 -0.67205831900E+02  0.67217830532E+02  0.12700000000E+01 0. -1.
         25    2    1    2    0    0  0.24733117889E+02 -0.31829253250E+02  0.17894007297E+02  0.13255213559E+03  0.12500017868E+03 0.  0.
    9000005    1    3    3    0    0 -0.72103118613E+01 -0.82560971497E-01 -0.50299396261E+02  0.50823465817E+02  0.10000000000E+01 0.  0.
    9000005    1    3    3    0    0  0.31943429750E+02 -0.31746692278E+02  0.68193403558E+02  0.81728669777E+02  0.10000000000E+01 0.  0.
         21    1    1    2  502  501 -0.24733117889E+02  0.31829253250E+02  0.31201921470E+02  0.50974389514E+02  0.00000000000E+00 0. -1.
<mgrwt>
<rscale>  1 0.13133877E+03</rscale>
<asrwt>0</asrwt>
<pdfrwt beam="2">  1        4 0.10340815E-01 0.13133877E+03</pdfrwt>
<pdfrwt beam="1">  1       -4 0.17894035E-01 0.13133877E+03</pdfrwt>
<totfact> 0.32112682E+03</totfact>
</mgrwt>
</event>
<event>
 6    4  0.5642870E-004  0.1390016E+03  0.7818608E-02  0.1214679E+00
          4   -1    0    0  502    0  0.00000000000E+00  0.00000000000E+00  0.25902266213E+02  0.25933381865E+02  0.12700000000E+01 0.  1.
         -4   -1    0    0    0  501 -0.00000000000E+00 -0.00000000000E+00 -0.72962133233E+03  0.72962243763E+03  0.12700000000E+01 0.  1.
         25    2    1    2    0    0  0.29105742973E+01 -0.60759829577E+02 -0.67338604261E+03  0.68758287894E+03  0.12498489785E+03 0.  0.
    9000005    1    3    3    0    0 -0.30304123993E+02 -0.72291758752E+02 -0.23381413485E+03  0.24660593661E+03  0.10000000000E+01 0.  0.
    9000005    1    3    3    0    0  0.33214698291E+02  0.11531929176E+02 -0.43957190777E+03  0.44097694233E+03  0.10000000000E+01 0.  0.
         21    1    1    2  502  501 -0.29105742973E+01  0.60759829577E+02 -0.30333023506E+02  0.67972940557E+02  0.00000000000E+00 0.  1.
<mgrwt>
<rscale>  1 0.13900163E+03</rscale>
<asrwt>0</asrwt>
<pdfrwt beam="1">  1        4 0.39874431E-02 0.13900163E+03</pdfrwt>
<pdfrwt beam="2">  1       -4 0.11225190E+00 0.13900163E+03</pdfrwt>
<totfact> 0.37440392E+02</totfact>
</mgrwt>
</event>
<event>
 6    4  0.5642870E-004  0.1295556E+03  0.7818608E-02  0.1228117E+00
          4   -1    0    0  502    0  0.00000000000E+00  0.00000000000E+00  0.11029395844E+03  0.11030127002E+03  0.12700000000E+01 0. -1.
         -4   -1    0    0    0  501 -0.00000000000E+00 -0.00000000000E+00 -0.63828413138E+02  0.63841046543E+02  0.12700000000E+01 0. -1.
         25    2    1    2    0    0 -0.25823776942E+02 -0.22201184379E+02  0.20169507827E+02  0.13111625899E+03  0.12499961713E+03 0.  0.
    9000005    1    3    3    0    0 -0.31886203960E+02  0.32246935946E+02  0.50992326905E+02  0.68248166892E+02  0.10000000000E+01 0.  0.
    9000005    1    3    3    0    0  0.60624270186E+01 -0.54448120325E+02 -0.30822819078E+02  0.62868092100E+02  0.10000000000E+01 0.  0.
         21    1    1    2  502  501  0.25823776942E+02  0.22201184379E+02  0.26296037476E+02  0.43026057573E+02  0.00000000000E+00 0. -1.
<mgrwt>
<rscale>  1 0.12955564E+03</rscale>
<asrwt>0</asrwt>
<pdfrwt beam="1">  1        4 0.16969835E-01 0.12955564E+03</pdfrwt>
<pdfrwt beam="2">  1       -4 0.98212902E-02 0.12955564E+03</pdfrwt>
<totfact> 0.38346105E+03</totfact>
</mgrwt>
</event>
<event>
 6    4  0.5642870E-004  0.1300210E+03  0.7818608E-02  0.1227425E+00
          4   -1    0    0  502    0  0.00000000000E+00  0.00000000000E+00  0.10154465054E+03  0.10155259205E+03  0.12700000000E+01 0. -1.
         -4   -1    0    0    0  501 -0.00000000000E+00 -0.00000000000E+00 -0.73203880064E+02  0.73214895727E+02  0.12700000000E+01 0. -1.
         25    2    1    2    0    0  0.35374149547E+02 -0.55454243631E+01  0.41709208805E+02  0.13654710930E+03  0.12499349092E+03 0.  0.
    9000005    1    3    3    0    0  0.56959042165E+02  0.46544095184E+02  0.25719363136E+02  0.77930551910E+02  0.10000000000E+01 0.  0.
    9000005    1    3    3    0    0 -0.21584892618E+02 -0.52089519547E+02  0.15989845668E+02  0.58616557392E+02  0.10000000000E+01 0.  0.
         21    1    1    2  502  501 -0.35374149547E+02  0.55454243631E+01 -0.13368438333E+02  0.38220378478E+02  0.00000000000E+00 0. -1.
<mgrwt>
<rscale>  1 0.13002098E+03</rscale>
<asrwt>0</asrwt>
<pdfrwt beam="1">  1        4 0.15623712E-01 0.13002098E+03</pdfrwt>
<pdfrwt beam="2">  1       -4 0.11263594E-01 0.13002098E+03</pdfrwt>
<totfact> 0.35207788E+03</totfact>
</mgrwt>
</event>
<event>
 6    4  0.5642870E-004  0.1287538E+03  0.7818608E-02  0.1229317E+00
          4   -1    0    0  502    0  0.00000000000E+00  0.00000000000E+00  0.10598831656E+04  0.10598839265E+04  0.12700000000E+01 0. -1.
         -4   -1    0    0    0  501 -0.00000000000E+00 -0.00000000000E+00 -0.11274068064E+02  0.11345373979E+02  0.12700000000E+01 0. -1.
         25    2    1    2    0    0 -0.26570976657E+02 -0.15709507220E+02  0.36715148454E+03  0.38907295202E+03  0.12499897589E+03 0.  0.
    9000005    1    3    3    0    0  0.26334887608E+02  0.42502853697E+02  0.13625402621E+03  0.14514192550E+03  0.10000000000E+01 0.  0.
    9000005    1    3    3    0    0 -0.52905864265E+02 -0.58212360917E+02  0.23089745833E+03  0.24393102652E+03  0.10000000000E+01 0.  0.
         21    1    1    2  502  501  0.26570976657E+02  0.15709507220E+02  0.68145761302E+03  0.68215634847E+03  0.00000000000E+00 0. -1.
<mgrwt>
<rscale>  1 0.12875383E+03</rscale>
<asrwt>0</asrwt>
<pdfrwt beam="1">  1        4 0.16306454E+00 0.12875383E+03</pdfrwt>
<pdfrwt beam="2">  1       -4 0.17400151E-02 0.12875383E+03</pdfrwt>
<totfact> 0.53232795E+02</totfact>
</mgrwt>
</event>
<event>
 6    4  0.5642870E-004  0.1359242E+03  0.7818608E-02  0.1218921E+00
         -4   -1    0    0    0  501 -0.00000000000E+00  0.00000000000E+00  0.46479462437E+02  0.46496809874E+02  0.12700000000E+01 0.  1.
          4   -1    0    0  502    0  0.00000000000E+00 -0.00000000000E+00 -0.26339903265E+03  0.26340209434E+03  0.12700000000E+01 0.  1.
         25    2    1    2    0    0 -0.12494619704E+02 -0.51903495774E+02 -0.68580212047E+02  0.15224531695E+03  0.12500121061E+03 0.  0.
    9000005    1    3    3    0    0 -0.30386560924E+01 -0.93029790700E+02 -0.53843748156E+02  0.10753568991E+03  0.10000000000E+01 0.  0.
    9000005    1    3    3    0    0 -0.94559636119E+01  0.41126294927E+02 -0.14736463892E+02  0.44709627042E+02  0.10000000000E+01 0.  0.
         21    1    1    2  502  501  0.12494619704E+02  0.51903495774E+02 -0.14833935817E+03  0.15765358726E+03  0.00000000000E+00 0.  1.
<mgrwt>
<rscale>  1 0.13592421E+03</rscale>
<asrwt>0</asrwt>
<pdfrwt beam="2">  1        4 0.40524497E-01 0.13592421E+03</pdfrwt>
<pdfrwt beam="1">  1       -4 0.71522566E-02 0.13592421E+03</pdfrwt>
<totfact> 0.13002083E+03</totfact>
</mgrwt>
</event>
<event>
 6    4  0.5642870E-004  0.1278444E+03  0.7818608E-02  0.1230690E+00
          4   -1    0    0  502    0  0.00000000000E+00  0.00000000000E+00  0.13227328645E+02  0.13288157249E+02  0.12700000000E+01 0.  1.
         -4   -1    0    0    0  501 -0.00000000000E+00 -0.00000000000E+00 -0.46459440571E+03  0.46459614153E+03  0.12700000000E+01 0.  1.
         25    2    1    2    0    0 -0.12758317135E+02 -0.23561359825E+02 -0.40023395735E+03  0.42015641760E+03  0.12500512910E+03 0.  0.
    9000005    1    3    3    0    0  0.49933123649E+01 -0.74066127859E+02 -0.22612704256E+03  0.23800244503E+03  0.10000000000E+01 0.  0.
    9000005    1    3    3    0    0 -0.17751629500E+02  0.50504768034E+02 -0.17410691479E+03  0.18215397256E+03  0.10000000000E+01 0.  0.
         21    1    1    2  502  501  0.12758317135E+02  0.23561359825E+02 -0.51133119722E+02  0.57727881179E+02  0.00000000000E+00 0.  1.
<mgrwt>
<rscale>  1 0.12784442E+03</rscale>
<asrwt>0</asrwt>
<pdfrwt beam="1">  1        4 0.20397866E-02 0.12784442E+03</pdfrwt>
<pdfrwt beam="2">  1       -4 0.71480862E-01 0.12784442E+03</pdfrwt>
<totfact> 0.29101141E+03</totfact>
</mgrwt>
</event>
<event>
 6    4  0.5642870E-004  0.1280934E+03  0.7818608E-02  0.1230312E+00
          4   -1    0    0  502    0  0.00000000000E+00  0.00000000000E+00  0.44714634697E+03  0.44714815052E+03  0.12700000000E+01 0.  1.
         -4   -1    0    0    0  501 -0.00000000000E+00 -0.00000000000E+00 -0.14184018823E+02  0.14240761566E+02  0.12700000000E+01 0.  1.
         25    2    1    2    0    0  0.10702338293E+01 -0.27964770754E+02  0.31281417698E+03  0.33802460592E+03  0.12499900435E+03 0.  0.
    9000005    1    3    3    0    0  0.47393068239E+02 -0.20965465072E+02  0.53426251032E+02  0.74438014093E+02  0.10000000000E+01 0.  0.
    9000005    1    3    3    0    0 -0.46322834410E+02 -0.69993056826E+01  0.25938792594E+03  0.26358659183E+03  0.10000000000E+01 0.  0.
         21    1    1    2  502  501 -0.10702338293E+01  0.27964770754E+02  0.12014815117E+03  0.12336430616E+03  0.00000000000E+00 0. -1.
<mgrwt>
<rscale>  1 0.12809342E+03</rscale>
<asrwt>0</asrwt>
<pdfrwt beam="1">  1        4 0.68796244E-01 0.12809342E+03</pdfrwt>
<pdfrwt beam="2">  1       -4 0.21866605E-02 0.12809342E+03</pdfrwt>
<totfact> 0.28404535E+03</totfact>
</mgrwt>
</event>
<event>
 6    4  0.5642870E-004  0.1284364E+03  0.7818608E-02  0.1229794E+00
          4   -1    0    0  502    0  0.00000000000E+00  0.00000000000E+00  0.25089578203E+03  0.25089899630E+03  0.12700000000E+01 0.  1.
         -4   -1    0    0    0  501 -0.00000000000E+00 -0.00000000000E+00 -0.25960924959E+02  0.25991970390E+02  0.12700000000E+01 0.  1.
         25    2    1    2    0    0 -0.17679345127E+02 -0.23636395806E+02  0.15714862630E+03  0.20295713456E+03  0.12499867707E+03 0.  0.
    9000005    1    3    3    0    0  0.53588582083E+02 -0.17253554980E+01  0.59620091484E+02  0.80188953665E+02  0.10000000000E+01 0.  0.
    9000005    1    3    3    0    0 -0.71267927210E+02 -0.21911040308E+02  0.97528534819E+02  0.12276818089E+03  0.10000000000E+01 0.  0.
         21    1    1    2  502  501  0.17679345127E+02  0.23636395806E+02  0.67786230771E+02  0.73933832127E+02  0.00000000000E+00 0. -1.
<mgrwt>
<rscale>  1 0.12843640E+03</rscale>
<asrwt>0</asrwt>
<pdfrwt beam="1">  1        4 0.38601985E-01 0.12843640E+03</pdfrwt>
<pdfrwt beam="2">  1       -4 0.39966240E-02 0.12843640E+03</pdfrwt>
<totfact> 0.36116297E+03</totfact>
</mgrwt>
</event>
<event>
 6    4  0.5642870E-004  0.1285554E+03  0.7818608E-02  0.1229615E+00
          4   -1    0    0  502    0  0.00000000000E+00  0.00000000000E+00  0.73598008298E+02  0.73608964980E+02  0.12700000000E+01 0.  1.
         -4   -1    0    0    0  501 -0.00000000000E+00 -0.00000000000E+00 -0.94019068575E+02  0.94027645699E+02  0.12700000000E+01 0.  1.
         25    2    1    2    0    0  0.30000025676E+02  0.18414641835E+00 -0.36449299120E+02  0.13362279156E+03  0.12500585414E+03 0.  0.
    9000005    1    3    3    0    0  0.17024183316E+02  0.44804188668E+02  0.26961812150E+02  0.55001613196E+02  0.10000000000E+01 0.  0.
    9000005    1    3    3    0    0  0.12975842360E+02 -0.44620042250E+02 -0.63411111269E+02  0.78621178366E+02  0.10000000000E+01 0.  0.
         21    1    1    2  502  501 -0.30000025676E+02 -0.18414641835E+00  0.16028238843E+02  0.34013819116E+02  0.00000000000E+00 0.  1.
<mgrwt>
<rscale>  1 0.12855543E+03</rscale>
<asrwt>0</asrwt>
<pdfrwt beam="1">  1        4 0.11324273E-01 0.12855543E+03</pdfrwt>
<pdfrwt beam="2">  1       -4 0.14465975E-01 0.12855543E+03</pdfrwt>
<totfact> 0.39792204E+03</totfact>
</mgrwt>
</event>
<event>
 6    4  0.5642870E-004  0.1292857E+03  0.7818608E-02  0.1228520E+00
         -4   -1    0    0    0  501 -0.00000000000E+00  0.00000000000E+00  0.32962879150E+03  0.32963123803E+03  0.12700000000E+01 0.  1.
          4   -1    0    0  502    0  0.00000000000E+00 -0.00000000000E+00 -0.20745173727E+02  0.20784011474E+02  0.12700000000E+01 0.  1.
         25    2    1    2    0    0  0.29590048888E+02  0.14626182995E+02  0.27038038663E+03  0.29970040916E+03  0.12500114222E+03 0.  0.
    9000005    1    3    3    0    0  0.84566100764E+01  0.52888492965E+02  0.44541452341E+02  0.69668126993E+02  0.10000000000E+01 0.  0.
    9000005    1    3    3    0    0  0.21133438812E+02 -0.38262309970E+02  0.22583893429E+03  0.23003228217E+03  0.10000000000E+01 0.  0.
         21    1    1    2  502  501 -0.29590048888E+02 -0.14626182995E+02  0.38503231145E+02  0.50714840341E+02  0.00000000000E+00 0.  1.
<mgrwt>
<rscale>  1 0.12928566E+03</rscale>
<asrwt>0</asrwt>
<pdfrwt beam="2">  1        4 0.31947409E-02 0.12928566E+03</pdfrwt>
<pdfrwt beam="1">  1       -4 0.50715298E-01 0.12928566E+03</pdfrwt>
<totfact> 0.29868448E+03</totfact>
</mgrwt>
</event>
<event>
 6    4  0.5642870E-004  0.1698696E+03  0.7818608E-02  0.1177984E+00
          4   -1    0    0  502    0  0.00000000000E+00  0.00000000000E+00  0.33725284674E+03  0.33725523796E+03  0.12700000000E+01 0.  1.
         -4   -1    0    0    0  501 -0.00000000000E+00 -0.00000000000E+00 -0.61251859962E+02  0.61265024678E+02  0.12700000000E+01 0.  1.
         25    2    1    2    0    0  0.21232844109E+02 -0.11304728790E+03  0.19024601410E+03  0.25504748366E+03  0.12500060027E+03 0.  0.
    9000005    1    3    3    0    0  0.31471037231E+02 -0.12539779801E+03  0.10018574134E+03  0.16356410578E+03  0.10000000000E+01 0.  0.
    9000005    1    3    3    0    0 -0.10238193121E+02  0.12350510111E+02  0.90060272760E+02  0.91483377878E+02  0.10000000000E+01 0.  0.
         21    1    1    2  502  501 -0.21232844109E+02  0.11304728790E+03  0.85754972676E+02  0.14347277898E+03  0.00000000000E+00 0.  1.
<mgrwt>
<rscale>  1 0.16986958E+03</rscale>
<asrwt>0</asrwt>
<pdfrwt beam="1">  1        4 0.51886250E-01 0.16986958E+03</pdfrwt>
<pdfrwt beam="2">  1       -4 0.94245597E-02 0.16986958E+03</pdfrwt>
<totfact> 0.52170239E+02</totfact>
</mgrwt>
</event>
<event>
 6    4  0.5642870E-004  0.1280820E+03  0.7818608E-02  0.1230330E+00
          4   -1    0    0  502    0  0.00000000000E+00  0.00000000000E+00  0.87387804347E+01  0.88305822846E+01  0.12700000000E+01 0.  1.
         -4   -1    0    0    0  501 -0.00000000000E+00 -0.00000000000E+00 -0.69504795881E+03  0.69504911909E+03  0.12700000000E+01 0.  1.
         25    2    1    2    0    0 -0.17630520467E+02  0.21657102651E+02 -0.57886600091E+03  0.59286663129E+03  0.12500052052E+03 0.  0.
    9000005    1    3    3    0    0  0.23498127902E+02  0.45778643014E+02 -0.10848647132E+03  0.12007564545E+03  0.10000000000E+01 0.  0.
    9000005    1    3    3    0    0 -0.41128648369E+02 -0.24121540363E+02 -0.47037952959E+03  0.47279098583E+03  0.10000000000E+01 0.  0.
         21    1    1    2  502  501  0.17630520467E+02 -0.21657102651E+02 -0.10744317746E+03  0.11101307009E+03  0.00000000000E+00 0.  1.
<mgrwt>
<rscale>  1 0.12808199E+03</rscale>
<asrwt>0</asrwt>
<pdfrwt beam="1">  1        4 0.13515792E-02 0.12808199E+03</pdfrwt>
<pdfrwt beam="2">  1       -4 0.10693756E+00 0.12808199E+03</pdfrwt>
<totfact> 0.22082692E+03</totfact>
</mgrwt>
</event>
<event>
 6    4  0.5642870E-004  0.1273274E+03  0.7818608E-02  0.1231476E+00
          4   -1    0    0  502    0  0.00000000000E+00  0.00000000000E+00  0.42482958082E+02  0.42501936749E+02  0.12700000000E+01 0.  1.
         -4   -1    0    0    0  501 -0.00000000000E+00 -0.00000000000E+00 -0.17240318605E+03  0.17240786369E+03  0.12700000000E+01 0.  1.
         25    2    1    2    0    0  0.11037428541E+02  0.21574289133E+02 -0.13948153997E+03  0.18885805448E+03  0.12499995988E+03 0.  0.
    9000005    1    3    3    0    0 -0.34927072608E+01 -0.52092532366E+02 -0.58665297056E+02  0.78539467855E+02  0.10000000000E+01 0.  0.
    9000005    1    3    3    0    0  0.14530135801E+02  0.73666821499E+02 -0.80816242915E+02  0.11031858663E+03  0.10000000000E+01 0.  0.
         21    1    1    2  502  501 -0.11037428541E+02 -0.21574289133E+02  0.95613119976E+01  0.26051745959E+02  0.00000000000E+00 0.  1.
<mgrwt>
<rscale>  1 0.12732739E+03</rscale>
<asrwt>0</asrwt>
<pdfrwt beam="1">  1        4 0.65376595E-02 0.12732739E+03</pdfrwt>
<pdfrwt beam="2">  1       -4 0.26525386E-01 0.12732739E+03</pdfrwt>
<totfact> 0.33375514E+03</totfact>
</mgrwt>
</event>
<event>
 6    4  0.5642870E-004  0.1421886E+03  0.7818608E-02  0.1210414E+00
         -4   -1    0    0    0  501 -0.00000000000E+00  0.00000000000E+00  0.16872016725E+03  0.16872494699E+03  0.12700000000E+01 0.  1.
          4   -1    0    0  502    0  0.00000000000E+00 -0.00000000000E+00 -0.65661781431E+02  0.65674062161E+02  0.12700000000E+01 0.  1.
         25    2    1    2    0    0 -0.54837067021E+02 -0.39812420267E+02  0.77783969111E+02  0.16207384848E+03  0.12500181512E+03 0.  0.
    9000005    1    3    3    0    0 -0.69585821502E+02 -0.75856871091E+02  0.51765856006E+02  0.11522653902E+03  0.10000000000E+01 0.  0.
    9000005    1    3    3    0    0  0.14748754481E+02  0.36044450824E+02  0.26018113105E+02  0.46847309459E+02  0.10000000000E+01 0.  0.
         21    1    1    2  502  501  0.54837067021E+02  0.39812420267E+02  0.25274416710E+02  0.72325160677E+02  0.00000000000E+00 0.  1.
<mgrwt>
<rscale>  1 0.14218856E+03</rscale>
<asrwt>0</asrwt>
<pdfrwt beam="2">  1        4 0.10103125E-01 0.14218856E+03</pdfrwt>
<pdfrwt beam="1">  1       -4 0.25958261E-01 0.14218856E+03</pdfrwt>
<totfact> 0.17307011E+03</totfact>
</mgrwt>
</event>
<event>
 6    4  0.5642870E-004  0.1308727E+03  0.7818608E-02  0.1226167E+00
         -4   -1    0    0    0  501 -0.00000000000E+00  0.00000000000E+00  0.26267505333E+03  0.26267812346E+03  0.12700000000E+01 0.  1.
          4   -1    0    0  502    0  0.00000000000E+00 -0.00000000000E+00 -0.32893861754E+02  0.32918369357E+02  0.12700000000E+01 0.  1.
         25    2    1    2    0    0 -0.24988238938E+02 -0.29481141707E+02  0.21958576005E+03  0.25562779724E+03  0.12503645430E+03 0.  0.
    9000005    1    3    3    0    0  0.49941111956E+02 -0.18701497636E+02  0.11226323274E+03  0.12428955750E+03  0.10000000000E+01 0.  0.
    9000005    1    3    3    0    0 -0.74929350894E+02 -0.10779644072E+02  0.10732252731E+03  0.13133823975E+03  0.10000000000E+01 0.  0.
         21    1    1    2  502  501  0.24988238938E+02  0.29481141707E+02  0.10195431527E+02  0.39968695571E+02  0.00000000000E+00 0.  1.
<mgrwt>
<rscale>  1 0.13087270E+03</rscale>
<asrwt>0</asrwt>
<pdfrwt beam="2">  1        4 0.50627154E-02 0.13087270E+03</pdfrwt>
<pdfrwt beam="1">  1       -4 0.40413669E-01 0.13087270E+03</pdfrwt>
<totfact> 0.22729849E+03</totfact>
</mgrwt>
</event>
<event>
 6    4  0.5642870E-004  0.1311730E+03  0.7818608E-02  0.1225725E+00
         -4   -1    0    0    0  501 -0.00000000000E+00  0.00000000000E+00  0.14019445866E+03  0.14020021091E+03  0.12700000000E+01 0. -1.
          4   -1    0    0  502    0  0.00000000000E+00 -0.00000000000E+00 -0.52291190059E+02  0.52306610077E+02  0.12700000000E+01 0. -1.
         25    2    1    2    0    0  0.20000751516E+02 -0.34334157884E+02  0.62111628486E+02  0.14513517168E+03  0.12500999642E+03 0.  0.
    9000005    1    3    3    0    0 -0.19412125290E+02 -0.72557914665E+02  0.26349859224E+02  0.79603999082E+02  0.10000000000E+01 0.  0.
    9000005    1    3    3    0    0  0.39412876806E+02  0.38223756781E+02  0.35761769262E+02  0.65531172593E+02  0.10000000000E+01 0.  0.
         21    1    1    2  502  501 -0.20000751516E+02  0.34334157884E+02  0.25791640118E+02  0.47371649315E+02  0.00000000000E+00 0. -1.
<mgrwt>
<rscale>  1 0.13117303E+03</rscale>
<asrwt>0</asrwt>
<pdfrwt beam="2">  1        4 0.80464272E-02 0.13117303E+03</pdfrwt>
<pdfrwt beam="1">  1       -4 0.21570007E-01 0.13117303E+03</pdfrwt>
<totfact> 0.34922357E+03</totfact>
</mgrwt>
</event>
<event>
 6    4  0.5642870E-004  0.1286406E+03  0.7818608E-02  0.1229487E+00
         -4   -1    0    0    0  501 -0.00000000000E+00  0.00000000000E+00  0.53269439256E+03  0.53269590647E+03  0.12700000000E+01 0. -1.
          4   -1    0    0  502    0  0.00000000000E+00 -0.00000000000E+00 -0.18070822167E+02  0.18115394387E+02  0.12700000000E+01 0. -1.
         25    2    1    2    0    0  0.29125082771E+02 -0.86899330751E+01  0.50144595941E+03  0.51768374715E+03  0.12499850587E+03 0.  0.
    9000005    1    3    3    0    0  0.17752956277E+02 -0.41673396196E+02  0.61668905736E+02  0.76523808986E+02  0.10000000000E+01 0.  0.
    9000005    1    3    3    0    0  0.11372126495E+02  0.32983463121E+02  0.43977705368E+03  0.44115993816E+03  0.10000000000E+01 0.  0.
         21    1    1    2  502  501 -0.29125082771E+02  0.86899330751E+01  0.13177610985E+02  0.33127553706E+02  0.00000000000E+00 0. -1.
<mgrwt>
<rscale>  1 0.12864063E+03</rscale>
<asrwt>0</asrwt>
<pdfrwt beam="2">  1        4 0.27836719E-02 0.12864063E+03</pdfrwt>
<pdfrwt beam="1">  1       -4 0.81956518E-01 0.12864063E+03</pdfrwt>
<totfact> 0.13342160E+03</totfact>
</mgrwt>
</event>
<event>
 6    4  0.5642870E-004  0.1303140E+03  0.7818608E-02  0.1226991E+00
         -4   -1    0    0    0  501 -0.00000000000E+00  0.00000000000E+00  0.83251403531E+02  0.83261089892E+02  0.12700000000E+01 0. -1.
          4   -1    0    0  502    0  0.00000000000E+00 -0.00000000000E+00 -0.89361236801E+02  0.89370260952E+02  0.12700000000E+01 0. -1.
         25    2    1    2    0    0 -0.14882827748E+02 -0.33692137237E+02  0.13311139569E+02  0.13099203217E+03  0.12500026953E+03 0.  0.
    9000005    1    3    3    0    0  0.29044037722E+02 -0.14730266659E+02  0.57348915693E+02  0.65957827543E+02  0.10000000000E+01 0.  0.
    9000005    1    3    3    0    0 -0.43926865471E+02 -0.18961870578E+02 -0.44037776124E+02  0.65034204630E+02  0.10000000000E+01 0.  0.
         21    1    1    2  502  501  0.14882827748E+02  0.33692137237E+02 -0.19420972838E+02  0.41639318671E+02  0.00000000000E+00 0. -1.
<mgrwt>
<rscale>  1 0.13031395E+03</rscale>
<asrwt>0</asrwt>
<pdfrwt beam="2">  1        4 0.13749322E-01 0.13031395E+03</pdfrwt>
<pdfrwt beam="1">  1       -4 0.12809347E-01 0.13031395E+03</pdfrwt>
<totfact> 0.35321479E+03</totfact>
</mgrwt>
</event>
<event>
 6    4  0.5642870E-004  0.1336313E+03  0.7818608E-02  0.1222165E+00
         -4   -1    0    0    0  501 -0.00000000000E+00  0.00000000000E+00  0.13066281899E+04  0.13066288071E+04  0.12700000000E+01 0. -1.
          4   -1    0    0  502    0  0.00000000000E+00 -0.00000000000E+00 -0.15450004617E+02  0.15502114135E+02  0.12700000000E+01 0. -1.
         25    2    1    2    0    0 -0.46468315801E+02 -0.84680936234E+01  0.12563708247E+04  0.12634575428E+04  0.12500520156E+03 0.  0.
    9000005    1    3    3    0    0  0.38902203634E+02  0.18126756402E+02  0.32997650325E+03  0.33275734920E+03  0.10000000000E+01 0.  0.
    9000005    1    3    3    0    0 -0.85370519435E+02 -0.26594850025E+02  0.92639432142E+03  0.93070019362E+03  0.10000000000E+01 0.  0.
         21    1    1    2  502  501  0.46468315801E+02  0.84680936234E+01  0.34807360614E+02  0.58673378426E+02  0.00000000000E+00 0. -1.
<mgrwt>
<rscale>  1 0.13363126E+03</rscale>
<asrwt>0</asrwt>
<pdfrwt beam="2">  1        4 0.23809800E-02 0.13363126E+03</pdfrwt>
<pdfrwt beam="1">  1       -4 0.20102375E+00 0.13363126E+03</pdfrwt>
<totfact> 0.18663298E+02</totfact>
</mgrwt>
</event>
<event>
 6    4  0.5642870E-004  0.1269766E+03  0.7818608E-02  0.1232012E+00
          4   -1    0    0  502    0  0.00000000000E+00  0.00000000000E+00  0.49840085664E+03  0.49840247472E+03  0.12700000000E+01 0.  1.
         -4   -1    0    0    0  501 -0.00000000000E+00 -0.00000000000E+00 -0.11209045743E+02  0.11280762672E+02  0.12700000000E+01 0.  1.
         25    2    1    2    0    0 -0.16442443883E+02  0.15086637016E+02  0.39931075829E+03  0.41901328655E+03  0.12500036816E+03 0.  0.
    9000005    1    3    3    0    0  0.11632303939E+02 -0.50755062764E+02  0.12281601630E+03  0.13340225168E+03  0.10000000000E+01 0.  0.
    9000005    1    3    3    0    0 -0.28074747822E+02  0.65841699781E+02  0.27649474199E+03  0.28561103488E+03  0.10000000000E+01 0.  0.
         21    1    1    2  502  501  0.16442443883E+02 -0.15086637016E+02  0.87881052606E+02  0.90669950835E+02  0.00000000000E+00 0.  1.
<mgrwt>
<rscale>  1 0.12697658E+03</rscale>
<asrwt>0</asrwt>
<pdfrwt beam="1">  1        4 0.76682691E-01 0.12697658E+03</pdfrwt>
<pdfrwt beam="2">  1       -4 0.17301098E-02 0.12697658E+03</pdfrwt>
<totfact> 0.32103466E+03</totfact>
</mgrwt>
</event>
<event>
 6    4  0.5642870E-004  0.1287266E+03  0.7818608E-02  0.1229357E+00
         -4   -1    0    0    0  501 -0.00000000000E+00  0.00000000000E+00  0.22173053273E+03  0.22173416977E+03  0.12700000000E+01 0.  1.
          4   -1    0    0  502    0  0.00000000000E+00 -0.00000000000E+00 -0.36665757716E+02  0.36687745759E+02  0.12700000000E+01 0.  1.
         25    2    1    2    0    0 -0.19941715741E+02  0.23411323033E+02  0.18765138829E+03  0.22756008407E+03  0.12499914505E+03 0.  0.
    9000005    1    3    3    0    0  0.26446042451E+02 -0.14585610726E+02 -0.35511811296E+00  0.30220180516E+02  0.10000000000E+01 0.  0.
    9000005    1    3    3    0    0 -0.46387758192E+02  0.37996933759E+02  0.18800650640E+03  0.19733990356E+03  0.10000000000E+01 0.  0.
         21    1    1    2  502  501  0.19941715741E+02 -0.23411323033E+02 -0.25866132760E+01  0.30861831461E+02  0.00000000000E+00 0.  1.
<mgrwt>
<rscale>  1 0.12872664E+03</rscale>
<asrwt>0</asrwt>
<pdfrwt beam="2">  1        4 0.56428571E-02 0.12872664E+03</pdfrwt>
<pdfrwt beam="1">  1       -4 0.34114360E-01 0.12872664E+03</pdfrwt>
<totfact> 0.26426704E+03</totfact>
</mgrwt>
</event>
<event>
 6    4  0.5642870E-004  0.1266579E+03  0.7818608E-02  0.1232501E+00
          4   -1    0    0  502    0  0.00000000000E+00  0.00000000000E+00  0.98231902882E+02  0.98240112193E+02  0.12700000000E+01 0. -1.
         -4   -1    0    0    0  501 -0.00000000000E+00 -0.00000000000E+00 -0.65485123121E+02  0.65497436974E+02  0.12700000000E+01 0. -1.
         25    2    1    2    0    0 -0.30417677571E+01 -0.20185074176E+02  0.18072823824E+01  0.12667082462E+03  0.12500216786E+03 0.  0.
    9000005    1    3    3    0    0  0.30204013608E+02 -0.57134355192E+02  0.28045870873E+02  0.70456992941E+02  0.10000000000E+01 0.  0.
    9000005    1    3    3    0    0 -0.33245781365E+02  0.36949281016E+02 -0.26238588491E+02  0.56213831681E+02  0.10000000000E+01 0.  0.
         21    1    1    2  502  501  0.30417677571E+01  0.20185074176E+02  0.30939497378E+02  0.37066724546E+02  0.00000000000E+00 0. -1.
<mgrwt>
<rscale>  1 0.12665793E+03</rscale>
<asrwt>0</asrwt>
<pdfrwt beam="1">  1        4 0.15114179E-01 0.12665793E+03</pdfrwt>
<pdfrwt beam="2">  1       -4 0.10076213E-01 0.12665793E+03</pdfrwt>
<totfact> 0.44754084E+03</totfact>
</mgrwt>
</event>
<event>
 6    4  0.5642870E-004  0.1421708E+03  0.7818608E-02  0.1210438E+00
          4   -1    0    0  502    0  0.00000000000E+00  0.00000000000E+00  0.99011627652E+02  0.99019772320E+02  0.12700000000E+01 0.  1.
         -4   -1    0    0    0  501 -0.00000000000E+00 -0.00000000000E+00 -0.14827231908E+03  0.14827775796E+03  0.12700000000E+01 0.  1.
         25    2    1    2    0    0  0.50661360743E+02 -0.44964249161E+02 -0.89990159149E+02  0.16825800399E+03  0.12499667990E+03 0.  0.
    9000005    1    3    3    0    0  0.24391126636E+02 -0.46808001656E+02 -0.11832163766E+03  0.12956437017E+03  0.10000000000E+01 0.  0.
    9000005    1    3    3    0    0  0.26270234107E+02  0.18437524948E+01  0.28331478515E+02  0.38693633819E+02  0.10000000000E+01 0.  0.
         21    1    1    2  502  501 -0.50661360743E+02  0.44964249161E+02  0.40729467724E+02  0.79039526289E+02  0.00000000000E+00 0.  1.
<mgrwt>
<rscale>  1 0.14217077E+03</rscale>
<asrwt>0</asrwt>
<pdfrwt beam="1">  1        4 0.15233603E-01 0.14217077E+03</pdfrwt>
<pdfrwt beam="2">  1       -4 0.22812171E-01 0.14217077E+03</pdfrwt>
<totfact> 0.10843860E+03</totfact>
</mgrwt>
</event>
<event>
 6    4  0.5642870E-004  0.1303024E+03  0.7818608E-02  0.1227008E+00
         -4   -1    0    0    0  501 -0.00000000000E+00  0.00000000000E+00  0.44969197480E+01  0.46728136299E+01  0.12700000000E+01 0. -1.
          4   -1    0    0  502    0  0.00000000000E+00 -0.00000000000E+00 -0.15736283690E+04  0.15736288814E+04  0.12700000000E+01 0. -1.
         25    2    1    2    0    0 -0.26792955130E+02 -0.25235499110E+02 -0.13280163134E+04  0.13343935124E+04  0.12499609750E+03 0.  0.
    9000005    1    3    3    0    0 -0.13968797449E+02  0.45177048888E+02 -0.81956736529E+03  0.82093103199E+03  0.10000000000E+01 0.  0.
    9000005    1    3    3    0    0 -0.12824157680E+02 -0.70412547998E+02 -0.50844894814E+03  0.51346248043E+03  0.10000000000E+01 0.  0.
         21    1    1    2  502  501  0.26792955130E+02  0.25235499110E+02 -0.24111513578E+03  0.24390818265E+03  0.00000000000E+00 0. -1.
<mgrwt>
<rscale>  1 0.13030241E+03</rscale>
<asrwt>0</asrwt>
<pdfrwt beam="2">  1        4 0.24210981E+00 0.13030241E+03</pdfrwt>
<pdfrwt beam="1">  1       -4 0.70540478E-03 0.13030241E+03</pdfrwt>
<totfact> 0.67034097E+02</totfact>
</mgrwt>
</event>
<event>
 6    4  0.5642870E-004  0.1315070E+03  0.7818608E-02  0.1225237E+00
         -4   -1    0    0    0  501 -0.00000000000E+00  0.00000000000E+00  0.79450159244E+02  0.79460308984E+02  0.12700000000E+01 0. -1.
          4   -1    0    0  502    0  0.00000000000E+00 -0.00000000000E+00 -0.98372607295E+02  0.98380804865E+02  0.12700000000E+01 0. -1.
         25    2    1    2    0    0  0.36169100621E+02 -0.18988216214E+02 -0.31254191070E+02  0.13516995168E+03  0.12500134073E+03 0.  0.
    9000005    1    3    3    0    0  0.58290365880E+02  0.32307676526E+02 -0.41288379456E+02  0.78404610802E+02  0.10000000000E+01 0.  0.
    9000005    1    3    3    0    0 -0.22121265258E+02 -0.51295892741E+02  0.10034188387E+02  0.56765340880E+02  0.10000000000E+01 0.  0.
         21    1    1    2  502  501 -0.36169100621E+02  0.18988216214E+02  0.12331743019E+02  0.42671162167E+02  0.00000000000E+00 0.  1.
<mgrwt>
<rscale>  1 0.13150700E+03</rscale>
<asrwt>0</asrwt>
<pdfrwt beam="2">  1        4 0.15135659E-01 0.13150700E+03</pdfrwt>
<pdfrwt beam="1">  1       -4 0.12224513E-01 0.13150700E+03</pdfrwt>
<totfact> 0.32455859E+03</totfact>
</mgrwt>
</event>
<event>
 6    4  0.5642870E-004  0.1973918E+03  0.7818608E-02  0.1151958E+00
          4   -1    0    0  502    0  0.00000000000E+00  0.00000000000E+00  0.43039199670E+03  0.43039387045E+03  0.12700000000E+01 0.  1.
         -4   -1    0    0    0  501 -0.00000000000E+00 -0.00000000000E+00 -0.77774122923E+02  0.77784491362E+02  0.12700000000E+01 0.  1.
         25    2    1    2    0    0  0.40103718459E+02  0.14741215095E+03  0.12364458688E+03  0.23291954434E+03  0.12499951916E+03 0.  0.
    9000005    1    3    3    0    0  0.55831510400E+02  0.38399310371E+02  0.99125868227E+02  0.12007748474E+03  0.10000000000E+01 0.  0.
    9000005    1    3    3    0    0 -0.15727791941E+02  0.10901284058E+03  0.24518718652E+02  0.11284205960E+03  0.10000000000E+01 0.  0.
         21    1    1    2  502  501 -0.40103718459E+02 -0.14741215095E+03  0.22897328690E+03  0.27525881747E+03  0.00000000000E+00 0.  1.
<mgrwt>
<rscale>  1 0.19739182E+03</rscale>
<asrwt>0</asrwt>
<pdfrwt beam="1">  1        4 0.66215095E-01 0.19739182E+03</pdfrwt>
<pdfrwt beam="2">  1       -4 0.11966191E-01 0.19739182E+03</pdfrwt>
<totfact> 0.21310666E+02</totfact>
</mgrwt>
</event>
<event>
 6    4  0.5642870E-004  0.1302156E+03  0.7818608E-02  0.1227136E+00
          4   -1    0    0  502    0  0.00000000000E+00  0.00000000000E+00  0.49178052437E+02  0.49194448279E+02  0.12700000000E+01 0. -1.
         -4   -1    0    0    0  501 -0.00000000000E+00 -0.00000000000E+00 -0.18363756495E+03  0.18364195642E+03  0.12700000000E+01 0. -1.
         25    2    1    2    0    0  0.32302297598E+02 -0.16979451907E+02 -0.14496497880E+03  0.19486134658E+03  0.12499743636E+03 0.  0.
    9000005    1    3    3    0    0  0.21559965137E+02 -0.13763048811E+02 -0.16761997302E+03  0.16956328897E+03  0.10000000000E+01 0.  0.
    9000005    1    3    3    0    0  0.10742332461E+02 -0.32164030955E+01  0.22654994228E+02  0.25298057614E+02  0.10000000000E+01 0.  0.
         21    1    1    2  502  501 -0.32302297598E+02  0.16979451907E+02  0.10505466289E+02  0.37975058119E+02  0.00000000000E+00 0. -1.
<mgrwt>
<rscale>  1 0.13021559E+03</rscale>
<asrwt>0</asrwt>
<pdfrwt beam="1">  1        4 0.75674534E-02 0.13021559E+03</pdfrwt>
<pdfrwt beam="2">  1       -4 0.28253532E-01 0.13021559E+03</pdfrwt>
<totfact> 0.23465233E+03</totfact>
</mgrwt>
</event>
<event>
 6    4  0.5642870E-004  0.1269097E+03  0.7818608E-02  0.1232115E+00
         -4   -1    0    0    0  501 -0.00000000000E+00  0.00000000000E+00  0.93892525155E+02  0.93901113837E+02  0.12700000000E+01 0. -1.
          4   -1    0    0  502    0  0.00000000000E+00 -0.00000000000E+00 -0.85909634975E+02  0.85919021651E+02  0.12700000000E+01 0. -1.
         25    2    1    2    0    0 -0.21927947010E+02  0.62179884781E+00  0.46774805892E+02  0.13525519166E+03  0.12499945164E+03 0.  0.
    9000005    1    3    3    0    0 -0.38295782758E+01 -0.53565349901E+02 -0.10080577998E+02  0.54649157656E+02  0.10000000000E+01 0.  0.
    9000005    1    3    3    0    0 -0.18098368734E+02  0.54187148749E+02  0.56855383890E+02  0.80606034003E+02  0.10000000000E+01 0.  0.
         21    1    1    2  502  501  0.21927947010E+02 -0.62179884781E+00 -0.38791915712E+02  0.44564943829E+02  0.00000000000E+00 0. -1.
<mgrwt>
<rscale>  1 0.12690975E+03</rscale>
<asrwt>0</asrwt>
<pdfrwt beam="2">  1        4 0.13218250E-01 0.12690975E+03</pdfrwt>
<pdfrwt beam="1">  1       -4 0.14446386E-01 0.12690975E+03</pdfrwt>
<totfact> 0.30515460E+03</totfact>
</mgrwt>
</event>
<event>
 6    4  0.5642870E-004  0.1707283E+03  0.7818608E-02  0.1177090E+00
          4   -1    0    0  502    0  0.00000000000E+00  0.00000000000E+00  0.23712162338E+03  0.23712502435E+03  0.12700000000E+01 0.  1.
         -4   -1    0    0    0  501 -0.00000000000E+00 -0.00000000000E+00 -0.16631947612E+03  0.16632432485E+03  0.12700000000E+01 0.  1.
         25    2    1    2    0    0 -0.10763637751E+03 -0.44042155042E+02 -0.99213366681E+02  0.19746251426E+03  0.12499140461E+03 0.  0.
    9000005    1    3    3    0    0 -0.59735543049E+02 -0.18917959388E+02  0.20628690439E+02  0.65975504242E+02  0.10000000000E+01 0.  0.
    9000005    1    3    3    0    0 -0.47900834464E+02 -0.25124195654E+02 -0.11984205712E+03  0.13148701002E+03  0.10000000000E+01 0.  0.
         21    1    1    2  502  501  0.10763637751E+03  0.44042155042E+02  0.17001551394E+03  0.20598683493E+03  0.00000000000E+00 0.  1.
<mgrwt>
<rscale>  1 0.17072830E+03</rscale>
<asrwt>0</asrwt>
<pdfrwt beam="1">  1        4 0.36480884E-01 0.17072830E+03</pdfrwt>
<pdfrwt beam="2">  1       -4 0.25588246E-01 0.17072830E+03</pdfrwt>
<totfact> 0.18152144E+02</totfact>
</mgrwt>
</event>
<event>
 6    4  0.5642870E-004  0.1276842E+03  0.7818608E-02  0.1230933E+00
         -4   -1    0    0    0  501 -0.00000000000E+00  0.00000000000E+00  0.28717933383E+02  0.28746001423E+02  0.12700000000E+01 0.  1.
          4   -1    0    0  502    0  0.00000000000E+00 -0.00000000000E+00 -0.24776385426E+03  0.24776710916E+03  0.12700000000E+01 0.  1.
         25    2    1    2    0    0  0.17309348238E+02 -0.19432513080E+02 -0.12406653874E+03  0.17803306624E+03  0.12500412209E+03 0.  0.
    9000005    1    3    3    0    0  0.70194455674E+02 -0.70576323653E+01 -0.88154822906E+02  0.11291299564E+03  0.10000000000E+01 0.  0.
    9000005    1    3    3    0    0 -0.52885107436E+02 -0.12374880715E+02 -0.35911715830E+02  0.65120070601E+02  0.10000000000E+01 0.  0.
         21    1    1    2  502  501 -0.17309348238E+02  0.19432513080E+02 -0.94979382146E+02  0.98480044343E+02  0.00000000000E+00 0.  1.
<mgrwt>
<rscale>  1 0.12768425E+03</rscale>
<asrwt>0</asrwt>
<pdfrwt beam="2">  1        4 0.38119924E-01 0.12768425E+03</pdfrwt>
<pdfrwt beam="1">  1       -4 0.44205532E-02 0.12768425E+03</pdfrwt>
<totfact> 0.31485035E+03</totfact>
</mgrwt>
</event>
<event>
 6    4  0.5642870E-004  0.1310935E+03  0.7818608E-02  0.1225842E+00
         -4   -1    0    0    0  501 -0.00000000000E+00  0.00000000000E+00  0.23703032185E+03  0.23703372413E+03  0.12700000000E+01 0. -1.
          4   -1    0    0  502    0  0.00000000000E+00 -0.00000000000E+00 -0.35871798606E+02  0.35894273014E+02  0.12700000000E+01 0. -1.
         25    2    1    2    0    0 -0.36979511124E+02 -0.13909995440E+02  0.19180882253E+03  0.23232763853E+03  0.12499814003E+03 0.  0.
    9000005    1    3    3    0    0 -0.16830307482E+02 -0.54447433466E+02  0.30218422295E+02  0.64513063072E+02  0.10000000000E+01 0.  0.
    9000005    1    3    3    0    0 -0.20149203642E+02  0.40537438027E+02  0.16159040023E+03  0.16781457546E+03  0.10000000000E+01 0.  0.
         21    1    1    2  502  501  0.36979511124E+02  0.13909995440E+02  0.93497007139E+01  0.40600358613E+02  0.00000000000E+00 0. -1.
<mgrwt>
<rscale>  1 0.13109351E+03</rscale>
<asrwt>0</asrwt>
<pdfrwt beam="2">  1        4 0.55207289E-02 0.13109351E+03</pdfrwt>
<pdfrwt beam="1">  1       -4 0.36468193E-01 0.13109351E+03</pdfrwt>
<totfact> 0.24173712E+03</totfact>
</mgrwt>
</event>
<event>
 6    4  0.5642870E-004  0.1287251E+03  0.7818608E-02  0.1229360E+00
         -4   -1    0    0    0  501 -0.00000000000E+00  0.00000000000E+00  0.15527252027E+03  0.15527771395E+03  0.12700000000E+01 0. -1.
          4   -1    0    0  502    0  0.00000000000E+00 -0.00000000000E+00 -0.40931974348E+02  0.40951671809E+02  0.12700000000E+01 0. -1.
         25    2    1    2    0    0  0.79214368331E+01 -0.29710195503E+02  0.92643176396E+02  0.15859667761E+03  0.12499881255E+03 0.  0.
    9000005    1    3    3    0    0 -0.16031086792E+02  0.89390088497E+01  0.10879210261E+03  0.11033414346E+03  0.10000000000E+01 0.  0.
    9000005    1    3    3    0    0  0.23952523625E+02 -0.38649204353E+02 -0.16148926213E+02  0.48262534154E+02  0.10000000000E+01 0.  0.
         21    1    1    2  502  501 -0.79214368331E+01  0.29710195503E+02  0.21697369527E+02  0.37632708150E+02  0.00000000000E+00 0.  1.
<mgrwt>
<rscale>  1 0.12872509E+03</rscale>
<asrwt>0</asrwt>
<pdfrwt beam="2">  1        4 0.62991414E-02 0.12872509E+03</pdfrwt>
<pdfrwt beam="1">  1       -4 0.23889995E-01 0.12872509E+03</pdfrwt>
<totfact> 0.43129849E+03</totfact>
</mgrwt>
</event>
<event>
 6    4  0.5642870E-004  0.2023938E+03  0.7818608E-02  0.1147735E+00
          4   -1    0    0  502    0  0.00000000000E+00  0.00000000000E+00  0.24398231072E+03  0.24398561606E+03  0.12700000000E+01 0.  1.
         -4   -1    0    0    0  501 -0.00000000000E+00 -0.00000000000E+00 -0.13409324844E+03  0.13409926241E+03  0.12700000000E+01 0.  1.
         25    2    1    2    0    0  0.15306199357E+03  0.43703792517E+02  0.55418781215E+02  0.20984395932E+03  0.12500100237E+03 0.  0.
    9000005    1    3    3    0    0  0.25825145411E+01 -0.13575525636E+02  0.46567954444E+02  0.48585374947E+02  0.10000000000E+01 0.  0.
    9000005    1    3    3    0    0  0.15047947903E+03  0.57279318153E+02  0.88508267711E+01  0.16125858437E+03  0.10000000000E+01 0.  0.
         21    1    1    2  502  501 -0.15306199357E+03 -0.43703792517E+02  0.54470281058E+02  0.16824091915E+03  0.00000000000E+00 0.  1.
<mgrwt>
<rscale>  1 0.20239379E+03</rscale>
<asrwt>0</asrwt>
<pdfrwt beam="1">  1        4 0.37536456E-01 0.20239379E+03</pdfrwt>
<pdfrwt beam="2">  1       -4 0.20630448E-01 0.20239379E+03</pdfrwt>
<totfact> 0.26195046E+02</totfact>
</mgrwt>
</event>
<event>
 6    4  0.5642870E-004  0.1333049E+03  0.7818608E-02  0.1222633E+00
          4   -1    0    0  502    0  0.00000000000E+00  0.00000000000E+00  0.91211927034E+03  0.91212015449E+03  0.12700000000E+01 0. -1.
         -4   -1    0    0    0  501 -0.00000000000E+00 -0.00000000000E+00 -0.10734956887E+02  0.10809819581E+02  0.12700000000E+01 0. -1.
         25    2    1    2    0    0 -0.22420438101E+02  0.40546133451E+02  0.45437569025E+03  0.47352662050E+03  0.12499410966E+03 0.  0.
    9000005    1    3    3    0    0 -0.34967001290E+02  0.81883453673E+02  0.27681478273E+03  0.29078345053E+03  0.10000000000E+01 0.  0.
    9000005    1    3    3    0    0  0.12546563188E+02 -0.41337320222E+02  0.17756090752E+03  0.18274316997E+03  0.10000000000E+01 0.  0.
         21    1    1    2  502  501  0.22420438101E+02 -0.40546133451E+02  0.44700862320E+03  0.44940335357E+03  0.00000000000E+00 0. -1.
<mgrwt>
<rscale>  1 0.13330489E+03</rscale>
<asrwt>0</asrwt>
<pdfrwt beam="1">  1        4 0.14033192E+00 0.13330489E+03</pdfrwt>
<pdfrwt beam="2">  1       -4 0.16573579E-02 0.13330489E+03</pdfrwt>
<totfact> 0.84731375E+02</totfact>
</mgrwt>
</event>
<event>
 6    4  0.5642870E-004  0.1343861E+03  0.7818608E-02  0.1221089E+00
          4   -1    0    0  502    0  0.00000000000E+00  0.00000000000E+00  0.14157567530E+03  0.14158137143E+03  0.12700000000E+01 0. -1.
         -4   -1    0    0    0  501 -0.00000000000E+00 -0.00000000000E+00 -0.60708624852E+02  0.60721907343E+02  0.12700000000E+01 0. -1.
         25    2    1    2    0    0 -0.44497874620E+02  0.21315690274E+02  0.46620989794E+02  0.14224320745E+03  0.12500077551E+03 0.  0.
    9000005    1    3    3    0    0 -0.47366809149E+02  0.62999915574E+02 -0.10651843371E+01  0.78833613319E+02  0.10000000000E+01 0.  0.
    9000005    1    3    3    0    0  0.28689345287E+01 -0.41684225300E+02  0.47686174131E+02  0.63409594127E+02  0.10000000000E+01 0.  0.
         21    1    1    2  502  501  0.44497874620E+02 -0.21315690274E+02  0.34246060649E+02  0.60060071325E+02  0.00000000000E+00 0.  1.
<mgrwt>
<rscale>  1 0.13438606E+03</rscale>
<asrwt>0</asrwt>
<pdfrwt beam="1">  1        4 0.21782333E-01 0.13438606E+03</pdfrwt>
<pdfrwt beam="2">  1       -4 0.93412484E-02 0.13438606E+03</pdfrwt>
<totfact> 0.26909762E+03</totfact>
</mgrwt>
</event>
<event>
 6    4  0.5642870E-004  0.1277399E+03  0.7818608E-02  0.1230848E+00
         -4   -1    0    0    0  501 -0.00000000000E+00  0.00000000000E+00  0.12203889916E+03  0.12204550712E+03  0.12700000000E+01 0. -1.
          4   -1    0    0  502    0  0.00000000000E+00 -0.00000000000E+00 -0.55126811542E+02  0.55141438599E+02  0.12700000000E+01 0. -1.
         25    2    1    2    0    0 -0.25990341455E+02  0.42402588550E+01  0.76809751831E+02  0.14905437738E+03  0.12499596712E+03 0.  0.
    9000005    1    3    3    0    0 -0.37690556631E+02 -0.34949471810E+02 -0.10647253780E+02  0.52501501427E+02  0.10000000000E+01 0.  0.
    9000005    1    3    3    0    0  0.11700215177E+02  0.39189730665E+02  0.87457005612E+02  0.96552875956E+02  0.10000000000E+01 0.  0.
         21    1    1    2  502  501  0.25990341455E+02 -0.42402588550E+01 -0.98976642164E+01  0.28132568333E+02  0.00000000000E+00 0.  1.
<mgrwt>
<rscale>  1 0.12773985E+03</rscale>
<asrwt>0</asrwt>
<pdfrwt beam="2">  1        4 0.84826814E-02 0.12773985E+03</pdfrwt>
<pdfrwt beam="1">  1       -4 0.18776849E-01 0.12773985E+03</pdfrwt>
<totfact> 0.40790704E+03</totfact>
</mgrwt>
</event>
<event>
 6    4  0.5642870E-004  0.1270128E+03  0.7818608E-02  0.1231957E+00
          4   -1    0    0  502    0  0.00000000000E+00  0.00000000000E+00  0.15179599571E+03  0.15180130834E+03  0.12700000000E+01 0.  1.
         -4   -1    0    0    0  501 -0.00000000000E+00 -0.00000000000E+00 -0.39977063524E+02  0.39997231255E+02  0.12700000000E+01 0.  1.
         25    2    1    2    0    0  0.56223697294E+01  0.21811207606E+02  0.11189952247E+03  0.16927419025E+03  0.12499963415E+03 0.  0.
    9000005    1    3    3    0    0  0.36663330532E+02  0.60257934132E+01  0.12624120301E+03  0.13159920717E+03  0.10000000000E+01 0.  0.
    9000005    1    3    3    0    0 -0.31040960803E+02  0.15785414193E+02 -0.14341680541E+02  0.37674983073E+02  0.10000000000E+01 0.  0.
         21    1    1    2  502  501 -0.56223697294E+01 -0.21811207606E+02 -0.80590283517E-01  0.22524349345E+02  0.00000000000E+00 0.  1.
<mgrwt>
<rscale>  1 0.12701279E+03</rscale>
<asrwt>0</asrwt>
<pdfrwt beam="1">  1        4 0.23355190E-01 0.12701279E+03</pdfrwt>
<pdfrwt beam="2">  1       -4 0.61522775E-02 0.12701279E+03</pdfrwt>
<totfact> 0.46558845E+03</totfact>
</mgrwt>
</event>
<event>
 6    4  0.5642870E-004  0.1307590E+03  0.7818608E-02  0.1226334E+00
          4   -1    0    0  502    0  0.00000000000E+00  0.00000000000E+00  0.22214384346E+02  0.22250657786E+02  0.12700000000E+01 0.  1.
         -4   -1    0    0    0  501 -0.00000000000E+00 -0.00000000000E+00 -0.53024625681E+03  0.53024777770E+03  0.12700000000E+01 0.  1.
         25    2    1    2    0    0 -0.14251719572E+02  0.35637973875E+02 -0.49497675398E+03  0.51195694056E+03  0.12499898123E+03 0.  0.
    9000005    1    3    3    0    0  0.35618766242E+02 -0.18298699191E+02 -0.69777740408E+02  0.80457889341E+02  0.10000000000E+01 0.  0.
    9000005    1    3    3    0    0 -0.49870485813E+02  0.53936673066E+02 -0.42519901358E+03  0.43149905122E+03  0.10000000000E+01 0.  0.
         21    1    1    2  502  501  0.14251719572E+02 -0.35637973875E+02 -0.13055118478E+02  0.40541494929E+02  0.00000000000E+00 0.  1.
<mgrwt>
<rscale>  1 0.13075902E+03</rscale>
<asrwt>0</asrwt>
<pdfrwt beam="1">  1        4 0.34205052E-02 0.13075902E+03</pdfrwt>
<pdfrwt beam="2">  1       -4 0.81579245E-01 0.13075902E+03</pdfrwt>
<totfact> 0.97951946E+02</totfact>
</mgrwt>
</event>
<event>
 6    4  0.5642870E-004  0.1266825E+03  0.7818608E-02  0.1232463E+00
          4   -1    0    0  502    0  0.00000000000E+00  0.00000000000E+00  0.15737254104E+02  0.15788415587E+02  0.12700000000E+01 0. -1.
         -4   -1    0    0    0  501 -0.00000000000E+00 -0.00000000000E+00 -0.43960115069E+03  0.43960298519E+03  0.12700000000E+01 0. -1.
         25    2    1    2    0    0 -0.19680994348E+02 -0.59446427153E+01 -0.41329548641E+03  0.43227492161E+03  0.12500307376E+03 0.  0.
    9000005    1    3    3    0    0  0.52221178816E+02  0.14247568812E+01 -0.21363975620E+03  0.21993641554E+03  0.10000000000E+01 0.  0.
    9000005    1    3    3    0    0 -0.71902173164E+02 -0.73693995965E+01 -0.19965573021E+03  0.21233850607E+03  0.10000000000E+01 0.  0.
         21    1    1    2  502  501  0.19680994348E+02  0.59446427153E+01 -0.10568410178E+02  0.23116479170E+02  0.00000000000E+00 0. -1.
<mgrwt>
<rscale>  1 0.12668247E+03</rscale>
<asrwt>0</asrwt>
<pdfrwt beam="1">  1        4 0.24251930E-02 0.12668247E+03</pdfrwt>
<pdfrwt beam="2">  1       -4 0.67635014E-01 0.12668247E+03</pdfrwt>
<totfact> 0.25034549E+03</totfact>
</mgrwt>
</event>
<event>
 6    4  0.5642870E-004  0.1430409E+03  0.7818608E-02  0.1209295E+00
         -4   -1    0    0    0  501 -0.00000000000E+00  0.00000000000E+00  0.30663183049E+03  0.30663446051E+03  0.12700000000E+01 0.  1.
          4   -1    0    0  502    0  0.00000000000E+00 -0.00000000000E+00 -0.85323597602E+02  0.85333048743E+02  0.12700000000E+01 0.  1.
         25    2    1    2    0    0  0.66263697946E+02  0.21071652669E+02  0.27104725848E+03  0.30647562146E+03  0.12500319199E+03 0.  0.
    9000005    1    3    3    0    0 -0.20264756602E+02 -0.31326798931E+02  0.42634032781E+02  0.56662945940E+02  0.10000000000E+01 0.  0.
    9000005    1    3    3    0    0  0.86528454549E+02  0.52398451600E+02  0.22841322569E+03  0.24981267552E+03  0.10000000000E+01 0.  0.
         21    1    1    2  502  501 -0.66263697946E+02 -0.21071652669E+02 -0.49739025588E+02  0.85491887792E+02  0.00000000000E+00 0.  1.
<mgrwt>
<rscale>  1 0.14304087E+03</rscale>
<asrwt>0</asrwt>
<pdfrwt beam="2">  1        4 0.13127637E-01 0.14304087E+03</pdfrwt>
<pdfrwt beam="1">  1       -4 0.47175057E-01 0.14304087E+03</pdfrwt>
<totfact> 0.34902322E+02</totfact>
</mgrwt>
</event>
<event>
 6    4  0.5642870E-004  0.1280425E+03  0.7818608E-02  0.1230390E+00
         -4   -1    0    0    0  501 -0.00000000000E+00  0.00000000000E+00  0.18678386977E+03  0.18678818728E+03  0.12700000000E+01 0.  1.
          4   -1    0    0  502    0  0.00000000000E+00 -0.00000000000E+00 -0.80926786526E+02  0.80936751092E+02  0.12700000000E+01 0.  1.
         25    2    1    2    0    0 -0.24551653418E+02  0.12934894860E+02  0.16116983901E+03  0.20584120754E+03  0.12499916210E+03 0.  0.
    9000005    1    3    3    0    0 -0.23963667371E+02 -0.51264304214E+02  0.42018188329E+02  0.70489817640E+02  0.10000000000E+01 0.  0.
    9000005    1    3    3    0    0 -0.58798604687E+00  0.64199199074E+02  0.11915165068E+03  0.13535138990E+03  0.10000000000E+01 0.  0.
         21    1    1    2  502  501  0.24551653418E+02 -0.12934894860E+02 -0.55312755764E+02  0.61883730825E+02  0.00000000000E+00 0.  1.
<mgrwt>
<rscale>  1 0.12804252E+03</rscale>
<asrwt>0</asrwt>
<pdfrwt beam="2">  1        4 0.12451374E-01 0.12804252E+03</pdfrwt>
<pdfrwt beam="1">  1       -4 0.28737078E-01 0.12804252E+03</pdfrwt>
<totfact> 0.98096594E+02</totfact>
</mgrwt>
</event>
<event>
 6    4  0.5642870E-004  0.1347629E+03  0.7818608E-02  0.1220555E+00
         -4   -1    0    0    0  501 -0.00000000000E+00  0.00000000000E+00  0.20838047721E+03  0.20838434726E+03  0.12700000000E+01 0.  1.
          4   -1    0    0  502    0  0.00000000000E+00 -0.00000000000E+00 -0.42337348513E+02  0.42356392423E+02  0.12700000000E+01 0.  1.
         25    2    1    2    0    0 -0.49017205399E+02  0.11498517367E+02  0.13894680281E+03  0.19356458029E+03  0.12500452153E+03 0.  0.
    9000005    1    3    3    0    0 -0.14740374314E+02  0.12229041294E+02  0.15465488660E+03  0.15583953939E+03  0.10000000000E+01 0.  0.
    9000005    1    3    3    0    0 -0.34276831084E+02 -0.73052392675E+00 -0.15708083795E+02  0.37725040900E+02  0.10000000000E+01 0.  0.
         21    1    1    2  502  501  0.49017205399E+02 -0.11498517367E+02  0.27096325894E+02  0.57176159400E+02  0.00000000000E+00 0.  1.
<mgrwt>
<rscale>  1 0.13476288E+03</rscale>
<asrwt>0</asrwt>
<pdfrwt beam="2">  1        4 0.65152009E-02 0.13476288E+03</pdfrwt>
<pdfrwt beam="1">  1       -4 0.32060297E-01 0.13476288E+03</pdfrwt>
<totfact> 0.23813345E+03</totfact>
</mgrwt>
</event>
<event>
 6    4  0.5642870E-004  0.1293240E+03  0.7818608E-02  0.1228462E+00
          4   -1    0    0  502    0  0.00000000000E+00  0.00000000000E+00  0.31186943128E+02  0.31212790994E+02  0.12700000000E+01 0. -1.
         -4   -1    0    0    0  501 -0.00000000000E+00 -0.00000000000E+00 -0.25643928623E+03  0.25644243101E+03  0.12700000000E+01 0. -1.
         25    2    1    2    0    0  0.88263529106E+01 -0.31965792318E+02 -0.21836249919E+03  0.25378508274E+03  0.12499988314E+03 0.  0.
    9000005    1    3    3    0    0 -0.28566916898E+02 -0.30998927938E+02 -0.11696103811E+02  0.43758440543E+02  0.10000000000E+01 0.  0.
    9000005    1    3    3    0    0  0.37393269809E+02 -0.96686438037E+00 -0.20666639538E+03  0.21002664220E+03  0.10000000000E+01 0.  0.
         21    1    1    2  502  501 -0.88263529106E+01  0.31965792318E+02 -0.68898439053E+01  0.33870139257E+02  0.00000000000E+00 0. -1.
<mgrwt>
<rscale>  1 0.12932396E+03</rscale>
<asrwt>0</asrwt>
<pdfrwt beam="1">  1        4 0.48002216E-02 0.12932396E+03</pdfrwt>
<pdfrwt beam="2">  1       -4 0.39454427E-01 0.12932396E+03</pdfrwt>
<totfact> 0.25881725E+03</totfact>
</mgrwt>
</event>
<event>
 6    4  0.5642870E-004  0.1366309E+03  0.7818608E-02  0.1217936E+00
         -4   -1    0    0    0  501 -0.00000000000E+00  0.00000000000E+00  0.59433470529E+03  0.59433606219E+03  0.12700000000E+01 0. -1.
          4   -1    0    0  502    0  0.00000000000E+00 -0.00000000000E+00 -0.15968597851E+02  0.16019020486E+02  0.12700000000E+01 0. -1.
         25    2    1    2    0    0  0.22297707677E+01  0.55121324149E+02  0.35794184407E+03  0.38313231063E+03  0.12499868582E+03 0.  0.
    9000005    1    3    3    0    0  0.11836495422E+02  0.92760625694E+02  0.20487016410E+03  0.22520528511E+03  0.10000000000E+01 0.  0.
    9000005    1    3    3    0    0 -0.96067246541E+01 -0.37639301545E+02  0.15307167997E+03  0.15792702552E+03  0.10000000000E+01 0.  0.
         21    1    1    2  502  501 -0.22297707677E+01 -0.55121324149E+02  0.22042426337E+03  0.22722277205E+03  0.00000000000E+00 0. -1.
<mgrwt>
<rscale>  1 0.13663090E+03</rscale>
<asrwt>0</asrwt>
<pdfrwt beam="2">  1        4 0.24606904E-02 0.13663090E+03</pdfrwt>
<pdfrwt beam="1">  1       -4 0.91440090E-01 0.13663090E+03</pdfrwt>
<totfact> 0.12812391E+03</totfact>
</mgrwt>
</event>
<event>
 6    4  0.5642870E-004  0.1269600E+03  0.7818608E-02  0.1232038E+00
          4   -1    0    0  502    0  0.00000000000E+00  0.00000000000E+00  0.11873941171E+02  0.11941665668E+02  0.12700000000E+01 0.  1.
         -4   -1    0    0    0  501 -0.00000000000E+00 -0.00000000000E+00 -0.67320259609E+03  0.67320379402E+03  0.12700000000E+01 0.  1.
         25    2    1    2    0    0  0.21350418641E+02  0.55472029212E+01 -0.64581765289E+03  0.65817875762E+03  0.12502889413E+03 0.  0.
    9000005    1    3    3    0    0  0.67020088646E+02  0.53945628836E+01 -0.51990655048E+03  0.52423717421E+03  0.10000000000E+01 0.  0.
    9000005    1    3    3    0    0 -0.45669670006E+02  0.15264003756E+00 -0.12591110240E+03  0.13394158341E+03  0.10000000000E+01 0.  0.
         21    1    1    2  502  501 -0.21350418641E+02 -0.55472029212E+01 -0.15511002036E+02  0.26966702070E+02  0.00000000000E+00 0.  1.
<mgrwt>
<rscale>  1 0.12695998E+03</rscale>
<asrwt>0</asrwt>
<pdfrwt beam="1">  1        4 0.18320624E-02 0.12695998E+03</pdfrwt>
<pdfrwt beam="2">  1       -4 0.10357490E+00 0.12695998E+03</pdfrwt>
<totfact> 0.14931399E+03</totfact>
</mgrwt>
</event>
<event>
 6    4  0.5642870E-004  0.1271766E+03  0.7818608E-02  0.1231706E+00
          4   -1    0    0  502    0  0.00000000000E+00  0.00000000000E+00  0.17045002289E+02  0.17092249795E+02  0.12700000000E+01 0.  1.
         -4   -1    0    0    0  501 -0.00000000000E+00 -0.00000000000E+00 -0.34905679101E+03  0.34905910137E+03  0.12700000000E+01 0.  1.
         25    2    1    2    0    0  0.22057709782E+02  0.73071730192E+01 -0.30540444065E+03  0.33082588854E+03  0.12503583015E+03 0.  0.
    9000005    1    3    3    0    0 -0.26519303691E+02 -0.38070643265E+02 -0.56088347331E+02  0.72798008580E+02  0.10000000000E+01 0.  0.
    9000005    1    3    3    0    0  0.48577013473E+02  0.45377816284E+02 -0.24931609332E+03  0.25802787996E+03  0.10000000000E+01 0.  0.
         21    1    1    2  502  501 -0.22057709782E+02 -0.73071730192E+01 -0.26607348064E+02  0.35325462620E+02  0.00000000000E+00 0.  1.
<mgrwt>
<rscale>  1 0.12717663E+03</rscale>
<asrwt>0</asrwt>
<pdfrwt beam="1">  1        4 0.26261204E-02 0.12717663E+03</pdfrwt>
<pdfrwt beam="2">  1       -4 0.53704852E-01 0.12717663E+03</pdfrwt>
<totfact> 0.35932906E+03</totfact>
</mgrwt>
</event>
<event>
 6    4  0.5642870E-004  0.1266012E+03  0.7818608E-02  0.1232588E+00
         -4   -1    0    0    0  501 -0.00000000000E+00  0.00000000000E+00  0.58787289067E+02  0.58801005569E+02  0.12700000000E+01 0.  1.
          4   -1    0    0  502    0  0.00000000000E+00 -0.00000000000E+00 -0.10919470356E+03  0.10920208874E+03  0.12700000000E+01 0.  1.
         25    2    1    2    0    0 -0.19727153317E+02 -0.37506086352E+01 -0.15251650008E+02  0.12751660990E+03  0.12499858131E+03 0.  0.
    9000005    1    3    3    0    0 -0.28674341377E+02 -0.37418959557E+02  0.40239569127E+02  0.61988864413E+02  0.10000000000E+01 0.  0.
    9000005    1    3    3    0    0  0.89471880593E+01  0.33668350922E+02 -0.55491219134E+02  0.65527745490E+02  0.10000000000E+01 0.  0.
         21    1    1    2  502  501  0.19727153317E+02  0.37506086352E+01 -0.35155764484E+02  0.40486484407E+02  0.00000000000E+00 0. -1.
<mgrwt>
<rscale>  1 0.12660124E+03</rscale>
<asrwt>0</asrwt>
<pdfrwt beam="2">  1        4 0.16800808E-01 0.12660124E+03</pdfrwt>
<pdfrwt beam="1">  1       -4 0.90458216E-02 0.12660124E+03</pdfrwt>
<totfact> 0.44539425E+03</totfact>
</mgrwt>
</event>
<event>
 6    4  0.5642870E-004  0.1284053E+03  0.7818608E-02  0.1229841E+00
          4   -1    0    0  502    0  0.00000000000E+00  0.00000000000E+00  0.47531218802E+02  0.47548182518E+02  0.12700000000E+01 0.  1.
         -4   -1    0    0    0  501 -0.00000000000E+00 -0.00000000000E+00 -0.13104023400E+03  0.13104638807E+03  0.12700000000E+01 0.  1.
         25    2    1    2    0    0 -0.29209963942E+02 -0.32382796136E+01 -0.65807193377E+02  0.14428621965E+03  0.12499687209E+03 0.  0.
    9000005    1    3    3    0    0  0.48545396195E+02 -0.14180016664E+01 -0.38029221056E+02  0.61691878514E+02  0.10000000000E+01 0.  0.
    9000005    1    3    3    0    0 -0.77755360137E+02 -0.18202779472E+01 -0.27777972321E+02  0.82594341138E+02  0.10000000000E+01 0.  0.
         21    1    1    2  502  501  0.29209963942E+02  0.32382796136E+01 -0.17701821822E+02  0.34308350939E+02  0.00000000000E+00 0. -1.
<mgrwt>
<rscale>  1 0.12840532E+03</rscale>
<asrwt>0</asrwt>
<pdfrwt beam="1">  1        4 0.73142735E-02 0.12840532E+03</pdfrwt>
<pdfrwt beam="2">  1       -4 0.20161814E-01 0.12840532E+03</pdfrwt>
<totfact> 0.45934089E+03</totfact>
</mgrwt>
</event>
<event>
 6    4  0.5642870E-004  0.1271819E+03  0.7818608E-02  0.1231698E+00
         -4   -1    0    0    0  501 -0.00000000000E+00  0.00000000000E+00  0.21743332837E+02  0.21780390788E+02  0.12700000000E+01 0. -1.
          4   -1    0    0  502    0  0.00000000000E+00 -0.00000000000E+00 -0.29075649916E+03  0.29075927278E+03  0.12700000000E+01 0. -1.
         25    2    1    2    0    0 -0.23032579958E+02  0.45061306973E+01 -0.17942605491E+03  0.21992942933E+03  0.12499775898E+03 0.  0.
    9000005    1    3    3    0    0 -0.71075745389E+02  0.16784357165E+02 -0.13429807989E+03  0.15287396930E+03  0.10000000000E+01 0.  0.
    9000005    1    3    3    0    0  0.48043165431E+02 -0.12278226468E+02 -0.45127975017E+02  0.67055460024E+02  0.10000000000E+01 0.  0.
         21    1    1    2  502  501  0.23032579958E+02 -0.45061306973E+01 -0.89587111417E+02  0.92610234237E+02  0.00000000000E+00 0. -1.
<mgrwt>
<rscale>  1 0.12718194E+03</rscale>
<asrwt>0</asrwt>
<pdfrwt beam="2">  1        4 0.44734830E-01 0.12718194E+03</pdfrwt>
<pdfrwt beam="1">  1       -4 0.33481923E-02 0.12718194E+03</pdfrwt>
<totfact> 0.35603719E+03</totfact>
</mgrwt>
</event>
<event>
 6    4  0.5642870E-004  0.1273474E+03  0.7818608E-02  0.1231446E+00
         -4   -1    0    0    0  501 -0.00000000000E+00  0.00000000000E+00  0.44852562587E+02  0.44870539005E+02  0.12700000000E+01 0.  1.
          4   -1    0    0  502    0  0.00000000000E+00 -0.00000000000E+00 -0.13226564057E+03  0.13227173763E+03  0.12700000000E+01 0.  1.
         25    2    1    2    0    0  0.47645905013E+01 -0.23893090093E+02 -0.60982453460E+02  0.14119566359E+03  0.12499509874E+03 0.  0.
    9000005    1    3    3    0    0 -0.22786644692E+02  0.24161452961E+02 -0.76716995135E+02  0.83603255487E+02  0.10000000000E+01 0.  0.
    9000005    1    3    3    0    0  0.27551235194E+02 -0.48054543055E+02  0.15734541675E+02  0.57592408099E+02  0.10000000000E+01 0.  0.
         21    1    1    2  502  501 -0.47645905013E+01  0.23893090093E+02 -0.26430624519E+02  0.35946613044E+02  0.00000000000E+00 0.  1.
<mgrwt>
<rscale>  1 0.12734738E+03</rscale>
<asrwt>0</asrwt>
<pdfrwt beam="2">  1        4 0.20350412E-01 0.12734738E+03</pdfrwt>
<pdfrwt beam="1">  1       -4 0.69022461E-02 0.12734738E+03</pdfrwt>
<totfact> 0.49577226E+03</totfact>
</mgrwt>
</event>
<event>
 6    4  0.5642870E-004  0.1268395E+03  0.7818608E-02  0.1232222E+00
          4   -1    0    0  502    0  0.00000000000E+00  0.00000000000E+00  0.16083813827E+03  0.16084315224E+03  0.12700000000E+01 0. -1.
         -4   -1    0    0    0  501 -0.00000000000E+00 -0.00000000000E+00 -0.51759838406E+02  0.51775416675E+02  0.12700000000E+01 0. -1.
         25    2    1    2    0    0  0.11501295858E+02  0.18133642755E+02  0.29541816173E+02  0.13023434079E+03  0.12500862295E+03 0.  0.
    9000005    1    3    3    0    0  0.23051578575E+02 -0.51165504986E+02  0.18576257720E+02  0.59121582575E+02  0.10000000000E+01 0.  0.
    9000005    1    3    3    0    0 -0.11550282717E+02  0.69299147741E+02  0.10965558453E+02  0.71112758213E+02  0.10000000000E+01 0.  0.
         21    1    1    2  502  501 -0.11501295858E+02 -0.18133642755E+02  0.79536483693E+02  0.82384228128E+02  0.00000000000E+00 0. -1.
<mgrwt>
<rscale>  1 0.12683952E+03</rscale>
<asrwt>0</asrwt>
<pdfrwt beam="1">  1        4 0.24745913E-01 0.12683952E+03</pdfrwt>
<pdfrwt beam="2">  1       -4 0.79646362E-02 0.12683952E+03</pdfrwt>
<totfact> 0.27411918E+03</totfact>
</mgrwt>
</event>
<event>
 6    4  0.5642870E-004  0.1388717E+03  0.7818608E-02  0.1214855E+00
          4   -1    0    0  502    0  0.00000000000E+00  0.00000000000E+00  0.17702571156E+04  0.17702575712E+04  0.12700000000E+01 0. -1.
         -4   -1    0    0    0  501 -0.00000000000E+00 -0.00000000000E+00 -0.74834441712E+01  0.75904437725E+01  0.12700000000E+01 0. -1.
         25    2    1    2    0    0 -0.14097804457E+02 -0.58836478137E+02  0.71694917445E+03  0.73027493503E+03  0.12499953094E+03 0.  0.
    9000005    1    3    3    0    0  0.16710076507E+02  0.18433258669E+02  0.33286020465E+02  0.41568868645E+02  0.10000000000E+01 0.  0.
    9000005    1    3    3    0    0 -0.30807880965E+02 -0.77269736806E+02  0.68366315398E+03  0.68870606638E+03  0.10000000000E+01 0.  0.
         21    1    1    2  502  501  0.14097804457E+02  0.58836478137E+02  0.10458244970E+04  0.10475730799E+04  0.00000000000E+00 0. -1.
<mgrwt>
<rscale>  1 0.13887175E+03</rscale>
<asrwt>0</asrwt>
<pdfrwt beam="1">  1        4 0.27235535E+00 0.13887175E+03</pdfrwt>
<pdfrwt beam="2">  1       -4 0.11595656E-02 0.13887175E+03</pdfrwt>
<totfact> 0.21496698E+02</totfact>
</mgrwt>
</event>
<event>
 6    4  0.5642870E-004  0.1375953E+03  0.7818608E-02  0.1216602E+00
          4   -1    0    0  502    0  0.00000000000E+00  0.00000000000E+00  0.24183054444E+02  0.24216379215E+02  0.12700000000E+01 0.  1.
         -4   -1    0    0    0  501 -0.00000000000E+00 -0.00000000000E+00 -0.42988121853E+03  0.42988309451E+03  0.12700000000E+01 0.  1.
         25    2    1    2    0    0 -0.57406882116E+02  0.34750997115E+01 -0.33998850106E+03  0.36677601613E+03  0.12499935487E+03 0.  0.
    9000005    1    3    3    0    0 -0.42087627153E+02 -0.23646213318E+02 -0.33077084255E+03  0.33427662503E+03  0.10000000000E+01 0.  0.
    9000005    1    3    3    0    0 -0.15319254963E+02  0.27121313030E+02 -0.92176585190E+01  0.32499391096E+02  0.10000000000E+01 0.  0.
         21    1    1    2  502  501  0.57406882116E+02 -0.34750997115E+01 -0.65709663022E+02  0.87323457597E+02  0.00000000000E+00 0.  1.
<mgrwt>
<rscale>  1 0.13759529E+03</rscale>
<asrwt>0</asrwt>
<pdfrwt beam="1">  1        4 0.37231780E-02 0.13759529E+03</pdfrwt>
<pdfrwt beam="2">  1       -4 0.66138274E-01 0.13759529E+03</pdfrwt>
<totfact> 0.13673107E+03</totfact>
</mgrwt>
</event>
<event>
 6    4  0.5642870E-004  0.1332266E+03  0.7818608E-02  0.1222745E+00
          4   -1    0    0  502    0  0.00000000000E+00  0.00000000000E+00  0.78111279871E+02  0.78121603562E+02  0.12700000000E+01 0. -1.
         -4   -1    0    0    0  501 -0.00000000000E+00 -0.00000000000E+00 -0.11221632701E+03  0.11222351334E+03  0.12700000000E+01 0. -1.
         25    2    1    2    0    0  0.12219463744E+02  0.44479783322E+02 -0.48877564478E+02  0.14190965792E+03  0.12498627238E+03 0.  0.
    9000005    1    3    3    0    0 -0.56082086946E+02  0.26615185254E+02 -0.29222516554E+02  0.68618685765E+02  0.10000000000E+01 0.  0.
    9000005    1    3    3    0    0  0.68301550690E+02  0.17864598068E+02 -0.19655047924E+02  0.73290972156E+02  0.10000000000E+01 0.  0.
         21    1    1    2  502  501 -0.12219463744E+02 -0.44479783322E+02  0.14772517340E+02  0.48435458985E+02  0.00000000000E+00 0.  1.
<mgrwt>
<rscale>  1 0.13322663E+03</rscale>
<asrwt>0</asrwt>
<pdfrwt beam="1">  1        4 0.12018467E-01 0.13322663E+03</pdfrwt>
<pdfrwt beam="2">  1       -4 0.17265397E-01 0.13322663E+03</pdfrwt>
<totfact> 0.26591413E+03</totfact>
</mgrwt>
</event>
<event>
 6    4  0.5642870E-004  0.1287885E+03  0.7818608E-02  0.1229265E+00
         -4   -1    0    0    0  501 -0.00000000000E+00  0.00000000000E+00  0.31592245229E+03  0.31592500496E+03  0.12700000000E+01 0. -1.
          4   -1    0    0  502    0  0.00000000000E+00 -0.00000000000E+00 -0.20745690778E+02  0.20784527559E+02  0.12700000000E+01 0. -1.
         25    2    1    2    0    0 -0.17438999005E+02 -0.25620785843E+02  0.25760183619E+03  0.28800205500E+03  0.12500373723E+03 0.  0.
    9000005    1    3    3    0    0  0.25354606245E+02  0.36984120786E+02  0.50981044786E+02  0.67902490202E+02  0.10000000000E+01 0.  0.
    9000005    1    3    3    0    0 -0.42793605250E+02 -0.62604906628E+02  0.20662079141E+03  0.22009956480E+03  0.10000000000E+01 0.  0.
         21    1    1    2  502  501  0.17438999005E+02  0.25620785843E+02  0.37574925318E+02  0.48707477518E+02  0.00000000000E+00 0. -1.
<mgrwt>
<rscale>  1 0.12878850E+03</rscale>
<asrwt>0</asrwt>
<pdfrwt beam="2">  1        4 0.31948285E-02 0.12878850E+03</pdfrwt>
<pdfrwt beam="1">  1       -4 0.48606638E-01 0.12878850E+03</pdfrwt>
<totfact> 0.32529464E+03</totfact>
</mgrwt>
</event>
<event>
 6    4  0.5642870E-004  0.1274525E+03  0.7818608E-02  0.1231285E+00
          4   -1    0    0  502    0  0.00000000000E+00  0.00000000000E+00  0.79645337829E+02  0.79655462700E+02  0.12700000000E+01 0. -1.
         -4   -1    0    0    0  501 -0.00000000000E+00 -0.00000000000E+00 -0.94936665473E+02  0.94945159703E+02  0.12700000000E+01 0. -1.
         25    2    1    2    0    0 -0.23615258971E+02 -0.78662425346E+01 -0.45615081534E+02  0.13536940680E+03  0.12499832961E+03 0.  0.
    9000005    1    3    3    0    0 -0.40864935003E+02 -0.46923448282E+02 -0.63642624466E+02  0.89012002339E+02  0.10000000000E+01 0.  0.
    9000005    1    3    3    0    0  0.17249676032E+02  0.39057205747E+02  0.18027542932E+02  0.46357404459E+02  0.10000000000E+01 0.  0.
         21    1    1    2  502  501  0.23615258971E+02  0.78662425346E+01  0.30323753891E+02  0.39231215606E+02  0.00000000000E+00 0. -1.
<mgrwt>
<rscale>  1 0.12745250E+03</rscale>
<asrwt>0</asrwt>
<pdfrwt beam="1">  1        4 0.12254561E-01 0.12745250E+03</pdfrwt>
<pdfrwt beam="2">  1       -4 0.14607073E-01 0.12745250E+03</pdfrwt>
<totfact> 0.34124694E+03</totfact>
</mgrwt>
</event>
<event>
 6    4  0.5642870E-004  0.1284080E+03  0.7818608E-02  0.1229837E+00
         -4   -1    0    0    0  501 -0.00000000000E+00  0.00000000000E+00  0.16723775615E+03  0.16724257825E+03  0.12700000000E+01 0.  1.
          4   -1    0    0  502    0  0.00000000000E+00 -0.00000000000E+00 -0.38557615377E+02  0.38578525160E+02  0.12700000000E+01 0.  1.
         25    2    1    2    0    0  0.17244541525E+02 -0.23781896892E+02  0.11850070302E+03  0.17473133363E+03  0.12500267799E+03 0.  0.
    9000005    1    3    3    0    0 -0.31591202886E+02 -0.53986147537E+02  0.30370966414E+02  0.69540663116E+02  0.10000000000E+01 0.  0.
    9000005    1    3    3    0    0  0.48835744411E+02  0.30204250645E+02  0.88129736608E+02  0.10519067052E+03  0.10000000000E+01 0.  0.
         21    1    1    2  502  501 -0.17244541525E+02  0.23781896892E+02  0.10179437748E+02  0.31089769781E+02  0.00000000000E+00 0.  1.
<mgrwt>
<rscale>  1 0.12840803E+03</rscale>
<asrwt>0</asrwt>
<pdfrwt beam="2">  1        4 0.59339203E-02 0.12840803E+03</pdfrwt>
<pdfrwt beam="1">  1       -4 0.25730865E-01 0.12840803E+03</pdfrwt>
<totfact> 0.41426858E+03</totfact>
</mgrwt>
</event>
<event>
 6    4  0.5642870E-004  0.1367342E+03  0.7818608E-02  0.1217792E+00
         -4   -1    0    0    0  501 -0.00000000000E+00  0.00000000000E+00  0.95091155036E+02  0.95099635467E+02  0.12700000000E+01 0. -1.
          4   -1    0    0  502    0  0.00000000000E+00 -0.00000000000E+00 -0.11027922447E+03  0.11028653703E+03  0.12700000000E+01 0. -1.
         25    2    1    2    0    0  0.36691598074E+01  0.55302834536E+02  0.22207546269E+02  0.13852588297E+03  0.12499751558E+03 0.  0.
    9000005    1    3    3    0    0 -0.49613783728E+02  0.16455601963E+02 -0.24475697655E+02  0.57726719528E+02  0.10000000000E+01 0.  0.
    9000005    1    3    3    0    0  0.53282943535E+02  0.38847232572E+02  0.46683243924E+02  0.80799163446E+02  0.10000000000E+01 0.  0.
         21    1    1    2  502  501 -0.36691598074E+01 -0.55302834536E+02 -0.37395615709E+02  0.66860289527E+02  0.00000000000E+00 0.  1.
<mgrwt>
<rscale>  1 0.13673421E+03</rscale>
<asrwt>0</asrwt>
<pdfrwt beam="2">  1        4 0.16967249E-01 0.13673421E+03</pdfrwt>
<pdfrwt beam="1">  1       -4 0.14630623E-01 0.13673421E+03</pdfrwt>
<totfact> 0.19643979E+03</totfact>
</mgrwt>
</event>
<event>
 6    4  0.5642870E-004  0.1266202E+03  0.7818608E-02  0.1232559E+00
         -4   -1    0    0    0  501 -0.00000000000E+00  0.00000000000E+00  0.27994388369E+03  0.27994676443E+03  0.12700000000E+01 0. -1.
          4   -1    0    0  502    0  0.00000000000E+00 -0.00000000000E+00 -0.23041734488E+02  0.23076707482E+02  0.12700000000E+01 0. -1.
         25    2    1    2    0    0  0.20059449483E+02 -0.23781883008E+01  0.25232281362E+03  0.28231097309E+03  0.12499858382E+03 0.  0.
    9000005    1    3    3    0    0  0.33662551848E+02  0.33373568484E+02  0.23599008099E+03  0.24070579718E+03  0.10000000000E+01 0.  0.
    9000005    1    3    3    0    0 -0.13603102366E+02 -0.35751756784E+02  0.16332732634E+02  0.41605175909E+02  0.10000000000E+01 0.  0.
         21    1    1    2  502  501 -0.20059449483E+02  0.23781883008E+01  0.45793355760E+01  0.20712498822E+02  0.00000000000E+00 0. -1.
<mgrwt>
<rscale>  1 0.12662023E+03</rscale>
<asrwt>0</asrwt>
<pdfrwt beam="2">  1        4 0.35477938E-02 0.12662023E+03</pdfrwt>
<pdfrwt beam="1">  1       -4 0.43071204E-01 0.12662023E+03</pdfrwt>
<totfact> 0.35013089E+03</totfact>
</mgrwt>
</event>
<event>
 6    4  0.5642870E-004  0.1296677E+03  0.7818608E-02  0.1227950E+00
         -4   -1    0    0    0  501 -0.00000000000E+00  0.00000000000E+00  0.36840223713E+03  0.36840442617E+03  0.12700000000E+01 0.  1.
          4   -1    0    0  502    0  0.00000000000E+00 -0.00000000000E+00 -0.22645805382E+02  0.22681388877E+02  0.12700000000E+01 0.  1.
         25    2    1    2    0    0  0.29763858767E+02  0.17415485113E+02  0.32713140930E+03  0.35189298571E+03  0.12499811211E+03 0.  0.
    9000005    1    3    3    0    0  0.62956030957E+02  0.54355051591E+01  0.30204341716E+03  0.30858423874E+03  0.10000000000E+01 0.  0.
    9000005    1    3    3    0    0 -0.33192172189E+02  0.11979979954E+02  0.25087992140E+02  0.43308746968E+02  0.10000000000E+01 0.  0.
         21    1    1    2  502  501 -0.29763858767E+02 -0.17415485113E+02  0.18625022452E+02  0.39192829341E+02  0.00000000000E+00 0.  1.
<mgrwt>
<rscale>  1 0.12966771E+03</rscale>
<asrwt>0</asrwt>
<pdfrwt beam="2">  1        4 0.34868759E-02 0.12966771E+03</pdfrwt>
<pdfrwt beam="1">  1       -4 0.56680169E-01 0.12966771E+03</pdfrwt>
<totfact> 0.20717957E+03</totfact>
</mgrwt>
</event>
<event>
 6    4  0.5642870E-004  0.1297049E+03  0.7818608E-02  0.1227894E+00
          4   -1    0    0  502    0  0.00000000000E+00  0.00000000000E+00  0.60715098771E+02  0.60728379846E+02  0.12700000000E+01 0. -1.
         -4   -1    0    0    0  501 -0.00000000000E+00 -0.00000000000E+00 -0.11837477726E+03  0.11838158975E+03  0.12700000000E+01 0. -1.
         25    2    1    2    0    0  0.64035552820E+01  0.34031158174E+02 -0.62789386781E+02  0.14410369653E+03  0.12499697202E+03 0.  0.
    9000005    1    3    3    0    0 -0.42016965145E+02  0.23325747656E-01  0.16511308719E+02  0.45155832621E+02  0.10000000000E+01 0.  0.
    9000005    1    3    3    0    0  0.48420520427E+02  0.34007832427E+02 -0.79300695500E+02  0.98947863906E+02  0.10000000000E+01 0.  0.
         21    1    1    2  502  501 -0.64035552820E+01 -0.34031158174E+02  0.51297082915E+01  0.35006273068E+02  0.00000000000E+00 0. -1.
<mgrwt>
<rscale>  1 0.12970493E+03</rscale>
<asrwt>0</asrwt>
<pdfrwt beam="1">  1        4 0.93423301E-02 0.12970493E+03</pdfrwt>
<pdfrwt beam="2">  1       -4 0.18213050E-01 0.12970493E+03</pdfrwt>
<totfact> 0.36800904E+03</totfact>
</mgrwt>
</event>
<event>
 6    4  0.5642870E-004  0.1278181E+03  0.7818608E-02  0.1230730E+00
          4   -1    0    0  502    0  0.00000000000E+00  0.00000000000E+00  0.30286975439E+03  0.30287241707E+03  0.12700000000E+01 0. -1.
         -4   -1    0    0    0  501 -0.00000000000E+00 -0.00000000000E+00 -0.23515140178E+03  0.23515483124E+03  0.12700000000E+01 0. -1.
         25    2    1    2    0    0  0.26689164662E+02 -0.29714846465E+00 -0.21711545904E+03  0.25194561649E+03  0.12500028523E+03 0.  0.
    9000005    1    3    3    0    0  0.53375326635E+02 -0.10689385647E+02 -0.29050379507E+02  0.61709910131E+02  0.10000000000E+01 0.  0.
    9000005    1    3    3    0    0 -0.26686161974E+02  0.10392237182E+02 -0.18806507953E+03  0.19023570636E+03  0.10000000000E+01 0.  0.
         21    1    1    2  502  501 -0.26689164662E+02  0.29714846465E+00  0.28483381165E+03  0.28608163182E+03  0.00000000000E+00 0. -1.
<mgrwt>
<rscale>  1 0.12781812E+03</rscale>
<asrwt>0</asrwt>
<pdfrwt beam="1">  1        4 0.46595816E-01 0.12781812E+03</pdfrwt>
<pdfrwt beam="2">  1       -4 0.36177607E-01 0.12781812E+03</pdfrwt>
<totfact> 0.55414932E+01</totfact>
</mgrwt>
</event>
<event>
 6    4  0.5642870E-004  0.1272537E+03  0.7818608E-02  0.1231589E+00
         -4   -1    0    0    0  501 -0.00000000000E+00  0.00000000000E+00  0.99314783644E+01  0.10012350498E+02  0.12700000000E+01 0. -1.
          4   -1    0    0  502    0  0.00000000000E+00 -0.00000000000E+00 -0.65446342595E+03  0.65446465818E+03  0.12700000000E+01 0. -1.
         25    2    1    2    0    0  0.11378867753E+02 -0.20881436353E+02 -0.42448989357E+03  0.44315367383E+03  0.12501198289E+03 0.  0.
    9000005    1    3    3    0    0 -0.14814404544E+02  0.41602838896E+02 -0.74062069804E+02  0.86234870963E+02  0.10000000000E+01 0.  0.
    9000005    1    3    3    0    0  0.26193272297E+02 -0.62484275249E+02 -0.35042782377E+03  0.35691880286E+03  0.10000000000E+01 0.  0.
         21    1    1    2  502  501 -0.11378867753E+02  0.20881436353E+02 -0.22004205402E+03  0.22132333486E+03  0.00000000000E+00 0. -1.
<mgrwt>
<rscale>  1 0.12725372E+03</rscale>
<asrwt>0</asrwt>
<pdfrwt beam="2">  1        4 0.10069296E+00 0.12725372E+03</pdfrwt>
<pdfrwt beam="1">  1       -4 0.15342360E-02 0.12725372E+03</pdfrwt>
<totfact> 0.20920955E+03</totfact>
</mgrwt>
</event>
<event>
 6    4  0.5642870E-004  0.1278761E+03  0.7818608E-02  0.1230642E+00
          4   -1    0    0  502    0  0.00000000000E+00  0.00000000000E+00  0.48501125278E+02  0.48517749879E+02  0.12700000000E+01 0.  1.
         -4   -1    0    0    0  501 -0.00000000000E+00 -0.00000000000E+00 -0.13569435271E+03  0.13570029572E+03  0.12700000000E+01 0.  1.
         25    2    1    2    0    0 -0.26672443578E+02 -0.38922317277E+01 -0.91063280675E+02  0.15698670287E+03  0.12500294028E+03 0.  0.
    9000005    1    3    3    0    0 -0.54158077526E+02 -0.47810537929E+02 -0.71355964435E+02  0.10154614005E+03  0.10000000000E+01 0.  0.
    9000005    1    3    3    0    0  0.27485633947E+02  0.43918306201E+02 -0.19707316240E+02  0.55440562826E+02  0.10000000000E+01 0.  0.
         21    1    1    2  502  501  0.26672443578E+02  0.38922317277E+01  0.38700532428E+01  0.27231342721E+02  0.00000000000E+00 0.  1.
<mgrwt>
<rscale>  1 0.12787613E+03</rscale>
<asrwt>0</asrwt>
<pdfrwt beam="1">  1        4 0.74634476E-02 0.12787613E+03</pdfrwt>
<pdfrwt beam="2">  1       -4 0.20877790E-01 0.12787613E+03</pdfrwt>
<totfact> 0.41682260E+03</totfact>
</mgrwt>
</event>
<event>
 6    4  0.5642870E-004  0.1280294E+03  0.7818608E-02  0.1230409E+00
         -4   -1    0    0    0  501 -0.00000000000E+00  0.00000000000E+00  0.13978543984E+02  0.14036117409E+02  0.12700000000E+01 0.  1.
          4   -1    0    0  502    0  0.00000000000E+00 -0.00000000000E+00 -0.43908966727E+03  0.43909150391E+03  0.12700000000E+01 0.  1.
         25    2    1    2    0    0 -0.27694500340E+02  0.22406959663E+00 -0.32661239903E+03  0.35080932267E+03  0.12499794446E+03 0.  0.
    9000005    1    3    3    0    0 -0.43629185560E+02 -0.11643041511E+02 -0.32778428668E+03  0.33088155712E+03  0.10000000000E+01 0.  0.
    9000005    1    3    3    0    0  0.15934685220E+02  0.11867111107E+02  0.11718876571E+01  0.19927765549E+02  0.10000000000E+01 0.  0.
         21    1    1    2  502  501  0.27694500340E+02 -0.22406959663E+00 -0.98498724260E+02  0.10231829864E+03  0.00000000000E+00 0.  1.
<mgrwt>
<rscale>  1 0.12802938E+03</rscale>
<asrwt>0</asrwt>
<pdfrwt beam="2">  1        4 0.67556816E-01 0.12802938E+03</pdfrwt>
<pdfrwt beam="1">  1       -4 0.21551156E-02 0.12802938E+03</pdfrwt>
<totfact> 0.30200207E+03</totfact>
</mgrwt>
</event>
<event>
 6    4  0.5642870E-004  0.1296504E+03  0.7818608E-02  0.1227975E+00
          4   -1    0    0  502    0  0.00000000000E+00  0.00000000000E+00  0.37874979084E+03  0.37875192008E+03  0.12700000000E+01 0.  1.
         -4   -1    0    0    0  501 -0.00000000000E+00 -0.00000000000E+00 -0.18533383383E+02  0.18576845793E+02  0.12700000000E+01 0.  1.
         25    2    1    2    0    0  0.30496555243E+02  0.15947906572E+02  0.24646841495E+03  0.27848861522E+03  0.12499941454E+03 0.  0.
    9000005    1    3    3    0    0 -0.25327706494E+02  0.19852794353E+02  0.75072175768E+01  0.33060315722E+02  0.10000000000E+01 0.  0.
    9000005    1    3    3    0    0  0.55824261737E+02 -0.39048877811E+01  0.23896119737E+03  0.24542829950E+03  0.10000000000E+01 0.  0.
         21    1    1    2  502  501 -0.30496555243E+02 -0.15947906572E+02  0.11374799251E+03  0.11884015065E+03  0.00000000000E+00 0.  1.
<mgrwt>
<rscale>  1 0.12965041E+03</rscale>
<asrwt>0</asrwt>
<pdfrwt beam="1">  1        4 0.58272704E-01 0.12965041E+03</pdfrwt>
<pdfrwt beam="2">  1       -4 0.28547969E-02 0.12965041E+03</pdfrwt>
<totfact> 0.26762823E+03</totfact>
</mgrwt>
</event>
<event>
 6    4  0.5642870E-004  0.1330911E+03  0.7818608E-02  0.1222940E+00
         -4   -1    0    0    0  501 -0.00000000000E+00  0.00000000000E+00  0.39410808108E+02  0.39431265460E+02  0.12700000000E+01 0.  1.
          4   -1    0    0  502    0  0.00000000000E+00 -0.00000000000E+00 -0.22750991078E+03  0.22751345544E+03  0.12700000000E+01 0.  1.
         25    2    1    2    0    0 -0.31713469355E+02  0.32910330351E+02 -0.95911020704E+02  0.16404925725E+03  0.12499760369E+03 0.  0.
    9000005    1    3    3    0    0  0.19641205205E+02 -0.22260734069E+02  0.12317965739E+02  0.32156640110E+02  0.10000000000E+01 0.  0.
    9000005    1    3    3    0    0 -0.51354674559E+02  0.55171064421E+02 -0.10822898644E+03  0.13189261714E+03  0.10000000000E+01 0.  0.
         21    1    1    2  502  501  0.31713469355E+02 -0.32910330351E+02 -0.92188081972E+02  0.10289546365E+03  0.00000000000E+00 0.  1.
<mgrwt>
<rscale>  1 0.13309108E+03</rscale>
<asrwt>0</asrwt>
<pdfrwt beam="2">  1        4 0.35003370E-01 0.13309108E+03</pdfrwt>
<pdfrwt beam="1">  1       -4 0.60650477E-02 0.13309108E+03</pdfrwt>
<totfact> 0.22549195E+03</totfact>
</mgrwt>
</event>
<event>
 6    4  0.5642870E-004  0.1268493E+03  0.7818608E-02  0.1232207E+00
          4   -1    0    0  502    0  0.00000000000E+00  0.00000000000E+00  0.12417517546E+03  0.12418166975E+03  0.12700000000E+01 0. -1.
         -4   -1    0    0    0  501 -0.00000000000E+00 -0.00000000000E+00 -0.58012749544E+02  0.58026649134E+02  0.12700000000E+01 0. -1.
         25    2    1    2    0    0  0.21087206398E+02  0.46849626292E+01  0.16330793514E+02  0.12789615876E+03  0.12499645379E+03 0.  0.
    9000005    1    3    3    0    0  0.18235723880E+02  0.61532073972E+02 -0.10370938798E+02  0.65017644715E+02  0.10000000000E+01 0.  0.
    9000005    1    3    3    0    0  0.28514825183E+01 -0.56847111343E+02  0.26701732313E+02  0.62878514049E+02  0.10000000000E+01 0.  0.
         21    1    1    2  502  501 -0.21087206398E+02 -0.46849626292E+01  0.49831632406E+02  0.54312160118E+02  0.00000000000E+00 0. -1.
<mgrwt>
<rscale>  1 0.12684925E+03</rscale>
<asrwt>0</asrwt>
<pdfrwt beam="1">  1        4 0.19105442E-01 0.12684925E+03</pdfrwt>
<pdfrwt beam="2">  1       -4 0.89266072E-02 0.12684925E+03</pdfrwt>
<totfact> 0.36264540E+03</totfact>
</mgrwt>
</event>
<event>
 6    4  0.5642870E-004  0.1285033E+03  0.7818608E-02  0.1229694E+00
          4   -1    0    0  502    0  0.00000000000E+00  0.00000000000E+00  0.11620006306E+02  0.11689202135E+02  0.12700000000E+01 0.  1.
         -4   -1    0    0    0  501 -0.00000000000E+00 -0.00000000000E+00 -0.57866159243E+03  0.57866298607E+03  0.12700000000E+01 0.  1.
         25    2    1    2    0    0 -0.24299591209E+02 -0.17360126416E+02 -0.51030553089E+03  0.52623647964E+03  0.12498501320E+03 0.  0.
    9000005    1    3    3    0    0 -0.24221943630E+02 -0.68827476602E+02 -0.36113198599E+03  0.36843077422E+03  0.10000000000E+01 0.  0.
    9000005    1    3    3    0    0 -0.77647579153E-01  0.51467350187E+02 -0.14917354489E+03  0.15780570541E+03  0.10000000000E+01 0.  0.
         21    1    1    2  502  501  0.24299591209E+02  0.17360126416E+02 -0.56736055235E+02  0.64115708572E+02  0.00000000000E+00 0.  1.
<mgrwt>
<rscale>  1 0.12850330E+03</rscale>
<asrwt>0</asrwt>
<pdfrwt beam="1">  1        4 0.17931237E-02 0.12850330E+03</pdfrwt>
<pdfrwt beam="2">  1       -4 0.89030268E-01 0.12850330E+03</pdfrwt>
<totfact> 0.21877235E+03</totfact>
</mgrwt>
</event>
<event>
 6    4  0.5642870E-004  0.1266846E+03  0.7818608E-02  0.1232460E+00
          4   -1    0    0  502    0  0.00000000000E+00  0.00000000000E+00  0.19895292729E+03  0.19895698072E+03  0.12700000000E+01 0. -1.
         -4   -1    0    0    0  501 -0.00000000000E+00 -0.00000000000E+00 -0.29338871025E+02  0.29366345585E+02  0.12700000000E+01 0. -1.
         25    2    1    2    0    0 -0.19232201511E+02 -0.73738673209E+01  0.16350280853E+03  0.20683847483E+03  0.12499893910E+03 0.  0.
    9000005    1    3    3    0    0 -0.69217621871E+02 -0.23439795219E+02  0.81582362702E+02  0.10953166246E+03  0.10000000000E+01 0.  0.
    9000005    1    3    3    0    0  0.49985420360E+02  0.16065927898E+02  0.81920445833E+02  0.97306812368E+02  0.10000000000E+01 0.  0.
         21    1    1    2  502  501  0.19232201511E+02  0.73738673209E+01  0.61112477321E+01  0.21484851479E+02  0.00000000000E+00 0.  1.
<mgrwt>
<rscale>  1 0.12668459E+03</rscale>
<asrwt>0</asrwt>
<pdfrwt beam="1">  1        4 0.30610568E-01 0.12668459E+03</pdfrwt>
<pdfrwt beam="2">  1       -4 0.45160977E-02 0.12668459E+03</pdfrwt>
<totfact> 0.46290183E+03</totfact>
</mgrwt>
</event>
<event>
 6    4  0.5642870E-004  0.1329719E+03  0.7818608E-02  0.1223111E+00
          4   -1    0    0  502    0  0.00000000000E+00  0.00000000000E+00  0.90067523011E+01  0.90958499885E+01  0.12700000000E+01 0. -1.
         -4   -1    0    0    0  501 -0.00000000000E+00 -0.00000000000E+00 -0.87853510719E+03  0.87853602514E+03  0.12700000000E+01 0. -1.
         25    2    1    2    0    0  0.50437446752E+00  0.45364440575E+02 -0.64300379200E+03  0.65660900948E+03  0.12499331156E+03 0.  0.
    9000005    1    3    3    0    0  0.18426212860E+02  0.56323046914E+02 -0.12670398038E+03  0.13988105511E+03  0.10000000000E+01 0.  0.
    9000005    1    3    3    0    0 -0.17921838392E+02 -0.10958606339E+02 -0.51629981162E+03  0.51672795437E+03  0.10000000000E+01 0.  0.
         21    1    1    2  502  501 -0.50437446752E+00 -0.45364440575E+02 -0.22652456289E+03  0.23102286565E+03  0.00000000000E+00 0. -1.
<mgrwt>
<rscale>  1 0.13297186E+03</rscale>
<asrwt>0</asrwt>
<pdfrwt beam="1">  1        4 0.13925792E-02 0.13297186E+03</pdfrwt>
<pdfrwt beam="2">  1       -4 0.13516610E+00 0.13297186E+03</pdfrwt>
<totfact> 0.12122682E+03</totfact>
</mgrwt>
</event>
<event>
 6    4  0.5642870E-004  0.1316454E+03  0.7818608E-02  0.1225034E+00
          4   -1    0    0  502    0  0.00000000000E+00  0.00000000000E+00  0.31413622241E+02  0.31439283743E+02  0.12700000000E+01 0.  1.
         -4   -1    0    0    0  501 -0.00000000000E+00 -0.00000000000E+00 -0.34487605973E+03  0.34487839809E+03  0.12700000000E+01 0.  1.
         25    2    1    2    0    0  0.24203944362E+02 -0.33463188015E+02 -0.30762288656E+03  0.33460777618E+03  0.12499963068E+03 0.  0.
    9000005    1    3    3    0    0 -0.49253061855E+02 -0.22679329901E+02 -0.94963603149E+02  0.10935859376E+03  0.10000000000E+01 0.  0.
    9000005    1    3    3    0    0  0.73457006217E+02 -0.10783858114E+02 -0.21265928341E+03  0.22524918242E+03  0.10000000000E+01 0.  0.
         21    1    1    2  502  501 -0.24203944362E+02  0.33463188015E+02 -0.58395509224E+01  0.41709905656E+02  0.00000000000E+00 0.  1.
<mgrwt>
<rscale>  1 0.13164545E+03</rscale>
<asrwt>0</asrwt>
<pdfrwt beam="1">  1        4 0.48350190E-02 0.13164545E+03</pdfrwt>
<pdfrwt beam="2">  1       -4 0.53060007E-01 0.13164545E+03</pdfrwt>
<totfact> 0.14172498E+03</totfact>
</mgrwt>
</event>
<event>
 6    4  0.5642870E-004  0.1288578E+03  0.7818608E-02  0.1229160E+00
         -4   -1    0    0    0  501 -0.00000000000E+00  0.00000000000E+00  0.15355678030E+02  0.15408106560E+02  0.12700000000E+01 0.  1.
          4   -1    0    0  502    0  0.00000000000E+00 -0.00000000000E+00 -0.10051896656E+04  0.10051904678E+04  0.12700000000E+01 0.  1.
         25    2    1    2    0    0  0.27269239796E+02 -0.15326655059E+02 -0.26082990535E+03  0.29092366759E+03  0.12500329215E+03 0.  0.
    9000005    1    3    3    0    0  0.66267457873E+02 -0.28884774630E+02 -0.91417735536E+02  0.11655002595E+03  0.10000000000E+01 0.  0.
    9000005    1    3    3    0    0 -0.38998218077E+02  0.13558119571E+02 -0.16941216981E+03  0.17437364164E+03  0.10000000000E+01 0.  0.
         21    1    1    2  502  501 -0.27269239796E+02  0.15326655059E+02 -0.72900408218E+03  0.72967490681E+03  0.00000000000E+00 0.  1.
<mgrwt>
<rscale>  1 0.12885783E+03</rscale>
<asrwt>0</asrwt>
<pdfrwt beam="2">  1        4 0.15464861E+00 0.12885783E+03</pdfrwt>
<pdfrwt beam="1">  1       -4 0.23665075E-02 0.12885783E+03</pdfrwt>
<totfact> 0.38047256E+02</totfact>
</mgrwt>
</event>
<event>
 6    4  0.5642870E-004  0.1278385E+03  0.7818608E-02  0.1230699E+00
          4   -1    0    0  502    0  0.00000000000E+00  0.00000000000E+00  0.44013895766E+03  0.44014078992E+03  0.12700000000E+01 0.  1.
         -4   -1    0    0    0  501 -0.00000000000E+00 -0.00000000000E+00 -0.13581987323E+02  0.13641234535E+02  0.12700000000E+01 0.  1.
         25    2    1    2    0    0 -0.82785639027E+01  0.25483053643E+02  0.36063162477E+03  0.38261973226E+03  0.12499908032E+03 0.  0.
    9000005    1    3    3    0    0  0.15381292826E+02  0.72525550093E+02  0.23421815315E+03  0.24567393604E+03  0.10000000000E+01 0.  0.
    9000005    1    3    3    0    0 -0.23659856729E+02 -0.47042496450E+02  0.12641347162E+03  0.13694579621E+03  0.10000000000E+01 0.  0.
         21    1    1    2  502  501  0.82785639027E+01 -0.25483053643E+02  0.65925345562E+02  0.71162292197E+02  0.00000000000E+00 0.  1.
<mgrwt>
<rscale>  1 0.12783853E+03</rscale>
<asrwt>0</asrwt>
<pdfrwt beam="1">  1        4 0.67718379E-01 0.12783853E+03</pdfrwt>
<pdfrwt beam="2">  1       -4 0.20942351E-02 0.12783853E+03</pdfrwt>
<totfact> 0.31392472E+03</totfact>
</mgrwt>
</event>
<event>
 6    4  0.5642870E-004  0.1267075E+03  0.7818608E-02  0.1232425E+00
         -4   -1    0    0    0  501 -0.00000000000E+00  0.00000000000E+00  0.51450023235E+02  0.51465695282E+02  0.12700000000E+01 0.  1.
          4   -1    0    0  502    0  0.00000000000E+00 -0.00000000000E+00 -0.17406740753E+03  0.17407204045E+03  0.12700000000E+01 0.  1.
         25    2    1    2    0    0 -0.13516808550E+02 -0.15545763826E+02 -0.29403268437E+02  0.13007441145E+03  0.12502169985E+03 0.  0.
    9000005    1    3    3    0    0  0.14762342901E+02  0.21877867139E+02 -0.65664820951E+02  0.70777373143E+02  0.10000000000E+01 0.  0.
    9000005    1    3    3    0    0 -0.28279151451E+02 -0.37423630965E+02  0.36261552514E+02  0.59297038308E+02  0.10000000000E+01 0.  0.
         21    1    1    2  502  501  0.13516808550E+02  0.15545763826E+02 -0.93214115863E+02  0.95463324279E+02  0.00000000000E+00 0. -1.
<mgrwt>
<rscale>  1 0.12670754E+03</rscale>
<asrwt>0</asrwt>
<pdfrwt beam="2">  1        4 0.26781163E-01 0.12670754E+03</pdfrwt>
<pdfrwt beam="1">  1       -4 0.79169502E-02 0.12670754E+03</pdfrwt>
<totfact> 0.23913145E+03</totfact>
</mgrwt>
</event>
<event>
 6    4  0.5642870E-004  0.1287399E+03  0.7818608E-02  0.1229338E+00
          4   -1    0    0  502    0  0.00000000000E+00  0.00000000000E+00  0.76921324514E+01  0.77962684439E+01  0.12700000000E+01 0.  1.
         -4   -1    0    0    0  501 -0.00000000000E+00 -0.00000000000E+00 -0.83715050939E+03  0.83715147272E+03  0.12700000000E+01 0.  1.
         25    2    1    2    0    0  0.14418938232E+02  0.27196656704E+02 -0.71060991458E+03  0.72217754559E+03  0.12500557083E+03 0.  0.
    9000005    1    3    3    0    0 -0.50732644861E+02  0.13729953458E+02 -0.18337610284E+03  0.19076191435E+03  0.10000000000E+01 0.  0.
    9000005    1    3    3    0    0  0.65151583092E+02  0.13466703246E+02 -0.52723381174E+03  0.53141563123E+03  0.10000000000E+01 0.  0.
         21    1    1    2  502  501 -0.14418938232E+02 -0.27196656704E+02 -0.11884846236E+03  0.12277019557E+03  0.00000000000E+00 0.  1.
<mgrwt>
<rscale>  1 0.12873988E+03</rscale>
<asrwt>0</asrwt>
<pdfrwt beam="1">  1        4 0.11914902E-02 0.12873988E+03</pdfrwt>
<pdfrwt beam="2">  1       -4 0.12880040E+00 0.12873988E+03</pdfrwt>
<totfact> 0.17163119E+03</totfact>
</mgrwt>
</event>
<event>
 6    4  0.5642870E-004  0.1291652E+03  0.7818608E-02  0.1228700E+00
         -4   -1    0    0    0  501 -0.00000000000E+00  0.00000000000E+00  0.46021139194E+03  0.46021314429E+03  0.12700000000E+01 0. -1.
          4   -1    0    0  502    0  0.00000000000E+00 -0.00000000000E+00 -0.15228726912E+02  0.15281590995E+02  0.12700000000E+01 0. -1.
         25    2    1    2    0    0  0.23109345141E+02  0.22990846884E+02  0.39702243086E+03  0.41750503848E+03  0.12498410170E+03 0.  0.
    9000005    1    3    3    0    0  0.92849053645E+01  0.25037210146E+01 -0.74942415999E+01  0.12232814218E+02  0.10000000000E+01 0.  0.
    9000005    1    3    3    0    0  0.13824439776E+02  0.20487125869E+02  0.40451667246E+03  0.40527222426E+03  0.10000000000E+01 0.  0.
         21    1    1    2  502  501 -0.23109345141E+02 -0.22990846884E+02  0.47960234175E+02  0.57989696804E+02  0.00000000000E+00 0. -1.
<mgrwt>
<rscale>  1 0.12916519E+03</rscale>
<asrwt>0</asrwt>
<pdfrwt beam="2">  1        4 0.23470827E-02 0.12916519E+03</pdfrwt>
<pdfrwt beam="1">  1       -4 0.70805942E-01 0.12916519E+03</pdfrwt>
<totfact> 0.23975525E+03</totfact>
</mgrwt>
</event>
<event>
 6    4  0.5642870E-004  0.1274917E+03  0.7818608E-02  0.1231226E+00
          4   -1    0    0  502    0  0.00000000000E+00  0.00000000000E+00  0.25738826460E+03  0.25739139779E+03  0.12700000000E+01 0. -1.
         -4   -1    0    0    0  501 -0.00000000000E+00 -0.00000000000E+00 -0.23074974441E+02  0.23109897132E+02  0.12700000000E+01 0. -1.
         25    2    1    2    0    0 -0.24318855734E+02  0.62193381753E+01  0.17902837101E+03  0.21978466460E+03  0.12499621697E+03 0.  0.
    9000005    1    3    3    0    0 -0.30595651549E+02 -0.55917248677E+02  0.10595751797E+03  0.12365608844E+03  0.10000000000E+01 0.  0.
    9000005    1    3    3    0    0  0.62767958151E+01  0.62136586852E+02  0.73070853038E+02  0.96128576162E+02  0.10000000000E+01 0.  0.
         21    1    1    2  502  501  0.24318855734E+02 -0.62193381753E+01  0.55284919147E+02  0.60716630314E+02  0.00000000000E+00 0. -1.
<mgrwt>
<rscale>  1 0.12749173E+03</rscale>
<asrwt>0</asrwt>
<pdfrwt beam="1">  1        4 0.39601123E-01 0.12749173E+03</pdfrwt>
<pdfrwt beam="2">  1       -4 0.35529234E-02 0.12749173E+03</pdfrwt>
<totfact> 0.41305211E+03</totfact>
</mgrwt>
</event>
<event>
 6    4  0.5642870E-004  0.1463913E+03  0.7818608E-02  0.1204979E+00
          4   -1    0    0  502    0  0.00000000000E+00  0.00000000000E+00  0.37291190932E+03  0.37291407188E+03  0.12700000000E+01 0. -1.
         -4   -1    0    0    0  501 -0.00000000000E+00 -0.00000000000E+00 -0.11695150413E+03  0.11695839952E+03  0.12700000000E+01 0. -1.
         25    2    1    2    0    0 -0.35807145362E+02 -0.67248447387E+02 -0.64869781194E+02  0.16012027077E+03  0.12500362901E+03 0.  0.
    9000005    1    3    3    0    0 -0.78119818674E+02 -0.62710107620E+02 -0.28565264882E+02  0.10417407559E+03  0.10000000000E+01 0.  0.
    9000005    1    3    3    0    0  0.42312673312E+02 -0.45383397664E+01 -0.36304516312E+02  0.55946195182E+02  0.10000000000E+01 0.  0.
         21    1    1    2  502  501  0.35807145362E+02  0.67248447387E+02  0.32083018637E+03  0.32975220064E+03  0.00000000000E+00 0. -1.
<mgrwt>
<rscale>  1 0.14639130E+03</rscale>
<asrwt>0</asrwt>
<pdfrwt beam="1">  1        4 0.57371760E-01 0.14639130E+03</pdfrwt>
<pdfrwt beam="2">  1       -4 0.17993236E-01 0.14639130E+03</pdfrwt>
<totfact> 0.13491999E+02</totfact>
</mgrwt>
</event>
<event>
 6    4  0.5642870E-004  0.1280348E+03  0.7818608E-02  0.1230401E+00
         -4   -1    0    0    0  501 -0.00000000000E+00  0.00000000000E+00  0.21176074116E+03  0.21176454943E+03  0.12700000000E+01 0. -1.
          4   -1    0    0  502    0  0.00000000000E+00 -0.00000000000E+00 -0.36734075484E+02  0.36756022659E+02  0.12700000000E+01 0. -1.
         25    2    1    2    0    0 -0.24576155089E+02  0.12802508670E+02  0.17946610844E+03  0.22045635503E+03  0.12500011506E+03 0.  0.
    9000005    1    3    3    0    0  0.46511192014E+02 -0.63517592642E+01  0.35882306631E+02  0.59094633915E+02  0.10000000000E+01 0.  0.
    9000005    1    3    3    0    0 -0.71087347104E+02  0.19154267934E+02  0.14358380181E+03  0.16136172111E+03  0.10000000000E+01 0.  0.
         21    1    1    2  502  501  0.24576155089E+02 -0.12802508670E+02 -0.44394427676E+01  0.28064217062E+02  0.00000000000E+00 0. -1.
<mgrwt>
<rscale>  1 0.12803484E+03</rscale>
<asrwt>0</asrwt>
<pdfrwt beam="2">  1        4 0.56533775E-02 0.12803484E+03</pdfrwt>
<pdfrwt beam="1">  1       -4 0.32580556E-01 0.12803484E+03</pdfrwt>
<totfact> 0.28736189E+03</totfact>
</mgrwt>
</event>
<event>
 6    4  0.5642870E-004  0.1277523E+03  0.7818608E-02  0.1230830E+00
         -4   -1    0    0    0  501 -0.00000000000E+00  0.00000000000E+00  0.52359362438E+02  0.52374762385E+02  0.12700000000E+01 0. -1.
          4   -1    0    0  502    0  0.00000000000E+00 -0.00000000000E+00 -0.15952551088E+03  0.15953056610E+03  0.12700000000E+01 0. -1.
         25    2    1    2    0    0 -0.16797027241E+02 -0.20335232361E+02 -0.31223025080E+02  0.13151241969E+03  0.12499990975E+03 0.  0.
    9000005    1    3    3    0    0  0.52884302227E+02 -0.24028289102E+01 -0.26986971151E+02  0.59429114252E+02  0.10000000000E+01 0.  0.
    9000005    1    3    3    0    0 -0.69681329468E+02 -0.17932403451E+02 -0.42360539283E+01  0.72083305438E+02  0.10000000000E+01 0.  0.
         21    1    1    2  502  501  0.16797027241E+02  0.20335232361E+02 -0.75943123362E+02  0.80392908800E+02  0.00000000000E+00 0. -1.
<mgrwt>
<rscale>  1 0.12775226E+03</rscale>
<asrwt>0</asrwt>
<pdfrwt beam="2">  1        4 0.24543959E-01 0.12775226E+03</pdfrwt>
<pdfrwt beam="1">  1       -4 0.80568601E-02 0.12775226E+03</pdfrwt>
<totfact> 0.27350324E+03</totfact>
</mgrwt>
</event>
<event>
 6    4  0.5642870E-004  0.1279035E+03  0.7818608E-02  0.1230600E+00
         -4   -1    0    0    0  501 -0.00000000000E+00  0.00000000000E+00  0.16440239372E+03  0.16440729899E+03  0.12700000000E+01 0. -1.
          4   -1    0    0  502    0  0.00000000000E+00 -0.00000000000E+00 -0.37321557200E+02  0.37343159103E+02  0.12700000000E+01 0. -1.
         25    2    1    2    0    0 -0.23608847847E+02  0.13241952061E+02  0.11540074230E+03  0.17226908105E+03  0.12500631173E+03 0.  0.
    9000005    1    3    3    0    0 -0.53928501064E+02  0.16352207150E+02  0.12754619366E+03  0.13944428788E+03  0.10000000000E+01 0.  0.
    9000005    1    3    3    0    0  0.30319653217E+02 -0.31102550890E+01 -0.12145451362E+02  0.32824793171E+02  0.10000000000E+01 0.  0.
         21    1    1    2  502  501  0.23608847847E+02 -0.13241952061E+02  0.11680094220E+02  0.29481377037E+02  0.00000000000E+00 0. -1.
<mgrwt>
<rscale>  1 0.12790350E+03</rscale>
<asrwt>0</asrwt>
<pdfrwt beam="2">  1        4 0.57438171E-02 0.12790350E+03</pdfrwt>
<pdfrwt beam="1">  1       -4 0.25294715E-01 0.12790350E+03</pdfrwt>
<totfact> 0.45029198E+03</totfact>
</mgrwt>
</event>
<event>
 6    4  0.5642870E-004  0.1319398E+03  0.7818608E-02  0.1224605E+00
          4   -1    0    0  502    0  0.00000000000E+00  0.00000000000E+00  0.15978550770E+02  0.16028942095E+02  0.12700000000E+01 0. -1.
         -4   -1    0    0    0  501 -0.00000000000E+00 -0.00000000000E+00 -0.51480637437E+03  0.51480794088E+03  0.12700000000E+01 0. -1.
         25    2    1    2    0    0  0.42027184292E+02 -0.41494910720E+01 -0.43274865499E+03  0.45241520855E+03  0.12499848013E+03 0.  0.
    9000005    1    3    3    0    0  0.11473230565E+02  0.59828724542E+02 -0.19097866374E+03  0.20046186995E+03  0.10000000000E+01 0.  0.
    9000005    1    3    3    0    0  0.30553953727E+02 -0.63978215614E+02 -0.24176999125E+03  0.25195333859E+03  0.10000000000E+01 0.  0.
         21    1    1    2  502  501 -0.42027184292E+02  0.41494910720E+01 -0.66079168610E+02  0.78421674427E+02  0.00000000000E+00 0. -1.
<mgrwt>
<rscale>  1 0.13193984E+03</rscale>
<asrwt>0</asrwt>
<pdfrwt beam="1">  1        4 0.24622357E-02 0.13193984E+03</pdfrwt>
<pdfrwt beam="2">  1       -4 0.79204965E-01 0.13193984E+03</pdfrwt>
<totfact> 0.17514907E+03</totfact>
</mgrwt>
</event>
<event>
 6    4  0.5642870E-004  0.1493059E+03  0.7818608E-02  0.1201329E+00
          4   -1    0    0  502    0  0.00000000000E+00  0.00000000000E+00  0.15159094641E+03  0.15159626623E+03  0.12700000000E+01 0. -1.
         -4   -1    0    0    0  501 -0.00000000000E+00 -0.00000000000E+00 -0.88295892039E+02  0.88305025061E+02  0.12700000000E+01 0. -1.
         25    2    1    2    0    0 -0.81541816648E+02 -0.42924587389E+01  0.33809373164E+02  0.15308597893E+03  0.12499900066E+03 0.  0.
    9000005    1    3    3    0    0 -0.10136918238E+03 -0.25535655746E+02  0.54022877584E+02  0.11767434790E+03  0.10000000000E+01 0.  0.
    9000005    1    3    3    0    0  0.19827365735E+02  0.21243197007E+02 -0.20213504420E+02  0.35411631027E+02  0.10000000000E+01 0.  0.
         21    1    1    2  502  501  0.81541816648E+02  0.42924587389E+01  0.29485681211E+02  0.86815312363E+02  0.00000000000E+00 0. -1.
<mgrwt>
<rscale>  1 0.14930587E+03</rscale>
<asrwt>0</asrwt>
<pdfrwt beam="1">  1        4 0.23322796E-01 0.14930587E+03</pdfrwt>
<pdfrwt beam="2">  1       -4 0.13585095E-01 0.14930587E+03</pdfrwt>
<totfact> 0.12841582E+03</totfact>
</mgrwt>
</event>
<event>
 6    4  0.5642870E-004  0.1273607E+03  0.7818608E-02  0.1231425E+00
          4   -1    0    0  502    0  0.00000000000E+00  0.00000000000E+00  0.11007292410E+04  0.11007299737E+04  0.12700000000E+01 0. -1.
         -4   -1    0    0    0  501 -0.00000000000E+00 -0.00000000000E+00 -0.86362359177E+01  0.87291162684E+01  0.12700000000E+01 0. -1.
         25    2    1    2    0    0 -0.63583052930E+01 -0.23554643994E+02  0.47184624213E+03  0.48873266366E+03  0.12500196406E+03 0.  0.
    9000005    1    3    3    0    0 -0.35195676870E+02 -0.60004873824E+02  0.37384970748E+03  0.38026822683E+03  0.10000000000E+01 0.  0.
    9000005    1    3    3    0    0  0.28837371577E+02  0.36450229831E+02  0.97996534651E+02  0.10846443683E+03  0.10000000000E+01 0.  0.
         21    1    1    2  502  501  0.63583052930E+01  0.23554643994E+02  0.62024676297E+03  0.62072642627E+03  0.00000000000E+00 0. -1.
<mgrwt>
<rscale>  1 0.12736067E+03</rscale>
<asrwt>0</asrwt>
<pdfrwt beam="1">  1        4 0.16935013E+00 0.12736067E+03</pdfrwt>
<pdfrwt beam="2">  1       -4 0.13358529E-02 0.12736067E+03</pdfrwt>
<totfact> 0.71936286E+02</totfact>
</mgrwt>
</event>
<event>
 6    4  0.5642870E-004  0.1296177E+03  0.7818608E-02  0.1228024E+00
          4   -1    0    0  502    0  0.00000000000E+00  0.00000000000E+00  0.49080653585E+03  0.49080817896E+03  0.12700000000E+01 0.  1.
         -4   -1    0    0    0  501 -0.00000000000E+00 -0.00000000000E+00 -0.13677550445E+02  0.13736385485E+02  0.12700000000E+01 0.  1.
         25    2    1    2    0    0  0.29482150751E+02 -0.17779737380E+02  0.37520909361E+03  0.39696677576E+03  0.12496175758E+03 0.  0.
    9000005    1    3    3    0    0  0.73397018727E+02  0.32182192414E+01  0.15629289487E+03  0.17270190584E+03  0.10000000000E+01 0.  0.
    9000005    1    3    3    0    0 -0.43914867976E+02 -0.20997956621E+02  0.21891619874E+03  0.22426486992E+03  0.10000000000E+01 0.  0.
         21    1    1    2  502  501 -0.29482150751E+02  0.17779737380E+02  0.10191989180E+03  0.10757778868E+03  0.00000000000E+00 0. -1.
<mgrwt>
<rscale>  1 0.12961773E+03</rscale>
<asrwt>0</asrwt>
<pdfrwt beam="1">  1        4 0.75513361E-01 0.12961773E+03</pdfrwt>
<pdfrwt beam="2">  1       -4 0.21088904E-02 0.12961773E+03</pdfrwt>
<totfact> 0.24615954E+03</totfact>
</mgrwt>
</event>
<event>
 6    4  0.5642870E-004  0.1275097E+03  0.7818608E-02  0.1231198E+00
         -4   -1    0    0    0  501 -0.00000000000E+00  0.00000000000E+00  0.27446011695E+02  0.27475379123E+02  0.12700000000E+01 0. -1.
          4   -1    0    0  502    0  0.00000000000E+00 -0.00000000000E+00 -0.22942132184E+03  0.22942483697E+03  0.12700000000E+01 0. -1.
         25    2    1    2    0    0  0.16430150551E+02  0.19073261006E+02 -0.13669370755E+03  0.18693288964E+03  0.12499998565E+03 0.  0.
    9000005    1    3    3    0    0 -0.50536700949E+01  0.70221434580E+02 -0.61524434598E+02  0.93503184483E+02  0.10000000000E+01 0.  0.
    9000005    1    3    3    0    0  0.21483820646E+02 -0.51148173574E+02 -0.75169272951E+02  0.93429705155E+02  0.10000000000E+01 0.  0.
         21    1    1    2  502  501 -0.16430150551E+02 -0.19073261006E+02 -0.65281602601E+02  0.69967326451E+02  0.00000000000E+00 0. -1.
<mgrwt>
<rscale>  1 0.12750975E+03</rscale>
<asrwt>0</asrwt>
<pdfrwt beam="2">  1        4 0.35298116E-01 0.12750975E+03</pdfrwt>
<pdfrwt beam="1">  1       -4 0.42249929E-02 0.12750975E+03</pdfrwt>
<totfact> 0.39270827E+03</totfact>
</mgrwt>
</event>
<event>
 6    4  0.5642870E-004  0.1329054E+03  0.7818608E-02  0.1223207E+00
         -4   -1    0    0    0  501 -0.00000000000E+00  0.00000000000E+00  0.49660726867E+02  0.49676963403E+02  0.12700000000E+01 0. -1.
          4   -1    0    0  502    0  0.00000000000E+00 -0.00000000000E+00 -0.18934638428E+03  0.18935064335E+03  0.12700000000E+01 0. -1.
         25    2    1    2    0    0 -0.17666870408E+02 -0.41566673502E+02 -0.56592011543E+02  0.14445244808E+03  0.12499578924E+03 0.  0.
    9000005    1    3    3    0    0 -0.14700923800E+02 -0.48954355916E+02  0.28804381063E+02  0.58679966702E+02  0.10000000000E+01 0.  0.
    9000005    1    3    3    0    0 -0.29659466076E+01  0.73876824141E+01 -0.85396392607E+02  0.85772481374E+02  0.10000000000E+01 0.  0.
         21    1    1    2  502  501  0.17666870408E+02  0.41566673502E+02 -0.83093645867E+02  0.94575158681E+02  0.00000000000E+00 0.  1.
<mgrwt>
<rscale>  1 0.13290543E+03</rscale>
<asrwt>0</asrwt>
<pdfrwt beam="2">  1        4 0.29131789E-01 0.13290543E+03</pdfrwt>
<pdfrwt beam="1">  1       -4 0.76416886E-02 0.13290543E+03</pdfrwt>
<totfact> 0.21904723E+03</totfact>
</mgrwt>
</event>
<event>
 6    4  0.5642870E-004  0.1269131E+03  0.7818608E-02  0.1232109E+00
         -4   -1    0    0    0  501 -0.00000000000E+00  0.00000000000E+00  0.78394088023E+01  0.79416138392E+01  0.12700000000E+01 0.  1.
          4   -1    0    0  502    0  0.00000000000E+00 -0.00000000000E+00 -0.71392457369E+03  0.71392570329E+03  0.12700000000E+01 0.  1.
         25    2    1    2    0    0  0.13852487455E+01 -0.21905640937E+02 -0.63115648410E+03  0.64378989899E+03  0.12500060240E+03 0.  0.
    9000005    1    3    3    0    0  0.25794280432E+02 -0.39495024480E+02 -0.59444439117E+03  0.59631395763E+03  0.10000000000E+01 0.  0.
    9000005    1    3    3    0    0 -0.24409031686E+02  0.17589383543E+02 -0.36712092928E+02  0.47475941364E+02  0.10000000000E+01 0.  0.
         21    1    1    2  502  501 -0.13852487455E+01  0.21905640937E+02 -0.74928680787E+02  0.78077418140E+02  0.00000000000E+00 0.  1.
<mgrwt>
<rscale>  1 0.12691307E+03</rscale>
<asrwt>0</asrwt>
<pdfrwt beam="2">  1        4 0.10984245E+00 0.12691307E+03</pdfrwt>
<pdfrwt beam="1">  1       -4 0.12140123E-02 0.12691307E+03</pdfrwt>
<totfact> 0.24346236E+03</totfact>
</mgrwt>
</event>
<event>
 6    4  0.5642870E-004  0.1299782E+03  0.7818608E-02  0.1227488E+00
         -4   -1    0    0    0  501 -0.00000000000E+00  0.00000000000E+00  0.34663665580E+01  0.36916929875E+01  0.12700000000E+01 0. -1.
          4   -1    0    0  502    0  0.00000000000E+00 -0.00000000000E+00 -0.19156273268E+04  0.19156277477E+04  0.12700000000E+01 0. -1.
         25    2    1    2    0    0  0.30113054564E+02 -0.19053158774E+02 -0.15009183026E+04  0.15065357900E+04  0.12499806571E+03 0.  0.
    9000005    1    3    3    0    0  0.68265479260E+01  0.37118444246E+02 -0.16626339285E+03  0.17049603063E+03  0.10000000000E+01 0.  0.
    9000005    1    3    3    0    0  0.23286506638E+02 -0.56171603020E+02 -0.13346549097E+04  0.13360397593E+04  0.10000000000E+01 0.  0.
         21    1    1    2  502  501 -0.30113054564E+02  0.19053158774E+02 -0.41124265760E+03  0.41278365077E+03  0.00000000000E+00 0. -1.
<mgrwt>
<rscale>  1 0.12997821E+03</rscale>
<asrwt>0</asrwt>
<pdfrwt beam="2">  1        4 0.29472844E+00 0.12997821E+03</pdfrwt>
<pdfrwt beam="1">  1       -4 0.55065388E-03 0.12997821E+03</pdfrwt>
<totfact> 0.48270290E+02</totfact>
</mgrwt>
</event>
<event>
 6    4  0.5642870E-004  0.1267203E+03  0.7818608E-02  0.1232405E+00
          4   -1    0    0  502    0  0.00000000000E+00  0.00000000000E+00  0.10727781718E+02  0.10802694136E+02  0.12700000000E+01 0. -1.
         -4   -1    0    0    0  501 -0.00000000000E+00 -0.00000000000E+00 -0.52946422956E+03  0.52946575270E+03  0.12700000000E+01 0. -1.
         25    2    1    2    0    0 -0.81138297467E+01 -0.19194019876E+02 -0.47799386684E+03  0.49450598909E+03  0.12499516742E+03 0.  0.
    9000005    1    3    3    0    0 -0.28824169278E+02  0.40009938470E+02 -0.33146216013E+03  0.33511161053E+03  0.10000000000E+01 0.  0.
    9000005    1    3    3    0    0  0.20710339531E+02 -0.59203958346E+02 -0.14653170670E+03  0.15939437856E+03  0.10000000000E+01 0.  0.
         21    1    1    2  502  501  0.81138297467E+01  0.19194019876E+02 -0.40742581004E+02  0.45762457747E+02  0.00000000000E+00 0. -1.
<mgrwt>
<rscale>  1 0.12672031E+03</rscale>
<asrwt>0</asrwt>
<pdfrwt beam="1">  1        4 0.16563080E-02 0.12672031E+03</pdfrwt>
<pdfrwt beam="2">  1       -4 0.81461895E-01 0.12672031E+03</pdfrwt>
<totfact> 0.30022925E+03</totfact>
</mgrwt>
</event>
<event>
 6    4  0.5642870E-004  0.1418934E+03  0.7818608E-02  0.1210804E+00
         -4   -1    0    0    0  501 -0.00000000000E+00  0.00000000000E+00  0.12270646135E+03  0.12271303336E+03  0.12700000000E+01 0.  1.
          4   -1    0    0  502    0  0.00000000000E+00 -0.00000000000E+00 -0.89709108726E+02  0.89718097887E+02  0.12700000000E+01 0.  1.
         25    2    1    2    0    0 -0.23700466061E+00 -0.67146251938E+02  0.31078581953E+02  0.14525705142E+03  0.12500022964E+03 0.  0.
    9000005    1    3    3    0    0 -0.15702063011E+02  0.34941934002E+02  0.41451323216E+01  0.38544463372E+02  0.10000000000E+01 0.  0.
    9000005    1    3    3    0    0  0.15465058351E+02 -0.10208818594E+03  0.26933449631E+02  0.10671258805E+03  0.10000000000E+01 0.  0.
         21    1    1    2  502  501  0.23700466061E+00  0.67146251938E+02  0.19187706728E+01  0.67174079833E+02  0.00000000000E+00 0.  1.
<mgrwt>
<rscale>  1 0.14189339E+03</rscale>
<asrwt>0</asrwt>
<pdfrwt beam="2">  1        4 0.13802598E-01 0.14189339E+03</pdfrwt>
<pdfrwt beam="1">  1       -4 0.18879114E-01 0.14189339E+03</pdfrwt>
<totfact> 0.18124232E+03</totfact>
</mgrwt>
</event>
<event>
 6    4  0.5642870E-004  0.1347767E+03  0.7818608E-02  0.1220535E+00
         -4   -1    0    0    0  501 -0.00000000000E+00  0.00000000000E+00  0.61159628229E+02  0.61172812794E+02  0.12700000000E+01 0. -1.
          4   -1    0    0  502    0  0.00000000000E+00 -0.00000000000E+00 -0.15646850467E+03  0.15647365866E+03  0.12700000000E+01 0. -1.
         25    2    1    2    0    0 -0.49644457068E+02 -0.86873653232E+01 -0.35381275602E+02  0.13934347166E+03  0.12499890399E+03 0.  0.
    9000005    1    3    3    0    0  0.27789904992E+02 -0.10321047160E+02  0.26829993095E+02  0.39995641806E+02  0.10000000000E+01 0.  0.
    9000005    1    3    3    0    0 -0.77434362061E+02  0.16336818369E+01 -0.62211268697E+02  0.99347829856E+02  0.10000000000E+01 0.  0.
         21    1    1    2  502  501  0.49644457068E+02  0.86873653232E+01 -0.59927600841E+02  0.78302999792E+02  0.00000000000E+00 0. -1.
<mgrwt>
<rscale>  1 0.13477674E+03</rscale>
<asrwt>0</asrwt>
<pdfrwt beam="2">  1        4 0.24073488E-01 0.13477674E+03</pdfrwt>
<pdfrwt beam="1">  1       -4 0.94105843E-02 0.13477674E+03</pdfrwt>
<totfact> 0.22154934E+03</totfact>
</mgrwt>
</event>
<event>
 6    4  0.5642870E-004  0.1295845E+03  0.7818608E-02  0.1228074E+00
         -4   -1    0    0    0  501 -0.00000000000E+00  0.00000000000E+00  0.36408101192E+02  0.36430244749E+02  0.12700000000E+01 0.  1.
          4   -1    0    0  502    0  0.00000000000E+00 -0.00000000000E+00 -0.18638323126E+03  0.18638755805E+03  0.12700000000E+01 0.  1.
         25    2    1    2    0    0 -0.33893907171E+02 -0.42646035182E+01 -0.10793336143E+03  0.16864683182E+03  0.12500063834E+03 0.  0.
    9000005    1    3    3    0    0 -0.15334847352E+02  0.28637060722E+02  0.18010111311E+02  0.37156465111E+02  0.10000000000E+01 0.  0.
    9000005    1    3    3    0    0 -0.18559059819E+02 -0.32901664240E+02 -0.12594347274E+03  0.13149036670E+03  0.10000000000E+01 0.  0.
         21    1    1    2  502  501  0.33893907171E+02  0.42646035182E+01 -0.42041768645E+02  0.54170970983E+02  0.00000000000E+00 0.  1.
<mgrwt>
<rscale>  1 0.12958450E+03</rscale>
<asrwt>0</asrwt>
<pdfrwt beam="2">  1        4 0.28676379E-01 0.12958450E+03</pdfrwt>
<pdfrwt beam="1">  1       -4 0.56032826E-02 0.12958450E+03</pdfrwt>
<totfact> 0.37227378E+03</totfact>
</mgrwt>
</event>
<event>
 6    4  0.5642870E-004  0.1273872E+03  0.7818608E-02  0.1231385E+00
          4   -1    0    0  502    0  0.00000000000E+00  0.00000000000E+00  0.21305973095E+03  0.21306351600E+03  0.12700000000E+01 0. -1.
         -4   -1    0    0    0  501 -0.00000000000E+00 -0.00000000000E+00 -0.66727554468E+02  0.66739639086E+02  0.12700000000E+01 0. -1.
         25    2    1    2    0    0  0.13420954571E+02  0.20547448234E+02 -0.40303366430E+01  0.12745091519E+03  0.12500069007E+03 0.  0.
    9000005    1    3    3    0    0 -0.46230370389E+02 -0.24497361342E+02 -0.59833301222E+01  0.52670372112E+02  0.10000000000E+01 0.  0.
    9000005    1    3    3    0    0  0.59651324960E+02  0.45044809576E+02  0.19529934793E+01  0.74780543076E+02  0.10000000000E+01 0.  0.
         21    1    1    2  502  501 -0.13420954571E+02 -0.20547448234E+02  0.15036251312E+03  0.15235223990E+03  0.00000000000E+00 0. -1.
<mgrwt>
<rscale>  1 0.12738717E+03</rscale>
<asrwt>0</asrwt>
<pdfrwt beam="1">  1        4 0.32779641E-01 0.12738717E+03</pdfrwt>
<pdfrwt beam="2">  1       -4 0.10266998E-01 0.12738717E+03</pdfrwt>
<totfact> 0.10600769E+03</totfact>
</mgrwt>
</event>
<event>
 6    4  0.5642870E-004  0.1520502E+03  0.7818608E-02  0.1197976E+00
          4   -1    0    0  502    0  0.00000000000E+00  0.00000000000E+00  0.33122270834E+03  0.33122514309E+03  0.12700000000E+01 0.  1.
         -4   -1    0    0    0  501 -0.00000000000E+00 -0.00000000000E+00 -0.44057717955E+02  0.44076018552E+02  0.12700000000E+01 0.  1.
         25    2    1    2    0    0  0.27218338493E+02  0.82181230383E+02  0.15356986476E+03  0.21610866758E+03  0.12499864104E+03 0.  0.
    9000005    1    3    3    0    0  0.56431663217E+02 -0.50993992001E+00  0.95463763582E+02  0.11090141031E+03  0.10000000000E+01 0.  0.
    9000005    1    3    3    0    0 -0.29213324723E+02  0.82691170303E+02  0.58106101183E+02  0.10520725727E+03  0.10000000000E+01 0.  0.
         21    1    1    2  502  501 -0.27218338493E+02 -0.82181230383E+02  0.13359512562E+03  0.15919249406E+03  0.00000000000E+00 0.  1.
<mgrwt>
<rscale>  1 0.15205017E+03</rscale>
<asrwt>0</asrwt>
<pdfrwt beam="1">  1        4 0.50958934E-01 0.15205017E+03</pdfrwt>
<pdfrwt beam="2">  1       -4 0.67797055E-02 0.15205017E+03</pdfrwt>
<totfact> 0.91683598E+02</totfact>
</mgrwt>
</event>
<event>
 6    4  0.5642870E-004  0.1525311E+03  0.7818608E-02  0.1197397E+00
         -4   -1    0    0    0  501 -0.00000000000E+00  0.00000000000E+00  0.57712963417E+03  0.57713103151E+03  0.12700000000E+01 0. -1.
          4   -1    0    0  502    0  0.00000000000E+00 -0.00000000000E+00 -0.28341033631E+02  0.28369474568E+02  0.12700000000E+01 0. -1.
         25    2    1    2    0    0  0.86745969148E+02 -0.10770005368E+02  0.44152864328E+03  0.46713304383E+03  0.12499952648E+03 0.  0.
    9000005    1    3    3    0    0 -0.45599513688E+01 -0.23590682072E+02  0.28084532105E+03  0.28187303488E+03  0.10000000000E+01 0.  0.
    9000005    1    3    3    0    0  0.91305920517E+02  0.12820676705E+02  0.16068332223E+03  0.18526000895E+03  0.10000000000E+01 0.  0.
         21    1    1    2  502  501 -0.86745969148E+02  0.10770005368E+02  0.10725995725E+03  0.13836746225E+03  0.00000000000E+00 0. -1.
<mgrwt>
<rscale>  1 0.15253110E+03</rscale>
<asrwt>0</asrwt>
<pdfrwt beam="2">  1        4 0.43624543E-02 0.15253110E+03</pdfrwt>
<pdfrwt beam="1">  1       -4 0.88791469E-01 0.15253110E+03</pdfrwt>
<totfact> 0.56795900E+02</totfact>
</mgrwt>
</event>
<event>
 6    4  0.5642870E-004  0.1276793E+03  0.7818608E-02  0.1230940E+00
          4   -1    0    0  502    0  0.00000000000E+00  0.00000000000E+00  0.40003235689E+02  0.40023390231E+02  0.12700000000E+01 0.  1.
         -4   -1    0    0    0  501 -0.00000000000E+00 -0.00000000000E+00 -0.14900127266E+03  0.14900668494E+03  0.12700000000E+01 0.  1.
         25    2    1    2    0    0  0.22102598831E+02 -0.13744268260E+02 -0.83272958921E+02  0.15243486474E+03  0.12499829005E+03 0.  0.
    9000005    1    3    3    0    0 -0.36853366585E+02 -0.12988084750E+02 -0.84875683846E+02  0.93443794243E+02  0.10000000000E+01 0.  0.
    9000005    1    3    3    0    0  0.58955965415E+02 -0.75618351001E+00  0.16027249251E+01  0.58991070500E+02  0.10000000000E+01 0.  0.
         21    1    1    2  502  501 -0.22102598831E+02  0.13744268260E+02 -0.25725078055E+02  0.36595210425E+02  0.00000000000E+00 0.  1.
<mgrwt>
<rscale>  1 0.12767929E+03</rscale>
<asrwt>0</asrwt>
<pdfrwt beam="1">  1        4 0.61563107E-02 0.12767929E+03</pdfrwt>
<pdfrwt beam="2">  1       -4 0.22925239E-01 0.12767929E+03</pdfrwt>
<totfact> 0.48178211E+03</totfact>
</mgrwt>
</event>
<event>
 6    4  0.5642870E-004  0.1265972E+03  0.7818608E-02  0.1232594E+00
          4   -1    0    0  502    0  0.00000000000E+00  0.00000000000E+00  0.90674734270E+02  0.90683627711E+02  0.12700000000E+01 0.  1.
         -4   -1    0    0    0  501 -0.00000000000E+00 -0.00000000000E+00 -0.67194389235E+02  0.67206389909E+02  0.12700000000E+01 0.  1.
         25    2    1    2    0    0  0.19320844489E+02 -0.52068672507E+01 -0.57697214488E+00  0.12659846911E+03  0.12500573181E+03 0.  0.
    9000005    1    3    3    0    0  0.42596045241E+01 -0.64730015783E+02  0.41447833214E+01  0.65009986946E+02  0.10000000000E+01 0.  0.
    9000005    1    3    3    0    0  0.15061239965E+02  0.59523148532E+02 -0.47217554663E+01  0.61588482163E+02  0.10000000000E+01 0.  0.
         21    1    1    2  502  501 -0.19320844489E+02  0.52068672507E+01  0.24057317180E+02  0.31291548511E+02  0.00000000000E+00 0.  1.
<mgrwt>
<rscale>  1 0.12659715E+03</rscale>
<asrwt>0</asrwt>
<pdfrwt beam="1">  1        4 0.13951566E-01 0.12659715E+03</pdfrwt>
<pdfrwt beam="2">  1       -4 0.10339206E-01 0.12659715E+03</pdfrwt>
<totfact> 0.49242837E+03</totfact>
</mgrwt>
</event>
<event>
 6    4  0.5642870E-004  0.1311122E+03  0.7818608E-02  0.1225815E+00
          4   -1    0    0  502    0  0.00000000000E+00  0.00000000000E+00  0.11866146668E+03  0.11866826271E+03  0.12700000000E+01 0.  1.
         -4   -1    0    0    0  501 -0.00000000000E+00 -0.00000000000E+00 -0.12246653745E+03  0.12247312234E+03  0.12700000000E+01 0.  1.
         25    2    1    2    0    0  0.39122586527E+02  0.59137194993E+01 -0.81199104874E+02  0.15421966527E+03  0.12499944667E+03 0.  0.
    9000005    1    3    3    0    0 -0.28408059917E+01  0.39707641240E+02  0.16132922687E+02  0.42965546033E+02  0.10000000000E+01 0.  0.
    9000005    1    3    3    0    0  0.41963392519E+02 -0.33793921740E+02 -0.97332027561E+02  0.11125411924E+03  0.10000000000E+01 0.  0.
         21    1    1    2  502  501 -0.39122586527E+02 -0.59137194993E+01  0.77394034100E+02  0.86921719778E+02  0.00000000000E+00 0.  1.
<mgrwt>
<rscale>  1 0.13111221E+03</rscale>
<asrwt>0</asrwt>
<pdfrwt beam="1">  1        4 0.18256640E-01 0.13111221E+03</pdfrwt>
<pdfrwt beam="2">  1       -4 0.18842035E-01 0.13111221E+03</pdfrwt>
<totfact> 0.10942986E+03</totfact>
</mgrwt>
</event>
<event>
 6    4  0.5642870E-004  0.1287571E+03  0.7818608E-02  0.1229312E+00
          4   -1    0    0  502    0  0.00000000000E+00  0.00000000000E+00  0.26172846191E+02  0.26203640544E+02  0.12700000000E+01 0.  1.
         -4   -1    0    0    0  501 -0.00000000000E+00 -0.00000000000E+00 -0.44702836064E+03  0.44703016466E+03  0.12700000000E+01 0.  1.
         25    2    1    2    0    0  0.24304379572E+02  0.19031696735E+02 -0.42312451718E+03  0.44228131386E+03  0.12500198081E+03 0.  0.
    9000005    1    3    3    0    0  0.63366068289E+02 -0.27576398280E+01 -0.35604064026E+03  0.36164734301E+03  0.10000000000E+01 0.  0.
    9000005    1    3    3    0    0 -0.39061688717E+02  0.21789336563E+02 -0.67083876915E+02  0.80633970851E+02  0.10000000000E+01 0.  0.
         21    1    1    2  502  501 -0.24304379572E+02 -0.19031696735E+02  0.22690027283E+01  0.30952491343E+02  0.00000000000E+00 0.  1.
<mgrwt>
<rscale>  1 0.12875715E+03</rscale>
<asrwt>0</asrwt>
<pdfrwt beam="1">  1        4 0.40290996E-02 0.12875715E+03</pdfrwt>
<pdfrwt beam="2">  1       -4 0.68776096E-01 0.12875715E+03</pdfrwt>
<totfact> 0.10937846E+03</totfact>
</mgrwt>
</event>
<event>
 6    4  0.5642870E-004  0.1324581E+03  0.7818608E-02  0.1223853E+00
         -4   -1    0    0    0  501 -0.00000000000E+00  0.00000000000E+00  0.18328238041E+03  0.18328678040E+03  0.12700000000E+01 0.  1.
          4   -1    0    0  502    0  0.00000000000E+00 -0.00000000000E+00 -0.49062232087E+02  0.49078666622E+02  0.12700000000E+01 0.  1.
         25    2    1    2    0    0 -0.43784649701E+02 -0.17472328137E+01  0.13418054619E+03  0.18854593151E+03  0.12500000375E+03 0.  0.
    9000005    1    3    3    0    0 -0.14683120356E+02 -0.60228548453E+02  0.91438048017E+02  0.11047619064E+03  0.10000000000E+01 0.  0.
    9000005    1    3    3    0    0 -0.29101529345E+02  0.58481315639E+02  0.42742498177E+02  0.78069740870E+02  0.10000000000E+01 0.  0.
         21    1    1    2  502  501  0.43784649701E+02  0.17472328137E+01  0.39602132613E-01  0.43819515519E+02  0.00000000000E+00 0.  1.
<mgrwt>
<rscale>  1 0.13245810E+03</rscale>
<asrwt>0</asrwt>
<pdfrwt beam="2">  1        4 0.75496383E-02 0.13245810E+03</pdfrwt>
<pdfrwt beam="1">  1       -4 0.28198892E-01 0.13245810E+03</pdfrwt>
<totfact> 0.23737350E+03</totfact>
</mgrwt>
</event>
<event>
 6    4  0.5642870E-004  0.1277850E+03  0.7818608E-02  0.1230780E+00
          4   -1    0    0  502    0  0.00000000000E+00  0.00000000000E+00  0.41038426128E+03  0.41038622639E+03  0.12700000000E+01 0.  1.
         -4   -1    0    0    0  501 -0.00000000000E+00 -0.00000000000E+00 -0.17608133976E+02  0.17653874422E+02  0.12700000000E+01 0.  1.
         25    2    1    2    0    0 -0.22469818670E+02  0.14090830480E+02  0.22997087272E+03  0.26308860741E+03  0.12500227515E+03 0.  0.
    9000005    1    3    3    0    0 -0.32215062122E+02  0.11635687091E+02  0.24367083114E+03  0.24606843233E+03  0.10000000000E+01 0.  0.
    9000005    1    3    3    0    0  0.97452434522E+01  0.24551433889E+01 -0.13699958418E+02  0.17020175078E+02  0.10000000000E+01 0.  0.
         21    1    1    2  502  501  0.22469818670E+02 -0.14090830480E+02  0.16280525458E+03  0.16495149340E+03  0.00000000000E+00 0.  1.
<mgrwt>
<rscale>  1 0.12778503E+03</rscale>
<asrwt>0</asrwt>
<pdfrwt beam="1">  1        4 0.63139704E-01 0.12778503E+03</pdfrwt>
<pdfrwt beam="2">  1       -4 0.27126136E-02 0.12778503E+03</pdfrwt>
<totfact> 0.24402221E+03</totfact>
</mgrwt>
</event>
<event>
 6    4  0.5642870E-004  0.1271507E+03  0.7818608E-02  0.1231746E+00
          4   -1    0    0  502    0  0.00000000000E+00  0.00000000000E+00  0.91069245799E+01  0.91950516749E+01  0.12700000000E+01 0. -1.
         -4   -1    0    0    0  501 -0.00000000000E+00 -0.00000000000E+00 -0.62576581190E+03  0.62576710064E+03  0.12700000000E+01 0. -1.
         25    2    1    2    0    0 -0.75672210393E+01  0.22025192151E+02 -0.54400510157E+03  0.55866703775E+03  0.12499974641E+03 0.  0.
    9000005    1    3    3    0    0  0.57569300625E+02 -0.13212804783E+01 -0.22643134667E+03  0.23364101718E+03  0.10000000000E+01 0.  0.
    9000005    1    3    3    0    0 -0.65136521664E+02  0.23346472630E+02 -0.31757375491E+03  0.32502602057E+03  0.10000000000E+01 0.  0.
         21    1    1    2  502  501  0.75672210393E+01 -0.22025192151E+02 -0.72653785747E+02  0.76295114568E+02  0.00000000000E+00 0. -1.
<mgrwt>
<rscale>  1 0.12715073E+03</rscale>
<asrwt>0</asrwt>
<pdfrwt beam="1">  1        4 0.14079440E-02 0.12715073E+03</pdfrwt>
<pdfrwt beam="2">  1       -4 0.96278508E-01 0.12715073E+03</pdfrwt>
<totfact> 0.26426404E+03</totfact>
</mgrwt>
</event>
<event>
 6    4  0.5642870E-004  0.1271960E+03  0.7818608E-02  0.1231677E+00
          4   -1    0    0  502    0  0.00000000000E+00  0.00000000000E+00  0.19582201167E+03  0.19582612991E+03  0.12700000000E+01 0. -1.
         -4   -1    0    0    0  501 -0.00000000000E+00 -0.00000000000E+00 -0.32143043555E+02  0.32168123181E+02  0.12700000000E+01 0. -1.
         25    2    1    2    0    0  0.17261443358E+02  0.16008446370E+02  0.10557592464E+03  0.16530301412E+03  0.12499833132E+03 0.  0.
    9000005    1    3    3    0    0 -0.31671797577E+02 -0.20186970422E+02 -0.61485104462E+01  0.38071258415E+02  0.10000000000E+01 0.  0.
    9000005    1    3    3    0    0  0.48933240935E+02  0.36195416792E+02  0.11172443509E+03  0.12723175571E+03  0.10000000000E+01 0.  0.
         21    1    1    2  502  501 -0.17261443358E+02 -0.16008446370E+02  0.58103043476E+02  0.62691238966E+02  0.00000000000E+00 0. -1.
<mgrwt>
<rscale>  1 0.12719595E+03</rscale>
<asrwt>0</asrwt>
<pdfrwt beam="1">  1        4 0.30128709E-01 0.12719595E+03</pdfrwt>
<pdfrwt beam="2">  1       -4 0.49473297E-02 0.12719595E+03</pdfrwt>
<totfact> 0.41263073E+03</totfact>
</mgrwt>
</event>
<event>
 6    4  0.5642870E-004  0.1351735E+03  0.7818608E-02  0.1219975E+00
          4   -1    0    0  502    0  0.00000000000E+00  0.00000000000E+00  0.18120260366E+03  0.18120705415E+03  0.12700000000E+01 0.  1.
         -4   -1    0    0    0  501 -0.00000000000E+00 -0.00000000000E+00 -0.48133062620E+02  0.48149814301E+02  0.12700000000E+01 0.  1.
         25    2    1    2    0    0  0.28046977115E+02 -0.43120888069E+02  0.91651469478E+02  0.16331521065E+03  0.12500328899E+03 0.  0.
    9000005    1    3    3    0    0 -0.41893273279E+02  0.12607904315E+02  0.43672635468E+02  0.61824790222E+02  0.10000000000E+01 0.  0.
    9000005    1    3    3    0    0  0.69940250394E+02 -0.55728792384E+02  0.47978834010E+02  0.10149042043E+03  0.10000000000E+01 0.  0.
         21    1    1    2  502  501 -0.28046977115E+02  0.43120888069E+02  0.41418071564E+02  0.66041657802E+02  0.00000000000E+00 0.  1.
<mgrwt>
<rscale>  1 0.13517347E+03</rscale>
<asrwt>0</asrwt>
<pdfrwt beam="1">  1        4 0.27878954E-01 0.13517347E+03</pdfrwt>
<pdfrwt beam="2">  1       -4 0.74067176E-02 0.13517347E+03</pdfrwt>
<totfact> 0.25140908E+03</totfact>
</mgrwt>
</event>
<event>
 6    4  0.5642870E-004  0.1477796E+03  0.7818608E-02  0.1203228E+00
          4   -1    0    0  502    0  0.00000000000E+00  0.00000000000E+00  0.24580174572E+03  0.24580502659E+03  0.12700000000E+01 0.  1.
         -4   -1    0    0    0  501 -0.00000000000E+00 -0.00000000000E+00 -0.52618814253E+02  0.52634138289E+02  0.12700000000E+01 0.  1.
         25    2    1    2    0    0  0.50023075732E+02 -0.60856602480E+02  0.11298745658E+03  0.18602409310E+03  0.12503185074E+03 0.  0.
    9000005    1    3    3    0    0  0.74177434299E+02 -0.65899415279E+02  0.36629747826E+02  0.10577222281E+03  0.10000000000E+01 0.  0.
    9000005    1    3    3    0    0 -0.24154358567E+02  0.50428127994E+01  0.76357708750E+02  0.80251870285E+02  0.10000000000E+01 0.  0.
         21    1    1    2  502  501 -0.50023075732E+02  0.60856602480E+02  0.80195474887E+02  0.11241507178E+03  0.00000000000E+00 0.  1.
<mgrwt>
<rscale>  1 0.14777956E+03</rscale>
<asrwt>0</asrwt>
<pdfrwt beam="1">  1        4 0.37817084E-01 0.14777956E+03</pdfrwt>
<pdfrwt beam="2">  1       -4 0.80966335E-02 0.14777956E+03</pdfrwt>
<totfact> 0.12347335E+03</totfact>
</mgrwt>
</event>
<event>
 6    4  0.5642870E-004  0.1272039E+03  0.7818608E-02  0.1231665E+00
         -4   -1    0    0    0  501 -0.00000000000E+00  0.00000000000E+00  0.81482798568E+02  0.81492695148E+02  0.12700000000E+01 0. -1.
          4   -1    0    0  502    0  0.00000000000E+00 -0.00000000000E+00 -0.25622684850E+03  0.25622999589E+03  0.12700000000E+01 0. -1.
         25    2    1    2    0    0 -0.16534783802E+02 -0.16808945222E+02  0.30760161231E+02  0.13087027862E+03  0.12499961037E+03 0.  0.
    9000005    1    3    3    0    0  0.43646714391E+01 -0.27130666354E+02 -0.44370620156E+02  0.52200338568E+02  0.10000000000E+01 0.  0.
    9000005    1    3    3    0    0 -0.20899455241E+02  0.10321721132E+02  0.75130781387E+02  0.78669940055E+02  0.10000000000E+01 0.  0.
         21    1    1    2  502  501  0.16534783802E+02  0.16808945222E+02 -0.20550421117E+03  0.20685241241E+03  0.00000000000E+00 0. -1.
<mgrwt>
<rscale>  1 0.12720394E+03</rscale>
<asrwt>0</asrwt>
<pdfrwt beam="2">  1        4 0.39420518E-01 0.12720394E+03</pdfrwt>
<pdfrwt beam="1">  1       -4 0.12536819E-01 0.12720394E+03</pdfrwt>
<totfact> 0.52809448E+02</totfact>
</mgrwt>
</event>
<event>
 6    4  0.5642870E-004  0.1269895E+03  0.7818608E-02  0.1231992E+00
         -4   -1    0    0    0  501 -0.00000000000E+00  0.00000000000E+00  0.20981733762E+03  0.20982118117E+03  0.12700000000E+01 0.  1.
          4   -1    0    0  502    0  0.00000000000E+00 -0.00000000000E+00 -0.27481910087E+02  0.27511239195E+02  0.12700000000E+01 0.  1.
         25    2    1    2    0    0 -0.50227227516E+01 -0.21821179161E+02  0.13721094445E+03  0.18695771860E+03  0.12499981466E+03 0.  0.
    9000005    1    3    3    0    0  0.23091760310E+02 -0.11619748166E+02 -0.16287127522E+02  0.30569894743E+02  0.10000000000E+01 0.  0.
    9000005    1    3    3    0    0 -0.28114483061E+02 -0.10201430995E+02  0.15349807197E+03  0.15638782386E+03  0.10000000000E+01 0.  0.
         21    1    1    2  502  501  0.50227227516E+01  0.21821179161E+02  0.45124483086E+02  0.50374701762E+02  0.00000000000E+00 0.  1.
<mgrwt>
<rscale>  1 0.12698955E+03</rscale>
<asrwt>0</asrwt>
<pdfrwt beam="2">  1        4 0.42305380E-02 0.12698955E+03</pdfrwt>
<pdfrwt beam="1">  1       -4 0.32282142E-01 0.12698955E+03</pdfrwt>
<totfact> 0.46463189E+03</totfact>
</mgrwt>
</event>
<event>
 6    4  0.5642870E-004  0.1318597E+03  0.7818608E-02  0.1224722E+00
         -4   -1    0    0    0  501 -0.00000000000E+00  0.00000000000E+00  0.28503102350E+02  0.28531381733E+02  0.12700000000E+01 0.  1.
          4   -1    0    0  502    0  0.00000000000E+00 -0.00000000000E+00 -0.28223659024E+03  0.28223944758E+03  0.12700000000E+01 0.  1.
         25    2    1    2    0    0 -0.20318603127E+02 -0.36732008003E+02 -0.15509471780E+03  0.20357151490E+03  0.12499961658E+03 0.  0.
    9000005    1    3    3    0    0 -0.55400453824E+02  0.69822548678E+01 -0.23607126184E+02  0.60632157917E+02  0.10000000000E+01 0.  0.
    9000005    1    3    3    0    0  0.35081850697E+02 -0.43714262871E+02 -0.13148759161E+03  0.14293935698E+03  0.10000000000E+01 0.  0.
         21    1    1    2  502  501  0.20318603127E+02  0.36732008003E+02 -0.98638770091E+02  0.10719931441E+03  0.00000000000E+00 0.  1.
<mgrwt>
<rscale>  1 0.13185974E+03</rscale>
<asrwt>0</asrwt>
<pdfrwt beam="2">  1        4 0.43423407E-01 0.13185974E+03</pdfrwt>
<pdfrwt beam="1">  1       -4 0.43874880E-02 0.13185974E+03</pdfrwt>
<totfact> 0.24839588E+03</totfact>
</mgrwt>
</event>
<event>
 6    4  0.5642870E-004  0.1284035E+03  0.7818608E-02  0.1229844E+00
         -4   -1    0    0    0  501 -0.00000000000E+00  0.00000000000E+00  0.79772689570E+01  0.80777298798E+01  0.12700000000E+01 0.  1.
          4   -1    0    0  502    0  0.00000000000E+00 -0.00000000000E+00 -0.11520093267E+04  0.11520100268E+04  0.12700000000E+01 0.  1.
         25    2    1    2    0    0 -0.18381357210E+02 -0.22894873868E+02 -0.52919670410E+03  0.54455176122E+03  0.12500167788E+03 0.  0.
    9000005    1    3    3    0    0 -0.42178624760E+02  0.96333275598E+01 -0.47518986793E+03  0.47715641877E+03  0.10000000000E+01 0.  0.
    9000005    1    3    3    0    0  0.23797267550E+02 -0.32528201428E+02 -0.54006836165E+02  0.67395342447E+02  0.10000000000E+01 0.  0.
         21    1    1    2  502  501  0.18381357210E+02  0.22894873868E+02 -0.61483535367E+03  0.61553599542E+03  0.00000000000E+00 0.  1.
<mgrwt>
<rscale>  1 0.12840354E+03</rscale>
<asrwt>0</asrwt>
<pdfrwt beam="2">  1        4 0.17723985E+00 0.12840354E+03</pdfrwt>
<pdfrwt beam="1">  1       -4 0.12350547E-02 0.12840354E+03</pdfrwt>
<totfact> 0.71841168E+02</totfact>
</mgrwt>
</event>
<event>
 6    4  0.5642870E-004  0.1279751E+03  0.7818608E-02  0.1230492E+00
         -4   -1    0    0    0  501 -0.00000000000E+00  0.00000000000E+00  0.80381714938E+02  0.80391747066E+02  0.12700000000E+01 0.  1.
          4   -1    0    0  502    0  0.00000000000E+00 -0.00000000000E+00 -0.75269313430E+02  0.75280026861E+02  0.12700000000E+01 0.  1.
         25    2    1    2    0    0  0.27430776772E+02  0.15784703924E+00  0.70739703792E+01  0.12817049791E+03  0.12500065219E+03 0.  0.
    9000005    1    3    3    0    0 -0.55858277185E+01  0.26057216779E+02 -0.50388319069E+02  0.57010198352E+02  0.10000000000E+01 0.  0.
    9000005    1    3    3    0    0  0.33016604490E+02 -0.25899369739E+02  0.57462289448E+02  0.71160299561E+02  0.10000000000E+01 0.  0.
         21    1    1    2  502  501 -0.27430776772E+02 -0.15784703924E+00 -0.19615688716E+01  0.27501276015E+02  0.00000000000E+00 0.  1.
<mgrwt>
<rscale>  1 0.12797514E+03</rscale>
<asrwt>0</asrwt>
<pdfrwt beam="2">  1        4 0.11581490E-01 0.12797514E+03</pdfrwt>
<pdfrwt beam="1">  1       -4 0.12368013E-01 0.12797514E+03</pdfrwt>
<totfact> 0.50131910E+03</totfact>
</mgrwt>
</event>
<event>
 6    4  0.5642870E-004  0.1266344E+03  0.7818608E-02  0.1232537E+00
         -4   -1    0    0    0  501 -0.00000000000E+00  0.00000000000E+00  0.26594047552E+02  0.26624354738E+02  0.12700000000E+01 0.  1.
          4   -1    0    0  502    0  0.00000000000E+00 -0.00000000000E+00 -0.23417249832E+03  0.23417594212E+03  0.12700000000E+01 0.  1.
         25    2    1    2    0    0  0.15638330906E+02  0.12919594585E+02 -0.13355058264E+03  0.18404354747E+03  0.12499918369E+03 0.  0.
    9000005    1    3    3    0    0 -0.28395957869E+02  0.46243491148E+02 -0.11255229919E+03  0.12495523578E+03  0.10000000000E+01 0.  0.
    9000005    1    3    3    0    0  0.44034288775E+02 -0.33323896563E+02 -0.20998283453E+02  0.59088311687E+02  0.10000000000E+01 0.  0.
         21    1    1    2  502  501 -0.15638330906E+02 -0.12919594585E+02 -0.74027868126E+02  0.76756749390E+02  0.00000000000E+00 0.  1.
<mgrwt>
<rscale>  1 0.12663439E+03</rscale>
<asrwt>0</asrwt>
<pdfrwt beam="2">  1        4 0.36029133E-01 0.12663439E+03</pdfrwt>
<pdfrwt beam="1">  1       -4 0.40939883E-02 0.12663439E+03</pdfrwt>
<totfact> 0.39615619E+03</totfact>
</mgrwt>
</event>
<event>
 6    4  0.5642870E-004  0.1344084E+03  0.7818608E-02  0.1221057E+00
         -4   -1    0    0    0  501 -0.00000000000E+00  0.00000000000E+00  0.21715376944E+02  0.21752482521E+02  0.12700000000E+01 0. -1.
          4   -1    0    0  502    0  0.00000000000E+00 -0.00000000000E+00 -0.39395681321E+03  0.39395886025E+03  0.12700000000E+01 0. -1.
         25    2    1    2    0    0 -0.40484584120E+02 -0.28235820809E+02 -0.29294640536E+03  0.32230917442E+03  0.12501737628E+03 0.  0.
    9000005    1    3    3    0    0 -0.45834326027E+02  0.10668325445E+02 -0.27521258040E+03  0.27920881616E+03  0.10000000000E+01 0.  0.
    9000005    1    3    3    0    0  0.53497419073E+01 -0.38904146254E+02 -0.17733824958E+02  0.43100358257E+02  0.10000000000E+01 0.  0.
         21    1    1    2  502  501  0.40484584120E+02  0.28235820809E+02 -0.79295030901E+02  0.93402168356E+02  0.00000000000E+00 0. -1.
<mgrwt>
<rscale>  1 0.13440836E+03</rscale>
<asrwt>0</asrwt>
<pdfrwt beam="2">  1        4 0.60611747E-01 0.13440836E+03</pdfrwt>
<pdfrwt beam="1">  1       -4 0.33438392E-02 0.13440836E+03</pdfrwt>
<totfact> 0.19393829E+03</totfact>
</mgrwt>
</event>
<event>
 6    4  0.5642870E-004  0.1270258E+03  0.7818608E-02  0.1231937E+00
          4   -1    0    0  502    0  0.00000000000E+00  0.00000000000E+00  0.77692794836E+02  0.77703174127E+02  0.12700000000E+01 0. -1.
         -4   -1    0    0    0  501 -0.00000000000E+00 -0.00000000000E+00 -0.99328415718E+02  0.99336534412E+02  0.12700000000E+01 0. -1.
         25    2    1    2    0    0 -0.11732153070E+02  0.19329548219E+02 -0.53612307542E+02  0.13787616248E+03  0.12499712721E+03 0.  0.
    9000005    1    3    3    0    0 -0.67873944290E+02  0.13058906712E+01 -0.32131151141E+02  0.75113171532E+02  0.10000000000E+01 0.  0.
    9000005    1    3    3    0    0  0.56141791220E+02  0.18023657547E+02 -0.21481156401E+02  0.62762990950E+02  0.10000000000E+01 0.  0.
         21    1    1    2  502  501  0.11732153070E+02 -0.19329548219E+02  0.31976686660E+02  0.39163546057E+02  0.00000000000E+00 0. -1.
<mgrwt>
<rscale>  1 0.12702581E+03</rscale>
<asrwt>0</asrwt>
<pdfrwt beam="1">  1        4 0.11954161E-01 0.12702581E+03</pdfrwt>
<pdfrwt beam="2">  1       -4 0.15282718E-01 0.12702581E+03</pdfrwt>
<totfact> 0.32878352E+03</totfact>
</mgrwt>
</event>
<event>
 6    4  0.5642870E-004  0.1444473E+03  0.7818608E-02  0.1207467E+00
         -4   -1    0    0    0  501 -0.00000000000E+00  0.00000000000E+00  0.31114740197E+03  0.31114999382E+03  0.12700000000E+01 0.  1.
          4   -1    0    0  502    0  0.00000000000E+00 -0.00000000000E+00 -0.41772180445E+02  0.41791481897E+02  0.12700000000E+01 0.  1.
         25    2    1    2    0    0  0.70407122159E+02 -0.16802210507E+02  0.22701289478E+03  0.26907226888E+03  0.12500221739E+03 0.  0.
    9000005    1    3    3    0    0  0.34091045939E+02 -0.70856570246E+02  0.13706560681E+03  0.15802162362E+03  0.10000000000E+01 0.  0.
    9000005    1    3    3    0    0  0.36316076220E+02  0.54054359739E+02  0.89947287973E+02  0.11105064526E+03  0.10000000000E+01 0.  0.
         21    1    1    2  502  501 -0.70407122159E+02  0.16802210507E+02  0.42362326740E+02  0.83869206837E+02  0.00000000000E+00 0.  1.
<mgrwt>
<rscale>  1 0.14444733E+03</rscale>
<asrwt>0</asrwt>
<pdfrwt beam="2">  1        4 0.64281736E-02 0.14444733E+03</pdfrwt>
<pdfrwt beam="1">  1       -4 0.47870514E-01 0.14444733E+03</pdfrwt>
<totfact> 0.11244595E+03</totfact>
</mgrwt>
</event>
<event>
 6    4  0.5642870E-004  0.1309734E+03  0.7818608E-02  0.1226018E+00
         -4   -1    0    0    0  501 -0.00000000000E+00  0.00000000000E+00  0.78147987457E+01  0.79173214811E+01  0.12700000000E+01 0.  1.
          4   -1    0    0  502    0  0.00000000000E+00 -0.00000000000E+00 -0.12935807997E+04  0.12935814232E+04  0.12700000000E+01 0.  1.
         25    2    1    2    0    0 -0.36725125470E+02  0.13425889769E+02 -0.57799882366E+03  0.59265224034E+03  0.12500019388E+03 0.  0.
    9000005    1    3    3    0    0  0.77537169785E+01 -0.51325762546E+02 -0.25556759225E+03  0.26078774557E+03  0.10000000000E+01 0.  0.
    9000005    1    3    3    0    0 -0.44478842448E+02  0.64751652316E+02 -0.32243123141E+03  0.33186449477E+03  0.10000000000E+01 0.  0.
         21    1    1    2  502  501  0.36725125470E+02 -0.13425889769E+02 -0.70776717734E+03  0.70884650431E+03  0.00000000000E+00 0.  1.
<mgrwt>
<rscale>  1 0.13097342E+03</rscale>
<asrwt>0</asrwt>
<pdfrwt beam="2">  1        4 0.19902020E+00 0.13097342E+03</pdfrwt>
<pdfrwt beam="1">  1       -4 0.12102121E-02 0.13097342E+03</pdfrwt>
<totfact> 0.53935233E+02</totfact>
</mgrwt>
</event>
<event>
 6    4  0.5642870E-004  0.1286457E+03  0.7818608E-02  0.1229479E+00
          4   -1    0    0  502    0  0.00000000000E+00  0.00000000000E+00  0.11217042695E+03  0.11217761622E+03  0.12700000000E+01 0. -1.
         -4   -1    0    0    0  501 -0.00000000000E+00 -0.00000000000E+00 -0.56394129303E+02  0.56408427738E+02  0.12700000000E+01 0. -1.
         25    2    1    2    0    0 -0.27152187674E+02 -0.13668531168E+02  0.43480157691E+02  0.13579480889E+03  0.12500254385E+03 0.  0.
    9000005    1    3    3    0    0 -0.62796166397E+02 -0.35514339556E+02  0.56888465115E+02  0.91879944990E+02  0.10000000000E+01 0.  0.
    9000005    1    3    3    0    0  0.35643978722E+02  0.21845808387E+02 -0.13408307424E+02  0.43914863899E+02  0.10000000000E+01 0.  0.
         21    1    1    2  502  501  0.27152187674E+02  0.13668531168E+02  0.12296139954E+02  0.32791235072E+02  0.00000000000E+00 0.  1.
<mgrwt>
<rscale>  1 0.12864566E+03</rscale>
<asrwt>0</asrwt>
<pdfrwt beam="1">  1        4 0.17258641E-01 0.12864566E+03</pdfrwt>
<pdfrwt beam="2">  1       -4 0.86776729E-02 0.12864566E+03</pdfrwt>
<totfact> 0.45703121E+03</totfact>
</mgrwt>
</event>
<event>
 6    4  0.5642870E-004  0.1279390E+03  0.7818608E-02  0.1230546E+00
         -4   -1    0    0    0  501 -0.00000000000E+00  0.00000000000E+00  0.14814093975E+03  0.14814638345E+03  0.12700000000E+01 0.  1.
          4   -1    0    0  502    0  0.00000000000E+00 -0.00000000000E+00 -0.43864969756E+02  0.43883350735E+02  0.12700000000E+01 0.  1.
         25    2    1    2    0    0  0.12843733759E+02  0.24049625921E+02  0.10381696183E+03  0.16476149823E+03  0.12500017493E+03 0.  0.
    9000005    1    3    3    0    0  0.29488942250E+01 -0.32067653805E+02 -0.13032383751E+02  0.34754473438E+02  0.10000000000E+01 0.  0.
    9000005    1    3    3    0    0  0.98948395338E+01  0.56117279726E+02  0.11684934558E+03  0.13000702479E+03  0.10000000000E+01 0.  0.
         21    1    1    2  502  501 -0.12843733759E+02 -0.24049625921E+02  0.45900816904E+00  0.27268235959E+02  0.00000000000E+00 0.  1.
<mgrwt>
<rscale>  1 0.12793901E+03</rscale>
<asrwt>0</asrwt>
<pdfrwt beam="2">  1        4 0.67502896E-02 0.12793901E+03</pdfrwt>
<pdfrwt beam="1">  1       -4 0.22792746E-01 0.12793901E+03</pdfrwt>
<totfact> 0.41920869E+03</totfact>
</mgrwt>
</event>
<event>
 6    4  0.5642870E-004  0.1283556E+03  0.7818608E-02  0.1229916E+00
         -4   -1    0    0    0  501 -0.00000000000E+00  0.00000000000E+00  0.14550916576E+02  0.14606234053E+02  0.12700000000E+01 0.  1.
          4   -1    0    0  502    0  0.00000000000E+00 -0.00000000000E+00 -0.49564457662E+03  0.49564620369E+03  0.12700000000E+01 0.  1.
         25    2    1    2    0    0  0.27873175776E+02 -0.87265891343E+01 -0.29268006214E+03  0.31958846328E+03  0.12498839865E+03 0.  0.
    9000005    1    3    3    0    0 -0.27914881368E+01  0.14063278890E+02 -0.27842768261E+03  0.27879839071E+03  0.10000000000E+01 0.  0.
    9000005    1    3    3    0    0  0.30664663913E+02 -0.22789868024E+02 -0.14252379532E+02  0.40790072564E+02  0.10000000000E+01 0.  0.
         21    1    1    2  502  501 -0.27873175776E+02  0.87265891343E+01 -0.18841359790E+03  0.19066397447E+03  0.00000000000E+00 0.  1.
<mgrwt>
<rscale>  1 0.12835563E+03</rscale>
<asrwt>0</asrwt>
<pdfrwt beam="2">  1        4 0.76257379E-01 0.12835563E+03</pdfrwt>
<pdfrwt beam="1">  1       -4 0.22429833E-02 0.12835563E+03</pdfrwt>
<totfact> 0.21856261E+03</totfact>
</mgrwt>
</event>
<event>
 6    4  0.5642870E-004  0.1291270E+03  0.7818608E-02  0.1228757E+00
         -4   -1    0    0    0  501 -0.00000000000E+00  0.00000000000E+00  0.30994838274E+03  0.30995098461E+03  0.12700000000E+01 0. -1.
          4   -1    0    0  502    0  0.00000000000E+00 -0.00000000000E+00 -0.25707386687E+02  0.25738737931E+02  0.12700000000E+01 0. -1.
         25    2    1    2    0    0 -0.56895296881E+01 -0.31875194878E+02  0.27196322035E+03  0.30106108450E+03  0.12500153831E+03 0.  0.
    9000005    1    3    3    0    0 -0.23950191632E+02 -0.28838388431E+02  0.10501337735E+02  0.38942809615E+02  0.10000000000E+01 0.  0.
    9000005    1    3    3    0    0  0.18260661944E+02 -0.30368064469E+01  0.26146188261E+03  0.26211827488E+03  0.10000000000E+01 0.  0.
         21    1    1    2  502  501  0.56895296881E+01  0.31875194878E+02  0.12277775701E+02  0.34628638043E+02  0.00000000000E+00 0. -1.
<mgrwt>
<rscale>  1 0.12912700E+03</rscale>
<asrwt>0</asrwt>
<pdfrwt beam="2">  1        4 0.39575944E-02 0.12912700E+03</pdfrwt>
<pdfrwt beam="1">  1       -4 0.47686978E-01 0.12912700E+03</pdfrwt>
<totfact> 0.24135603E+03</totfact>
</mgrwt>
</event>
<event>
 6    4  0.5642870E-004  0.2073316E+03  0.7818608E-02  0.1143697E+00
          4   -1    0    0  502    0  0.00000000000E+00  0.00000000000E+00  0.98958956258E+02  0.98967105261E+02  0.12700000000E+01 0. -1.
         -4   -1    0    0    0  501 -0.00000000000E+00 -0.00000000000E+00 -0.36848659668E+03  0.36848878522E+03  0.12700000000E+01 0. -1.
         25    2    1    2    0    0  0.16524164301E+03 -0.74865744095E+01 -0.19984581009E+03  0.28796659593E+03  0.12500225268E+03 0.  0.
    9000005    1    3    3    0    0  0.14134465155E+02 -0.33409023224E+02 -0.26020745814E+00  0.36290682633E+02  0.10000000000E+01 0.  0.
    9000005    1    3    3    0    0  0.15110717786E+03  0.25922448815E+02 -0.19958560264E+03  0.25167591329E+03  0.10000000000E+01 0.  0.
         21    1    1    2  502  501 -0.16524164301E+03  0.74865744095E+01 -0.69681830327E+02  0.17948929455E+03  0.00000000000E+00 0. -1.
<mgrwt>
<rscale>  1 0.20733165E+03</rscale>
<asrwt>0</asrwt>
<pdfrwt beam="1">  1        4 0.15225250E-01 0.20733165E+03</pdfrwt>
<pdfrwt beam="2">  1       -4 0.56691040E-01 0.20733165E+03</pdfrwt>
<totfact> 0.19620452E+02</totfact>
</mgrwt>
</event>
<event>
 6    4  0.5642870E-004  0.1270742E+03  0.7818608E-02  0.1231863E+00
          4   -1    0    0  502    0  0.00000000000E+00  0.00000000000E+00  0.62923418763E+02  0.62936233831E+02  0.12700000000E+01 0. -1.
         -4   -1    0    0    0  501 -0.00000000000E+00 -0.00000000000E+00 -0.97683859989E+02  0.97692115354E+02  0.12700000000E+01 0. -1.
         25    2    1    2    0    0 -0.20761411752E+02  0.96805726739E+01 -0.45959415786E+02  0.13512998186E+03  0.12499237734E+03 0.  0.
    9000005    1    3    3    0    0  0.13075810529E+02  0.38611222847E+02  0.27530885087E+02  0.49201148202E+02  0.10000000000E+01 0.  0.
    9000005    1    3    3    0    0 -0.33837222280E+02 -0.28930650173E+02 -0.73490300872E+02  0.85928833656E+02  0.10000000000E+01 0.  0.
         21    1    1    2  502  501  0.20761411752E+02 -0.96805726739E+01  0.11198974560E+02  0.25498367328E+02  0.00000000000E+00 0. -1.
<mgrwt>
<rscale>  1 0.12707417E+03</rscale>
<asrwt>0</asrwt>
<pdfrwt beam="1">  1        4 0.96821467E-02 0.12707417E+03</pdfrwt>
<pdfrwt beam="2">  1       -4 0.15029907E-01 0.12707417E+03</pdfrwt>
<totfact> 0.48366965E+03</totfact>
</mgrwt>
</event>
<event>
 6    4  0.5642870E-004  0.1277860E+03  0.7818608E-02  0.1230778E+00
         -4   -1    0    0    0  501 -0.00000000000E+00  0.00000000000E+00  0.12306774252E+02  0.12372129666E+02  0.12700000000E+01 0.  1.
          4   -1    0    0  502    0  0.00000000000E+00 -0.00000000000E+00 -0.48264287021E+03  0.48264454111E+03  0.12700000000E+01 0.  1.
         25    2    1    2    0    0  0.20295429665E+02  0.17106968402E+02 -0.38598937534E+03  0.40659200164E+03  0.12499882035E+03 0.  0.
    9000005    1    3    3    0    0 -0.35624236338E+02 -0.14487419838E+02 -0.43244418356E+02  0.57879627393E+02  0.10000000000E+01 0.  0.
    9000005    1    3    3    0    0  0.55919666003E+02  0.31594388240E+02 -0.34274495699E+03  0.34871237425E+03  0.10000000000E+01 0.  0.
         21    1    1    2  502  501 -0.20295429665E+02 -0.17106968402E+02 -0.84346720618E+02  0.88424669139E+02  0.00000000000E+00 0.  1.
<mgrwt>
<rscale>  1 0.12778598E+03</rscale>
<asrwt>0</asrwt>
<pdfrwt beam="2">  1        4 0.74257890E-01 0.12778598E+03</pdfrwt>
<pdfrwt beam="1">  1       -4 0.18985061E-02 0.12778598E+03</pdfrwt>
<totfact> 0.29913394E+03</totfact>
</mgrwt>
</event>
<event>
 6    4  0.5642870E-004  0.1307149E+03  0.7818608E-02  0.1226399E+00
          4   -1    0    0  502    0  0.00000000000E+00  0.00000000000E+00  0.16540742272E+03  0.16541229819E+03  0.12700000000E+01 0. -1.
         -4   -1    0    0    0  501 -0.00000000000E+00 -0.00000000000E+00 -0.47271013270E+02  0.47288070330E+02  0.12700000000E+01 0. -1.
         25    2    1    2    0    0  0.26303960463E+02 -0.27721545857E+02  0.61705635954E+02  0.14454749155E+03  0.12500403740E+03 0.  0.
    9000005    1    3    3    0    0 -0.15216122277E+02  0.29450791863E+02 -0.18238418323E+02  0.37848638303E+02  0.10000000000E+01 0.  0.
    9000005    1    3    3    0    0  0.41520082739E+02 -0.57172337719E+02  0.79944054277E+02  0.10669885325E+03  0.10000000000E+01 0.  0.
         21    1    1    2  502  501 -0.26303960463E+02  0.27721545857E+02  0.56430773499E+02  0.68152876964E+02  0.00000000000E+00 0. -1.
<mgrwt>
<rscale>  1 0.13071493E+03</rscale>
<asrwt>0</asrwt>
<pdfrwt beam="1">  1        4 0.25448983E-01 0.13071493E+03</pdfrwt>
<pdfrwt beam="2">  1       -4 0.72741506E-02 0.13071493E+03</pdfrwt>
<totfact> 0.30449352E+03</totfact>
</mgrwt>
</event>
<event>
 6    4  0.5642870E-004  0.1272550E+03  0.7818608E-02  0.1231587E+00
          4   -1    0    0  502    0  0.00000000000E+00  0.00000000000E+00  0.11015945291E+04  0.11015952612E+04  0.12700000000E+01 0. -1.
         -4   -1    0    0    0  501 -0.00000000000E+00 -0.00000000000E+00 -0.51043463502E+01  0.52599668880E+01  0.12700000000E+01 0. -1.
         25    2    1    2    0    0  0.20348248623E+01 -0.23760205960E+02  0.91684432342E+03  0.92563347806E+03  0.12500053768E+03 0.  0.
    9000005    1    3    3    0    0 -0.40416285483E+02 -0.58175921923E+02  0.44000901642E+03  0.44567572130E+03  0.10000000000E+01 0.  0.
    9000005    1    3    3    0    0  0.42451110345E+02  0.34415715963E+02  0.47683530700E+03  0.47995775676E+03  0.10000000000E+01 0.  0.
         21    1    1    2  502  501 -0.20348248623E+01  0.23760205960E+02  0.17964585933E+03  0.18122175000E+03  0.00000000000E+00 0. -1.
<mgrwt>
<rscale>  1 0.12725495E+03</rscale>
<asrwt>0</asrwt>
<pdfrwt beam="1">  1        4 0.16948821E+00 0.12725495E+03</pdfrwt>
<pdfrwt beam="2">  1       -4 0.79731069E-03 0.12725495E+03</pdfrwt>
<totfact> 0.15606564E+03</totfact>
</mgrwt>
</event>
<event>
 6    4  0.5642870E-004  0.1275750E+03  0.7818608E-02  0.1231099E+00
         -4   -1    0    0    0  501 -0.00000000000E+00  0.00000000000E+00  0.62721491438E+03  0.62721620014E+03  0.12700000000E+01 0.  1.
          4   -1    0    0  502    0  0.00000000000E+00 -0.00000000000E+00 -0.97345651722E+01  0.98170595950E+01  0.12700000000E+01 0.  1.
         25    2    1    2    0    0  0.24973518980E+02 -0.51013830166E+01  0.55658365613E+03  0.57101729208E+03  0.12500272323E+03 0.  0.
    9000005    1    3    3    0    0 -0.35313953238E+02  0.30850305645E+02  0.34302100812E+03  0.34621269281E+03  0.10000000000E+01 0.  0.
    9000005    1    3    3    0    0  0.60287472218E+02 -0.35951688662E+02  0.21356264802E+03  0.22480459927E+03  0.10000000000E+01 0.  0.
         21    1    1    2  502  501 -0.24973518980E+02  0.51013830166E+01  0.60896693075E+02  0.66015967662E+02  0.00000000000E+00 0.  1.
<mgrwt>
<rscale>  1 0.12757500E+03</rscale>
<asrwt>0</asrwt>
<pdfrwt beam="2">  1        4 0.15040695E-02 0.12757500E+03</pdfrwt>
<pdfrwt beam="1">  1       -4 0.96501083E-01 0.12757500E+03</pdfrwt>
<totfact> 0.23792917E+03</totfact>
</mgrwt>
</event>
<event>
 6    4  0.5642870E-004  0.1277658E+03  0.7818608E-02  0.1230809E+00
          4   -1    0    0  502    0  0.00000000000E+00  0.00000000000E+00  0.22787674487E+03  0.22788028382E+03  0.12700000000E+01 0. -1.
         -4   -1    0    0    0  501 -0.00000000000E+00 -0.00000000000E+00 -0.26133703309E+02  0.26164543731E+02  0.12700000000E+01 0. -1.
         25    2    1    2    0    0 -0.23835276808E+02 -0.11466004643E+02  0.16233666174E+03  0.20658481856E+03  0.12499802330E+03 0.  0.
    9000005    1    3    3    0    0 -0.18543575064E+02  0.10539770322E+02  0.17784997546E+03  0.17912723050E+03  0.10000000000E+01 0.  0.
    9000005    1    3    3    0    0 -0.52917017446E+01 -0.22005774965E+02 -0.15513313722E+02  0.27457588055E+02  0.10000000000E+01 0.  0.
         21    1    1    2  502  501  0.23835276808E+02  0.11466004643E+02  0.39406379819E+02  0.47460008991E+02  0.00000000000E+00 0.  1.
<mgrwt>
<rscale>  1 0.12776578E+03</rscale>
<asrwt>0</asrwt>
<pdfrwt beam="1">  1        4 0.35060604E-01 0.12776578E+03</pdfrwt>
<pdfrwt beam="2">  1       -4 0.40232144E-02 0.12776578E+03</pdfrwt>
<totfact> 0.43023341E+03</totfact>
</mgrwt>
</event>
<event>
 6    4  0.5642870E-004  0.1488406E+03  0.7818608E-02  0.1201905E+00
          4   -1    0    0  502    0  0.00000000000E+00  0.00000000000E+00  0.61603683448E+01  0.62899155912E+01  0.12700000000E+01 0. -1.
         -4   -1    0    0    0  501 -0.00000000000E+00 -0.00000000000E+00 -0.22279694665E+04  0.22279698285E+04  0.12700000000E+01 0. -1.
         25    2    1    2    0    0 -0.80767137101E+02 -0.25716005938E+00 -0.16624464058E+04  0.16690960349E+04  0.12502049810E+03 0.  0.
    9000005    1    3    3    0    0  0.11983884445E+02 -0.23901904180E+02 -0.93450263431E+03  0.93488560158E+03  0.10000000000E+01 0.  0.
    9000005    1    3    3    0    0 -0.92751021546E+02  0.23644744120E+02 -0.72794377153E+03  0.73421043334E+03  0.10000000000E+01 0.  0.
         21    1    1    2  502  501  0.80767137101E+02  0.25716005938E+00 -0.55936269232E+03  0.56516370914E+03  0.00000000000E+00 0.  1.
<mgrwt>
<rscale>  1 0.14884059E+03</rscale>
<asrwt>0</asrwt>
<pdfrwt beam="1">  1        4 0.95774377E-03 0.14884059E+03</pdfrwt>
<pdfrwt beam="2">  1       -4 0.34277389E+00 0.14884059E+03</pdfrwt>
<totfact> 0.11200442E+02</totfact>
</mgrwt>
</event>
<event>
 6    4  0.5642870E-004  0.1300963E+03  0.7818608E-02  0.1227313E+00
          4   -1    0    0  502    0  0.00000000000E+00  0.00000000000E+00  0.13106636050E+03  0.13107251335E+03  0.12700000000E+01 0. -1.
         -4   -1    0    0    0  501 -0.00000000000E+00 -0.00000000000E+00 -0.84163028430E+02  0.84172609883E+02  0.12700000000E+01 0. -1.
         25    2    1    2    0    0 -0.15499310686E+02  0.32510956940E+02 -0.27148772126E+02  0.13289887202E+03  0.12501145308E+03 0.  0.
    9000005    1    3    3    0    0  0.14471914585E+02 -0.71273902473E+00  0.45393912397E+02  0.47660797217E+02  0.10000000000E+01 0.  0.
    9000005    1    3    3    0    0 -0.29971225271E+02  0.33223695965E+02 -0.72542684522E+02  0.85238074799E+02  0.10000000000E+01 0.  0.
         21    1    1    2  502  501  0.15499310686E+02 -0.32510956940E+02  0.74052104197E+02  0.82346251213E+02  0.00000000000E+00 0. -1.
<mgrwt>
<rscale>  1 0.13009633E+03</rscale>
<asrwt>0</asrwt>
<pdfrwt beam="1">  1        4 0.20165266E-01 0.13009633E+03</pdfrwt>
<pdfrwt beam="2">  1       -4 0.12949369E-01 0.13009633E+03</pdfrwt>
<totfact> 0.17639288E+03</totfact>
</mgrwt>
</event>
<event>
 6    4  0.5642870E-004  0.1281991E+03  0.7818608E-02  0.1230153E+00
         -4   -1    0    0    0  501 -0.00000000000E+00  0.00000000000E+00  0.52603818685E+03  0.52603971991E+03  0.12700000000E+01 0. -1.
          4   -1    0    0  502    0  0.00000000000E+00 -0.00000000000E+00 -0.11724902915E+02  0.11793483301E+02  0.12700000000E+01 0. -1.
         25    2    1    2    0    0 -0.28467755945E+02  0.61916622330E+00  0.43820581312E+03  0.45657347390E+03  0.12499682362E+03 0.  0.
    9000005    1    3    3    0    0 -0.36317886831E+02 -0.39984224975E+02  0.38696673853E+03  0.39071982785E+03  0.10000000000E+01 0.  0.
    9000005    1    3    3    0    0  0.78501308854E+01  0.40603391198E+02  0.51239074598E+02  0.65853646045E+02  0.10000000000E+01 0.  0.
         21    1    1    2  502  501  0.28467755945E+02 -0.61916622330E+00  0.76107470809E+02  0.81259729314E+02  0.00000000000E+00 0. -1.
<mgrwt>
<rscale>  1 0.12819907E+03</rscale>
<asrwt>0</asrwt>
<pdfrwt beam="2">  1        4 0.18092242E-02 0.12819907E+03</pdfrwt>
<pdfrwt beam="1">  1       -4 0.80934363E-01 0.12819907E+03</pdfrwt>
<totfact> 0.26681583E+03</totfact>
</mgrwt>
</event>
<event>
 6    4  0.5642870E-004  0.1280150E+03  0.7818608E-02  0.1230431E+00
          4   -1    0    0  502    0  0.00000000000E+00  0.00000000000E+00  0.20626494545E+04  0.20626498455E+04  0.12700000000E+01 0.  1.
         -4   -1    0    0    0  501 -0.00000000000E+00 -0.00000000000E+00 -0.39707271984E+01  0.41688816826E+01  0.12700000000E+01 0.  1.
         25    2    1    2    0    0  0.17515930604E+01  0.27577990720E+02  0.10519241473E+04  0.10596849734E+04  0.12499686989E+03 0.  0.
    9000005    1    3    3    0    0 -0.36118212546E+02 -0.24546416635E+02  0.17399457187E+03  0.17939387639E+03  0.10000000000E+01 0.  0.
    9000005    1    3    3    0    0  0.37869805606E+02  0.52124407355E+02  0.87792957545E+03  0.88029109701E+03  0.10000000000E+01 0.  0.
         21    1    1    2  502  501 -0.17515930604E+01 -0.27577990720E+02  0.10067545800E+04  0.10071337538E+04  0.00000000000E+00 0. -1.
<mgrwt>
<rscale>  1 0.12801496E+03</rscale>
<asrwt>0</asrwt>
<pdfrwt beam="1">  1        4 0.31734616E+00 0.12801496E+03</pdfrwt>
<pdfrwt beam="2">  1       -4 0.62615344E-03 0.12801496E+03</pdfrwt>
<totfact> 0.29433603E+02</totfact>
</mgrwt>
</event>
<event>
 6    4  0.5642870E-004  0.1279128E+03  0.7818608E-02  0.1230586E+00
         -4   -1    0    0    0  501 -0.00000000000E+00  0.00000000000E+00  0.20014442401E+03  0.20014845331E+03  0.12700000000E+01 0. -1.
          4   -1    0    0  502    0  0.00000000000E+00 -0.00000000000E+00 -0.30084113725E+02  0.30110908300E+02  0.12700000000E+01 0. -1.
         25    2    1    2    0    0 -0.23998485830E+02 -0.12681556313E+02  0.14440238475E+03  0.19290861415E+03  0.12499974200E+03 0.  0.
    9000005    1    3    3    0    0  0.15009997947E+01  0.10263111524E+02 -0.21288072262E+02  0.23701613430E+02  0.10000000000E+01 0.  0.
    9000005    1    3    3    0    0 -0.25499485625E+02 -0.22944667837E+02  0.16569045701E+03  0.16920700072E+03  0.10000000000E+01 0.  0.
         21    1    1    2  502  501  0.23998485830E+02  0.12681556313E+02  0.25657925532E+02  0.37350747452E+02  0.00000000000E+00 0. -1.
<mgrwt>
<rscale>  1 0.12791280E+03</rscale>
<asrwt>0</asrwt>
<pdfrwt beam="2">  1        4 0.46306964E-02 0.12791280E+03</pdfrwt>
<pdfrwt beam="1">  1       -4 0.30793820E-01 0.12791280E+03</pdfrwt>
<totfact> 0.44080075E+03</totfact>
</mgrwt>
</event>
<event>
 6    4  0.5642870E-004  0.1296893E+03  0.7818608E-02  0.1227918E+00
          4   -1    0    0  502    0  0.00000000000E+00  0.00000000000E+00  0.23220880837E+03  0.23221228130E+03  0.12700000000E+01 0.  1.
         -4   -1    0    0    0  501 -0.00000000000E+00 -0.00000000000E+00 -0.31356418652E+02  0.31382126930E+02  0.12700000000E+01 0.  1.
         25    2    1    2    0    0 -0.66510139942E+01  0.33931426526E+02  0.12449469741E+03  0.17977272327E+03  0.12499489852E+03 0.  0.
    9000005    1    3    3    0    0  0.24101785282E+02 -0.31734623945E+02  0.92084966349E+02  0.10034253056E+03  0.10000000000E+01 0.  0.
    9000005    1    3    3    0    0 -0.30752799277E+02  0.65666050471E+02  0.32409731056E+02  0.79430192716E+02  0.10000000000E+01 0.  0.
         21    1    1    2  502  501  0.66510139942E+01 -0.33931426526E+02  0.76357692316E+02  0.83821684957E+02  0.00000000000E+00 0. -1.
<mgrwt>
<rscale>  1 0.12968925E+03</rscale>
<asrwt>0</asrwt>
<pdfrwt beam="1">  1        4 0.35726676E-01 0.12968925E+03</pdfrwt>
<pdfrwt beam="2">  1       -4 0.48263092E-02 0.12968925E+03</pdfrwt>
<totfact> 0.31150065E+03</totfact>
</mgrwt>
</event>
<event>
 6    4  0.5642870E-004  0.1395756E+03  0.7818608E-02  0.1213901E+00
          4   -1    0    0  502    0  0.00000000000E+00  0.00000000000E+00  0.84113789729E+02  0.84123376790E+02  0.12700000000E+01 0. -1.
         -4   -1    0    0    0  501 -0.00000000000E+00 -0.00000000000E+00 -0.12093932961E+03  0.12094599765E+03  0.12700000000E+01 0. -1.
         25    2    1    2    0    0 -0.51176848970E+02 -0.35172281204E+02 -0.23131572545E+02  0.14147940686E+03  0.12500077472E+03 0.  0.
    9000005    1    3    3    0    0 -0.43237460496E+02  0.17273083538E+02  0.38309716367E+02  0.60303165532E+02  0.10000000000E+01 0.  0.
    9000005    1    3    3    0    0 -0.79393884737E+01 -0.52445364742E+02 -0.61441288912E+02  0.81176241324E+02  0.10000000000E+01 0.  0.
         21    1    1    2  502  501  0.51176848970E+02  0.35172281204E+02 -0.13693967337E+02  0.63589967581E+02  0.00000000000E+00 0. -1.
<mgrwt>
<rscale>  1 0.13957562E+03</rscale>
<asrwt>0</asrwt>
<pdfrwt beam="1">  1        4 0.12941833E-01 0.13957562E+03</pdfrwt>
<pdfrwt beam="2">  1       -4 0.18607301E-01 0.13957562E+03</pdfrwt>
<totfact> 0.20715609E+03</totfact>
</mgrwt>
</event>
<event>
 6    4  0.5642870E-004  0.1729781E+03  0.7818608E-02  0.1174777E+00
          4   -1    0    0  502    0  0.00000000000E+00  0.00000000000E+00  0.10185902749E+04  0.10185910667E+04  0.12700000000E+01 0. -1.
         -4   -1    0    0    0  501 -0.00000000000E+00 -0.00000000000E+00 -0.25291303242E+02  0.25323169621E+02  0.12700000000E+01 0. -1.
         25    2    1    2    0    0  0.44430965201E+02 -0.11099725348E+03  0.35966842698E+03  0.39910250551E+03  0.12500772613E+03 0.  0.
    9000005    1    3    3    0    0  0.67200153611E+02 -0.86754712809E+02  0.14487474024E+03  0.18174688773E+03  0.10000000000E+01 0.  0.
    9000005    1    3    3    0    0 -0.22769188409E+02 -0.24242540672E+02  0.21479368674E+03  0.21735561778E+03  0.10000000000E+01 0.  0.
         21    1    1    2  502  501 -0.44430965201E+02  0.11099725348E+03  0.63363054471E+03  0.64481173077E+03  0.00000000000E+00 0. -1.
<mgrwt>
<rscale>  1 0.17297813E+03</rscale>
<asrwt>0</asrwt>
<pdfrwt beam="1">  1        4 0.15670869E+00 0.17297813E+03</pdfrwt>
<pdfrwt beam="2">  1       -4 0.38934823E-02 0.17297813E+03</pdfrwt>
<totfact> 0.17653654E+02</totfact>
</mgrwt>
</event>
<event>
 6    4  0.5642870E-004  0.1280001E+03  0.7818608E-02  0.1230454E+00
         -4   -1    0    0    0  501 -0.00000000000E+00  0.00000000000E+00  0.57776437451E+02  0.57790393878E+02  0.12700000000E+01 0.  1.
          4   -1    0    0  502    0  0.00000000000E+00 -0.00000000000E+00 -0.10465354324E+03  0.10466124886E+03  0.12700000000E+01 0.  1.
         25    2    1    2    0    0  0.27078591891E+02 -0.50249498505E+01 -0.38460768260E+02  0.13365346576E+03  0.12500207180E+03 0.  0.
    9000005    1    3    3    0    0  0.65900958436E+02 -0.30937437237E+02  0.55503518847E+00  0.72810503430E+02  0.10000000000E+01 0.  0.
    9000005    1    3    3    0    0 -0.38822366545E+02  0.25912487387E+02 -0.39015803449E+02  0.60842962333E+02  0.10000000000E+01 0.  0.
         21    1    1    2  502  501 -0.27078591891E+02  0.50249498505E+01 -0.84163375328E+01  0.28798176978E+02  0.00000000000E+00 0. -1.
<mgrwt>
<rscale>  1 0.12800007E+03</rscale>
<asrwt>0</asrwt>
<pdfrwt beam="2">  1        4 0.16102211E-01 0.12800007E+03</pdfrwt>
<pdfrwt beam="1">  1       -4 0.88903490E-02 0.12800007E+03</pdfrwt>
<totfact> 0.49540279E+03</totfact>
</mgrwt>
</event>
<event>
 6    4  0.5642870E-004  0.1292002E+03  0.7818608E-02  0.1228647E+00
          4   -1    0    0  502    0  0.00000000000E+00  0.00000000000E+00  0.59418080732E+03  0.59418216457E+03  0.12700000000E+01 0. -1.
         -4   -1    0    0    0  501 -0.00000000000E+00 -0.00000000000E+00 -0.10996095092E+02  0.11069191807E+02  0.12700000000E+01 0. -1.
         25    2    1    2    0    0  0.33724235364E+01 -0.32502837854E+02  0.45853567398E+03  0.47639022785E+03  0.12499950866E+03 0.  0.
    9000005    1    3    3    0    0 -0.33741330027E+02 -0.34890507792E+02  0.42010761587E+03  0.42290333859E+03  0.10000000000E+01 0.  0.
    9000005    1    3    3    0    0  0.37113753564E+02  0.23876699386E+01  0.38428058115E+02  0.53486889252E+02  0.10000000000E+01 0.  0.
         21    1    1    2  502  501 -0.33724235364E+01  0.32502837854E+02  0.12464903825E+03  0.12886112853E+03  0.00000000000E+00 0. -1.
<mgrwt>
<rscale>  1 0.12920017E+03</rscale>
<asrwt>0</asrwt>
<pdfrwt beam="1">  1        4 0.91418153E-01 0.12920017E+03</pdfrwt>
<pdfrwt beam="2">  1       -4 0.16974343E-02 0.12920017E+03</pdfrwt>
<totfact> 0.22441264E+03</totfact>
</mgrwt>
</event>
<event>
 6    4  0.5642870E-004  0.1285419E+03  0.7818608E-02  0.1229635E+00
         -4   -1    0    0    0  501 -0.00000000000E+00  0.00000000000E+00  0.83873430806E+03  0.83873526957E+03  0.12700000000E+01 0. -1.
          4   -1    0    0  502    0  0.00000000000E+00 -0.00000000000E+00 -0.18534835856E+02  0.18578294868E+02  0.12700000000E+01 0. -1.
         25    2    1    2    0    0  0.61464786761E+00  0.29962093414E+02  0.81714102298E+03  0.82718950519E+03  0.12499968491E+03 0.  0.
    9000005    1    3    3    0    0  0.43035567053E+02  0.48839813098E+02  0.66340226376E+03  0.66658904202E+03  0.10000000000E+01 0.  0.
    9000005    1    3    3    0    0 -0.42420919186E+02 -0.18877719684E+02  0.15373875922E+03  0.16060046317E+03  0.10000000000E+01 0.  0.
         21    1    1    2  502  501 -0.61464786761E+00 -0.29962093414E+02  0.30584492245E+01  0.30124059245E+02  0.00000000000E+00 0. -1.
<mgrwt>
<rscale>  1 0.12854192E+03</rscale>
<asrwt>0</asrwt>
<pdfrwt beam="2">  1        4 0.28549297E-02 0.12854192E+03</pdfrwt>
<pdfrwt beam="1">  1       -4 0.12903949E+00 0.12854192E+03</pdfrwt>
<totfact> 0.44666471E+02</totfact>
</mgrwt>
</event>
<event>
 6    4  0.5642870E-004  0.1291947E+03  0.7818608E-02  0.1228656E+00
         -4   -1    0    0    0  501 -0.00000000000E+00  0.00000000000E+00  0.32032344039E+02  0.32057510269E+02  0.12700000000E+01 0. -1.
          4   -1    0    0  502    0  0.00000000000E+00 -0.00000000000E+00 -0.21679095685E+03  0.21679467676E+03  0.12700000000E+01 0. -1.
         25    2    1    2    0    0 -0.27142097136E+02  0.18102826636E+02 -0.11994178254E+03  0.17628754512E+03  0.12500744616E+03 0.  0.
    9000005    1    3    3    0    0 -0.49875663835E+02  0.21087597338E+02  0.10276846334E-01  0.54159659435E+02  0.10000000000E+01 0.  0.
    9000005    1    3    3    0    0  0.22733566699E+02 -0.29847707028E+01 -0.11995205938E+03  0.12212788568E+03  0.10000000000E+01 0.  0.
         21    1    1    2  502  501  0.27142097136E+02 -0.18102826636E+02 -0.64816830276E+02  0.72564641915E+02  0.00000000000E+00 0. -1.
<mgrwt>
<rscale>  1 0.12919469E+03</rscale>
<asrwt>0</asrwt>
<pdfrwt beam="2">  1        4 0.33354676E-01 0.12919469E+03</pdfrwt>
<pdfrwt beam="1">  1       -4 0.49302751E-02 0.12919469E+03</pdfrwt>
<totfact> 0.34326260E+03</totfact>
</mgrwt>
</event>
<event>
 6    4  0.5642870E-004  0.1281138E+03  0.7818608E-02  0.1230282E+00
         -4   -1    0    0    0  501 -0.00000000000E+00  0.00000000000E+00  0.43574630658E+02  0.43593134058E+02  0.12700000000E+01 0.  1.
          4   -1    0    0  502    0  0.00000000000E+00 -0.00000000000E+00 -0.41121916921E+03  0.41122113032E+03  0.12700000000E+01 0.  1.
         25    2    1    2    0    0 -0.64235889089E+01  0.27333329473E+02 -0.52552165322E+02  0.13847334534E+03  0.12499905557E+03 0.  0.
    9000005    1    3    3    0    0 -0.37085649858E+02 -0.25938653290E+02  0.14473845545E+02  0.47525270801E+02  0.10000000000E+01 0.  0.
    9000005    1    3    3    0    0  0.30662060949E+02  0.53271982763E+02 -0.67026010868E+02  0.90948074537E+02  0.10000000000E+01 0.  0.
         21    1    1    2  502  501  0.64235889089E+01 -0.27333329473E+02 -0.31509237323E+03  0.31634091904E+03  0.00000000000E+00 0.  1.
<mgrwt>
<rscale>  1 0.12811377E+03</rscale>
<asrwt>0</asrwt>
<pdfrwt beam="2">  1        4 0.63266059E-01 0.12811377E+03</pdfrwt>
<pdfrwt beam="1">  1       -4 0.67053638E-02 0.12811377E+03</pdfrwt>
<totfact> 0.57499116E+02</totfact>
</mgrwt>
</event>
<event>
 6    4  0.5642870E-004  0.1271973E+03  0.7818608E-02  0.1231675E+00
          4   -1    0    0  502    0  0.00000000000E+00  0.00000000000E+00  0.10828862932E+03  0.10829607629E+03  0.12700000000E+01 0. -1.
         -4   -1    0    0    0  501 -0.00000000000E+00 -0.00000000000E+00 -0.96200982392E+02  0.96209364997E+02  0.12700000000E+01 0. -1.
         25    2    1    2    0    0 -0.52178115308E+01  0.22983173881E+02 -0.51090570636E+02  0.13707444683E+03  0.12499482280E+03 0.  0.
    9000005    1    3    3    0    0  0.23091063921E+02  0.68760116689E+02 -0.36983465831E+02  0.81424367513E+02  0.10000000000E+01 0.  0.
    9000005    1    3    3    0    0 -0.28308875451E+02 -0.45776942808E+02 -0.14107104805E+02  0.55650079318E+02  0.10000000000E+01 0.  0.
         21    1    1    2  502  501  0.52178115308E+01 -0.22983173881E+02  0.63178217562E+02  0.67430994454E+02  0.00000000000E+00 0. -1.
<mgrwt>
<rscale>  1 0.12719732E+03</rscale>
<asrwt>0</asrwt>
<pdfrwt beam="1">  1        4 0.16661007E-01 0.12719732E+03</pdfrwt>
<pdfrwt beam="2">  1       -4 0.14801369E-01 0.12719732E+03</pdfrwt>
<totfact> 0.19556702E+03</totfact>
</mgrwt>
</event>
<event>
 6    4  0.5642870E-004  0.1278644E+03  0.7818608E-02  0.1230659E+00
          4   -1    0    0  502    0  0.00000000000E+00  0.00000000000E+00  0.10857134959E+03  0.10857877717E+03  0.12700000000E+01 0. -1.
         -4   -1    0    0    0  501 -0.00000000000E+00 -0.00000000000E+00 -0.71694189637E+02  0.71705437226E+02  0.12700000000E+01 0. -1.
         25    2    1    2    0    0 -0.20853703734E+02  0.17120003183E+02 -0.77890798818E+01  0.12810141599E+03  0.12498532532E+03 0.  0.
    9000005    1    3    3    0    0 -0.44204569354E+02 -0.59228688007E+01  0.46641443269E+02  0.64541061014E+02  0.10000000000E+01 0.  0.
    9000005    1    3    3    0    0  0.23350865620E+02  0.23042871984E+02 -0.54430523151E+02  0.63560354978E+02  0.10000000000E+01 0.  0.
         21    1    1    2  502  501  0.20853703734E+02 -0.17120003183E+02  0.44666239837E+02  0.52182798407E+02  0.00000000000E+00 0. -1.
<mgrwt>
<rscale>  1 0.12786439E+03</rscale>
<asrwt>0</asrwt>
<pdfrwt beam="1">  1        4 0.16704721E-01 0.12786439E+03</pdfrwt>
<pdfrwt beam="2">  1       -4 0.11031312E-01 0.12786439E+03</pdfrwt>
<totfact> 0.32299207E+03</totfact>
</mgrwt>
</event>
<event>
 6    4  0.5642870E-004  0.1285582E+03  0.7818608E-02  0.1229611E+00
          4   -1    0    0  502    0  0.00000000000E+00  0.00000000000E+00  0.12968710363E+03  0.12969332191E+03  0.12700000000E+01 0. -1.
         -4   -1    0    0    0  501 -0.00000000000E+00 -0.00000000000E+00 -0.51287589803E+02  0.51303311470E+02  0.12700000000E+01 0. -1.
         25    2    1    2    0    0  0.16252480955E+02 -0.25269613585E+02  0.45327747887E+02  0.13631511359E+03  0.12499803582E+03 0.  0.
    9000005    1    3    3    0    0  0.11823543821E+01  0.13121400222E+01 -0.42896105319E+02  0.42944097672E+02  0.10000000000E+01 0.  0.
    9000005    1    3    3    0    0  0.15070126573E+02 -0.26581753607E+02  0.88223853206E+02  0.93371015922E+02  0.10000000000E+01 0.  0.
         21    1    1    2  502  501 -0.16252480955E+02  0.25269613585E+02  0.33071765936E+02  0.44681519782E+02  0.00000000000E+00 0.  1.
<mgrwt>
<rscale>  1 0.12855818E+03</rscale>
<asrwt>0</asrwt>
<pdfrwt beam="1">  1        4 0.19953550E-01 0.12855818E+03</pdfrwt>
<pdfrwt beam="2">  1       -4 0.78920861E-02 0.12855818E+03</pdfrwt>
<totfact> 0.41297722E+03</totfact>
</mgrwt>
</event>
<event>
 6    4  0.5642870E-004  0.1310683E+03  0.7818608E-02  0.1225879E+00
         -4   -1    0    0    0  501 -0.00000000000E+00  0.00000000000E+00  0.10521078113E+03  0.10521844594E+03  0.12700000000E+01 0. -1.
          4   -1    0    0  502    0  0.00000000000E+00 -0.00000000000E+00 -0.10233624609E+03  0.10234412618E+03  0.12700000000E+01 0. -1.
         25    2    1    2    0    0  0.22215527390E+02  0.32509275529E+02  0.55081388181E+02  0.14217191401E+03  0.12501404384E+03 0.  0.
    9000005    1    3    3    0    0 -0.47213190371E+02 -0.10727985903E+02  0.28362266767E+02  0.56121236647E+02  0.10000000000E+01 0.  0.
    9000005    1    3    3    0    0  0.69428717761E+02  0.43237261431E+02  0.26719121414E+02  0.86050677366E+02  0.10000000000E+01 0.  0.
         21    1    1    2  502  501 -0.22215527390E+02 -0.32509275529E+02 -0.52206853145E+02  0.65390658109E+02  0.00000000000E+00 0. -1.
<mgrwt>
<rscale>  1 0.13106828E+03</rscale>
<asrwt>0</asrwt>
<pdfrwt beam="2">  1        4 0.15745234E-01 0.13106828E+03</pdfrwt>
<pdfrwt beam="1">  1       -4 0.16187470E-01 0.13106828E+03</pdfrwt>
<totfact> 0.18596701E+03</totfact>
</mgrwt>
</event>
<event>
 6    4  0.5642870E-004  0.1268175E+03  0.7818608E-02  0.1232256E+00
         -4   -1    0    0    0  501 -0.00000000000E+00  0.00000000000E+00  0.99685605251E+02  0.99693694857E+02  0.12700000000E+01 0. -1.
          4   -1    0    0  502    0  0.00000000000E+00 -0.00000000000E+00 -0.55209037486E+02  0.55223642764E+02  0.12700000000E+01 0. -1.
         25    2    1    2    0    0 -0.20334810144E+02 -0.66616077732E+01  0.35334316549E+02  0.13164799558E+03  0.12499919717E+03 0.  0.
    9000005    1    3    3    0    0 -0.90047721608E+01 -0.34905334749E+02  0.74067493544E+02  0.82379984921E+02  0.10000000000E+01 0.  0.
    9000005    1    3    3    0    0 -0.11330037984E+02  0.28243726975E+02 -0.38733176995E+02  0.49268010659E+02  0.10000000000E+01 0.  0.
         21    1    1    2  502  501  0.20334810144E+02  0.66616077732E+01  0.91422512154E+01  0.23269342041E+02  0.00000000000E+00 0. -1.
<mgrwt>
<rscale>  1 0.12681751E+03</rscale>
<asrwt>0</asrwt>
<pdfrwt beam="2">  1        4 0.84954439E-02 0.12681751E+03</pdfrwt>
<pdfrwt beam="1">  1       -4 0.15337993E-01 0.12681751E+03</pdfrwt>
<totfact> 0.58045037E+03</totfact>
</mgrwt>
</event>
<event>
 6    4  0.5642870E-004  0.1268718E+03  0.7818608E-02  0.1232173E+00
         -4   -1    0    0    0  501 -0.00000000000E+00  0.00000000000E+00  0.10072765131E+03  0.10073565723E+03  0.12700000000E+01 0.  1.
          4   -1    0    0  502    0  0.00000000000E+00 -0.00000000000E+00 -0.11633116689E+03  0.11633809905E+03  0.12700000000E+01 0.  1.
         25    2    1    2    0    0 -0.21653567716E+02 -0.15080669219E+01  0.58606804629E+02  0.13975414113E+03  0.12500124461E+03 0.  0.
    9000005    1    3    3    0    0 -0.40681052495E+02  0.47905261131E+02  0.29470808584E+01  0.62924934340E+02  0.10000000000E+01 0.  0.
    9000005    1    3    3    0    0  0.19027484779E+02 -0.49413328053E+02  0.55659723770E+02  0.76829206794E+02  0.10000000000E+01 0.  0.
         21    1    1    2  502  501  0.21653567716E+02  0.15080669219E+01 -0.74210320213E+02  0.77319615149E+02  0.00000000000E+00 0.  1.
<mgrwt>
<rscale>  1 0.12687183E+03</rscale>
<asrwt>0</asrwt>
<pdfrwt beam="2">  1        4 0.17898252E-01 0.12687183E+03</pdfrwt>
<pdfrwt beam="1">  1       -4 0.15497711E-01 0.12687183E+03</pdfrwt>
<totfact> 0.15892434E+03</totfact>
</mgrwt>
</event>
<event>
 6    4  0.5642870E-004  0.1269346E+03  0.7818608E-02  0.1232076E+00
         -4   -1    0    0    0  501 -0.00000000000E+00  0.00000000000E+00  0.39107240421E+03  0.39107446635E+03  0.12700000000E+01 0. -1.
          4   -1    0    0  502    0  0.00000000000E+00 -0.00000000000E+00 -0.17370315986E+02  0.17416681012E+02  0.12700000000E+01 0. -1.
         25    2    1    2    0    0  0.72376959794E+01 -0.20867218569E+02  0.36175873281E+03  0.38338200974E+03  0.12499823828E+03 0.  0.
    9000005    1    3    3    0    0  0.38789918167E+01 -0.49710325927E+02  0.51226597997E+02  0.71493548125E+02  0.10000000000E+01 0.  0.
    9000005    1    3    3    0    0  0.33587041627E+01  0.28843107358E+02  0.31053213481E+03  0.31188846161E+03  0.10000000000E+01 0.  0.
         21    1    1    2  502  501 -0.72376959794E+01  0.20867218569E+02  0.11943355415E+02  0.25109137628E+02  0.00000000000E+00 0. -1.
<mgrwt>
<rscale>  1 0.12693457E+03</rscale>
<asrwt>0</asrwt>
<pdfrwt beam="2">  1        4 0.26760816E-02 0.12693457E+03</pdfrwt>
<pdfrwt beam="1">  1       -4 0.60168707E-01 0.12693457E+03</pdfrwt>
<totfact> 0.27542675E+03</totfact>
</mgrwt>
</event>
<event>
 6    4  0.5642870E-004  0.1267558E+03  0.7818608E-02  0.1232351E+00
          4   -1    0    0  502    0  0.00000000000E+00  0.00000000000E+00  0.17061994874E+03  0.17062467526E+03  0.12700000000E+01 0. -1.
         -4   -1    0    0    0  501 -0.00000000000E+00 -0.00000000000E+00 -0.32461808225E+02  0.32486641766E+02  0.12700000000E+01 0. -1.
         25    2    1    2    0    0  0.16666282455E+02 -0.12789779513E+02  0.10902085210E+03  0.16719022285E+03  0.12500272394E+03 0.  0.
    9000005    1    3    3    0    0  0.55963834155E+02  0.11144943502E+01  0.11218026425E+03  0.12537385899E+03  0.10000000000E+01 0.  0.
    9000005    1    3    3    0    0 -0.39297551699E+02 -0.13904273863E+02 -0.31594121489E+01  0.41816363859E+02  0.10000000000E+01 0.  0.
         21    1    1    2  502  501 -0.16666282455E+02  0.12789779513E+02  0.29137288418E+02  0.35921094182E+02  0.00000000000E+00 0.  1.
<mgrwt>
<rscale>  1 0.12675577E+03</rscale>
<asrwt>0</asrwt>
<pdfrwt beam="1">  1        4 0.26251497E-01 0.12675577E+03</pdfrwt>
<pdfrwt beam="2">  1       -4 0.49963982E-02 0.12675577E+03</pdfrwt>
<totfact> 0.52512555E+03</totfact>
</mgrwt>
</event>
<event>
 6    4  0.5642870E-004  0.1292073E+03  0.7818608E-02  0.1228637E+00
          4   -1    0    0  502    0  0.00000000000E+00  0.00000000000E+00  0.12665383643E+04  0.12665390011E+04  0.12700000000E+01 0. -1.
         -4   -1    0    0    0  501 -0.00000000000E+00 -0.00000000000E+00 -0.52178670695E+01  0.53701989493E+01  0.12700000000E+01 0. -1.
         25    2    1    2    0    0 -0.94376377701E+01 -0.31311584684E+02  0.92062542519E+03  0.92964816443E+03  0.12500020717E+03 0.  0.
    9000005    1    3    3    0    0  0.20804506070E+02 -0.49919198356E+02  0.83757638716E+03  0.83932112934E+03  0.10000000000E+01 0.  0.
    9000005    1    3    3    0    0 -0.30242143840E+02  0.18607613671E+02  0.83049038026E+02  0.90327035087E+02  0.10000000000E+01 0.  0.
         21    1    1    2  502  501  0.94376377701E+01  0.31311584684E+02  0.34069507209E+03  0.34226103559E+03  0.00000000000E+00 0. -1.
<mgrwt>
<rscale>  1 0.12920734E+03</rscale>
<asrwt>0</asrwt>
<pdfrwt beam="1">  1        4 0.19486375E+00 0.12920734E+03</pdfrwt>
<pdfrwt beam="2">  1       -4 0.81451592E-03 0.12920734E+03</pdfrwt>
<totfact> 0.10360578E+03</totfact>
</mgrwt>
</event>
<event>
 6    4  0.5642870E-004  0.1317801E+03  0.7818608E-02  0.1224838E+00
          4   -1    0    0  502    0  0.00000000000E+00  0.00000000000E+00  0.92090182859E+01  0.92961775903E+01  0.12700000000E+01 0.  1.
         -4   -1    0    0    0  501 -0.00000000000E+00 -0.00000000000E+00 -0.83030287917E+03  0.83030385044E+03  0.12700000000E+01 0.  1.
         25    2    1    2    0    0 -0.15052749069E+02 -0.38935583553E+02 -0.56799005288E+03  0.58307692469E+03  0.12499373991E+03 0.  0.
    9000005    1    3    3    0    0  0.52635133813E+02 -0.27555537039E+02 -0.33323994765E+03  0.33849612648E+03  0.10000000000E+01 0.  0.
    9000005    1    3    3    0    0 -0.67687882882E+02 -0.11380046514E+02 -0.23475010523E+03  0.24458079821E+03  0.10000000000E+01 0.  0.
         21    1    1    2  502  501  0.15052749069E+02  0.38935583553E+02 -0.25310380801E+03  0.25652310334E+03  0.00000000000E+00 0.  1.
<mgrwt>
<rscale>  1 0.13178012E+03</rscale>
<asrwt>0</asrwt>
<pdfrwt beam="1">  1        4 0.14235520E-02 0.13178012E+03</pdfrwt>
<pdfrwt beam="2">  1       -4 0.12774563E+00 0.13178012E+03</pdfrwt>
<totfact> 0.13437966E+03</totfact>
</mgrwt>
</event>
<event>
 6    4  0.5642870E-004  0.1425765E+03  0.7818608E-02  0.1209904E+00
          4   -1    0    0  502    0  0.00000000000E+00  0.00000000000E+00  0.15898351631E+03  0.15898858877E+03  0.12700000000E+01 0. -1.
         -4   -1    0    0    0  501 -0.00000000000E+00 -0.00000000000E+00 -0.14577057969E+03  0.14577611191E+03  0.12700000000E+01 0. -1.
         25    2    1    2    0    0  0.46944486431E+02 -0.49995995679E+02 -0.98772653641E+02  0.17344769182E+03  0.12499872119E+03 0.  0.
    9000005    1    3    3    0    0 -0.12018734645E+02 -0.34372186851E+02 -0.10593458441E+03  0.11202246822E+03  0.10000000000E+01 0.  0.
    9000005    1    3    3    0    0  0.58963221076E+02 -0.15623808828E+02  0.71619307693E+01  0.61425223599E+02  0.10000000000E+01 0.  0.
         21    1    1    2  502  501 -0.46944486431E+02  0.49995995679E+02  0.11198559026E+03  0.13131700886E+03  0.00000000000E+00 0.  1.
<mgrwt>
<rscale>  1 0.14257652E+03</rscale>
<asrwt>0</asrwt>
<pdfrwt beam="1">  1        4 0.24459818E-01 0.14257652E+03</pdfrwt>
<pdfrwt beam="2">  1       -4 0.22427059E-01 0.14257652E+03</pdfrwt>
<totfact> 0.47846732E+02</totfact>
</mgrwt>
</event>
<event>
 6    4  0.5642870E-004  0.1451925E+03  0.7818608E-02  0.1206508E+00
         -4   -1    0    0    0  501 -0.00000000000E+00  0.00000000000E+00  0.42912590878E+03  0.42912778806E+03  0.12700000000E+01 0.  1.
          4   -1    0    0  502    0  0.00000000000E+00 -0.00000000000E+00 -0.30616424965E+02  0.30642754081E+02  0.12700000000E+01 0.  1.
         25    2    1    2    0    0  0.73232093873E+02 -0.96415526193E+01  0.32304328124E+03  0.35417202491E+03  0.12499985026E+03 0.  0.
    9000005    1    3    3    0    0  0.72823142356E+02  0.40097559931E+02  0.12608882408E+03  0.15103117537E+03  0.10000000000E+01 0.  0.
    9000005    1    3    3    0    0  0.40895151726E+00 -0.49739112550E+02  0.19695445716E+03  0.20314084955E+03  0.10000000000E+01 0.  0.
         21    1    1    2  502  501 -0.73232093873E+02  0.96415526193E+01  0.75466202572E+02  0.10559851723E+03  0.00000000000E+00 0.  1.
<mgrwt>
<rscale>  1 0.14519250E+03</rscale>
<asrwt>0</asrwt>
<pdfrwt beam="2">  1        4 0.47123891E-02 0.14519250E+03</pdfrwt>
<pdfrwt beam="1">  1       -4 0.66021541E-01 0.14519250E+03</pdfrwt>
<totfact> 0.95339538E+02</totfact>
</mgrwt>
</event>
<event>
 6    4  0.5642870E-004  0.1268351E+03  0.7818608E-02  0.1232229E+00
         -4   -1    0    0    0  501 -0.00000000000E+00  0.00000000000E+00  0.50906350609E+02  0.50922189979E+02  0.12700000000E+01 0. -1.
          4   -1    0    0  502    0  0.00000000000E+00 -0.00000000000E+00 -0.10934803518E+03  0.10935541000E+03  0.12700000000E+01 0. -1.
         25    2    1    2    0    0 -0.20908491717E+02  0.42542820480E+01 -0.42949794493E+02  0.13390976731E+03  0.12502750495E+03 0.  0.
    9000005    1    3    3    0    0 -0.11640174611E+02 -0.52507719992E+02 -0.53000836756E+02  0.75515846155E+02  0.10000000000E+01 0.  0.
    9000005    1    3    3    0    0 -0.92683171064E+01  0.56762002040E+02  0.10051042263E+02  0.58393921157E+02  0.10000000000E+01 0.  0.
         21    1    1    2  502  501  0.20908491717E+02 -0.42542820480E+01 -0.15491890074E+02  0.26367832670E+02  0.00000000000E+00 0. -1.
<mgrwt>
<rscale>  1 0.12683509E+03</rscale>
<asrwt>0</asrwt>
<pdfrwt beam="2">  1        4 0.16824560E-01 0.12683509E+03</pdfrwt>
<pdfrwt beam="1">  1       -4 0.78335320E-02 0.12683509E+03</pdfrwt>
<totfact> 0.56444422E+03</totfact>
</mgrwt>
</event>
<event>
 6    4  0.5642870E-004  0.1269594E+03  0.7818608E-02  0.1232038E+00
          4   -1    0    0  502    0  0.00000000000E+00  0.00000000000E+00  0.29401598083E+03  0.29401872370E+03  0.12700000000E+01 0.  1.
         -4   -1    0    0    0  501 -0.00000000000E+00 -0.00000000000E+00 -0.19210758728E+02  0.19252692043E+02  0.12700000000E+01 0.  1.
         25    2    1    2    0    0  0.20206496896E+02 -0.91349187224E+01  0.24688347484E+03  0.27761509474E+03  0.12500776545E+03 0.  0.
    9000005    1    3    3    0    0 -0.22562281708E+02 -0.35262225184E+02  0.22175820684E+02  0.47384049044E+02  0.10000000000E+01 0.  0.
    9000005    1    3    3    0    0  0.42768778604E+02  0.26127306462E+02  0.22470765416E+03  0.23023104570E+03  0.10000000000E+01 0.  0.
         21    1    1    2  502  501 -0.20206496896E+02  0.91349187224E+01  0.27921747260E+02  0.35656320995E+02  0.00000000000E+00 0. -1.
<mgrwt>
<rscale>  1 0.12695941E+03</rscale>
<asrwt>0</asrwt>
<pdfrwt beam="1">  1        4 0.45236661E-01 0.12695941E+03</pdfrwt>
<pdfrwt beam="2">  1       -4 0.29589382E-02 0.12695941E+03</pdfrwt>
<totfact> 0.42244542E+03</totfact>
</mgrwt>
</event>
<event>
 6    4  0.5642870E-004  0.1273466E+03  0.7818608E-02  0.1231447E+00
         -4   -1    0    0    0  501 -0.00000000000E+00  0.00000000000E+00  0.40051405490E+02  0.40071535805E+02  0.12700000000E+01 0.  1.
          4   -1    0    0  502    0  0.00000000000E+00 -0.00000000000E+00 -0.14883477214E+03  0.14884019046E+03  0.12700000000E+01 0.  1.
         25    2    1    2    0    0  0.21623104106E+02  0.11162030389E+02 -0.76760186154E+02  0.14869190973E+03  0.12500003315E+03 0.  0.
    9000005    1    3    3    0    0 -0.15262563676E+02 -0.22069177100E+02 -0.92722342495E+02  0.96532001044E+02  0.10000000000E+01 0.  0.
    9000005    1    3    3    0    0  0.36885667783E+02  0.33231207489E+02  0.15962156341E+02  0.52159908684E+02  0.10000000000E+01 0.  0.
         21    1    1    2  502  501 -0.21623104106E+02 -0.11162030389E+02 -0.32023180491E+02  0.40219816538E+02  0.00000000000E+00 0.  1.
<mgrwt>
<rscale>  1 0.12734661E+03</rscale>
<asrwt>0</asrwt>
<pdfrwt beam="2">  1        4 0.22899622E-01 0.12734661E+03</pdfrwt>
<pdfrwt beam="1">  1       -4 0.61637201E-02 0.12734661E+03</pdfrwt>
<totfact> 0.48150672E+03</totfact>
</mgrwt>
</event>
<event>
 6    4  0.5642870E-004  0.1309656E+03  0.7818608E-02  0.1226030E+00
          4   -1    0    0  502    0  0.00000000000E+00  0.00000000000E+00  0.55754372756E+02  0.55768835217E+02  0.12700000000E+01 0.  1.
         -4   -1    0    0    0  501 -0.00000000000E+00 -0.00000000000E+00 -0.18215196617E+03  0.18215639346E+03  0.12700000000E+01 0.  1.
         25    2    1    2    0    0 -0.13865340287E+02 -0.36377270021E+02 -0.14447725263E+03  0.19500172098E+03  0.12504575652E+03 0.  0.
    9000005    1    3    3    0    0 -0.33420085781E+02 -0.69903905054E+02 -0.48364484165E+02  0.91343206666E+02  0.10000000000E+01 0.  0.
    9000005    1    3    3    0    0  0.19554745494E+02  0.33526635033E+02 -0.96112768467E+02  0.10365851432E+03  0.10000000000E+01 0.  0.
         21    1    1    2  502  501  0.13865340287E+02  0.36377270021E+02  0.18079659220E+02  0.42923507696E+02  0.00000000000E+00 0.  1.
<mgrwt>
<rscale>  1 0.13096562E+03</rscale>
<asrwt>0</asrwt>
<pdfrwt beam="1">  1        4 0.85790489E-02 0.13096562E+03</pdfrwt>
<pdfrwt beam="2">  1       -4 0.28024832E-01 0.13096562E+03</pdfrwt>
<totfact> 0.19380919E+03</totfact>
</mgrwt>
</event>
<event>
 6    4  0.5642870E-004  0.1268449E+03  0.7818608E-02  0.1232214E+00
         -4   -1    0    0    0  501 -0.00000000000E+00  0.00000000000E+00  0.32714379472E+03  0.32714625984E+03  0.12700000000E+01 0.  1.
          4   -1    0    0  502    0  0.00000000000E+00 -0.00000000000E+00 -0.22020761417E+02  0.22057353272E+02  0.12700000000E+01 0.  1.
         25    2    1    2    0    0 -0.10393636399E+02  0.18771884802E+02  0.30195273103E+03  0.32751347357E+03  0.12501684790E+03 0.  0.
    9000005    1    3    3    0    0  0.95879481630E+00  0.25888729478E+02  0.31050567656E+03  0.31158613701E+03  0.10000000000E+01 0.  0.
    9000005    1    3    3    0    0 -0.11352431216E+02 -0.71168446752E+01 -0.85529455320E+01  0.15927336560E+02  0.10000000000E+01 0.  0.
         21    1    1    2  502  501  0.10393636399E+02 -0.18771884802E+02  0.31703022773E+01  0.21690139538E+02  0.00000000000E+00 0.  1.
<mgrwt>
<rscale>  1 0.12684488E+03</rscale>
<asrwt>0</asrwt>
<pdfrwt beam="2">  1        4 0.33908141E-02 0.12684488E+03</pdfrwt>
<pdfrwt beam="1">  1       -4 0.50332814E-01 0.12684488E+03</pdfrwt>
<totfact> 0.27496611E+03</totfact>
</mgrwt>
</event>
<event>
 6    4  0.5642870E-004  0.1637011E+03  0.7818608E-02  0.1184580E+00
          4   -1    0    0  502    0  0.00000000000E+00  0.00000000000E+00  0.16167054249E+04  0.16167059237E+04  0.12700000000E+01 0.  1.
         -4   -1    0    0    0  501 -0.00000000000E+00 -0.00000000000E+00 -0.11744578092E+02  0.11813044255E+02  0.12700000000E+01 0.  1.
         25    2    1    2    0    0  0.25193854575E+02  0.10265409607E+03  0.79408985586E+03  0.81078774214E+03  0.12500187950E+03 0.  0.
    9000005    1    3    3    0    0 -0.24853578131E+02 -0.19547543557E+02  0.15682415697E+03  0.15998319604E+03  0.10000000000E+01 0.  0.
    9000005    1    3    3    0    0  0.50047432706E+02  0.12220163962E+03  0.63726569888E+03  0.65080454610E+03  0.10000000000E+01 0.  0.
         21    1    1    2  502  501 -0.25193854575E+02 -0.10265409607E+03  0.81087099091E+03  0.81773122580E+03  0.00000000000E+00 0.  1.
<mgrwt>
<rscale>  1 0.16370114E+03</rscale>
<asrwt>0</asrwt>
<pdfrwt beam="1">  1        4 0.24872926E+00 0.16370114E+03</pdfrwt>
<pdfrwt beam="2">  1       -4 0.18121629E-02 0.16370114E+03</pdfrwt>
<totfact> 0.15210303E+02</totfact>
</mgrwt>
</event>
<event>
 6    4  0.5642870E-004  0.1282361E+03  0.7818608E-02  0.1230097E+00
         -4   -1    0    0    0  501 -0.00000000000E+00  0.00000000000E+00  0.33560984787E+03  0.33561225080E+03  0.12700000000E+01 0.  1.
          4   -1    0    0  502    0  0.00000000000E+00 -0.00000000000E+00 -0.18980841459E+02  0.19023281591E+02  0.12700000000E+01 0.  1.
         25    2    1    2    0    0  0.11665394666E+02  0.26158687162E+02  0.28133049472E+03  0.30917848372E+03  0.12499651670E+03 0.  0.
    9000005    1    3    3    0    0  0.29562388222E+02  0.63895361497E+02  0.24113370603E+03  0.25120313733E+03  0.10000000000E+01 0.  0.
    9000005    1    3    3    0    0 -0.17896993557E+02 -0.37736674335E+02  0.40196788692E+02  0.57975346393E+02  0.10000000000E+01 0.  0.
         21    1    1    2  502  501 -0.11665394666E+02 -0.26158687162E+02  0.35298511690E+02  0.45457048676E+02  0.00000000000E+00 0.  1.
<mgrwt>
<rscale>  1 0.12823606E+03</rscale>
<asrwt>0</asrwt>
<pdfrwt beam="2">  1        4 0.29235790E-02 0.12823606E+03</pdfrwt>
<pdfrwt beam="1">  1       -4 0.51635732E-01 0.12823606E+03</pdfrwt>
<totfact> 0.33016768E+03</totfact>
</mgrwt>
</event>
<event>
 6    4  0.5642870E-004  0.1270477E+03  0.7818608E-02  0.1231903E+00
          4   -1    0    0  502    0  0.00000000000E+00  0.00000000000E+00  0.85797212943E+01  0.86732068745E+01  0.12700000000E+01 0.  1.
         -4   -1    0    0    0  501 -0.00000000000E+00 -0.00000000000E+00 -0.67643993343E+03  0.67644112563E+03  0.12700000000E+01 0.  1.
         25    2    1    2    0    0 -0.20191193604E+02 -0.10400016139E+02 -0.60702300912E+03  0.62017582385E+03  0.12500109701E+03 0.  0.
    9000005    1    3    3    0    0  0.39941282209E+02 -0.33366276700E+02 -0.40004152940E+03  0.40341398053E+03  0.10000000000E+01 0.  0.
    9000005    1    3    3    0    0 -0.60132475813E+02  0.22966260562E+02 -0.20698147972E+03  0.21676184331E+03  0.10000000000E+01 0.  0.
         21    1    1    2  502  501  0.20191193604E+02  0.10400016139E+02 -0.60837203023E+02  0.64938508657E+02  0.00000000000E+00 0.  1.
<mgrwt>
<rscale>  1 0.12704770E+03</rscale>
<asrwt>0</asrwt>
<pdfrwt beam="1">  1        4 0.13272406E-02 0.12704770E+03</pdfrwt>
<pdfrwt beam="2">  1       -4 0.10407492E+00 0.12704770E+03</pdfrwt>
<totfact> 0.24140744E+03</totfact>
</mgrwt>
</event>
<event>
 6    4  0.5642870E-004  0.1268049E+03  0.7818608E-02  0.1232275E+00
          4   -1    0    0  502    0  0.00000000000E+00  0.00000000000E+00  0.30924824849E+02  0.30950891618E+02  0.12700000000E+01 0.  1.
         -4   -1    0    0    0  501 -0.00000000000E+00 -0.00000000000E+00 -0.25410042623E+03  0.25410359995E+03  0.12700000000E+01 0.  1.
         25    2    1    2    0    0 -0.11251095865E+02  0.18073615927E+02 -0.23004950016E+03  0.26268278544E+03  0.12500492187E+03 0.  0.
    9000005    1    3    3    0    0  0.28092179421E+02  0.46562459519E+02 -0.42735737350E+02  0.69170632699E+02  0.10000000000E+01 0.  0.
    9000005    1    3    3    0    0 -0.39343275286E+02 -0.28488843592E+02 -0.18731376281E+03  0.19351215274E+03  0.10000000000E+01 0.  0.
         21    1    1    2  502  501  0.11251095865E+02 -0.18073615927E+02  0.68738987821E+01  0.22371706133E+02  0.00000000000E+00 0.  1.
<mgrwt>
<rscale>  1 0.12680486E+03</rscale>
<asrwt>0</asrwt>
<pdfrwt beam="1">  1        4 0.47599148E-02 0.12680486E+03</pdfrwt>
<pdfrwt beam="2">  1       -4 0.39094621E-01 0.12680486E+03</pdfrwt>
<totfact> 0.26584042E+03</totfact>
</mgrwt>
</event>
<event>
 6    4  0.5642870E-004  0.1272000E+03  0.7818608E-02  0.1231671E+00
          4   -1    0    0  502    0  0.00000000000E+00  0.00000000000E+00  0.11093315451E+02  0.11165775732E+02  0.12700000000E+01 0.  1.
         -4   -1    0    0    0  501 -0.00000000000E+00 -0.00000000000E+00 -0.51070935797E+03  0.51071093705E+03  0.12700000000E+01 0.  1.
         25    2    1    2    0    0  0.21988194617E+02 -0.84561818227E+01 -0.41727386273E+03  0.43623080052E+03  0.12499938837E+03 0.  0.
    9000005    1    3    3    0    0 -0.19182306115E+02  0.11445911786E+02 -0.36919163608E+03  0.36986813045E+03  0.10000000000E+01 0.  0.
    9000005    1    3    3    0    0  0.41170500732E+02 -0.19902093608E+02 -0.48082226644E+02  0.66362670076E+02  0.10000000000E+01 0.  0.
         21    1    1    2  502  501 -0.21988194617E+02  0.84561818227E+01 -0.82342179795E+02  0.85645912261E+02  0.00000000000E+00 0. -1.
<mgrwt>
<rscale>  1 0.12719998E+03</rscale>
<asrwt>0</asrwt>
<pdfrwt beam="1">  1        4 0.17123597E-02 0.12719998E+03</pdfrwt>
<pdfrwt beam="2">  1       -4 0.78576347E-01 0.12719998E+03</pdfrwt>
<totfact> 0.30926362E+03</totfact>
</mgrwt>
</event>
<event>
 6    4  0.5642870E-004  0.1272171E+03  0.7818608E-02  0.1231644E+00
         -4   -1    0    0    0  501 -0.00000000000E+00  0.00000000000E+00  0.78053261303E+02  0.78063592667E+02  0.12700000000E+01 0. -1.
          4   -1    0    0  502    0  0.00000000000E+00 -0.00000000000E+00 -0.97560376911E+02  0.97568642724E+02  0.12700000000E+01 0. -1.
         25    2    1    2    0    0  0.11209304134E+02  0.20846784854E+02  0.20783390233E+02  0.12890363816E+03  0.12499584667E+03 0.  0.
    9000005    1    3    3    0    0  0.12239626624E+02 -0.51871219231E+02  0.16462533039E+00  0.53305336936E+02  0.10000000000E+01 0.  0.
    9000005    1    3    3    0    0 -0.10303224899E+01  0.72718004084E+02  0.20618764903E+02  0.75598301228E+02  0.10000000000E+01 0.  0.
         21    1    1    2  502  501 -0.11209304134E+02 -0.20846784854E+02 -0.40290505841E+02  0.46728597228E+02  0.00000000000E+00 0. -1.
<mgrwt>
<rscale>  1 0.12721713E+03</rscale>
<asrwt>0</asrwt>
<pdfrwt beam="2">  1        4 0.15010719E-01 0.12721713E+03</pdfrwt>
<pdfrwt beam="1">  1       -4 0.12009625E-01 0.12721713E+03</pdfrwt>
<totfact> 0.33670325E+03</totfact>
</mgrwt>
</event>
<event>
 6    4  0.5642870E-004  0.1271314E+03  0.7818608E-02  0.1231775E+00
         -4   -1    0    0    0  501 -0.00000000000E+00  0.00000000000E+00  0.89861359967E+01  0.90754360861E+01  0.12700000000E+01 0. -1.
          4   -1    0    0  502    0  0.00000000000E+00 -0.00000000000E+00 -0.62602629943E+03  0.62602758763E+03  0.12700000000E+01 0. -1.
         25    2    1    2    0    0 -0.73319905445E+00  0.23180827616E+02 -0.52848564209E+03  0.54356182206E+03  0.12499796863E+03 0.  0.
    9000005    1    3    3    0    0  0.29444336515E+02  0.14231337068E+02 -0.30973503841E+02  0.45053943754E+02  0.10000000000E+01 0.  0.
    9000005    1    3    3    0    0 -0.30177535570E+02  0.89494905479E+01 -0.49751213825E+03  0.49850787831E+03  0.10000000000E+01 0.  0.
         21    1    1    2  502  501  0.73319905445E+00 -0.23180827616E+02 -0.88554521345E+02  0.91541201655E+02  0.00000000000E+00 0. -1.
<mgrwt>
<rscale>  1 0.12713135E+03</rscale>
<asrwt>0</asrwt>
<pdfrwt beam="2">  1        4 0.96318673E-01 0.12713135E+03</pdfrwt>
<pdfrwt beam="1">  1       -4 0.13894513E-02 0.12713135E+03</pdfrwt>
<totfact> 0.26935937E+03</totfact>
</mgrwt>
</event>
<event>
 6    4  0.5642870E-004  0.1375185E+03  0.7818608E-02  0.1216708E+00
         -4   -1    0    0    0  501 -0.00000000000E+00  0.00000000000E+00  0.13273844751E+03  0.13274452286E+03  0.12700000000E+01 0. -1.
          4   -1    0    0  502    0  0.00000000000E+00 -0.00000000000E+00 -0.75673654575E+02  0.75684310770E+02  0.12700000000E+01 0. -1.
         25    2    1    2    0    0  0.54372547674E+02 -0.18162662013E+02  0.62084837801E+02  0.15088357246E+03  0.12500027649E+03 0.  0.
    9000005    1    3    3    0    0  0.93942054910E+02 -0.13882072155E+02  0.56966559195E+02  0.11074299289E+03  0.10000000000E+01 0.  0.
    9000005    1    3    3    0    0 -0.39569507236E+02 -0.42805898574E+01  0.51182786065E+01  0.40140579572E+02  0.10000000000E+01 0.  0.
         21    1    1    2  502  501 -0.54372547674E+02  0.18162662013E+02 -0.50200448628E+01  0.57545261163E+02  0.00000000000E+00 0. -1.
<mgrwt>
<rscale>  1 0.13751845E+03</rscale>
<asrwt>0</asrwt>
<pdfrwt beam="2">  1        4 0.11643388E-01 0.13751845E+03</pdfrwt>
<pdfrwt beam="1">  1       -4 0.20422587E-01 0.13751845E+03</pdfrwt>
<totfact> 0.20943320E+03</totfact>
</mgrwt>
</event>
<event>
 6    4  0.5642870E-004  0.1332891E+03  0.7818608E-02  0.1222655E+00
         -4   -1    0    0    0  501 -0.00000000000E+00  0.00000000000E+00  0.19535327534E+02  0.19576565630E+02  0.12700000000E+01 0. -1.
          4   -1    0    0  502    0  0.00000000000E+00 -0.00000000000E+00 -0.41377065917E+03  0.41377260819E+03  0.12700000000E+01 0. -1.
         25    2    1    2    0    0  0.41518642577E+02  0.20449580817E+02 -0.28050364500E+03  0.31056122823E+03  0.12499599428E+03 0.  0.
    9000005    1    3    3    0    0 -0.85794914079E+01  0.22530037403E+02  0.14591226537E+01  0.24173111035E+02  0.10000000000E+01 0.  0.
    9000005    1    3    3    0    0  0.50098133985E+02 -0.20804565860E+01 -0.28196276765E+03  0.28638811720E+03  0.10000000000E+01 0.  0.
         21    1    1    2  502  501 -0.41518642577E+02 -0.20449580817E+02 -0.11373168664E+03  0.12278794559E+03  0.00000000000E+00 0.  1.
<mgrwt>
<rscale>  1 0.13328909E+03</rscale>
<asrwt>0</asrwt>
<pdfrwt beam="2">  1        4 0.63660340E-01 0.13328909E+03</pdfrwt>
<pdfrwt beam="1">  1       -4 0.30087574E-02 0.13328909E+03</pdfrwt>
<totfact> 0.20599455E+03</totfact>
</mgrwt>
</event>
<event>
 6    4  0.5642870E-004  0.1346431E+03  0.7818608E-02  0.1220724E+00
          4   -1    0    0  502    0  0.00000000000E+00  0.00000000000E+00  0.24346187546E+03  0.24346518786E+03  0.12700000000E+01 0. -1.
         -4   -1    0    0    0  501 -0.00000000000E+00 -0.00000000000E+00 -0.98672412728E+02  0.98680585393E+02  0.12700000000E+01 0. -1.
         25    2    1    2    0    0 -0.23958425452E+02 -0.43922907201E+02 -0.48020539379E+02  0.14295007842E+03  0.12500209915E+03 0.  0.
    9000005    1    3    3    0    0 -0.39108631224E+02 -0.76297282667E+02 -0.34544667514E+01  0.85811967225E+02  0.10000000000E+01 0.  0.
    9000005    1    3    3    0    0  0.15150205772E+02  0.32374375466E+02 -0.44566072628E+02  0.57138111197E+02  0.10000000000E+01 0.  0.
         21    1    1    2  502  501  0.23958425452E+02  0.43922907201E+02  0.19281000211E+03  0.19919569483E+03  0.00000000000E+00 0. -1.
<mgrwt>
<rscale>  1 0.13464306E+03</rscale>
<asrwt>0</asrwt>
<pdfrwt beam="1">  1        4 0.37456557E-01 0.13464306E+03</pdfrwt>
<pdfrwt beam="2">  1       -4 0.15181255E-01 0.13464306E+03</pdfrwt>
<totfact> 0.42374019E+02</totfact>
</mgrwt>
</event>
<event>
 6    4  0.5642870E-004  0.1266703E+03  0.7818608E-02  0.1232482E+00
         -4   -1    0    0    0  501 -0.00000000000E+00  0.00000000000E+00  0.69339861991E+03  0.69339978295E+03  0.12700000000E+01 0.  1.
          4   -1    0    0  502    0  0.00000000000E+00 -0.00000000000E+00 -0.78199966276E+01  0.79224520987E+01  0.12700000000E+01 0.  1.
         25    2    1    2    0    0 -0.20322602486E+02  0.22543566581E+01  0.61093823678E+03  0.62393181191E+03  0.12500914551E+03 0.  0.
    9000005    1    3    3    0    0 -0.16612156227E+02  0.17564058489E+02  0.16506060938E+02  0.29290099570E+02  0.10000000000E+01 0.  0.
    9000005    1    3    3    0    0 -0.37104462588E+01 -0.15309701831E+02  0.59443217584E+03  0.59464171234E+03  0.10000000000E+01 0.  0.
         21    1    1    2  502  501  0.20322602486E+02 -0.22543566581E+01  0.74640386505E+02  0.77390423137E+02  0.00000000000E+00 0.  1.
<mgrwt>
<rscale>  1 0.12667035E+03</rscale>
<asrwt>0</asrwt>
<pdfrwt beam="2">  1        4 0.12110472E-02 0.12667035E+03</pdfrwt>
<pdfrwt beam="1">  1       -4 0.10668467E+00 0.12667035E+03</pdfrwt>
<totfact> 0.26155872E+03</totfact>
</mgrwt>
</event>
<event>
 6    4  0.5642870E-004  0.1294115E+03  0.7818608E-02  0.1228332E+00
         -4   -1    0    0    0  501 -0.00000000000E+00  0.00000000000E+00  0.89675996170E+02  0.89684988650E+02  0.12700000000E+01 0. -1.
          4   -1    0    0  502    0  0.00000000000E+00 -0.00000000000E+00 -0.76817231504E+02  0.76827729082E+02  0.12700000000E+01 0. -1.
         25    2    1    2    0    0  0.30422530795E+02 -0.14024384230E+02  0.23154994902E+02  0.13146666103E+03  0.12500046177E+03 0.  0.
    9000005    1    3    3    0    0  0.25257631756E+02  0.34770353076E+02 -0.34954600097E+02  0.55405319987E+02  0.10000000000E+01 0.  0.
    9000005    1    3    3    0    0  0.51648990390E+01 -0.48794737307E+02  0.58109594999E+02  0.76061341047E+02  0.10000000000E+01 0.  0.
         21    1    1    2  502  501 -0.30422530795E+02  0.14024384230E+02 -0.10296230236E+02  0.35046056698E+02  0.00000000000E+00 0.  1.
<mgrwt>
<rscale>  1 0.12941147E+03</rscale>
<asrwt>0</asrwt>
<pdfrwt beam="2">  1        4 0.11819535E-01 0.12941147E+03</pdfrwt>
<pdfrwt beam="1">  1       -4 0.13797806E-01 0.12941147E+03</pdfrwt>
<totfact> 0.40222163E+03</totfact>
</mgrwt>
</event>
<event>
 6    4  0.5642870E-004  0.1719475E+03  0.7818608E-02  0.1175832E+00
         -4   -1    0    0    0  501 -0.00000000000E+00  0.00000000000E+00  0.75874768047E+03  0.75874874334E+03  0.12700000000E+01 0.  1.
          4   -1    0    0  502    0  0.00000000000E+00 -0.00000000000E+00 -0.36484099648E+02  0.36506197106E+02  0.12700000000E+01 0.  1.
         25    2    1    2    0    0  0.31892125632E+02 -0.11368024545E+03  0.60456515043E+03  0.62854193435E+03  0.12500254493E+03 0.  0.
    9000005    1    3    3    0    0  0.64476567718E+02 -0.10164715121E+03  0.55565232258E+03  0.56854188475E+03  0.10000000000E+01 0.  0.
    9000005    1    3    3    0    0 -0.32584442086E+02 -0.12033094243E+02  0.48912827855E+02  0.60000049599E+02  0.10000000000E+01 0.  0.
         21    1    1    2  502  501 -0.31892125632E+02  0.11368024545E+03  0.11769843039E+03  0.16671300609E+03  0.00000000000E+00 0.  1.
<mgrwt>
<rscale>  1 0.17194750E+03</rscale>
<asrwt>0</asrwt>
<pdfrwt beam="2">  1        4 0.56147202E-02 0.17194750E+03</pdfrwt>
<pdfrwt beam="1">  1       -4 0.11673219E+00 0.17194750E+03</pdfrwt>
<totfact> 0.20401333E+02</totfact>
</mgrwt>
</event>
<event>
 6    4  0.5642870E-004  0.1293862E+03  0.7818608E-02  0.1228369E+00
         -4   -1    0    0    0  501 -0.00000000000E+00  0.00000000000E+00  0.55043895562E+02  0.55058544647E+02  0.12700000000E+01 0.  1.
          4   -1    0    0  502    0  0.00000000000E+00 -0.00000000000E+00 -0.12955439556E+03  0.12956062021E+03  0.12700000000E+01 0.  1.
         25    2    1    2    0    0  0.23182261786E+02  0.24052524668E+02 -0.37389820589E+02  0.13468034184E+03  0.12499941836E+03 0.  0.
    9000005    1    3    3    0    0 -0.27739166131E+00  0.62025925379E+02 -0.58524146945E+02  0.85284043882E+02  0.10000000000E+01 0.  0.
    9000005    1    3    3    0    0  0.23459653448E+02 -0.37973400711E+02  0.21134326356E+02  0.49396297958E+02  0.10000000000E+01 0.  0.
         21    1    1    2  502  501 -0.23182261786E+02 -0.24052524668E+02 -0.37120679413E+02  0.49938823019E+02  0.00000000000E+00 0.  1.
<mgrwt>
<rscale>  1 0.12938623E+03</rscale>
<asrwt>0</asrwt>
<pdfrwt beam="2">  1        4 0.19933051E-01 0.12938623E+03</pdfrwt>
<pdfrwt beam="1">  1       -4 0.84698973E-02 0.12938623E+03</pdfrwt>
<totfact> 0.36860070E+03</totfact>
</mgrwt>
</event>
<event>
 6    4  0.5642870E-004  0.1269187E+03  0.7818608E-02  0.1232101E+00
         -4   -1    0    0    0  501 -0.00000000000E+00  0.00000000000E+00  0.36219997436E+02  0.36242255922E+02  0.12700000000E+01 0. -1.
          4   -1    0    0  502    0  0.00000000000E+00 -0.00000000000E+00 -0.16111583812E+03  0.16112084344E+03  0.12700000000E+01 0. -1.
         25    2    1    2    0    0  0.15951551120E+02 -0.15122861983E+02 -0.88090491069E+02  0.15449368489E+03  0.12500084446E+03 0.  0.
    9000005    1    3    3    0    0 -0.53812299791E+02 -0.15030744931E+02 -0.50093765391E+02  0.75047133410E+02  0.10000000000E+01 0.  0.
    9000005    1    3    3    0    0  0.69763850911E+02 -0.92117051573E-01 -0.37996725678E+02  0.79446551477E+02  0.10000000000E+01 0.  0.
         21    1    1    2  502  501 -0.15951551120E+02  0.15122861983E+02 -0.36805349611E+02  0.42869414478E+02  0.00000000000E+00 0.  1.
<mgrwt>
<rscale>  1 0.12691873E+03</rscale>
<asrwt>0</asrwt>
<pdfrwt beam="2">  1        4 0.24789149E-01 0.12691873E+03</pdfrwt>
<pdfrwt beam="1">  1       -4 0.55744046E-02 0.12691873E+03</pdfrwt>
<totfact> 0.48960586E+03</totfact>
</mgrwt>
</event>
<event>
 6    4  0.5642870E-004  0.1270029E+03  0.7818608E-02  0.1231972E+00
          4   -1    0    0  502    0  0.00000000000E+00  0.00000000000E+00  0.10355168979E+03  0.10355947740E+03  0.12700000000E+01 0. -1.
         -4   -1    0    0    0  501 -0.00000000000E+00 -0.00000000000E+00 -0.56356132867E+02  0.56370440940E+02  0.12700000000E+01 0. -1.
         25    2    1    2    0    0  0.19018336363E+02 -0.12005430933E+02  0.51471113446E+02  0.13703651593E+03  0.12499561468E+03 0.  0.
    9000005    1    3    3    0    0 -0.49632553368E+02  0.41223179745E+01  0.15087062353E+00  0.49813719207E+02  0.10000000000E+01 0.  0.
    9000005    1    3    3    0    0  0.68650889731E+02 -0.16127748907E+02  0.51320242822E+02  0.87222796728E+02  0.10000000000E+01 0.  0.
         21    1    1    2  502  501 -0.19018336363E+02  0.12005430933E+02 -0.42755565226E+01  0.22893402401E+02  0.00000000000E+00 0.  1.
<mgrwt>
<rscale>  1 0.12700288E+03</rscale>
<asrwt>0</asrwt>
<pdfrwt beam="1">  1        4 0.15932729E-01 0.12700288E+03</pdfrwt>
<pdfrwt beam="2">  1       -4 0.86718740E-02 0.12700288E+03</pdfrwt>
<totfact> 0.52500397E+03</totfact>
</mgrwt>
</event>
<event>
 6    4  0.5642870E-004  0.1815022E+03  0.7818608E-02  0.1166357E+00
         -4   -1    0    0    0  501 -0.00000000000E+00  0.00000000000E+00  0.97341812167E+03  0.97341895014E+03  0.12700000000E+01 0.  1.
          4   -1    0    0  502    0  0.00000000000E+00 -0.00000000000E+00 -0.38054013598E+02  0.38075199945E+02  0.12700000000E+01 0.  1.
         25    2    1    2    0    0 -0.12885619482E+03 -0.26690203663E+02  0.80880286778E+03  0.82891804689E+03  0.12500705423E+03 0.  0.
    9000005    1    3    3    0    0  0.66715139132E+01 -0.43503480958E+02  0.23485938065E+03  0.23894976592E+03  0.10000000000E+01 0.  0.
    9000005    1    3    3    0    0 -0.13552770874E+03  0.16813277294E+02  0.57394348713E+03  0.58996828097E+03  0.10000000000E+01 0.  0.
         21    1    1    2  502  501  0.12885619482E+03  0.26690203663E+02  0.12656124029E+03  0.18257610320E+03  0.00000000000E+00 0.  1.
<mgrwt>
<rscale>  1 0.18150220E+03</rscale>
<asrwt>0</asrwt>
<pdfrwt beam="2">  1        4 0.58561577E-02 0.18150220E+03</pdfrwt>
<pdfrwt beam="1">  1       -4 0.14975831E+00 0.18150220E+03</pdfrwt>
<totfact> 0.10346969E+02</totfact>
</mgrwt>
</event>
<event>
 6    4  0.5642870E-004  0.1277269E+03  0.7818608E-02  0.1230868E+00
          4   -1    0    0  502    0  0.00000000000E+00  0.00000000000E+00  0.68454949832E+02  0.68466729559E+02  0.12700000000E+01 0. -1.
         -4   -1    0    0    0  501 -0.00000000000E+00 -0.00000000000E+00 -0.19139900180E+03  0.19140321520E+03  0.12700000000E+01 0. -1.
         25    2    1    2    0    0 -0.21385479659E+02 -0.15256476025E+02 -0.16598826069E+03  0.20944274272E+03  0.12499624390E+03 0.  0.
    9000005    1    3    3    0    0  0.34096993591E+02  0.29091545516E+02 -0.24418861208E+02  0.51050991912E+02  0.10000000000E+01 0.  0.
    9000005    1    3    3    0    0 -0.55482473250E+02 -0.44348021541E+02 -0.14156939949E+03  0.15839175081E+03  0.10000000000E+01 0.  0.
         21    1    1    2  502  501  0.21385479659E+02  0.15256476025E+02  0.43044208727E+02  0.50427202043E+02  0.00000000000E+00 0. -1.
<mgrwt>
<rscale>  1 0.12772690E+03</rscale>
<asrwt>0</asrwt>
<pdfrwt beam="1">  1        4 0.10532761E-01 0.12772690E+03</pdfrwt>
<pdfrwt beam="2">  1       -4 0.29447230E-01 0.12772690E+03</pdfrwt>
<totfact> 0.12449430E+03</totfact>
</mgrwt>
</event>
<event>
 6    4  0.5642870E-004  0.1526842E+03  0.7818608E-02  0.1197213E+00
         -4   -1    0    0    0  501 -0.00000000000E+00  0.00000000000E+00  0.46505282476E+03  0.46505455886E+03  0.12700000000E+01 0.  1.
          4   -1    0    0  502    0  0.00000000000E+00 -0.00000000000E+00 -0.68349159248E+02  0.68360957204E+02  0.12700000000E+01 0.  1.
         25    2    1    2    0    0  0.44334681132E+02 -0.75644310826E+02  0.41643537968E+03  0.44354357242E+03  0.12499939790E+03 0.  0.
    9000005    1    3    3    0    0  0.58148744512E+01 -0.10426064015E+03  0.29706791912E+03  0.31488798393E+03  0.10000000000E+01 0.  0.
    9000005    1    3    3    0    0  0.38519806681E+02  0.28616329327E+02  0.11936746055E+03  0.12865558849E+03  0.10000000000E+01 0.  0.
         21    1    1    2  502  501 -0.44334681132E+02  0.75644310826E+02 -0.19731714162E+02  0.89871943649E+02  0.00000000000E+00 0.  1.
<mgrwt>
<rscale>  1 0.15268423E+03</rscale>
<asrwt>0</asrwt>
<pdfrwt beam="2">  1        4 0.10516296E-01 0.15268423E+03</pdfrwt>
<pdfrwt beam="1">  1       -4 0.71547633E-01 0.15268423E+03</pdfrwt>
<totfact> 0.21575507E+02</totfact>
</mgrwt>
</event>
<event>
 6    4  0.5642870E-004  0.1268414E+03  0.7818608E-02  0.1232219E+00
         -4   -1    0    0    0  501 -0.00000000000E+00  0.00000000000E+00  0.16619626149E+03  0.16620111381E+03  0.12700000000E+01 0.  1.
          4   -1    0    0  502    0  0.00000000000E+00 -0.00000000000E+00 -0.42316993435E+02  0.42336046502E+02  0.12700000000E+01 0.  1.
         25    2    1    2    0    0  0.21634656329E+02  0.21396667989E+00  0.13412075105E+03  0.18459990671E+03  0.12498258102E+03 0.  0.
    9000005    1    3    3    0    0 -0.28506824609E+02  0.14442857894E+02 -0.82208940650E+01  0.33012396046E+02  0.10000000000E+01 0.  0.
    9000005    1    3    3    0    0  0.50141480938E+02 -0.14228891214E+02  0.14234164511E+03  0.15158751067E+03  0.10000000000E+01 0.  0.
         21    1    1    2  502  501 -0.21634656329E+02 -0.21396667989E+00 -0.10241482995E+02  0.23937253605E+02  0.00000000000E+00 0.  1.
<mgrwt>
<rscale>  1 0.12684144E+03</rscale>
<asrwt>0</asrwt>
<pdfrwt beam="2">  1        4 0.65121456E-02 0.12684144E+03</pdfrwt>
<pdfrwt beam="1">  1       -4 0.25570494E-01 0.12684144E+03</pdfrwt>
<totfact> 0.35916583E+03</totfact>
</mgrwt>
</event>
<event>
 6    4  0.5642870E-004  0.1277352E+03  0.7818608E-02  0.1230856E+00
          4   -1    0    0  502    0  0.00000000000E+00  0.00000000000E+00  0.55467251423E+03  0.55467396815E+03  0.12700000000E+01 0.  1.
         -4   -1    0    0    0  501 -0.00000000000E+00 -0.00000000000E+00 -0.11416295858E+02  0.11486718901E+02  0.12700000000E+01 0.  1.
         25    2    1    2    0    0 -0.26287677408E+02 -0.86046556729E+00  0.38244260876E+03  0.40321038966E+03  0.12499794777E+03 0.  0.
    9000005    1    3    3    0    0  0.39128937649E+02  0.35505142032E+02  0.15347849210E+03  0.16232170653E+03  0.10000000000E+01 0.  0.
    9000005    1    3    3    0    0 -0.65416615057E+02 -0.36365607600E+02  0.22896411666E+03  0.24088868313E+03  0.10000000000E+01 0.  0.
         21    1    1    2  502  501  0.26287677408E+02  0.86046556729E+00  0.16081360961E+03  0.16295029739E+03  0.00000000000E+00 0.  1.
<mgrwt>
<rscale>  1 0.12773515E+03</rscale>
<asrwt>0</asrwt>
<pdfrwt beam="1">  1        4 0.85339745E-01 0.12773515E+03</pdfrwt>
<pdfrwt beam="2">  1       -4 0.17618826E-02 0.12773515E+03</pdfrwt>
<totfact> 0.24678128E+03</totfact>
</mgrwt>
</event>
<event>
 6    4  0.5642870E-004  0.1277651E+03  0.7818608E-02  0.1230810E+00
         -4   -1    0    0    0  501 -0.00000000000E+00  0.00000000000E+00  0.27190876507E+02  0.27220519194E+02  0.12700000000E+01 0.  1.
          4   -1    0    0  502    0  0.00000000000E+00 -0.00000000000E+00 -0.22871738355E+03  0.22872090949E+03  0.12700000000E+01 0.  1.
         25    2    1    2    0    0 -0.95514191709E+01 -0.24624178956E+02 -0.14318920836E+03  0.19190378183E+03  0.12500532905E+03 0.  0.
    9000005    1    3    3    0    0  0.22039744685E+02 -0.68407036525E+02 -0.97740518159E+02  0.12132387185E+03  0.10000000000E+01 0.  0.
    9000005    1    3    3    0    0 -0.31591163856E+02  0.43782857568E+02 -0.45448690204E+02  0.70579909974E+02  0.10000000000E+01 0.  0.
         21    1    1    2  502  501  0.95514191709E+01  0.24624178956E+02 -0.58337298683E+02  0.64037646858E+02  0.00000000000E+00 0.  1.
<mgrwt>
<rscale>  1 0.12776507E+03</rscale>
<asrwt>0</asrwt>
<pdfrwt beam="2">  1        4 0.35189840E-01 0.12776507E+03</pdfrwt>
<pdfrwt beam="1">  1       -4 0.41857634E-02 0.12776507E+03</pdfrwt>
<totfact> 0.40114518E+03</totfact>
</mgrwt>
</event>
<event>
 6    4  0.5642870E-004  0.1338966E+03  0.7818608E-02  0.1221786E+00
         -4   -1    0    0    0  501 -0.00000000000E+00  0.00000000000E+00  0.41737513028E+01  0.43626941146E+01  0.12700000000E+01 0.  1.
          4   -1    0    0  502    0  0.00000000000E+00 -0.00000000000E+00 -0.22851633450E+04  0.22851636979E+04  0.12700000000E+01 0.  1.
         25    2    1    2    0    0 -0.47702510648E+02 -0.52015952391E+01 -0.11951519111E+04  0.12026289456E+04  0.12500281615E+03 0.  0.
    9000005    1    3    3    0    0  0.36619388554E+02  0.32203233406E+01 -0.63898126962E+03  0.64003860276E+03  0.10000000000E+01 0.  0.
    9000005    1    3    3    0    0 -0.84321899201E+02 -0.84219185797E+01 -0.55617064152E+03  0.56259034287E+03  0.10000000000E+01 0.  0.
         21    1    1    2  502  501  0.47702510648E+02  0.52015952391E+01 -0.10858376826E+04  0.10868974464E+04  0.00000000000E+00 0. -1.
<mgrwt>
<rscale>  1 0.13389657E+03</rscale>
<asrwt>0</asrwt>
<pdfrwt beam="2">  1        4 0.35157718E+00 0.13389657E+03</pdfrwt>
<pdfrwt beam="1">  1       -4 0.65667862E-03 0.13389657E+03</pdfrwt>
<totfact> 0.17233131E+02</totfact>
</mgrwt>
</event>
<event>
 6    4  0.5642870E-004  0.1364718E+03  0.7818608E-02  0.1218157E+00
         -4   -1    0    0    0  501 -0.00000000000E+00  0.00000000000E+00  0.25015820035E+04  0.25015823258E+04  0.12700000000E+01 0.  1.
          4   -1    0    0  502    0  0.00000000000E+00 -0.00000000000E+00 -0.36541570812E+01  0.38685609694E+01  0.12700000000E+01 0.  1.
         25    2    1    2    0    0 -0.49920751084E+02  0.22534503971E+02  0.19586898647E+04  0.19634384459E+04  0.12499863732E+03 0.  0.
    9000005    1    3    3    0    0 -0.92290487795E+01  0.19375692288E+02  0.17805701622E+04  0.17806997769E+04  0.10000000000E+01 0.  0.
    9000005    1    3    3    0    0 -0.40691702305E+02  0.31588116832E+01  0.17811970247E+03  0.18273866897E+03  0.10000000000E+01 0.  0.
         21    1    1    2  502  501  0.49920751084E+02 -0.22534503971E+02  0.53923798167E+03  0.54201244094E+03  0.00000000000E+00 0.  1.
<mgrwt>
<rscale>  1 0.13647177E+03</rscale>
<asrwt>0</asrwt>
<pdfrwt beam="2">  1        4 0.57869146E-03 0.13647177E+03</pdfrwt>
<pdfrwt beam="1">  1       -4 0.38487792E+00 0.13647177E+03</pdfrwt>
<totfact> 0.12903020E+02</totfact>
</mgrwt>
</event>
<event>
 6    4  0.5642870E-004  0.1277912E+03  0.7818608E-02  0.1230770E+00
          4   -1    0    0  502    0  0.00000000000E+00  0.00000000000E+00  0.65562324717E+02  0.65574624073E+02  0.12700000000E+01 0. -1.
         -4   -1    0    0    0  501 -0.00000000000E+00 -0.00000000000E+00 -0.96427307952E+02  0.96435670884E+02  0.12700000000E+01 0. -1.
         25    2    1    2    0    0 -0.43896065962E+01  0.26190448224E+02 -0.40035399242E+02  0.13391572691E+03  0.12500152198E+03 0.  0.
    9000005    1    3    3    0    0 -0.85272922740E+01  0.75855889233E+02 -0.34459472701E+02  0.83757303584E+02  0.10000000000E+01 0.  0.
    9000005    1    3    3    0    0  0.41376856779E+01 -0.49665441009E+02 -0.55759265405E+01  0.50158423322E+02  0.10000000000E+01 0.  0.
         21    1    1    2  502  501  0.43896065962E+01 -0.26190448224E+02  0.91704160067E+01  0.28094568052E+02  0.00000000000E+00 0. -1.
<mgrwt>
<rscale>  1 0.12779119E+03</rscale>
<asrwt>0</asrwt>
<pdfrwt beam="1">  1        4 0.10088101E-01 0.12779119E+03</pdfrwt>
<pdfrwt beam="2">  1       -4 0.14836560E-01 0.12779119E+03</pdfrwt>
<totfact> 0.46235480E+03</totfact>
</mgrwt>
</event>
<event>
 6    4  0.5642870E-004  0.1269835E+03  0.7818608E-02  0.1232002E+00
          4   -1    0    0  502    0  0.00000000000E+00  0.00000000000E+00  0.89540001088E+02  0.89549007224E+02  0.12700000000E+01 0.  1.
         -4   -1    0    0    0  501 -0.00000000000E+00 -0.00000000000E+00 -0.62289453573E+02  0.62302399042E+02  0.12700000000E+01 0.  1.
         25    2    1    2    0    0 -0.18994733819E+01 -0.22282547525E+02  0.24409082422E+02  0.12930825105E+03  0.12499880224E+03 0.  0.
    9000005    1    3    3    0    0  0.96824721791E+01 -0.66524810059E+02  0.43133920411E+02  0.79880133393E+02  0.10000000000E+01 0.  0.
    9000005    1    3    3    0    0 -0.11581945561E+02  0.44242262534E+02 -0.18724837989E+02  0.49428117654E+02  0.10000000000E+01 0.  0.
         21    1    1    2  502  501  0.18994733819E+01  0.22282547525E+02  0.28414650924E+01  0.22543155219E+02  0.00000000000E+00 0.  1.
<mgrwt>
<rscale>  1 0.12698354E+03</rscale>
<asrwt>0</asrwt>
<pdfrwt beam="1">  1        4 0.13777073E-01 0.12698354E+03</pdfrwt>
<pdfrwt beam="2">  1       -4 0.95846814E-02 0.12698354E+03</pdfrwt>
<totfact> 0.57212392E+03</totfact>
</mgrwt>
</event>
<event>
 6    4  0.5642870E-004  0.2249403E+03  0.7818608E-02  0.1130253E+00
          4   -1    0    0  502    0  0.00000000000E+00  0.00000000000E+00  0.34050219931E+02  0.34073895835E+02  0.12700000000E+01 0.  1.
         -4   -1    0    0    0  501 -0.00000000000E+00 -0.00000000000E+00 -0.16652151920E+04  0.16652156763E+04  0.12700000000E+01 0.  1.
         25    2    1    2    0    0  0.30425599269E+02 -0.18452848285E+03 -0.12968995603E+04  0.13162623621E+04  0.12498663309E+03 0.  0.
    9000005    1    3    3    0    0  0.36950547668E+02 -0.98684975912E+02 -0.35166674157E+03  0.36711655447E+03  0.10000000000E+01 0.  0.
    9000005    1    3    3    0    0 -0.65249483984E+01 -0.85843506935E+02 -0.94523281872E+03  0.94914580767E+03  0.10000000000E+01 0.  0.
         21    1    1    2  502  501 -0.30425599269E+02  0.18452848285E+03 -0.33426541178E+03  0.38302720998E+03  0.00000000000E+00 0.  1.
<mgrwt>
<rscale>  1 0.22494030E+03</rscale>
<asrwt>0</asrwt>
<pdfrwt beam="1">  1        4 0.52403552E-02 0.22494030E+03</pdfrwt>
<pdfrwt beam="2">  1       -4 0.25618875E+00 0.22494030E+03</pdfrwt>
<totfact> 0.26472206E+01</totfact>
</mgrwt>
</event>
<event>
 6    4  0.5642870E-004  0.1277261E+03  0.7818608E-02  0.1230869E+00
         -4   -1    0    0    0  501 -0.00000000000E+00  0.00000000000E+00  0.17279293984E+03  0.17279760692E+03  0.12700000000E+01 0. -1.
          4   -1    0    0  502    0  0.00000000000E+00 -0.00000000000E+00 -0.34595977401E+02  0.34619280066E+02  0.12700000000E+01 0. -1.
         25    2    1    2    0    0 -0.21250328699E+02  0.15403679537E+02  0.10679228986E+03  0.16648886147E+03  0.12500039203E+03 0.  0.
    9000005    1    3    3    0    0  0.52217852561E+02  0.14657383469E+02  0.45824960387E+02  0.71010351434E+02  0.10000000000E+01 0.  0.
    9000005    1    3    3    0    0 -0.73468181261E+02  0.74629606883E+00  0.60967329468E+02  0.95478510033E+02  0.10000000000E+01 0.  0.
         21    1    1    2  502  501  0.21250328699E+02 -0.15403679537E+02  0.31404672583E+02  0.40928025523E+02  0.00000000000E+00 0. -1.
<mgrwt>
<rscale>  1 0.12772607E+03</rscale>
<asrwt>0</asrwt>
<pdfrwt beam="2">  1        4 0.53246095E-02 0.12772607E+03</pdfrwt>
<pdfrwt beam="1">  1       -4 0.26585681E-01 0.12772607E+03</pdfrwt>
<totfact> 0.46393847E+03</totfact>
</mgrwt>
</event>
<event>
 6    4  0.5642870E-004  0.1291756E+03  0.7818608E-02  0.1228684E+00
         -4   -1    0    0    0  501 -0.00000000000E+00  0.00000000000E+00  0.11548252380E+03  0.11548950689E+03  0.12700000000E+01 0. -1.
          4   -1    0    0  502    0  0.00000000000E+00 -0.00000000000E+00 -0.57648702535E+02  0.57662689878E+02  0.12700000000E+01 0. -1.
         25    2    1    2    0    0 -0.27255857457E+02  0.17831305485E+02  0.55199510914E+02  0.14047534239E+03  0.12500199436E+03 0.  0.
    9000005    1    3    3    0    0  0.33527492113E+02  0.35451282675E+02 -0.97689192568E+01  0.49772662719E+02  0.10000000000E+01 0.  0.
    9000005    1    3    3    0    0 -0.60783349570E+02 -0.17619977190E+02  0.64968430171E+02  0.90702679673E+02  0.10000000000E+01 0.  0.
         21    1    1    2  502  501  0.27255857457E+02 -0.17831305485E+02  0.26343103463E+01  0.32676854378E+02  0.00000000000E+00 0. -1.
<mgrwt>
<rscale>  1 0.12917560E+03</rscale>
<asrwt>0</asrwt>
<pdfrwt beam="2">  1        4 0.88706444E-02 0.12917560E+03</pdfrwt>
<pdfrwt beam="1">  1       -4 0.17768155E-01 0.12917560E+03</pdfrwt>
<totfact> 0.41888795E+03</totfact>
</mgrwt>
</event>
<event>
 6    4  0.5642870E-004  0.1273792E+03  0.7818608E-02  0.1231397E+00
         -4   -1    0    0    0  501 -0.00000000000E+00  0.00000000000E+00  0.14820932545E+03  0.14821476664E+03  0.12700000000E+01 0. -1.
          4   -1    0    0  502    0  0.00000000000E+00 -0.00000000000E+00 -0.54611704390E+02  0.54626469375E+02  0.12700000000E+01 0. -1.
         25    2    1    2    0    0  0.22686943924E+02 -0.92159079548E+01  0.11401944984E+03  0.17095579303E+03  0.12500327133E+03 0.  0.
    9000005    1    3    3    0    0 -0.41821751129E+02  0.30232258666E+02  0.50264816606E+02  0.72045819588E+02  0.10000000000E+01 0.  0.
    9000005    1    3    3    0    0  0.64508695054E+02 -0.39448166621E+02  0.63754633233E+02  0.98909973440E+02  0.10000000000E+01 0.  0.
         21    1    1    2  502  501 -0.22686943924E+02  0.92159079548E+01 -0.20421828778E+02  0.31885442990E+02  0.00000000000E+00 0. -1.
<mgrwt>
<rscale>  1 0.12737915E+03</rscale>
<asrwt>0</asrwt>
<pdfrwt beam="2">  1        4 0.84033551E-02 0.12737915E+03</pdfrwt>
<pdfrwt beam="1">  1       -4 0.22802989E-01 0.12737915E+03</pdfrwt>
<totfact> 0.29165232E+03</totfact>
</mgrwt>
</event>
<event>
 6    4  0.5642870E-004  0.1316227E+03  0.7818608E-02  0.1225068E+00
          4   -1    0    0  502    0  0.00000000000E+00  0.00000000000E+00  0.82920760298E+03  0.82920857554E+03  0.12700000000E+01 0.  1.
         -4   -1    0    0    0  501 -0.00000000000E+00 -0.00000000000E+00 -0.96145992802E+01  0.96981142146E+01  0.12700000000E+01 0.  1.
         25    2    1    2    0    0  0.35337016221E+02  0.21193892938E+02  0.51566696931E+03  0.53220011956E+03  0.12500663269E+03 0.  0.
    9000005    1    3    3    0    0  0.39555812045E+01  0.15838537198E+02  0.49260569288E+03  0.49287713940E+03  0.10000000000E+01 0.  0.
    9000005    1    3    3    0    0  0.31381435016E+02  0.53553557397E+01  0.23061276431E+02  0.39322980170E+02  0.10000000000E+01 0.  0.
         21    1    1    2  502  501 -0.35337016221E+02 -0.21193892938E+02  0.30392603439E+03  0.30670657019E+03  0.00000000000E+00 0.  1.
<mgrwt>
<rscale>  1 0.13162273E+03</rscale>
<asrwt>0</asrwt>
<pdfrwt beam="1">  1        4 0.12757691E+00 0.13162273E+03</pdfrwt>
<pdfrwt beam="2">  1       -4 0.14856680E-02 0.13162273E+03</pdfrwt>
<totfact> 0.12629411E+03</totfact>
</mgrwt>
</event>
<event>
 6    4  0.5642870E-004  0.1284490E+03  0.7818608E-02  0.1229775E+00
         -4   -1    0    0    0  501 -0.00000000000E+00  0.00000000000E+00  0.28321419381E+01  0.31038569487E+01  0.12700000000E+01 0.  1.
          4   -1    0    0  502    0  0.00000000000E+00 -0.00000000000E+00 -0.21094553636E+04  0.21094557459E+04  0.12700000000E+01 0.  1.
         25    2    1    2    0    0  0.29135082359E+02  0.53811734763E+01 -0.17500841557E+04  0.17547916395E+04  0.12498534287E+03 0.  0.
    9000005    1    3    3    0    0  0.42600209784E+02  0.55536842101E+02 -0.71886248829E+03  0.72226269167E+03  0.10000000000E+01 0.  0.
    9000005    1    3    3    0    0 -0.13465127425E+02 -0.50155668625E+02 -0.10312216674E+04  0.10325289478E+04  0.10000000000E+01 0.  0.
         21    1    1    2  502  501 -0.29135082359E+02 -0.53811734763E+01 -0.35653906600E+03  0.35776796340E+03  0.00000000000E+00 0.  1.
<mgrwt>
<rscale>  1 0.12844900E+03</rscale>
<asrwt>0</asrwt>
<pdfrwt beam="2">  1        4 0.32455133E+00 0.12844900E+03</pdfrwt>
<pdfrwt beam="1">  1       -4 0.45664639E-03 0.12844900E+03</pdfrwt>
<totfact> 0.42617374E+02</totfact>
</mgrwt>
</event>
<event>
 6    4  0.5642870E-004  0.1548435E+03  0.7818608E-02  0.1194645E+00
          4   -1    0    0  502    0  0.00000000000E+00  0.00000000000E+00  0.29623789049E+02  0.29650999606E+02  0.12700000000E+01 0.  1.
         -4   -1    0    0    0  501 -0.00000000000E+00 -0.00000000000E+00 -0.55951111121E+03  0.55951255256E+03  0.12700000000E+01 0.  1.
         25    2    1    2    0    0  0.81590753295E+02  0.41168445768E+02 -0.24363862850E+03  0.28868026382E+03  0.12499848588E+03 0.  0.
    9000005    1    3    3    0    0 -0.26202313417E+02  0.81347920843E+01 -0.11220320592E+03  0.11551318318E+03  0.10000000000E+01 0.  0.
    9000005    1    3    3    0    0  0.10779306671E+03  0.33033653684E+02 -0.13143542258E+03  0.17316708063E+03  0.10000000000E+01 0.  0.
         21    1    1    2  502  501 -0.81590753295E+02 -0.41168445768E+02 -0.28624869367E+03  0.30048328835E+03  0.00000000000E+00 0.  1.
<mgrwt>
<rscale>  1 0.15484351E+03</rscale>
<asrwt>0</asrwt>
<pdfrwt beam="1">  1        4 0.45597104E-02 0.15484351E+03</pdfrwt>
<pdfrwt beam="2">  1       -4 0.86080829E-01 0.15484351E+03</pdfrwt>
<totfact> 0.56902721E+02</totfact>
</mgrwt>
</event>
<event>
 6    4  0.5642870E-004  0.2172541E+03  0.7818608E-02  0.1135947E+00
         -4   -1    0    0    0  501 -0.00000000000E+00  0.00000000000E+00  0.15648003483E+04  0.15648008637E+04  0.12700000000E+01 0.  1.
          4   -1    0    0  502    0  0.00000000000E+00 -0.00000000000E+00 -0.36698177180E+02  0.36720145810E+02  0.12700000000E+01 0.  1.
         25    2    1    2    0    0 -0.13896604634E+03 -0.11075159791E+03  0.12682185566E+04  0.12866925299E+04  0.12498752193E+03 0.  0.
    9000005    1    3    3    0    0 -0.25540035700E+02  0.11572969381E+02  0.48959807131E+03  0.49040136467E+03  0.10000000000E+01 0.  0.
    9000005    1    3    3    0    0 -0.11342601064E+03 -0.12232456729E+03  0.77862048532E+03  0.79629116522E+03  0.10000000000E+01 0.  0.
         21    1    1    2  502  501  0.13896604634E+03  0.11075159791E+03  0.25988361449E+03  0.31482847958E+03  0.00000000000E+00 0.  1.
<mgrwt>
<rscale>  1 0.21725413E+03</rscale>
<asrwt>0</asrwt>
<pdfrwt beam="2">  1        4 0.56476034E-02 0.21725413E+03</pdfrwt>
<pdfrwt beam="1">  1       -4 0.24074022E+00 0.21725413E+03</pdfrwt>
<totfact> 0.28819946E+01</totfact>
</mgrwt>
</event>
<event>
 6    4  0.5642870E-004  0.1297885E+03  0.7818608E-02  0.1227770E+00
          4   -1    0    0  502    0  0.00000000000E+00  0.00000000000E+00  0.12731589923E+03  0.12732223332E+03  0.12700000000E+01 0. -1.
         -4   -1    0    0    0  501 -0.00000000000E+00 -0.00000000000E+00 -0.97024166311E+02  0.97032477801E+02  0.12700000000E+01 0. -1.
         25    2    1    2    0    0 -0.33350789124E+02 -0.10406198499E+02 -0.48191530926E+02  0.13844669749E+03  0.12499800114E+03 0.  0.
    9000005    1    3    3    0    0  0.39814339233E+02 -0.28130260451E+02  0.54209763843E+00  0.48762557680E+02  0.10000000000E+01 0.  0.
    9000005    1    3    3    0    0 -0.73165128358E+02  0.17724061952E+02 -0.48733628565E+02  0.89684139806E+02  0.10000000000E+01 0.  0.
         21    1    1    2  502  501  0.33350789124E+02  0.10406198499E+02  0.78483263846E+02  0.85908013633E+02  0.00000000000E+00 0. -1.
<mgrwt>
<rscale>  1 0.12978854E+03</rscale>
<asrwt>0</asrwt>
<pdfrwt beam="1">  1        4 0.19588188E-01 0.12978854E+03</pdfrwt>
<pdfrwt beam="2">  1       -4 0.14927922E-01 0.12978854E+03</pdfrwt>
<totfact> 0.14519092E+03</totfact>
</mgrwt>
</event>
<event>
 6    4  0.5642870E-004  0.1338686E+03  0.7818608E-02  0.1221826E+00
         -4   -1    0    0    0  501 -0.00000000000E+00  0.00000000000E+00  0.79149851451E+02  0.79160039696E+02  0.12700000000E+01 0. -1.
          4   -1    0    0  502    0  0.00000000000E+00 -0.00000000000E+00 -0.10665454279E+03  0.10666210385E+03  0.12700000000E+01 0. -1.
         25    2    1    2    0    0 -0.47909172921E+02  0.85773322700E+00 -0.32166990334E+02  0.13767900709E+03  0.12499907668E+03 0.  0.
    9000005    1    3    3    0    0  0.91403901666E+01  0.15118427079E+01  0.42609935439E+02  0.43616957699E+02  0.10000000000E+01 0.  0.
    9000005    1    3    3    0    0 -0.57049563087E+02 -0.65410948094E+00 -0.74776925773E+02  0.94062049392E+02  0.10000000000E+01 0.  0.
         21    1    1    2  502  501  0.47909172921E+02 -0.85773322700E+00  0.46622989915E+01  0.48143136459E+02  0.00000000000E+00 0. -1.
<mgrwt>
<rscale>  1 0.13386857E+03</rscale>
<asrwt>0</asrwt>
<pdfrwt beam="2">  1        4 0.16409757E-01 0.13386857E+03</pdfrwt>
<pdfrwt beam="1">  1       -4 0.12178266E-01 0.13386857E+03</pdfrwt>
<totfact> 0.28468893E+03</totfact>
</mgrwt>
</event>
<event>
 6    4  0.5642870E-004  0.1268389E+03  0.7818608E-02  0.1232223E+00
         -4   -1    0    0    0  501 -0.00000000000E+00  0.00000000000E+00  0.20197401065E+02  0.20237290080E+02  0.12700000000E+01 0.  1.
          4   -1    0    0  502    0  0.00000000000E+00 -0.00000000000E+00 -0.44043226321E+03  0.44043409424E+03  0.12700000000E+01 0.  1.
         25    2    1    2    0    0 -0.16275730397E+02  0.14038883655E+02 -0.18412220318E+03  0.22358241922E+03  0.12500449122E+03 0.  0.
    9000005    1    3    3    0    0 -0.25087041365E+02  0.49581971261E+02 -0.26154950185E+02  0.61423227999E+02  0.10000000000E+01 0.  0.
    9000005    1    3    3    0    0  0.88113109689E+01 -0.35543087606E+02 -0.15796725300E+03  0.16215919122E+03  0.10000000000E+01 0.  0.
         21    1    1    2  502  501  0.16275730397E+02 -0.14038883655E+02 -0.23611265896E+03  0.23708896510E+03  0.00000000000E+00 0.  1.
<mgrwt>
<rscale>  1 0.12683892E+03</rscale>
<asrwt>0</asrwt>
<pdfrwt beam="2">  1        4 0.67762012E-01 0.12683892E+03</pdfrwt>
<pdfrwt beam="1">  1       -4 0.31105020E-02 0.12683892E+03</pdfrwt>
<totfact> 0.16924057E+03</totfact>
</mgrwt>
</event>
<event>
 6    4  0.5642870E-004  0.1280608E+03  0.7818608E-02  0.1230362E+00
          4   -1    0    0  502    0  0.00000000000E+00  0.00000000000E+00  0.12914578429E+03  0.12915202863E+03  0.12700000000E+01 0. -1.
         -4   -1    0    0    0  501 -0.00000000000E+00 -0.00000000000E+00 -0.55021930156E+02  0.55036585088E+02  0.12700000000E+01 0. -1.
         25    2    1    2    0    0 -0.21062665622E+01  0.27759821023E+02  0.29215569208E+02  0.13135114522E+03  0.12499811937E+03 0.  0.
    9000005    1    3    3    0    0 -0.27649286956E+02  0.10817005082E+02 -0.43361041030E+02  0.52561112501E+02  0.10000000000E+01 0.  0.
    9000005    1    3    3    0    0  0.25543020394E+02  0.16942815941E+02  0.72576610238E+02  0.78790032723E+02  0.10000000000E+01 0.  0.
         21    1    1    2  502  501  0.21062665622E+01 -0.27759821023E+02  0.44908284924E+02  0.52837468494E+02  0.00000000000E+00 0. -1.
<mgrwt>
<rscale>  1 0.12806082E+03</rscale>
<asrwt>0</asrwt>
<pdfrwt beam="1">  1        4 0.19870190E-01 0.12806082E+03</pdfrwt>
<pdfrwt beam="2">  1       -4 0.84665199E-02 0.12806082E+03</pdfrwt>
<totfact> 0.37000711E+03</totfact>
</mgrwt>
</event>
<event>
 6    4  0.5642870E-004  0.1292937E+03  0.7818608E-02  0.1228508E+00
          4   -1    0    0  502    0  0.00000000000E+00  0.00000000000E+00  0.59687022691E+02  0.59700532474E+02  0.12700000000E+01 0.  1.
         -4   -1    0    0    0  501 -0.00000000000E+00 -0.00000000000E+00 -0.11154127727E+03  0.11154850709E+03  0.12700000000E+01 0.  1.
         25    2    1    2    0    0  0.24196737263E+02 -0.22520385859E+02 -0.48227347091E+02  0.13799540321E+03  0.12499681766E+03 0.  0.
    9000005    1    3    3    0    0 -0.20278751752E+02  0.36062726622E+02  0.11818565906E+02  0.43039824861E+02  0.10000000000E+01 0.  0.
    9000005    1    3    3    0    0  0.44475489015E+02 -0.58583112481E+02 -0.60045912997E+02  0.94955578344E+02  0.10000000000E+01 0.  0.
         21    1    1    2  502  501 -0.24196737263E+02  0.22520385859E+02 -0.36269074873E+01  0.33253636363E+02  0.00000000000E+00 0.  1.
<mgrwt>
<rscale>  1 0.12929367E+03</rscale>
<asrwt>0</asrwt>
<pdfrwt beam="1">  1        4 0.91842142E-02 0.12929367E+03</pdfrwt>
<pdfrwt beam="2">  1       -4 0.17161792E-01 0.12929367E+03</pdfrwt>
<totfact> 0.42044110E+03</totfact>
</mgrwt>
</event>
<event>
 6    4  0.5642870E-004  0.1267647E+03  0.7818608E-02  0.1232337E+00
         -4   -1    0    0    0  501 -0.00000000000E+00  0.00000000000E+00  0.93140188275E+02  0.93148846326E+02  0.12700000000E+01 0.  1.
          4   -1    0    0  502    0  0.00000000000E+00 -0.00000000000E+00 -0.67051762205E+02  0.67063788402E+02  0.12700000000E+01 0.  1.
         25    2    1    2    0    0  0.14173448897E+01 -0.20942782149E+02  0.42358688322E+02  0.13365457711E+03  0.12501471320E+03 0.  0.
    9000005    1    3    3    0    0  0.20490418274E+01  0.47164841550E+02 -0.93461121604E+01  0.48135960190E+02  0.10000000000E+01 0.  0.
    9000005    1    3    3    0    0 -0.63169693775E+00 -0.68107623699E+02  0.51704800483E+02  0.85518616920E+02  0.10000000000E+01 0.  0.
         21    1    1    2  502  501 -0.14173448897E+01  0.20942782149E+02 -0.16270262252E+02  0.26558057618E+02  0.00000000000E+00 0.  1.
<mgrwt>
<rscale>  1 0.12676469E+03</rscale>
<asrwt>0</asrwt>
<pdfrwt beam="2">  1        4 0.10317247E-01 0.12676469E+03</pdfrwt>
<pdfrwt beam="1">  1       -4 0.14330851E-01 0.12676469E+03</pdfrwt>
<totfact> 0.47189826E+03</totfact>
</mgrwt>
</event>
<event>
 6    4  0.5642870E-004  0.1289621E+03  0.7818608E-02  0.1229004E+00
          4   -1    0    0  502    0  0.00000000000E+00  0.00000000000E+00  0.27125462707E+03  0.27125760009E+03  0.12700000000E+01 0.  1.
         -4   -1    0    0    0  501 -0.00000000000E+00 -0.00000000000E+00 -0.68406164529E+02  0.68417952656E+02  0.12700000000E+01 0.  1.
         25    2    1    2    0    0  0.27051767771E+02 -0.16417872001E+02 -0.53626132977E+01  0.12907356614E+03  0.12501953125E+03 0.  0.
    9000005    1    3    3    0    0  0.62610388854E+02  0.23550967911E+02  0.20047854464E+02  0.69839998215E+02  0.10000000000E+01 0.  0.
    9000005    1    3    3    0    0 -0.35558621084E+02 -0.39968839912E+02 -0.25410467762E+02  0.59233567925E+02  0.10000000000E+01 0.  0.
         21    1    1    2  502  501 -0.27051767771E+02  0.16417872001E+02  0.20821107584E+03  0.21060198661E+03  0.00000000000E+00 0. -1.
<mgrwt>
<rscale>  1 0.12896212E+03</rscale>
<asrwt>0</asrwt>
<pdfrwt beam="1">  1        4 0.41732617E-01 0.12896212E+03</pdfrwt>
<pdfrwt beam="2">  1       -4 0.10525161E-01 0.12896212E+03</pdfrwt>
<totfact> 0.63749416E+02</totfact>
</mgrwt>
</event>
<event>
 6    4  0.5642870E-004  0.1280840E+03  0.7818608E-02  0.1230327E+00
          4   -1    0    0  502    0  0.00000000000E+00  0.00000000000E+00  0.57892055793E+02  0.57905984353E+02  0.12700000000E+01 0.  1.
         -4   -1    0    0    0  501 -0.00000000000E+00 -0.00000000000E+00 -0.17558263102E+03  0.17558722395E+03  0.12700000000E+01 0.  1.
         25    2    1    2    0    0 -0.27238253167E+02 -0.61432849459E+01 -0.14566469399E+03  0.19396835909E+03  0.12500343542E+03 0.  0.
    9000005    1    3    3    0    0  0.12085835324E+02 -0.60092712987E+02 -0.71061899684E+02  0.93850919848E+02  0.10000000000E+01 0.  0.
    9000005    1    3    3    0    0 -0.39324088491E+02  0.53949428042E+02 -0.74602794302E+02  0.10011743924E+03  0.10000000000E+01 0.  0.
         21    1    1    2  502  501  0.27238253167E+02  0.61432849459E+01  0.27974118760E+02  0.39524849221E+02  0.00000000000E+00 0.  1.
<mgrwt>
<rscale>  1 0.12808404E+03</rscale>
<asrwt>0</asrwt>
<pdfrwt beam="1">  1        4 0.89078949E-02 0.12808404E+03</pdfrwt>
<pdfrwt beam="2">  1       -4 0.27014137E-01 0.12808404E+03</pdfrwt>
<totfact> 0.19395823E+03</totfact>
</mgrwt>
</event>
<event>
 6    4  0.5642870E-004  0.1268348E+03  0.7818608E-02  0.1232229E+00
          4   -1    0    0  502    0  0.00000000000E+00  0.00000000000E+00  0.23665993702E+03  0.23666334463E+03  0.12700000000E+01 0. -1.
         -4   -1    0    0    0  501 -0.00000000000E+00 -0.00000000000E+00 -0.23275132119E+02  0.23309754935E+02  0.12700000000E+01 0. -1.
         25    2    1    2    0    0 -0.39710350636E+00  0.21464626338E+02  0.18703496921E+03  0.22598484106E+03  0.12500472314E+03 0.  0.
    9000005    1    3    3    0    0 -0.47410111240E+02  0.50871110315E+02  0.84756873573E+02  0.10963720231E+03  0.10000000000E+01 0.  0.
    9000005    1    3    3    0    0  0.47013007734E+02 -0.29406483977E+02  0.10227809563E+03  0.11634763875E+03  0.10000000000E+01 0.  0.
         21    1    1    2  502  501  0.39710350636E+00 -0.21464626338E+02  0.26349835696E+02  0.33988258505E+02  0.00000000000E+00 0. -1.
<mgrwt>
<rscale>  1 0.12683481E+03</rscale>
<asrwt>0</asrwt>
<pdfrwt beam="1">  1        4 0.36412146E-01 0.12683481E+03</pdfrwt>
<pdfrwt beam="2">  1       -4 0.35837151E-02 0.12683481E+03</pdfrwt>
<totfact> 0.47932800E+03</totfact>
</mgrwt>
</event>
<event>
 6    4  0.5642870E-004  0.1272800E+03  0.7818608E-02  0.1231548E+00
          4   -1    0    0  502    0  0.00000000000E+00  0.00000000000E+00  0.25055333389E+02  0.25087499501E+02  0.12700000000E+01 0. -1.
         -4   -1    0    0    0  501 -0.00000000000E+00 -0.00000000000E+00 -0.34626030801E+03  0.34626263703E+03  0.12700000000E+01 0. -1.
         25    2    1    2    0    0  0.12464764314E+01 -0.23967029203E+02 -0.32310972528E+03  0.34727524780E+03  0.12499692385E+03 0.  0.
    9000005    1    3    3    0    0  0.39035472976E+01  0.34493357513E+02 -0.23333547838E+02  0.41838784026E+02  0.10000000000E+01 0.  0.
    9000005    1    3    3    0    0 -0.26570708662E+01 -0.58460386716E+02 -0.29977617744E+03  0.30543646378E+03  0.10000000000E+01 0.  0.
         21    1    1    2  502  501 -0.12464764314E+01  0.23967029203E+02  0.19047506609E+01  0.24074888730E+02  0.00000000000E+00 0. -1.
<mgrwt>
<rscale>  1 0.12728002E+03</rscale>
<asrwt>0</asrwt>
<pdfrwt beam="1">  1        4 0.38573204E-02 0.12728002E+03</pdfrwt>
<pdfrwt beam="2">  1       -4 0.53273467E-01 0.12728002E+03</pdfrwt>
<totfact> 0.19991070E+03</totfact>
</mgrwt>
</event>
<event>
 6    4  0.5642870E-004  0.1268255E+03  0.7818608E-02  0.1232244E+00
          4   -1    0    0  502    0  0.00000000000E+00  0.00000000000E+00  0.55990889600E+02  0.56005290983E+02  0.12700000000E+01 0. -1.
         -4   -1    0    0    0  501 -0.00000000000E+00 -0.00000000000E+00 -0.14585545355E+03  0.14586098255E+03  0.12700000000E+01 0. -1.
         25    2    1    2    0    0  0.64090991513E+01  0.20453112006E+02 -0.11333127133E+03  0.17008431800E+03  0.12500116729E+03 0.  0.
    9000005    1    3    3    0    0 -0.31894696500E+02  0.46426730904E+02 -0.10488453944E+02  0.57303757934E+02  0.10000000000E+01 0.  0.
    9000005    1    3    3    0    0  0.38303795651E+02 -0.25973618898E+02 -0.10284281739E+03  0.11278056006E+03  0.10000000000E+01 0.  0.
         21    1    1    2  502  501 -0.64090991513E+01 -0.20453112006E+02  0.23466707379E+02  0.31781955539E+02  0.00000000000E+00 0. -1.
<mgrwt>
<rscale>  1 0.12682546E+03</rscale>
<asrwt>0</asrwt>
<pdfrwt beam="1">  1        4 0.86155162E-02 0.12682546E+03</pdfrwt>
<pdfrwt beam="2">  1       -4 0.22440834E-01 0.12682546E+03</pdfrwt>
<totfact> 0.28779497E+03</totfact>
</mgrwt>
</event>
<event>
 6    4  0.5642870E-004  0.1542619E+03  0.7818608E-02  0.1195332E+00
          4   -1    0    0  502    0  0.00000000000E+00  0.00000000000E+00  0.34313302033E+03  0.34313537058E+03  0.12700000000E+01 0. -1.
         -4   -1    0    0    0  501 -0.00000000000E+00 -0.00000000000E+00 -0.48704862055E+02  0.48721417136E+02  0.12700000000E+01 0. -1.
         25    2    1    2    0    0  0.75463759568E+02 -0.49773142910E+02  0.12016487460E+03  0.19554113169E+03  0.12499836931E+03 0.  0.
    9000005    1    3    3    0    0  0.86908202092E+02  0.14092239875E+02  0.81655260219E+02  0.12008417188E+03  0.10000000000E+01 0.  0.
    9000005    1    3    3    0    0 -0.11444442524E+02 -0.63865382785E+02  0.38509614378E+02  0.75456959802E+02  0.10000000000E+01 0.  0.
         21    1    1    2  502  501 -0.75463759568E+02  0.49773142910E+02  0.17426328368E+03  0.19631565603E+03  0.00000000000E+00 0. -1.
<mgrwt>
<rscale>  1 0.15426191E+03</rscale>
<asrwt>0</asrwt>
<pdfrwt beam="1">  1        4 0.52791152E-01 0.15426191E+03</pdfrwt>
<pdfrwt beam="2">  1       -4 0.74945096E-02 0.15426191E+03</pdfrwt>
<totfact> 0.72491722E+02</totfact>
</mgrwt>
</event>
<event>
 6    4  0.5642870E-004  0.1308982E+03  0.7818608E-02  0.1226129E+00
         -4   -1    0    0    0  501 -0.00000000000E+00  0.00000000000E+00  0.70114836134E+03  0.70114951153E+03  0.12700000000E+01 0.  1.
          4   -1    0    0  502    0  0.00000000000E+00 -0.00000000000E+00 -0.10440050973E+02  0.10517013090E+02  0.12700000000E+01 0.  1.
         25    2    1    2    0    0 -0.31548342741E+02 -0.22668511676E+02  0.57103406464E+03  0.58584488720E+03  0.12500067811E+03 0.  0.
    9000005    1    3    3    0    0  0.15332870892E+02 -0.56498554195E+02  0.15281790633E+03  0.16365053025E+03  0.10000000000E+01 0.  0.
    9000005    1    3    3    0    0 -0.46881213633E+02  0.33830042519E+02  0.41821615831E+03  0.42219435695E+03  0.10000000000E+01 0.  0.
         21    1    1    2  502  501  0.31548342741E+02  0.22668511676E+02  0.11967424573E+03  0.12582163741E+03  0.00000000000E+00 0. -1.
<mgrwt>
<rscale>  1 0.13089816E+03</rscale>
<asrwt>0</asrwt>
<pdfrwt beam="2">  1        4 0.16121705E-02 0.13089816E+03</pdfrwt>
<pdfrwt beam="1">  1       -4 0.10787497E+00 0.13089816E+03</pdfrwt>
<totfact> 0.16623798E+03</totfact>
</mgrwt>
</event>
<event>
 6    4  0.5642870E-004  0.1389054E+03  0.7818608E-02  0.1214809E+00
          4   -1    0    0  502    0  0.00000000000E+00  0.00000000000E+00  0.76320744781E+02  0.76331310640E+02  0.12700000000E+01 0. -1.
         -4   -1    0    0    0  501 -0.00000000000E+00 -0.00000000000E+00 -0.13228220586E+03  0.13228830216E+03  0.12700000000E+01 0. -1.
         25    2    1    2    0    0  0.47083269615E+02  0.38110619222E+02 -0.50496609886E+02  0.14779923649E+03  0.12500181248E+03 0.  0.
    9000005    1    3    3    0    0  0.35447061453E+02 -0.50038541054E+01 -0.84424890114E+02  0.91706568970E+02  0.10000000000E+01 0.  0.
    9000005    1    3    3    0    0  0.11636208162E+02  0.43114473327E+02  0.33928280228E+02  0.56092667524E+02  0.10000000000E+01 0.  0.
         21    1    1    2  502  501 -0.47083269615E+02 -0.38110619222E+02 -0.54648511949E+01  0.60820376303E+02  0.00000000000E+00 0. -1.
<mgrwt>
<rscale>  1 0.13890539E+03</rscale>
<asrwt>0</asrwt>
<pdfrwt beam="1">  1        4 0.11742935E-01 0.13890539E+03</pdfrwt>
<pdfrwt beam="2">  1       -4 0.20352390E-01 0.13890539E+03</pdfrwt>
<totfact> 0.20815700E+03</totfact>
</mgrwt>
</event>
<event>
 6    4  0.5642870E-004  0.1271356E+03  0.7818608E-02  0.1231769E+00
         -4   -1    0    0    0  501 -0.00000000000E+00  0.00000000000E+00  0.56482689956E+02  0.56496965978E+02  0.12700000000E+01 0. -1.
          4   -1    0    0  502    0  0.00000000000E+00 -0.00000000000E+00 -0.10012169651E+03  0.10012975089E+03  0.12700000000E+01 0. -1.
         25    2    1    2    0    0  0.20251046386E+02  0.11347621743E+02 -0.35094482708E+02  0.13189046236E+03  0.12499839178E+03 0.  0.
    9000005    1    3    3    0    0 -0.51439231827E+02  0.11899624965E+02 -0.18000595501E+01  0.52837826030E+02  0.10000000000E+01 0.  0.
    9000005    1    3    3    0    0  0.71690278213E+02 -0.55200322227E+00 -0.33294423158E+02  0.79052636333E+02  0.10000000000E+01 0.  0.
         21    1    1    2  502  501 -0.20251046386E+02 -0.11347621743E+02 -0.85445238490E+01  0.24736254501E+02  0.00000000000E+00 0. -1.
<mgrwt>
<rscale>  1 0.12713564E+03</rscale>
<asrwt>0</asrwt>
<pdfrwt beam="2">  1        4 0.15405056E-01 0.12713564E+03</pdfrwt>
<pdfrwt beam="1">  1       -4 0.86913624E-02 0.12713564E+03</pdfrwt>
<totfact> 0.55496635E+03</totfact>
</mgrwt>
</event>
<event>
 6    4  0.5642870E-004  0.1266654E+03  0.7818608E-02  0.1232489E+00
         -4   -1    0    0    0  501 -0.00000000000E+00  0.00000000000E+00  0.19384527390E+02  0.19426085611E+02  0.12700000000E+01 0.  1.
          4   -1    0    0  502    0  0.00000000000E+00 -0.00000000000E+00 -0.14933440376E+04  0.14933445777E+04  0.12700000000E+01 0.  1.
         25    2    1    2    0    0  0.14605759615E+02  0.14406784866E+02 -0.18824637256E+03  0.22689385888E+03  0.12499297081E+03 0.  0.
    9000005    1    3    3    0    0 -0.19005570734E+02  0.31710366336E+02 -0.18530830650E+03  0.18896276753E+03  0.10000000000E+01 0.  0.
    9000005    1    3    3    0    0  0.33611330349E+02 -0.17303581470E+02 -0.29380660609E+01  0.37931091359E+02  0.10000000000E+01 0.  0.
         21    1    1    2  502  501 -0.14605759615E+02 -0.14406784866E+02 -0.12857131377E+04  0.12858768044E+04  0.00000000000E+00 0.  1.
<mgrwt>
<rscale>  1 0.12666541E+03</rscale>
<asrwt>0</asrwt>
<pdfrwt beam="2">  1        4 0.22974838E+00 0.12666541E+03</pdfrwt>
<pdfrwt beam="1">  1       -4 0.29854745E-02 0.12666541E+03</pdfrwt>
<totfact> 0.87497706E+01</totfact>
</mgrwt>
</event>
<event>
 6    4  0.5642870E-004  0.1287493E+03  0.7818608E-02  0.1229323E+00
          4   -1    0    0  502    0  0.00000000000E+00  0.00000000000E+00  0.52913263203E+03  0.52913415612E+03  0.12700000000E+01 0.  1.
         -4   -1    0    0    0  501 -0.00000000000E+00 -0.00000000000E+00 -0.14443493156E+02  0.14499220481E+02  0.12700000000E+01 0.  1.
         25    2    1    2    0    0 -0.24163506472E+02  0.19053915807E+02  0.29598115887E+03  0.32277118593E+03  0.12501785996E+03 0.  0.
    9000005    1    3    3    0    0 -0.38887318557E+02  0.63824604146E+02  0.22881155070E+03  0.24071046793E+03  0.10000000000E+01 0.  0.
    9000005    1    3    3    0    0  0.14723812085E+02 -0.44770688339E+02  0.67169608174E+02  0.82060718001E+02  0.10000000000E+01 0.  0.
         21    1    1    2  502  501  0.24163506472E+02 -0.19053915807E+02  0.21870798000E+03  0.22086219067E+03  0.00000000000E+00 0. -1.
<mgrwt>
<rscale>  1 0.12874934E+03</rscale>
<asrwt>0</asrwt>
<pdfrwt beam="1">  1        4 0.81409417E-01 0.12874934E+03</pdfrwt>
<pdfrwt beam="2">  1       -4 0.22264800E-02 0.12874934E+03</pdfrwt>
<totfact> 0.19156581E+03</totfact>
</mgrwt>
</event>
<event>
 6    4  0.5642870E-004  0.1346171E+03  0.7818608E-02  0.1220761E+00
          4   -1    0    0  502    0  0.00000000000E+00  0.00000000000E+00  0.16065952373E+02  0.16116070416E+02  0.12700000000E+01 0. -1.
         -4   -1    0    0    0  501 -0.00000000000E+00 -0.00000000000E+00 -0.78336834326E+03  0.78336937272E+03  0.12700000000E+01 0. -1.
         25    2    1    2    0    0  0.47224470158E+02 -0.16371299365E+02 -0.71334426917E+03  0.72593512755E+03  0.12499437196E+03 0.  0.
    9000005    1    3    3    0    0  0.58393955252E+02 -0.21353643682E+02 -0.71065797462E+03  0.71337338680E+03  0.10000000000E+01 0.  0.
    9000005    1    3    3    0    0 -0.11169485093E+02  0.49823443170E+01 -0.26862945543E+01  0.12561740746E+02  0.10000000000E+01 0.  0.
         21    1    1    2  502  501 -0.47224470158E+02  0.16371299365E+02 -0.53958121709E+02  0.73550315587E+02  0.00000000000E+00 0. -1.
<mgrwt>
<rscale>  1 0.13461710E+03</rscale>
<asrwt>0</asrwt>
<pdfrwt beam="1">  1        4 0.24756200E-02 0.13461710E+03</pdfrwt>
<pdfrwt beam="2">  1       -4 0.12052211E+00 0.13461710E+03</pdfrwt>
<totfact> 0.66412504E+02</totfact>
</mgrwt>
</event>
<event>
 6    4  0.5642870E-004  0.1267682E+03  0.7818608E-02  0.1232331E+00
         -4   -1    0    0    0  501 -0.00000000000E+00  0.00000000000E+00  0.77264038648E+03  0.77264143024E+03  0.12700000000E+01 0. -1.
          4   -1    0    0  502    0  0.00000000000E+00 -0.00000000000E+00 -0.70224720835E+01  0.71363866321E+01  0.12700000000E+01 0. -1.
         25    2    1    2    0    0  0.21011739872E+02  0.18661606855E+01  0.64805351080E+03  0.66033592823E+03  0.12500083795E+03 0.  0.
    9000005    1    3    3    0    0  0.25422225875E+01 -0.21781001865E+02  0.15037259391E+02  0.26608158672E+02  0.10000000000E+01 0.  0.
    9000005    1    3    3    0    0  0.18469517284E+02  0.23647162550E+02  0.63301625140E+03  0.63372776956E+03  0.10000000000E+01 0.  0.
         21    1    1    2  502  501 -0.21011739872E+02 -0.18661606855E+01  0.11756440360E+03  0.11944188864E+03  0.00000000000E+00 0.  1.
<mgrwt>
<rscale>  1 0.12676823E+03</rscale>
<asrwt>0</asrwt>
<pdfrwt beam="2">  1        4 0.10892236E-02 0.12676823E+03</pdfrwt>
<pdfrwt beam="1">  1       -4 0.11887655E+00 0.12676823E+03</pdfrwt>
<totfact> 0.23778433E+03</totfact>
</mgrwt>
</event>
<event>
 6    4  0.5642870E-004  0.1299874E+03  0.7818608E-02  0.1227474E+00
         -4   -1    0    0    0  501 -0.00000000000E+00  0.00000000000E+00  0.63641898203E+02  0.63654568625E+02  0.12700000000E+01 0.  1.
          4   -1    0    0  502    0  0.00000000000E+00 -0.00000000000E+00 -0.10973878661E+03  0.10974613518E+03  0.12700000000E+01 0.  1.
         25    2    1    2    0    0 -0.19894498818E+02 -0.29623473709E+02 -0.45471647338E+02  0.13771131877E+03  0.12499358114E+03 0.  0.
    9000005    1    3    3    0    0 -0.25102372207E+02  0.42664748780E+02  0.44337745453E+01  0.49709840430E+02  0.10000000000E+01 0.  0.
    9000005    1    3    3    0    0  0.52078733883E+01 -0.72288222490E+02 -0.49905421883E+02  0.88001478336E+02  0.10000000000E+01 0.  0.
         21    1    1    2  502  501  0.19894498818E+02  0.29623473709E+02 -0.62524106718E+00  0.35689385036E+02  0.00000000000E+00 0.  1.
<mgrwt>
<rscale>  1 0.12998745E+03</rscale>
<asrwt>0</asrwt>
<pdfrwt beam="2">  1        4 0.16884430E-01 0.12998745E+03</pdfrwt>
<pdfrwt beam="1">  1       -4 0.97926012E-02 0.12998745E+03</pdfrwt>
<totfact> 0.38911724E+03</totfact>
</mgrwt>
</event>
<event>
 6    4  0.5642870E-004  0.1273213E+03  0.7818608E-02  0.1231485E+00
          4   -1    0    0  502    0  0.00000000000E+00  0.00000000000E+00  0.37763536735E+03  0.37763750287E+03  0.12700000000E+01 0. -1.
         -4   -1    0    0    0  501 -0.00000000000E+00 -0.00000000000E+00 -0.21522654275E+02  0.21560091536E+02  0.12700000000E+01 0. -1.
         25    2    1    2    0    0 -0.24123005970E+02 -0.19552966446E+01  0.17467525073E+03  0.21615307703E+03  0.12499986755E+03 0.  0.
    9000005    1    3    3    0    0 -0.68749577486E+02 -0.24248050606E+02  0.13063172359E+03  0.14959986487E+03  0.10000000000E+01 0.  0.
    9000005    1    3    3    0    0  0.44626571516E+02  0.22292753961E+02  0.44043527148E+02  0.66553212154E+02  0.10000000000E+01 0.  0.
         21    1    1    2  502  501  0.24123005970E+02  0.19552966446E+01  0.18143746234E+03  0.18304451738E+03  0.00000000000E+00 0. -1.
<mgrwt>
<rscale>  1 0.12732128E+03</rscale>
<asrwt>0</asrwt>
<pdfrwt beam="1">  1        4 0.58100796E-01 0.12732128E+03</pdfrwt>
<pdfrwt beam="2">  1       -4 0.33142215E-02 0.12732128E+03</pdfrwt>
<totfact> 0.21224163E+03</totfact>
</mgrwt>
</event>
<event>
 6    4  0.5642870E-004  0.1274843E+03  0.7818608E-02  0.1231237E+00
          4   -1    0    0  502    0  0.00000000000E+00  0.00000000000E+00  0.81055997975E+02  0.81065946659E+02  0.12700000000E+01 0. -1.
         -4   -1    0    0    0  501 -0.00000000000E+00 -0.00000000000E+00 -0.76924034846E+02  0.76934517851E+02  0.12700000000E+01 0. -1.
         25    2    1    2    0    0  0.19222586193E+02  0.15939411598E+02 -0.12348484087E+02  0.12808094241E+03  0.12501467949E+03 0.  0.
    9000005    1    3    3    0    0 -0.26848799271E+02 -0.41858561576E+02 -0.20324955156E+02  0.53731750405E+02  0.10000000000E+01 0.  0.
    9000005    1    3    3    0    0  0.46071385464E+02  0.57797973174E+02  0.79764710684E+01  0.74349192008E+02  0.10000000000E+01 0.  0.
         21    1    1    2  502  501 -0.19222586193E+02 -0.15939411598E+02  0.16480447217E+02  0.29919522097E+02  0.00000000000E+00 0. -1.
<mgrwt>
<rscale>  1 0.12748428E+03</rscale>
<asrwt>0</asrwt>
<pdfrwt beam="1">  1        4 0.12471725E-01 0.12748428E+03</pdfrwt>
<pdfrwt beam="2">  1       -4 0.11836039E-01 0.12748428E+03</pdfrwt>
<totfact> 0.47575773E+03</totfact>
</mgrwt>
</event>
<event>
 6    4  0.5642870E-004  0.1268997E+03  0.7818608E-02  0.1232130E+00
          4   -1    0    0  502    0  0.00000000000E+00  0.00000000000E+00  0.33433809252E+02  0.33457921350E+02  0.12700000000E+01 0. -1.
         -4   -1    0    0    0  501 -0.00000000000E+00 -0.00000000000E+00 -0.16570777911E+03  0.16571264574E+03  0.12700000000E+01 0. -1.
         25    2    1    2    0    0  0.97414735344E+01 -0.19599013551E+02 -0.10993004013E+03  0.16789327765E+03  0.12499808526E+03 0.  0.
    9000005    1    3    3    0    0  0.22150082659E+02  0.49908838179E+02 -0.34646040693E+02  0.64675083501E+02  0.10000000000E+01 0.  0.
    9000005    1    3    3    0    0 -0.12408609124E+02 -0.69507851730E+02 -0.75283999432E+02  0.10321819415E+03  0.10000000000E+01 0.  0.
         21    1    1    2  502  501 -0.97414735344E+01  0.19599013551E+02 -0.22343929732E+02  0.31277289439E+02  0.00000000000E+00 0.  1.
<mgrwt>
<rscale>  1 0.12689972E+03</rscale>
<asrwt>0</asrwt>
<pdfrwt beam="1">  1        4 0.51458922E-02 0.12689972E+03</pdfrwt>
<pdfrwt beam="2">  1       -4 0.25495733E-01 0.12689972E+03</pdfrwt>
<totfact> 0.52881353E+03</totfact>
</mgrwt>
</event>
<event>
 6    4  0.5642870E-004  0.1270487E+03  0.7818608E-02  0.1231902E+00
         -4   -1    0    0    0  501 -0.00000000000E+00  0.00000000000E+00  0.10545743190E+03  0.10546507879E+03  0.12700000000E+01 0. -1.
          4   -1    0    0  502    0  0.00000000000E+00 -0.00000000000E+00 -0.11676628873E+03  0.11677319506E+03  0.12700000000E+01 0. -1.
         25    2    1    2    0    0 -0.87186156030E+01  0.20937702517E+02  0.64943024848E+02  0.14268482575E+03  0.12500784527E+03 0.  0.
    9000005    1    3    3    0    0  0.32915901856E+02  0.20848014379E+02  0.87163767556E+02  0.95480985924E+02  0.10000000000E+01 0.  0.
    9000005    1    3    3    0    0 -0.41634517459E+02  0.89688138075E-01 -0.22220742708E+02  0.47203839828E+02  0.10000000000E+01 0.  0.
         21    1    1    2  502  501  0.87186156030E+01 -0.20937702517E+02 -0.76251881677E+02  0.79553448096E+02  0.00000000000E+00 0. -1.
<mgrwt>
<rscale>  1 0.12704866E+03</rscale>
<asrwt>0</asrwt>
<pdfrwt beam="2">  1        4 0.17965164E-01 0.12704866E+03</pdfrwt>
<pdfrwt beam="1">  1       -4 0.16225340E-01 0.12704866E+03</pdfrwt>
<totfact> 0.14572039E+03</totfact>
</mgrwt>
</event>
<event>
 6    4  0.5642870E-004  0.1353877E+03  0.7818608E-02  0.1219673E+00
          4   -1    0    0  502    0  0.00000000000E+00  0.00000000000E+00  0.96714117429E+02  0.96722455563E+02  0.12700000000E+01 0.  1.
         -4   -1    0    0    0  501 -0.00000000000E+00 -0.00000000000E+00 -0.92215023328E+02  0.92223768235E+02  0.12700000000E+01 0.  1.
         25    2    1    2    0    0  0.49615256473E+02  0.15504665147E+02 -0.75091483396E+01  0.13559581421E+03  0.12501107634E+03 0.  0.
    9000005    1    3    3    0    0  0.40328008809E+02  0.18306628126E+02 -0.64239535887E+02  0.78033319158E+02  0.10000000000E+01 0.  0.
    9000005    1    3    3    0    0  0.92872476643E+01 -0.28019629783E+01  0.56730387548E+02  0.57562495056E+02  0.10000000000E+01 0.  0.
         21    1    1    2  502  501 -0.49615256473E+02 -0.15504665147E+02  0.12008242440E+02  0.53350409584E+02  0.00000000000E+00 0.  1.
<mgrwt>
<rscale>  1 0.13538773E+03</rscale>
<asrwt>0</asrwt>
<pdfrwt beam="1">  1        4 0.14880409E-01 0.13538773E+03</pdfrwt>
<pdfrwt beam="2">  1       -4 0.14188241E-01 0.13538773E+03</pdfrwt>
<totfact> 0.26034765E+03</totfact>
</mgrwt>
</event>
<event>
 6    4  0.5642870E-004  0.1273129E+03  0.7818608E-02  0.1231498E+00
          4   -1    0    0  502    0  0.00000000000E+00  0.00000000000E+00  0.45597636030E+02  0.45615318825E+02  0.12700000000E+01 0. -1.
         -4   -1    0    0    0  501 -0.00000000000E+00 -0.00000000000E+00 -0.16495553485E+03  0.16496042367E+03  0.12700000000E+01 0. -1.
         25    2    1    2    0    0 -0.44886497531E+01  0.23749684712E+02 -0.13192149354E+03  0.18333534211E+03  0.12499748680E+03 0.  0.
    9000005    1    3    3    0    0 -0.23424281609E+02 -0.47133466688E+02 -0.42463485015E+02  0.67634371517E+02  0.10000000000E+01 0.  0.
    9000005    1    3    3    0    0  0.18935631856E+02  0.70883151400E+02 -0.89458008528E+02  0.11570097059E+03  0.10000000000E+01 0.  0.
         21    1    1    2  502  501  0.44886497531E+01 -0.23749684712E+02  0.12563594727E+02  0.27240400382E+02  0.00000000000E+00 0. -1.
<mgrwt>
<rscale>  1 0.12731287E+03</rscale>
<asrwt>0</asrwt>
<pdfrwt beam="1">  1        4 0.70167573E-02 0.12731287E+03</pdfrwt>
<pdfrwt beam="2">  1       -4 0.25379511E-01 0.12731287E+03</pdfrwt>
<totfact> 0.32262114E+03</totfact>
</mgrwt>
</event>
<event>
 6    4  0.5642870E-004  0.1272395E+03  0.7818608E-02  0.1231610E+00
         -4   -1    0    0    0  501 -0.00000000000E+00  0.00000000000E+00  0.65276017277E+03  0.65276140821E+03  0.12700000000E+01 0.  1.
          4   -1    0    0  502    0  0.00000000000E+00 -0.00000000000E+00 -0.87586698760E+01  0.88502654196E+01  0.12700000000E+01 0.  1.
         25    2    1    2    0    0  0.17996963536E+02  0.15490033383E+02  0.51853628855E+03  0.53391926258E+03  0.12500425824E+03 0.  0.
    9000005    1    3    3    0    0 -0.32661579216E+02 -0.22363418006E+02  0.65866713205E+02  0.76852619541E+02  0.10000000000E+01 0.  0.
    9000005    1    3    3    0    0  0.50658542752E+02  0.37853451389E+02  0.45266957534E+03  0.45706664304E+03  0.10000000000E+01 0.  0.
         21    1    1    2  502  501 -0.17996963536E+02 -0.15490033383E+02  0.12546521434E+03  0.12769241106E+03  0.00000000000E+00 0.  1.
<mgrwt>
<rscale>  1 0.12723952E+03</rscale>
<asrwt>0</asrwt>
<pdfrwt beam="2">  1        4 0.13546288E-02 0.12723952E+03</pdfrwt>
<pdfrwt beam="1">  1       -4 0.10043176E+00 0.12723952E+03</pdfrwt>
<totfact> 0.25434140E+03</totfact>
</mgrwt>
</event>
<event>
 6    4  0.5642870E-004  0.1473681E+03  0.7818608E-02  0.1203745E+00
          4   -1    0    0  502    0  0.00000000000E+00  0.00000000000E+00  0.69360153405E+02  0.69371779423E+02  0.12700000000E+01 0. -1.
         -4   -1    0    0    0  501 -0.00000000000E+00 -0.00000000000E+00 -0.18334046337E+03  0.18334486197E+03  0.12700000000E+01 0. -1.
         25    2    1    2    0    0  0.73696824474E+02  0.25683660844E+02 -0.78744466934E+02  0.16708699111E+03  0.12500599648E+03 0.  0.
    9000005    1    3    3    0    0  0.98191038599E+02 -0.10096465368E+02 -0.74171419352E+02  0.12347395727E+03  0.10000000000E+01 0.  0.
    9000005    1    3    3    0    0 -0.24494214125E+02  0.35780126212E+02 -0.45730475818E+01  0.43613033849E+02  0.10000000000E+01 0.  0.
         21    1    1    2  502  501 -0.73696824474E+02 -0.25683660844E+02 -0.35235843033E+02  0.85629650275E+02  0.00000000000E+00 0. -1.
<mgrwt>
<rscale>  1 0.14736815E+03</rscale>
<asrwt>0</asrwt>
<pdfrwt beam="1">  1        4 0.10672026E-01 0.14736815E+03</pdfrwt>
<pdfrwt beam="2">  1       -4 0.28207458E-01 0.14736815E+03</pdfrwt>
<totfact> 0.13610846E+03</totfact>
</mgrwt>
</event>
<event>
 6    4  0.5642870E-004  0.1271559E+03  0.7818608E-02  0.1231738E+00
         -4   -1    0    0    0  501 -0.00000000000E+00  0.00000000000E+00  0.94357148393E+03  0.94357233860E+03  0.12700000000E+01 0. -1.
          4   -1    0    0  502    0  0.00000000000E+00 -0.00000000000E+00 -0.15527468630E+02  0.15579319050E+02  0.12700000000E+01 0. -1.
         25    2    1    2    0    0  0.22707142566E+02 -0.53201107016E+01  0.92713274945E+03  0.93581181389E+03  0.12499879205E+03 0.  0.
    9000005    1    3    3    0    0 -0.21651823735E+02  0.19013248941E+02  0.77394709749E+03  0.77448396680E+03  0.10000000000E+01 0.  0.
    9000005    1    3    3    0    0  0.44358966301E+02 -0.24333359642E+02  0.15318565196E+03  0.16132784709E+03  0.10000000000E+01 0.  0.
         21    1    1    2  502  501 -0.22707142566E+02  0.53201107016E+01  0.91126584589E+00  0.23339843762E+02  0.00000000000E+00 0. -1.
<mgrwt>
<rscale>  1 0.12715587E+03</rscale>
<asrwt>0</asrwt>
<pdfrwt beam="2">  1        4 0.23928954E-02 0.12715587E+03</pdfrwt>
<pdfrwt beam="1">  1       -4 0.14516891E+00 0.12715587E+03</pdfrwt>
<totfact> 0.43808177E+02</totfact>
</mgrwt>
</event>
<event>
 6    4  0.5642870E-004  0.1273201E+03  0.7818608E-02  0.1231487E+00
          4   -1    0    0  502    0  0.00000000000E+00  0.00000000000E+00  0.39801714121E+01  0.41778779865E+01  0.12700000000E+01 0. -1.
         -4   -1    0    0    0  501 -0.00000000000E+00 -0.00000000000E+00 -0.24146553660E+04  0.24146556999E+04  0.12700000000E+01 0. -1.
         25    2    1    2    0    0 -0.14553956510E+02 -0.19317525608E+02 -0.23509752645E+04  0.23544203332E+04  0.12500170703E+03 0.  0.
    9000005    1    3    3    0    0  0.17970862354E+02 -0.42192516240E+02 -0.20833890364E+04  0.20838939602E+04  0.10000000000E+01 0.  0.
    9000005    1    3    3    0    0 -0.32524818864E+02  0.22874990631E+02 -0.26758622811E+03  0.27052637305E+03  0.10000000000E+01 0.  0.
         21    1    1    2  502  501  0.14553956510E+02  0.19317525608E+02 -0.59699930059E+02  0.64413244715E+02  0.00000000000E+00 0. -1.
<mgrwt>
<rscale>  1 0.12732011E+03</rscale>
<asrwt>0</asrwt>
<pdfrwt beam="1">  1        4 0.62756988E-03 0.12732011E+03</pdfrwt>
<pdfrwt beam="2">  1       -4 0.37149953E+00 0.12732011E+03</pdfrwt>
<totfact> 0.13809510E+02</totfact>
</mgrwt>
</event>
<event>
 6    4  0.5642870E-004  0.1269524E+03  0.7818608E-02  0.1232049E+00
         -4   -1    0    0    0  501 -0.00000000000E+00  0.00000000000E+00  0.16584206008E+04  0.16584210871E+04  0.12700000000E+01 0. -1.
          4   -1    0    0  502    0  0.00000000000E+00 -0.00000000000E+00 -0.32672484191E+01  0.35053975855E+01  0.12700000000E+01 0. -1.
         25    2    1    2    0    0  0.22178022968E+02 -0.33539325689E+00  0.14627730138E+04  0.14682717097E+04  0.12499978570E+03 0.  0.
    9000005    1    3    3    0    0  0.45314733450E+02 -0.51428380296E+02  0.94041614763E+03  0.94291136068E+03  0.10000000000E+01 0.  0.
    9000005    1    3    3    0    0 -0.23136710482E+02  0.51092987039E+02  0.52235686615E+03  0.52536034901E+03  0.10000000000E+01 0.  0.
         21    1    1    2  502  501 -0.22178022968E+02  0.33539325689E+00  0.19238033864E+03  0.19365477501E+03  0.00000000000E+00 0.  1.
<mgrwt>
<rscale>  1 0.12695245E+03</rscale>
<asrwt>0</asrwt>
<pdfrwt beam="2">  1        4 0.52101129E-03 0.12695245E+03</pdfrwt>
<pdfrwt beam="1">  1       -4 0.25515944E+00 0.12695245E+03</pdfrwt>
<totfact> 0.87975455E+02</totfact>
</mgrwt>
</event>
<event>
 6    4  0.5642870E-004  0.1351105E+03  0.7818608E-02  0.1220064E+00
         -4   -1    0    0    0  501 -0.00000000000E+00  0.00000000000E+00  0.22722096994E+03  0.22722451910E+03  0.12700000000E+01 0. -1.
          4   -1    0    0  502    0  0.00000000000E+00 -0.00000000000E+00 -0.39561767068E+02  0.39582146399E+02  0.12700000000E+01 0. -1.
         25    2    1    2    0    0 -0.50153106705E+02  0.10225864403E+02  0.15703841827E+03  0.20716159140E+03  0.12503982455E+03 0.  0.
    9000005    1    3    3    0    0 -0.60580192948E+02 -0.47103654785E+02  0.92934876078E+02  0.12052636750E+03  0.10000000000E+01 0.  0.
    9000005    1    3    3    0    0  0.10427086243E+02  0.57329519188E+02  0.64103542192E+02  0.86635223895E+02  0.10000000000E+01 0.  0.
         21    1    1    2  502  501  0.50153106705E+02 -0.10225864403E+02  0.30620784600E+02  0.59645074100E+02  0.00000000000E+00 0. -1.
<mgrwt>
<rscale>  1 0.13511055E+03</rscale>
<asrwt>0</asrwt>
<pdfrwt beam="2">  1        4 0.60882663E-02 0.13511055E+03</pdfrwt>
<pdfrwt beam="1">  1       -4 0.34958913E-01 0.13511055E+03</pdfrwt>
<totfact> 0.22540203E+03</totfact>
</mgrwt>
</event>
<event>
 6    4  0.5642870E-004  0.1352859E+03  0.7818608E-02  0.1219817E+00
          4   -1    0    0  502    0  0.00000000000E+00  0.00000000000E+00  0.80077195136E+03  0.80077295845E+03  0.12700000000E+01 0.  1.
         -4   -1    0    0    0  501 -0.00000000000E+00 -0.00000000000E+00 -0.17808519004E+02  0.17853746081E+02  0.12700000000E+01 0.  1.
         25    2    1    2    0    0  0.57062533105E+01 -0.51423817012E+02  0.25982244140E+03  0.29293338452E+03  0.12500118571E+03 0.  0.
    9000005    1    3    3    0    0  0.18672253080E+02 -0.84478763924E+02  0.23262788724E+03  0.24819759972E+03  0.10000000000E+01 0.  0.
    9000005    1    3    3    0    0 -0.12965999769E+02  0.33054946911E+02  0.27194554163E+02  0.44735784797E+02  0.10000000000E+01 0.  0.
         21    1    1    2  502  501 -0.57062533105E+01  0.51423817012E+02  0.52314099096E+03  0.52569332001E+03  0.00000000000E+00 0.  1.
<mgrwt>
<rscale>  1 0.13528587E+03</rscale>
<asrwt>0</asrwt>
<pdfrwt beam="1">  1        4 0.12319924E+00 0.13528587E+03</pdfrwt>
<pdfrwt beam="2">  1       -4 0.27433286E-02 0.13528587E+03</pdfrwt>
<totfact> 0.53726427E+02</totfact>
</mgrwt>
</event>
<event>
 6    4  0.5642870E-004  0.1295179E+03  0.7818608E-02  0.1228173E+00
         -4   -1    0    0    0  501 -0.00000000000E+00  0.00000000000E+00  0.80756177190E+02  0.80766162806E+02  0.12700000000E+01 0. -1.
          4   -1    0    0  502    0  0.00000000000E+00 -0.00000000000E+00 -0.13127267578E+03  0.13127881895E+03  0.12700000000E+01 0. -1.
         25    2    1    2    0    0  0.83756170967E+01  0.32858749267E+02  0.22575120753E+02  0.13147058643E+03  0.12500012261E+03 0.  0.
    9000005    1    3    3    0    0  0.40696330415E+02  0.49758984306E+01  0.61349102690E+02  0.73794737450E+02  0.10000000000E+01 0.  0.
    9000005    1    3    3    0    0 -0.32320713319E+02  0.27882850837E+02 -0.38773981937E+02  0.57675848979E+02  0.10000000000E+01 0.  0.
         21    1    1    2  502  501 -0.83756170967E+01 -0.32858749267E+02 -0.73091619341E+02  0.80574395331E+02  0.00000000000E+00 0. -1.
<mgrwt>
<rscale>  1 0.12951787E+03</rscale>
<asrwt>0</asrwt>
<pdfrwt beam="2">  1        4 0.20197037E-01 0.12951787E+03</pdfrwt>
<pdfrwt beam="1">  1       -4 0.12425268E-01 0.12951787E+03</pdfrwt>
<totfact> 0.18863209E+03</totfact>
</mgrwt>
</event>
<event>
 6    4  0.5642870E-004  0.1481777E+03  0.7818608E-02  0.1202730E+00
          4   -1    0    0  502    0  0.00000000000E+00  0.00000000000E+00  0.15012754308E+03  0.15013291474E+03  0.12700000000E+01 0.  1.
         -4   -1    0    0    0  501 -0.00000000000E+00 -0.00000000000E+00 -0.87679287828E+02  0.87688485071E+02  0.12700000000E+01 0.  1.
         25    2    1    2    0    0  0.78697120392E+02  0.11760559204E+02  0.26592625755E+02  0.15054497873E+03  0.12500030147E+03 0.  0.
    9000005    1    3    3    0    0 -0.14309168864E+02  0.16005586770E+02 -0.33446969945E+02  0.39757149293E+02  0.10000000000E+01 0.  0.
    9000005    1    3    3    0    0  0.93006289256E+02 -0.42450275653E+01  0.60039595701E+02  0.11078782944E+03  0.10000000000E+01 0.  0.
         21    1    1    2  502  501 -0.78697120392E+02 -0.11760559204E+02  0.35855629491E+02  0.87276421082E+02  0.00000000000E+00 0.  1.
<mgrwt>
<rscale>  1 0.14817767E+03</rscale>
<asrwt>0</asrwt>
<pdfrwt beam="1">  1        4 0.23097666E-01 0.14817767E+03</pdfrwt>
<pdfrwt beam="2">  1       -4 0.13490242E-01 0.14817767E+03</pdfrwt>
<totfact> 0.13210725E+03</totfact>
</mgrwt>
</event>
<event>
 6    4  0.5642870E-004  0.1287810E+03  0.7818608E-02  0.1229276E+00
         -4   -1    0    0    0  501 -0.00000000000E+00  0.00000000000E+00  0.29943303002E+03  0.29943572327E+03  0.12700000000E+01 0. -1.
          4   -1    0    0  502    0  0.00000000000E+00 -0.00000000000E+00 -0.22311473075E+02  0.22347588925E+02  0.12700000000E+01 0. -1.
         25    2    1    2    0    0  0.30202843839E+02  0.67555715210E+01  0.24720807405E+03  0.27874070561E+03  0.12500679807E+03 0.  0.
    9000005    1    3    3    0    0  0.73296655570E+02  0.30034515687E+02  0.16525905968E+03  0.18326491387E+03  0.10000000000E+01 0.  0.
    9000005    1    3    3    0    0 -0.43093811732E+02 -0.23278944166E+02  0.81949014376E+02  0.95475791739E+02  0.10000000000E+01 0.  0.
         21    1    1    2  502  501 -0.30202843839E+02 -0.67555715210E+01  0.29913482893E+02  0.43042606581E+02  0.00000000000E+00 0.  1.
<mgrwt>
<rscale>  1 0.12878101E+03</rscale>
<asrwt>0</asrwt>
<pdfrwt beam="2">  1        4 0.34355198E-02 0.12878101E+03</pdfrwt>
<pdfrwt beam="1">  1       -4 0.46069603E-01 0.12878101E+03</pdfrwt>
<totfact> 0.32332486E+03</totfact>
</mgrwt>
</event>
<event>
 6    4  0.5642870E-004  0.1267178E+03  0.7818608E-02  0.1232409E+00
          4   -1    0    0  502    0  0.00000000000E+00  0.00000000000E+00  0.62164470926E+03  0.62164600655E+03  0.12700000000E+01 0.  1.
         -4   -1    0    0    0  501 -0.00000000000E+00 -0.00000000000E+00 -0.10318897456E+02  0.10396756452E+02  0.12700000000E+01 0.  1.
         25    2    1    2    0    0  0.43666922259E+01  0.20296996955E+02  0.58472945438E+03  0.59830254493E+03  0.12500545738E+03 0.  0.
    9000005    1    3    3    0    0  0.14435332958E+02  0.63096882142E+02  0.48506836156E+03  0.48936889026E+03  0.10000000000E+01 0.  0.
    9000005    1    3    3    0    0 -0.10068640732E+02 -0.42799885187E+02  0.99661092821E+02  0.10893365467E+03  0.10000000000E+01 0.  0.
         21    1    1    2  502  501 -0.43666922259E+01 -0.20296996955E+02  0.26596357431E+02  0.33740218064E+02  0.00000000000E+00 0. -1.
<mgrwt>
<rscale>  1 0.12671780E+03</rscale>
<asrwt>0</asrwt>
<pdfrwt beam="1">  1        4 0.95643761E-01 0.12671780E+03</pdfrwt>
<pdfrwt beam="2">  1       -4 0.15936112E-02 0.12671780E+03</pdfrwt>
<totfact> 0.22199361E+03</totfact>
</mgrwt>
</event>
<event>
 6    4  0.5642870E-004  0.1280192E+03  0.7818608E-02  0.1230425E+00
          4   -1    0    0  502    0  0.00000000000E+00  0.00000000000E+00  0.12136127294E+03  0.12136791780E+03  0.12700000000E+01 0. -1.
         -4   -1    0    0    0  501 -0.00000000000E+00 -0.00000000000E+00 -0.14369657789E+03  0.14370218995E+03  0.12700000000E+01 0. -1.
         25    2    1    2    0    0 -0.20345632279E+02  0.18733331755E+02 -0.11270582556E+03  0.17056236485E+03  0.12499613880E+03 0.  0.
    9000005    1    3    3    0    0  0.12127795224E+02  0.66907210566E+02 -0.46017242289E+02  0.82111173604E+02  0.10000000000E+01 0.  0.
    9000005    1    3    3    0    0 -0.32473427503E+02 -0.48173878811E+02 -0.66688583274E+02  0.88451191245E+02  0.10000000000E+01 0.  0.
         21    1    1    2  502  501  0.20345632279E+02 -0.18733331755E+02  0.90370520618E+02  0.94507742902E+02  0.00000000000E+00 0. -1.
<mgrwt>
<rscale>  1 0.12801921E+03</rscale>
<asrwt>0</asrwt>
<pdfrwt beam="1">  1        4 0.18671908E-01 0.12801921E+03</pdfrwt>
<pdfrwt beam="2">  1       -4 0.22108109E-01 0.12801921E+03</pdfrwt>
<totfact> 0.78421989E+02</totfact>
</mgrwt>
</event>
<event>
 6    4  0.5642870E-004  0.1268303E+03  0.7818608E-02  0.1232236E+00
         -4   -1    0    0    0  501 -0.00000000000E+00  0.00000000000E+00  0.33869880856E+03  0.33870118958E+03  0.12700000000E+01 0.  1.
          4   -1    0    0  502    0  0.00000000000E+00 -0.00000000000E+00 -0.18913906858E+02  0.18956496845E+02  0.12700000000E+01 0.  1.
         25    2    1    2    0    0  0.17174486641E+02  0.12836934394E+02  0.30822216273E+03  0.33329692271E+03  0.12500474877E+03 0.  0.
    9000005    1    3    3    0    0  0.55849247929E+02 -0.25827481218E+02  0.95153707049E+02  0.11332001255E+03  0.10000000000E+01 0.  0.
    9000005    1    3    3    0    0 -0.38674761289E+02  0.38664415612E+02  0.21306845568E+03  0.21997691016E+03  0.10000000000E+01 0.  0.
         21    1    1    2  502  501 -0.17174486641E+02 -0.12836934394E+02  0.11562738971E+02  0.24360763710E+02  0.00000000000E+00 0.  1.
<mgrwt>
<rscale>  1 0.12683035E+03</rscale>
<asrwt>0</asrwt>
<pdfrwt beam="2">  1        4 0.29132913E-02 0.12683035E+03</pdfrwt>
<pdfrwt beam="1">  1       -4 0.52110966E-01 0.12683035E+03</pdfrwt>
<totfact> 0.32495387E+03</totfact>
</mgrwt>
</event>
<event>
 6    4  0.5642870E-004  0.1494345E+03  0.7818608E-02  0.1201170E+00
          4   -1    0    0  502    0  0.00000000000E+00  0.00000000000E+00  0.13094350279E+03  0.13094966141E+03  0.12700000000E+01 0. -1.
         -4   -1    0    0    0  501 -0.00000000000E+00 -0.00000000000E+00 -0.16263300536E+03  0.16263796400E+03  0.12700000000E+01 0. -1.
         25    2    1    2    0    0  0.80453105675E+02  0.15234423412E+02 -0.10584038123E+03  0.18311978993E+03  0.12500352513E+03 0.  0.
    9000005    1    3    3    0    0  0.47197938847E+02 -0.39226252376E+02 -0.10217766471E+03  0.11919571919E+03  0.10000000000E+01 0.  0.
    9000005    1    3    3    0    0  0.33255166827E+02  0.54460675788E+02 -0.36627165250E+01  0.63924070743E+02  0.10000000000E+01 0.  0.
         21    1    1    2  502  501 -0.80453105675E+02 -0.15234423412E+02  0.74150878665E+02  0.11046783548E+03  0.00000000000E+00 0. -1.
<mgrwt>
<rscale>  1 0.14943450E+03</rscale>
<asrwt>0</asrwt>
<pdfrwt beam="1">  1        4 0.20146009E-01 0.14943450E+03</pdfrwt>
<pdfrwt beam="2">  1       -4 0.25021318E-01 0.14943450E+03</pdfrwt>
<totfact> 0.56238639E+02</totfact>
</mgrwt>
</event>
<event>
 6    4  0.5642870E-004  0.1268882E+03  0.7818608E-02  0.1232148E+00
         -4   -1    0    0    0  501 -0.00000000000E+00  0.00000000000E+00  0.12067725308E+02  0.12134368303E+02  0.12700000000E+01 0.  1.
          4   -1    0    0  502    0  0.00000000000E+00 -0.00000000000E+00 -0.48644559508E+03  0.48644725292E+03  0.12700000000E+01 0.  1.
         25    2    1    2    0    0 -0.16292078695E+02  0.14524134621E+02 -0.34972865999E+03  0.37203594641E+03  0.12499690991E+03 0.  0.
    9000005    1    3    3    0    0  0.37272736952E+02  0.49425212013E+02 -0.14836886989E+03  0.16076824953E+03  0.10000000000E+01 0.  0.
    9000005    1    3    3    0    0 -0.53564815647E+02 -0.34901077392E+02 -0.20135979009E+03  0.21126769688E+03  0.10000000000E+01 0.  0.
         21    1    1    2  502  501  0.16292078695E+02 -0.14524134621E+02 -0.12464920978E+03  0.12654567482E+03  0.00000000000E+00 0.  1.
<mgrwt>
<rscale>  1 0.12688818E+03</rscale>
<asrwt>0</asrwt>
<pdfrwt beam="2">  1        4 0.74843023E-01 0.12688818E+03</pdfrwt>
<pdfrwt beam="1">  1       -4 0.18618274E-02 0.12688818E+03</pdfrwt>
<totfact> 0.30248597E+03</totfact>
</mgrwt>
</event>
<event>
 6    4  0.5642870E-004  0.1275218E+03  0.7818608E-02  0.1231180E+00
          4   -1    0    0  502    0  0.00000000000E+00  0.00000000000E+00  0.91128912868E+02  0.91137761990E+02  0.12700000000E+01 0. -1.
         -4   -1    0    0    0  501 -0.00000000000E+00 -0.00000000000E+00 -0.65734347508E+02  0.65746614683E+02  0.12700000000E+01 0. -1.
         25    2    1    2    0    0  0.98389737079E+01 -0.23312030288E+02  0.30389410675E+02  0.13109281527E+03  0.12498621434E+03 0.  0.
    9000005    1    3    3    0    0  0.58546574957E+02  0.17035848826E+02  0.29704275112E+02  0.67832628906E+02  0.10000000000E+01 0.  0.
    9000005    1    3    3    0    0 -0.48707601249E+02 -0.40347879114E+02  0.68513556342E+00  0.63260186367E+02  0.10000000000E+01 0.  0.
         21    1    1    2  502  501 -0.98389737079E+01  0.23312030288E+02 -0.49948453156E+01  0.25791561401E+02  0.00000000000E+00 0. -1.
<mgrwt>
<rscale>  1 0.12752180E+03</rscale>
<asrwt>0</asrwt>
<pdfrwt beam="1">  1        4 0.14021457E-01 0.12752180E+03</pdfrwt>
<pdfrwt beam="2">  1       -4 0.10114601E-01 0.12752180E+03</pdfrwt>
<totfact> 0.50752745E+03</totfact>
</mgrwt>
</event>
<event>
 6    4  0.5642870E-004  0.1640116E+03  0.7818608E-02  0.1184241E+00
         -4   -1    0    0    0  501 -0.00000000000E+00  0.00000000000E+00  0.12014897662E+03  0.12015568851E+03  0.12700000000E+01 0. -1.
          4   -1    0    0  502    0  0.00000000000E+00 -0.00000000000E+00 -0.33564313458E+03  0.33564553728E+03  0.12700000000E+01 0. -1.
         25    2    1    2    0    0 -0.10823547637E+02  0.10563300205E+03  0.48681114678E+02  0.17108372548E+03  0.12499723954E+03 0.  0.
    9000005    1    3    3    0    0 -0.11031249901E+02  0.70340672043E+02 -0.35669551720E+02  0.79641795169E+02  0.10000000000E+01 0.  0.
    9000005    1    3    3    0    0  0.20770226426E+00  0.35292330007E+02  0.84350666398E+02  0.91441930313E+02  0.10000000000E+01 0.  0.
         21    1    1    2  502  501  0.10823547637E+02 -0.10563300205E+03 -0.26417527264E+03  0.28471750031E+03  0.00000000000E+00 0. -1.
<mgrwt>
<rscale>  1 0.16401156E+03</rscale>
<asrwt>0</asrwt>
<pdfrwt beam="2">  1        4 0.51638106E-01 0.16401156E+03</pdfrwt>
<pdfrwt beam="1">  1       -4 0.18485159E-01 0.16401156E+03</pdfrwt>
<totfact> 0.16285890E+02</totfact>
</mgrwt>
</event>
<event>
 6    4  0.5642870E-004  0.1308518E+03  0.7818608E-02  0.1226197E+00
          4   -1    0    0  502    0  0.00000000000E+00  0.00000000000E+00  0.65704927875E+02  0.65717200542E+02  0.12700000000E+01 0.  1.
         -4   -1    0    0    0  501 -0.00000000000E+00 -0.00000000000E+00 -0.14118594411E+03  0.14119165597E+03  0.12700000000E+01 0.  1.
         25    2    1    2    0    0 -0.33315042193E+02 -0.19780037024E+02 -0.96726812348E+02  0.16272146291E+03  0.12498422446E+03 0.  0.
    9000005    1    3    3    0    0  0.21950276478E+02  0.28855493459E+02 -0.79095358448E+02  0.87014538258E+02  0.10000000000E+01 0.  0.
    9000005    1    3    3    0    0 -0.55265318671E+02 -0.48635530484E+02 -0.17631453900E+02  0.75706924649E+02  0.10000000000E+01 0.  0.
         21    1    1    2  502  501  0.33315042193E+02  0.19780037024E+02  0.21245796111E+02  0.44187393603E+02  0.00000000000E+00 0.  1.
<mgrwt>
<rscale>  1 0.13085182E+03</rscale>
<asrwt>0</asrwt>
<pdfrwt beam="1">  1        4 0.10109834E-01 0.13085182E+03</pdfrwt>
<pdfrwt beam="2">  1       -4 0.21722298E-01 0.13085182E+03</pdfrwt>
<totfact> 0.23534801E+03</totfact>
</mgrwt>
</event>
<event>
 6    4  0.5642870E-004  0.1300842E+03  0.7818608E-02  0.1227331E+00
         -4   -1    0    0    0  501 -0.00000000000E+00  0.00000000000E+00  0.20817245744E+02  0.20855949280E+02  0.12700000000E+01 0. -1.
          4   -1    0    0  502    0  0.00000000000E+00 -0.00000000000E+00 -0.35368431718E+03  0.35368659732E+03  0.12700000000E+01 0. -1.
         25    2    1    2    0    0 -0.35460983395E+02 -0.62005946458E+01 -0.21489941742E+03  0.25120440930E+03  0.12500386764E+03 0.  0.
    9000005    1    3    3    0    0 -0.62097983547E+02  0.45072270395E+00 -0.39362779443E+02  0.73530885464E+02  0.10000000000E+01 0.  0.
    9000005    1    3    3    0    0  0.26637000152E+02 -0.66513173497E+01 -0.17553663798E+03  0.17767352383E+03  0.10000000000E+01 0.  0.
         21    1    1    2  502  501  0.35460983395E+02  0.62005946458E+01 -0.11796765402E+03  0.12333813730E+03  0.00000000000E+00 0.  1.
<mgrwt>
<rscale>  1 0.13008419E+03</rscale>
<asrwt>0</asrwt>
<pdfrwt beam="2">  1        4 0.54416120E-01 0.13008419E+03</pdfrwt>
<pdfrwt beam="1">  1       -4 0.32058060E-02 0.13008419E+03</pdfrwt>
<totfact> 0.25747862E+03</totfact>
</mgrwt>
</event>
<event>
 6    4  0.5642870E-004  0.1314194E+03  0.7818608E-02  0.1225365E+00
          4   -1    0    0  502    0  0.00000000000E+00  0.00000000000E+00  0.11337322777E+03  0.11338034078E+03  0.12700000000E+01 0.  1.
         -4   -1    0    0    0  501 -0.00000000000E+00 -0.00000000000E+00 -0.10991277432E+03  0.10992011125E+03  0.12700000000E+01 0.  1.
         25    2    1    2    0    0 -0.27109297657E+01 -0.40482017111E+02  0.67307336121E+02  0.14765279988E+03  0.12499971587E+03 0.  0.
    9000005    1    3    3    0    0 -0.52500680427E+02 -0.54988160784E+02  0.56351540779E+02  0.94638868441E+02  0.10000000000E+01 0.  0.
    9000005    1    3    3    0    0  0.49789750661E+02  0.14506143672E+02  0.10955795343E+02  0.53013931440E+02  0.10000000000E+01 0.  0.
         21    1    1    2  502  501  0.27109297657E+01  0.40482017111E+02 -0.63846882668E+02  0.75647652151E+02  0.00000000000E+00 0.  1.
<mgrwt>
<rscale>  1 0.13141945E+03</rscale>
<asrwt>0</asrwt>
<pdfrwt beam="1">  1        4 0.17443147E-01 0.13141945E+03</pdfrwt>
<pdfrwt beam="2">  1       -4 0.16910769E-01 0.13141945E+03</pdfrwt>
<totfact> 0.14384352E+03</totfact>
</mgrwt>
</event>
<event>
 6    4  0.5642870E-004  0.1273705E+03  0.7818608E-02  0.1231410E+00
          4   -1    0    0  502    0  0.00000000000E+00  0.00000000000E+00  0.49724224320E+02  0.49740440129E+02  0.12700000000E+01 0. -1.
         -4   -1    0    0    0  501 -0.00000000000E+00 -0.00000000000E+00 -0.11675690352E+03  0.11676381040E+03  0.12700000000E+01 0. -1.
         25    2    1    2    0    0  0.28611660365E+01 -0.24310210911E+02 -0.50768942415E+02  0.13711578749E+03  0.12499632410E+03 0.  0.
    9000005    1    3    3    0    0  0.60635185330E+02 -0.65235684020E+01 -0.48298608187E+01  0.61184231631E+02  0.10000000000E+01 0.  0.
    9000005    1    3    3    0    0 -0.57774019294E+02 -0.17786642509E+02 -0.45939081596E+02  0.75931555858E+02  0.10000000000E+01 0.  0.
         21    1    1    2  502  501 -0.28611660365E+01  0.24310210911E+02 -0.16263736781E+02  0.29388463037E+02  0.00000000000E+00 0. -1.
<mgrwt>
<rscale>  1 0.12737054E+03</rscale>
<asrwt>0</asrwt>
<pdfrwt beam="1">  1        4 0.76516593E-02 0.12737054E+03</pdfrwt>
<pdfrwt beam="2">  1       -4 0.17964379E-01 0.12737054E+03</pdfrwt>
<totfact> 0.52306303E+03</totfact>
</mgrwt>
</event>
<event>
 6    4  0.5642870E-004  0.1290186E+03  0.7818608E-02  0.1228919E+00
          4   -1    0    0  502    0  0.00000000000E+00  0.00000000000E+00  0.55099007457E+03  0.55099153820E+03  0.12700000000E+01 0. -1.
         -4   -1    0    0    0  501 -0.00000000000E+00 -0.00000000000E+00 -0.12014881041E+02  0.12081815528E+02  0.12700000000E+01 0. -1.
         25    2    1    2    0    0  0.20501049793E+02  0.24574344686E+02  0.39318143281E+03  0.41380844787E+03  0.12498640310E+03 0.  0.
    9000005    1    3    3    0    0 -0.32681423064E+02  0.57407134779E+02  0.21913729529E+03  0.22887946331E+03  0.10000000000E+01 0.  0.
    9000005    1    3    3    0    0  0.53182472857E+02 -0.32832790093E+02  0.17404413752E+03  0.18492898456E+03  0.10000000000E+01 0.  0.
         21    1    1    2  502  501 -0.20501049793E+02 -0.24574344686E+02  0.14579376072E+03  0.14926490587E+03  0.00000000000E+00 0.  1.
<mgrwt>
<rscale>  1 0.12901857E+03</rscale>
<asrwt>0</asrwt>
<pdfrwt beam="1">  1        4 0.84772960E-01 0.12901857E+03</pdfrwt>
<pdfrwt beam="2">  1       -4 0.18537047E-02 0.12901857E+03</pdfrwt>
<totfact> 0.23225750E+03</totfact>
</mgrwt>
</event>
<event>
 6    4  0.5642870E-004  0.1282716E+03  0.7818608E-02  0.1230043E+00
          4   -1    0    0  502    0  0.00000000000E+00  0.00000000000E+00  0.13738506446E+02  0.13797081552E+02  0.12700000000E+01 0.  1.
         -4   -1    0    0    0  501 -0.00000000000E+00 -0.00000000000E+00 -0.56065355286E+03  0.56065499127E+03  0.12700000000E+01 0.  1.
         25    2    1    2    0    0 -0.18154035648E+02 -0.22404972767E+02 -0.51788488152E+03  0.53353383375E+03  0.12498819717E+03 0.  0.
    9000005    1    3    3    0    0 -0.20944610192E+02 -0.54352350095E+02 -0.11075814661E+03  0.12514480292E+03  0.10000000000E+01 0.  0.
    9000005    1    3    3    0    0  0.27905745441E+01  0.31947377328E+02 -0.40712673491E+03  0.40838903083E+03  0.10000000000E+01 0.  0.
         21    1    1    2  502  501  0.18154035648E+02  0.22404972767E+02 -0.29030164893E+02  0.40918239072E+02  0.00000000000E+00 0.  1.
<mgrwt>
<rscale>  1 0.12827159E+03</rscale>
<asrwt>0</asrwt>
<pdfrwt beam="1">  1        4 0.21182332E-02 0.12827159E+03</pdfrwt>
<pdfrwt beam="2">  1       -4 0.86258992E-01 0.12827159E+03</pdfrwt>
<totfact> 0.18172257E+03</totfact>
</mgrwt>
</event>
<event>
 6    4  0.5642870E-004  0.1272498E+03  0.7818608E-02  0.1231595E+00
          4   -1    0    0  502    0  0.00000000000E+00  0.00000000000E+00  0.18051634041E+03  0.18052080782E+03  0.12700000000E+01 0. -1.
         -4   -1    0    0    0  501 -0.00000000000E+00 -0.00000000000E+00 -0.31586631968E+02  0.31612153028E+02  0.12700000000E+01 0. -1.
         25    2    1    2    0    0 -0.19820063660E+02  0.13196797924E+02  0.12591258047E+03  0.17901531330E+03  0.12500205629E+03 0.  0.
    9000005    1    3    3    0    0  0.28138911834E+02  0.48435373424E+02  0.98866707490E+02  0.11363718409E+03  0.10000000000E+01 0.  0.
    9000005    1    3    3    0    0 -0.47958975493E+02 -0.35238575500E+02  0.27045872978E+02  0.65378129209E+02  0.10000000000E+01 0.  0.
         21    1    1    2  502  501  0.19820063660E+02 -0.13196797924E+02  0.23017127977E+02  0.33117647550E+02  0.00000000000E+00 0.  1.
<mgrwt>
<rscale>  1 0.12724977E+03</rscale>
<asrwt>0</asrwt>
<pdfrwt beam="1">  1        4 0.27774052E-01 0.12724977E+03</pdfrwt>
<pdfrwt beam="2">  1       -4 0.48617886E-02 0.12724977E+03</pdfrwt>
<totfact> 0.49446975E+03</totfact>
</mgrwt>
</event>
<event>
 6    4  0.5642870E-004  0.1270294E+03  0.7818608E-02  0.1231931E+00
         -4   -1    0    0    0  501 -0.00000000000E+00  0.00000000000E+00  0.12298303390E+02  0.12363703582E+02  0.12700000000E+01 0.  1.
          4   -1    0    0  502    0  0.00000000000E+00 -0.00000000000E+00 -0.55684115449E+03  0.55684260275E+03  0.12700000000E+01 0.  1.
         25    2    1    2    0    0 -0.14053608972E+02 -0.18041666682E+02 -0.33259052990E+03  0.35602377392E+03  0.12495383690E+03 0.  0.
    9000005    1    3    3    0    0 -0.41873480186E+02  0.26524798569E+02 -0.57334501259E+02  0.75797086466E+02  0.10000000000E+01 0.  0.
    9000005    1    3    3    0    0  0.27819871214E+02 -0.44566465251E+02 -0.27525602864E+03  0.28022668746E+03  0.10000000000E+01 0.  0.
         21    1    1    2  502  501  0.14053608972E+02  0.18041666682E+02 -0.21195232120E+03  0.21318253241E+03  0.00000000000E+00 0.  1.
<mgrwt>
<rscale>  1 0.12702939E+03</rscale>
<asrwt>0</asrwt>
<pdfrwt beam="2">  1        4 0.85672992E-01 0.12702939E+03</pdfrwt>
<pdfrwt beam="1">  1       -4 0.18971893E-02 0.12702939E+03</pdfrwt>
<totfact> 0.21812143E+03</totfact>
</mgrwt>
</event>
<event>
 6    4  0.5642870E-004  0.1287564E+03  0.7818608E-02  0.1229313E+00
          4   -1    0    0  502    0  0.00000000000E+00  0.00000000000E+00  0.11589582568E+02  0.11658958963E+02  0.12700000000E+01 0.  1.
         -4   -1    0    0    0  501 -0.00000000000E+00 -0.00000000000E+00 -0.56192122880E+03  0.56192266396E+03  0.12700000000E+01 0.  1.
         25    2    1    2    0    0 -0.16732559133E+02  0.26109166040E+02 -0.47438049102E+03  0.49154355211E+03  0.12496618050E+03 0.  0.
    9000005    1    3    3    0    0 -0.35934251112E+02 -0.19482991185E+02 -0.40075700345E+03  0.40283747735E+03  0.10000000000E+01 0.  0.
    9000005    1    3    3    0    0  0.19201691979E+02  0.45592157225E+02 -0.73623487577E+02  0.88706074754E+02  0.10000000000E+01 0.  0.
         21    1    1    2  502  501  0.16732559133E+02 -0.26109166040E+02 -0.75951155206E+02  0.82038070819E+02  0.00000000000E+00 0.  1.
<mgrwt>
<rscale>  1 0.12875641E+03</rscale>
<asrwt>0</asrwt>
<pdfrwt beam="1">  1        4 0.17884602E-02 0.12875641E+03</pdfrwt>
<pdfrwt beam="2">  1       -4 0.86454846E-01 0.12875641E+03</pdfrwt>
<totfact> 0.23472208E+03</totfact>
</mgrwt>
</event>
<event>
 6    4  0.5642870E-004  0.1445024E+03  0.7818608E-02  0.1207396E+00
         -4   -1    0    0    0  501 -0.00000000000E+00  0.00000000000E+00  0.59826486161E+02  0.59839964458E+02  0.12700000000E+01 0.  1.
          4   -1    0    0  502    0  0.00000000000E+00 -0.00000000000E+00 -0.20453552387E+03  0.20453946667E+03  0.12700000000E+01 0.  1.
         25    2    1    2    0    0  0.22209605177E+02  0.69015215684E+02 -0.71047720157E+02  0.16102394621E+03  0.12499826461E+03 0.  0.
    9000005    1    3    3    0    0 -0.63201409072E+01  0.91599305793E+01 -0.91069918503E+02  0.91752812302E+02  0.10000000000E+01 0.  0.
    9000005    1    3    3    0    0  0.28529746084E+02  0.59855285105E+02  0.20022198346E+02  0.69271133910E+02  0.10000000000E+01 0.  0.
         21    1    1    2  502  501 -0.22209605177E+02 -0.69015215684E+02 -0.73661317550E+02  0.10335548491E+03  0.00000000000E+00 0.  1.
<mgrwt>
<rscale>  1 0.14450236E+03</rscale>
<asrwt>0</asrwt>
<pdfrwt beam="2">  1        4 0.31468343E-01 0.14450236E+03</pdfrwt>
<pdfrwt beam="1">  1       -4 0.92054150E-02 0.14450236E+03</pdfrwt>
<totfact> 0.14142208E+03</totfact>
</mgrwt>
</event>
<event>
 6    4  0.5642870E-004  0.1266243E+03  0.7818608E-02  0.1232552E+00
          4   -1    0    0  502    0  0.00000000000E+00  0.00000000000E+00  0.10815312006E+02  0.10889622298E+02  0.12700000000E+01 0.  1.
         -4   -1    0    0    0  501 -0.00000000000E+00 -0.00000000000E+00 -0.65083881677E+03  0.65084005587E+03  0.12700000000E+01 0.  1.
         25    2    1    2    0    0  0.19056463400E+02 -0.68916091737E+01 -0.62152250982E+03  0.63429011023E+03  0.12499228236E+03 0.  0.
    9000005    1    3    3    0    0 -0.26133805223E+02 -0.28736758949E+02 -0.51571276466E+03  0.51717447029E+03  0.10000000000E+01 0.  0.
    9000005    1    3    3    0    0  0.45190268623E+02  0.21845149776E+02 -0.10580974516E+03  0.11711563994E+03  0.10000000000E+01 0.  0.
         21    1    1    2  502  501 -0.19056463400E+02  0.68916091737E+01 -0.18500994949E+02  0.27439567934E+02  0.00000000000E+00 0.  1.
<mgrwt>
<rscale>  1 0.12662430E+03</rscale>
<asrwt>0</asrwt>
<pdfrwt beam="1">  1        4 0.16697062E-02 0.12662430E+03</pdfrwt>
<pdfrwt beam="2">  1       -4 0.10013483E+00 0.12662430E+03</pdfrwt>
<totfact> 0.18603698E+03</totfact>
</mgrwt>
</event>
<event>
 6    4  0.5642870E-004  0.1274629E+03  0.7818608E-02  0.1231270E+00
          4   -1    0    0  502    0  0.00000000000E+00  0.00000000000E+00  0.96899037314E+02  0.96907359536E+02  0.12700000000E+01 0. -1.
         -4   -1    0    0    0  501 -0.00000000000E+00 -0.00000000000E+00 -0.61491018379E+02  0.61504131904E+02  0.12700000000E+01 0. -1.
         25    2    1    2    0    0 -0.74183672215E+01 -0.23816241129E+02  0.38799008189E+02  0.13323721247E+03  0.12499818493E+03 0.  0.
    9000005    1    3    3    0    0 -0.32675737840E+02  0.19493351893E+02  0.66000004696E+02  0.76188550526E+02  0.10000000000E+01 0.  0.
    9000005    1    3    3    0    0  0.25257370618E+02 -0.43309593022E+02 -0.27200996507E+02  0.57048661941E+02  0.10000000000E+01 0.  0.
         21    1    1    2  502  501  0.74183672215E+01  0.23816241129E+02 -0.33909892544E+01  0.25174278974E+02  0.00000000000E+00 0. -1.
<mgrwt>
<rscale>  1 0.12746290E+03</rscale>
<asrwt>0</asrwt>
<pdfrwt beam="1">  1        4 0.14909193E-01 0.12746290E+03</pdfrwt>
<pdfrwt beam="2">  1       -4 0.94618056E-02 0.12746290E+03</pdfrwt>
<totfact> 0.51021581E+03</totfact>
</mgrwt>
</event>
<event>
 6    4  0.5642870E-004  0.1271090E+03  0.7818608E-02  0.1231810E+00
         -4   -1    0    0    0  501 -0.00000000000E+00  0.00000000000E+00  0.22881811052E+03  0.22882163491E+03  0.12700000000E+01 0.  1.
          4   -1    0    0  502    0  0.00000000000E+00 -0.00000000000E+00 -0.27691382570E+02  0.27720490050E+02  0.12700000000E+01 0.  1.
         25    2    1    2    0    0  0.23022997329E+02  0.13170084740E+01  0.19484752919E+03  0.23264188951E+03  0.12499958483E+03 0.  0.
    9000005    1    3    3    0    0 -0.48059234696E+02  0.19757411948E+02  0.99849801324E+02  0.11256566169E+03  0.10000000000E+01 0.  0.
    9000005    1    3    3    0    0  0.71082232025E+02 -0.18440403474E+02  0.94997727865E+02  0.12007622783E+03  0.10000000000E+01 0.  0.
         21    1    1    2  502  501 -0.23022997329E+02 -0.13170084740E+01  0.62791987656E+01  0.23900235448E+02  0.00000000000E+00 0.  1.
<mgrwt>
<rscale>  1 0.12710897E+03</rscale>
<asrwt>0</asrwt>
<pdfrwt beam="2">  1        4 0.42627229E-02 0.12710897E+03</pdfrwt>
<pdfrwt beam="1">  1       -4 0.35205296E-01 0.12710897E+03</pdfrwt>
<totfact> 0.38886130E+03</totfact>
</mgrwt>
</event>
<event>
 6    4  0.5642870E-004  0.1272239E+03  0.7818608E-02  0.1231634E+00
         -4   -1    0    0    0  501 -0.00000000000E+00  0.00000000000E+00  0.12858758916E+02  0.12921322721E+02  0.12700000000E+01 0. -1.
          4   -1    0    0  502    0  0.00000000000E+00 -0.00000000000E+00 -0.57301919929E+03  0.57302060666E+03  0.12700000000E+01 0. -1.
         25    2    1    2    0    0 -0.21005114434E+02  0.10934980784E+02 -0.31619960545E+03  0.34083444762E+03  0.12500056624E+03 0.  0.
    9000005    1    3    3    0    0  0.11530953777E+02 -0.53407442457E+02 -0.15096063898E+03  0.16054729000E+03  0.10000000000E+01 0.  0.
    9000005    1    3    3    0    0 -0.32536068211E+02  0.64342423241E+02 -0.16523896647E+03  0.18028715762E+03  0.10000000000E+01 0.  0.
         21    1    1    2  502  501  0.21005114434E+02 -0.10934980784E+02 -0.24396083492E+03  0.24510748175E+03  0.00000000000E+00 0. -1.
<mgrwt>
<rscale>  1 0.12722394E+03</rscale>
<asrwt>0</asrwt>
<pdfrwt beam="2">  1        4 0.88161701E-01 0.12722394E+03</pdfrwt>
<pdfrwt beam="1">  1       -4 0.19831919E-02 0.12722394E+03</pdfrwt>
<totfact> 0.19116113E+03</totfact>
</mgrwt>
</event>
<event>
 6    4  0.5642870E-004  0.1311643E+03  0.7818608E-02  0.1225738E+00
         -4   -1    0    0    0  501 -0.00000000000E+00  0.00000000000E+00  0.51684946299E+03  0.51685102331E+03  0.12700000000E+01 0.  1.
          4   -1    0    0  502    0  0.00000000000E+00 -0.00000000000E+00 -0.29489908492E+02  0.29517242467E+02  0.12700000000E+01 0.  1.
         25    2    1    2    0    0 -0.39507545754E+02 -0.43081808210E+01  0.48930379001E+03  0.50657898775E+03  0.12499866127E+03 0.  0.
    9000005    1    3    3    0    0  0.18644725028E+02 -0.52440053817E+02  0.20543195919E+03  0.21284002178E+03  0.10000000000E+01 0.  0.
    9000005    1    3    3    0    0 -0.58152270782E+02  0.48131872996E+02  0.28387183083E+03  0.29373896598E+03  0.10000000000E+01 0.  0.
         21    1    1    2  502  501  0.39507545754E+02  0.43081808210E+01 -0.19442355156E+01  0.39789278019E+02  0.00000000000E+00 0.  1.
<mgrwt>
<rscale>  1 0.13116429E+03</rscale>
<asrwt>0</asrwt>
<pdfrwt beam="2">  1        4 0.45391318E-02 0.13116429E+03</pdfrwt>
<pdfrwt beam="1">  1       -4 0.79517522E-01 0.13116429E+03</pdfrwt>
<totfact> 0.66220323E+02</totfact>
</mgrwt>
</event>
<event>
 6    4  0.5642870E-004  0.1320128E+03  0.7818608E-02  0.1224499E+00
          4   -1    0    0  502    0  0.00000000000E+00  0.00000000000E+00  0.14727690748E+03  0.14728238312E+03  0.12700000000E+01 0. -1.
         -4   -1    0    0    0  501 -0.00000000000E+00 -0.00000000000E+00 -0.93789457388E+02  0.93798055508E+02  0.12700000000E+01 0. -1.
         25    2    1    2    0    0  0.40647748584E+02  0.12377046323E+02 -0.40374534704E+02  0.13804887584E+03  0.12498783272E+03 0.  0.
    9000005    1    3    3    0    0  0.53393347454E+02  0.61050458809E+02 -0.18604233513E+02  0.83217339406E+02  0.10000000000E+01 0.  0.
    9000005    1    3    3    0    0 -0.12745598869E+02 -0.48673412486E+02 -0.21770301191E+02  0.54831536433E+02  0.10000000000E+01 0.  0.
         21    1    1    2  502  501 -0.40647748584E+02 -0.12377046323E+02  0.93861984797E+02  0.10303156279E+03  0.00000000000E+00 0.  1.
<mgrwt>
<rscale>  1 0.13201284E+03</rscale>
<asrwt>0</asrwt>
<pdfrwt beam="1">  1        4 0.22659068E-01 0.13201284E+03</pdfrwt>
<pdfrwt beam="2">  1       -4 0.14430230E-01 0.13201284E+03</pdfrwt>
<totfact> 0.11881132E+03</totfact>
</mgrwt>
</event>
<event>
 6    4  0.5642870E-004  0.1309099E+03  0.7818608E-02  0.1226112E+00
         -4   -1    0    0    0  501 -0.00000000000E+00  0.00000000000E+00  0.67480849909E+02  0.67492799649E+02  0.12700000000E+01 0. -1.
          4   -1    0    0  502    0  0.00000000000E+00 -0.00000000000E+00 -0.14410217474E+03  0.14410777101E+03  0.12700000000E+01 0. -1.
         25    2    1    2    0    0 -0.30951569243E+02 -0.23635010999E+02 -0.61133697182E+01  0.13105254078E+03  0.12498312595E+03 0.  0.
    9000005    1    3    3    0    0  0.42355109478E+01  0.85948581671E+01  0.53685139672E+02  0.54542693017E+02  0.10000000000E+01 0.  0.
    9000005    1    3    3    0    0 -0.35187080191E+02 -0.32229869166E+02 -0.59798509391E+02  0.76509847759E+02  0.10000000000E+01 0.  0.
         21    1    1    2  502  501  0.30951569243E+02  0.23635010999E+02 -0.70507955114E+02  0.80548029882E+02  0.00000000000E+00 0. -1.
<mgrwt>
<rscale>  1 0.13090987E+03</rscale>
<asrwt>0</asrwt>
<pdfrwt beam="2">  1        4 0.22170915E-01 0.13090987E+03</pdfrwt>
<pdfrwt beam="1">  1       -4 0.10383019E-01 0.13090987E+03</pdfrwt>
<totfact> 0.21681791E+03</totfact>
</mgrwt>
</event>
<event>
 6    4  0.5642870E-004  0.1270852E+03  0.7818608E-02  0.1231846E+00
          4   -1    0    0  502    0  0.00000000000E+00  0.00000000000E+00  0.20479229255E+03  0.20479623040E+03  0.12700000000E+01 0. -1.
         -4   -1    0    0    0  501 -0.00000000000E+00 -0.00000000000E+00 -0.39968029865E+02  0.39988202152E+02  0.12700000000E+01 0. -1.
         25    2    1    2    0    0 -0.22659158667E+02 -0.36694609241E+01  0.65751131680E+02  0.14308690209E+03  0.12499499117E+03 0.  0.
    9000005    1    3    3    0    0 -0.71499653503E+02  0.79111568553E+01  0.57738121894E+02  0.92246829613E+02  0.10000000000E+01 0.  0.
    9000005    1    3    3    0    0  0.48840494836E+02 -0.11580617779E+02  0.80130097854E+01  0.50840072480E+02  0.10000000000E+01 0.  0.
         21    1    1    2  502  501  0.22659158667E+02  0.36694609241E+01  0.99073131000E+02  0.10169753046E+03  0.00000000000E+00 0. -1.
<mgrwt>
<rscale>  1 0.12708521E+03</rscale>
<asrwt>0</asrwt>
<pdfrwt beam="1">  1        4 0.31508361E-01 0.12708521E+03</pdfrwt>
<pdfrwt beam="2">  1       -4 0.61507823E-02 0.12708521E+03</pdfrwt>
<totfact> 0.26665733E+03</totfact>
</mgrwt>
</event>
<event>
 6    4  0.5642870E-004  0.1300043E+03  0.7818608E-02  0.1227449E+00
         -4   -1    0    0    0  501 -0.00000000000E+00  0.00000000000E+00  0.19038450460E+03  0.19038874045E+03  0.12700000000E+01 0. -1.
          4   -1    0    0  502    0  0.00000000000E+00 -0.00000000000E+00 -0.39869602357E+02  0.39889824418E+02  0.12700000000E+01 0. -1.
         25    2    1    2    0    0 -0.31171889339E+02  0.17502851122E+02  0.14388819552E+03  0.19391993832E+03  0.12499237252E+03 0.  0.
    9000005    1    3    3    0    0  0.29026393870E+02 -0.16755414184E+02 -0.76181317394E+00  0.33538870060E+02  0.10000000000E+01 0.  0.
    9000005    1    3    3    0    0 -0.60198283209E+02  0.34258265306E+02  0.14465000869E+03  0.16038106826E+03  0.10000000000E+01 0.  0.
         21    1    1    2  502  501  0.31171889339E+02 -0.17502851122E+02  0.66267067229E+01  0.36358626546E+02  0.00000000000E+00 0. -1.
<mgrwt>
<rscale>  1 0.13000434E+03</rscale>
<asrwt>0</asrwt>
<pdfrwt beam="2">  1        4 0.61356662E-02 0.13000434E+03</pdfrwt>
<pdfrwt beam="1">  1       -4 0.29291806E-01 0.13000434E+03</pdfrwt>
<totfact> 0.30900295E+03</totfact>
</mgrwt>
</event>
<event>
 6    4  0.5642870E-004  0.1270223E+03  0.7818608E-02  0.1231942E+00
          4   -1    0    0  502    0  0.00000000000E+00  0.00000000000E+00  0.39221152581E+02  0.39241708803E+02  0.12700000000E+01 0. -1.
         -4   -1    0    0    0  501 -0.00000000000E+00 -0.00000000000E+00 -0.28283560774E+03  0.28283845903E+03  0.12700000000E+01 0. -1.
         25    2    1    2    0    0  0.80687769551E+01 -0.21055015521E+02 -0.26317786925E+03  0.29222809905E+03  0.12500500859E+03 0.  0.
    9000005    1    3    3    0    0 -0.58280253929E+02 -0.49503017137E+01 -0.13043723912E+03  0.14295442223E+03  0.10000000000E+01 0.  0.
    9000005    1    3    3    0    0  0.66349030884E+02 -0.16104713808E+02 -0.13274063013E+03  0.14927367682E+03  0.10000000000E+01 0.  0.
         21    1    1    2  502  501 -0.80687769551E+01  0.21055015521E+02  0.19563414083E+02  0.29852068785E+02  0.00000000000E+00 0. -1.
<mgrwt>
<rscale>  1 0.12702232E+03</rscale>
<asrwt>0</asrwt>
<pdfrwt beam="1">  1        4 0.60358242E-02 0.12702232E+03</pdfrwt>
<pdfrwt beam="2">  1       -4 0.43514970E-01 0.12702232E+03</pdfrwt>
<totfact> 0.14679238E+03</totfact>
</mgrwt>
</event>
<event>
 6    4  0.5642870E-004  0.1265967E+03  0.7818608E-02  0.1232595E+00
          4   -1    0    0  502    0  0.00000000000E+00  0.00000000000E+00  0.74790297122E+02  0.74801079160E+02  0.12700000000E+01 0.  1.
         -4   -1    0    0    0  501 -0.00000000000E+00 -0.00000000000E+00 -0.12901167982E+03  0.12901793065E+03  0.12700000000E+01 0.  1.
         25    2    1    2    0    0  0.18965221351E+02 -0.64333780884E+01 -0.95073944039E+02  0.15832175997E+03  0.12500262746E+03 0.  0.
    9000005    1    3    3    0    0  0.33399474503E+02  0.29817630980E+02  0.10298157209E+02  0.45952889531E+02  0.10000000000E+01 0.  0.
    9000005    1    3    3    0    0 -0.14434253153E+02 -0.36251009068E+02 -0.10537210125E+03  0.11236887044E+03  0.10000000000E+01 0.  0.
         21    1    1    2  502  501 -0.18965221351E+02  0.64333780884E+01  0.40852561344E+02  0.45497249839E+02  0.00000000000E+00 0.  1.
<mgrwt>
<rscale>  1 0.12659670E+03</rscale>
<asrwt>0</asrwt>
<pdfrwt beam="1">  1        4 0.11507510E-01 0.12659670E+03</pdfrwt>
<pdfrwt beam="2">  1       -4 0.19849261E-01 0.12659670E+03</pdfrwt>
<totfact> 0.22068582E+03</totfact>
</mgrwt>
</event>
<event>
 6    4  0.5642870E-004  0.1309609E+03  0.7818608E-02  0.1226037E+00
         -4   -1    0    0    0  501 -0.00000000000E+00  0.00000000000E+00  0.16985439297E+03  0.16985914079E+03  0.12700000000E+01 0.  1.
          4   -1    0    0  502    0  0.00000000000E+00 -0.00000000000E+00 -0.42838943845E+02  0.42857764871E+02  0.12700000000E+01 0.  1.
         25    2    1    2    0    0 -0.20199911621E+02  0.33439906532E+02  0.90051388831E+02  0.15893395733E+03  0.12499794551E+03 0.  0.
    9000005    1    3    3    0    0 -0.71130079813E+02  0.56762536216E+01  0.37305377530E+02  0.80525767938E+02  0.10000000000E+01 0.  0.
    9000005    1    3    3    0    0  0.50930168193E+02  0.27763652910E+02  0.52746011301E+02  0.78408189389E+02  0.10000000000E+01 0.  0.
         21    1    1    2  502  501  0.20199911621E+02 -0.33439906532E+02  0.36964060291E+02  0.53782948334E+02  0.00000000000E+00 0.  1.
<mgrwt>
<rscale>  1 0.13096087E+03</rscale>
<asrwt>0</asrwt>
<pdfrwt beam="2">  1        4 0.65924195E-02 0.13096087E+03</pdfrwt>
<pdfrwt beam="1">  1       -4 0.26133259E-01 0.13096087E+03</pdfrwt>
<totfact> 0.34079343E+03</totfact>
</mgrwt>
</event>
<event>
 6    4  0.5642870E-004  0.1351051E+03  0.7818608E-02  0.1220071E+00
          4   -1    0    0  502    0  0.00000000000E+00  0.00000000000E+00  0.36068125619E+02  0.36090477770E+02  0.12700000000E+01 0. -1.
         -4   -1    0    0    0  501 -0.00000000000E+00 -0.00000000000E+00 -0.33875564240E+03  0.33875802301E+03  0.12700000000E+01 0. -1.
         25    2    1    2    0    0  0.10992230969E+02 -0.50066529474E+02 -0.29304574456E+03  0.32269056479E+03  0.12500362269E+03 0.  0.
    9000005    1    3    3    0    0  0.64056289146E+02 -0.30822197455E+01 -0.13351539097E+03  0.14812180084E+03  0.10000000000E+01 0.  0.
    9000005    1    3    3    0    0 -0.53064058178E+02 -0.46984309728E+02 -0.15953035359E+03  0.17456876396E+03  0.10000000000E+01 0.  0.
         21    1    1    2  502  501 -0.10992230969E+02  0.50066529474E+02 -0.96417722140E+01  0.52157935989E+02  0.00000000000E+00 0. -1.
<mgrwt>
<rscale>  1 0.13510512E+03</rscale>
<asrwt>0</asrwt>
<pdfrwt beam="1">  1        4 0.55508451E-02 0.13510512E+03</pdfrwt>
<pdfrwt beam="2">  1       -4 0.52118153E-01 0.13510512E+03</pdfrwt>
<totfact> 0.11837807E+03</totfact>
</mgrwt>
</event>
<event>
 6    4  0.5642870E-004  0.1273344E+03  0.7818608E-02  0.1231465E+00
         -4   -1    0    0    0  501 -0.00000000000E+00  0.00000000000E+00  0.35608984076E+02  0.35631624253E+02  0.12700000000E+01 0.  1.
          4   -1    0    0  502    0  0.00000000000E+00 -0.00000000000E+00 -0.21767473724E+03  0.21767844204E+03  0.12700000000E+01 0.  1.
         25    2    1    2    0    0  0.13279507498E+02  0.20282662164E+02 -0.84604758478E+02  0.15287910898E+03  0.12500530029E+03 0.  0.
    9000005    1    3    3    0    0  0.82346572853E+01  0.30781360245E+00 -0.11546357447E+03  0.11576157117E+03  0.10000000000E+01 0.  0.
    9000005    1    3    3    0    0  0.50448502130E+01  0.19974848562E+02  0.30858815991E+02  0.37117537810E+02  0.10000000000E+01 0.  0.
         21    1    1    2  502  501 -0.13279507498E+02 -0.20282662164E+02 -0.97460994683E+02  0.10043095732E+03  0.00000000000E+00 0.  1.
<mgrwt>
<rscale>  1 0.12733443E+03</rscale>
<asrwt>0</asrwt>
<pdfrwt beam="2">  1        4 0.33490447E-01 0.12733443E+03</pdfrwt>
<pdfrwt beam="1">  1       -4 0.54803319E-02 0.12733443E+03</pdfrwt>
<totfact> 0.28628323E+03</totfact>
</mgrwt>
</event>
<event>
 6    4  0.5642870E-004  0.1292087E+03  0.7818608E-02  0.1228635E+00
         -4   -1    0    0    0  501 -0.00000000000E+00  0.00000000000E+00  0.61662128540E+01  0.62956398373E+01  0.12700000000E+01 0.  1.
          4   -1    0    0  502    0  0.00000000000E+00 -0.00000000000E+00 -0.12745066436E+04  0.12745072763E+04  0.12700000000E+01 0.  1.
         25    2    1    2    0    0  0.20860832562E+02  0.25192460276E+02 -0.72100339970E+03  0.73248944750E+03  0.12500021574E+03 0.  0.
    9000005    1    3    3    0    0  0.43754137699E+01  0.66633786611E+02 -0.59665167963E+03  0.60037774157E+03  0.10000000000E+01 0.  0.
    9000005    1    3    3    0    0  0.16485418792E+02 -0.41441326335E+02 -0.12435172006E+03  0.13211170593E+03  0.10000000000E+01 0.  0.
         21    1    1    2  502  501 -0.20860832562E+02 -0.25192460276E+02 -0.54733703101E+03  0.54831346865E+03  0.00000000000E+00 0. -1.
<mgrwt>
<rscale>  1 0.12920870E+03</rscale>
<asrwt>0</asrwt>
<pdfrwt beam="2">  1        4 0.19608774E+00 0.12920870E+03</pdfrwt>
<pdfrwt beam="1">  1       -4 0.95865374E-03 0.12920870E+03</pdfrwt>
<totfact> 0.79734336E+02</totfact>
</mgrwt>
</event>
<event>
 6    4  0.5642870E-004  0.1295634E+03  0.7818608E-02  0.1228105E+00
         -4   -1    0    0    0  501 -0.00000000000E+00  0.00000000000E+00  0.50201751574E+02  0.50217813186E+02  0.12700000000E+01 0. -1.
          4   -1    0    0  502    0  0.00000000000E+00 -0.00000000000E+00 -0.38775681917E+03  0.38775889894E+03  0.12700000000E+01 0. -1.
         25    2    1    2    0    0 -0.45044633405E+01 -0.33770768015E+02 -0.35956865096E+02  0.13446026989E+03  0.12500365222E+03 0.  0.
    9000005    1    3    3    0    0 -0.35854336640E+02 -0.33206298344E+02 -0.71780362906E+02  0.86842456233E+02  0.10000000000E+01 0.  0.
    9000005    1    3    3    0    0  0.31349873299E+02 -0.56446967162E+00  0.35823497810E+02  0.47617813655E+02  0.10000000000E+01 0.  0.
         21    1    1    2  502  501  0.45044633405E+01  0.33770768015E+02 -0.30159820250E+03  0.30351644224E+03  0.00000000000E+00 0. -1.
<mgrwt>
<rscale>  1 0.12956337E+03</rscale>
<asrwt>0</asrwt>
<pdfrwt beam="2">  1        4 0.59656289E-01 0.12956337E+03</pdfrwt>
<pdfrwt beam="1">  1       -4 0.77247422E-02 0.12956337E+03</pdfrwt>
<totfact> 0.51692101E+02</totfact>
</mgrwt>
</event>
<event>
 6    4  0.5642870E-004  0.1279157E+03  0.7818608E-02  0.1230582E+00
          4   -1    0    0  502    0  0.00000000000E+00  0.00000000000E+00  0.12116461093E+02  0.12182837495E+02  0.12700000000E+01 0.  1.
         -4   -1    0    0    0  501 -0.00000000000E+00 -0.00000000000E+00 -0.55929193144E+03  0.55929337335E+03  0.12700000000E+01 0.  1.
         25    2    1    2    0    0  0.45982585696E+01  0.26755935784E+02 -0.50770137336E+03  0.52356766866E+03  0.12500158027E+03 0.  0.
    9000005    1    3    3    0    0 -0.51762854911E+02 -0.53011479257E+01 -0.33641573416E+03  0.34041745183E+03  0.10000000000E+01 0.  0.
    9000005    1    3    3    0    0  0.56361113481E+02  0.32057083710E+02 -0.17128563920E+03  0.18315021683E+03  0.10000000000E+01 0.  0.
         21    1    1    2  502  501 -0.45982585696E+01 -0.26755935784E+02 -0.39474096979E+02  0.47908542181E+02  0.00000000000E+00 0.  1.
<mgrwt>
<rscale>  1 0.12791567E+03</rscale>
<asrwt>0</asrwt>
<pdfrwt beam="1">  1        4 0.18692882E-02 0.12791567E+03</pdfrwt>
<pdfrwt beam="2">  1       -4 0.86050109E-01 0.12791567E+03</pdfrwt>
<totfact> 0.22131606E+03</totfact>
</mgrwt>
</event>
<event>
 6    4  0.5642870E-004  0.1274694E+03  0.7818608E-02  0.1231260E+00
         -4   -1    0    0    0  501 -0.00000000000E+00  0.00000000000E+00  0.14179864617E+03  0.14180433335E+03  0.12700000000E+01 0. -1.
          4   -1    0    0  502    0  0.00000000000E+00 -0.00000000000E+00 -0.80699893933E+02  0.80709886512E+02  0.12700000000E+01 0. -1.
         25    2    1    2    0    0  0.24835825823E+02  0.26167882683E+01  0.10950409825E+03  0.16804640048E+03  0.12499911742E+03 0.  0.
    9000005    1    3    3    0    0 -0.13589264986E+02 -0.74842841303E+01 -0.24087357988E+02  0.28668509670E+02  0.10000000000E+01 0.  0.
    9000005    1    3    3    0    0  0.38425090809E+02  0.10101072399E+02  0.13359145624E+03  0.13937789081E+03  0.10000000000E+01 0.  0.
         21    1    1    2  502  501 -0.24835825823E+02 -0.26167882683E+01 -0.48405346013E+02  0.54467819377E+02  0.00000000000E+00 0. -1.
<mgrwt>
<rscale>  1 0.12746939E+03</rscale>
<asrwt>0</asrwt>
<pdfrwt beam="2">  1        4 0.12416575E-01 0.12746939E+03</pdfrwt>
<pdfrwt beam="1">  1       -4 0.21816382E-01 0.12746939E+03</pdfrwt>
<totfact> 0.16369326E+03</totfact>
</mgrwt>
</event>
<event>
 6    4  0.5642870E-004  0.1564786E+03  0.7818608E-02  0.1192731E+00
         -4   -1    0    0    0  501 -0.00000000000E+00  0.00000000000E+00  0.38589430434E+03  0.38589639415E+03  0.12700000000E+01 0.  1.
          4   -1    0    0  502    0  0.00000000000E+00 -0.00000000000E+00 -0.49925119154E+02  0.49941269733E+02  0.12700000000E+01 0.  1.
         25    2    1    2    0    0 -0.89368094424E+02 -0.29556047785E+02  0.29342387742E+03  0.33254042542E+03  0.12500138575E+03 0.  0.
    9000005    1    3    3    0    0 -0.78815855808E+02 -0.60079507818E+02  0.28092655073E+03  0.29789631298E+03  0.10000000000E+01 0.  0.
    9000005    1    3    3    0    0 -0.10552238616E+02  0.30523460033E+02  0.12497326694E+02  0.34644112439E+02  0.10000000000E+01 0.  0.
         21    1    1    2  502  501  0.89368094424E+02  0.29556047785E+02  0.42545307764E+02  0.10329723846E+03  0.00000000000E+00 0.  1.
<mgrwt>
<rscale>  1 0.15647863E+03</rscale>
<asrwt>0</asrwt>
<pdfrwt beam="2">  1        4 0.76821906E-02 0.15647863E+03</pdfrwt>
<pdfrwt beam="1">  1       -4 0.59369758E-01 0.15647863E+03</pdfrwt>
<totfact> 0.54644366E+02</totfact>
</mgrwt>
</event>
<event>
 6    4  0.5642870E-004  0.1266734E+03  0.7818608E-02  0.1232477E+00
          4   -1    0    0  502    0  0.00000000000E+00  0.00000000000E+00  0.28605615471E+02  0.28633793610E+02  0.12700000000E+01 0. -1.
         -4   -1    0    0    0  501 -0.00000000000E+00 -0.00000000000E+00 -0.19687802840E+03  0.19688212454E+03  0.12700000000E+01 0. -1.
         25    2    1    2    0    0  0.42078459338E+01  0.20064752283E+02 -0.12669328346E+03  0.17915727000E+03  0.12500335623E+03 0.  0.
    9000005    1    3    3    0    0  0.30030256725E+02  0.34016854846E+02  0.36624913204E+01  0.45534345008E+02  0.10000000000E+01 0.  0.
    9000005    1    3    3    0    0 -0.25822410791E+02 -0.13952102563E+02 -0.13035577478E+03  0.13362292499E+03  0.10000000000E+01 0.  0.
         21    1    1    2  502  501 -0.42078459338E+01 -0.20064752283E+02 -0.41579129466E+02  0.46358648155E+02  0.00000000000E+00 0.  1.
<mgrwt>
<rscale>  1 0.12667336E+03</rscale>
<asrwt>0</asrwt>
<pdfrwt beam="1">  1        4 0.44033467E-02 0.12667336E+03</pdfrwt>
<pdfrwt beam="2">  1       -4 0.30291409E-01 0.12667336E+03</pdfrwt>
<totfact> 0.49159049E+03</totfact>
</mgrwt>
</event>
<event>
 6    4  0.5642870E-004  0.1459577E+03  0.7818608E-02  0.1205530E+00
         -4   -1    0    0    0  501 -0.00000000000E+00  0.00000000000E+00  0.28867802569E+03  0.28868081928E+03  0.12700000000E+01 0.  1.
          4   -1    0    0  502    0  0.00000000000E+00 -0.00000000000E+00 -0.46108307991E+02  0.46125795016E+02  0.12700000000E+01 0.  1.
         25    2    1    2    0    0 -0.71498791618E+02 -0.23813323523E+02  0.11171882221E+03  0.18380625525E+03  0.12499797059E+03 0.  0.
    9000005    1    3    3    0    0 -0.34306080546E+02 -0.56333256096E+02  0.11679026120E+03  0.13413168162E+03  0.10000000000E+01 0.  0.
    9000005    1    3    3    0    0 -0.37192711073E+02  0.32519932573E+02 -0.50714389868E+01  0.49674573626E+02  0.10000000000E+01 0.  0.
         21    1    1    2  502  501  0.71498791618E+02  0.23813323523E+02  0.13085089549E+03  0.15100035904E+03  0.00000000000E+00 0.  1.
<mgrwt>
<rscale>  1 0.14595768E+03</rscale>
<asrwt>0</asrwt>
<pdfrwt beam="2">  1        4 0.70951460E-02 0.14595768E+03</pdfrwt>
<pdfrwt beam="1">  1       -4 0.44413563E-01 0.14595768E+03</pdfrwt>
<totfact> 0.11145905E+03</totfact>
</mgrwt>
</event>
<event>
 6    4  0.5642870E-004  0.1338831E+03  0.7818608E-02  0.1221805E+00
         -4   -1    0    0    0  501 -0.00000000000E+00  0.00000000000E+00  0.11049856521E+02  0.11122599926E+02  0.12700000000E+01 0.  1.
          4   -1    0    0  502    0  0.00000000000E+00 -0.00000000000E+00 -0.88267360197E+03  0.88267451562E+03  0.12700000000E+01 0.  1.
         25    2    1    2    0    0 -0.13734340181E+02  0.45940079178E+02 -0.45109852150E+03  0.47054708665E+03  0.12500224671E+03 0.  0.
    9000005    1    3    3    0    0  0.26466144847E+02  0.69310524523E+02 -0.36717557549E+03  0.37459752918E+03  0.10000000000E+01 0.  0.
    9000005    1    3    3    0    0 -0.40200485028E+02 -0.23370445345E+02 -0.83922946012E+02  0.95949557474E+02  0.10000000000E+01 0.  0.
         21    1    1    2  502  501  0.13734340181E+02 -0.45940079178E+02 -0.42052522395E+03  0.42325002889E+03  0.00000000000E+00 0.  1.
<mgrwt>
<rscale>  1 0.13388310E+03</rscale>
<asrwt>0</asrwt>
<pdfrwt beam="2">  1        4 0.13580155E+00 0.13388310E+03</pdfrwt>
<pdfrwt beam="1">  1       -4 0.17056446E-02 0.13388310E+03</pdfrwt>
<totfact> 0.88065451E+02</totfact>
</mgrwt>
</event>
<event>
 6    4  0.5642870E-004  0.1279867E+03  0.7818608E-02  0.1230474E+00
          4   -1    0    0  502    0  0.00000000000E+00  0.00000000000E+00  0.66065866235E+03  0.66065988302E+03  0.12700000000E+01 0.  1.
         -4   -1    0    0    0  501 -0.00000000000E+00 -0.00000000000E+00 -0.94104720460E+01  0.94957824390E+01  0.12700000000E+01 0.  1.
         25    2    1    2    0    0 -0.15064505136E+02  0.22975866593E+02  0.57602118308E+03  0.59006863545E+03  0.12500304565E+03 0.  0.
    9000005    1    3    3    0    0  0.48177627208E+02  0.38664863066E+02  0.24297805541E+03  0.25070977406E+03  0.10000000000E+01 0.  0.
    9000005    1    3    3    0    0 -0.63242132344E+02 -0.15688996473E+02  0.33304312767E+03  0.33935886139E+03  0.10000000000E+01 0.  0.
         21    1    1    2  502  501  0.15064505136E+02 -0.22975866593E+02  0.75227007221E+02  0.80087030011E+02  0.00000000000E+00 0.  1.
<mgrwt>
<rscale>  1 0.12798668E+03</rscale>
<asrwt>0</asrwt>
<pdfrwt beam="1">  1        4 0.10164645E+00 0.12798668E+03</pdfrwt>
<pdfrwt beam="2">  1       -4 0.14544212E-02 0.12798668E+03</pdfrwt>
<totfact> 0.22232645E+03</totfact>
</mgrwt>
</event>
<event>
 6    4  0.5642870E-004  0.1305498E+03  0.7818608E-02  0.1226642E+00
          4   -1    0    0  502    0  0.00000000000E+00  0.00000000000E+00  0.11983695045E+03  0.11984367982E+03  0.12700000000E+01 0. -1.
         -4   -1    0    0    0  501 -0.00000000000E+00 -0.00000000000E+00 -0.61079931830E+02  0.61093133594E+02  0.12700000000E+01 0. -1.
         25    2    1    2    0    0 -0.37062558630E+02  0.68693527189E+01  0.58950603352E+02  0.14324253356E+03  0.12498971368E+03 0.  0.
    9000005    1    3    3    0    0 -0.40790906732E+02 -0.14369106067E+02  0.93204458779E+02  0.10275427202E+03  0.10000000000E+01 0.  0.
    9000005    1    3    3    0    0  0.37283481027E+01  0.21238458786E+02 -0.34253855427E+02  0.40488261544E+02  0.10000000000E+01 0.  0.
         21    1    1    2  502  501  0.37062558630E+02 -0.68693527189E+01 -0.19358472904E+00  0.37694279858E+02  0.00000000000E+00 0. -1.
<mgrwt>
<rscale>  1 0.13054980E+03</rscale>
<asrwt>0</asrwt>
<pdfrwt beam="1">  1        4 0.18437987E-01 0.13054980E+03</pdfrwt>
<pdfrwt beam="2">  1       -4 0.93984457E-02 0.13054980E+03</pdfrwt>
<totfact> 0.35702898E+03</totfact>
</mgrwt>
</event>
<event>
 6    4  0.5642870E-004  0.1304194E+03  0.7818608E-02  0.1226835E+00
         -4   -1    0    0    0  501 -0.00000000000E+00  0.00000000000E+00  0.13277337403E+03  0.13277944778E+03  0.12700000000E+01 0. -1.
          4   -1    0    0  502    0  0.00000000000E+00 -0.00000000000E+00 -0.53119660910E+02  0.53134840502E+02  0.12700000000E+01 0. -1.
         25    2    1    2    0    0  0.36499089243E+02  0.71735670788E+01  0.67006572789E+02  0.14662569275E+03  0.12500227757E+03 0.  0.
    9000005    1    3    3    0    0  0.34484089473E+02  0.56140363128E+02  0.71704198837E+02  0.97382672636E+02  0.10000000000E+01 0.  0.
    9000005    1    3    3    0    0  0.20149997703E+01 -0.48966796049E+02 -0.46976260478E+01  0.49243020113E+02  0.10000000000E+01 0.  0.
         21    1    1    2  502  501 -0.36499089243E+02 -0.71735670788E+01  0.12647140333E+02  0.39288595531E+02  0.00000000000E+00 0. -1.
<mgrwt>
<rscale>  1 0.13041937E+03</rscale>
<asrwt>0</asrwt>
<pdfrwt beam="2">  1        4 0.81738905E-02 0.13041937E+03</pdfrwt>
<pdfrwt beam="1">  1       -4 0.20428308E-01 0.13041937E+03</pdfrwt>
<totfact> 0.37485942E+03</totfact>
</mgrwt>
</event>
<event>
 6    4  0.5642870E-004  0.1266248E+03  0.7818608E-02  0.1232552E+00
          4   -1    0    0  502    0  0.00000000000E+00  0.00000000000E+00  0.54643611651E+02  0.54658368017E+02  0.12700000000E+01 0. -1.
         -4   -1    0    0    0  501 -0.00000000000E+00 -0.00000000000E+00 -0.10219094305E+03  0.10219883435E+03  0.12700000000E+01 0. -1.
         25    2    1    2    0    0 -0.90478396080E+01 -0.17998834371E+02 -0.50830772583E+02  0.13644636146E+03  0.12501208212E+03 0.  0.
    9000005    1    3    3    0    0 -0.51979377304E+02  0.30465962181E+02 -0.35375050541E+02  0.69874349495E+02  0.10000000000E+01 0.  0.
    9000005    1    3    3    0    0  0.42931537696E+02 -0.48464796552E+02 -0.15455722042E+02  0.66572011969E+02  0.10000000000E+01 0.  0.
         21    1    1    2  502  501  0.90478396080E+01  0.17998834371E+02  0.32834411818E+01  0.20410840901E+02  0.00000000000E+00 0.  1.
<mgrwt>
<rscale>  1 0.12662481E+03</rscale>
<asrwt>0</asrwt>
<pdfrwt beam="1">  1        4 0.84084516E-02 0.12662481E+03</pdfrwt>
<pdfrwt beam="2">  1       -4 0.15723426E-01 0.12662481E+03</pdfrwt>
<totfact> 0.56515069E+03</totfact>
</mgrwt>
</event>
<event>
 6    4  0.5642870E-004  0.1284755E+03  0.7818608E-02  0.1229735E+00
         -4   -1    0    0    0  501 -0.00000000000E+00  0.00000000000E+00  0.22623921865E+02  0.22659539725E+02  0.12700000000E+01 0. -1.
          4   -1    0    0  502    0  0.00000000000E+00 -0.00000000000E+00 -0.40776335864E+03  0.40776533638E+03  0.12700000000E+01 0. -1.
         25    2    1    2    0    0 -0.27596027801E+02  0.10951615898E+02 -0.16917469254E+03  0.21242889129E+03  0.12499791445E+03 0.  0.
    9000005    1    3    3    0    0 -0.16961609307E+02 -0.51913855697E+02 -0.12018732076E+03  0.13201794073E+03  0.10000000000E+01 0.  0.
    9000005    1    3    3    0    0 -0.10634418494E+02  0.62865471595E+02 -0.48987371776E+02  0.80410950554E+02  0.10000000000E+01 0.  0.
         21    1    1    2  502  501  0.27596027801E+02 -0.10951615898E+02 -0.21596474424E+03  0.21799598482E+03  0.00000000000E+00 0. -1.
<mgrwt>
<rscale>  1 0.12847551E+03</rscale>
<asrwt>0</asrwt>
<pdfrwt beam="2">  1        4 0.62735711E-01 0.12847551E+03</pdfrwt>
<pdfrwt beam="1">  1       -4 0.34834956E-02 0.12847551E+03</pdfrwt>
<totfact> 0.16738297E+03</totfact>
</mgrwt>
</event>
<event>
 6    4  0.5642870E-004  0.1283466E+03  0.7818608E-02  0.1229930E+00
         -4   -1    0    0    0  501 -0.00000000000E+00  0.00000000000E+00  0.78964849996E+01  0.79979606994E+01  0.12700000000E+01 0.  1.
          4   -1    0    0  502    0  0.00000000000E+00 -0.00000000000E+00 -0.14465067192E+04  0.14465072767E+04  0.12700000000E+01 0.  1.
         25    2    1    2    0    0 -0.19165818655E+02 -0.21950589132E+02 -0.52608301711E+03  0.54151286127E+03  0.12499472413E+03 0.  0.
    9000005    1    3    3    0    0 -0.26545863710E+01  0.52096705315E+02 -0.19639437575E+03  0.20320645747E+03  0.10000000000E+01 0.  0.
    9000005    1    3    3    0    0 -0.16511232284E+02 -0.74047294447E+02 -0.32968864136E+03  0.33830640380E+03  0.10000000000E+01 0.  0.
         21    1    1    2  502  501  0.19165818655E+02  0.21950589132E+02 -0.91252721706E+03  0.91299237611E+03  0.00000000000E+00 0.  1.
<mgrwt>
<rscale>  1 0.12834655E+03</rscale>
<asrwt>0</asrwt>
<pdfrwt beam="2">  1        4 0.22254714E+00 0.12834655E+03</pdfrwt>
<pdfrwt beam="1">  1       -4 0.12226937E-02 0.12834655E+03</pdfrwt>
<totfact> 0.38111814E+02</totfact>
</mgrwt>
</event>
<event>
 6    4  0.5642870E-004  0.1544934E+03  0.7818608E-02  0.1195058E+00
          4   -1    0    0  502    0  0.00000000000E+00  0.00000000000E+00  0.97648498751E+03  0.97648581338E+03  0.12700000000E+01 0. -1.
         -4   -1    0    0    0  501 -0.00000000000E+00 -0.00000000000E+00 -0.16936032238E+02  0.16983582896E+02  0.12700000000E+01 0. -1.
         25    2    1    2    0    0  0.14396054556E+02 -0.89629405136E+02  0.44704202558E+03  0.47298497803E+03  0.12501016022E+03 0.  0.
    9000005    1    3    3    0    0  0.17682742578E+02  0.29481862627E+02  0.79848785023E+02  0.86940715886E+02  0.10000000000E+01 0.  0.
    9000005    1    3    3    0    0 -0.32866880212E+01 -0.11911126776E+03  0.36719324056E+03  0.38604426215E+03  0.10000000000E+01 0.  0.
         21    1    1    2  502  501 -0.14396054556E+02  0.89629405136E+02  0.51250692969E+03  0.52048441824E+03  0.00000000000E+00 0.  1.
<mgrwt>
<rscale>  1 0.15449342E+03</rscale>
<asrwt>0</asrwt>
<pdfrwt beam="1">  1        4 0.15023216E+00 0.15449342E+03</pdfrwt>
<pdfrwt beam="2">  1       -4 0.26092650E-02 0.15449342E+03</pdfrwt>
<totfact> 0.36350015E+02</totfact>
</mgrwt>
</event>
<event>
 6    4  0.5642870E-004  0.1354584E+03  0.7818608E-02  0.1219574E+00
         -4   -1    0    0    0  501 -0.00000000000E+00  0.00000000000E+00  0.41671055750E+02  0.41690404019E+02  0.12700000000E+01 0. -1.
          4   -1    0    0  502    0  0.00000000000E+00 -0.00000000000E+00 -0.25593887431E+03  0.25594202523E+03  0.12700000000E+01 0. -1.
         25    2    1    2    0    0  0.10179061435E+02 -0.51187970367E+02 -0.89409624045E+02  0.16230545360E+03  0.12500063118E+03 0.  0.
    9000005    1    3    3    0    0 -0.43744827173E+02 -0.41131212023E+02 -0.32242473134E+01  0.60139689703E+02  0.10000000000E+01 0.  0.
    9000005    1    3    3    0    0  0.53923888608E+02 -0.10056758344E+02 -0.86185376731E+02  0.10216576390E+03  0.10000000000E+01 0.  0.
         21    1    1    2  502  501 -0.10179061435E+02  0.51187970367E+02 -0.12485819451E+03  0.13532697565E+03  0.00000000000E+00 0. -1.
<mgrwt>
<rscale>  1 0.13545840E+03</rscale>
<asrwt>0</asrwt>
<pdfrwt beam="2">  1        4 0.39376941E-01 0.13545840E+03</pdfrwt>
<pdfrwt beam="1">  1       -4 0.64126625E-02 0.13545840E+03</pdfrwt>
<totfact> 0.16439544E+03</totfact>
</mgrwt>
</event>
<event>
 6    4  0.5642870E-004  0.1268110E+03  0.7818608E-02  0.1232266E+00
          4   -1    0    0  502    0  0.00000000000E+00  0.00000000000E+00  0.69482504529E+02  0.69494110079E+02  0.12700000000E+01 0.  1.
         -4   -1    0    0    0  501 -0.00000000000E+00 -0.00000000000E+00 -0.12159135982E+03  0.12159799210E+03  0.12700000000E+01 0.  1.
         25    2    1    2    0    0 -0.21336860876E+02  0.72453014930E+00 -0.84437239409E+02  0.15235050960E+03  0.12500097520E+03 0.  0.
    9000005    1    3    3    0    0 -0.26947818999E+02 -0.56350567616E+02 -0.18920372245E+02  0.65272903301E+02  0.10000000000E+01 0.  0.
    9000005    1    3    3    0    0  0.56109581231E+01  0.57075097766E+02 -0.65516867164E+02  0.87077606300E+02  0.10000000000E+01 0.  0.
         21    1    1    2  502  501  0.21336860876E+02 -0.72453014930E+00  0.32328384116E+02  0.38741592579E+02  0.00000000000E+00 0.  1.
<mgrwt>
<rscale>  1 0.12681100E+03</rscale>
<asrwt>0</asrwt>
<pdfrwt beam="1">  1        4 0.10691019E-01 0.12681100E+03</pdfrwt>
<pdfrwt beam="2">  1       -4 0.18707766E-01 0.12681100E+03</pdfrwt>
<totfact> 0.27809794E+03</totfact>
</mgrwt>
</event>
<event>
 6    4  0.5642870E-004  0.1300278E+03  0.7818608E-02  0.1227414E+00
         -4   -1    0    0    0  501 -0.00000000000E+00  0.00000000000E+00  0.29337509035E+02  0.29364984870E+02  0.12700000000E+01 0.  1.
          4   -1    0    0  502    0  0.00000000000E+00 -0.00000000000E+00 -0.24073565258E+03  0.24073900250E+03  0.12700000000E+01 0.  1.
         25    2    1    2    0    0  0.31760366240E+02  0.16536917922E+02 -0.18253357047E+03  0.22411100859E+03  0.12500019722E+03 0.  0.
    9000005    1    3    3    0    0 -0.60141985458E+01  0.82658868744E+01  0.17543405499E+02  0.20328958322E+02  0.10000000000E+01 0.  0.
    9000005    1    3    3    0    0  0.37774564785E+02  0.82710310472E+01 -0.20007697596E+03  0.20378205027E+03  0.10000000000E+01 0.  0.
         21    1    1    2  502  501 -0.31760366240E+02 -0.16536917922E+02 -0.28864573081E+02  0.45992978781E+02  0.00000000000E+00 0. -1.
<mgrwt>
<rscale>  1 0.13002784E+03</rscale>
<asrwt>0</asrwt>
<pdfrwt beam="2">  1        4 0.37038624E-01 0.13002784E+03</pdfrwt>
<pdfrwt beam="1">  1       -4 0.45158343E-02 0.13002784E+03</pdfrwt>
<totfact> 0.32327635E+03</totfact>
</mgrwt>
</event>
<event>
 6    4  0.5642870E-004  0.1276275E+03  0.7818608E-02  0.1231019E+00
         -4   -1    0    0    0  501 -0.00000000000E+00  0.00000000000E+00  0.50695932465E+02  0.50711837558E+02  0.12700000000E+01 0.  1.
          4   -1    0    0  502    0  0.00000000000E+00 -0.00000000000E+00 -0.12247095850E+03  0.12247754315E+03  0.12700000000E+01 0.  1.
         25    2    1    2    0    0 -0.14980406317E+02 -0.20980904779E+02 -0.43287307131E+02  0.13476853914E+03  0.12499662893E+03 0.  0.
    9000005    1    3    3    0    0 -0.87899116235E+01  0.26022472061E+02 -0.73548090306E+02  0.78515942242E+02  0.10000000000E+01 0.  0.
    9000005    1    3    3    0    0 -0.61904946937E+01 -0.47003376840E+02  0.30260783175E+02  0.56252596893E+02  0.10000000000E+01 0.  0.
         21    1    1    2  502  501  0.14980406317E+02  0.20980904779E+02 -0.28487718905E+02  0.38420841572E+02  0.00000000000E+00 0.  1.
<mgrwt>
<rscale>  1 0.12762746E+03</rscale>
<asrwt>0</asrwt>
<pdfrwt beam="2">  1        4 0.18843416E-01 0.12762746E+03</pdfrwt>
<pdfrwt beam="1">  1       -4 0.78011042E-02 0.12762746E+03</pdfrwt>
<totfact> 0.46556438E+03</totfact>
</mgrwt>
</event>
<event>
 6    4  0.5642870E-004  0.1272229E+03  0.7818608E-02  0.1231636E+00
          4   -1    0    0  502    0  0.00000000000E+00  0.00000000000E+00  0.31835205944E+02  0.31860527891E+02  0.12700000000E+01 0.  1.
         -4   -1    0    0    0  501 -0.00000000000E+00 -0.00000000000E+00 -0.19656116135E+03  0.19656526411E+03  0.12700000000E+01 0.  1.
         25    2    1    2    0    0  0.19483262760E+02 -0.13407181454E+02 -0.15981510491E+03  0.20427074087E+03  0.12500527099E+03 0.  0.
    9000005    1    3    3    0    0  0.20441051882E+02  0.54482702346E+02 -0.87344561158E+02  0.10495843854E+03  0.10000000000E+01 0.  0.
    9000005    1    3    3    0    0 -0.95778912201E+00 -0.67889883801E+02 -0.72470543748E+02  0.99312302328E+02  0.10000000000E+01 0.  0.
         21    1    1    2  502  501 -0.19483262760E+02  0.13407181454E+02 -0.49108505031E+01  0.24155051128E+02  0.00000000000E+00 0.  1.
<mgrwt>
<rscale>  1 0.12722291E+03</rscale>
<asrwt>0</asrwt>
<pdfrwt beam="1">  1        4 0.48999876E-02 0.12722291E+03</pdfrwt>
<pdfrwt beam="2">  1       -4 0.30242441E-01 0.12722291E+03</pdfrwt>
<totfact> 0.41609476E+03</totfact>
</mgrwt>
</event>
<event>
 6    4  0.5642870E-004  0.1418647E+03  0.7818608E-02  0.1210842E+00
         -4   -1    0    0    0  501 -0.00000000000E+00  0.00000000000E+00  0.68925666621E+01  0.70085929538E+01  0.12700000000E+01 0. -1.
          4   -1    0    0  502    0  0.00000000000E+00 -0.00000000000E+00 -0.16083739433E+04  0.16083744447E+04  0.12700000000E+01 0. -1.
         25    2    1    2    0    0 -0.22613160594E+02  0.63158867795E+02 -0.96421818451E+03  0.97459853906E+03  0.12500082949E+03 0.  0.
    9000005    1    3    3    0    0  0.25581762821E+02 -0.28042421080E+02 -0.30577291815E+03  0.30812153680E+03  0.10000000000E+01 0.  0.
    9000005    1    3    3    0    0 -0.48194923415E+02  0.91201288875E+02 -0.65844526637E+03  0.66647700226E+03  0.10000000000E+01 0.  0.
         21    1    1    2  502  501  0.22613160594E+02 -0.63158867795E+02 -0.63726319212E+03  0.64078449860E+03  0.00000000000E+00 0. -1.
<mgrwt>
<rscale>  1 0.14186474E+03</rscale>
<asrwt>0</asrwt>
<pdfrwt beam="2">  1        4 0.24745081E+00 0.14186474E+03</pdfrwt>
<pdfrwt beam="1">  1       -4 0.10693598E-02 0.14186474E+03</pdfrwt>
<totfact> 0.33907141E+02</totfact>
</mgrwt>
</event>
<event>
 6    4  0.5642870E-004  0.1352224E+03  0.7818608E-02  0.1219906E+00
          4   -1    0    0  502    0  0.00000000000E+00  0.00000000000E+00  0.57598513055E+02  0.57612512583E+02  0.12700000000E+01 0.  1.
         -4   -1    0    0    0  501 -0.00000000000E+00 -0.00000000000E+00 -0.17278147868E+03  0.17278614608E+03  0.12700000000E+01 0.  1.
         25    2    1    2    0    0  0.49285369480E+02  0.15239294346E+02 -0.11695070560E+03  0.17878074857E+03  0.12499521904E+03 0.  0.
    9000005    1    3    3    0    0  0.67526565024E+02  0.26514511005E+02 -0.13332066083E+03  0.15178357909E+03  0.10000000000E+01 0.  0.
    9000005    1    3    3    0    0 -0.18241195544E+02 -0.11275216659E+02  0.16369955231E+02  0.26997169479E+02  0.10000000000E+01 0.  0.
         21    1    1    2  502  501 -0.49285369480E+02 -0.15239294346E+02  0.17677399747E+01  0.51617910085E+02  0.00000000000E+00 0.  1.
<mgrwt>
<rscale>  1 0.13522237E+03</rscale>
<asrwt>0</asrwt>
<pdfrwt beam="1">  1        4 0.88627457E-02 0.13522237E+03</pdfrwt>
<pdfrwt beam="2">  1       -4 0.26583202E-01 0.13522237E+03</pdfrwt>
<totfact> 0.20405581E+03</totfact>
</mgrwt>
</event>
<event>
 6    4  0.5642870E-004  0.1310009E+03  0.7818608E-02  0.1225978E+00
         -4   -1    0    0    0  501 -0.00000000000E+00  0.00000000000E+00  0.80944326307E+01  0.81934571222E+01  0.12700000000E+01 0. -1.
          4   -1    0    0  502    0  0.00000000000E+00 -0.00000000000E+00 -0.12538506352E+04  0.12538512784E+04  0.12700000000E+01 0. -1.
         25    2    1    2    0    0 -0.28596082890E+02  0.26808886836E+02 -0.55795069157E+03  0.57312320635E+03  0.12499913224E+03 0.  0.
    9000005    1    3    3    0    0 -0.71824582920E+02  0.16401257416E+00 -0.22138820423E+03  0.23274994003E+03  0.10000000000E+01 0.  0.
    9000005    1    3    3    0    0  0.43228500030E+02  0.26644874262E+02 -0.33656248734E+03  0.34037326632E+03  0.10000000000E+01 0.  0.
         21    1    1    2  502  501  0.28596082890E+02 -0.26808886836E+02 -0.68780551102E+03  0.68892152918E+03  0.00000000000E+00 0. -1.
<mgrwt>
<rscale>  1 0.13100090E+03</rscale>
<asrwt>0</asrwt>
<pdfrwt beam="2">  1        4 0.19290761E+00 0.13100090E+03</pdfrwt>
<pdfrwt beam="1">  1       -4 0.12529651E-02 0.13100090E+03</pdfrwt>
<totfact> 0.55895781E+02</totfact>
</mgrwt>
</event>
<event>
 6    4  0.5642870E-004  0.1267978E+03  0.7818608E-02  0.1232286E+00
         -4   -1    0    0    0  501 -0.00000000000E+00  0.00000000000E+00  0.19440721660E+02  0.19482160010E+02  0.12700000000E+01 0. -1.
          4   -1    0    0  502    0  0.00000000000E+00 -0.00000000000E+00 -0.31721585209E+03  0.31721839435E+03  0.12700000000E+01 0. -1.
         25    2    1    2    0    0  0.55636582954E+01  0.20539191248E+02 -0.20129763275E+03  0.23790419700E+03  0.12499942931E+03 0.  0.
    9000005    1    3    3    0    0 -0.30659134405E+02 -0.30780958091E+02 -0.23649744855E+02  0.49474845479E+02  0.10000000000E+01 0.  0.
    9000005    1    3    3    0    0  0.36222792701E+02  0.51320149340E+02 -0.17764788790E+03  0.18842935152E+03  0.10000000000E+01 0.  0.
         21    1    1    2  502  501 -0.55636582954E+01 -0.20539191248E+02 -0.96477497679E+02  0.98796357368E+02  0.00000000000E+00 0.  1.
<mgrwt>
<rscale>  1 0.12679775E+03</rscale>
<asrwt>0</asrwt>
<pdfrwt beam="2">  1        4 0.48805818E-01 0.12679775E+03</pdfrwt>
<pdfrwt beam="1">  1       -4 0.29942636E-02 0.12679775E+03</pdfrwt>
<totfact> 0.35575213E+03</totfact>
</mgrwt>
</event>
<event>
 6    4  0.5642870E-004  0.1295967E+03  0.7818608E-02  0.1228055E+00
          4   -1    0    0  502    0  0.00000000000E+00  0.00000000000E+00  0.55212728496E+02  0.55227332798E+02  0.12700000000E+01 0.  1.
         -4   -1    0    0    0  501 -0.00000000000E+00 -0.00000000000E+00 -0.12164746758E+03  0.12165409680E+03  0.12700000000E+01 0.  1.
         25    2    1    2    0    0 -0.10479799551E+02 -0.32562989464E+02 -0.55359709497E+02  0.14092547374E+03  0.12500046893E+03 0.  0.
    9000005    1    3    3    0    0 -0.32441298020E+02 -0.32309425292E+02  0.28694413518E+02  0.54043557868E+02  0.10000000000E+01 0.  0.
    9000005    1    3    3    0    0  0.21961498469E+02 -0.25356417132E+00 -0.84054123014E+02  0.86881915872E+02  0.10000000000E+01 0.  0.
         21    1    1    2  502  501  0.10479799551E+02  0.32562989464E+02 -0.11075029586E+02  0.35955955859E+02  0.00000000000E+00 0.  1.
<mgrwt>
<rscale>  1 0.12959665E+03</rscale>
<asrwt>0</asrwt>
<pdfrwt beam="1">  1        4 0.84958993E-02 0.12959665E+03</pdfrwt>
<pdfrwt beam="2">  1       -4 0.18716628E-01 0.12959665E+03</pdfrwt>
<totfact> 0.41065665E+03</totfact>
</mgrwt>
</event>
<event>
 6    4  0.5642870E-004  0.1371930E+03  0.7818608E-02  0.1217157E+00
          4   -1    0    0  502    0  0.00000000000E+00  0.00000000000E+00  0.26141687738E+02  0.26172518752E+02  0.12700000000E+01 0.  1.
         -4   -1    0    0    0  501 -0.00000000000E+00 -0.00000000000E+00 -0.37783910802E+03  0.37784124238E+03  0.12700000000E+01 0.  1.
         25    2    1    2    0    0 -0.23074678936E+02  0.51622182378E+02 -0.28689185499E+03  0.31800764616E+03  0.12499854412E+03 0.  0.
    9000005    1    3    3    0    0  0.47696866841E+02  0.32884711144E+01 -0.13997800639E+03  0.14792108512E+03  0.10000000000E+01 0.  0.
    9000005    1    3    3    0    0 -0.70771545777E+02  0.48333711264E+02 -0.14691384860E+03  0.17008656104E+03  0.10000000000E+01 0.  0.
         21    1    1    2  502  501  0.23074678936E+02 -0.51622182378E+02 -0.64805565284E+02  0.86006114976E+02  0.00000000000E+00 0.  1.
<mgrwt>
<rscale>  1 0.13719303E+03</rscale>
<asrwt>0</asrwt>
<pdfrwt beam="1">  1        4 0.40243342E-02 0.13719303E+03</pdfrwt>
<pdfrwt beam="2">  1       -4 0.58131625E-01 0.13719303E+03</pdfrwt>
<totfact> 0.15863804E+03</totfact>
</mgrwt>
</event>
<event>
 6    4  0.5642870E-004  0.1280467E+03  0.7818608E-02  0.1230383E+00
          4   -1    0    0  502    0  0.00000000000E+00  0.00000000000E+00  0.14818088538E+03  0.14818632762E+03  0.12700000000E+01 0.  1.
         -4   -1    0    0    0  501 -0.00000000000E+00 -0.00000000000E+00 -0.42080830467E+02  0.42099990413E+02  0.12700000000E+01 0.  1.
         25    2    1    2    0    0 -0.10295806292E+02 -0.25798492982E+02  0.74216970421E+02  0.14800042270E+03  0.12499760219E+03 0.  0.
    9000005    1    3    3    0    0  0.12324894157E+02 -0.58235946805E+02  0.87881359906E+02  0.10614830161E+03  0.10000000000E+01 0.  0.
    9000005    1    3    3    0    0 -0.22620700449E+02  0.32437453823E+02 -0.13664389485E+02  0.41852121085E+02  0.10000000000E+01 0.  0.
         21    1    1    2  502  501  0.10295806292E+02  0.25798492982E+02  0.31883084495E+02  0.42285895335E+02  0.00000000000E+00 0. -1.
<mgrwt>
<rscale>  1 0.12804674E+03</rscale>
<asrwt>0</asrwt>
<pdfrwt beam="1">  1        4 0.22798951E-01 0.12804674E+03</pdfrwt>
<pdfrwt beam="2">  1       -4 0.64758665E-02 0.12804674E+03</pdfrwt>
<totfact> 0.44848465E+03</totfact>
</mgrwt>
</event>
<event>
 6    4  0.5642870E-004  0.1321449E+03  0.7818608E-02  0.1224307E+00
         -4   -1    0    0    0  501 -0.00000000000E+00  0.00000000000E+00  0.18564133716E+04  0.18564138060E+04  0.12700000000E+01 0. -1.
          4   -1    0    0  502    0  0.00000000000E+00 -0.00000000000E+00 -0.47898470513E+01  0.49553541523E+01  0.12700000000E+01 0. -1.
         25    2    1    2    0    0  0.12302359594E+02  0.41050476773E+02  0.10034503750E+04  0.10121140858E+04  0.12500311165E+03 0.  0.
    9000005    1    3    3    0    0  0.66717779519E+01  0.82825469596E+02  0.80229211148E+03  0.80658428151E+03  0.10000000000E+01 0.  0.
    9000005    1    3    3    0    0  0.56305816425E+01 -0.41774992823E+02  0.20115826347E+03  0.20552980426E+03  0.10000000000E+01 0.  0.
         21    1    1    2  502  501 -0.12302359594E+02 -0.41050476773E+02  0.84817314959E+03  0.84925507440E+03  0.00000000000E+00 0. -1.
<mgrwt>
<rscale>  1 0.13214487E+03</rscale>
<asrwt>0</asrwt>
<pdfrwt beam="2">  1        4 0.74966390E-03 0.13214487E+03</pdfrwt>
<pdfrwt beam="1">  1       -4 0.28561497E+00 0.13214487E+03</pdfrwt>
<totfact> 0.34509706E+02</totfact>
</mgrwt>
</event>
<event>
 6    4  0.5642870E-004  0.1437622E+03  0.7818608E-02  0.1208354E+00
         -4   -1    0    0    0  501 -0.00000000000E+00  0.00000000000E+00  0.24082428827E+03  0.24082763696E+03  0.12700000000E+01 0.  1.
          4   -1    0    0  502    0  0.00000000000E+00 -0.00000000000E+00 -0.20485677023E+03  0.20486070684E+03  0.12700000000E+01 0.  1.
         25    2    1    2    0    0 -0.19008168014E+02 -0.68422371726E+02  0.21184280144E+03  0.25601745327E+03  0.12499852980E+03 0.  0.
    9000005    1    3    3    0    0 -0.64080651453E+02 -0.48029365594E+02  0.72058749814E+02  0.10773399313E+03  0.10000000000E+01 0.  0.
    9000005    1    3    3    0    0  0.45072483439E+02 -0.20393006132E+02  0.13978405163E+03  0.14828346014E+03  0.10000000000E+01 0.  0.
         21    1    1    2  502  501  0.19008168014E+02  0.68422371726E+02 -0.17587528340E+03  0.18967089053E+03  0.00000000000E+00 0.  1.
<mgrwt>
<rscale>  1 0.14376218E+03</rscale>
<asrwt>0</asrwt>
<pdfrwt beam="2">  1        4 0.31516987E-01 0.14376218E+03</pdfrwt>
<pdfrwt beam="1">  1       -4 0.37050451E-01 0.14376218E+03</pdfrwt>
<totfact> 0.11578093E+02</totfact>
</mgrwt>
</event>
<event>
 6    4  0.5642870E-004  0.1316386E+03  0.7818608E-02  0.1225044E+00
         -4   -1    0    0    0  501 -0.00000000000E+00  0.00000000000E+00  0.94558012497E+01  0.95407063299E+01  0.12700000000E+01 0.  1.
          4   -1    0    0  502    0  0.00000000000E+00 -0.00000000000E+00 -0.81093560260E+03  0.81093659707E+03  0.12700000000E+01 0.  1.
         25    2    1    2    0    0 -0.39276091881E+02  0.12652566106E+02 -0.54326379107E+03  0.55898503432E+03  0.12500409227E+03 0.  0.
    9000005    1    3    3    0    0 -0.34797663432E+02 -0.40981820768E+02 -0.43253860882E+03  0.43586813962E+03  0.10000000000E+01 0.  0.
    9000005    1    3    3    0    0 -0.44784284481E+01  0.53634386874E+02 -0.11072518224E+03  0.12311689470E+03  0.10000000000E+01 0.  0.
         21    1    1    2  502  501  0.39276091881E+02 -0.12652566106E+02 -0.25821601029E+03  0.26149226908E+03  0.00000000000E+00 0. -1.
<mgrwt>
<rscale>  1 0.13163860E+03</rscale>
<asrwt>0</asrwt>
<pdfrwt beam="2">  1        4 0.12476588E+00 0.13163860E+03</pdfrwt>
<pdfrwt beam="1">  1       -4 0.14613470E-02 0.13163860E+03</pdfrwt>
<totfact> 0.13672165E+03</totfact>
</mgrwt>
</event>
<event>
 6    4  0.5642870E-004  0.1281360E+03  0.7818608E-02  0.1230248E+00
          4   -1    0    0  502    0  0.00000000000E+00  0.00000000000E+00  0.79525239365E+02  0.79535379524E+02  0.12700000000E+01 0.  1.
         -4   -1    0    0    0  501 -0.00000000000E+00 -0.00000000000E+00 -0.92590738516E+02  0.92599447941E+02  0.12700000000E+01 0.  1.
         25    2    1    2    0    0 -0.21561880095E+02  0.17973146729E+02 -0.38977328008E+02  0.13393310563E+03  0.12502358181E+03 0.  0.
    9000005    1    3    3    0    0  0.14517472091E+02  0.32042757045E+02  0.35497490253E+02  0.49985668838E+02  0.10000000000E+01 0.  0.
    9000005    1    3    3    0    0 -0.36079352186E+02 -0.14069610316E+02 -0.74474818261E+02  0.83947436790E+02  0.10000000000E+01 0.  0.
         21    1    1    2  502  501  0.21561880095E+02 -0.17973146729E+02  0.25911828857E+02  0.38201721836E+02  0.00000000000E+00 0.  1.
<mgrwt>
<rscale>  1 0.12813604E+03</rscale>
<asrwt>0</asrwt>
<pdfrwt beam="1">  1        4 0.12236102E-01 0.12813604E+03</pdfrwt>
<pdfrwt beam="2">  1       -4 0.14246179E-01 0.12813604E+03</pdfrwt>
<totfact> 0.35779406E+03</totfact>
</mgrwt>
</event>
<event>
 6    4  0.5642870E-004  0.1319342E+03  0.7818608E-02  0.1224614E+00
          4   -1    0    0  502    0  0.00000000000E+00  0.00000000000E+00  0.41906131903E+03  0.41906324344E+03  0.12700000000E+01 0. -1.
         -4   -1    0    0    0  501 -0.00000000000E+00 -0.00000000000E+00 -0.22061932337E+02  0.22098456019E+02  0.12700000000E+01 0. -1.
         25    2    1    2    0    0 -0.14291965664E+02 -0.39723996046E+02  0.19935390778E+03  0.23905778689E+03  0.12499755510E+03 0.  0.
    9000005    1    3    3    0    0 -0.96292254208E+01 -0.29086546519E+02 -0.77550275119E+01  0.31621031329E+02  0.10000000000E+01 0.  0.
    9000005    1    3    3    0    0 -0.46627402431E+01 -0.10637449528E+02  0.20710893529E+03  0.20743675556E+03  0.10000000000E+01 0.  0.
         21    1    1    2  502  501  0.14291965664E+02  0.39723996046E+02  0.19764547891E+03  0.20210391257E+03  0.00000000000E+00 0. -1.
<mgrwt>
<rscale>  1 0.13193424E+03</rscale>
<asrwt>0</asrwt>
<pdfrwt beam="1">  1        4 0.64473923E-01 0.13193424E+03</pdfrwt>
<pdfrwt beam="2">  1       -4 0.33971014E-02 0.13193424E+03</pdfrwt>
<totfact> 0.16533384E+03</totfact>
</mgrwt>
</event>
<event>
 6    4  0.5642870E-004  0.1336545E+03  0.7818608E-02  0.1222132E+00
         -4   -1    0    0    0  501 -0.00000000000E+00  0.00000000000E+00  0.21395473410E+04  0.21395477180E+04  0.12700000000E+01 0.  1.
          4   -1    0    0  502    0  0.00000000000E+00 -0.00000000000E+00 -0.39240194370E+02  0.39260740622E+02  0.12700000000E+01 0.  1.
         25    2    1    2    0    0 -0.42477561118E+02 -0.20831810548E+02  0.21223924967E+04  0.21265966762E+04  0.12500082297E+03 0.  0.
    9000005    1    3    3    0    0  0.26275312943E+02 -0.51659906359E+02  0.84910029594E+03  0.85107664200E+03  0.10000000000E+01 0.  0.
    9000005    1    3    3    0    0 -0.68752874060E+02  0.30828095811E+02  0.12732922008E+04  0.12755200342E+04  0.10000000000E+01 0.  0.
         21    1    1    2  502  501  0.42477561118E+02  0.20831810548E+02 -0.22085350047E+02  0.52211782348E+02  0.00000000000E+00 0.  1.
<mgrwt>
<rscale>  1 0.13365445E+03</rscale>
<asrwt>0</asrwt>
<pdfrwt beam="2">  1        4 0.60385616E-02 0.13365445E+03</pdfrwt>
<pdfrwt beam="1">  1       -4 0.32916278E+00 0.13365445E+03</pdfrwt>
<totfact> 0.76197728E+00</totfact>
</mgrwt>
</event>
<event>
 6    4  0.5642870E-004  0.1272559E+03  0.7818608E-02  0.1231585E+00
         -4   -1    0    0    0  501 -0.00000000000E+00  0.00000000000E+00  0.90933448250E+03  0.90933536936E+03  0.12700000000E+01 0. -1.
          4   -1    0    0  502    0  0.00000000000E+00 -0.00000000000E+00 -0.63254198997E+01  0.64516538119E+01  0.12700000000E+01 0. -1.
         25    2    1    2    0    0  0.42789926241E+01 -0.23444590315E+02  0.79992425415E+03  0.80998325988E+03  0.12500444118E+03 0.  0.
    9000005    1    3    3    0    0 -0.50390975736E+02  0.15279506675E+02  0.22071641651E+03  0.22691286935E+03  0.10000000000E+01 0.  0.
    9000005    1    3    3    0    0  0.54669968360E+02 -0.38724096990E+02  0.57920783765E+03  0.58307039054E+03  0.10000000000E+01 0.  0.
         21    1    1    2  502  501 -0.42789926241E+01  0.23444590315E+02  0.10308480845E+03  0.10580376329E+03  0.00000000000E+00 0. -1.
<mgrwt>
<rscale>  1 0.12725592E+03</rscale>
<asrwt>0</asrwt>
<pdfrwt beam="2">  1        4 0.98292052E-03 0.12725592E+03</pdfrwt>
<pdfrwt beam="1">  1       -4 0.13990732E+00 0.12725592E+03</pdfrwt>
<totfact> 0.18662044E+03</totfact>
</mgrwt>
</event>
<event>
 6    4  0.5642870E-004  0.1270469E+03  0.7818608E-02  0.1231905E+00
         -4   -1    0    0    0  501 -0.00000000000E+00  0.00000000000E+00  0.69523672121E+02  0.69535270800E+02  0.12700000000E+01 0.  1.
          4   -1    0    0  502    0  0.00000000000E+00 -0.00000000000E+00 -0.10289802623E+03  0.10290586331E+03  0.12700000000E+01 0.  1.
         25    2    1    2    0    0 -0.14081549432E+02 -0.17901408490E+02  0.57424956479E+01  0.12717659616E+03  0.12498863906E+03 0.  0.
    9000005    1    3    3    0    0  0.11174899598E+02 -0.16346118283E+02  0.62208744413E+02  0.65291667503E+02  0.10000000000E+01 0.  0.
    9000005    1    3    3    0    0 -0.25256449030E+02 -0.15552902069E+01 -0.56466248765E+02  0.61884928656E+02  0.10000000000E+01 0.  0.
         21    1    1    2  502  501  0.14081549432E+02  0.17901408490E+02 -0.39116849759E+02  0.45264537946E+02  0.00000000000E+00 0.  1.
<mgrwt>
<rscale>  1 0.12704688E+03</rscale>
<asrwt>0</asrwt>
<pdfrwt beam="2">  1        4 0.15831961E-01 0.12704688E+03</pdfrwt>
<pdfrwt beam="1">  1       -4 0.10697445E-01 0.12704688E+03</pdfrwt>
<totfact> 0.37331758E+03</totfact>
</mgrwt>
</event>
<event>
 6    4  0.5642870E-004  0.1271878E+03  0.7818608E-02  0.1231689E+00
         -4   -1    0    0    0  501 -0.00000000000E+00  0.00000000000E+00  0.60422080043E+01  0.61742349783E+01  0.12700000000E+01 0.  1.
          4   -1    0    0  502    0  0.00000000000E+00 -0.00000000000E+00 -0.14539238656E+04  0.14539244202E+04  0.12700000000E+01 0.  1.
         25    2    1    2    0    0  0.14737546821E+02 -0.18285427173E+02 -0.67607060584E+03  0.68793037582E+03  0.12500074309E+03 0.  0.
    9000005    1    3    3    0    0 -0.15828646611E+02  0.35079908128E+02 -0.49896949238E+03  0.50045249558E+03  0.10000000000E+01 0.  0.
    9000005    1    3    3    0    0  0.30566193432E+02 -0.53365335301E+02 -0.17710111346E+03  0.18747788024E+03  0.10000000000E+01 0.  0.
         21    1    1    2  502  501 -0.14737546821E+02  0.18285427173E+02 -0.77181105172E+03  0.77216827938E+03  0.00000000000E+00 0.  1.
<mgrwt>
<rscale>  1 0.12718781E+03</rscale>
<asrwt>0</asrwt>
<pdfrwt beam="2">  1        4 0.22369052E+00 0.12718781E+03</pdfrwt>
<pdfrwt beam="1">  1       -4 0.93977021E-03 0.12718781E+03</pdfrwt>
<totfact> 0.55699136E+02</totfact>
</mgrwt>
</event>
<event>
 6    4  0.5642870E-004  0.1281398E+03  0.7818608E-02  0.1230242E+00
         -4   -1    0    0    0  501 -0.00000000000E+00  0.00000000000E+00  0.20519335242E+02  0.20558599630E+02  0.12700000000E+01 0. -1.
          4   -1    0    0  502    0  0.00000000000E+00 -0.00000000000E+00 -0.37502290630E+03  0.37502505669E+03  0.12700000000E+01 0. -1.
         25    2    1    2    0    0  0.22886295503E+02  0.16504508024E+02 -0.19320796364E+03  0.23183856699E+03  0.12499449038E+03 0.  0.
    9000005    1    3    3    0    0 -0.19167706229E+02  0.70569635199E+01  0.10936787153E+02  0.23190838912E+02  0.10000000000E+01 0.  0.
    9000005    1    3    3    0    0  0.42054001731E+02  0.94475445038E+01 -0.20414475079E+03  0.20864772808E+03  0.10000000000E+01 0.  0.
         21    1    1    2  502  501 -0.22886295503E+02 -0.16504508024E+02 -0.16129560742E+03  0.16374508933E+03  0.00000000000E+00 0. -1.
<mgrwt>
<rscale>  1 0.12813978E+03</rscale>
<asrwt>0</asrwt>
<pdfrwt beam="2">  1        4 0.57699013E-01 0.12813978E+03</pdfrwt>
<pdfrwt beam="1">  1       -4 0.31600068E-02 0.12813978E+03</pdfrwt>
<totfact> 0.23240963E+03</totfact>
</mgrwt>
</event>
<event>
 6    4  0.5642870E-004  0.1371443E+03  0.7818608E-02  0.1217224E+00
         -4   -1    0    0    0  501 -0.00000000000E+00  0.00000000000E+00  0.73732918396E+02  0.73743855034E+02  0.12700000000E+01 0. -1.
          4   -1    0    0  502    0  0.00000000000E+00 -0.00000000000E+00 -0.16984880884E+03  0.16985355682E+03  0.12700000000E+01 0. -1.
         25    2    1    2    0    0 -0.20216514934E+02  0.52679650737E+02 -0.60021419147E+01  0.13727553851E+03  0.12499877874E+03 0.  0.
    9000005    1    3    3    0    0 -0.20599596767E+02  0.65737506026E+00 -0.59301406304E+02  0.62788791345E+02  0.10000000000E+01 0.  0.
    9000005    1    3    3    0    0  0.38308183226E+00  0.52022275677E+02  0.53299264390E+02  0.74486747162E+02  0.10000000000E+01 0.  0.
         21    1    1    2  502  501  0.20216514934E+02 -0.52679650737E+02 -0.90113748530E+02  0.10632187335E+03  0.00000000000E+00 0. -1.
<mgrwt>
<rscale>  1 0.13714426E+03</rscale>
<asrwt>0</asrwt>
<pdfrwt beam="2">  1        4 0.26131792E-01 0.13714426E+03</pdfrwt>
<pdfrwt beam="1">  1       -4 0.11344732E-01 0.13714426E+03</pdfrwt>
<totfact> 0.13936604E+03</totfact>
</mgrwt>
</event>
<event>
 6    4  0.5642870E-004  0.1345069E+03  0.7818608E-02  0.1220917E+00
          4   -1    0    0  502    0  0.00000000000E+00  0.00000000000E+00  0.35734269653E+03  0.35734495332E+03  0.12700000000E+01 0.  1.
         -4   -1    0    0    0  501 -0.00000000000E+00 -0.00000000000E+00 -0.26373509691E+02  0.26404070016E+02  0.12700000000E+01 0.  1.
         25    2    1    2    0    0  0.15757546839E+02 -0.47105579568E+02  0.17923896695E+03  0.22409534961E+03  0.12499953013E+03 0.  0.
    9000005    1    3    3    0    0 -0.11630053092E+02 -0.75832654524E+02  0.16491141612E+03  0.18188629633E+03  0.10000000000E+01 0.  0.
    9000005    1    3    3    0    0  0.27387599931E+02  0.28727074956E+02  0.14327550835E+02  0.42209053276E+02  0.10000000000E+01 0.  0.
         21    1    1    2  502  501 -0.15757546839E+02  0.47105579568E+02  0.15173021989E+03  0.15965367373E+03  0.00000000000E+00 0.  1.
<mgrwt>
<rscale>  1 0.13450695E+03</rscale>
<asrwt>0</asrwt>
<pdfrwt beam="1">  1        4 0.54978318E-01 0.13450695E+03</pdfrwt>
<pdfrwt beam="2">  1       -4 0.40599878E-02 0.13450695E+03</pdfrwt>
<totfact> 0.17490840E+03</totfact>
</mgrwt>
</event>
<event>
 6    4  0.5642870E-004  0.1280818E+03  0.7818608E-02  0.1230330E+00
         -4   -1    0    0    0  501 -0.00000000000E+00  0.00000000000E+00  0.67462267826E+01  0.68647269284E+01  0.12700000000E+01 0. -1.
          4   -1    0    0  502    0  0.00000000000E+00 -0.00000000000E+00 -0.16552257875E+04  0.16552262748E+04  0.12700000000E+01 0. -1.
         25    2    1    2    0    0 -0.21786518788E+02  0.17521480227E+02 -0.61318618767E+03  0.62642019345E+03  0.12499321318E+03 0.  0.
    9000005    1    3    3    0    0 -0.55780790279E+02  0.53757787759E+02 -0.40901515959E+03  0.41628811787E+03  0.10000000000E+01 0.  0.
    9000005    1    3    3    0    0  0.33994271491E+02 -0.36236307533E+02 -0.20417102808E+03  0.21013207557E+03  0.10000000000E+01 0.  0.
         21    1    1    2  502  501  0.21786518788E+02 -0.17521480227E+02 -0.10352933731E+04  0.10356708082E+04  0.00000000000E+00 0.  1.
<mgrwt>
<rscale>  1 0.12808184E+03</rscale>
<asrwt>0</asrwt>
<pdfrwt beam="2">  1        4 0.25465895E+00 0.12808184E+03</pdfrwt>
<pdfrwt beam="1">  1       -4 0.10470352E-02 0.12808184E+03</pdfrwt>
<totfact> 0.31316874E+02</totfact>
</mgrwt>
</event>
<event>
 6    4  0.5642870E-004  0.1284480E+03  0.7818608E-02  0.1229777E+00
          4   -1    0    0  502    0  0.00000000000E+00  0.00000000000E+00  0.75606222345E+03  0.75606329009E+03  0.12700000000E+01 0. -1.
         -4   -1    0    0    0  501 -0.00000000000E+00 -0.00000000000E+00 -0.14006508536E+02  0.14063967483E+02  0.12700000000E+01 0. -1.
         25    2    1    2    0    0  0.27480800624E+02  0.10852895394E+02  0.29079545038E+03  0.31790075892E+03  0.12500367522E+03 0.  0.
    9000005    1    3    3    0    0 -0.37909452088E+02 -0.32108523967E+02  0.99387180514E+02  0.11111658526E+03  0.10000000000E+01 0.  0.
    9000005    1    3    3    0    0  0.65390252711E+02  0.42961419361E+02  0.19140826986E+03  0.20678417366E+03  0.10000000000E+01 0.  0.
         21    1    1    2  502  501 -0.27480800624E+02 -0.10852895394E+02  0.45126026453E+03  0.45222649866E+03  0.00000000000E+00 0. -1.
<mgrwt>
<rscale>  1 0.12844804E+03</rscale>
<asrwt>0</asrwt>
<pdfrwt beam="1">  1        4 0.11632177E+00 0.12844804E+03</pdfrwt>
<pdfrwt beam="2">  1       -4 0.21593494E-02 0.12844804E+03</pdfrwt>
<totfact> 0.88481765E+02</totfact>
</mgrwt>
</event>
<event>
 6    4  0.5642870E-004  0.1365535E+03  0.7818608E-02  0.1218043E+00
          4   -1    0    0  502    0  0.00000000000E+00  0.00000000000E+00  0.43136618208E+01  0.44967297344E+01  0.12700000000E+01 0. -1.
         -4   -1    0    0    0  501 -0.00000000000E+00 -0.00000000000E+00 -0.21026815269E+04  0.21026819104E+04  0.12700000000E+01 0. -1.
         25    2    1    2    0    0  0.17261551187E+02  0.52132423228E+02 -0.15901183798E+04  0.15959709622E+04  0.12502439677E+03 0.  0.
    9000005    1    3    3    0    0 -0.15450425003E+02 -0.21164631985E+02 -0.90946446496E+02  0.94651536755E+02  0.10000000000E+01 0.  0.
    9000005    1    3    3    0    0  0.32711976190E+02  0.73297055212E+02 -0.14991719333E+04  0.15013194255E+04  0.10000000000E+01 0.  0.
         21    1    1    2  502  501 -0.17261551187E+02 -0.52132423228E+02 -0.50824948527E+03  0.51120767793E+03  0.00000000000E+00 0. -1.
<mgrwt>
<rscale>  1 0.13655347E+03</rscale>
<asrwt>0</asrwt>
<pdfrwt beam="1">  1        4 0.67775361E-03 0.13655347E+03</pdfrwt>
<pdfrwt beam="2">  1       -4 0.32350278E+00 0.13655347E+03</pdfrwt>
<totfact> 0.24274242E+02</totfact>
</mgrwt>
</event>
<event>
 6    4  0.5642870E-004  0.1324191E+03  0.7818608E-02  0.1223910E+00
          4   -1    0    0  502    0  0.00000000000E+00  0.00000000000E+00  0.84606850041E+02  0.84616381239E+02  0.12700000000E+01 0.  1.
         -4   -1    0    0    0  501 -0.00000000000E+00 -0.00000000000E+00 -0.94024763497E+02  0.94033340102E+02  0.12700000000E+01 0.  1.
         25    2    1    2    0    0  0.14236082959E+02 -0.41313857378E+02 -0.19382733244E+02  0.13383009949E+03  0.12500121724E+03 0.  0.
    9000005    1    3    3    0    0 -0.21732738711E+02 -0.44349881250E+02  0.40515822467E+02  0.63888620027E+02  0.10000000000E+01 0.  0.
    9000005    1    3    3    0    0  0.35968821670E+02  0.30360238726E+01 -0.59898555710E+02  0.69941479463E+02  0.10000000000E+01 0.  0.
         21    1    1    2  502  501 -0.14236082959E+02  0.41313857378E+02  0.99648197879E+01  0.44819621851E+02  0.00000000000E+00 0.  1.
<mgrwt>
<rscale>  1 0.13241905E+03</rscale>
<asrwt>0</asrwt>
<pdfrwt beam="1">  1        4 0.13017831E-01 0.13241905E+03</pdfrwt>
<pdfrwt beam="2">  1       -4 0.14466741E-01 0.13241905E+03</pdfrwt>
<totfact> 0.31575126E+03</totfact>
</mgrwt>
</event>
<event>
 6    4  0.5642870E-004  0.1285620E+03  0.7818608E-02  0.1229605E+00
          4   -1    0    0  502    0  0.00000000000E+00  0.00000000000E+00  0.44508751189E+03  0.44508932378E+03  0.12700000000E+01 0.  1.
         -4   -1    0    0    0  501 -0.00000000000E+00 -0.00000000000E+00 -0.24617824470E+02  0.24650561487E+02  0.12700000000E+01 0.  1.
         25    2    1    2    0    0  0.26250134176E+01 -0.29943390854E+02  0.14978884208E+03  0.19739521874E+03  0.12499871126E+03 0.  0.
    9000005    1    3    3    0    0  0.35791710137E+02 -0.26046135037E+02  0.36148119911E+00  0.44278418372E+02  0.10000000000E+01 0.  0.
    9000005    1    3    3    0    0 -0.33166696720E+02 -0.38972558173E+01  0.14942736088E+03  0.15311680037E+03  0.10000000000E+01 0.  0.
         21    1    1    2  502  501 -0.26250134176E+01  0.29943390854E+02  0.27068084534E+03  0.27234466652E+03  0.00000000000E+00 0.  1.
<mgrwt>
<rscale>  1 0.12856195E+03</rscale>
<asrwt>0</asrwt>
<pdfrwt beam="1">  1        4 0.68477657E-01 0.12856195E+03</pdfrwt>
<pdfrwt beam="2">  1       -4 0.37900154E-02 0.12856195E+03</pdfrwt>
<totfact> 0.12160157E+03</totfact>
</mgrwt>
</event>
<event>
 6    4  0.5642870E-004  0.1266488E+03  0.7818608E-02  0.1232515E+00
         -4   -1    0    0    0  501 -0.00000000000E+00  0.00000000000E+00  0.78770211562E+02  0.78780448904E+02  0.12700000000E+01 0.  1.
          4   -1    0    0  502    0  0.00000000000E+00 -0.00000000000E+00 -0.74930147439E+02  0.74940909357E+02  0.12700000000E+01 0.  1.
         25    2    1    2    0    0  0.12344834319E+01 -0.20326652489E+02  0.19356572249E+02  0.12811942913E+03  0.12500085792E+03 0.  0.
    9000005    1    3    3    0    0  0.11299563937E+02 -0.51812801319E+02  0.57102421829E+02  0.77935441902E+02  0.10000000000E+01 0.  0.
    9000005    1    3    3    0    0 -0.10065080505E+02  0.31486148830E+02 -0.37745849580E+02  0.50183987229E+02  0.10000000000E+01 0.  0.
         21    1    1    2  502  501 -0.12344834319E+01  0.20326652489E+02 -0.15516508126E+02  0.25601929130E+02  0.00000000000E+00 0. -1.
<mgrwt>
<rscale>  1 0.12664877E+03</rscale>
<asrwt>0</asrwt>
<pdfrwt beam="2">  1        4 0.11529330E-01 0.12664877E+03</pdfrwt>
<pdfrwt beam="1">  1       -4 0.12120109E-01 0.12664877E+03</pdfrwt>
<totfact> 0.52161972E+03</totfact>
</mgrwt>
</event>
<event>
 6    4  0.5642870E-004  0.1296591E+03  0.7818608E-02  0.1227962E+00
         -4   -1    0    0    0  501 -0.00000000000E+00  0.00000000000E+00  0.13461240738E+04  0.13461246729E+04  0.12700000000E+01 0. -1.
          4   -1    0    0  502    0  0.00000000000E+00 -0.00000000000E+00 -0.57632513444E+01  0.59015223510E+01  0.12700000000E+01 0. -1.
         25    2    1    2    0    0 -0.30227635834E+02  0.16519544892E+02  0.12188486415E+04  0.12257256986E+04  0.12499948795E+03 0.  0.
    9000005    1    3    3    0    0  0.27685470007E+02  0.50510759313E+02  0.73251691714E+03  0.73477878028E+03  0.10000000000E+01 0.  0.
    9000005    1    3    3    0    0 -0.57913105840E+02 -0.33991214421E+02  0.48633172439E+03  0.49094691834E+03  0.10000000000E+01 0.  0.
         21    1    1    2  502  501  0.30227635834E+02 -0.16519544892E+02  0.12151218094E+03  0.12630049663E+03  0.00000000000E+00 0. -1.
<mgrwt>
<rscale>  1 0.12965908E+03</rscale>
<asrwt>0</asrwt>
<pdfrwt beam="2">  1        4 0.89733424E-03 0.12965908E+03</pdfrwt>
<pdfrwt beam="1">  1       -4 0.20710718E+00 0.12965908E+03</pdfrwt>
<totfact> 0.75330695E+02</totfact>
</mgrwt>
</event>
<event>
 6    4  0.5642870E-004  0.1270033E+03  0.7818608E-02  0.1231971E+00
         -4   -1    0    0    0  501 -0.00000000000E+00  0.00000000000E+00  0.14257511064E+03  0.14258076684E+03  0.12700000000E+01 0. -1.
          4   -1    0    0  502    0  0.00000000000E+00 -0.00000000000E+00 -0.45444630303E+02  0.45462372611E+02  0.12700000000E+01 0. -1.
         25    2    1    2    0    0  0.19186767233E+02  0.11663702152E+02  0.10443845338E+03  0.16442999788E+03  0.12500263867E+03 0.  0.
    9000005    1    3    3    0    0 -0.14861021957E+02  0.61747696442E+02  0.35894986895E+02  0.72959427586E+02  0.10000000000E+01 0.  0.
    9000005    1    3    3    0    0  0.34047789190E+02 -0.50083994290E+02  0.68543466483E+02  0.91470570296E+02  0.10000000000E+01 0.  0.
         21    1    1    2  502  501 -0.19186767233E+02 -0.11663702152E+02 -0.73079730449E+01  0.23613141569E+02  0.00000000000E+00 0. -1.
<mgrwt>
<rscale>  1 0.12700328E+03</rscale>
<asrwt>0</asrwt>
<pdfrwt beam="2">  1        4 0.69932815E-02 0.12700328E+03</pdfrwt>
<pdfrwt beam="1">  1       -4 0.21936432E-01 0.12700328E+03</pdfrwt>
<totfact> 0.42339748E+03</totfact>
</mgrwt>
</event>
<event>
 6    4  0.5642870E-004  0.1314825E+03  0.7818608E-02  0.1225272E+00
         -4   -1    0    0    0  501 -0.00000000000E+00  0.00000000000E+00  0.61464075517E+01  0.62762429679E+01  0.12700000000E+01 0. -1.
          4   -1    0    0  502    0  0.00000000000E+00 -0.00000000000E+00 -0.12873159324E+04  0.12873165589E+04  0.12700000000E+01 0. -1.
         25    2    1    2    0    0 -0.21435617806E+02  0.34650064620E+02 -0.11038129365E+04  0.11116162315E+04  0.12501013893E+03 0.  0.
    9000005    1    3    3    0    0  0.15943891579E+02  0.87232197484E+01 -0.97200384246E+03  0.97217424982E+03  0.10000000000E+01 0.  0.
    9000005    1    3    3    0    0 -0.37379509385E+02  0.25926844871E+02 -0.13180909400E+03  0.13944198173E+03  0.10000000000E+01 0.  0.
         21    1    1    2  502  501  0.21435617806E+02 -0.34650064620E+02 -0.17735658841E+03  0.18197657031E+03  0.00000000000E+00 0. -1.
<mgrwt>
<rscale>  1 0.13148250E+03</rscale>
<asrwt>0</asrwt>
<pdfrwt beam="2">  1        4 0.19805843E+00 0.13148250E+03</pdfrwt>
<pdfrwt beam="1">  1       -4 0.95563772E-03 0.13148250E+03</pdfrwt>
<totfact> 0.78133099E+02</totfact>
</mgrwt>
</event>
<event>
 6    4  0.5642870E-004  0.1296775E+03  0.7818608E-02  0.1227935E+00
          4   -1    0    0  502    0  0.00000000000E+00  0.00000000000E+00  0.11919675754E+02  0.11987141865E+02  0.12700000000E+01 0. -1.
         -4   -1    0    0    0  501 -0.00000000000E+00 -0.00000000000E+00 -0.59054991209E+03  0.59055127768E+03  0.12700000000E+01 0. -1.
         25    2    1    2    0    0 -0.33658790120E+02 -0.76587863536E+01 -0.50223662627E+03  0.51870790709E+03  0.12499877177E+03 0.  0.
    9000005    1    3    3    0    0  0.41010845079E+02 -0.30917537939E+02 -0.20882151074E+03  0.21504698769E+03  0.10000000000E+01 0.  0.
    9000005    1    3    3    0    0 -0.74669635198E+02  0.23258751586E+02 -0.29341511554E+03  0.30366091940E+03  0.10000000000E+01 0.  0.
         21    1    1    2  502  501  0.33658790120E+02  0.76587863536E+01 -0.76393610064E+02  0.83830512460E+02  0.00000000000E+00 0. -1.
<mgrwt>
<rscale>  1 0.12967754E+03</rscale>
<asrwt>0</asrwt>
<pdfrwt beam="1">  1        4 0.18390915E-02 0.12967754E+03</pdfrwt>
<pdfrwt beam="2">  1       -4 0.90859105E-01 0.12967754E+03</pdfrwt>
<totfact> 0.20142807E+03</totfact>
</mgrwt>
</event>
<event>
 6    4  0.5642870E-004  0.1282269E+03  0.7818608E-02  0.1230111E+00
          4   -1    0    0  502    0  0.00000000000E+00  0.00000000000E+00  0.54780985490E+03  0.54781132703E+03  0.12700000000E+01 0. -1.
         -4   -1    0    0    0  501 -0.00000000000E+00 -0.00000000000E+00 -0.28336598531E+02  0.28365043915E+02  0.12700000000E+01 0. -1.
         25    2    1    2    0    0  0.26740944657E+02 -0.98817345652E+01  0.11978411589E+03  0.17547182167E+03  0.12501759468E+03 0.  0.
    9000005    1    3    3    0    0 -0.72798784836E+00 -0.34461970130E+02  0.13215303379E+03  0.13657811571E+03  0.10000000000E+01 0.  0.
    9000005    1    3    3    0    0  0.27468932505E+02  0.24580235565E+02 -0.12368917893E+02  0.38893705959E+02  0.10000000000E+01 0.  0.
         21    1    1    2  502  501 -0.26740944657E+02  0.98817345652E+01  0.39968914048E+03  0.40070454928E+03  0.00000000000E+00 0. -1.
<mgrwt>
<rscale>  1 0.12822685E+03</rscale>
<asrwt>0</asrwt>
<pdfrwt beam="1">  1        4 0.84280737E-01 0.12822685E+03</pdfrwt>
<pdfrwt beam="2">  1       -4 0.43617782E-02 0.12822685E+03</pdfrwt>
<totfact> 0.61737081E+02</totfact>
</mgrwt>
</event>
<event>
 6    4  0.5642870E-004  0.1406355E+03  0.7818608E-02  0.1212476E+00
          4   -1    0    0  502    0  0.00000000000E+00  0.00000000000E+00  0.19091911263E+02  0.19134105040E+02  0.12700000000E+01 0. -1.
         -4   -1    0    0    0  501 -0.00000000000E+00 -0.00000000000E+00 -0.56077163877E+03  0.56077307687E+03  0.12700000000E+01 0. -1.
         25    2    1    2    0    0 -0.37521319357E+02  0.52402695970E+02 -0.33236489075E+03  0.36089441325E+03  0.12499785983E+03 0.  0.
    9000005    1    3    3    0    0 -0.50013047784E+00 -0.37729730216E+02 -0.53349500932E+02  0.65352520398E+02  0.10000000000E+01 0.  0.
    9000005    1    3    3    0    0 -0.37021188880E+02  0.90132426186E+02 -0.27901538982E+03  0.29554189285E+03  0.10000000000E+01 0.  0.
         21    1    1    2  502  501  0.37521319357E+02 -0.52402695970E+02 -0.20931483675E+03  0.21901276866E+03  0.00000000000E+00 0. -1.
<mgrwt>
<rscale>  1 0.14063555E+03</rscale>
<asrwt>0</asrwt>
<pdfrwt beam="1">  1        4 0.29405738E-02 0.14063555E+03</pdfrwt>
<pdfrwt beam="2">  1       -4 0.86275903E-01 0.14063555E+03</pdfrwt>
<totfact> 0.11130090E+03</totfact>
</mgrwt>
</event>
<event>
 6    4  0.5642870E-004  0.1298180E+03  0.7818608E-02  0.1227726E+00
          4   -1    0    0  502    0  0.00000000000E+00  0.00000000000E+00  0.10318776100E+04  0.10318783916E+04  0.12700000000E+01 0. -1.
         -4   -1    0    0    0  501 -0.00000000000E+00 -0.00000000000E+00 -0.96001487725E+01  0.96837883317E+01  0.12700000000E+01 0. -1.
         25    2    1    2    0    0 -0.12519341273E+02  0.32719491225E+02  0.45371957958E+03  0.47192601195E+03  0.12500161940E+03 0.  0.
    9000005    1    3    3    0    0  0.23449778512E+02  0.42484421320E+02  0.41623769006E+03  0.41905803034E+03  0.10000000000E+01 0.  0.
    9000005    1    3    3    0    0 -0.35969119785E+02 -0.97649300948E+01  0.37481889521E+02  0.52867981614E+02  0.10000000000E+01 0.  0.
         21    1    1    2  502  501  0.12519341273E+02 -0.32719491225E+02  0.56855788166E+03  0.56963616793E+03  0.00000000000E+00 0. -1.
<mgrwt>
<rscale>  1 0.12981796E+03</rscale>
<asrwt>0</asrwt>
<pdfrwt beam="1">  1        4 0.15875686E+00 0.12981796E+03</pdfrwt>
<pdfrwt beam="2">  1       -4 0.14834403E-02 0.12981796E+03</pdfrwt>
<totfact> 0.72940519E+02</totfact>
</mgrwt>
</event>
<event>
 6    4  0.5642870E-004  0.1285650E+03  0.7818608E-02  0.1229601E+00
          4   -1    0    0  502    0  0.00000000000E+00  0.00000000000E+00  0.22238613479E+03  0.22238976111E+03  0.12700000000E+01 0.  1.
         -4   -1    0    0    0  501 -0.00000000000E+00 -0.00000000000E+00 -0.30296387597E+02  0.30322994598E+02  0.12700000000E+01 0.  1.
         25    2    1    2    0    0 -0.23056863082E+02  0.19290221794E+02  0.12555869801E+03  0.17970513900E+03  0.12500087498E+03 0.  0.
    9000005    1    3    3    0    0 -0.72370502190E+02  0.20423847987E+02  0.53166163470E+02  0.92099207879E+02  0.10000000000E+01 0.  0.
    9000005    1    3    3    0    0  0.49313639108E+02 -0.11336261936E+01  0.72392534538E+02  0.87605931119E+02  0.10000000000E+01 0.  0.
         21    1    1    2  502  501  0.23056863082E+02 -0.19290221794E+02  0.66531049188E+02  0.73007616713E+02  0.00000000000E+00 0.  1.
<mgrwt>
<rscale>  1 0.12856497E+03</rscale>
<asrwt>0</asrwt>
<pdfrwt beam="1">  1        4 0.34215578E-01 0.12856497E+03</pdfrwt>
<pdfrwt beam="2">  1       -4 0.46633082E-02 0.12856497E+03</pdfrwt>
<totfact> 0.35695522E+03</totfact>
</mgrwt>
</event>
<event>
 6    4  0.5642870E-004  0.1266729E+03  0.7818608E-02  0.1232478E+00
         -4   -1    0    0    0  501 -0.00000000000E+00  0.00000000000E+00  0.31287545402E+02  0.31313310225E+02  0.12700000000E+01 0. -1.
          4   -1    0    0  502    0  0.00000000000E+00 -0.00000000000E+00 -0.20137415878E+03  0.20137816348E+03  0.12700000000E+01 0. -1.
         25    2    1    2    0    0  0.89919249251E+01  0.18435353932E+02 -0.10526478864E+03  0.16470187191E+03  0.12500125558E+03 0.  0.
    9000005    1    3    3    0    0 -0.16289210547E+02  0.37200509245E+02 -0.12231420021E+03  0.12888359027E+03  0.10000000000E+01 0.  0.
    9000005    1    3    3    0    0  0.25281135472E+02 -0.18765155313E+02  0.17049411573E+02  0.35818281640E+02  0.10000000000E+01 0.  0.
         21    1    1    2  502  501 -0.89919249251E+01 -0.18435353932E+02 -0.64821824743E+02  0.67989601789E+02  0.00000000000E+00 0. -1.
<mgrwt>
<rscale>  1 0.12667293E+03</rscale>
<asrwt>0</asrwt>
<pdfrwt beam="2">  1        4 0.30982929E-01 0.12667293E+03</pdfrwt>
<pdfrwt beam="1">  1       -4 0.48157586E-02 0.12667293E+03</pdfrwt>
<totfact> 0.40823989E+03</totfact>
</mgrwt>
</event>
<event>
 6    4  0.5642870E-004  0.1283911E+03  0.7818608E-02  0.1229863E+00
          4   -1    0    0  502    0  0.00000000000E+00  0.00000000000E+00  0.10775154764E+03  0.10775903172E+03  0.12700000000E+01 0.  1.
         -4   -1    0    0    0  501 -0.00000000000E+00 -0.00000000000E+00 -0.66031332635E+02  0.66043544647E+02  0.12700000000E+01 0.  1.
         25    2    1    2    0    0 -0.27811440676E+02  0.93277206930E+01  0.73285537899E+01  0.12860004362E+03  0.12499512356E+03 0.  0.
    9000005    1    3    3    0    0 -0.46194843661E+02 -0.47811213052E+02  0.14765447412E+02  0.68109427479E+02  0.10000000000E+01 0.  0.
    9000005    1    3    3    0    0  0.18383402984E+02  0.57138933745E+02 -0.74368936224E+01  0.60490616144E+02  0.10000000000E+01 0.  0.
         21    1    1    2  502  501  0.27811440676E+02 -0.93277206930E+01  0.34391661211E+02  0.45202532746E+02  0.00000000000E+00 0.  1.
<mgrwt>
<rscale>  1 0.12839106E+03</rscale>
<asrwt>0</asrwt>
<pdfrwt beam="1">  1        4 0.16578676E-01 0.12839106E+03</pdfrwt>
<pdfrwt beam="2">  1       -4 0.10160182E-01 0.12839106E+03</pdfrwt>
<totfact> 0.37654840E+03</totfact>
</mgrwt>
</event>
<event>
 6    4  0.5642870E-004  0.1282132E+03  0.7818608E-02  0.1230131E+00
         -4   -1    0    0    0  501 -0.00000000000E+00  0.00000000000E+00  0.90227169417E+02  0.90236106969E+02  0.12700000000E+01 0. -1.
          4   -1    0    0  502    0  0.00000000000E+00 -0.00000000000E+00 -0.68068944502E+02  0.68080791017E+02  0.12700000000E+01 0. -1.
         25    2    1    2    0    0 -0.21460130738E+02 -0.18792358655E+02  0.19103913172E+02  0.12962859418E+03  0.12499969190E+03 0.  0.
    9000005    1    3    3    0    0 -0.56665233619E+02  0.32981351277E+02  0.11017815405E+02  0.66491431699E+02  0.10000000000E+01 0.  0.
    9000005    1    3    3    0    0  0.35205102881E+02 -0.51773709932E+02  0.80860977676E+01  0.63137162481E+02  0.10000000000E+01 0.  0.
         21    1    1    2  502  501  0.21460130738E+02  0.18792358655E+02  0.30543117432E+01  0.28688303807E+02  0.00000000000E+00 0. -1.
<mgrwt>
<rscale>  1 0.12821315E+03</rscale>
<asrwt>0</asrwt>
<pdfrwt beam="2">  1        4 0.10473744E-01 0.12821315E+03</pdfrwt>
<pdfrwt beam="1">  1       -4 0.13882702E-01 0.12821315E+03</pdfrwt>
<totfact> 0.48749873E+03</totfact>
</mgrwt>
</event>
<event>
 6    4  0.5642870E-004  0.1290733E+03  0.7818608E-02  0.1228837E+00
          4   -1    0    0  502    0  0.00000000000E+00  0.00000000000E+00  0.19223273545E+02  0.19265179620E+02  0.12700000000E+01 0.  1.
         -4   -1    0    0    0  501 -0.00000000000E+00 -0.00000000000E+00 -0.42761506784E+03  0.42761695376E+03  0.12700000000E+01 0.  1.
         25    2    1    2    0    0  0.94554207216E+01 -0.30807316647E+02 -0.38761218827E+03  0.40853780177E+03  0.12498572415E+03 0.  0.
    9000005    1    3    3    0    0 -0.14286494178E+02  0.44905568500E+02 -0.18578383057E+03  0.19166962644E+03  0.10000000000E+01 0.  0.
    9000005    1    3    3    0    0  0.23741914900E+02 -0.75712885147E+02 -0.20182835770E+03  0.21686817533E+03  0.10000000000E+01 0.  0.
         21    1    1    2  502  501 -0.94554207216E+01  0.30807316647E+02 -0.20779606027E+02  0.38344331611E+02  0.00000000000E+00 0.  1.
<mgrwt>
<rscale>  1 0.12907334E+03</rscale>
<asrwt>0</asrwt>
<pdfrwt beam="1">  1        4 0.29607956E-02 0.12907334E+03</pdfrwt>
<pdfrwt beam="2">  1       -4 0.65790295E-01 0.12907334E+03</pdfrwt>
<totfact> 0.19551782E+03</totfact>
</mgrwt>
</event>
<event>
 6    4  0.5642870E-004  0.1266945E+03  0.7818608E-02  0.1232445E+00
         -4   -1    0    0    0  501 -0.00000000000E+00  0.00000000000E+00  0.41301143284E+02  0.41320664764E+02  0.12700000000E+01 0.  1.
          4   -1    0    0  502    0  0.00000000000E+00 -0.00000000000E+00 -0.14109156569E+03  0.14109728137E+03  0.12700000000E+01 0.  1.
         25    2    1    2    0    0 -0.40813630583E+01  0.20534842642E+02 -0.66487686576E+02  0.14308081989E+03  0.12495267612E+03 0.  0.
    9000005    1    3    3    0    0 -0.16075389403E+02  0.86289913419E+01  0.35377914074E+02  0.39818016529E+02  0.10000000000E+01 0.  0.
    9000005    1    3    3    0    0  0.11994026344E+02  0.11905851300E+02 -0.10186560065E+03  0.10326280337E+03  0.10000000000E+01 0.  0.
         21    1    1    2  502  501  0.40813630583E+01 -0.20534842642E+02 -0.33302735832E+02  0.39337126237E+02  0.00000000000E+00 0.  1.
<mgrwt>
<rscale>  1 0.12669455E+03</rscale>
<asrwt>0</asrwt>
<pdfrwt beam="2">  1        4 0.21708336E-01 0.12669455E+03</pdfrwt>
<pdfrwt beam="1">  1       -4 0.63559634E-02 0.12669455E+03</pdfrwt>
<totfact> 0.50411503E+03</totfact>
</mgrwt>
</event>
<event>
 6    4  0.5642870E-004  0.1267383E+03  0.7818608E-02  0.1232377E+00
         -4   -1    0    0    0  501 -0.00000000000E+00  0.00000000000E+00  0.28399452549E+02  0.28427835041E+02  0.12700000000E+01 0.  1.
          4   -1    0    0  502    0  0.00000000000E+00 -0.00000000000E+00 -0.28329302082E+03  0.28329586751E+03  0.12700000000E+01 0.  1.
         25    2    1    2    0    0  0.20385794232E+02  0.47839790483E+01 -0.11776736697E+03  0.17300794228E+03  0.12499651318E+03 0.  0.
    9000005    1    3    3    0    0 -0.49000186197E+02  0.14353799901E+02 -0.25270930210E+02  0.56979555392E+02  0.10000000000E+01 0.  0.
    9000005    1    3    3    0    0  0.69385980430E+02 -0.95698208527E+01 -0.92496436760E+02  0.11602838689E+03  0.10000000000E+01 0.  0.
         21    1    1    2  502  501 -0.20385794232E+02 -0.47839790483E+01 -0.13712620130E+03  0.13871576026E+03  0.00000000000E+00 0.  1.
<mgrwt>
<rscale>  1 0.12673829E+03</rscale>
<asrwt>0</asrwt>
<pdfrwt beam="2">  1        4 0.43585942E-01 0.12673829E+03</pdfrwt>
<pdfrwt beam="1">  1       -4 0.43715490E-02 0.12673829E+03</pdfrwt>
<totfact> 0.24567658E+03</totfact>
</mgrwt>
</event>
<event>
 6    4  0.5642870E-004  0.1283127E+03  0.7818608E-02  0.1229981E+00
         -4   -1    0    0    0  501 -0.00000000000E+00  0.00000000000E+00  0.94501195698E+02  0.94509729067E+02  0.12700000000E+01 0.  1.
          4   -1    0    0  502    0  0.00000000000E+00 -0.00000000000E+00 -0.30114807727E+03  0.30115075518E+03  0.12700000000E+01 0.  1.
         25    2    1    2    0    0 -0.27661501757E+01 -0.28838955044E+02  0.49759000217E+02  0.13762305841E+03  0.12499924475E+03 0.  0.
    9000005    1    3    3    0    0  0.44001736138E+02 -0.18357219450E+02 -0.21038268794E+02  0.52122442795E+02  0.10000000000E+01 0.  0.
    9000005    1    3    3    0    0 -0.46767886313E+02 -0.10481735594E+02  0.70797269011E+02  0.85500615616E+02  0.10000000000E+01 0.  0.
         21    1    1    2  502  501  0.27661501757E+01  0.28838955044E+02 -0.25640588179E+03  0.25803742583E+03  0.00000000000E+00 0.  1.
<mgrwt>
<rscale>  1 0.12831270E+03</rscale>
<asrwt>0</asrwt>
<pdfrwt beam="2">  1        4 0.46331335E-01 0.12831270E+03</pdfrwt>
<pdfrwt beam="1">  1       -4 0.14539508E-01 0.12831270E+03</pdfrwt>
<totfact> 0.29721030E+02</totfact>
</mgrwt>
</event>
<event>
 6    4  0.5642870E-004  0.1288566E+03  0.7818608E-02  0.1229162E+00
          4   -1    0    0  502    0  0.00000000000E+00  0.00000000000E+00  0.44989847185E+02  0.45007768771E+02  0.12700000000E+01 0.  1.
         -4   -1    0    0    0  501 -0.00000000000E+00 -0.00000000000E+00 -0.17450550008E+03  0.17451012136E+03  0.12700000000E+01 0.  1.
         25    2    1    2    0    0 -0.18864054972E+02 -0.24980137154E+02 -0.13621520081E+03  0.18750627092E+03  0.12499664348E+03 0.  0.
    9000005    1    3    3    0    0 -0.42788367671E+02 -0.54754599512E+02 -0.13185578910E+03  0.14904985641E+03  0.10000000000E+01 0.  0.
    9000005    1    3    3    0    0  0.23924312699E+02  0.29774462358E+02 -0.43594117073E+01  0.38456414514E+02  0.10000000000E+01 0.  0.
         21    1    1    2  502  501  0.18864054972E+02  0.24980137154E+02  0.66995479150E+01  0.32011619210E+02  0.00000000000E+00 0.  1.
<mgrwt>
<rscale>  1 0.12885659E+03</rscale>
<asrwt>0</asrwt>
<pdfrwt beam="1">  1        4 0.69232491E-02 0.12885659E+03</pdfrwt>
<pdfrwt beam="2">  1       -4 0.26848734E-01 0.12885659E+03</pdfrwt>
<totfact> 0.29799151E+03</totfact>
</mgrwt>
</event>
<event>
 6    4  0.5642870E-004  0.1268067E+03  0.7818608E-02  0.1232272E+00
          4   -1    0    0  502    0  0.00000000000E+00  0.00000000000E+00  0.52701901262E+03  0.52702054283E+03  0.12700000000E+01 0. -1.
         -4   -1    0    0    0  501 -0.00000000000E+00 -0.00000000000E+00 -0.10942519137E+02  0.11015971363E+02  0.12700000000E+01 0. -1.
         25    2    1    2    0    0  0.11898612710E-01  0.21325740392E+02  0.38797947910E+03  0.40817646475E+03  0.12500065134E+03 0.  0.
    9000005    1    3    3    0    0  0.49585283276E+01  0.63726959595E+02  0.11239359026E+03  0.12930209401E+03  0.10000000000E+01 0.  0.
    9000005    1    3    3    0    0 -0.49466297149E+01 -0.42401219203E+02  0.27558588884E+03  0.27887437075E+03  0.10000000000E+01 0.  0.
         21    1    1    2  502  501 -0.11898612710E-01 -0.21325740392E+02  0.12809701439E+03  0.12986004944E+03  0.00000000000E+00 0.  1.
<mgrwt>
<rscale>  1 0.12680674E+03</rscale>
<asrwt>0</asrwt>
<pdfrwt beam="1">  1        4 0.81085595E-01 0.12680674E+03</pdfrwt>
<pdfrwt beam="2">  1       -4 0.16892328E-02 0.12680674E+03</pdfrwt>
<totfact> 0.29438199E+03</totfact>
</mgrwt>
</event>
<event>
 6    4  0.5642870E-004  0.1344059E+03  0.7818608E-02  0.1221061E+00
          4   -1    0    0  502    0  0.00000000000E+00  0.00000000000E+00  0.10222744387E+03  0.10223533235E+03  0.12700000000E+01 0.  1.
         -4   -1    0    0    0  501 -0.00000000000E+00 -0.00000000000E+00 -0.83038726144E+02  0.83048437310E+02  0.12700000000E+01 0.  1.
         25    2    1    2    0    0  0.21622143013E+02  0.44568394804E+02  0.89744126093E+01  0.13470520787E+03  0.12494436386E+03 0.  0.
    9000005    1    3    3    0    0  0.64225246374E+02 -0.42128739396E+01  0.23134072237E+02  0.68401870419E+02  0.10000000000E+01 0.  0.
    9000005    1    3    3    0    0 -0.42603103361E+02  0.48781268743E+02 -0.14159659627E+02  0.66303337450E+02  0.10000000000E+01 0.  0.
         21    1    1    2  502  501 -0.21622143013E+02 -0.44568394804E+02  0.10214305120E+02  0.50578561792E+02  0.00000000000E+00 0.  1.
<mgrwt>
<rscale>  1 0.13440593E+03</rscale>
<asrwt>0</asrwt>
<pdfrwt beam="1">  1        4 0.15728653E-01 0.13440593E+03</pdfrwt>
<pdfrwt beam="2">  1       -4 0.12776543E-01 0.13440593E+03</pdfrwt>
<totfact> 0.28273842E+03</totfact>
</mgrwt>
</event>
<event>
 6    4  0.5642870E-004  0.1886958E+03  0.7818608E-02  0.1159643E+00
         -4   -1    0    0    0  501 -0.00000000000E+00  0.00000000000E+00  0.19899845404E+03  0.19900250654E+03  0.12700000000E+01 0.  1.
          4   -1    0    0  502    0  0.00000000000E+00 -0.00000000000E+00 -0.33487309578E+03  0.33487550400E+03  0.12700000000E+01 0.  1.
         25    2    1    2    0    0  0.13226890391E+03  0.49862707769E+02  0.13248833361E+03  0.23056292832E+03  0.12499901121E+03 0.  0.
    9000005    1    3    3    0    0  0.11642464590E+03  0.28110663822E+02  0.15470529464E+03  0.19565182285E+03  0.10000000000E+01 0.  0.
    9000005    1    3    3    0    0  0.15844258008E+02  0.21752043947E+02 -0.22216961030E+02  0.34911105470E+02  0.10000000000E+01 0.  0.
         21    1    1    2  502  501 -0.13226890391E+03 -0.49862707769E+02 -0.26836297536E+03  0.30331508223E+03  0.00000000000E+00 0.  1.
<mgrwt>
<rscale>  1 0.18869580E+03</rscale>
<asrwt>0</asrwt>
<pdfrwt beam="2">  1        4 0.51519435E-01 0.18869580E+03</pdfrwt>
<pdfrwt beam="1">  1       -4 0.30615644E-01 0.18869580E+03</pdfrwt>
<totfact> 0.65774029E+01</totfact>
</mgrwt>
</event>
<event>
 6    4  0.5642870E-004  0.1286445E+03  0.7818608E-02  0.1229481E+00
         -4   -1    0    0    0  501 -0.00000000000E+00  0.00000000000E+00  0.21933062467E+03  0.21933430151E+03  0.12700000000E+01 0. -1.
          4   -1    0    0  502    0  0.00000000000E+00 -0.00000000000E+00 -0.32197791854E+02  0.32222828869E+02  0.12700000000E+01 0. -1.
         25    2    1    2    0    0 -0.27543182510E+02 -0.12904668564E+02  0.17833733856E+03  0.21989456427E+03  0.12499702275E+03 0.  0.
    9000005    1    3    3    0    0 -0.53176468825E+02  0.37085419602E+02  0.13199859420E+03  0.14706357147E+03  0.10000000000E+01 0.  0.
    9000005    1    3    3    0    0  0.25633286315E+02 -0.49990088166E+02  0.46338744358E+02  0.72830992791E+02  0.10000000000E+01 0.  0.
         21    1    1    2  502  501  0.27543182510E+02  0.12904668564E+02  0.87954942543E+01  0.31662566110E+02  0.00000000000E+00 0.  1.
<mgrwt>
<rscale>  1 0.12864452E+03</rscale>
<asrwt>0</asrwt>
<pdfrwt beam="2">  1        4 0.49557150E-02 0.12864452E+03</pdfrwt>
<pdfrwt beam="1">  1       -4 0.33745383E-01 0.12864452E+03</pdfrwt>
<totfact> 0.33257890E+03</totfact>
</mgrwt>
</event>
<event>
 6    4  0.5642870E-004  0.1281967E+03  0.7818608E-02  0.1230156E+00
          4   -1    0    0  502    0  0.00000000000E+00  0.00000000000E+00  0.30174963592E+03  0.30175230849E+03  0.12700000000E+01 0. -1.
         -4   -1    0    0    0  501 -0.00000000000E+00 -0.00000000000E+00 -0.29964852667E+02  0.29991753789E+02  0.12700000000E+01 0. -1.
         25    2    1    2    0    0  0.28168062146E+02  0.40018443790E+01  0.11443315339E+03  0.17184099819E+03  0.12499971032E+03 0.  0.
    9000005    1    3    3    0    0 -0.28684727007E+02  0.48241836718E+02  0.48705856691E+02  0.74319236065E+02  0.10000000000E+01 0.  0.
    9000005    1    3    3    0    0  0.56852789152E+02 -0.44239992339E+02  0.65727296699E+02  0.97521762125E+02  0.10000000000E+01 0.  0.
         21    1    1    2  502  501 -0.28168062146E+02 -0.40018443790E+01  0.15735162986E+03  0.15990306409E+03  0.00000000000E+00 0. -1.
<mgrwt>
<rscale>  1 0.12819665E+03</rscale>
<asrwt>0</asrwt>
<pdfrwt beam="1">  1        4 0.46425297E-01 0.12819665E+03</pdfrwt>
<pdfrwt beam="2">  1       -4 0.46122522E-02 0.12819665E+03</pdfrwt>
<totfact> 0.19931694E+03</totfact>
</mgrwt>
</event>
<event>
 6    4  0.5642870E-004  0.1438228E+03  0.7818608E-02  0.1208276E+00
          4   -1    0    0  502    0  0.00000000000E+00  0.00000000000E+00  0.25635962232E+03  0.25636276808E+03  0.12700000000E+01 0. -1.
         -4   -1    0    0    0  501 -0.00000000000E+00 -0.00000000000E+00 -0.88700270534E+02  0.88709361923E+02  0.12700000000E+01 0. -1.
         25    2    1    2    0    0 -0.67424770542E+02  0.22672056461E+02 -0.19230102785E+02  0.14510265719E+03  0.12499944977E+03 0.  0.
    9000005    1    3    3    0    0  0.16483124702E+02  0.22932321786E+02 -0.48581922849E+02  0.56203096090E+02  0.10000000000E+01 0.  0.
    9000005    1    3    3    0    0 -0.83907895244E+02 -0.26026532569E+00  0.29351820064E+02  0.88899561098E+02  0.10000000000E+01 0.  0.
         21    1    1    2  502  501  0.67424770542E+02 -0.22672056461E+02  0.18688945457E+03  0.19996947281E+03  0.00000000000E+00 0. -1.
<mgrwt>
<rscale>  1 0.14382275E+03</rscale>
<asrwt>0</asrwt>
<pdfrwt beam="1">  1        4 0.39440883E-01 0.14382275E+03</pdfrwt>
<pdfrwt beam="2">  1       -4 0.13647137E-01 0.14382275E+03</pdfrwt>
<totfact> 0.46678435E+02</totfact>
</mgrwt>
</event>
<event>
 6    4  0.5642870E-004  0.1283055E+03  0.7818608E-02  0.1229992E+00
         -4   -1    0    0    0  501 -0.00000000000E+00  0.00000000000E+00  0.25729801529E+03  0.25730114958E+03  0.12700000000E+01 0.  1.
          4   -1    0    0  502    0  0.00000000000E+00 -0.00000000000E+00 -0.29009436070E+02  0.29037222338E+02  0.12700000000E+01 0.  1.
         25    2    1    2    0    0 -0.19376080189E+02 -0.21483695834E+02  0.22248634579E+03  0.25683163399E+03  0.12500132993E+03 0.  0.
    9000005    1    3    3    0    0  0.29749045680E+02 -0.23582835628E+02  0.10763080647E+02  0.39471505674E+02  0.10000000000E+01 0.  0.
    9000005    1    3    3    0    0 -0.49125125869E+02  0.20991397948E+01  0.21172326514E+03  0.21736012831E+03  0.10000000000E+01 0.  0.
         21    1    1    2  502  501  0.19376080189E+02  0.21483695834E+02  0.58022334360E+01  0.29506737926E+02  0.00000000000E+00 0.  1.
<mgrwt>
<rscale>  1 0.12830555E+03</rscale>
<asrwt>0</asrwt>
<pdfrwt beam="2">  1        4 0.44653686E-02 0.12830555E+03</pdfrwt>
<pdfrwt beam="1">  1       -4 0.39586689E-01 0.12830555E+03</pdfrwt>
<totfact> 0.28809761E+03</totfact>
</mgrwt>
</event>
<event>
 6    4  0.5642870E-004  0.1277211E+03  0.7818608E-02  0.1230877E+00
         -4   -1    0    0    0  501 -0.00000000000E+00  0.00000000000E+00  0.36920809402E+02  0.36942645640E+02  0.12700000000E+01 0.  1.
          4   -1    0    0  502    0  0.00000000000E+00 -0.00000000000E+00 -0.17736594171E+03  0.17737048846E+03  0.12700000000E+01 0.  1.
         25    2    1    2    0    0 -0.19931125204E+02 -0.17050135029E+02 -0.86283529591E+02  0.15413476536E+03  0.12499888622E+03 0.  0.
    9000005    1    3    3    0    0  0.39188482794E+02  0.26596507187E+02 -0.10407613601E+02  0.48501853564E+02  0.10000000000E+01 0.  0.
    9000005    1    3    3    0    0 -0.59119607998E+02 -0.43646642216E+02 -0.75875915989E+02  0.10563291179E+03  0.10000000000E+01 0.  0.
         21    1    1    2  502  501  0.19931125204E+02  0.17050135029E+02 -0.54161602712E+02  0.60178368745E+02  0.00000000000E+00 0.  1.
<mgrwt>
<rscale>  1 0.12772110E+03</rscale>
<asrwt>0</asrwt>
<pdfrwt beam="2">  1        4 0.27289097E-01 0.12772110E+03</pdfrwt>
<pdfrwt beam="1">  1       -4 0.56821541E-02 0.12772110E+03</pdfrwt>
<totfact> 0.39790663E+03</totfact>
</mgrwt>
</event>
<event>
 6    4  0.5642870E-004  0.1313359E+03  0.7818608E-02  0.1225487E+00
         -4   -1    0    0    0  501 -0.00000000000E+00  0.00000000000E+00  0.63059421558E+02  0.63072208993E+02  0.12700000000E+01 0. -1.
          4   -1    0    0  502    0  0.00000000000E+00 -0.00000000000E+00 -0.18831811591E+03  0.18832239825E+03  0.12700000000E+01 0. -1.
         25    2    1    2    0    0 -0.39718715279E+02 -0.65733470623E+01 -0.12813281303E+02  0.13195945265E+03  0.12501332621E+03 0.  0.
    9000005    1    3    3    0    0 -0.65767716781E+02  0.33369218242E+02 -0.32193967977E+02  0.80475765736E+02  0.10000000000E+01 0.  0.
    9000005    1    3    3    0    0  0.26049001502E+02 -0.39942565304E+02  0.19380686674E+02  0.51483686915E+02  0.10000000000E+01 0.  0.
         21    1    1    2  502  501  0.39718715279E+02  0.65733470623E+01 -0.11244541305E+03  0.11943515459E+03  0.00000000000E+00 0. -1.
<mgrwt>
<rscale>  1 0.13133589E+03</rscale>
<asrwt>0</asrwt>
<pdfrwt beam="2">  1        4 0.28973331E-01 0.13133589E+03</pdfrwt>
<pdfrwt beam="1">  1       -4 0.97027626E-02 0.13133589E+03</pdfrwt>
<totfact> 0.14831055E+03</totfact>
</mgrwt>
</event>
<event>
 6    4  0.5642870E-004  0.1272936E+03  0.7818608E-02  0.1231528E+00
          4   -1    0    0  502    0  0.00000000000E+00  0.00000000000E+00  0.12379182559E+03  0.12379833998E+03  0.12700000000E+01 0. -1.
         -4   -1    0    0    0  501 -0.00000000000E+00 -0.00000000000E+00 -0.62429161544E+02  0.62442078049E+02  0.12700000000E+01 0. -1.
         25    2    1    2    0    0 -0.20810174870E+02  0.12122717643E+02  0.78234417250E+01  0.12753375753E+03  0.12499451751E+03 0.  0.
    9000005    1    3    3    0    0  0.28197100679E+02 -0.40878570956E+02  0.21384444460E+02  0.54077985493E+02  0.10000000000E+01 0.  0.
    9000005    1    3    3    0    0 -0.49007275548E+02  0.53001288599E+02 -0.13561002735E+02  0.73455772033E+02  0.10000000000E+01 0.  0.
         21    1    1    2  502  501  0.20810174870E+02 -0.12122717643E+02  0.53539222318E+02  0.58706660504E+02  0.00000000000E+00 0. -1.
<mgrwt>
<rscale>  1 0.12729357E+03</rscale>
<asrwt>0</asrwt>
<pdfrwt beam="1">  1        4 0.19046391E-01 0.12729357E+03</pdfrwt>
<pdfrwt beam="2">  1       -4 0.96059812E-02 0.12729357E+03</pdfrwt>
<totfact> 0.32283025E+03</totfact>
</mgrwt>
</event>
<event>
 6    4  0.5642870E-004  0.1269891E+03  0.7818608E-02  0.1231993E+00
          4   -1    0    0  502    0  0.00000000000E+00  0.00000000000E+00  0.98730241286E+02  0.98738409164E+02  0.12700000000E+01 0.  1.
         -4   -1    0    0    0  501 -0.00000000000E+00 -0.00000000000E+00 -0.59270721923E+02  0.59284326573E+02  0.12700000000E+01 0.  1.
         25    2    1    2    0    0  0.10302181863E+02  0.19897795988E+02  0.45368557517E+02  0.13485003697E+03  0.12499667685E+03 0.  0.
    9000005    1    3    3    0    0  0.27336768353E+02 -0.48940655792E+02  0.19858688559E+02  0.59479863859E+02  0.10000000000E+01 0.  0.
    9000005    1    3    3    0    0 -0.17034586490E+02  0.68838451780E+02  0.25509868958E+02  0.75370173110E+02  0.10000000000E+01 0.  0.
         21    1    1    2  502  501 -0.10302181863E+02 -0.19897795988E+02 -0.59090381546E+01  0.23172698769E+02  0.00000000000E+00 0.  1.
<mgrwt>
<rscale>  1 0.12698908E+03</rscale>
<asrwt>0</asrwt>
<pdfrwt beam="1">  1        4 0.15190943E-01 0.12698908E+03</pdfrwt>
<pdfrwt beam="2">  1       -4 0.91202474E-02 0.12698908E+03</pdfrwt>
<totfact> 0.52465949E+03</totfact>
</mgrwt>
</event>
<event>
 6    4  0.5642870E-004  0.1268572E+03  0.7818608E-02  0.1232195E+00
         -4   -1    0    0    0  501 -0.00000000000E+00  0.00000000000E+00  0.76330117972E+02  0.76340682533E+02  0.12700000000E+01 0. -1.
          4   -1    0    0  502    0  0.00000000000E+00 -0.00000000000E+00 -0.10310237060E+03  0.10311019214E+03  0.12700000000E+01 0. -1.
         25    2    1    2    0    0  0.89677527932E+01  0.19684833730E+02  0.19523572478E+02  0.12835080920E+03  0.12499938828E+03 0.  0.
    9000005    1    3    3    0    0  0.30253545393E+02  0.63743879260E+02  0.32540907570E+02  0.77707591762E+02  0.10000000000E+01 0.  0.
    9000005    1    3    3    0    0 -0.21285792600E+02 -0.44059045530E+02 -0.13017335092E+02  0.50643217439E+02  0.10000000000E+01 0.  0.
         21    1    1    2  502  501 -0.89677527932E+01 -0.19684833730E+02 -0.46295825107E+02  0.51100065475E+02  0.00000000000E+00 0. -1.
<mgrwt>
<rscale>  1 0.12685724E+03</rscale>
<asrwt>0</asrwt>
<pdfrwt beam="2">  1        4 0.15863317E-01 0.12685724E+03</pdfrwt>
<pdfrwt beam="1">  1       -4 0.11744509E-01 0.12685724E+03</pdfrwt>
<totfact> 0.31735380E+03</totfact>
</mgrwt>
</event>
<event>
 6    4  0.5642870E-004  0.1276286E+03  0.7818608E-02  0.1231017E+00
         -4   -1    0    0    0  501 -0.00000000000E+00  0.00000000000E+00  0.87661613921E+02  0.87670813018E+02  0.12700000000E+01 0. -1.
          4   -1    0    0  502    0  0.00000000000E+00 -0.00000000000E+00 -0.84687418238E+02  0.84696940369E+02  0.12700000000E+01 0. -1.
         25    2    1    2    0    0 -0.23967031720E+02  0.94481325654E+01  0.33961730296E+02  0.13206994799E+03  0.12500154487E+03 0.  0.
    9000005    1    3    3    0    0  0.24267532335E+02 -0.34066626721E+02 -0.21143858356E+02  0.46877616492E+02  0.10000000000E+01 0.  0.
    9000005    1    3    3    0    0 -0.48234564056E+02  0.43514759286E+02  0.55105588652E+02  0.85192331498E+02  0.10000000000E+01 0.  0.
         21    1    1    2  502  501  0.23967031720E+02 -0.94481325654E+01 -0.30987534613E+02  0.40297805397E+02  0.00000000000E+00 0. -1.
<mgrwt>
<rscale>  1 0.12762865E+03</rscale>
<asrwt>0</asrwt>
<pdfrwt beam="2">  1        4 0.13030274E-01 0.12762865E+03</pdfrwt>
<pdfrwt beam="1">  1       -4 0.13487842E-01 0.12762865E+03</pdfrwt>
<totfact> 0.35275105E+03</totfact>
</mgrwt>
</event>
<event>
 6    4  0.5642870E-004  0.1395150E+03  0.7818608E-02  0.1213983E+00
         -4   -1    0    0    0  501 -0.00000000000E+00  0.00000000000E+00  0.90642511233E+03  0.90642600203E+03  0.12700000000E+01 0.  1.
          4   -1    0    0  502    0  0.00000000000E+00 -0.00000000000E+00 -0.15859420612E+02  0.15910189255E+02  0.12700000000E+01 0.  1.
         25    2    1    2    0    0  0.61245996236E+02  0.93233803151E+01  0.80324596113E+03  0.81527203844E+03  0.12500570033E+03 0.  0.
    9000005    1    3    3    0    0  0.54364597974E+02  0.33123103628E+02  0.77530945441E+03  0.77791927576E+03  0.10000000000E+01 0.  0.
    9000005    1    3    3    0    0  0.68813982616E+01 -0.23799723312E+02  0.27936506719E+02  0.37352762675E+02  0.10000000000E+01 0.  0.
         21    1    1    2  502  501 -0.61245996236E+02 -0.93233803151E+01  0.87319730592E+02  0.10706415285E+03  0.00000000000E+00 0.  1.
<mgrwt>
<rscale>  1 0.13951495E+03</rscale>
<asrwt>0</asrwt>
<pdfrwt beam="2">  1        4 0.24438839E-02 0.13951495E+03</pdfrwt>
<pdfrwt beam="1">  1       -4 0.13945403E+00 0.13951495E+03</pdfrwt>
<totfact> 0.47717956E+02</totfact>
</mgrwt>
</event>
<event>
 6    4  0.5642870E-004  0.1308212E+03  0.7818608E-02  0.1226242E+00
         -4   -1    0    0    0  501 -0.00000000000E+00  0.00000000000E+00  0.28757877331E+03  0.28758157758E+03  0.12700000000E+01 0. -1.
          4   -1    0    0  502    0  0.00000000000E+00 -0.00000000000E+00 -0.33844396025E+02  0.33868215812E+02  0.12700000000E+01 0. -1.
         25    2    1    2    0    0  0.23499964660E+02  0.30607961915E+02  0.25065246836E+03  0.28273811770E+03  0.12500035055E+03 0.  0.
    9000005    1    3    3    0    0 -0.26487869406E+02  0.63277846351E+02  0.10628071330E+03  0.12650013077E+03  0.10000000000E+01 0.  0.
    9000005    1    3    3    0    0  0.49987834067E+02 -0.32669884435E+02  0.14437175506E+03  0.15623798694E+03  0.10000000000E+01 0.  0.
         21    1    1    2  502  501 -0.23499964660E+02 -0.30607961915E+02  0.30819089316E+01  0.38711675684E+02  0.00000000000E+00 0. -1.
<mgrwt>
<rscale>  1 0.13082119E+03</rscale>
<asrwt>0</asrwt>
<pdfrwt beam="2">  1        4 0.52088780E-02 0.13082119E+03</pdfrwt>
<pdfrwt beam="1">  1       -4 0.44244938E-01 0.13082119E+03</pdfrwt>
<totfact> 0.18141559E+03</totfact>
</mgrwt>
</event>
<event>
 6    4  0.5642870E-004  0.1302952E+03  0.7818608E-02  0.1227018E+00
          4   -1    0    0  502    0  0.00000000000E+00  0.00000000000E+00  0.79787749183E+02  0.79797855984E+02  0.12700000000E+01 0. -1.
         -4   -1    0    0    0  501 -0.00000000000E+00 -0.00000000000E+00 -0.91824863253E+02  0.91833645313E+02  0.12700000000E+01 0. -1.
         25    2    1    2    0    0  0.36700811435E+02 -0.19636075980E+01 -0.24975534692E+02  0.13266731206E+03  0.12500413210E+03 0.  0.
    9000005    1    3    3    0    0 -0.13489470815E+02 -0.52734553220E+02  0.61329346153E+01  0.54786054915E+02  0.10000000000E+01 0.  0.
    9000005    1    3    3    0    0  0.50190282249E+02  0.50770945622E+02 -0.31108469307E+02  0.77881257144E+02  0.10000000000E+01 0.  0.
         21    1    1    2  502  501 -0.36700811435E+02  0.19636075980E+01  0.12938420622E+02  0.38964189238E+02  0.00000000000E+00 0. -1.
<mgrwt>
<rscale>  1 0.13029520E+03</rscale>
<asrwt>0</asrwt>
<pdfrwt beam="1">  1        4 0.12276491E-01 0.13029520E+03</pdfrwt>
<pdfrwt beam="2">  1       -4 0.14128355E-01 0.13029520E+03</pdfrwt>
<totfact> 0.36242472E+03</totfact>
</mgrwt>
</event>
<event>
 6    4  0.5642870E-004  0.1327061E+03  0.7818608E-02  0.1223495E+00
          4   -1    0    0  502    0  0.00000000000E+00  0.00000000000E+00  0.82315586943E+03  0.82315684914E+03  0.12700000000E+01 0.  1.
         -4   -1    0    0    0  501 -0.00000000000E+00 -0.00000000000E+00 -0.14806921903E+02  0.14861286494E+02  0.12700000000E+01 0.  1.
         25    2    1    2    0    0  0.27370802050E+02  0.35262521648E+02  0.30406827514E+03  0.33176562672E+03  0.12497323268E+03 0.  0.
    9000005    1    3    3    0    0  0.36974160202E+02 -0.81094192264E+01  0.17397356211E+02  0.41671563517E+02  0.10000000000E+01 0.  0.
    9000005    1    3    3    0    0 -0.96033581526E+01  0.43371940875E+02  0.28667091893E+03  0.29009406320E+03  0.10000000000E+01 0.  0.
         21    1    1    2  502  501 -0.27370802050E+02 -0.35262521648E+02  0.50428067239E+03  0.50625250891E+03  0.00000000000E+00 0.  1.
<mgrwt>
<rscale>  1 0.13270612E+03</rscale>
<asrwt>0</asrwt>
<pdfrwt beam="1">  1        4 0.12664363E+00 0.13270612E+03</pdfrwt>
<pdfrwt beam="2">  1       -4 0.22822450E-02 0.13270612E+03</pdfrwt>
<totfact> 0.66632427E+02</totfact>
</mgrwt>
</event>
<event>
 6    4  0.5642870E-004  0.1412935E+03  0.7818608E-02  0.1211599E+00
         -4   -1    0    0    0  501 -0.00000000000E+00  0.00000000000E+00  0.49553152574E+02  0.49569424347E+02  0.12700000000E+01 0.  1.
          4   -1    0    0  502    0  0.00000000000E+00 -0.00000000000E+00 -0.24314274342E+03  0.24314606018E+03  0.12700000000E+01 0.  1.
         25    2    1    2    0    0 -0.10960895747E+02  0.64946547370E+02 -0.82634397624E+02  0.16368351114E+03  0.12500261157E+03 0.  0.
    9000005    1    3    3    0    0  0.86000996946E+01  0.98546126947E+02 -0.42108112301E+02  0.10751462213E+03  0.10000000000E+01 0.  0.
    9000005    1    3    3    0    0 -0.19560995442E+02 -0.33599579577E+02 -0.40526285324E+02  0.56168889009E+02  0.10000000000E+01 0.  0.
         21    1    1    2  502  501  0.10960895747E+02 -0.64946547370E+02 -0.11095519323E+03  0.12903197338E+03  0.00000000000E+00 0.  1.
<mgrwt>
<rscale>  1 0.14129348E+03</rscale>
<asrwt>0</asrwt>
<pdfrwt beam="2">  1        4 0.37408082E-01 0.14129348E+03</pdfrwt>
<pdfrwt beam="1">  1       -4 0.76250689E-02 0.14129348E+03</pdfrwt>
<totfact> 0.13800204E+03</totfact>
</mgrwt>
</event>
<event>
 6    4  0.5642870E-004  0.1336482E+03  0.7818608E-02  0.1222141E+00
         -4   -1    0    0    0  501 -0.00000000000E+00  0.00000000000E+00  0.34753681099E+02  0.34776878094E+02  0.12700000000E+01 0. -1.
          4   -1    0    0  502    0  0.00000000000E+00 -0.00000000000E+00 -0.95199364526E+03  0.95199449237E+03  0.12700000000E+01 0. -1.
         25    2    1    2    0    0  0.41129286581E+02  0.23426621951E+02 -0.96932019402E+02  0.16509896065E+03  0.12498570154E+03 0.  0.
    9000005    1    3    3    0    0  0.72974399641E+02  0.35137507904E+02 -0.10256238423E+03  0.13069028320E+03  0.10000000000E+01 0.  0.
    9000005    1    3    3    0    0 -0.31845113060E+02 -0.11710885953E+02  0.56303648250E+01  0.34408677447E+02  0.10000000000E+01 0.  0.
         21    1    1    2  502  501 -0.41129286581E+02 -0.23426621951E+02 -0.82030794476E+03  0.82167240982E+03  0.00000000000E+00 0. -1.
<mgrwt>
<rscale>  1 0.13364823E+03</rscale>
<asrwt>0</asrwt>
<pdfrwt beam="2">  1        4 0.14646239E+00 0.13364823E+03</pdfrwt>
<pdfrwt beam="1">  1       -4 0.53485704E-02 0.13364823E+03</pdfrwt>
<totfact> 0.12134208E+02</totfact>
</mgrwt>
</event>
<event>
 6    4  0.5642870E-004  0.1292747E+03  0.7818608E-02  0.1228536E+00
         -4   -1    0    0    0  501 -0.00000000000E+00  0.00000000000E+00  0.16886746195E+03  0.16887223752E+03  0.12700000000E+01 0.  1.
          4   -1    0    0  502    0  0.00000000000E+00 -0.00000000000E+00 -0.13524838828E+03  0.13525435089E+03  0.12700000000E+01 0.  1.
         25    2    1    2    0    0 -0.27222960586E+02  0.18542030092E+02  0.14130392572E+03  0.19151698037E+03  0.12500823126E+03 0.  0.
    9000005    1    3    3    0    0 -0.39693282273E+02  0.13750422654E+02 -0.70092478167E+01  0.42600003941E+02  0.10000000000E+01 0.  0.
    9000005    1    3    3    0    0  0.12470321687E+02  0.47916074381E+01  0.14831317353E+03  0.14891697643E+03  0.10000000000E+01 0.  0.
         21    1    1    2  502  501  0.27222960586E+02 -0.18542030092E+02 -0.10768485205E+03  0.11260960804E+03  0.00000000000E+00 0.  1.
<mgrwt>
<rscale>  1 0.12927472E+03</rscale>
<asrwt>0</asrwt>
<pdfrwt beam="2">  1        4 0.20808270E-01 0.12927472E+03</pdfrwt>
<pdfrwt beam="1">  1       -4 0.25980436E-01 0.12927472E+03</pdfrwt>
<totfact> 0.48116575E+02</totfact>
</mgrwt>
</event>
<event>
 6    4  0.5642870E-004  0.1383171E+03  0.7818608E-02  0.1215612E+00
         -4   -1    0    0    0  501 -0.00000000000E+00  0.00000000000E+00  0.36828960142E+03  0.36829179113E+03  0.12700000000E+01 0.  1.
          4   -1    0    0  502    0  0.00000000000E+00 -0.00000000000E+00 -0.26790045492E+02  0.26820131198E+02  0.12700000000E+01 0.  1.
         25    2    1    2    0    0 -0.59034973612E+02  0.44502240547E+01  0.21838727110E+03  0.25850457524E+03  0.12500673037E+03 0.  0.
    9000005    1    3    3    0    0 -0.74410158452E+02 -0.34753496342E+02  0.83212569222E+02  0.11691881314E+03  0.10000000000E+01 0.  0.
    9000005    1    3    3    0    0  0.15375184840E+02  0.39203720397E+02  0.13517470188E+03  0.14158576210E+03  0.10000000000E+01 0.  0.
         21    1    1    2  502  501  0.59034973612E+02 -0.44502240547E+01  0.12311228483E+03  0.13660734709E+03  0.00000000000E+00 0.  1.
<mgrwt>
<rscale>  1 0.13831708E+03</rscale>
<asrwt>0</asrwt>
<pdfrwt beam="2">  1        4 0.41240286E-02 0.13831708E+03</pdfrwt>
<pdfrwt beam="1">  1       -4 0.56662415E-01 0.13831708E+03</pdfrwt>
<totfact> 0.16123009E+03</totfact>
</mgrwt>
</event>
<event>
 6    4  0.5642870E-004  0.1294263E+03  0.7818608E-02  0.1228309E+00
          4   -1    0    0  502    0  0.00000000000E+00  0.00000000000E+00  0.84492152054E+01  0.85441288373E+01  0.12700000000E+01 0.  1.
         -4   -1    0    0    0  501 -0.00000000000E+00 -0.00000000000E+00 -0.85897211639E+03  0.85897305525E+03  0.12700000000E+01 0.  1.
         25    2    1    2    0    0  0.33280107601E+02 -0.42699104002E+01 -0.76070548374E+03  0.77163722698E+03  0.12500151750E+03 0.  0.
    9000005    1    3    3    0    0  0.11042183512E+02 -0.64302582921E+02 -0.36550477431E+03  0.37128357360E+03  0.10000000000E+01 0.  0.
    9000005    1    3    3    0    0  0.22237924089E+02  0.60032672521E+02 -0.39520070943E+03  0.40035365338E+03  0.10000000000E+01 0.  0.
         21    1    1    2  502  501 -0.33280107601E+02  0.42699104002E+01 -0.89817417447E+02  0.95879957101E+02  0.00000000000E+00 0.  1.
<mgrwt>
<rscale>  1 0.12942634E+03</rscale>
<asrwt>0</asrwt>
<pdfrwt beam="1">  1        4 0.13072532E-02 0.12942634E+03</pdfrwt>
<pdfrwt beam="2">  1       -4 0.13215686E+00 0.12942634E+03</pdfrwt>
<totfact> 0.14022079E+03</totfact>
</mgrwt>
</event>
<event>
 6    4  0.5642870E-004  0.1322602E+03  0.7818608E-02  0.1224140E+00
         -4   -1    0    0    0  501 -0.00000000000E+00  0.00000000000E+00  0.47948925139E+02  0.47965741128E+02  0.12700000000E+01 0.  1.
          4   -1    0    0  502    0  0.00000000000E+00 -0.00000000000E+00 -0.16345011278E+03  0.16345504663E+03  0.12700000000E+01 0.  1.
         25    2    1    2    0    0  0.43002098791E+02  0.41988003259E+01 -0.74213377207E+02  0.15165881226E+03  0.12500383816E+03 0.  0.
    9000005    1    3    3    0    0  0.82258525435E+02  0.26358999389E+02 -0.56462762294E+02  0.10320031677E+03  0.10000000000E+01 0.  0.
    9000005    1    3    3    0    0 -0.39256426644E+02 -0.22160199063E+02 -0.17750614913E+02  0.48458495490E+02  0.10000000000E+01 0.  0.
         21    1    1    2  502  501 -0.43002098791E+02 -0.41988003259E+01 -0.41287810433E+02  0.59761975494E+02  0.00000000000E+00 0.  1.
<mgrwt>
<rscale>  1 0.13226024E+03</rscale>
<asrwt>0</asrwt>
<pdfrwt beam="2">  1        4 0.25147844E-01 0.13226024E+03</pdfrwt>
<pdfrwt beam="1">  1       -4 0.73784308E-02 0.13226024E+03</pdfrwt>
<totfact> 0.30491968E+03</totfact>
</mgrwt>
</event>
<event>
 6    4  0.5642870E-004  0.1269006E+03  0.7818608E-02  0.1232129E+00
          4   -1    0    0  502    0  0.00000000000E+00  0.00000000000E+00  0.27328027257E+02  0.27357521338E+02  0.12700000000E+01 0. -1.
         -4   -1    0    0    0  501 -0.00000000000E+00 -0.00000000000E+00 -0.20252412707E+03  0.20252810903E+03  0.12700000000E+01 0. -1.
         25    2    1    2    0    0  0.20185667037E+02 -0.84074408061E+01 -0.15195348872E+03  0.19797379580E+03  0.12500245948E+03 0.  0.
    9000005    1    3    3    0    0  0.21261800387E+01  0.35442775948E+02  0.32639848161E+01  0.35670220147E+02  0.10000000000E+01 0.  0.
    9000005    1    3    3    0    0  0.18059486998E+02 -0.43850216754E+02 -0.15521747353E+03  0.16230357565E+03  0.10000000000E+01 0.  0.
         21    1    1    2  502  501 -0.20185667037E+02  0.84074408061E+01 -0.23242611099E+02  0.31911834566E+02  0.00000000000E+00 0.  1.
<mgrwt>
<rscale>  1 0.12690060E+03</rscale>
<asrwt>0</asrwt>
<pdfrwt beam="1">  1        4 0.42068871E-02 0.12690060E+03</pdfrwt>
<pdfrwt beam="2">  1       -4 0.31160132E-01 0.12690060E+03</pdfrwt>
<totfact> 0.50131929E+03</totfact>
</mgrwt>
</event>
<event>
 6    4  0.5642870E-004  0.1313778E+03  0.7818608E-02  0.1225426E+00
          4   -1    0    0  502    0  0.00000000000E+00  0.00000000000E+00  0.12925390694E+02  0.12987633526E+02  0.12700000000E+01 0.  1.
         -4   -1    0    0    0  501 -0.00000000000E+00 -0.00000000000E+00 -0.63969660532E+03  0.63969786600E+03  0.12700000000E+01 0.  1.
         25    2    1    2    0    0 -0.37905555990E+02  0.14072025017E+02 -0.55471238319E+03  0.57005785130E+03  0.12500109079E+03 0.  0.
    9000005    1    3    3    0    0 -0.60730215593E+02 -0.39933684842E+02 -0.31468604782E+03  0.32297239350E+03  0.10000000000E+01 0.  0.
    9000005    1    3    3    0    0  0.22824659604E+02  0.54005709859E+02 -0.24002633537E+03  0.24708545780E+03  0.10000000000E+01 0.  0.
         21    1    1    2  502  501  0.37905555990E+02 -0.14072025017E+02 -0.72058831436E+02  0.82627648223E+02  0.00000000000E+00 0.  1.
<mgrwt>
<rscale>  1 0.13137780E+03</rscale>
<asrwt>0</asrwt>
<pdfrwt beam="1">  1        4 0.19934070E-02 0.13137780E+03</pdfrwt>
<pdfrwt beam="2">  1       -4 0.98419723E-01 0.13137780E+03</pdfrwt>
<totfact> 0.14875565E+03</totfact>
</mgrwt>
</event>
<event>
 6    4  0.5642870E-004  0.1449356E+03  0.7818608E-02  0.1206838E+00
          4   -1    0    0  502    0  0.00000000000E+00  0.00000000000E+00  0.14809220560E+02  0.14863576743E+02  0.12700000000E+01 0. -1.
         -4   -1    0    0    0  501 -0.00000000000E+00 -0.00000000000E+00 -0.88419880657E+03  0.88419971864E+03  0.12700000000E+01 0. -1.
         25    2    1    2    0    0  0.16840635295E+02 -0.71395017388E+02 -0.69362810834E+03  0.70860870096E+03  0.12500193153E+03 0.  0.
    9000005    1    3    3    0    0 -0.42742047366E+01  0.21268069955E+02 -0.38652548785E+03  0.38713505703E+03  0.10000000000E+01 0.  0.
    9000005    1    3    3    0    0  0.21114840031E+02 -0.92663087342E+02 -0.30710262049E+03  0.32147364393E+03  0.10000000000E+01 0.  0.
         21    1    1    2  502  501 -0.16840635295E+02  0.71395017388E+02 -0.17576147767E+03  0.19045459443E+03  0.00000000000E+00 0. -1.
<mgrwt>
<rscale>  1 0.14493564E+03</rscale>
<asrwt>0</asrwt>
<pdfrwt beam="1">  1        4 0.22825937E-02 0.14493564E+03</pdfrwt>
<pdfrwt beam="2">  1       -4 0.13603480E+00 0.14493564E+03</pdfrwt>
<totfact> 0.56836479E+02</totfact>
</mgrwt>
</event>
<event>
 6    4  0.5642870E-004  0.1292614E+03  0.7818608E-02  0.1228556E+00
          4   -1    0    0  502    0  0.00000000000E+00  0.00000000000E+00  0.15315733082E+03  0.15316259623E+03  0.12700000000E+01 0.  1.
         -4   -1    0    0    0  501 -0.00000000000E+00 -0.00000000000E+00 -0.43895166586E+02  0.43913534925E+02  0.12700000000E+01 0.  1.
         25    2    1    2    0    0  0.21762305351E+02  0.24714418272E+02  0.74503834917E+02  0.14919563553E+03  0.12499646330E+03 0.  0.
    9000005    1    3    3    0    0 -0.50112766212E+02  0.14716353867E+02  0.12431931087E+02  0.53697423766E+02  0.10000000000E+01 0.  0.
    9000005    1    3    3    0    0  0.71875071563E+02  0.99980644056E+01  0.62071903830E+02  0.95498211759E+02  0.10000000000E+01 0.  0.
         21    1    1    2  502  501 -0.21762305351E+02 -0.24714418272E+02  0.34758329313E+02  0.47880495625E+02  0.00000000000E+00 0. -1.
<mgrwt>
<rscale>  1 0.12926143E+03</rscale>
<asrwt>0</asrwt>
<pdfrwt beam="1">  1        4 0.23564484E-01 0.12926143E+03</pdfrwt>
<pdfrwt beam="2">  1       -4 0.67549206E-02 0.12926143E+03</pdfrwt>
<totfact> 0.39502277E+03</totfact>
</mgrwt>
</event>
<event>
 6    4  0.5642870E-004  0.1298403E+03  0.7818608E-02  0.1227693E+00
         -4   -1    0    0    0  501 -0.00000000000E+00  0.00000000000E+00  0.38303256125E+03  0.38303466667E+03  0.12700000000E+01 0.  1.
          4   -1    0    0  502    0  0.00000000000E+00 -0.00000000000E+00 -0.28112609418E+02  0.28141281213E+02  0.12700000000E+01 0.  1.
         25    2    1    2    0    0 -0.14999923408E+02 -0.31726627168E+02  0.35289570045E+03  0.37602379052E+03  0.12500775605E+03 0.  0.
    9000005    1    3    3    0    0 -0.38881666628E+01  0.22591981412E+02  0.29487181444E+03  0.29576325400E+03  0.10000000000E+01 0.  0.
    9000005    1    3    3    0    0 -0.11111756745E+02 -0.54318608580E+02  0.58023886007E+02  0.80260536526E+02  0.10000000000E+01 0.  0.
         21    1    1    2  502  501  0.14999923408E+02  0.31726627168E+02  0.20242513809E+01  0.35152157364E+02  0.00000000000E+00 0.  1.
<mgrwt>
<rscale>  1 0.12984035E+03</rscale>
<asrwt>0</asrwt>
<pdfrwt beam="2">  1        4 0.43273844E-02 0.12984035E+03</pdfrwt>
<pdfrwt beam="1">  1       -4 0.58930453E-01 0.12984035E+03</pdfrwt>
<totfact> 0.13571471E+03</totfact>
</mgrwt>
</event>
<event>
 6    4  0.5642870E-004  0.1285222E+03  0.7818608E-02  0.1229665E+00
         -4   -1    0    0    0  501 -0.00000000000E+00  0.00000000000E+00  0.86365616453E+02  0.86374953576E+02  0.12700000000E+01 0.  1.
          4   -1    0    0  502    0  0.00000000000E+00 -0.00000000000E+00 -0.96987736619E+02  0.96996051232E+02  0.12700000000E+01 0.  1.
         25    2    1    2    0    0  0.11090847326E+02 -0.27777332628E+02  0.30912838028E+02  0.13218761048E+03  0.12499349466E+03 0.  0.
    9000005    1    3    3    0    0  0.53825798854E+02  0.20709062844E+02  0.34914515400E+02  0.67424812137E+02  0.10000000000E+01 0.  0.
    9000005    1    3    3    0    0 -0.42734951528E+02 -0.48486395472E+02 -0.40016773721E+01  0.64762798347E+02  0.10000000000E+01 0.  0.
         21    1    1    2  502  501 -0.11090847326E+02  0.27777332628E+02 -0.41534958194E+02  0.51183394324E+02  0.00000000000E+00 0.  1.
<mgrwt>
<rscale>  1 0.12852222E+03</rscale>
<asrwt>0</asrwt>
<pdfrwt beam="2">  1        4 0.14922548E-01 0.12852222E+03</pdfrwt>
<pdfrwt beam="1">  1       -4 0.13288376E-01 0.12852222E+03</pdfrwt>
<totfact> 0.28666267E+03</totfact>
</mgrwt>
</event>
<event>
 6    4  0.5642870E-004  0.1277232E+03  0.7818608E-02  0.1230874E+00
         -4   -1    0    0    0  501 -0.00000000000E+00  0.00000000000E+00  0.48242193579E+03  0.48242360746E+03  0.12700000000E+01 0. -1.
          4   -1    0    0  502    0  0.00000000000E+00 -0.00000000000E+00 -0.12562123895E+02  0.12626157640E+02  0.12700000000E+01 0. -1.
         25    2    1    2    0    0  0.20291528609E+02  0.16650064056E+02  0.35645086895E+03  0.37864289629E+03  0.12499700063E+03 0.  0.
    9000005    1    3    3    0    0  0.12508586630E+02  0.32404935920E+02  0.35915791916E+03  0.36083508076E+03  0.10000000000E+01 0.  0.
    9000005    1    3    3    0    0  0.77829419785E+01 -0.15754871864E+02 -0.27070502017E+01  0.17807815534E+02  0.10000000000E+01 0.  0.
         21    1    1    2  502  501 -0.20291528609E+02 -0.16650064056E+02  0.11340894294E+03  0.11640686881E+03  0.00000000000E+00 0.  1.
<mgrwt>
<rscale>  1 0.12772322E+03</rscale>
<asrwt>0</asrwt>
<pdfrwt beam="2">  1        4 0.19376883E-02 0.12772322E+03</pdfrwt>
<pdfrwt beam="1">  1       -4 0.74223828E-01 0.12772322E+03</pdfrwt>
<totfact> 0.29014910E+03</totfact>
</mgrwt>
</event>
<event>
 6    4  0.5642870E-004  0.1275811E+03  0.7818608E-02  0.1231090E+00
          4   -1    0    0  502    0  0.00000000000E+00  0.00000000000E+00  0.36144871360E+02  0.36167176080E+02  0.12700000000E+01 0.  1.
         -4   -1    0    0    0  501 -0.00000000000E+00 -0.00000000000E+00 -0.22850250602E+03  0.22850603527E+03  0.12700000000E+01 0.  1.
         25    2    1    2    0    0  0.25297857445E+02 -0.97539145445E+00 -0.20087192512E+03  0.23796317350E+03  0.12504402690E+03 0.  0.
    9000005    1    3    3    0    0  0.14470648385E+02  0.61375451945E+02 -0.83824441695E+02  0.10489939367E+03  0.10000000000E+01 0.  0.
    9000005    1    3    3    0    0  0.10827209059E+02 -0.62350843400E+02 -0.11704748342E+03  0.13306377984E+03  0.10000000000E+01 0.  0.
         21    1    1    2  502  501 -0.25297857445E+02  0.97539145445E+00  0.85142904625E+01  0.26710037848E+02  0.00000000000E+00 0. -1.
<mgrwt>
<rscale>  1 0.12758112E+03</rscale>
<asrwt>0</asrwt>
<pdfrwt beam="1">  1        4 0.55627368E-02 0.12758112E+03</pdfrwt>
<pdfrwt beam="2">  1       -4 0.35156218E-01 0.12758112E+03</pdfrwt>
<totfact> 0.25468883E+03</totfact>
</mgrwt>
</event>
<event>
 6    4  0.5642870E-004  0.1266456E+03  0.7818608E-02  0.1232520E+00
         -4   -1    0    0    0  501 -0.00000000000E+00  0.00000000000E+00  0.18157123128E+03  0.18157567273E+03  0.12700000000E+01 0. -1.
          4   -1    0    0  502    0  0.00000000000E+00 -0.00000000000E+00 -0.35557415371E+02  0.35580088362E+02  0.12700000000E+01 0. -1.
         25    2    1    2    0    0 -0.11012792775E+02  0.17073449040E+02  0.15014320369E+03  0.19642327185E+03  0.12500534326E+03 0.  0.
    9000005    1    3    3    0    0 -0.50322944894E+02  0.38591215157E+02  0.13491897105E+03  0.14908322984E+03  0.10000000000E+01 0.  0.
    9000005    1    3    3    0    0  0.39310152119E+02 -0.21517766117E+02  0.15224232646E+02  0.47340042014E+02  0.10000000000E+01 0.  0.
         21    1    1    2  502  501  0.11012792775E+02 -0.17073449040E+02 -0.41293877841E+01  0.20732489245E+02  0.00000000000E+00 0. -1.
<mgrwt>
<rscale>  1 0.12664565E+03</rscale>
<asrwt>0</asrwt>
<pdfrwt beam="2">  1        4 0.54724575E-02 0.12664565E+03</pdfrwt>
<pdfrwt beam="1">  1       -4 0.27936120E-01 0.12664565E+03</pdfrwt>
<totfact> 0.40388284E+03</totfact>
</mgrwt>
</event>
<event>
 6    4  0.5642870E-004  0.1303873E+03  0.7818608E-02  0.1226882E+00
         -4   -1    0    0    0  501 -0.00000000000E+00  0.00000000000E+00  0.40234229471E+02  0.40254268359E+02  0.12700000000E+01 0. -1.
          4   -1    0    0  502    0  0.00000000000E+00 -0.00000000000E+00 -0.20674614656E+03  0.20675004720E+03  0.12700000000E+01 0. -1.
         25    2    1    2    0    0  0.35459000192E+02 -0.11471871586E+02 -0.80423877172E+02  0.15319549322E+03  0.12494764740E+03 0.  0.
    9000005    1    3    3    0    0  0.30983004547E+02 -0.28040211542E+02  0.23436797995E+02  0.47921639521E+02  0.10000000000E+01 0.  0.
    9000005    1    3    3    0    0  0.44759956456E+01  0.16568339956E+02 -0.10386067517E+03  0.10527385370E+03  0.10000000000E+01 0.  0.
         21    1    1    2  502  501 -0.35459000192E+02  0.11471871586E+02 -0.86088039914E+02  0.93808822338E+02  0.00000000000E+00 0. -1.
<mgrwt>
<rscale>  1 0.13038734E+03</rscale>
<asrwt>0</asrwt>
<pdfrwt beam="2">  1        4 0.31808940E-01 0.13038734E+03</pdfrwt>
<pdfrwt beam="1">  1       -4 0.61917231E-02 0.13038734E+03</pdfrwt>
<totfact> 0.26066418E+03</totfact>
</mgrwt>
</event>
<event>
 6    4  0.5642870E-004  0.1544706E+03  0.7818608E-02  0.1195085E+00
         -4   -1    0    0    0  501 -0.00000000000E+00  0.00000000000E+00  0.12455942575E+04  0.12455949050E+04  0.12700000000E+01 0.  1.
          4   -1    0    0  502    0  0.00000000000E+00 -0.00000000000E+00 -0.32729781452E+02  0.32754411823E+02  0.12700000000E+01 0.  1.
         25    2    1    2    0    0  0.18629169798E+01  0.90730798420E+02  0.11660477716E+04  0.11762349101E+04  0.12500243924E+03 0.  0.
    9000005    1    3    3    0    0 -0.29916233502E+02  0.11095704107E+03  0.94991799403E+03  0.95684462760E+03  0.10000000000E+01 0.  0.
    9000005    1    3    3    0    0  0.31779150482E+02 -0.20226242646E+02  0.21612977755E+03  0.21939028247E+03  0.10000000000E+01 0.  0.
         21    1    1    2  502  501 -0.18629169798E+01 -0.90730798420E+02  0.46816704504E+02  0.10211440673E+03  0.00000000000E+00 0.  1.
<mgrwt>
<rscale>  1 0.15447057E+03</rscale>
<asrwt>0</asrwt>
<pdfrwt beam="2">  1        4 0.50372959E-02 0.15447057E+03</pdfrwt>
<pdfrwt beam="1">  1       -4 0.19163181E+00 0.15447057E+03</pdfrwt>
<totfact> 0.66794882E+01</totfact>
</mgrwt>
</event>
<event>
 6    4  0.5642870E-004  0.1284171E+03  0.7818608E-02  0.1229824E+00
         -4   -1    0    0    0  501 -0.00000000000E+00  0.00000000000E+00  0.24069538049E+02  0.24103019767E+02  0.12700000000E+01 0.  1.
          4   -1    0    0  502    0  0.00000000000E+00 -0.00000000000E+00 -0.26061550304E+03  0.26061859742E+03  0.12700000000E+01 0.  1.
         25    2    1    2    0    0 -0.28206051197E+02 -0.84540685451E+01 -0.20157242662E+03  0.23900290128E+03  0.12499556410E+03 0.  0.
    9000005    1    3    3    0    0  0.42579633512E+02  0.59180380839E+01 -0.28846525428E+02  0.51780019255E+02  0.10000000000E+01 0.  0.
    9000005    1    3    3    0    0 -0.70785684709E+02 -0.14372106629E+02 -0.17272590120E+03  0.18722288202E+03  0.10000000000E+01 0.  0.
         21    1    1    2  502  501  0.28206051197E+02  0.84540685451E+01 -0.34973538363E+02  0.45718715913E+02  0.00000000000E+00 0.  1.
<mgrwt>
<rscale>  1 0.12841707E+03</rscale>
<asrwt>0</asrwt>
<pdfrwt beam="2">  1        4 0.40097504E-01 0.12841707E+03</pdfrwt>
<pdfrwt beam="1">  1       -4 0.37058196E-02 0.12841707E+03</pdfrwt>
<totfact> 0.37780559E+03</totfact>
</mgrwt>
</event>
<event>
 6    4  0.5642870E-004  0.1273589E+03  0.7818608E-02  0.1231428E+00
          4   -1    0    0  502    0  0.00000000000E+00  0.00000000000E+00  0.16687677061E+03  0.16688160315E+03  0.12700000000E+01 0.  1.
         -4   -1    0    0    0  501 -0.00000000000E+00 -0.00000000000E+00 -0.48153030727E+02  0.48169775463E+02  0.12700000000E+01 0.  1.
         25    2    1    2    0    0  0.21011657226E+02 -0.12494037134E+02  0.41343161101E+02  0.13390124198E+03  0.12499077938E+03 0.  0.
    9000005    1    3    3    0    0 -0.20102603784E+02  0.56145020415E+01 -0.37627647327E+02  0.43040413049E+02  0.10000000000E+01 0.  0.
    9000005    1    3    3    0    0  0.41114261010E+02 -0.18108539176E+02  0.78970808428E+02  0.90860828927E+02  0.10000000000E+01 0.  0.
         21    1    1    2  502  501 -0.21011657226E+02  0.12494037134E+02  0.77380578781E+02  0.81150136635E+02  0.00000000000E+00 0.  1.
<mgrwt>
<rscale>  1 0.12735889E+03</rscale>
<asrwt>0</asrwt>
<pdfrwt beam="1">  1        4 0.25675009E-01 0.12735889E+03</pdfrwt>
<pdfrwt beam="2">  1       -4 0.74098184E-02 0.12735889E+03</pdfrwt>
<totfact> 0.28877272E+03</totfact>
</mgrwt>
</event>
<event>
 6    4  0.5642870E-004  0.1292952E+03  0.7818608E-02  0.1228505E+00
         -4   -1    0    0    0  501 -0.00000000000E+00  0.00000000000E+00  0.38490067083E+03  0.38490276604E+03  0.12700000000E+01 0.  1.
          4   -1    0    0  502    0  0.00000000000E+00 -0.00000000000E+00 -0.23444928014E+02  0.23479300449E+02  0.12700000000E+01 0.  1.
         25    2    1    2    0    0  0.33041056104E+02 -0.25634546934E+00  0.35047391302E+03  0.37356285215E+03  0.12500185477E+03 0.  0.
    9000005    1    3    3    0    0  0.77667577328E+02 -0.19740189541E+02  0.23275641541E+03  0.24616757822E+03  0.10000000000E+01 0.  0.
    9000005    1    3    3    0    0 -0.44626521224E+02  0.19483844072E+02  0.11771749761E+03  0.12739527393E+03  0.10000000000E+01 0.  0.
         21    1    1    2  502  501 -0.33041056104E+02  0.25634546934E+00  0.10981829791E+02  0.34819214337E+02  0.00000000000E+00 0.  1.
<mgrwt>
<rscale>  1 0.12929517E+03</rscale>
<asrwt>0</asrwt>
<pdfrwt beam="2">  1        4 0.36097174E-02 0.12929517E+03</pdfrwt>
<pdfrwt beam="1">  1       -4 0.59218290E-01 0.12929517E+03</pdfrwt>
<totfact> 0.17892466E+03</totfact>
</mgrwt>
</event>
<event>
 6    4  0.5642870E-004  0.1307219E+03  0.7818608E-02  0.1226388E+00
          4   -1    0    0  502    0  0.00000000000E+00  0.00000000000E+00  0.10294070348E+02  0.10372115712E+02  0.12700000000E+01 0.  1.
         -4   -1    0    0    0  501 -0.00000000000E+00 -0.00000000000E+00 -0.81326101451E+03  0.81326200614E+03  0.12700000000E+01 0.  1.
         25    2    1    2    0    0 -0.24755742166E+02  0.29145352489E+02 -0.45001841692E+03  0.46862009223E+03  0.12500366768E+03 0.  0.
    9000005    1    3    3    0    0 -0.29576183575E+02 -0.18854666958E+02 -0.30966341027E+02  0.46799181377E+02  0.10000000000E+01 0.  0.
    9000005    1    3    3    0    0  0.48204414091E+01  0.48000019448E+02 -0.41905207589E+03  0.42182091085E+03  0.10000000000E+01 0.  0.
         21    1    1    2  502  501  0.24755742166E+02 -0.29145352489E+02 -0.35294852725E+03  0.35501402962E+03  0.00000000000E+00 0.  1.
<mgrwt>
<rscale>  1 0.13072190E+03</rscale>
<asrwt>0</asrwt>
<pdfrwt beam="1">  1        4 0.15897835E-02 0.13072190E+03</pdfrwt>
<pdfrwt beam="2">  1       -4 0.12512311E+00 0.13072190E+03</pdfrwt>
<totfact> 0.11923169E+03</totfact>
</mgrwt>
</event>
<event>
 6    4  0.5642870E-004  0.2584799E+03  0.7818608E-02  0.1108060E+00
         -4   -1    0    0    0  501 -0.00000000000E+00  0.00000000000E+00  0.24412066692E+03  0.24412397039E+03  0.12700000000E+01 0. -1.
          4   -1    0    0  502    0  0.00000000000E+00 -0.00000000000E+00 -0.24730037589E+03  0.24730363688E+03  0.12700000000E+01 0. -1.
         25    2    1    2    0    0 -0.19768255115E+03  0.11004895706E+03 -0.42003750139E+02  0.26187048987E+03  0.12499069750E+03 0.  0.
    9000005    1    3    3    0    0 -0.92331419401E+02  0.56876897551E+02  0.42756584621E+02  0.11657271556E+03  0.10000000000E+01 0.  0.
    9000005    1    3    3    0    0 -0.10535113175E+03  0.53172059509E+02 -0.84760334760E+02  0.14529777432E+03  0.10000000000E+01 0.  0.
         21    1    1    2  502  501  0.19768255115E+03 -0.11004895706E+03  0.38824041171E+02  0.22955711740E+03  0.00000000000E+00 0. -1.
<mgrwt>
<rscale>  1 0.25847986E+03</rscale>
<asrwt>0</asrwt>
<pdfrwt beam="2">  1        4 0.38046717E-01 0.25847986E+03</pdfrwt>
<pdfrwt beam="1">  1       -4 0.37557530E-01 0.25847986E+03</pdfrwt>
<totfact> 0.84812139E+01</totfact>
</mgrwt>
</event>
<event>
 6    4  0.5642870E-004  0.1597170E+03  0.7818608E-02  0.1189017E+00
         -4   -1    0    0    0  501 -0.00000000000E+00  0.00000000000E+00  0.41828305850E+03  0.41828498650E+03  0.12700000000E+01 0.  1.
          4   -1    0    0  502    0  0.00000000000E+00 -0.00000000000E+00 -0.12429178409E+03  0.12429827228E+03  0.12700000000E+01 0.  1.
         25    2    1    2    0    0  0.98719630812E+02 -0.11796661000E+02  0.37931441752E+03  0.41156888755E+03  0.12499918057E+03 0.  0.
    9000005    1    3    3    0    0  0.99853179019E+02  0.39880626876E+02  0.24065121823E+03  0.26358135480E+03  0.10000000000E+01 0.  0.
    9000005    1    3    3    0    0 -0.11335482068E+01 -0.51677287877E+02  0.13866319929E+03  0.14798753276E+03  0.10000000000E+01 0.  0.
         21    1    1    2  502  501 -0.98719630812E+02  0.11796661000E+02 -0.85323143106E+02  0.13101437123E+03  0.00000000000E+00 0.  1.
<mgrwt>
<rscale>  1 0.15971701E+03</rscale>
<asrwt>0</asrwt>
<pdfrwt beam="2">  1        4 0.19122460E-01 0.15971701E+03</pdfrwt>
<pdfrwt beam="1">  1       -4 0.64351887E-01 0.15971701E+03</pdfrwt>
<totfact> 0.96283953E+01</totfact>
</mgrwt>
</event>
<event>
 6    4  0.5642870E-004  0.1270216E+03  0.7818608E-02  0.1231943E+00
          4   -1    0    0  502    0  0.00000000000E+00  0.00000000000E+00  0.12954786223E+03  0.12955408719E+03  0.12700000000E+01 0.  1.
         -4   -1    0    0    0  501 -0.00000000000E+00 -0.00000000000E+00 -0.45419584927E+02  0.45437337014E+02  0.12700000000E+01 0.  1.
         25    2    1    2    0    0  0.13058917106E+02 -0.18421858904E+02  0.84228241910E+02  0.15241023304E+03  0.12499832879E+03 0.  0.
    9000005    1    3    3    0    0 -0.53294978716E+02  0.30198459404E+01  0.18294940116E+02  0.56437390618E+02  0.10000000000E+01 0.  0.
    9000005    1    3    3    0    0  0.66353895823E+02 -0.21441704844E+02  0.65933301794E+02  0.95972842424E+02  0.10000000000E+01 0.  0.
         21    1    1    2  502  501 -0.13058917106E+02  0.18421858904E+02 -0.99964607788E-01  0.22581191164E+02  0.00000000000E+00 0.  1.
<mgrwt>
<rscale>  1 0.12702158E+03</rscale>
<asrwt>0</asrwt>
<pdfrwt beam="1">  1        4 0.19932285E-01 0.12702158E+03</pdfrwt>
<pdfrwt beam="2">  1       -4 0.69894728E-02 0.12702158E+03</pdfrwt>
<totfact> 0.50382055E+03</totfact>
</mgrwt>
</event>
<event>
 6    4  0.5642870E-004  0.1284135E+03  0.7818608E-02  0.1229829E+00
          4   -1    0    0  502    0  0.00000000000E+00  0.00000000000E+00  0.12442176338E+03  0.12442824479E+03  0.12700000000E+01 0. -1.
         -4   -1    0    0    0  501 -0.00000000000E+00 -0.00000000000E+00 -0.59955964673E+02  0.59969413870E+02  0.12700000000E+01 0. -1.
         25    2    1    2    0    0 -0.38325026372E+01 -0.29157151732E+02  0.18371112152E+02  0.12972090216E+03  0.12500074848E+03 0.  0.
    9000005    1    3    3    0    0 -0.59768850557E+02 -0.65308122759E+01  0.31614857589E+02  0.67937222686E+02  0.10000000000E+01 0.  0.
    9000005    1    3    3    0    0  0.55936347920E+02 -0.22626339456E+02 -0.13243745436E+02  0.61783679471E+02  0.10000000000E+01 0.  0.
         21    1    1    2  502  501  0.38325026372E+01  0.29157151732E+02  0.46094686552E+02  0.54676756505E+02  0.00000000000E+00 0. -1.
<mgrwt>
<rscale>  1 0.12841345E+03</rscale>
<asrwt>0</asrwt>
<pdfrwt beam="1">  1        4 0.19143343E-01 0.12841345E+03</pdfrwt>
<pdfrwt beam="2">  1       -4 0.92255278E-02 0.12841345E+03</pdfrwt>
<totfact> 0.34304759E+03</totfact>
</mgrwt>
</event>
<event>
 6    4  0.5642870E-004  0.1294656E+03  0.7818608E-02  0.1228251E+00
          4   -1    0    0  502    0  0.00000000000E+00  0.00000000000E+00  0.15193531028E+04  0.15193536335E+04  0.12700000000E+01 0.  1.
         -4   -1    0    0    0  501 -0.00000000000E+00 -0.00000000000E+00 -0.13660142202E+02  0.13719051898E+02  0.12700000000E+01 0.  1.
         25    2    1    2    0    0  0.10923025033E+02  0.31864751268E+02  0.29797752778E+03  0.32488758314E+03  0.12500663890E+03 0.  0.
    9000005    1    3    3    0    0 -0.39210636827E+01  0.79399297349E+02  0.17539010156E+03  0.19256767871E+03  0.10000000000E+01 0.  0.
    9000005    1    3    3    0    0  0.14844088716E+02 -0.47534546081E+02  0.12258742622E+03  0.13231990443E+03  0.10000000000E+01 0.  0.
         21    1    1    2  502  501 -0.10923025033E+02 -0.31864751268E+02  0.12077154328E+04  0.12081851023E+04  0.00000000000E+00 0.  1.
<mgrwt>
<rscale>  1 0.12946557E+03</rscale>
<asrwt>0</asrwt>
<pdfrwt beam="1">  1        4 0.23375117E+00 0.12946557E+03</pdfrwt>
<pdfrwt beam="2">  1       -4 0.21061330E-02 0.12946557E+03</pdfrwt>
<totfact> 0.14294534E+02</totfact>
</mgrwt>
</event>
<event>
 6    4  0.5642870E-004  0.1389654E+03  0.7818608E-02  0.1214728E+00
          4   -1    0    0  502    0  0.00000000000E+00  0.00000000000E+00  0.52916914036E+03  0.52917066436E+03  0.12700000000E+01 0.  1.
         -4   -1    0    0    0  501 -0.00000000000E+00 -0.00000000000E+00 -0.32305646778E+02  0.32330600269E+02  0.12700000000E+01 0.  1.
         25    2    1    2    0    0  0.46578064132E+02 -0.38961859334E+02  0.13215399957E+03  0.19177087966E+03  0.12499539248E+03 0.  0.
    9000005    1    3    3    0    0  0.26516256854E+02  0.44917406522E+02  0.58158492563E+02  0.78128711390E+02  0.10000000000E+01 0.  0.
    9000005    1    3    3    0    0  0.20061807278E+02 -0.83879265856E+02  0.73995507008E+02  0.11364216827E+03  0.10000000000E+01 0.  0.
         21    1    1    2  502  501 -0.46578064132E+02  0.38961859334E+02  0.36470949402E+03  0.36973038496E+03  0.00000000000E+00 0.  1.
<mgrwt>
<rscale>  1 0.13896543E+03</rscale>
<asrwt>0</asrwt>
<pdfrwt beam="1">  1        4 0.81412663E-01 0.13896543E+03</pdfrwt>
<pdfrwt beam="2">  1       -4 0.49721369E-02 0.13896543E+03</pdfrwt>
<totfact> 0.54935629E+02</totfact>
</mgrwt>
</event>
<event>
 6    4  0.5642870E-004  0.1388492E+03  0.7818608E-02  0.1214886E+00
         -4   -1    0    0    0  501 -0.00000000000E+00  0.00000000000E+00  0.57760691576E+01  0.59140404896E+01  0.12700000000E+01 0. -1.
          4   -1    0    0  502    0  0.00000000000E+00 -0.00000000000E+00 -0.22422133009E+04  0.22422136605E+04  0.12700000000E+01 0. -1.
         25    2    1    2    0    0 -0.17025130487E+02 -0.58001113811E+02 -0.93154124806E+03  0.94183236213E+03  0.12500046898E+03 0.  0.
    9000005    1    3    3    0    0  0.38036707399E+02 -0.62480031263E+02 -0.34363273457E+03  0.35133317760E+03  0.10000000000E+01 0.  0.
    9000005    1    3    3    0    0 -0.55061837886E+02  0.44789174517E+01 -0.58790851350E+03  0.59049918453E+03  0.10000000000E+01 0.  0.
         21    1    1    2  502  501  0.17025130487E+02  0.58001113811E+02 -0.13048959837E+04  0.13062953389E+04  0.00000000000E+00 0. -1.
<mgrwt>
<rscale>  1 0.13884920E+03</rscale>
<asrwt>0</asrwt>
<pdfrwt beam="2">  1        4 0.34496584E+00 0.13884920E+03</pdfrwt>
<pdfrwt beam="1">  1       -4 0.89926866E-03 0.13884920E+03</pdfrwt>
<totfact> 0.11860288E+02</totfact>
</mgrwt>
</event>
<event>
 6    4  0.5642870E-004  0.1313890E+03  0.7818608E-02  0.1225409E+00
         -4   -1    0    0    0  501 -0.00000000000E+00  0.00000000000E+00  0.66720892577E+02  0.66732978401E+02  0.12700000000E+01 0.  1.
          4   -1    0    0  502    0  0.00000000000E+00 -0.00000000000E+00 -0.11124340117E+03  0.11125065035E+03  0.12700000000E+01 0.  1.
         25    2    1    2    0    0 -0.28464973396E+02  0.28761911015E+02 -0.28395596729E+02  0.13442241296E+03  0.12500229180E+03 0.  0.
    9000005    1    3    3    0    0 -0.54906673530E+02 -0.33088336617E+02 -0.14271563728E+02  0.65683014163E+02  0.10000000000E+01 0.  0.
    9000005    1    3    3    0    0  0.26441700135E+02  0.61850247632E+02 -0.14124033001E+02  0.68739398793E+02  0.10000000000E+01 0.  0.
         21    1    1    2  502  501  0.28464973396E+02 -0.28761911015E+02 -0.16126911866E+02  0.43561215800E+02  0.00000000000E+00 0.  1.
<mgrwt>
<rscale>  1 0.13138902E+03</rscale>
<asrwt>0</asrwt>
<pdfrwt beam="2">  1        4 0.17115857E-01 0.13138902E+03</pdfrwt>
<pdfrwt beam="1">  1       -4 0.10266240E-01 0.13138902E+03</pdfrwt>
<totfact> 0.35175058E+03</totfact>
</mgrwt>
</event>
<event>
 6    4  0.5642870E-004  0.1367499E+03  0.7818608E-02  0.1217770E+00
          4   -1    0    0  502    0  0.00000000000E+00  0.00000000000E+00  0.51718656977E+02  0.51734247646E+02  0.12700000000E+01 0. -1.
         -4   -1    0    0    0  501 -0.00000000000E+00 -0.00000000000E+00 -0.18144779671E+03  0.18145224118E+03  0.12700000000E+01 0. -1.
         25    2    1    2    0    0  0.50598550522E+02 -0.22692156942E+02 -0.78436148811E+02  0.15764763645E+03  0.12500160213E+03 0.  0.
    9000005    1    3    3    0    0  0.34925356180E+02 -0.61496231913E+02 -0.89763353291E+02  0.11428047356E+03  0.10000000000E+01 0.  0.
    9000005    1    3    3    0    0  0.15673194342E+02  0.38804074971E+02  0.11327204480E+02  0.43367162884E+02  0.10000000000E+01 0.  0.
         21    1    1    2  502  501 -0.50598550522E+02  0.22692156942E+02 -0.51292990917E+02  0.75538852380E+02  0.00000000000E+00 0.  1.
<mgrwt>
<rscale>  1 0.13674995E+03</rscale>
<asrwt>0</asrwt>
<pdfrwt beam="1">  1        4 0.79582577E-02 0.13674995E+03</pdfrwt>
<pdfrwt beam="2">  1       -4 0.27916586E-01 0.13674995E+03</pdfrwt>
<totfact> 0.22329713E+03</totfact>
</mgrwt>
</event>
<event>
 6    4  0.5642870E-004  0.1270745E+03  0.7818608E-02  0.1231862E+00
         -4   -1    0    0    0  501 -0.00000000000E+00  0.00000000000E+00  0.42226820961E+02  0.42245914695E+02  0.12700000000E+01 0.  1.
          4   -1    0    0  502    0  0.00000000000E+00 -0.00000000000E+00 -0.25415715546E+03  0.25416032848E+03  0.12700000000E+01 0.  1.
         25    2    1    2    0    0 -0.12541477867E+02 -0.19116824085E+02 -0.56099013215E+02  0.13890658500E+03  0.12500079377E+03 0.  0.
    9000005    1    3    3    0    0 -0.61253541392E+02 -0.50706417997E+01 -0.62659091457E+02  0.87777385946E+02  0.10000000000E+01 0.  0.
    9000005    1    3    3    0    0  0.48712063525E+02 -0.14046182286E+02  0.65600782422E+01  0.51129199057E+02  0.10000000000E+01 0.  0.
         21    1    1    2  502  501  0.12541477867E+02  0.19116824085E+02 -0.15583132129E+03  0.15749965817E+03  0.00000000000E+00 0.  1.
<mgrwt>
<rscale>  1 0.12707455E+03</rscale>
<asrwt>0</asrwt>
<pdfrwt beam="2">  1        4 0.39102813E-01 0.12707455E+03</pdfrwt>
<pdfrwt beam="1">  1       -4 0.64981470E-02 0.12707455E+03</pdfrwt>
<totfact> 0.16078367E+03</totfact>
</mgrwt>
</event>
<event>
 6    4  0.5642870E-004  0.1325785E+03  0.7818608E-02  0.1223679E+00
          4   -1    0    0  502    0  0.00000000000E+00  0.00000000000E+00  0.19927005128E+04  0.19927009175E+04  0.12700000000E+01 0.  1.
         -4   -1    0    0    0  501 -0.00000000000E+00 -0.00000000000E+00 -0.38420587552E+01  0.40465189334E+01  0.12700000000E+01 0.  1.
         25    2    1    2    0    0  0.11262585737E+02  0.42721364102E+02  0.15573611238E+04  0.15629941577E+04  0.12500042542E+03 0.  0.
    9000005    1    3    3    0    0  0.22456097555E+02 -0.20917354195E+02  0.11039402687E+03  0.11458469877E+03  0.10000000000E+01 0.  0.
    9000005    1    3    3    0    0 -0.11193511817E+02  0.63638718297E+02  0.14469670969E+04  0.14484094590E+04  0.10000000000E+01 0.  0.
         21    1    1    2  502  501 -0.11262585737E+02 -0.42721364102E+02  0.43149733025E+03  0.43375327873E+03  0.00000000000E+00 0.  1.
<mgrwt>
<rscale>  1 0.13257853E+03</rscale>
<asrwt>0</asrwt>
<pdfrwt beam="1">  1        4 0.30658456E+00 0.13257853E+03</pdfrwt>
<pdfrwt beam="2">  1       -4 0.60684580E-03 0.13257853E+03</pdfrwt>
<totfact> 0.35794786E+02</totfact>
</mgrwt>
</event>
<event>
 6    4  0.5642870E-004  0.1270177E+03  0.7818608E-02  0.1231949E+00
         -4   -1    0    0    0  501 -0.00000000000E+00  0.00000000000E+00  0.69617678538E+01  0.70766596393E+01  0.12700000000E+01 0.  1.
          4   -1    0    0  502    0  0.00000000000E+00 -0.00000000000E+00 -0.81417429870E+03  0.81417528921E+03  0.12700000000E+01 0.  1.
         25    2    1    2    0    0 -0.10305885142E+02 -0.20328091488E+02 -0.63892972536E+03  0.65143279447E+03  0.12495618909E+03 0.  0.
    9000005    1    3    3    0    0  0.52575614252E+02 -0.95442659886E+01 -0.42023493971E+03  0.42361975022E+03  0.10000000000E+01 0.  0.
    9000005    1    3    3    0    0 -0.62881499394E+02 -0.10783825500E+02 -0.21869478565E+03  0.22781304425E+03  0.10000000000E+01 0.  0.
         21    1    1    2  502  501  0.10305885142E+02  0.20328091488E+02 -0.16828280548E+03  0.16981915438E+03  0.00000000000E+00 0.  1.
<mgrwt>
<rscale>  1 0.12701768E+03</rscale>
<asrwt>0</asrwt>
<pdfrwt beam="2">  1        4 0.12526642E+00 0.12701768E+03</pdfrwt>
<pdfrwt beam="1">  1       -4 0.10799559E-02 0.12701768E+03</pdfrwt>
<totfact> 0.21237266E+03</totfact>
</mgrwt>
</event>
<event>
 6    4  0.5642870E-004  0.1267021E+03  0.7818608E-02  0.1232433E+00
         -4   -1    0    0    0  501 -0.00000000000E+00  0.00000000000E+00  0.63034006957E+03  0.63034134896E+03  0.12700000000E+01 0.  1.
          4   -1    0    0  502    0  0.00000000000E+00 -0.00000000000E+00 -0.93372627950E+01  0.94232359889E+01  0.12700000000E+01 0.  1.
         25    2    1    2    0    0  0.22928217695E+01  0.20490755606E+02  0.58216267897E+03  0.59579091527E+03  0.12501320664E+03 0.  0.
    9000005    1    3    3    0    0  0.61673341951E+02  0.17959814541E+02  0.36641404469E+03  0.37200323680E+03  0.10000000000E+01 0.  0.
    9000005    1    3    3    0    0 -0.59380520182E+02  0.25309410648E+01  0.21574863429E+03  0.22378767847E+03  0.10000000000E+01 0.  0.
         21    1    1    2  502  501 -0.22928217695E+01 -0.20490755606E+02  0.38840127807E+02  0.43973669679E+02  0.00000000000E+00 0. -1.
<mgrwt>
<rscale>  1 0.12670213E+03</rscale>
<asrwt>0</asrwt>
<pdfrwt beam="2">  1        4 0.14432133E-02 0.12670213E+03</pdfrwt>
<pdfrwt beam="1">  1       -4 0.96982136E-01 0.12670213E+03</pdfrwt>
<totfact> 0.25009455E+03</totfact>
</mgrwt>
</event>
<event>
 6    4  0.5642870E-004  0.1286539E+03  0.7818608E-02  0.1229467E+00
         -4   -1    0    0    0  501 -0.00000000000E+00  0.00000000000E+00  0.23659704865E+02  0.23693765727E+02  0.12700000000E+01 0. -1.
          4   -1    0    0  502    0  0.00000000000E+00 -0.00000000000E+00 -0.26908484593E+03  0.26908784292E+03  0.12700000000E+01 0. -1.
         25    2    1    2    0    0  0.55576240711E+01  0.29929836826E+02 -0.18834487871E+03  0.22809127963E+03  0.12500062476E+03 0.  0.
    9000005    1    3    3    0    0  0.23855002007E+02  0.13244995858E+01 -0.19239851247E+03  0.19387883592E+03  0.10000000000E+01 0.  0.
    9000005    1    3    3    0    0 -0.18297377936E+02  0.28605337241E+02  0.40536337560E+01  0.34212443710E+02  0.10000000000E+01 0.  0.
         21    1    1    2  502  501 -0.55576240711E+01 -0.29929836826E+02 -0.57080262350E+02  0.64690329013E+02  0.00000000000E+00 0. -1.
<mgrwt>
<rscale>  1 0.12865395E+03</rscale>
<asrwt>0</asrwt>
<pdfrwt beam="2">  1        4 0.41400517E-01 0.12865395E+03</pdfrwt>
<pdfrwt beam="1">  1       -4 0.36428054E-02 0.12865395E+03</pdfrwt>
<totfact> 0.36463398E+03</totfact>
</mgrwt>
</event>
<event>
 6    4  0.5642870E-004  0.1268283E+03  0.7818608E-02  0.1232239E+00
          4   -1    0    0  502    0  0.00000000000E+00  0.00000000000E+00  0.27666243564E+02  0.27695377465E+02  0.12700000000E+01 0.  1.
         -4   -1    0    0    0  501 -0.00000000000E+00 -0.00000000000E+00 -0.22552243802E+03  0.22552601391E+03  0.12700000000E+01 0.  1.
         25    2    1    2    0    0 -0.13509796556E+02 -0.16467682467E+02 -0.19368712258E+03  0.23151700636E+03  0.12502689155E+03 0.  0.
    9000005    1    3    3    0    0 -0.20391752543E+02  0.28427011946E+02 -0.18099425421E+03  0.18434706029E+03  0.10000000000E+01 0.  0.
    9000005    1    3    3    0    0  0.68819559874E+01 -0.44894694413E+02 -0.12692868374E+02  0.47169946070E+02  0.10000000000E+01 0.  0.
         21    1    1    2  502  501  0.13509796556E+02  0.16467682467E+02 -0.41690718754E+01  0.21704385021E+02  0.00000000000E+00 0.  1.
<mgrwt>
<rscale>  1 0.12682832E+03</rscale>
<asrwt>0</asrwt>
<pdfrwt beam="1">  1        4 0.42588615E-02 0.12682832E+03</pdfrwt>
<pdfrwt beam="2">  1       -4 0.34698275E-01 0.12682832E+03</pdfrwt>
<totfact> 0.40024276E+03</totfact>
</mgrwt>
</event>
<event>
 6    4  0.5642870E-004  0.1478096E+03  0.7818608E-02  0.1203191E+00
         -4   -1    0    0    0  501 -0.00000000000E+00  0.00000000000E+00  0.20807347310E+02  0.20846069223E+02  0.12700000000E+01 0.  1.
          4   -1    0    0  502    0  0.00000000000E+00 -0.00000000000E+00 -0.63592361367E+03  0.63592488182E+03  0.12700000000E+01 0.  1.
         25    2    1    2    0    0 -0.34791399730E+01 -0.78806390878E+02 -0.34397865092E+03  0.37439149329E+03  0.12500050519E+03 0.  0.
    9000005    1    3    3    0    0  0.33154755265E+02 -0.87867109070E+02 -0.15153385058E+03  0.17827892339E+03  0.10000000000E+01 0.  0.
    9000005    1    3    3    0    0 -0.36633895238E+02  0.90607181913E+01 -0.19244480034E+03  0.19611256990E+03  0.10000000000E+01 0.  0.
         21    1    1    2  502  501  0.34791399730E+01  0.78806390878E+02 -0.27113761544E+03  0.28237945776E+03  0.00000000000E+00 0.  1.
<mgrwt>
<rscale>  1 0.14780960E+03</rscale>
<asrwt>0</asrwt>
<pdfrwt beam="2">  1        4 0.97837464E-01 0.14780960E+03</pdfrwt>
<pdfrwt beam="1">  1       -4 0.32042070E-02 0.14780960E+03</pdfrwt>
<totfact> 0.73818100E+02</totfact>
</mgrwt>
</event>
<event>
 6    4  0.5642870E-004  0.1448929E+03  0.7818608E-02  0.1206893E+00
          4   -1    0    0  502    0  0.00000000000E+00  0.00000000000E+00  0.14880736292E+03  0.14881278225E+03  0.12700000000E+01 0. -1.
         -4   -1    0    0    0  501 -0.00000000000E+00 -0.00000000000E+00 -0.79953086509E+02  0.79963172413E+02  0.12700000000E+01 0. -1.
         25    2    1    2    0    0 -0.29020152824E+02  0.67258687870E+02  0.44150399297E+02  0.15147018574E+03  0.12501223558E+03 0.  0.
    9000005    1    3    3    0    0 -0.63034561641E+02  0.66931546245E+00 -0.29115329640E+01  0.63113239250E+02  0.10000000000E+01 0.  0.
    9000005    1    3    3    0    0  0.34014408817E+02  0.66589372408E+02  0.47061932261E+02  0.88356946489E+02  0.10000000000E+01 0.  0.
         21    1    1    2  502  501  0.29020152824E+02 -0.67258687870E+02  0.24703877118E+02  0.77305768922E+02  0.00000000000E+00 0.  1.
<mgrwt>
<rscale>  1 0.14489292E+03</rscale>
<asrwt>0</asrwt>
<pdfrwt beam="1">  1        4 0.22894633E-01 0.14489292E+03</pdfrwt>
<pdfrwt beam="2">  1       -4 0.12301668E-01 0.14489292E+03</pdfrwt>
<totfact> 0.15665814E+03</totfact>
</mgrwt>
</event>
<event>
 6    4  0.5642870E-004  0.1378843E+03  0.7818608E-02  0.1216205E+00
          4   -1    0    0  502    0  0.00000000000E+00  0.00000000000E+00  0.24424556960E+03  0.24424887138E+03  0.12700000000E+01 0. -1.
         -4   -1    0    0    0  501 -0.00000000000E+00 -0.00000000000E+00 -0.39360506610E+02  0.39380990091E+02  0.12700000000E+01 0. -1.
         25    2    1    2    0    0 -0.47237303354E+02 -0.34043976751E+02  0.14212001744E+03  0.19801557455E+03  0.12498685222E+03 0.  0.
    9000005    1    3    3    0    0 -0.69931237411E+02 -0.53944480179E+02  0.50935011461E+02  0.10195960131E+03  0.10000000000E+01 0.  0.
    9000005    1    3    3    0    0  0.22693934057E+02  0.19900503428E+02  0.91185005979E+02  0.96055973241E+02  0.10000000000E+01 0.  0.
         21    1    1    2  502  501  0.47237303354E+02  0.34043976751E+02  0.62765045554E+02  0.85614286918E+02  0.00000000000E+00 0. -1.
<mgrwt>
<rscale>  1 0.13788426E+03</rscale>
<asrwt>0</asrwt>
<pdfrwt beam="1">  1        4 0.37578071E-01 0.13788426E+03</pdfrwt>
<pdfrwt beam="2">  1       -4 0.60572922E-02 0.13788426E+03</pdfrwt>
<totfact> 0.19844888E+03</totfact>
</mgrwt>
</event>
<event>
 6    4  0.5642870E-004  0.1273490E+03  0.7818608E-02  0.1231443E+00
          4   -1    0    0  502    0  0.00000000000E+00  0.00000000000E+00  0.49860012886E+02  0.49876184547E+02  0.12700000000E+01 0. -1.
         -4   -1    0    0    0  501 -0.00000000000E+00 -0.00000000000E+00 -0.12790278035E+03  0.12790908537E+03  0.12700000000E+01 0. -1.
         25    2    1    2    0    0 -0.23426865408E+02 -0.65492670343E+01 -0.84231752732E+02  0.15268518107E+03  0.12500426164E+03 0.  0.
    9000005    1    3    3    0    0 -0.71573466599E+02  0.16903836958E+02 -0.44131324976E+02  0.85773391381E+02  0.10000000000E+01 0.  0.
    9000005    1    3    3    0    0  0.48146601191E+02 -0.23453103992E+02 -0.40100427756E+02  0.66911789688E+02  0.10000000000E+01 0.  0.
         21    1    1    2  502  501  0.23426865408E+02  0.65492670343E+01  0.61889852706E+01  0.25100088849E+02  0.00000000000E+00 0. -1.
<mgrwt>
<rscale>  1 0.12734903E+03</rscale>
<asrwt>0</asrwt>
<pdfrwt beam="1">  1        4 0.76725003E-02 0.12734903E+03</pdfrwt>
<pdfrwt beam="2">  1       -4 0.19679080E-01 0.12734903E+03</pdfrwt>
<totfact> 0.44252677E+03</totfact>
</mgrwt>
</event>
<event>
 6    4  0.5642870E-004  0.1271485E+03  0.7818608E-02  0.1231749E+00
          4   -1    0    0  502    0  0.00000000000E+00  0.00000000000E+00  0.25252195664E+02  0.25284111332E+02  0.12700000000E+01 0. -1.
         -4   -1    0    0    0  501 -0.00000000000E+00 -0.00000000000E+00 -0.27621383605E+03  0.27621675569E+03  0.12700000000E+01 0. -1.
         25    2    1    2    0    0 -0.75534488813E+01 -0.22033102904E+02 -0.24709569431E+03  0.27789032377E+03  0.12499695070E+03 0.  0.
    9000005    1    3    3    0    0  0.26423860315E+02 -0.51832858608E+02 -0.21425391680E+03  0.22201487898E+03  0.10000000000E+01 0.  0.
    9000005    1    3    3    0    0 -0.33977309196E+02  0.29799755705E+02 -0.32841777512E+02  0.55875444790E+02  0.10000000000E+01 0.  0.
         21    1    1    2  502  501  0.75534488813E+01  0.22033102904E+02 -0.38659460717E+01  0.23610543251E+02  0.00000000000E+00 0.  1.
<mgrwt>
<rscale>  1 0.12714853E+03</rscale>
<asrwt>0</asrwt>
<pdfrwt beam="1">  1        4 0.38876330E-02 0.12714853E+03</pdfrwt>
<pdfrwt beam="2">  1       -4 0.42497114E-01 0.12714853E+03</pdfrwt>
<totfact> 0.31150554E+03</totfact>
</mgrwt>
</event>
<event>
 6    4  0.5642870E-004  0.1270514E+03  0.7818608E-02  0.1231898E+00
         -4   -1    0    0    0  501 -0.00000000000E+00  0.00000000000E+00  0.22591211621E+03  0.22591568593E+03  0.12700000000E+01 0. -1.
          4   -1    0    0  502    0  0.00000000000E+00 -0.00000000000E+00 -0.24812009693E+02  0.24844490838E+02  0.12700000000E+01 0. -1.
         25    2    1    2    0    0 -0.96277531874E+01  0.20606169007E+02  0.17008624922E+03  0.21230023428E+03  0.12499899786E+03 0.  0.
    9000005    1    3    3    0    0  0.20544700156E+02 -0.26905793523E+02  0.14800838203E+03  0.15183374981E+03  0.10000000000E+01 0.  0.
    9000005    1    3    3    0    0 -0.30172453343E+02  0.47511962530E+02  0.22077867197E+02  0.60466484470E+02  0.10000000000E+01 0.  0.
         21    1    1    2  502  501  0.96277531874E+01 -0.20606169007E+02  0.31013857289E+02  0.38459942492E+02  0.00000000000E+00 0. -1.
<mgrwt>
<rscale>  1 0.12705140E+03</rscale>
<asrwt>0</asrwt>
<pdfrwt beam="2">  1        4 0.38200056E-02 0.12705140E+03</pdfrwt>
<pdfrwt beam="1">  1       -4 0.34758482E-01 0.12705140E+03</pdfrwt>
<totfact> 0.47424465E+03</totfact>
</mgrwt>
</event>
<event>
 6    4  0.5642870E-004  0.1267251E+03  0.7818608E-02  0.1232398E+00
          4   -1    0    0  502    0  0.00000000000E+00  0.00000000000E+00  0.28377001548E+02  0.28405406472E+02  0.12700000000E+01 0.  1.
         -4   -1    0    0    0  501 -0.00000000000E+00 -0.00000000000E+00 -0.19740162753E+03  0.19740571281E+03  0.12700000000E+01 0.  1.
         25    2    1    2    0    0 -0.19731268428E+02  0.66937995446E+01 -0.15696978611E+03  0.20173937090E+03  0.12500052045E+03 0.  0.
    9000005    1    3    3    0    0 -0.58820738175E+02 -0.29008081864E+02 -0.50326553150E+02  0.82674724099E+02  0.10000000000E+01 0.  0.
    9000005    1    3    3    0    0  0.39089469748E+02  0.35701881409E+02 -0.10664323296E+03  0.11906464680E+03  0.10000000000E+01 0.  0.
         21    1    1    2  502  501  0.19731268428E+02 -0.66937995446E+01 -0.12054839874E+02  0.24071748389E+02  0.00000000000E+00 0.  1.
<mgrwt>
<rscale>  1 0.12672514E+03</rscale>
<asrwt>0</asrwt>
<pdfrwt beam="1">  1        4 0.43681919E-02 0.12672514E+03</pdfrwt>
<pdfrwt beam="2">  1       -4 0.30371979E-01 0.12672514E+03</pdfrwt>
<totfact> 0.49546911E+03</totfact>
</mgrwt>
</event>
<event>
 6    4  0.5642870E-004  0.1278751E+03  0.7818608E-02  0.1230643E+00
          4   -1    0    0  502    0  0.00000000000E+00  0.00000000000E+00  0.49116946927E+02  0.49133363160E+02  0.12700000000E+01 0.  1.
         -4   -1    0    0    0  501 -0.00000000000E+00 -0.00000000000E+00 -0.12208848659E+03  0.12209509186E+03  0.12700000000E+01 0.  1.
         25    2    1    2    0    0  0.32541393403E+01  0.26808695160E+02 -0.61298318899E+02  0.14180806002E+03  0.12499098539E+03 0.  0.
    9000005    1    3    3    0    0  0.54243561416E+01  0.36616186363E+02  0.31406993573E+02  0.48554793673E+02  0.10000000000E+01 0.  0.
    9000005    1    3    3    0    0 -0.21702168013E+01 -0.98074912030E+01 -0.92705312472E+02  0.93253266351E+02  0.10000000000E+01 0.  0.
         21    1    1    2  502  501 -0.32541393403E+01 -0.26808695160E+02 -0.11673220762E+02  0.29420395001E+02  0.00000000000E+00 0.  1.
<mgrwt>
<rscale>  1 0.12787510E+03</rscale>
<asrwt>0</asrwt>
<pdfrwt beam="1">  1        4 0.75582243E-02 0.12787510E+03</pdfrwt>
<pdfrwt beam="2">  1       -4 0.18784615E-01 0.12787510E+03</pdfrwt>
<totfact> 0.49348688E+03</totfact>
</mgrwt>
</event>
<event>
 6    4  0.5642870E-004  0.1271188E+03  0.7818608E-02  0.1231795E+00
         -4   -1    0    0    0  501 -0.00000000000E+00  0.00000000000E+00  0.17938560731E+03  0.17939010288E+03  0.12700000000E+01 0.  1.
          4   -1    0    0  502    0  0.00000000000E+00 -0.00000000000E+00 -0.67402795224E+02  0.67414758800E+02  0.12700000000E+01 0.  1.
         25    2    1    2    0    0  0.17517592871E+02  0.15105654728E+02  0.15348566196E+03  0.19929135400E+03  0.12499659389E+03 0.  0.
    9000005    1    3    3    0    0  0.21738139465E+02 -0.52238318320E+02  0.91925580110E+02  0.10794767662E+03  0.10000000000E+01 0.  0.
    9000005    1    3    3    0    0 -0.42205465938E+01  0.67343973047E+02  0.61560081854E+02  0.91343677379E+02  0.10000000000E+01 0.  0.
         21    1    1    2  502  501 -0.17517592871E+02 -0.15105654728E+02 -0.41502849875E+02  0.47513507684E+02  0.00000000000E+00 0.  1.
<mgrwt>
<rscale>  1 0.12711882E+03</rscale>
<asrwt>0</asrwt>
<pdfrwt beam="2">  1        4 0.10370927E-01 0.12711882E+03</pdfrwt>
<pdfrwt beam="1">  1       -4 0.27599051E-01 0.12711882E+03</pdfrwt>
<totfact> 0.14415119E+03</totfact>
</mgrwt>
</event>
<event>
 6    4  0.5642870E-004  0.1438197E+03  0.7818608E-02  0.1208280E+00
         -4   -1    0    0    0  501 -0.00000000000E+00  0.00000000000E+00  0.35259071120E+03  0.35259299841E+03  0.12700000000E+01 0.  1.
          4   -1    0    0  502    0  0.00000000000E+00 -0.00000000000E+00 -0.32824357039E+02  0.32848916497E+02  0.12700000000E+01 0.  1.
         25    2    1    2    0    0 -0.52761371186E+02 -0.47710701214E+02  0.22265014449E+03  0.26506072251E+03  0.12499610586E+03 0.  0.
    9000005    1    3    3    0    0  0.10048636969E+02 -0.84902314027E+01  0.17820166572E+03  0.17868937517E+03  0.10000000000E+01 0.  0.
    9000005    1    3    3    0    0 -0.62810008155E+02 -0.39220469811E+02  0.44448478768E+02  0.86371347341E+02  0.10000000000E+01 0.  0.
         21    1    1    2  502  501  0.52761371186E+02  0.47710701214E+02  0.97116209678E+02  0.12038119239E+03  0.00000000000E+00 0.  1.
<mgrwt>
<rscale>  1 0.14381968E+03</rscale>
<asrwt>0</asrwt>
<pdfrwt beam="2">  1        4 0.50519663E-02 0.14381968E+03</pdfrwt>
<pdfrwt beam="1">  1       -4 0.54246789E-01 0.14381968E+03</pdfrwt>
<totfact> 0.12857903E+03</totfact>
</mgrwt>
</event>
<event>
 6    4  0.5642870E-004  0.1296421E+03  0.7818608E-02  0.1227988E+00
          4   -1    0    0  502    0  0.00000000000E+00  0.00000000000E+00  0.50729302910E+03  0.50729461881E+03  0.12700000000E+01 0.  1.
         -4   -1    0    0    0  501 -0.00000000000E+00 -0.00000000000E+00 -0.13228861012E+02  0.13289682603E+02  0.12700000000E+01 0.  1.
         25    2    1    2    0    0  0.10844526759E+02 -0.32623035483E+02  0.39362398364E+03  0.41442358902E+03  0.12500081772E+03 0.  0.
    9000005    1    3    3    0    0  0.38341306710E+01 -0.27863866438E+02  0.87755664531E+01  0.29480606803E+02  0.10000000000E+01 0.  0.
    9000005    1    3    3    0    0  0.70103960880E+01 -0.47591690449E+01  0.38484841719E+03  0.38494298222E+03  0.10000000000E+01 0.  0.
         21    1    1    2  502  501 -0.10844526759E+02  0.32623035483E+02  0.10044018445E+03  0.10616071240E+03  0.00000000000E+00 0.  1.
<mgrwt>
<rscale>  1 0.12964209E+03</rscale>
<asrwt>0</asrwt>
<pdfrwt beam="1">  1        4 0.78049880E-01 0.12964209E+03</pdfrwt>
<pdfrwt beam="2">  1       -4 0.20400103E-02 0.12964209E+03</pdfrwt>
<totfact> 0.24099736E+03</totfact>
</mgrwt>
</event>
<event>
 6    4  0.5642870E-004  0.1323498E+03  0.7818608E-02  0.1224010E+00
         -4   -1    0    0    0  501 -0.00000000000E+00  0.00000000000E+00  0.23021709616E+02  0.23056712984E+02  0.12700000000E+01 0.  1.
          4   -1    0    0  502    0  0.00000000000E+00 -0.00000000000E+00 -0.39575504072E+03  0.39575707846E+03  0.12700000000E+01 0.  1.
         25    2    1    2    0    0  0.20917008255E+02  0.38129298919E+02 -0.19386337272E+03  0.23473275853E+03  0.12500038389E+03 0.  0.
    9000005    1    3    3    0    0 -0.22047141564E+01  0.17307008853E+02 -0.20184025013E+03  0.20259536000E+03  0.10000000000E+01 0.  0.
    9000005    1    3    3    0    0  0.23121722411E+02  0.20822290066E+02  0.79768774096E+01  0.32137398527E+02  0.10000000000E+01 0.  0.
         21    1    1    2  502  501 -0.20917008255E+02 -0.38129298919E+02 -0.17886995838E+03  0.18408103292E+03  0.00000000000E+00 0.  1.
<mgrwt>
<rscale>  1 0.13234977E+03</rscale>
<asrwt>0</asrwt>
<pdfrwt beam="2">  1        4 0.60888235E-01 0.13234977E+03</pdfrwt>
<pdfrwt beam="1">  1       -4 0.35446511E-02 0.13234977E+03</pdfrwt>
<totfact> 0.17462759E+03</totfact>
</mgrwt>
</event>
<event>
 6    4  0.5642870E-004  0.1283212E+03  0.7818608E-02  0.1229968E+00
          4   -1    0    0  502    0  0.00000000000E+00  0.00000000000E+00  0.23851471910E+02  0.23885259309E+02  0.12700000000E+01 0. -1.
         -4   -1    0    0    0  501 -0.00000000000E+00 -0.00000000000E+00 -0.39036026224E+03  0.39036232815E+03  0.12700000000E+01 0. -1.
         25    2    1    2    0    0  0.16680400090E+02  0.23737373258E+02 -0.36301302251E+03  0.38502569448E+03  0.12499852904E+03 0.  0.
    9000005    1    3    3    0    0 -0.68556981017E+01  0.56036440090E+02 -0.73089054283E+02  0.92358502968E+02  0.10000000000E+01 0.  0.
    9000005    1    3    3    0    0  0.23536098191E+02 -0.32299066832E+02 -0.28992396823E+03  0.29266719151E+03  0.10000000000E+01 0.  0.
         21    1    1    2  502  501 -0.16680400090E+02 -0.23737373258E+02 -0.34957678200E+01  0.29221892974E+02  0.00000000000E+00 0. -1.
<mgrwt>
<rscale>  1 0.12832120E+03</rscale>
<asrwt>0</asrwt>
<pdfrwt beam="1">  1        4 0.36722154E-02 0.12832120E+03</pdfrwt>
<pdfrwt beam="2">  1       -4 0.60058178E-01 0.12832120E+03</pdfrwt>
<totfact> 0.16878381E+03</totfact>
</mgrwt>
</event>
<event>
 6    4  0.5642870E-004  0.1298622E+03  0.7818608E-02  0.1227660E+00
          4   -1    0    0  502    0  0.00000000000E+00  0.00000000000E+00  0.33865599412E+03  0.33865837544E+03  0.12700000000E+01 0.  1.
         -4   -1    0    0    0  501 -0.00000000000E+00 -0.00000000000E+00 -0.22964608011E+02  0.22999698282E+02  0.12700000000E+01 0.  1.
         25    2    1    2    0    0  0.71372909530E+01 -0.34524345860E+02  0.18321202054E+03  0.22456812631E+03  0.12498530915E+03 0.  0.
    9000005    1    3    3    0    0  0.31593129823E+02  0.20895874404E+02  0.15153787987E+03  0.15620336890E+03  0.10000000000E+01 0.  0.
    9000005    1    3    3    0    0 -0.24455838870E+02 -0.55420220264E+02  0.31674140670E+02  0.68364757413E+02  0.10000000000E+01 0.  0.
         21    1    1    2  502  501 -0.71372909530E+01  0.34524345860E+02  0.13247936557E+03  0.13708994741E+03  0.00000000000E+00 0.  1.
<mgrwt>
<rscale>  1 0.12986223E+03</rscale>
<asrwt>0</asrwt>
<pdfrwt beam="1">  1        4 0.52103804E-01 0.12986223E+03</pdfrwt>
<pdfrwt beam="2">  1       -4 0.35358991E-02 0.12986223E+03</pdfrwt>
<totfact> 0.24119542E+03</totfact>
</mgrwt>
</event>
<event>
 6    4  0.5642870E-004  0.1277239E+03  0.7818608E-02  0.1230873E+00
          4   -1    0    0  502    0  0.00000000000E+00  0.00000000000E+00  0.72359977174E+02  0.72371121289E+02  0.12700000000E+01 0. -1.
         -4   -1    0    0    0  501 -0.00000000000E+00 -0.00000000000E+00 -0.24752303345E+03  0.24752629151E+03  0.12700000000E+01 0. -1.
         25    2    1    2    0    0 -0.27489197394E+00 -0.26018172834E+02 -0.22780980264E+03  0.26117177286E+03  0.12504546324E+03 0.  0.
    9000005    1    3    3    0    0  0.52226529464E+02 -0.25643061415E+02 -0.53227156323E+02  0.78862583960E+02  0.10000000000E+01 0.  0.
    9000005    1    3    3    0    0 -0.52501421438E+02 -0.37511141867E+00 -0.17458264632E+03  0.18230918890E+03  0.10000000000E+01 0.  0.
         21    1    1    2  502  501  0.27489197394E+00  0.26018172834E+02  0.52646746366E+02  0.58725639938E+02  0.00000000000E+00 0. -1.
<mgrwt>
<rscale>  1 0.12772388E+03</rscale>
<asrwt>0</asrwt>
<pdfrwt beam="1">  1        4 0.11133412E-01 0.12772388E+03</pdfrwt>
<pdfrwt beam="2">  1       -4 0.38081574E-01 0.12772388E+03</pdfrwt>
<totfact> 0.69244297E+02</totfact>
</mgrwt>
</event>
<event>
 6    4  0.5642870E-004  0.1282359E+03  0.7818608E-02  0.1230097E+00
          4   -1    0    0  502    0  0.00000000000E+00  0.00000000000E+00  0.23694659802E+03  0.23695000151E+03  0.12700000000E+01 0.  1.
         -4   -1    0    0    0  501 -0.00000000000E+00 -0.00000000000E+00 -0.27253100850E+02  0.27282675930E+02  0.12700000000E+01 0.  1.
         25    2    1    2    0    0  0.23279920612E+02 -0.16618031614E+02  0.14543778020E+03  0.19389839815E+03  0.12500530877E+03 0.  0.
    9000005    1    3    3    0    0  0.29808491463E+02 -0.27447160168E+02  0.16537416786E+03  0.17026892893E+03  0.10000000000E+01 0.  0.
    9000005    1    3    3    0    0 -0.65285708509E+01  0.10829128554E+02 -0.19936387663E+02  0.23629469221E+02  0.10000000000E+01 0.  0.
         21    1    1    2  502  501 -0.23279920612E+02  0.16618031614E+02  0.64255716977E+02  0.70334279286E+02  0.00000000000E+00 0.  1.
<mgrwt>
<rscale>  1 0.12823588E+03</rscale>
<asrwt>0</asrwt>
<pdfrwt beam="1">  1        4 0.36455860E-01 0.12823588E+03</pdfrwt>
<pdfrwt beam="2">  1       -4 0.41953215E-02 0.12823588E+03</pdfrwt>
<totfact> 0.37362395E+03</totfact>
</mgrwt>
</event>
<event>
 6    4  0.5642870E-004  0.1294361E+03  0.7818608E-02  0.1228295E+00
          4   -1    0    0  502    0  0.00000000000E+00  0.00000000000E+00  0.75687539818E+02  0.75698194059E+02  0.12700000000E+01 0.  1.
         -4   -1    0    0    0  501 -0.00000000000E+00 -0.00000000000E+00 -0.22735536429E+03  0.22735891136E+03  0.12700000000E+01 0.  1.
         25    2    1    2    0    0  0.31383900905E+02 -0.11896734769E+02 -0.20357780130E+03  0.24124183846E+03  0.12500888732E+03 0.  0.
    9000005    1    3    3    0    0  0.72413631410E+02  0.21935939114E+02 -0.10818407074E+03  0.13202163687E+03  0.10000000000E+01 0.  0.
    9000005    1    3    3    0    0 -0.41029730505E+02 -0.33832673883E+02 -0.95393730556E+02  0.10922020160E+03  0.10000000000E+01 0.  0.
         21    1    1    2  502  501 -0.31383900905E+02  0.11896734769E+02  0.51909976824E+02  0.61815266950E+02  0.00000000000E+00 0.  1.
<mgrwt>
<rscale>  1 0.12943610E+03</rscale>
<asrwt>0</asrwt>
<pdfrwt beam="1">  1        4 0.11645329E-01 0.12943610E+03</pdfrwt>
<pdfrwt beam="2">  1       -4 0.34978840E-01 0.12943610E+03</pdfrwt>
<totfact> 0.75853491E+02</totfact>
</mgrwt>
</event>
<event>
 6    4  0.5642870E-004  0.1302194E+03  0.7818608E-02  0.1227131E+00
          4   -1    0    0  502    0  0.00000000000E+00  0.00000000000E+00  0.97849162561E+01  0.98669897203E+01  0.12700000000E+01 0.  1.
         -4   -1    0    0    0  501 -0.00000000000E+00 -0.00000000000E+00 -0.73035707917E+03  0.73035818336E+03  0.12700000000E+01 0.  1.
         25    2    1    2    0    0  0.23967147483E+02 -0.27527098541E+02 -0.61139127585E+03  0.62510509919E+03  0.12499971011E+03 0.  0.
    9000005    1    3    3    0    0 -0.30308053753E+02  0.21158738043E+02 -0.73329481816E+02  0.82124802717E+02  0.10000000000E+01 0.  0.
    9000005    1    3    3    0    0  0.54275201236E+02 -0.48685836584E+02 -0.53806179404E+03  0.54298029647E+03  0.10000000000E+01 0.  0.
         21    1    1    2  502  501 -0.23967147483E+02  0.27527098541E+02 -0.10918088707E+03  0.11512007389E+03  0.00000000000E+00 0.  1.
<mgrwt>
<rscale>  1 0.13021940E+03</rscale>
<asrwt>0</asrwt>
<pdfrwt beam="1">  1        4 0.15117706E-02 0.13021940E+03</pdfrwt>
<pdfrwt beam="2">  1       -4 0.11236898E+00 0.13021940E+03</pdfrwt>
<totfact> 0.16637853E+03</totfact>
</mgrwt>
</event>
<event>
 6    4  0.5642870E-004  0.1294002E+03  0.7818608E-02  0.1228348E+00
          4   -1    0    0  502    0  0.00000000000E+00  0.00000000000E+00  0.42851913742E+03  0.42852101936E+03  0.12700000000E+01 0. -1.
         -4   -1    0    0    0  501 -0.00000000000E+00 -0.00000000000E+00 -0.17951833044E+02  0.17996699965E+02  0.12700000000E+01 0. -1.
         25    2    1    2    0    0 -0.31681259757E+02 -0.11028557611E+02  0.23979027957E+03  0.27247713928E+03  0.12497632556E+03 0.  0.
    9000005    1    3    3    0    0 -0.39060052439E+02  0.51116886994E+02  0.14797690508E+03  0.16135919022E+03  0.10000000000E+01 0.  0.
    9000005    1    3    3    0    0  0.73787926820E+01 -0.62145444604E+02  0.91813374489E+02  0.11111794905E+03  0.10000000000E+01 0.  0.
         21    1    1    2  502  501  0.31681259757E+02  0.11028557611E+02  0.17077702481E+03  0.17404058005E+03  0.00000000000E+00 0. -1.
<mgrwt>
<rscale>  1 0.12940021E+03</rscale>
<asrwt>0</asrwt>
<pdfrwt beam="1">  1        4 0.65929618E-01 0.12940021E+03</pdfrwt>
<pdfrwt beam="2">  1       -4 0.27654165E-02 0.12940021E+03</pdfrwt>
<totfact> 0.21665924E+03</totfact>
</mgrwt>
</event>
<event>
 6    4  0.5642870E-004  0.1607134E+03  0.7818608E-02  0.1187894E+00
         -4   -1    0    0    0  501 -0.00000000000E+00  0.00000000000E+00  0.21252786596E+03  0.21253166048E+03  0.12700000000E+01 0. -1.
          4   -1    0    0  502    0  0.00000000000E+00 -0.00000000000E+00 -0.12196646943E+03  0.12197308131E+03  0.12700000000E+01 0. -1.
         25    2    1    2    0    0  0.38393870866E+02  0.93432250789E+02  0.14785016840E+03  0.21837688902E+03  0.12500047422E+03 0.  0.
    9000005    1    3    3    0    0  0.45526546463E+02  0.25463332116E+02  0.14020914539E+03  0.14960164493E+03  0.10000000000E+01 0.  0.
    9000005    1    3    3    0    0 -0.71326755973E+01  0.67968918674E+02  0.76410230100E+01  0.68775244089E+02  0.10000000000E+01 0.  0.
         21    1    1    2  502  501 -0.38393870866E+02 -0.93432250789E+02 -0.57288771872E+02  0.11612785278E+03  0.00000000000E+00 0. -1.
<mgrwt>
<rscale>  1 0.16071339E+03</rscale>
<asrwt>0</asrwt>
<pdfrwt beam="2">  1        4 0.18764873E-01 0.16071339E+03</pdfrwt>
<pdfrwt beam="1">  1       -4 0.32697395E-01 0.16071339E+03</pdfrwt>
<totfact> 0.39129677E+02</totfact>
</mgrwt>
</event>
<event>
 6    4  0.5642870E-004  0.1296924E+03  0.7818608E-02  0.1227913E+00
         -4   -1    0    0    0  501 -0.00000000000E+00  0.00000000000E+00  0.25563186058E+02  0.25594713936E+02  0.12700000000E+01 0. -1.
          4   -1    0    0  502    0  0.00000000000E+00 -0.00000000000E+00 -0.45524616377E+03  0.45524793522E+03  0.12700000000E+01 0. -1.
         25    2    1    2    0    0 -0.22499305624E+02  0.26250697212E+02 -0.14691835461E+03  0.19597224015E+03  0.12499919251E+03 0.  0.
    9000005    1    3    3    0    0  0.89370981975E+01  0.33970026119E+02  0.93665266336E+01  0.36367103540E+02  0.10000000000E+01 0.  0.
    9000005    1    3    3    0    0 -0.31436403822E+02 -0.77193289070E+01 -0.15628488125E+03  0.15960513661E+03  0.10000000000E+01 0.  0.
         21    1    1    2  502  501  0.22499305624E+02 -0.26250697212E+02 -0.28276462310E+03  0.28487040901E+03  0.00000000000E+00 0. -1.
<mgrwt>
<rscale>  1 0.12969239E+03</rscale>
<asrwt>0</asrwt>
<pdfrwt beam="2">  1        4 0.70040427E-01 0.12969239E+03</pdfrwt>
<pdfrwt beam="1">  1       -4 0.39353597E-02 0.12969239E+03</pdfrwt>
<totfact> 0.10934812E+03</totfact>
</mgrwt>
</event>
<event>
 6    4  0.5642870E-004  0.1267408E+03  0.7818608E-02  0.1232374E+00
         -4   -1    0    0    0  501 -0.00000000000E+00  0.00000000000E+00  0.57238397491E+03  0.57238538384E+03  0.12700000000E+01 0. -1.
          4   -1    0    0  502    0  0.00000000000E+00 -0.00000000000E+00 -0.18956692151E+02  0.18999186227E+02  0.12700000000E+01 0. -1.
         25    2    1    2    0    0 -0.19661542103E+02 -0.72047778080E+01  0.55602247708E+03  0.57028433086E+03  0.12499895178E+03 0.  0.
    9000005    1    3    3    0    0 -0.54669260643E+02  0.39531460961E+02  0.33097290502E+03  0.33778029593E+03  0.10000000000E+01 0.  0.
    9000005    1    3    3    0    0  0.35007718540E+02 -0.46736238769E+02  0.22504957206E+03  0.23250403492E+03  0.10000000000E+01 0.  0.
         21    1    1    2  502  501  0.19661542103E+02  0.72047778080E+01 -0.25951943192E+01  0.21100239209E+02  0.00000000000E+00 0. -1.
<mgrwt>
<rscale>  1 0.12674077E+03</rscale>
<asrwt>0</asrwt>
<pdfrwt beam="2">  1        4 0.29197920E-02 0.12674077E+03</pdfrwt>
<pdfrwt beam="1">  1       -4 0.88062429E-01 0.12674077E+03</pdfrwt>
<totfact> 0.10514669E+03</totfact>
</mgrwt>
</event>
<event>
 6    4  0.5642870E-004  0.1396651E+03  0.7818608E-02  0.1213780E+00
         -4   -1    0    0    0  501 -0.00000000000E+00  0.00000000000E+00  0.27088051793E+03  0.27088349506E+03  0.12700000000E+01 0. -1.
          4   -1    0    0  502    0  0.00000000000E+00 -0.00000000000E+00 -0.39019345093E+02  0.39040007576E+02  0.12700000000E+01 0. -1.
         25    2    1    2    0    0 -0.61406177716E+02  0.10544629166E+02  0.18580876019E+03  0.23244619901E+03  0.12499772880E+03 0.  0.
    9000005    1    3    3    0    0 -0.10537244251E+02  0.45489751254E+02  0.12317096057E+02  0.48301778858E+02  0.10000000000E+01 0.  0.
    9000005    1    3    3    0    0 -0.50868933465E+02 -0.34945122089E+02  0.17349166413E+03  0.18414442015E+03  0.10000000000E+01 0.  0.
         21    1    1    2  502  501  0.61406177716E+02 -0.10544629166E+02  0.46052412648E+02  0.77477303623E+02  0.00000000000E+00 0. -1.
<mgrwt>
<rscale>  1 0.13966510E+03</rscale>
<asrwt>0</asrwt>
<pdfrwt beam="2">  1        4 0.60047947E-02 0.13966510E+03</pdfrwt>
<pdfrwt beam="1">  1       -4 0.41675744E-01 0.13966510E+03</pdfrwt>
<totfact> 0.16468664E+03</totfact>
</mgrwt>
</event>
<event>
 6    4  0.5642870E-004  0.1395447E+03  0.7818608E-02  0.1213943E+00
          4   -1    0    0  502    0  0.00000000000E+00  0.00000000000E+00  0.21982928700E+02  0.22019583426E+02  0.12700000000E+01 0. -1.
         -4   -1    0    0    0  501 -0.00000000000E+00 -0.00000000000E+00 -0.50320853104E+03  0.50321013365E+03  0.12700000000E+01 0. -1.
         25    2    1    2    0    0 -0.62019254133E+02 -0.14498109357E+01 -0.39562122886E+03  0.41951028370E+03  0.12499692625E+03 0.  0.
    9000005    1    3    3    0    0 -0.81609256553E+02  0.24985581700E+01 -0.39037747350E+03  0.39882563278E+03  0.10000000000E+01 0.  0.
    9000005    1    3    3    0    0  0.19590002421E+02 -0.39483691057E+01 -0.52437553634E+01  0.20684650922E+02  0.10000000000E+01 0.  0.
         21    1    1    2  502  501  0.62019254133E+02  0.14498109357E+01 -0.85604373479E+02  0.10571943338E+03  0.00000000000E+00 0.  1.
<mgrwt>
<rscale>  1 0.13954469E+03</rscale>
<asrwt>0</asrwt>
<pdfrwt beam="1">  1        4 0.33849323E-02 0.13954469E+03</pdfrwt>
<pdfrwt beam="2">  1       -4 0.77419632E-01 0.13954469E+03</pdfrwt>
<totfact> 0.11330276E+03</totfact>
</mgrwt>
</event>
<event>
 6    4  0.5642870E-004  0.1281814E+03  0.7818608E-02  0.1230179E+00
         -4   -1    0    0    0  501 -0.00000000000E+00  0.00000000000E+00  0.10599069296E+04  0.10599076905E+04  0.12700000000E+01 0.  1.
          4   -1    0    0  502    0  0.00000000000E+00 -0.00000000000E+00 -0.97329159809E+01  0.98154242644E+01  0.12700000000E+01 0.  1.
         25    2    1    2    0    0 -0.18910931719E+02 -0.21171026657E+02  0.10210092687E+04  0.10290239986E+04  0.12499850881E+03 0.  0.
    9000005    1    3    3    0    0 -0.84138558943E+01  0.29446592156E+02  0.84555459605E+03  0.84610960854E+03  0.10000000000E+01 0.  0.
    9000005    1    3    3    0    0 -0.10497075825E+02 -0.50617618813E+02  0.17545467267E+03  0.18291439008E+03  0.10000000000E+01 0.  0.
         21    1    1    2  502  501  0.18910931719E+02  0.21171026657E+02  0.29164744920E+02  0.40699116139E+02  0.00000000000E+00 0.  1.
<mgrwt>
<rscale>  1 0.12818137E+03</rscale>
<asrwt>0</asrwt>
<pdfrwt beam="2">  1        4 0.15037768E-02 0.12818137E+03</pdfrwt>
<pdfrwt beam="1">  1       -4 0.16306903E+00 0.12818137E+03</pdfrwt>
<totfact> 0.66456473E+02</totfact>
</mgrwt>
</event>
<event>
 6    4  0.5642870E-004  0.1300004E+03  0.7818608E-02  0.1227455E+00
          4   -1    0    0  502    0  0.00000000000E+00  0.00000000000E+00  0.24513391010E+02  0.24546267309E+02  0.12700000000E+01 0. -1.
         -4   -1    0    0    0  501 -0.00000000000E+00 -0.00000000000E+00 -0.46939324570E+03  0.46939496377E+03  0.12700000000E+01 0. -1.
         25    2    1    2    0    0  0.35149925183E+02 -0.61751278026E+01 -0.43890931652E+03  0.45775702500E+03  0.12500582531E+03 0.  0.
    9000005    1    3    3    0    0 -0.43572488599E+02 -0.10796115482E+02 -0.23247039872E+03  0.23676698282E+03  0.10000000000E+01 0.  0.
    9000005    1    3    3    0    0  0.78722413782E+02  0.46209876799E+01 -0.20643891780E+03  0.22099004218E+03  0.10000000000E+01 0.  0.
         21    1    1    2  502  501 -0.35149925183E+02  0.61751278026E+01 -0.59705381720E+01  0.36184206082E+02  0.00000000000E+00 0. -1.
<mgrwt>
<rscale>  1 0.13000041E+03</rscale>
<asrwt>0</asrwt>
<pdfrwt beam="1">  1        4 0.37739524E-02 0.13000041E+03</pdfrwt>
<pdfrwt beam="2">  1       -4 0.72217000E-01 0.13000041E+03</pdfrwt>
<totfact> 0.10942375E+03</totfact>
</mgrwt>
</event>
<event>
 6    4  0.5642870E-004  0.1267381E+03  0.7818608E-02  0.1232378E+00
          4   -1    0    0  502    0  0.00000000000E+00  0.00000000000E+00  0.96983491441E+01  0.97811490184E+01  0.12700000000E+01 0. -1.
         -4   -1    0    0    0  501 -0.00000000000E+00 -0.00000000000E+00 -0.56252106594E+03  0.56252249958E+03  0.12700000000E+01 0. -1.
         25    2    1    2    0    0 -0.10680252148E+02 -0.18121470079E+02 -0.48562962815E+03  0.50189507933E+03  0.12498031627E+03 0.  0.
    9000005    1    3    3    0    0 -0.55973802922E+02  0.26302221665E+02 -0.20215132508E+03  0.21140253478E+03  0.10000000000E+01 0.  0.
    9000005    1    3    3    0    0  0.45293550774E+02 -0.44423691744E+02 -0.28347830306E+03  0.29049254455E+03  0.10000000000E+01 0.  0.
         21    1    1    2  502  501  0.10680252148E+02  0.18121470079E+02 -0.67193088650E+02  0.70408569266E+02  0.00000000000E+00 0.  1.
<mgrwt>
<rscale>  1 0.12673806E+03</rscale>
<asrwt>0</asrwt>
<pdfrwt beam="1">  1        4 0.14985337E-02 0.12673806E+03</pdfrwt>
<pdfrwt beam="2">  1       -4 0.86548156E-01 0.12673806E+03</pdfrwt>
<totfact> 0.30563866E+03</totfact>
</mgrwt>
</event>
<event>
 6    4  0.5642870E-004  0.1285985E+03  0.7818608E-02  0.1229550E+00
         -4   -1    0    0    0  501 -0.00000000000E+00  0.00000000000E+00  0.31714214250E+02  0.31739632725E+02  0.12700000000E+01 0.  1.
          4   -1    0    0  502    0  0.00000000000E+00 -0.00000000000E+00 -0.28560626055E+03  0.28560908417E+03  0.12700000000E+01 0.  1.
         25    2    1    2    0    0 -0.15491805550E+02 -0.25929319011E+02 -0.10673113383E+03  0.16712002529E+03  0.12500096920E+03 0.  0.
    9000005    1    3    3    0    0  0.51778299514E+02  0.56153076326E+01 -0.29141704834E+02  0.59688884568E+02  0.10000000000E+01 0.  0.
    9000005    1    3    3    0    0 -0.67270105065E+02 -0.31544626644E+02 -0.77589428994E+02  0.10743114072E+03  0.10000000000E+01 0.  0.
         21    1    1    2  502  501  0.15491805550E+02  0.25929319011E+02 -0.14716091247E+03  0.15022869161E+03  0.00000000000E+00 0. -1.
<mgrwt>
<rscale>  1 0.12859848E+03</rscale>
<asrwt>0</asrwt>
<pdfrwt beam="2">  1        4 0.43941595E-01 0.12859848E+03</pdfrwt>
<pdfrwt beam="1">  1       -4 0.48812825E-02 0.12859848E+03</pdfrwt>
<totfact> 0.20335147E+03</totfact>
</mgrwt>
</event>
<event>
 6    4  0.5642870E-004  0.1324233E+03  0.7818608E-02  0.1223904E+00
          4   -1    0    0  502    0  0.00000000000E+00  0.00000000000E+00  0.11465220291E+03  0.11465923657E+03  0.12700000000E+01 0.  1.
         -4   -1    0    0    0  501 -0.00000000000E+00 -0.00000000000E+00 -0.21232070019E+03  0.21232449842E+03  0.12700000000E+01 0.  1.
         25    2    1    2    0    0  0.36403499341E+02  0.24200806654E+02 -0.18606033344E+03  0.22837333742E+03  0.12500015903E+03 0.  0.
    9000005    1    3    3    0    0 -0.13690050273E+01 -0.37807172614E+02 -0.13342720710E+03  0.13869057672E+03  0.10000000000E+01 0.  0.
    9000005    1    3    3    0    0  0.37772504368E+02  0.62007979268E+02 -0.52633126344E+02  0.89682760706E+02  0.10000000000E+01 0.  0.
         21    1    1    2  502  501 -0.36403499341E+02 -0.24200806654E+02  0.88391836167E+02  0.98610397565E+02  0.00000000000E+00 0.  1.
<mgrwt>
<rscale>  1 0.13242331E+03</rscale>
<asrwt>0</asrwt>
<pdfrwt beam="1">  1        4 0.17639634E-01 0.13242331E+03</pdfrwt>
<pdfrwt beam="2">  1       -4 0.32665556E-01 0.13242331E+03</pdfrwt>
<totfact> 0.42234036E+02</totfact>
</mgrwt>
</event>
<event>
 6    4  0.5642870E-004  0.1276820E+03  0.7818608E-02  0.1230936E+00
          4   -1    0    0  502    0  0.00000000000E+00  0.00000000000E+00  0.37962196282E+02  0.37983433843E+02  0.12700000000E+01 0.  1.
         -4   -1    0    0    0  501 -0.00000000000E+00 -0.00000000000E+00 -0.87138480933E+03  0.87138573481E+03  0.12700000000E+01 0.  1.
         25    2    1    2    0    0  0.16301180211E+02 -0.20312971413E+02 -0.86159369567E+03  0.87100310057E+03  0.12499743798E+03 0.  0.
    9000005    1    3    3    0    0  0.13450602997E+02  0.21751065208E+02 -0.35130841804E+02  0.43464969855E+02  0.10000000000E+01 0.  0.
    9000005    1    3    3    0    0  0.28505772140E+01 -0.42064036621E+02 -0.82646285387E+03  0.82753813072E+03  0.10000000000E+01 0.  0.
         21    1    1    2  502  501 -0.16301180211E+02  0.20312971413E+02  0.28171082623E+02  0.38366068082E+02  0.00000000000E+00 0.  1.
<mgrwt>
<rscale>  1 0.12768205E+03</rscale>
<asrwt>0</asrwt>
<pdfrwt beam="1">  1        4 0.58420434E-02 0.12768205E+03</pdfrwt>
<pdfrwt beam="2">  1       -4 0.13406089E+00 0.12768205E+03</pdfrwt>
<totfact> 0.13023110E+02</totfact>
</mgrwt>
</event>
<event>
 6    4  0.5642870E-004  0.1272379E+03  0.7818608E-02  0.1231613E+00
          4   -1    0    0  502    0  0.00000000000E+00  0.00000000000E+00  0.76922961141E+02  0.76933444292E+02  0.12700000000E+01 0.  1.
         -4   -1    0    0    0  501 -0.00000000000E+00 -0.00000000000E+00 -0.11861657015E+03  0.11862336875E+03  0.12700000000E+01 0.  1.
         25    2    1    2    0    0  0.12866713849E+02  0.19987329342E+02 -0.80127597903E+02  0.15036591615E+03  0.12499772451E+03 0.  0.
    9000005    1    3    3    0    0  0.45990705954E+02 -0.38479578144E+02 -0.35504734970E+02  0.69695115851E+02  0.10000000000E+01 0.  0.
    9000005    1    3    3    0    0 -0.33123992105E+02  0.58466907485E+02 -0.44622862933E+02  0.80670800295E+02  0.10000000000E+01 0.  0.
         21    1    1    2  502  501 -0.12866713849E+02 -0.19987329342E+02  0.38433988898E+02  0.45190896894E+02  0.00000000000E+00 0.  1.
<mgrwt>
<rscale>  1 0.12723787E+03</rscale>
<asrwt>0</asrwt>
<pdfrwt beam="1">  1        4 0.11835631E-01 0.12723787E+03</pdfrwt>
<pdfrwt beam="2">  1       -4 0.18250032E-01 0.12723787E+03</pdfrwt>
<totfact> 0.24471786E+03</totfact>
</mgrwt>
</event>
<event>
 6    4  0.5642870E-004  0.1267423E+03  0.7818608E-02  0.1232371E+00
          4   -1    0    0  502    0  0.00000000000E+00  0.00000000000E+00  0.11514030327E+03  0.11514730712E+03  0.12700000000E+01 0. -1.
         -4   -1    0    0    0  501 -0.00000000000E+00 -0.00000000000E+00 -0.61355164922E+02  0.61368307477E+02  0.12700000000E+01 0. -1.
         25    2    1    2    0    0 -0.88269237468E+01  0.19020259800E+02  0.89961174689E+01  0.12706117843E+03  0.12499571220E+03 0.  0.
    9000005    1    3    3    0    0  0.49376772517E+02 -0.22481355505E+02  0.11733580439E+02  0.55517149778E+02  0.10000000000E+01 0.  0.
    9000005    1    3    3    0    0 -0.58203696264E+02  0.41501615305E+02 -0.27374629700E+01  0.71544028648E+02  0.10000000000E+01 0.  0.
         21    1    1    2  502  501  0.88269237468E+01 -0.19020259800E+02  0.44789020880E+02  0.49454436172E+02  0.00000000000E+00 0. -1.
<mgrwt>
<rscale>  1 0.12674231E+03</rscale>
<asrwt>0</asrwt>
<pdfrwt beam="1">  1        4 0.17715442E-01 0.12674231E+03</pdfrwt>
<pdfrwt beam="2">  1       -4 0.94408059E-02 0.12674231E+03</pdfrwt>
<totfact> 0.37768335E+03</totfact>
</mgrwt>
</event>
<event>
 6    4  0.5642870E-004  0.1318906E+03  0.7818608E-02  0.1224677E+00
          4   -1    0    0  502    0  0.00000000000E+00  0.00000000000E+00  0.54817877321E+02  0.54832586789E+02  0.12700000000E+01 0.  1.
         -4   -1    0    0    0  501 -0.00000000000E+00 -0.00000000000E+00 -0.14675829524E+03  0.14676379023E+03  0.12700000000E+01 0.  1.
         25    2    1    2    0    0  0.30809444590E+02  0.28663728462E+02 -0.89606515234E+02  0.15945046017E+03  0.12499716184E+03 0.  0.
    9000005    1    3    3    0    0  0.30145299321E+02  0.73062846962E+02 -0.82878471929E+02  0.11452842349E+03  0.10000000000E+01 0.  0.
    9000005    1    3    3    0    0  0.66414526961E+00 -0.44399118500E+02 -0.67280433055E+01  0.44922036677E+02  0.10000000000E+01 0.  0.
         21    1    1    2  502  501 -0.30809444590E+02 -0.28663728462E+02 -0.23339026833E+01  0.42145916849E+02  0.00000000000E+00 0.  1.
<mgrwt>
<rscale>  1 0.13189057E+03</rscale>
<asrwt>0</asrwt>
<pdfrwt beam="1">  1        4 0.84350738E-02 0.13189057E+03</pdfrwt>
<pdfrwt beam="2">  1       -4 0.22579753E-01 0.13189057E+03</pdfrwt>
<totfact> 0.29755758E+03</totfact>
</mgrwt>
</event>
<event>
 6    4  0.5642870E-004  0.1271971E+03  0.7818608E-02  0.1231675E+00
         -4   -1    0    0    0  501 -0.00000000000E+00  0.00000000000E+00  0.24147506549E+03  0.24147840515E+03  0.12700000000E+01 0. -1.
          4   -1    0    0  502    0  0.00000000000E+00 -0.00000000000E+00 -0.24419366065E+02  0.24452368781E+02  0.12700000000E+01 0. -1.
         25    2    1    2    0    0 -0.23253921937E+02 -0.36452215104E+01  0.19936625851E+03  0.23648677887E+03  0.12500023609E+03 0.  0.
    9000005    1    3    3    0    0 -0.60476976454E+02 -0.31235702744E+02  0.64107964130E+02  0.93509169988E+02  0.10000000000E+01 0.  0.
    9000005    1    3    3    0    0  0.37223054517E+02  0.27590481233E+02  0.13525829438E+03  0.14297760888E+03  0.10000000000E+01 0.  0.
         21    1    1    2  502  501  0.23253921937E+02  0.36452215104E+01  0.17689440914E+02  0.29443995061E+02  0.00000000000E+00 0.  1.
<mgrwt>
<rscale>  1 0.12719706E+03</rscale>
<asrwt>0</asrwt>
<pdfrwt beam="2">  1        4 0.37596210E-02 0.12719706E+03</pdfrwt>
<pdfrwt beam="1">  1       -4 0.37152807E-01 0.12719706E+03</pdfrwt>
<totfact> 0.42766528E+03</totfact>
</mgrwt>
</event>
<event>
 6    4  0.5642870E-004  0.1289162E+03  0.7818608E-02  0.1229073E+00
         -4   -1    0    0    0  501 -0.00000000000E+00  0.00000000000E+00  0.76023406672E+02  0.76034013850E+02  0.12700000000E+01 0.  1.
          4   -1    0    0  502    0  0.00000000000E+00 -0.00000000000E+00 -0.86686023737E+02  0.86695326352E+02  0.12700000000E+01 0.  1.
         25    2    1    2    0    0  0.24596030193E+02 -0.19667440561E+02  0.16202025675E+01  0.12892637321E+03  0.12501044649E+03 0.  0.
    9000005    1    3    3    0    0 -0.39864223197E+01 -0.44093151547E+02 -0.48881413092E+02  0.65958245293E+02  0.10000000000E+01 0.  0.
    9000005    1    3    3    0    0  0.28582452513E+02  0.24425710986E+02  0.50501615660E+02  0.62968127915E+02  0.10000000000E+01 0.  0.
         21    1    1    2  502  501 -0.24596030193E+02  0.19667440561E+02 -0.12282819632E+02  0.33802966994E+02  0.00000000000E+00 0.  1.
<mgrwt>
<rscale>  1 0.12891619E+03</rscale>
<asrwt>0</asrwt>
<pdfrwt beam="2">  1        4 0.13337843E-01 0.12891619E+03</pdfrwt>
<pdfrwt beam="1">  1       -4 0.11697440E-01 0.12891619E+03</pdfrwt>
<totfact> 0.43369653E+03</totfact>
</mgrwt>
</event>
<event>
 6    4  0.5642870E-004  0.1354265E+03  0.7818608E-02  0.1219619E+00
         -4   -1    0    0    0  501 -0.00000000000E+00  0.00000000000E+00  0.15306713682E+03  0.15307240533E+03  0.12700000000E+01 0.  1.
          4   -1    0    0  502    0  0.00000000000E+00 -0.00000000000E+00 -0.84320889325E+02  0.84330452842E+02  0.12700000000E+01 0.  1.
         25    2    1    2    0    0 -0.35780304765E+02 -0.37894723387E+02  0.10712965077E+03  0.17267631094E+03  0.12499642401E+03 0.  0.
    9000005    1    3    3    0    0 -0.58572386914E+02 -0.68697807749E+02  0.48111447619E+02  0.10230261331E+03  0.10000000000E+01 0.  0.
    9000005    1    3    3    0    0  0.22792082150E+02  0.30803084362E+02  0.59018203148E+02  0.70373697628E+02  0.10000000000E+01 0.  0.
         21    1    1    2  502  501  0.35780304765E+02  0.37894723387E+02 -0.38383403276E+02  0.64726547232E+02  0.00000000000E+00 0.  1.
<mgrwt>
<rscale>  1 0.13542653E+03</rscale>
<asrwt>0</asrwt>
<pdfrwt beam="2">  1        4 0.12973585E-01 0.13542653E+03</pdfrwt>
<pdfrwt beam="1">  1       -4 0.23549931E-01 0.13542653E+03</pdfrwt>
<totfact> 0.13383491E+03</totfact>
</mgrwt>
</event>
<event>
 6    4  0.5642870E-004  0.1277424E+03  0.7818608E-02  0.1230845E+00
          4   -1    0    0  502    0  0.00000000000E+00  0.00000000000E+00  0.31002741886E+01  0.33503134248E+01  0.12700000000E+01 0. -1.
         -4   -1    0    0    0  501 -0.00000000000E+00 -0.00000000000E+00 -0.18991681252E+04  0.18991685498E+04  0.12700000000E+01 0. -1.
         25    2    1    2    0    0 -0.22691928994E+02  0.13413295409E+02 -0.16798766223E+04  0.16847265597E+04  0.12499309795E+03 0.  0.
    9000005    1    3    3    0    0  0.30446245036E+02  0.40216828068E+02 -0.36111561396E+03  0.36462289251E+03  0.10000000000E+01 0.  0.
    9000005    1    3    3    0    0 -0.53138174030E+02 -0.26803532659E+02 -0.13187610083E+04  0.13201036671E+04  0.10000000000E+01 0.  0.
         21    1    1    2  502  501  0.22691928994E+02 -0.13413295409E+02 -0.21619122870E+03  0.21779230359E+03  0.00000000000E+00 0. -1.
<mgrwt>
<rscale>  1 0.12774238E+03</rscale>
<asrwt>0</asrwt>
<pdfrwt beam="1">  1        4 0.49623323E-03 0.12774238E+03</pdfrwt>
<pdfrwt beam="2">  1       -4 0.29219808E+00 0.12774238E+03</pdfrwt>
<totfact> 0.58064323E+02</totfact>
</mgrwt>
</event>
<event>
 6    4  0.5642870E-004  0.1279751E+03  0.7818608E-02  0.1230492E+00
         -4   -1    0    0    0  501 -0.00000000000E+00  0.00000000000E+00  0.40230748386E+02  0.40250789007E+02  0.12700000000E+01 0. -1.
          4   -1    0    0  502    0  0.00000000000E+00 -0.00000000000E+00 -0.15158858188E+03  0.15159390178E+03  0.12700000000E+01 0. -1.
         25    2    1    2    0    0 -0.15392273523E+02 -0.22707393304E+02 -0.83864597595E+02  0.15300623285E+03  0.12500035506E+03 0.  0.
    9000005    1    3    3    0    0 -0.67817177251E+02 -0.23887356570E+02 -0.65983859334E+02  0.97594287880E+02  0.10000000000E+01 0.  0.
    9000005    1    3    3    0    0  0.52424903729E+02  0.11799632661E+01 -0.17880738261E+02  0.55411944967E+02  0.10000000000E+01 0.  0.
         21    1    1    2  502  501  0.15392273523E+02  0.22707393304E+02 -0.27493235898E+02  0.38838457938E+02  0.00000000000E+00 0. -1.
<mgrwt>
<rscale>  1 0.12797514E+03</rscale>
<asrwt>0</asrwt>
<pdfrwt beam="2">  1        4 0.23323271E-01 0.12797514E+03</pdfrwt>
<pdfrwt beam="1">  1       -4 0.61912968E-02 0.12797514E+03</pdfrwt>
<totfact> 0.46285510E+03</totfact>
</mgrwt>
</event>
<event>
 6    4  0.5642870E-004  0.1293546E+03  0.7818608E-02  0.1228417E+00
          4   -1    0    0  502    0  0.00000000000E+00  0.00000000000E+00  0.70543847855E+02  0.70555278826E+02  0.12700000000E+01 0.  1.
         -4   -1    0    0    0  501 -0.00000000000E+00 -0.00000000000E+00 -0.99543098147E+02  0.99551199333E+02  0.12700000000E+01 0.  1.
         25    2    1    2    0    0  0.33252149429E+02  0.10052786152E+00 -0.39473813523E+02  0.13524343150E+03  0.12500755282E+03 0.  0.
    9000005    1    3    3    0    0  0.13031699186E+02 -0.57703152413E+02  0.52624534303E+01  0.59398420839E+02  0.10000000000E+01 0.  0.
    9000005    1    3    3    0    0  0.20220450243E+02  0.57803680274E+02 -0.44736266953E+02  0.75845010661E+02  0.10000000000E+01 0.  0.
         21    1    1    2  502  501 -0.33252149429E+02 -0.10052786152E+00  0.10474563231E+02  0.34863046659E+02  0.00000000000E+00 0. -1.
<mgrwt>
<rscale>  1 0.12935457E+03</rscale>
<asrwt>0</asrwt>
<pdfrwt beam="1">  1        4 0.10854402E-01 0.12935457E+03</pdfrwt>
<pdfrwt beam="2">  1       -4 0.15315825E-01 0.12935457E+03</pdfrwt>
<totfact> 0.38769244E+03</totfact>
</mgrwt>
</event>
<event>
 6    4  0.5642870E-004  0.1271065E+03  0.7818608E-02  0.1231813E+00
          4   -1    0    0  502    0  0.00000000000E+00  0.00000000000E+00  0.34792030211E+02  0.34815201653E+02  0.12700000000E+01 0.  1.
         -4   -1    0    0    0  501 -0.00000000000E+00 -0.00000000000E+00 -0.17040614256E+03  0.17041087501E+03  0.12700000000E+01 0.  1.
         25    2    1    2    0    0  0.23040637894E+02 -0.12242693104E+01 -0.12928025570E+03  0.18129936419E+03  0.12499482033E+03 0.  0.
    9000005    1    3    3    0    0 -0.25271727799E+01  0.45165543024E+02 -0.11902784582E+03  0.12733790072E+03  0.10000000000E+01 0.  0.
    9000005    1    3    3    0    0  0.25567810674E+02 -0.46389812335E+02 -0.10252409880E+02  0.53961463467E+02  0.10000000000E+01 0.  0.
         21    1    1    2  502  501 -0.23040637894E+02  0.12242693104E+01 -0.63338566460E+01  0.23926712477E+02  0.00000000000E+00 0.  1.
<mgrwt>
<rscale>  1 0.12710655E+03</rscale>
<asrwt>0</asrwt>
<pdfrwt beam="1">  1        4 0.53547666E-02 0.12710655E+03</pdfrwt>
<pdfrwt beam="2">  1       -4 0.26218475E-01 0.12710655E+03</pdfrwt>
<totfact> 0.47118262E+03</totfact>
</mgrwt>
</event>
<event>
 6    4  0.5642870E-004  0.1287263E+03  0.7818608E-02  0.1229358E+00
          4   -1    0    0  502    0  0.00000000000E+00  0.00000000000E+00  0.10351635193E+04  0.10351642983E+04  0.12700000000E+01 0.  1.
         -4   -1    0    0    0  501 -0.00000000000E+00 -0.00000000000E+00 -0.61907624185E+01  0.63196866474E+01  0.12700000000E+01 0.  1.
         25    2    1    2    0    0 -0.28326848325E+02  0.11943831288E+02  0.76895308500E+03  0.77965332368E+03  0.12500157102E+03 0.  0.
    9000005    1    3    3    0    0 -0.15179655383E+02 -0.54003479925E+02  0.24158387277E+03  0.24801323627E+03  0.10000000000E+01 0.  0.
    9000005    1    3    3    0    0 -0.13147192942E+02  0.65947311213E+02  0.52736921223E+03  0.53164008742E+03  0.10000000000E+01 0.  0.
         21    1    1    2  502  501  0.28326848325E+02 -0.11943831288E+02  0.26001967187E+03  0.26183066131E+03  0.00000000000E+00 0.  1.
<mgrwt>
<rscale>  1 0.12872629E+03</rscale>
<asrwt>0</asrwt>
<pdfrwt beam="1">  1        4 0.15926577E+00 0.12872629E+03</pdfrwt>
<pdfrwt beam="2">  1       -4 0.96240298E-03 0.12872629E+03</pdfrwt>
<totfact> 0.13892715E+03</totfact>
</mgrwt>
</event>
<event>
 6    4  0.5642870E-004  0.1291877E+03  0.7818608E-02  0.1228666E+00
          4   -1    0    0  502    0  0.00000000000E+00  0.00000000000E+00  0.12442032028E+03  0.12442680177E+03  0.12700000000E+01 0.  1.
         -4   -1    0    0    0  501 -0.00000000000E+00 -0.00000000000E+00 -0.60044827720E+02  0.60058257017E+02  0.12700000000E+01 0.  1.
         25    2    1    2    0    0  0.30594079855E+02  0.11342105624E+02  0.22071256548E+02  0.13105950809E+03  0.12499925285E+03 0.  0.
    9000005    1    3    3    0    0  0.22267970664E+01  0.54178369119E+02  0.48958752168E+02  0.73063080413E+02  0.10000000000E+01 0.  0.
    9000005    1    3    3    0    0  0.28367282789E+02 -0.42836263495E+02 -0.26887495620E+02  0.57996427681E+02  0.10000000000E+01 0.  0.
         21    1    1    2  502  501 -0.30594079855E+02 -0.11342105624E+02  0.42304236008E+02  0.53425550688E+02  0.00000000000E+00 0.  1.
<mgrwt>
<rscale>  1 0.12918767E+03</rscale>
<asrwt>0</asrwt>
<pdfrwt beam="1">  1        4 0.19143119E-01 0.12918767E+03</pdfrwt>
<pdfrwt beam="2">  1       -4 0.92391975E-02 0.12918767E+03</pdfrwt>
<totfact> 0.34270816E+03</totfact>
</mgrwt>
</event>
<event>
 6    4  0.5642870E-004  0.1383102E+03  0.7818608E-02  0.1215621E+00
          4   -1    0    0  502    0  0.00000000000E+00  0.00000000000E+00  0.33331172559E+03  0.33331414509E+03  0.12700000000E+01 0. -1.
         -4   -1    0    0    0  501 -0.00000000000E+00 -0.00000000000E+00 -0.29251911293E+02  0.29279467452E+02  0.12700000000E+01 0. -1.
         25    2    1    2    0    0  0.58477426288E+02 -0.92066736168E+01  0.20994761261E+03  0.25141142543E+03  0.12500133028E+03 0.  0.
    9000005    1    3    3    0    0 -0.30550334560E+01 -0.58000025369E+02  0.10898663611E+03  0.12350070050E+03  0.10000000000E+01 0.  0.
    9000005    1    3    3    0    0  0.61532459744E+02  0.48793351752E+02  0.10096097650E+03  0.12791072494E+03  0.10000000000E+01 0.  0.
         21    1    1    2  502  501 -0.58477426288E+02  0.92066736168E+01  0.94112201680E+02  0.11118218710E+03  0.00000000000E+00 0. -1.
<mgrwt>
<rscale>  1 0.13831018E+03</rscale>
<asrwt>0</asrwt>
<pdfrwt beam="1">  1        4 0.51281033E-01 0.13831018E+03</pdfrwt>
<pdfrwt beam="2">  1       -4 0.45025998E-02 0.13831018E+03</pdfrwt>
<totfact> 0.17218983E+03</totfact>
</mgrwt>
</event>
<event>
 6    4  0.5642870E-004  0.1281099E+03  0.7818608E-02  0.1230288E+00
         -4   -1    0    0    0  501 -0.00000000000E+00  0.00000000000E+00  0.30780307946E+02  0.30806496997E+02  0.12700000000E+01 0. -1.
          4   -1    0    0  502    0  0.00000000000E+00 -0.00000000000E+00 -0.20843731871E+03  0.20844118770E+03  0.12700000000E+01 0. -1.
         25    2    1    2    0    0 -0.23634091189E+02 -0.15086513547E+02 -0.12190299525E+03  0.17684028608E+03  0.12500389342E+03 0.  0.
    9000005    1    3    3    0    0 -0.71765400283E+02 -0.29833372158E+02 -0.75973816672E+02  0.10868911441E+03  0.10000000000E+01 0.  0.
    9000005    1    3    3    0    0  0.48131309095E+02  0.14746858610E+02 -0.45929178579E+02  0.68151171663E+02  0.10000000000E+01 0.  0.
         21    1    1    2  502  501  0.23634091189E+02  0.15086513547E+02 -0.55754015514E+02  0.62407398626E+02  0.00000000000E+00 0.  1.
<mgrwt>
<rscale>  1 0.12810990E+03</rscale>
<asrwt>0</asrwt>
<pdfrwt beam="2">  1        4 0.32069591E-01 0.12810990E+03</pdfrwt>
<pdfrwt beam="1">  1       -4 0.47377443E-02 0.12810990E+03</pdfrwt>
<totfact> 0.39359032E+03</totfact>
</mgrwt>
</event>
<event>
 6    4  0.5642870E-004  0.1343787E+03  0.7818608E-02  0.1221099E+00
          4   -1    0    0  502    0  0.00000000000E+00  0.00000000000E+00  0.51398400699E+02  0.51414088481E+02  0.12700000000E+01 0.  1.
         -4   -1    0    0    0  501 -0.00000000000E+00 -0.00000000000E+00 -0.17368012255E+03  0.17368476579E+03  0.12700000000E+01 0.  1.
         25    2    1    2    0    0 -0.42711462899E+02  0.24649616280E+02 -0.11151512882E+03  0.17462319508E+03  0.12500305459E+03 0.  0.
    9000005    1    3    3    0    0 -0.38891196397E+02 -0.33604733064E+02 -0.10366229292E+03  0.11570943874E+03  0.10000000000E+01 0.  0.
    9000005    1    3    3    0    0 -0.38202665021E+01  0.58254349344E+02 -0.78528359058E+01  0.58913756334E+02  0.10000000000E+01 0.  0.
         21    1    1    2  502  501  0.42711462899E+02 -0.24649616280E+02 -0.10766593025E+02  0.50475659194E+02  0.00000000000E+00 0. -1.
<mgrwt>
<rscale>  1 0.13437870E+03</rscale>
<asrwt>0</asrwt>
<pdfrwt beam="1">  1        4 0.79090103E-02 0.13437870E+03</pdfrwt>
<pdfrwt beam="2">  1       -4 0.26721583E-01 0.13437870E+03</pdfrwt>
<totfact> 0.24384743E+03</totfact>
</mgrwt>
</event>
<event>
 6    4  0.5642870E-004  0.1267152E+03  0.7818608E-02  0.1232413E+00
         -4   -1    0    0    0  501 -0.00000000000E+00  0.00000000000E+00  0.11010032106E+04  0.11010039431E+04  0.12700000000E+01 0.  1.
          4   -1    0    0  502    0  0.00000000000E+00 -0.00000000000E+00 -0.51267029209E+01  0.52816647791E+01  0.12700000000E+01 0.  1.
         25    2    1    2    0    0  0.15776451916E+02  0.13523517700E+02  0.83223470608E+03  0.84182619411E+03  0.12499981245E+03 0.  0.
    9000005    1    3    3    0    0 -0.27992212064E+02 -0.45135320825E+02  0.38338053153E+03  0.38704314110E+03  0.10000000000E+01 0.  0.
    9000005    1    3    3    0    0  0.43768663979E+02  0.58658838524E+02  0.44885417456E+03  0.45478305300E+03  0.10000000000E+01 0.  0.
         21    1    1    2  502  501 -0.15776451916E+02 -0.13523517700E+02  0.26364180161E+03  0.26445941376E+03  0.00000000000E+00 0. -1.
<mgrwt>
<rscale>  1 0.12671517E+03</rscale>
<asrwt>0</asrwt>
<pdfrwt beam="2">  1        4 0.80069943E-03 0.12671517E+03</pdfrwt>
<pdfrwt beam="1">  1       -4 0.16939721E+00 0.12671517E+03</pdfrwt>
<totfact> 0.15516006E+03</totfact>
</mgrwt>
</event>
<event>
 6    4  0.5642870E-004  0.1295238E+03  0.7818608E-02  0.1228164E+00
         -4   -1    0    0    0  501 -0.00000000000E+00  0.00000000000E+00  0.43944063325E+03  0.43944246842E+03  0.12700000000E+01 0.  1.
          4   -1    0    0  502    0  0.00000000000E+00 -0.00000000000E+00 -0.29780992642E+02  0.29808059695E+02  0.12700000000E+01 0.  1.
         25    2    1    2    0    0 -0.28463385781E+02 -0.18504292645E+02  0.41512644125E+03  0.43486362529E+03  0.12499534873E+03 0.  0.
    9000005    1    3    3    0    0  0.30736360193E+00 -0.44677158238E+02  0.37945933011E+03  0.38208183175E+03  0.10000000000E+01 0.  0.
    9000005    1    3    3    0    0 -0.28770749383E+02  0.26172865593E+02  0.35667111134E+02  0.52781793547E+02  0.10000000000E+01 0.  0.
         21    1    1    2  502  501  0.28463385781E+02  0.18504292645E+02 -0.54668006404E+01  0.34386902821E+02  0.00000000000E+00 0.  1.
<mgrwt>
<rscale>  1 0.12952378E+03</rscale>
<asrwt>0</asrwt>
<pdfrwt beam="2">  1        4 0.45839143E-02 0.12952378E+03</pdfrwt>
<pdfrwt beam="1">  1       -4 0.67608476E-01 0.12952378E+03</pdfrwt>
<totfact> 0.92513889E+02</totfact>
</mgrwt>
</event>
<event>
 6    4  0.5642870E-004  0.1287020E+03  0.7818608E-02  0.1229395E+00
         -4   -1    0    0    0  501 -0.00000000000E+00  0.00000000000E+00  0.10456835372E+04  0.10456843084E+04  0.12700000000E+01 0. -1.
          4   -1    0    0  502    0  0.00000000000E+00 -0.00000000000E+00 -0.82570193103E+01  0.83541168229E+01  0.12700000000E+01 0. -1.
         25    2    1    2    0    0 -0.37537548094E+01  0.30419525269E+02  0.51947392223E+03  0.53517974550E+03  0.12499906369E+03 0.  0.
    9000005    1    3    3    0    0  0.34268573099E+02  0.32313518899E+02  0.47187622915E+03  0.47422217814E+03  0.10000000000E+01 0.  0.
    9000005    1    3    3    0    0 -0.38022327908E+02 -0.18939936293E+01  0.47597693080E+02  0.60957567356E+02  0.10000000000E+01 0.  0.
         21    1    1    2  502  501  0.37537548094E+01 -0.30419525269E+02  0.51795259565E+03  0.51885867973E+03  0.00000000000E+00 0. -1.
<mgrwt>
<rscale>  1 0.12870200E+03</rscale>
<asrwt>0</asrwt>
<pdfrwt beam="2">  1        4 0.12778391E-02 0.12870200E+03</pdfrwt>
<pdfrwt beam="1">  1       -4 0.16088191E+00 0.12870200E+03</pdfrwt>
<totfact> 0.88229488E+02</totfact>
</mgrwt>
</event>
<event>
 6    4  0.5642870E-004  0.1304615E+03  0.7818608E-02  0.1226773E+00
          4   -1    0    0  502    0  0.00000000000E+00  0.00000000000E+00  0.28927152809E+03  0.28927431594E+03  0.12700000000E+01 0.  1.
         -4   -1    0    0    0  501 -0.00000000000E+00 -0.00000000000E+00 -0.27522242503E+02  0.27551528677E+02  0.12700000000E+01 0.  1.
         25    2    1    2    0    0  0.11750576129E+02 -0.35554042560E+02  0.14911350930E+03  0.19812881819E+03  0.12497209273E+03 0.  0.
    9000005    1    3    3    0    0  0.20883377065E+02 -0.26055171380E+01  0.16065349992E+03  0.16202916772E+03  0.10000000000E+01 0.  0.
    9000005    1    3    3    0    0 -0.91328009362E+01 -0.32948525422E+02 -0.11539990622E+02  0.36099650469E+02  0.10000000000E+01 0.  0.
         21    1    1    2  502  501 -0.11750576129E+02  0.35554042560E+02  0.11263577629E+03  0.11869702643E+03  0.00000000000E+00 0.  1.
<mgrwt>
<rscale>  1 0.13046145E+03</rscale>
<asrwt>0</asrwt>
<pdfrwt beam="1">  1        4 0.44505777E-01 0.13046145E+03</pdfrwt>
<pdfrwt beam="2">  1       -4 0.42366586E-02 0.13046145E+03</pdfrwt>
<totfact> 0.24942118E+03</totfact>
</mgrwt>
</event>
<event>
 6    4  0.5642870E-004  0.1277177E+03  0.7818608E-02  0.1230882E+00
         -4   -1    0    0    0  501 -0.00000000000E+00  0.00000000000E+00  0.24771978219E+02  0.24804511785E+02  0.12700000000E+01 0.  1.
          4   -1    0    0  502    0  0.00000000000E+00 -0.00000000000E+00 -0.25146118112E+03  0.25146438815E+03  0.12700000000E+01 0.  1.
         25    2    1    2    0    0 -0.22290359884E+02 -0.13776996677E+02 -0.16072767513E+03  0.20529292564E+03  0.12500053594E+03 0.  0.
    9000005    1    3    3    0    0  0.10632987233E+02 -0.37363284316E+02 -0.16012827300E+03  0.16477602753E+03  0.10000000000E+01 0.  0.
    9000005    1    3    3    0    0 -0.32923347116E+02  0.23586287639E+02 -0.59940212215E+00  0.40516898114E+02  0.10000000000E+01 0.  0.
         21    1    1    2  502  501  0.22290359884E+02  0.13776996677E+02 -0.65961527769E+02  0.70975974293E+02  0.00000000000E+00 0. -1.
<mgrwt>
<rscale>  1 0.12771766E+03</rscale>
<asrwt>0</asrwt>
<pdfrwt beam="2">  1        4 0.38689083E-01 0.12771766E+03</pdfrwt>
<pdfrwt beam="1">  1       -4 0.38138230E-02 0.12771766E+03</pdfrwt>
<totfact> 0.38672672E+03</totfact>
</mgrwt>
</event>
<event>
 6    4  0.5642870E-004  0.1310221E+03  0.7818608E-02  0.1225947E+00
          4   -1    0    0  502    0  0.00000000000E+00  0.00000000000E+00  0.31684918899E+02  0.31710360857E+02  0.12700000000E+01 0. -1.
         -4   -1    0    0    0  501 -0.00000000000E+00 -0.00000000000E+00 -0.31320611594E+03  0.31320869075E+03  0.12700000000E+01 0. -1.
         25    2    1    2    0    0  0.33956391933E+02  0.19705354042E+02 -0.27567413814E+03  0.30522616020E+03  0.12500176357E+03 0.  0.
    9000005    1    3    3    0    0 -0.43057744864E+02  0.15931047328E+01 -0.49613890312E+02  0.65719445276E+02  0.10000000000E+01 0.  0.
    9000005    1    3    3    0    0  0.77014136798E+02  0.18112249309E+02 -0.22606024783E+03  0.23950671492E+03  0.10000000000E+01 0.  0.
         21    1    1    2  502  501 -0.33956391933E+02 -0.19705354042E+02 -0.58470588983E+01  0.39692891414E+02  0.00000000000E+00 0. -1.
<mgrwt>
<rscale>  1 0.13102205E+03</rscale>
<asrwt>0</asrwt>
<pdfrwt beam="1">  1        4 0.48767583E-02 0.13102205E+03</pdfrwt>
<pdfrwt beam="2">  1       -4 0.48187709E-01 0.13102205E+03</pdfrwt>
<totfact> 0.16994219E+03</totfact>
</mgrwt>
</event>
<event>
 6    4  0.5642870E-004  0.1301183E+03  0.7818608E-02  0.1227280E+00
          4   -1    0    0  502    0  0.00000000000E+00  0.00000000000E+00  0.16587030875E+04  0.16587035737E+04  0.12700000000E+01 0.  1.
         -4   -1    0    0    0  501 -0.00000000000E+00 -0.00000000000E+00 -0.40848170052E+01  0.42776897931E+01  0.12700000000E+01 0.  1.
         25    2    1    2    0    0 -0.35943413954E+02  0.38570356331E+01  0.12519714620E+04  0.12587149427E+04  0.12499583827E+03 0.  0.
    9000005    1    3    3    0    0 -0.37803571596E+02  0.49249363883E+02  0.34076339649E+03  0.34637451156E+03  0.10000000000E+01 0.  0.
    9000005    1    3    3    0    0  0.18601576422E+01 -0.45392328250E+02  0.91120806553E+03  0.91234043116E+03  0.10000000000E+01 0.  0.
         21    1    1    2  502  501  0.35943413954E+02 -0.38570356331E+01  0.40264680851E+03  0.40426632080E+03  0.00000000000E+00 0. -1.
<mgrwt>
<rscale>  1 0.13011827E+03</rscale>
<asrwt>0</asrwt>
<pdfrwt beam="1">  1        4 0.25519992E+00 0.13011827E+03</pdfrwt>
<pdfrwt beam="2">  1       -4 0.64330726E-03 0.13011827E+03</pdfrwt>
<totfact> 0.64601516E+02</totfact>
</mgrwt>
</event>
<event>
 6    4  0.5642870E-004  0.1273521E+03  0.7818608E-02  0.1231438E+00
         -4   -1    0    0    0  501 -0.00000000000E+00  0.00000000000E+00  0.17459785277E+03  0.17460247161E+03  0.12700000000E+01 0. -1.
          4   -1    0    0  502    0  0.00000000000E+00 -0.00000000000E+00 -0.45436963635E+02  0.45454708935E+02  0.12700000000E+01 0. -1.
         25    2    1    2    0    0  0.15322529915E+02  0.18902672687E+02  0.14346188174E+03  0.19183291178E+03  0.12500585415E+03 0.  0.
    9000005    1    3    3    0    0 -0.32353352568E+01 -0.51671521483E+02  0.41058525865E+02  0.66084915622E+02  0.10000000000E+01 0.  0.
    9000005    1    3    3    0    0  0.18557865172E+02  0.70574194170E+02  0.10240335588E+03  0.12574799616E+03  0.10000000000E+01 0.  0.
         21    1    1    2  502  501 -0.15322529915E+02 -0.18902672687E+02 -0.14300992608E+02  0.28224268764E+02  0.00000000000E+00 0.  1.
<mgrwt>
<rscale>  1 0.12735209E+03</rscale>
<asrwt>0</asrwt>
<pdfrwt beam="2">  1        4 0.69920225E-02 0.12735209E+03</pdfrwt>
<pdfrwt beam="1">  1       -4 0.26862928E-01 0.12735209E+03</pdfrwt>
<totfact> 0.29208747E+03</totfact>
</mgrwt>
</event>
<event>
 6    4  0.5642870E-004  0.1273415E+03  0.7818608E-02  0.1231455E+00
         -4   -1    0    0    0  501 -0.00000000000E+00  0.00000000000E+00  0.16055768143E+03  0.16056270416E+03  0.12700000000E+01 0.  1.
          4   -1    0    0  502    0  0.00000000000E+00 -0.00000000000E+00 -0.39443291605E+02  0.39463732117E+02  0.12700000000E+01 0.  1.
         25    2    1    2    0    0  0.17165978181E+02 -0.17204041237E+02  0.12108984304E+03  0.17572313518E+03  0.12500088122E+03 0.  0.
    9000005    1    3    3    0    0  0.52447608863E+02 -0.45860607676E+02  0.10779697673E+03  0.12835550320E+03  0.10000000000E+01 0.  0.
    9000005    1    3    3    0    0 -0.35281630682E+02  0.28656566439E+02  0.13292866318E+02  0.47367631972E+02  0.10000000000E+01 0.  0.
         21    1    1    2  502  501 -0.17165978181E+02  0.17204041237E+02  0.24546783725E-01  0.24303301100E+02  0.00000000000E+00 0.  1.
<mgrwt>
<rscale>  1 0.12734155E+03</rscale>
<asrwt>0</asrwt>
<pdfrwt beam="2">  1        4 0.60701574E-02 0.12734155E+03</pdfrwt>
<pdfrwt beam="1">  1       -4 0.24703140E-01 0.12734155E+03</pdfrwt>
<totfact> 0.42959048E+03</totfact>
</mgrwt>
</event>
<event>
 6    4  0.5642870E-004  0.1266871E+03  0.7818608E-02  0.1232456E+00
         -4   -1    0    0    0  501 -0.00000000000E+00  0.00000000000E+00  0.33276353452E+03  0.33276595800E+03  0.12700000000E+01 0.  1.
          4   -1    0    0  502    0  0.00000000000E+00 -0.00000000000E+00 -0.16839607374E+02  0.16887429541E+02  0.12700000000E+01 0.  1.
         25    2    1    2    0    0 -0.14769330408E+02  0.14379230524E+02  0.24530021380E+03  0.27608298400E+03  0.12499889509E+03 0.  0.
    9000005    1    3    3    0    0  0.44834317380E+02  0.14773728234E+02  0.18637223492E+03  0.19226021172E+03  0.10000000000E+01 0.  0.
    9000005    1    3    3    0    0 -0.59603647788E+02 -0.39449770980E+00  0.58927978879E+02  0.83822772281E+02  0.10000000000E+01 0.  0.
         21    1    1    2  502  501  0.14769330408E+02 -0.14379230524E+02  0.70623713346E+02  0.73570403546E+02  0.00000000000E+00 0.  1.
<mgrwt>
<rscale>  1 0.12668709E+03</rscale>
<asrwt>0</asrwt>
<pdfrwt beam="2">  1        4 0.25945740E-02 0.12668709E+03</pdfrwt>
<pdfrwt beam="1">  1       -4 0.51198252E-01 0.12668709E+03</pdfrwt>
<totfact> 0.40345311E+03</totfact>
</mgrwt>
</event>
<event>
 6    4  0.5642870E-004  0.1287183E+03  0.7818608E-02  0.1229370E+00
          4   -1    0    0  502    0  0.00000000000E+00  0.00000000000E+00  0.37682759149E+02  0.37704154109E+02  0.12700000000E+01 0. -1.
         -4   -1    0    0    0  501 -0.00000000000E+00 -0.00000000000E+00 -0.21185563434E+03  0.21185944091E+03  0.12700000000E+01 0. -1.
         25    2    1    2    0    0  0.30352003134E+02 -0.46973679607E+01 -0.17685039682E+03  0.21873376397E+03  0.12500034915E+03 0.  0.
    9000005    1    3    3    0    0  0.58867065308E+02  0.31551677325E+02 -0.15268336448E+03  0.16665548149E+03  0.10000000000E+01 0.  0.
    9000005    1    3    3    0    0 -0.28515062174E+02 -0.36249045286E+02 -0.24167032331E+02  0.52078282485E+02  0.10000000000E+01 0.  0.
         21    1    1    2  502  501 -0.30352003134E+02  0.46973679607E+01  0.26775216244E+01  0.30829831042E+02  0.00000000000E+00 0. -1.
<mgrwt>
<rscale>  1 0.12871828E+03</rscale>
<asrwt>0</asrwt>
<pdfrwt beam="1">  1        4 0.57992863E-02 0.12871828E+03</pdfrwt>
<pdfrwt beam="2">  1       -4 0.32595112E-01 0.12871828E+03</pdfrwt>
<totfact> 0.27586821E+03</totfact>
</mgrwt>
</event>
<event>
 6    4  0.5642870E-004  0.1345083E+03  0.7818608E-02  0.1220915E+00
          4   -1    0    0  502    0  0.00000000000E+00  0.00000000000E+00  0.30402997484E+02  0.30429511269E+02  0.12700000000E+01 0.  1.
         -4   -1    0    0    0  501 -0.00000000000E+00 -0.00000000000E+00 -0.36950764642E+03  0.36950982892E+03  0.12700000000E+01 0.  1.
         25    2    1    2    0    0 -0.23535927532E+02 -0.43751268517E+02 -0.31926758886E+03  0.34644520654E+03  0.12499749780E+03 0.  0.
    9000005    1    3    3    0    0  0.37882168816E+01 -0.50163070815E+02 -0.36192721700E+02  0.61980620881E+02  0.10000000000E+01 0.  0.
    9000005    1    3    3    0    0 -0.27324144413E+02  0.64118022976E+01 -0.28307486716E+03  0.28446458566E+03  0.10000000000E+01 0.  0.
         21    1    1    2  502  501  0.23535927532E+02  0.43751268517E+02 -0.19837060076E+02  0.53494133642E+02  0.00000000000E+00 0.  1.
<mgrwt>
<rscale>  1 0.13450832E+03</rscale>
<asrwt>0</asrwt>
<pdfrwt beam="1">  1        4 0.46795919E-02 0.13450832E+03</pdfrwt>
<pdfrwt beam="2">  1       -4 0.56849534E-01 0.13450832E+03</pdfrwt>
<totfact> 0.13009357E+03</totfact>
</mgrwt>
</event>
<event>
 6    4  0.5642870E-004  0.1568328E+03  0.7818608E-02  0.1192320E+00
         -4   -1    0    0    0  501 -0.00000000000E+00  0.00000000000E+00  0.16564678855E+02  0.16613292437E+02  0.12700000000E+01 0. -1.
          4   -1    0    0  502    0  0.00000000000E+00 -0.00000000000E+00 -0.96180192697E+03  0.96180276544E+03  0.12700000000E+01 0. -1.
         25    2    1    2    0    0 -0.94390749055E+02 -0.72607689411E+01 -0.54353641961E+03  0.56571048741E+03  0.12503673004E+03 0.  0.
    9000005    1    3    3    0    0  0.81520422492E+00 -0.50347578881E+02 -0.22097973410E+03  0.22664639009E+03  0.10000000000E+01 0.  0.
    9000005    1    3    3    0    0 -0.95205953280E+02  0.43086809940E+02 -0.32255668551E+03  0.33906409733E+03  0.10000000000E+01 0.  0.
         21    1    1    2  502  501  0.94390749055E+02  0.72607689411E+01 -0.40170082850E+03  0.41270557047E+03  0.00000000000E+00 0. -1.
<mgrwt>
<rscale>  1 0.15683276E+03</rscale>
<asrwt>0</asrwt>
<pdfrwt beam="2">  1        4 0.14797329E+00 0.15683276E+03</pdfrwt>
<pdfrwt beam="1">  1       -4 0.25522169E-02 0.15683276E+03</pdfrwt>
<totfact> 0.39210986E+02</totfact>
</mgrwt>
</event>
<event>
 6    4  0.5642870E-004  0.1320065E+03  0.7818608E-02  0.1224508E+00
         -4   -1    0    0    0  501 -0.00000000000E+00  0.00000000000E+00  0.64061029784E+02  0.64073617324E+02  0.12700000000E+01 0. -1.
          4   -1    0    0  502    0  0.00000000000E+00 -0.00000000000E+00 -0.11916588278E+03  0.11917265005E+03  0.12700000000E+01 0. -1.
         25    2    1    2    0    0  0.10398942316E+02  0.41145077125E+02 -0.36894615331E+02  0.13706544745E+03  0.12499867548E+03 0.  0.
    9000005    1    3    3    0    0 -0.14158656628E+02  0.80101582122E+02 -0.59341679521E+01  0.81565589345E+02  0.10000000000E+01 0.  0.
    9000005    1    3    3    0    0  0.24557598944E+02 -0.38956504997E+02 -0.30960447379E+02  0.55499858102E+02  0.10000000000E+01 0.  0.
         21    1    1    2  502  501 -0.10398942316E+02 -0.41145077125E+02 -0.18210237666E+02  0.46180819923E+02  0.00000000000E+00 0. -1.
<mgrwt>
<rscale>  1 0.13200653E+03</rscale>
<asrwt>0</asrwt>
<pdfrwt beam="2">  1        4 0.18334702E-01 0.13200653E+03</pdfrwt>
<pdfrwt beam="1">  1       -4 0.98570319E-02 0.13200653E+03</pdfrwt>
<totfact> 0.33380087E+03</totfact>
</mgrwt>
</event>
<event>
 6    4  0.5642870E-004  0.1279394E+03  0.7818608E-02  0.1230546E+00
         -4   -1    0    0    0  501 -0.00000000000E+00  0.00000000000E+00  0.29211357396E+02  0.29238951776E+02  0.12700000000E+01 0. -1.
          4   -1    0    0  502    0  0.00000000000E+00 -0.00000000000E+00 -0.21526799343E+03  0.21527173966E+03  0.12700000000E+01 0. -1.
         25    2    1    2    0    0  0.11104686525E+01  0.27247637735E+02 -0.17033973458E+03  0.21303549654E+03  0.12499932281E+03 0.  0.
    9000005    1    3    3    0    0  0.19499596256E+02  0.15660924305E+02  0.13140536865E+02  0.28269639428E+02  0.10000000000E+01 0.  0.
    9000005    1    3    3    0    0 -0.18389127604E+02  0.11586713430E+02 -0.18348027145E+03  0.18476585711E+03  0.10000000000E+01 0.  0.
         21    1    1    2  502  501 -0.11104686525E+01 -0.27247637735E+02 -0.15716901453E+02  0.31475194901E+02  0.00000000000E+00 0. -1.
<mgrwt>
<rscale>  1 0.12793943E+03</rscale>
<asrwt>0</asrwt>
<pdfrwt beam="2">  1        4 0.33120563E-01 0.12793943E+03</pdfrwt>
<pdfrwt beam="1">  1       -4 0.44964659E-02 0.12793943E+03</pdfrwt>
<totfact> 0.40221774E+03</totfact>
</mgrwt>
</event>
<event>
 6    4  0.5642870E-004  0.1274244E+03  0.7818608E-02  0.1231328E+00
          4   -1    0    0  502    0  0.00000000000E+00  0.00000000000E+00  0.29756961527E+02  0.29784050419E+02  0.12700000000E+01 0.  1.
         -4   -1    0    0    0  501 -0.00000000000E+00 -0.00000000000E+00 -0.20763129371E+03  0.20763517772E+03  0.12700000000E+01 0.  1.
         25    2    1    2    0    0  0.10628604031E+02  0.22324557252E+02 -0.16785157730E+03  0.21073948497E+03  0.12500250174E+03 0.  0.
    9000005    1    3    3    0    0  0.64862151853E+02  0.31868223088E+02 -0.91703554255E+02  0.11676139880E+03  0.10000000000E+01 0.  0.
    9000005    1    3    3    0    0 -0.54233547822E+02 -0.95436658357E+01 -0.76148023048E+02  0.93978086174E+02  0.10000000000E+01 0.  0.
         21    1    1    2  502  501 -0.10628604031E+02 -0.22324557252E+02 -0.10022754876E+02  0.26679743167E+02  0.00000000000E+00 0. -1.
<mgrwt>
<rscale>  1 0.12742440E+03</rscale>
<asrwt>0</asrwt>
<pdfrwt beam="1">  1        4 0.45803767E-02 0.12742440E+03</pdfrwt>
<pdfrwt beam="2">  1       -4 0.31945658E-01 0.12742440E+03</pdfrwt>
<totfact> 0.41795781E+03</totfact>
</mgrwt>
</event>
<event>
 6    4  0.5642870E-004  0.1297872E+03  0.7818608E-02  0.1227772E+00
         -4   -1    0    0    0  501 -0.00000000000E+00  0.00000000000E+00  0.13917182552E+03  0.13917762004E+03  0.12700000000E+01 0.  1.
          4   -1    0    0  502    0  0.00000000000E+00 -0.00000000000E+00 -0.55291885821E+02  0.55306469221E+02  0.12700000000E+01 0.  1.
         25    2    1    2    0    0  0.29219882436E+02  0.19126647013E+02  0.91424775779E+02  0.15875518350E+03  0.12500035402E+03 0.  0.
    9000005    1    3    3    0    0  0.14473546654E+02  0.52639994413E+02 -0.57518872220E+01  0.54904797342E+02  0.10000000000E+01 0.  0.
    9000005    1    3    3    0    0  0.14746335782E+02 -0.33513347400E+02  0.97176663001E+02  0.10385038616E+03  0.10000000000E+01 0.  0.
         21    1    1    2  502  501 -0.29219882436E+02 -0.19126647013E+02 -0.75448360752E+01  0.35728905762E+02  0.00000000000E+00 0. -1.
<mgrwt>
<rscale>  1 0.12978721E+03</rscale>
<asrwt>0</asrwt>
<pdfrwt beam="2">  1        4 0.85080116E-02 0.12978721E+03</pdfrwt>
<pdfrwt beam="1">  1       -4 0.21412617E-01 0.12978721E+03</pdfrwt>
<totfact> 0.32177480E+03</totfact>
</mgrwt>
</event>
<event>
 6    4  0.5642870E-004  0.1353597E+03  0.7818608E-02  0.1219713E+00
         -4   -1    0    0    0  501 -0.00000000000E+00  0.00000000000E+00  0.18211792367E+02  0.18256020410E+02  0.12700000000E+01 0. -1.
          4   -1    0    0  502    0  0.00000000000E+00 -0.00000000000E+00 -0.48336873785E+03  0.48337040624E+03  0.12700000000E+01 0. -1.
         25    2    1    2    0    0  0.25859769074E+02 -0.45039046393E+02 -0.31964759405E+03  0.34712654086E+03  0.12500003051E+03 0.  0.
    9000005    1    3    3    0    0  0.21514392230E+02  0.59712825204E+01  0.10423585762E+01  0.22374355843E+02  0.10000000000E+01 0.  0.
    9000005    1    3    3    0    0  0.43453768438E+01 -0.51010328914E+02 -0.32068995262E+03  0.32475218501E+03  0.10000000000E+01 0.  0.
         21    1    1    2  502  501 -0.25859769074E+02  0.45039046393E+02 -0.14550935143E+03  0.15449988579E+03  0.00000000000E+00 0.  1.
<mgrwt>
<rscale>  1 0.13535971E+03</rscale>
<asrwt>0</asrwt>
<pdfrwt beam="2">  1        4 0.74367942E-01 0.13535971E+03</pdfrwt>
<pdfrwt beam="1">  1       -4 0.28053451E-02 0.13535971E+03</pdfrwt>
<totfact> 0.16506621E+03</totfact>
</mgrwt>
</event>
<event>
 6    4  0.5642870E-004  0.1267607E+03  0.7818608E-02  0.1232343E+00
         -4   -1    0    0    0  501 -0.00000000000E+00  0.00000000000E+00  0.45021044638E+02  0.45038953810E+02  0.12700000000E+01 0. -1.
          4   -1    0    0  502    0  0.00000000000E+00 -0.00000000000E+00 -0.14619981243E+03  0.14620532841E+03  0.12700000000E+01 0. -1.
         25    2    1    2    0    0  0.56437058977E+01  0.20285784166E+02 -0.50652790122E+02  0.13650637145E+03  0.12499967938E+03 0.  0.
    9000005    1    3    3    0    0  0.49672653314E+02  0.51730094861E+02 -0.36959985817E+02  0.80687147385E+02  0.10000000000E+01 0.  0.
    9000005    1    3    3    0    0 -0.44028947416E+02 -0.31444310695E+02 -0.13692804306E+02  0.55819224067E+02  0.10000000000E+01 0.  0.
         21    1    1    2  502  501 -0.56437058977E+01 -0.20285784166E+02 -0.50525977675E+02  0.54737910770E+02  0.00000000000E+00 0.  1.
<mgrwt>
<rscale>  1 0.12676074E+03</rscale>
<asrwt>0</asrwt>
<pdfrwt beam="2">  1        4 0.22494081E-01 0.12676074E+03</pdfrwt>
<pdfrwt beam="1">  1       -4 0.69281166E-02 0.12676074E+03</pdfrwt>
<totfact> 0.41056828E+03</totfact>
</mgrwt>
</event>
<event>
 6    4  0.5642870E-004  0.1288516E+03  0.7818608E-02  0.1229170E+00
          4   -1    0    0  502    0  0.00000000000E+00  0.00000000000E+00  0.31097328282E+02  0.31123250574E+02  0.12700000000E+01 0.  1.
         -4   -1    0    0    0  501 -0.00000000000E+00 -0.00000000000E+00 -0.22312583801E+03  0.22312945231E+03  0.12700000000E+01 0.  1.
         25    2    1    2    0    0  0.28199075378E+02  0.13517672653E+02 -0.17857842893E+03  0.22021125756E+03  0.12499930941E+03 0.  0.
    9000005    1    3    3    0    0 -0.30895785857E+02 -0.21974382341E+01 -0.14916242788E+03  0.15234765574E+03  0.10000000000E+01 0.  0.
    9000005    1    3    3    0    0  0.59094861235E+02  0.15715110887E+02 -0.29416001051E+02  0.67863601823E+02  0.10000000000E+01 0.  0.
         21    1    1    2  502  501 -0.28199075378E+02 -0.13517672653E+02 -0.13450080801E+02  0.34041445323E+02  0.00000000000E+00 0.  1.
<mgrwt>
<rscale>  1 0.12885163E+03</rscale>
<asrwt>0</asrwt>
<pdfrwt beam="1">  1        4 0.47864765E-02 0.12885163E+03</pdfrwt>
<pdfrwt beam="2">  1       -4 0.34329323E-01 0.12885163E+03</pdfrwt>
<totfact> 0.34037273E+03</totfact>
</mgrwt>
</event>
<event>
 6    4  0.5642870E-004  0.1290387E+03  0.7818608E-02  0.1228889E+00
         -4   -1    0    0    0  501 -0.00000000000E+00  0.00000000000E+00  0.24874723993E+03  0.24875048195E+03  0.12700000000E+01 0.  1.
          4   -1    0    0  502    0  0.00000000000E+00 -0.00000000000E+00 -0.26774944223E+02  0.26805046878E+02  0.12700000000E+01 0.  1.
         25    2    1    2    0    0 -0.32029862315E+02 -0.14547364947E+00  0.19419714094E+03  0.23315986320E+03  0.12500023605E+03 0.  0.
    9000005    1    3    3    0    0 -0.60596848457E+02  0.36390461631E+02  0.16182684058E+03  0.17659323337E+03  0.10000000000E+01 0.  0.
    9000005    1    3    3    0    0  0.28566986142E+02 -0.36535935281E+02  0.32370300363E+02  0.56566629824E+02  0.10000000000E+01 0.  0.
         21    1    1    2  502  501  0.32029862315E+02  0.14547364947E+00  0.27775154762E+02  0.42395665634E+02  0.00000000000E+00 0.  1.
<mgrwt>
<rscale>  1 0.12903872E+03</rscale>
<asrwt>0</asrwt>
<pdfrwt beam="2">  1        4 0.41217872E-02 0.12903872E+03</pdfrwt>
<pdfrwt beam="1">  1       -4 0.38271371E-01 0.12903872E+03</pdfrwt>
<totfact> 0.35013637E+03</totfact>
</mgrwt>
</event>
<event>
 6    4  0.5642870E-004  0.1458374E+03  0.7818608E-02  0.1205683E+00
          4   -1    0    0  502    0  0.00000000000E+00  0.00000000000E+00  0.35064754058E+02  0.35087745399E+02  0.12700000000E+01 0. -1.
         -4   -1    0    0    0  501 -0.00000000000E+00 -0.00000000000E+00 -0.55393803529E+03  0.55393949114E+03  0.12700000000E+01 0. -1.
         25    2    1    2    0    0  0.29622830293E+02  0.69040887457E+02 -0.48529998249E+03  0.50673919000E+03  0.12499750980E+03 0.  0.
    9000005    1    3    3    0    0 -0.29908238894E+02  0.68602147061E+02 -0.16824079629E+03  0.18413778230E+03  0.10000000000E+01 0.  0.
    9000005    1    3    3    0    0  0.59531069186E+02  0.43874039580E+00 -0.31705918620E+03  0.32260140769E+03  0.10000000000E+01 0.  0.
         21    1    1    2  502  501 -0.29622830293E+02 -0.69040887457E+02 -0.33573298746E+02  0.82288046544E+02  0.00000000000E+00 0.  1.
<mgrwt>
<rscale>  1 0.14583735E+03</rscale>
<asrwt>0</asrwt>
<pdfrwt beam="1">  1        4 0.53964585E-02 0.14583735E+03</pdfrwt>
<pdfrwt beam="2">  1       -4 0.85223110E-01 0.14583735E+03</pdfrwt>
<totfact> 0.43870394E+02</totfact>
</mgrwt>
</event>
<event>
 6    4  0.5642870E-004  0.1276196E+03  0.7818608E-02  0.1231031E+00
          4   -1    0    0  502    0  0.00000000000E+00  0.00000000000E+00  0.10052648053E+03  0.10053450247E+03  0.12700000000E+01 0. -1.
         -4   -1    0    0    0  501 -0.00000000000E+00 -0.00000000000E+00 -0.58439776954E+02  0.58453575002E+02  0.12700000000E+01 0. -1.
         25    2    1    2    0    0 -0.18589657857E+02 -0.17738505360E+02  0.34742527021E+02  0.13226417654E+03  0.12500615689E+03 0.  0.
    9000005    1    3    3    0    0 -0.46658225792E+02 -0.12059872137E+02 -0.33198015113E+02  0.58528102288E+02  0.10000000000E+01 0.  0.
    9000005    1    3    3    0    0  0.28068567936E+02 -0.56786332235E+01  0.67940542134E+02  0.73736074256E+02  0.10000000000E+01 0.  0.
         21    1    1    2  502  501  0.18589657857E+02  0.17738505360E+02  0.73441765527E+01  0.26723900929E+02  0.00000000000E+00 0. -1.
<mgrwt>
<rscale>  1 0.12761963E+03</rscale>
<asrwt>0</asrwt>
<pdfrwt beam="1">  1        4 0.15467291E-01 0.12761963E+03</pdfrwt>
<pdfrwt beam="2">  1       -4 0.89924136E-02 0.12761963E+03</pdfrwt>
<totfact> 0.52116895E+03</totfact>
</mgrwt>
</event>
<event>
 6    4  0.5642870E-004  0.1272758E+03  0.7818608E-02  0.1231555E+00
          4   -1    0    0  502    0  0.00000000000E+00  0.00000000000E+00  0.10407269124E+03  0.10408043987E+03  0.12700000000E+01 0.  1.
         -4   -1    0    0    0  501 -0.00000000000E+00 -0.00000000000E+00 -0.56027166641E+02  0.56041558702E+02  0.12700000000E+01 0.  1.
         25    2    1    2    0    0 -0.22004830639E+02  0.92040475069E+01  0.48663674016E+02  0.13626179801E+03  0.12502078774E+03 0.  0.
    9000005    1    3    3    0    0 -0.71376784120E+02  0.23522012401E+02  0.21832935826E+02  0.78266260071E+02  0.10000000000E+01 0.  0.
    9000005    1    3    3    0    0  0.49371953481E+02 -0.14317964894E+02  0.26830738190E+02  0.57995537941E+02  0.10000000000E+01 0.  0.
         21    1    1    2  502  501  0.22004830639E+02 -0.92040475069E+01 -0.61814941203E+00  0.23860200558E+02  0.00000000000E+00 0.  1.
<mgrwt>
<rscale>  1 0.12727578E+03</rscale>
<asrwt>0</asrwt>
<pdfrwt beam="1">  1        4 0.16012886E-01 0.12727578E+03</pdfrwt>
<pdfrwt beam="2">  1       -4 0.86212673E-02 0.12727578E+03</pdfrwt>
<totfact> 0.52577998E+03</totfact>
</mgrwt>
</event>
<event>
 6    4  0.5642870E-004  0.1272251E+03  0.7818608E-02  0.1231632E+00
          4   -1    0    0  502    0  0.00000000000E+00  0.00000000000E+00  0.22046830678E+04  0.22046834336E+04  0.12700000000E+01 0. -1.
         -4   -1    0    0    0  501 -0.00000000000E+00 -0.00000000000E+00 -0.24386475296E+01  0.27495275546E+01  0.12700000000E+01 0. -1.
         25    2    1    2    0    0 -0.23677165965E+02  0.78003276439E+00  0.17987381187E+04  0.18032318330E+04  0.12500002801E+03 0.  0.
    9000005    1    3    3    0    0 -0.24775678511E+02 -0.36829033437E+02  0.16183487153E+04  0.16189576203E+04  0.10000000000E+01 0.  0.
    9000005    1    3    3    0    0  0.10985125458E+01  0.37609066201E+02  0.18038940341E+03  0.18427421267E+03  0.10000000000E+01 0.  0.
         21    1    1    2  502  501  0.23677165965E+02 -0.78003276439E+00  0.40350630152E+03  0.40420112816E+03  0.00000000000E+00 0. -1.
<mgrwt>
<rscale>  1 0.12722509E+03</rscale>
<asrwt>0</asrwt>
<pdfrwt beam="1">  1        4 0.33920664E+00 0.12722509E+03</pdfrwt>
<pdfrwt beam="2">  1       -4 0.39911772E-03 0.12722509E+03</pdfrwt>
<totfact> 0.42468372E+02</totfact>
</mgrwt>
</event>
<event>
 6    4  0.5642870E-004  0.1296940E+03  0.7818608E-02  0.1227911E+00
          4   -1    0    0  502    0  0.00000000000E+00  0.00000000000E+00  0.45976233598E+03  0.45976409004E+03  0.12700000000E+01 0.  1.
         -4   -1    0    0    0  501 -0.00000000000E+00 -0.00000000000E+00 -0.14706901588E+02  0.14761634541E+02  0.12700000000E+01 0.  1.
         25    2    1    2    0    0 -0.33528019954E+02 -0.84561964335E+01  0.33820957266E+03  0.36222401689E+03  0.12499955197E+03 0.  0.
    9000005    1    3    3    0    0 -0.49530733855E+02  0.26520674599E+01  0.33908821751E+03  0.34269833136E+03  0.10000000000E+01 0.  0.
    9000005    1    3    3    0    0  0.16002713901E+02 -0.11108263893E+02 -0.87864484854E+00  0.19525685537E+02  0.10000000000E+01 0.  0.
         21    1    1    2  502  501  0.33528019954E+02  0.84561964335E+01  0.10684586173E+03  0.11230170769E+03  0.00000000000E+00 0.  1.
<mgrwt>
<rscale>  1 0.12969396E+03</rscale>
<asrwt>0</asrwt>
<pdfrwt beam="1">  1        4 0.70737007E-01 0.12969396E+03</pdfrwt>
<pdfrwt beam="2">  1       -4 0.22669456E-02 0.12969396E+03</pdfrwt>
<totfact> 0.25377458E+03</totfact>
</mgrwt>
</event>
<event>
 6    4  0.5642870E-004  0.1283479E+03  0.7818608E-02  0.1229928E+00
          4   -1    0    0  502    0  0.00000000000E+00  0.00000000000E+00  0.48278506914E+02  0.48295208146E+02  0.12700000000E+01 0.  1.
         -4   -1    0    0    0  501 -0.00000000000E+00 -0.00000000000E+00 -0.27734055467E+03  0.27734346246E+03  0.12700000000E+01 0.  1.
         25    2    1    2    0    0  0.11747728934E+02  0.26601802844E+02 -0.25576228853E+03  0.28615996866E+03  0.12501005713E+03 0.  0.
    9000005    1    3    3    0    0 -0.50908553373E+02  0.20569817195E+02 -0.17703708594E+03  0.18535891665E+03  0.10000000000E+01 0.  0.
    9000005    1    3    3    0    0  0.62656282307E+02  0.60319856492E+01 -0.78725202590E+02  0.10080105201E+03  0.10000000000E+01 0.  0.
         21    1    1    2  502  501 -0.11747728934E+02 -0.26601802844E+02  0.26700240768E+02  0.39478701938E+02  0.00000000000E+00 0.  1.
<mgrwt>
<rscale>  1 0.12834788E+03</rscale>
<asrwt>0</asrwt>
<pdfrwt beam="1">  1        4 0.74289712E-02 0.12834788E+03</pdfrwt>
<pdfrwt beam="2">  1       -4 0.42669285E-01 0.12834788E+03</pdfrwt>
<totfact> 0.10894465E+03</totfact>
</mgrwt>
</event>
<event>
 6    4  0.5642870E-004  0.1272397E+03  0.7818608E-02  0.1231610E+00
          4   -1    0    0  502    0  0.00000000000E+00  0.00000000000E+00  0.40865345109E+03  0.40865542452E+03  0.12700000000E+01 0. -1.
         -4   -1    0    0    0  501 -0.00000000000E+00 -0.00000000000E+00 -0.13939256010E+02  0.13996991037E+02  0.12700000000E+01 0. -1.
         25    2    1    2    0    0  0.98580411964E+01  0.21673436593E+02  0.32784706988E+03  0.35167262081E+03  0.12499204841E+03 0.  0.
    9000005    1    3    3    0    0  0.53203090544E+02  0.49236768445E+02  0.23003450189E+03  0.24118810142E+03  0.10000000000E+01 0.  0.
    9000005    1    3    3    0    0 -0.43345049348E+02 -0.27563331853E+02  0.97812567997E+02  0.11048451939E+03  0.10000000000E+01 0.  0.
         21    1    1    2  502  501 -0.98580411964E+01 -0.21673436593E+02  0.66867125198E+02  0.70979794746E+02  0.00000000000E+00 0. -1.
<mgrwt>
<rscale>  1 0.12723966E+03</rscale>
<asrwt>0</asrwt>
<pdfrwt beam="1">  1        4 0.62874344E-01 0.12723966E+03</pdfrwt>
<pdfrwt beam="2">  1       -4 0.21490942E-02 0.12723966E+03</pdfrwt>
<totfact> 0.35286025E+03</totfact>
</mgrwt>
</event>
<event>
 6    4  0.5642870E-004  0.1280783E+03  0.7818608E-02  0.1230335E+00
          4   -1    0    0  502    0  0.00000000000E+00  0.00000000000E+00  0.11636871079E+04  0.11636878009E+04  0.12700000000E+01 0. -1.
         -4   -1    0    0    0  501 -0.00000000000E+00 -0.00000000000E+00 -0.66739124809E+01  0.67936741019E+01  0.12700000000E+01 0. -1.
         25    2    1    2    0    0  0.16335738455E+02  0.22636986262E+02  0.63859549907E+03  0.65131271884E+03  0.12499902717E+03 0.  0.
    9000005    1    3    3    0    0 -0.44145178773E+02  0.26536058005E+01  0.45164858375E+03  0.45380974167E+03  0.10000000000E+01 0.  0.
    9000005    1    3    3    0    0  0.60480917229E+02  0.19983380462E+02  0.18694691532E+03  0.19750297717E+03  0.10000000000E+01 0.  0.
         21    1    1    2  502  501 -0.16335738455E+02 -0.22636986262E+02  0.51841769636E+03  0.51916875618E+03  0.00000000000E+00 0.  1.
<mgrwt>
<rscale>  1 0.12807828E+03</rscale>
<asrwt>0</asrwt>
<pdfrwt beam="1">  1        4 0.17903802E+00 0.12807828E+03</pdfrwt>
<pdfrwt beam="2">  1       -4 0.10360217E-02 0.12807828E+03</pdfrwt>
<totfact> 0.91092140E+02</totfact>
</mgrwt>
</event>
<event>
 6    4  0.5642870E-004  0.1271028E+03  0.7818608E-02  0.1231819E+00
          4   -1    0    0  502    0  0.00000000000E+00  0.00000000000E+00  0.50772184042E+03  0.50772342879E+03  0.12700000000E+01 0. -1.
         -4   -1    0    0    0  501 -0.00000000000E+00 -0.00000000000E+00 -0.11057844440E+02  0.11130535641E+02  0.12700000000E+01 0. -1.
         25    2    1    2    0    0  0.22989293289E+02 -0.10101151215E+01  0.42033089404E+03  0.43912774296E+03  0.12500234482E+03 0.  0.
    9000005    1    3    3    0    0  0.41927383714E+02  0.54195552627E+02  0.23928693453E+03  0.24890620817E+03  0.10000000000E+01 0.  0.
    9000005    1    3    3    0    0 -0.18938090426E+02 -0.55205667749E+02  0.18104395952E+03  0.19022153479E+03  0.10000000000E+01 0.  0.
         21    1    1    2  502  501 -0.22989293289E+02  0.10101151215E+01  0.76333101940E+02  0.79726221472E+02  0.00000000000E+00 0.  1.
<mgrwt>
<rscale>  1 0.12710277E+03</rscale>
<asrwt>0</asrwt>
<pdfrwt beam="1">  1        4 0.78116767E-01 0.12710277E+03</pdfrwt>
<pdfrwt beam="2">  1       -4 0.17069206E-02 0.12710277E+03</pdfrwt>
<totfact> 0.31474931E+03</totfact>
</mgrwt>
</event>
<event>
 6    4  0.5642870E-004  0.1273809E+03  0.7818608E-02  0.1231395E+00
         -4   -1    0    0    0  501 -0.00000000000E+00  0.00000000000E+00  0.14007387654E+02  0.14064843010E+02  0.12700000000E+01 0.  1.
          4   -1    0    0  502    0  0.00000000000E+00 -0.00000000000E+00 -0.94165479352E+03  0.94165564993E+03  0.12700000000E+01 0.  1.
         25    2    1    2    0    0 -0.24524092422E+02  0.35679317771E+00 -0.28004922473E+03  0.30765802480E+03  0.12499733414E+03 0.  0.
    9000005    1    3    3    0    0 -0.73983660080E+02 -0.37232949959E+01 -0.20205117934E+03  0.21520484186E+03  0.10000000000E+01 0.  0.
    9000005    1    3    3    0    0  0.49459567657E+02  0.40800881736E+01 -0.77998045389E+02  0.92453182946E+02  0.10000000000E+01 0.  0.
         21    1    1    2  502  501  0.24524092422E+02 -0.35679317771E+00 -0.64759818113E+03  0.64806246814E+03  0.00000000000E+00 0.  1.
<mgrwt>
<rscale>  1 0.12738089E+03</rscale>
<asrwt>0</asrwt>
<pdfrwt beam="2">  1        4 0.14487440E+00 0.12738089E+03</pdfrwt>
<pdfrwt beam="1">  1       -4 0.21594690E-02 0.12738089E+03</pdfrwt>
<totfact> 0.51623450E+02</totfact>
</mgrwt>
</event>
<event>
 6    4  0.5642870E-004  0.1265913E+03  0.7818608E-02  0.1232603E+00
          4   -1    0    0  502    0  0.00000000000E+00  0.00000000000E+00  0.79159436149E+02  0.79169623161E+02  0.12700000000E+01 0.  1.
         -4   -1    0    0    0  501 -0.00000000000E+00 -0.00000000000E+00 -0.72696203085E+02  0.72707295665E+02  0.12700000000E+01 0.  1.
         25    2    1    2    0    0  0.19929231728E+02 -0.22138020359E+01 -0.84716305408E+01  0.12687441200E+03  0.12499309061E+03 0.  0.
    9000005    1    3    3    0    0  0.17570557895E+01  0.53339039167E+02  0.25613919124E+02  0.59204840994E+02  0.10000000000E+01 0.  0.
    9000005    1    3    3    0    0  0.18172175939E+02 -0.55552841203E+02 -0.34085549664E+02  0.67669571005E+02  0.10000000000E+01 0.  0.
         21    1    1    2  502  501 -0.19929231728E+02  0.22138020359E+01  0.14934863605E+02  0.25002506827E+02  0.00000000000E+00 0. -1.
<mgrwt>
<rscale>  1 0.12659126E+03</rscale>
<asrwt>0</asrwt>
<pdfrwt beam="1">  1        4 0.12180012E-01 0.12659126E+03</pdfrwt>
<pdfrwt beam="2">  1       -4 0.11185668E-01 0.12659126E+03</pdfrwt>
<totfact> 0.54448228E+03</totfact>
</mgrwt>
</event>
<event>
 6    4  0.5642870E-004  0.1373789E+03  0.7818608E-02  0.1216900E+00
          4   -1    0    0  502    0  0.00000000000E+00  0.00000000000E+00  0.11193096807E+02  0.11264915274E+02  0.12700000000E+01 0.  1.
         -4   -1    0    0    0  501 -0.00000000000E+00 -0.00000000000E+00 -0.90414965122E+03  0.90415054316E+03  0.12700000000E+01 0.  1.
         25    2    1    2    0    0  0.56942329352E+02  0.23491310892E+01 -0.72912770057E+03  0.74195698894E+03  0.12500008964E+03 0.  0.
    9000005    1    3    3    0    0 -0.17814686584E+01 -0.54687701608E+02 -0.25416621471E+03  0.25999112107E+03  0.10000000000E+01 0.  0.
    9000005    1    3    3    0    0  0.58723798010E+02  0.57036832697E+02 -0.47496148586E+03  0.48196586786E+03  0.10000000000E+01 0.  0.
         21    1    1    2  502  501 -0.56942329352E+02 -0.23491310892E+01 -0.16382885385E+03  0.17345846950E+03  0.00000000000E+00 0.  1.
<mgrwt>
<rscale>  1 0.13737893E+03</rscale>
<asrwt>0</asrwt>
<pdfrwt beam="1">  1        4 0.17276087E-02 0.13737893E+03</pdfrwt>
<pdfrwt beam="2">  1       -4 0.13910548E+00 0.13737893E+03</pdfrwt>
<totfact> 0.81758489E+02</totfact>
</mgrwt>
</event>
<event>
 6    4  0.5642870E-004  0.1427019E+03  0.7818608E-02  0.1209739E+00
         -4   -1    0    0    0  501 -0.00000000000E+00  0.00000000000E+00  0.69188911484E+02  0.69200566271E+02  0.12700000000E+01 0. -1.
          4   -1    0    0  502    0  0.00000000000E+00 -0.00000000000E+00 -0.17718974567E+03  0.17719429695E+03  0.12700000000E+01 0. -1.
         25    2    1    2    0    0  0.47415336591E+02 -0.49908939112E+02 -0.10557598943E+03  0.17751093026E+03  0.12499889788E+03 0.  0.
    9000005    1    3    3    0    0  0.23944866251E+02 -0.17231415587E+02  0.26359365075E+02  0.39573910977E+02  0.10000000000E+01 0.  0.
    9000005    1    3    3    0    0  0.23470470341E+02 -0.32677523525E+02 -0.13193535450E+03  0.13793701929E+03  0.10000000000E+01 0.  0.
         21    1    1    2  502  501 -0.47415336591E+02  0.49908939112E+02 -0.24248447591E+01  0.68883932956E+02  0.00000000000E+00 0. -1.
<mgrwt>
<rscale>  1 0.14270193E+03</rscale>
<asrwt>0</asrwt>
<pdfrwt beam="2">  1        4 0.27261207E-01 0.14270193E+03</pdfrwt>
<pdfrwt beam="1">  1       -4 0.10645695E-01 0.14270193E+03</pdfrwt>
<totfact> 0.14471651E+03</totfact>
</mgrwt>
</event>
<event>
 6    4  0.5642870E-004  0.1399509E+03  0.7818608E-02  0.1213395E+00
          4   -1    0    0  502    0  0.00000000000E+00  0.00000000000E+00  0.53803009289E+02  0.53817996140E+02  0.12700000000E+01 0.  1.
         -4   -1    0    0    0  501 -0.00000000000E+00 -0.00000000000E+00 -0.17995691077E+04  0.17995695558E+04  0.12700000000E+01 0.  1.
         25    2    1    2    0    0 -0.61874609979E+02 -0.11481182812E+02 -0.17774359377E+04  0.17829371180E+04  0.12500387637E+03 0.  0.
    9000005    1    3    3    0    0 -0.52738209681E+02 -0.63407849853E+02 -0.12959480961E+04  0.12985701144E+04  0.10000000000E+01 0.  0.
    9000005    1    3    3    0    0 -0.91364002984E+01  0.51926667041E+02 -0.48148784166E+03  0.48436700365E+03  0.10000000000E+01 0.  0.
         21    1    1    2  502  501  0.61874609979E+02  0.11481182812E+02  0.31669839345E+02  0.70450433945E+02  0.00000000000E+00 0.  1.
<mgrwt>
<rscale>  1 0.13995090E+03</rscale>
<asrwt>0</asrwt>
<pdfrwt beam="1">  1        4 0.82785747E-02 0.13995090E+03</pdfrwt>
<pdfrwt beam="2">  1       -4 0.27685793E+00 0.13995090E+03</pdfrwt>
<totfact> 0.91604818E+00</totfact>
</mgrwt>
</event>
<event>
 6    4  0.5642870E-004  0.1274281E+03  0.7818608E-02  0.1231323E+00
          4   -1    0    0  502    0  0.00000000000E+00  0.00000000000E+00  0.46481322763E+02  0.46498669506E+02  0.12700000000E+01 0. -1.
         -4   -1    0    0    0  501 -0.00000000000E+00 -0.00000000000E+00 -0.12506599918E+03  0.12507244721E+03  0.12700000000E+01 0. -1.
         25    2    1    2    0    0  0.22951779859E+02 -0.91134805014E+01 -0.61142834993E+02  0.14133773189E+03  0.12501227324E+03 0.  0.
    9000005    1    3    3    0    0  0.75740070249E+01 -0.24302569205E+02  0.34719918078E+02  0.43063362197E+02  0.10000000000E+01 0.  0.
    9000005    1    3    3    0    0  0.15377772834E+02  0.15189088703E+02 -0.95862753071E+02  0.98274369697E+02  0.10000000000E+01 0.  0.
         21    1    1    2  502  501 -0.22951779859E+02  0.91134805014E+01 -0.17441841426E+02  0.30233384823E+02  0.00000000000E+00 0. -1.
<mgrwt>
<rscale>  1 0.12742805E+03</rscale>
<asrwt>0</asrwt>
<pdfrwt beam="1">  1        4 0.71528032E-02 0.12742805E+03</pdfrwt>
<pdfrwt beam="2">  1       -4 0.19242753E-01 0.12742805E+03</pdfrwt>
<totfact> 0.51710231E+03</totfact>
</mgrwt>
</event>
<event>
 6    4  0.5642870E-004  0.1341914E+03  0.7818608E-02  0.1221366E+00
         -4   -1    0    0    0  501 -0.00000000000E+00  0.00000000000E+00  0.18645962859E+03  0.18646395361E+03  0.12700000000E+01 0.  1.
          4   -1    0    0  502    0  0.00000000000E+00 -0.00000000000E+00 -0.52257340034E+02  0.52272770038E+02  0.12700000000E+01 0.  1.
         25    2    1    2    0    0 -0.35950263824E+02 -0.33009689016E+02  0.13440998273E+03  0.18992991905E+03  0.12500107862E+03 0.  0.
    9000005    1    3    3    0    0  0.38324749979E+02 -0.18012587210E+00  0.88947282118E+02  0.96857823135E+02  0.10000000000E+01 0.  0.
    9000005    1    3    3    0    0 -0.74275013803E+02 -0.32829563144E+02  0.45462700609E+02  0.93072095917E+02  0.10000000000E+01 0.  0.
         21    1    1    2  502  501  0.35950263824E+02  0.33009689016E+02 -0.20769416730E+00  0.48806804595E+02  0.00000000000E+00 0.  1.
<mgrwt>
<rscale>  1 0.13419140E+03</rscale>
<asrwt>0</asrwt>
<pdfrwt beam="2">  1        4 0.80411103E-02 0.13419140E+03</pdfrwt>
<pdfrwt beam="1">  1       -4 0.28687616E-01 0.13419140E+03</pdfrwt>
<totfact> 0.20769265E+03</totfact>
</mgrwt>
</event>
<event>
 6    4  0.5642870E-004  0.1274410E+03  0.7818608E-02  0.1231303E+00
         -4   -1    0    0    0  501 -0.00000000000E+00  0.00000000000E+00  0.22772229296E+02  0.22807615550E+02  0.12700000000E+01 0. -1.
          4   -1    0    0  502    0  0.00000000000E+00 -0.00000000000E+00 -0.25826583986E+03  0.25826896240E+03  0.12700000000E+01 0. -1.
         25    2    1    2    0    0  0.22813857922E+02  0.97715047054E+01 -0.18289266276E+03  0.22291461333E+03  0.12500097732E+03 0.  0.
    9000005    1    3    3    0    0 -0.47676435165E+02 -0.53923485867E+01 -0.11174311340E+03  0.12161267732E+03  0.10000000000E+01 0.  0.
    9000005    1    3    3    0    0  0.70490293087E+02  0.15163853292E+02 -0.71149549355E+02  0.10130193601E+03  0.10000000000E+01 0.  0.
         21    1    1    2  502  501 -0.22813857922E+02 -0.97715047054E+01 -0.52600947812E+02  0.58161964618E+02  0.00000000000E+00 0. -1.
<mgrwt>
<rscale>  1 0.12744096E+03</rscale>
<asrwt>0</asrwt>
<pdfrwt beam="2">  1        4 0.39736166E-01 0.12744096E+03</pdfrwt>
<pdfrwt beam="1">  1       -4 0.35063823E-02 0.12744096E+03</pdfrwt>
<totfact> 0.41887760E+03</totfact>
</mgrwt>
</event>
<event>
 6    4  0.5642870E-004  0.1286374E+03  0.7818608E-02  0.1229492E+00
         -4   -1    0    0    0  501 -0.00000000000E+00  0.00000000000E+00  0.38989925603E+02  0.39010603668E+02  0.12700000000E+01 0. -1.
          4   -1    0    0  502    0  0.00000000000E+00 -0.00000000000E+00 -0.30255814888E+03  0.30256081430E+03  0.12700000000E+01 0. -1.
         25    2    1    2    0    0 -0.29504399840E+02  0.72331650650E+01 -0.71613808638E+02  0.14722809911E+03  0.12499898917E+03 0.  0.
    9000005    1    3    3    0    0  0.23882123457E+01 -0.27676212655E+01 -0.10198506326E+03  0.10205545754E+03  0.10000000000E+01 0.  0.
    9000005    1    3    3    0    0 -0.31892612186E+02  0.10000786331E+02  0.30371254622E+02  0.45172641572E+02  0.10000000000E+01 0.  0.
         21    1    1    2  502  501  0.29504399840E+02 -0.72331650650E+01 -0.19195441464E+03  0.19434331886E+03  0.00000000000E+00 0. -1.
<mgrwt>
<rscale>  1 0.12863738E+03</rscale>
<asrwt>0</asrwt>
<pdfrwt beam="2">  1        4 0.46549202E-01 0.12863738E+03</pdfrwt>
<pdfrwt beam="1">  1       -4 0.60002459E-02 0.12863738E+03</pdfrwt>
<totfact> 0.12987688E+03</totfact>
</mgrwt>
</event>
<event>
 6    4  0.5642870E-004  0.1281014E+03  0.7818608E-02  0.1230300E+00
         -4   -1    0    0    0  501 -0.00000000000E+00  0.00000000000E+00  0.27505191388E+02  0.27534495697E+02  0.12700000000E+01 0. -1.
          4   -1    0    0  502    0  0.00000000000E+00 -0.00000000000E+00 -0.33404207510E+03  0.33404448931E+03  0.12700000000E+01 0. -1.
         25    2    1    2    0    0  0.26544193435E+02  0.88321046347E+01 -0.12881213552E+03  0.18166598826E+03  0.12500945867E+03 0.  0.
    9000005    1    3    3    0    0  0.14918253244E+02 -0.29067027787E+02  0.12423934025E+02  0.34968564753E+02  0.10000000000E+01 0.  0.
    9000005    1    3    3    0    0  0.11625940191E+02  0.37899132422E+02 -0.14123606954E+03  0.14669742350E+03  0.10000000000E+01 0.  0.
         21    1    1    2  502  501 -0.26544193435E+02 -0.88321046347E+01 -0.17772474820E+03  0.17991299675E+03  0.00000000000E+00 0. -1.
<mgrwt>
<rscale>  1 0.12810139E+03</rscale>
<asrwt>0</asrwt>
<pdfrwt beam="2">  1        4 0.51393525E-01 0.12810139E+03</pdfrwt>
<pdfrwt beam="1">  1       -4 0.42340080E-02 0.12810139E+03</pdfrwt>
<totfact> 0.18588323E+03</totfact>
</mgrwt>
</event>
<event>
 6    4  0.5642870E-004  0.1299953E+03  0.7818608E-02  0.1227463E+00
         -4   -1    0    0    0  501 -0.00000000000E+00  0.00000000000E+00  0.28906266466E+02  0.28934151810E+02  0.12700000000E+01 0. -1.
          4   -1    0    0  502    0  0.00000000000E+00 -0.00000000000E+00 -0.23882403229E+03  0.23882740902E+03  0.12700000000E+01 0. -1.
         25    2    1    2    0    0  0.16220887209E+02  0.31797174086E+02 -0.15547867502E+03  0.20266323467E+03  0.12499836334E+03 0.  0.
    9000005    1    3    3    0    0  0.69152683084E+02  0.12461705508E+02 -0.63085777877E+02  0.94436238024E+02  0.10000000000E+01 0.  0.
    9000005    1    3    3    0    0 -0.52931795875E+02  0.19335468578E+02 -0.92392897143E+02  0.10822699664E+03  0.10000000000E+01 0.  0.
         21    1    1    2  502  501 -0.16220887209E+02 -0.31797174086E+02 -0.54439090802E+02  0.65098326162E+02  0.00000000000E+00 0. -1.
<mgrwt>
<rscale>  1 0.12999526E+03</rscale>
<asrwt>0</asrwt>
<pdfrwt beam="2">  1        4 0.36744562E-01 0.12999526E+03</pdfrwt>
<pdfrwt beam="1">  1       -4 0.44495228E-02 0.12999526E+03</pdfrwt>
<totfact> 0.33614787E+03</totfact>
</mgrwt>
</event>
<event>
 6    4  0.5642870E-004  0.1312243E+03  0.7818608E-02  0.1225650E+00
         -4   -1    0    0    0  501 -0.00000000000E+00  0.00000000000E+00  0.19865044463E+02  0.19905599502E+02  0.12700000000E+01 0. -1.
          4   -1    0    0  502    0  0.00000000000E+00 -0.00000000000E+00 -0.15350880502E+04  0.15350885755E+04  0.12700000000E+01 0. -1.
         25    2    1    2    0    0  0.39621271593E+02 -0.45458466201E+01 -0.20024480269E+03  0.23941134437E+03  0.12501720251E+03 0.  0.
    9000005    1    3    3    0    0 -0.15489067716E+02  0.27315906522E+02 -0.23248107311E+01  0.31503566667E+02  0.10000000000E+01 0.  0.
    9000005    1    3    3    0    0  0.55110339309E+02 -0.31861753142E+02 -0.19791999196E+03  0.20790777770E+03  0.10000000000E+01 0.  0.
         21    1    1    2  502  501 -0.39621271593E+02  0.45458466201E+01 -0.13149782030E+04  0.13155828307E+04  0.00000000000E+00 0. -1.
<mgrwt>
<rscale>  1 0.13122428E+03</rscale>
<asrwt>0</asrwt>
<pdfrwt beam="2">  1        4 0.23617046E+00 0.13122428E+03</pdfrwt>
<pdfrwt beam="1">  1       -4 0.30593219E-02 0.13122428E+03</pdfrwt>
<totfact> 0.77607206E+01</totfact>
</mgrwt>
</event>
<event>
 6    4  0.5642870E-004  0.1274315E+03  0.7818608E-02  0.1231317E+00
          4   -1    0    0  502    0  0.00000000000E+00  0.00000000000E+00  0.80234111771E+01  0.81233014789E+01  0.12700000000E+01 0.  1.
         -4   -1    0    0    0  501 -0.00000000000E+00 -0.00000000000E+00 -0.12733265401E+04  0.12733271735E+04  0.12700000000E+01 0.  1.
         25    2    1    2    0    0  0.24803624271E+02 -0.36394133410E+01 -0.12373818966E+04  0.12439263451E+04  0.12494130166E+03 0.  0.
    9000005    1    3    3    0    0  0.26926979367E+02  0.58580174706E+02 -0.69390168891E+03  0.69689113422E+03  0.10000000000E+01 0.  0.
    9000005    1    3    3    0    0 -0.21233550956E+01 -0.62219588047E+02 -0.54348020766E+03  0.54703521083E+03  0.10000000000E+01 0.  0.
         21    1    1    2  502  501 -0.24803624271E+02  0.36394133410E+01 -0.27921232381E+02  0.37524129892E+02  0.00000000000E+00 0.  1.
<mgrwt>
<rscale>  1 0.12743153E+03</rscale>
<asrwt>0</asrwt>
<pdfrwt beam="1">  1        4 0.12421045E-02 0.12743153E+03</pdfrwt>
<pdfrwt beam="2">  1       -4 0.19590396E+00 0.12743153E+03</pdfrwt>
<totfact> 0.53955376E+02</totfact>
</mgrwt>
</event>
<event>
 6    4  0.5642870E-004  0.1275716E+03  0.7818608E-02  0.1231104E+00
         -4   -1    0    0    0  501 -0.00000000000E+00  0.00000000000E+00  0.16727904710E+04  0.16727909531E+04  0.12700000000E+01 0.  1.
          4   -1    0    0  502    0  0.00000000000E+00 -0.00000000000E+00 -0.35776920106E+01  0.37964167478E+01  0.12700000000E+01 0.  1.
         25    2    1    2    0    0 -0.25444109812E+02 -0.17081747922E+01  0.15060938878E+04  0.15114871178E+04  0.12499675043E+03 0.  0.
    9000005    1    3    3    0    0  0.29569353850E+01  0.56408791186E+02  0.47149679987E+03  0.47486937938E+03  0.10000000000E+01 0.  0.
    9000005    1    3    3    0    0 -0.28401045197E+02 -0.58116965979E+02  0.10345970880E+04  0.10366177384E+04  0.10000000000E+01 0.  0.
         21    1    1    2  502  501  0.25444109812E+02  0.17081747922E+01  0.16311889118E+03  0.16510025211E+03  0.00000000000E+00 0. -1.
<mgrwt>
<rscale>  1 0.12757158E+03</rscale>
<asrwt>0</asrwt>
<pdfrwt beam="2">  1        4 0.56727626E-03 0.12757158E+03</pdfrwt>
<pdfrwt beam="1">  1       -4 0.25736922E+00 0.12757158E+03</pdfrwt>
<totfact> 0.75400818E+02</totfact>
</mgrwt>
</event>
<event>
 6    4  0.5642870E-004  0.1373034E+03  0.7818608E-02  0.1217004E+00
          4   -1    0    0  502    0  0.00000000000E+00  0.00000000000E+00  0.54619192081E+03  0.54619339731E+03  0.12700000000E+01 0.  1.
         -4   -1    0    0    0  501 -0.00000000000E+00 -0.00000000000E+00 -0.29976090553E+02  0.30002981599E+02  0.12700000000E+01 0.  1.
         25    2    1    2    0    0 -0.46459715803E+02 -0.32698187014E+02  0.14138177901E+03  0.19708130060E+03  0.12499821991E+03 0.  0.
    9000005    1    3    3    0    0 -0.93540795433E+01 -0.34874344947E+02  0.15371847427E+03  0.15790531362E+03  0.10000000000E+01 0.  0.
    9000005    1    3    3    0    0 -0.37105636260E+02  0.21761579325E+01 -0.12336695253E+02  0.39175986974E+02  0.10000000000E+01 0.  0.
         21    1    1    2  502  501  0.46459715803E+02  0.32698187014E+02  0.37483405125E+03  0.37911507831E+03  0.00000000000E+00 0.  1.
<mgrwt>
<rscale>  1 0.13730343E+03</rscale>
<asrwt>0</asrwt>
<pdfrwt beam="1">  1        4 0.84031705E-01 0.13730343E+03</pdfrwt>
<pdfrwt beam="2">  1       -4 0.46138885E-02 0.13730343E+03</pdfrwt>
<totfact> 0.57591332E+02</totfact>
</mgrwt>
</event>
<event>
 6    4  0.5642870E-004  0.1366354E+03  0.7818608E-02  0.1217929E+00
         -4   -1    0    0    0  501 -0.00000000000E+00  0.00000000000E+00  0.88842482997E+02  0.88851559835E+02  0.12700000000E+01 0. -1.
          4   -1    0    0  502    0  0.00000000000E+00 -0.00000000000E+00 -0.19640960013E+03  0.19641370605E+03  0.12700000000E+01 0. -1.
         25    2    1    2    0    0 -0.54135119982E+02  0.10718368169E+02  0.27485516333E+02  0.13937246812E+03  0.12499494642E+03 0.  0.
    9000005    1    3    3    0    0 -0.32959906186E+02 -0.36582892682E+01  0.76879100110E+02  0.83732517757E+02  0.10000000000E+01 0.  0.
    9000005    1    3    3    0    0 -0.21175213796E+02  0.14376657437E+02 -0.49393583777E+02  0.55639950366E+02  0.10000000000E+01 0.  0.
         21    1    1    2  502  501  0.54135119982E+02 -0.10718368169E+02 -0.13505263346E+03  0.14589279776E+03  0.00000000000E+00 0. -1.
<mgrwt>
<rscale>  1 0.13663540E+03</rscale>
<asrwt>0</asrwt>
<pdfrwt beam="2">  1        4 0.30217876E-01 0.13663540E+03</pdfrwt>
<pdfrwt beam="1">  1       -4 0.13669088E-01 0.13663540E+03</pdfrwt>
<totfact> 0.77024550E+02</totfact>
</mgrwt>
</event>
<event>
 6    4  0.5642870E-004  0.1268811E+03  0.7818608E-02  0.1232158E+00
          4   -1    0    0  502    0  0.00000000000E+00  0.00000000000E+00  0.26594760211E+02  0.26625066585E+02  0.12700000000E+01 0. -1.
         -4   -1    0    0    0  501 -0.00000000000E+00 -0.00000000000E+00 -0.21041108159E+03  0.21041491429E+03  0.12700000000E+01 0. -1.
         25    2    1    2    0    0 -0.16586134908E+02  0.14096370495E+02 -0.16583562718E+03  0.20880679302E+03  0.12500005616E+03 0.  0.
    9000005    1    3    3    0    0  0.41276416558E+02 -0.24420323689E+01 -0.13497159354E+03  0.14116669985E+03  0.10000000000E+01 0.  0.
    9000005    1    3    3    0    0 -0.57862551466E+02  0.16538402864E+02 -0.30864033645E+02  0.67640093172E+02  0.10000000000E+01 0.  0.
         21    1    1    2  502  501  0.16586134908E+02 -0.14096370495E+02 -0.17980694197E+02  0.28233187849E+02  0.00000000000E+00 0.  1.
<mgrwt>
<rscale>  1 0.12688113E+03</rscale>
<asrwt>0</asrwt>
<pdfrwt beam="1">  1        4 0.40941278E-02 0.12688113E+03</pdfrwt>
<pdfrwt beam="2">  1       -4 0.32373561E-01 0.12688113E+03</pdfrwt>
<totfact> 0.48673845E+03</totfact>
</mgrwt>
</event>
<event>
 6    4  0.5642870E-004  0.1284130E+03  0.7818608E-02  0.1229830E+00
         -4   -1    0    0    0  501 -0.00000000000E+00  0.00000000000E+00  0.97507610692E+03  0.97507693399E+03  0.12700000000E+01 0.  1.
          4   -1    0    0  502    0  0.00000000000E+00 -0.00000000000E+00 -0.85317716834E+01  0.86257769539E+01  0.12700000000E+01 0.  1.
         25    2    1    2    0    0  0.54224488649E+01  0.28897499697E+02  0.91807960398E+03  0.92701674604E+03  0.12500167902E+03 0.  0.
    9000005    1    3    3    0    0  0.39027281149E+02 -0.21154035974E+02  0.14640931588E+03  0.15299447600E+03  0.10000000000E+01 0.  0.
    9000005    1    3    3    0    0 -0.33604832284E+02  0.50051535671E+02  0.77167028810E+03  0.77402227003E+03  0.10000000000E+01 0.  0.
         21    1    1    2  502  501 -0.54224488649E+01 -0.28897499697E+02  0.48464731263E+02  0.56685964902E+02  0.00000000000E+00 0.  1.
<mgrwt>
<rscale>  1 0.12841296E+03</rscale>
<asrwt>0</asrwt>
<pdfrwt beam="2">  1        4 0.13198746E-02 0.12841296E+03</pdfrwt>
<pdfrwt beam="1">  1       -4 0.15001905E+00 0.12841296E+03</pdfrwt>
<totfact> 0.10051128E+03</totfact>
</mgrwt>
</event>
<event>
 6    4  0.5642870E-004  0.1325357E+03  0.7818608E-02  0.1223741E+00
         -4   -1    0    0    0  501 -0.00000000000E+00  0.00000000000E+00  0.72702514935E+02  0.72713606553E+02  0.12700000000E+01 0.  1.
          4   -1    0    0  502    0  0.00000000000E+00 -0.00000000000E+00 -0.11443965869E+03  0.11444670542E+03  0.12700000000E+01 0.  1.
         25    2    1    2    0    0  0.32229922311E+01 -0.43952607425E+02 -0.51206505070E+02  0.14208384159E+03  0.12499396986E+03 0.  0.
    9000005    1    3    3    0    0 -0.44617380921E+00  0.28729508242E+02  0.23981871235E+02  0.37439469318E+02  0.10000000000E+01 0.  0.
    9000005    1    3    3    0    0  0.36691660403E+01 -0.72682115667E+02 -0.75188376306E+02  0.10464437227E+03  0.10000000000E+01 0.  0.
         21    1    1    2  502  501 -0.32229922311E+01  0.43952607425E+02  0.94693613118E+01  0.45076470382E+02  0.00000000000E+00 0.  1.
<mgrwt>
<rscale>  1 0.13253570E+03</rscale>
<asrwt>0</asrwt>
<pdfrwt beam="2">  1        4 0.17607497E-01 0.13253570E+03</pdfrwt>
<pdfrwt beam="1">  1       -4 0.11186398E-01 0.13253570E+03</pdfrwt>
<totfact> 0.28989851E+03</totfact>
</mgrwt>
</event>
<event>
 6    4  0.5642870E-004  0.1278568E+03  0.7818608E-02  0.1230671E+00
          4   -1    0    0  502    0  0.00000000000E+00  0.00000000000E+00  0.10157143310E+02  0.10236232716E+02  0.12700000000E+01 0. -1.
         -4   -1    0    0    0  501 -0.00000000000E+00 -0.00000000000E+00 -0.90047631861E+03  0.90047721419E+03  0.12700000000E+01 0. -1.
         25    2    1    2    0    0  0.22860981444E+02 -0.14123617618E+02 -0.86290353176E+03  0.87232440475E+03  0.12500104380E+03 0.  0.
    9000005    1    3    3    0    0 -0.35798327323E+02 -0.13474129978E+02 -0.98473671864E+02  0.10564627995E+03  0.10000000000E+01 0.  0.
    9000005    1    3    3    0    0  0.58659308766E+02 -0.64948763948E+00 -0.76442985989E+03  0.76667812479E+03  0.10000000000E+01 0.  0.
         21    1    1    2  502  501 -0.22860981444E+02  0.14123617618E+02 -0.27415643547E+02  0.38389042164E+02  0.00000000000E+00 0. -1.
<mgrwt>
<rscale>  1 0.12785680E+03</rscale>
<asrwt>0</asrwt>
<pdfrwt beam="1">  1        4 0.15687908E-02 0.12785680E+03</pdfrwt>
<pdfrwt beam="2">  1       -4 0.13854091E+00 0.12785680E+03</pdfrwt>
<totfact> 0.94334851E+02</totfact>
</mgrwt>
</event>
<event>
 6    4  0.5642870E-004  0.1268191E+03  0.7818608E-02  0.1232253E+00
         -4   -1    0    0    0  501 -0.00000000000E+00  0.00000000000E+00  0.13894839827E+02  0.13952758646E+02  0.12700000000E+01 0.  1.
          4   -1    0    0  502    0  0.00000000000E+00 -0.00000000000E+00 -0.46398777671E+03  0.46398951479E+03  0.12700000000E+01 0.  1.
         25    2    1    2    0    0 -0.51118321226E+01  0.20782120314E+02 -0.29123270837E+03  0.31764692242E+03  0.12500019820E+03 0.  0.
    9000005    1    3    3    0    0 -0.33353812260E+02  0.65406259981E+02 -0.15429270315E+03  0.17087332701E+03  0.10000000000E+01 0.  0.
    9000005    1    3    3    0    0  0.28241980137E+02 -0.44624139666E+02 -0.13694000521E+03  0.14677359541E+03  0.10000000000E+01 0.  0.
         21    1    1    2  502  501  0.51118321226E+01 -0.20782120314E+02 -0.15886022852E+03  0.16029535101E+03  0.00000000000E+00 0.  1.
<mgrwt>
<rscale>  1 0.12681907E+03</rscale>
<asrwt>0</asrwt>
<pdfrwt beam="2">  1        4 0.71387312E-01 0.12681907E+03</pdfrwt>
<pdfrwt beam="1">  1       -4 0.21422570E-02 0.12681907E+03</pdfrwt>
<totfact> 0.27008386E+03</totfact>
</mgrwt>
</event>
<event>
 6    4  0.5642870E-004  0.1408625E+03  0.7818608E-02  0.1212173E+00
         -4   -1    0    0    0  501 -0.00000000000E+00  0.00000000000E+00  0.46889877199E+02  0.46907072854E+02  0.12700000000E+01 0. -1.
          4   -1    0    0  502    0  0.00000000000E+00 -0.00000000000E+00 -0.22600239838E+03  0.22600596668E+03  0.12700000000E+01 0. -1.
         25    2    1    2    0    0 -0.26261450493E+02  0.59387383669E+02 -0.12681530871E+03  0.18953724237E+03  0.12500287436E+03 0.  0.
    9000005    1    3    3    0    0 -0.45316829303E+02  0.89137309931E+02 -0.68036061718E+02  0.12095032341E+03  0.10000000000E+01 0.  0.
    9000005    1    3    3    0    0  0.19055378809E+02 -0.29749926262E+02 -0.58779246994E+02  0.68586918952E+02  0.10000000000E+01 0.  0.
         21    1    1    2  502  501  0.26261450493E+02 -0.59387383669E+02 -0.52297212469E+02  0.83375797166E+02  0.00000000000E+00 0. -1.
<mgrwt>
<rscale>  1 0.14086250E+03</rscale>
<asrwt>0</asrwt>
<pdfrwt beam="2">  1        4 0.34771196E-01 0.14086250E+03</pdfrwt>
<pdfrwt beam="1">  1       -4 0.72154246E-02 0.14086250E+03</pdfrwt>
<totfact> 0.17407502E+03</totfact>
</mgrwt>
</event>
<event>
 6    4  0.5642870E-004  0.1296690E+03  0.7818608E-02  0.1227948E+00
          4   -1    0    0  502    0  0.00000000000E+00  0.00000000000E+00  0.61496411341E+03  0.61496542478E+03  0.12700000000E+01 0.  1.
         -4   -1    0    0    0  501 -0.00000000000E+00 -0.00000000000E+00 -0.11131122937E+02  0.11203338692E+02  0.12700000000E+01 0.  1.
         25    2    1    2    0    0 -0.21895441084E+02  0.26640207333E+02  0.43812896245E+03  0.45691470625E+03  0.12499980023E+03 0.  0.
    9000005    1    3    3    0    0 -0.19449306047E+02  0.67379227387E+02  0.37658969883E+03  0.38306531696E+03  0.10000000000E+01 0.  0.
    9000005    1    3    3    0    0 -0.24461350372E+01 -0.40739020054E+02  0.61539263620E+02  0.73849389289E+02  0.10000000000E+01 0.  0.
         21    1    1    2  502  501  0.21895441084E+02 -0.26640207333E+02  0.16570402802E+03  0.16925405723E+03  0.00000000000E+00 0.  1.
<mgrwt>
<rscale>  1 0.12966904E+03</rscale>
<asrwt>0</asrwt>
<pdfrwt beam="1">  1        4 0.94615520E-01 0.12966904E+03</pdfrwt>
<pdfrwt beam="2">  1       -4 0.17181364E-02 0.12966904E+03</pdfrwt>
<totfact> 0.20390751E+03</totfact>
</mgrwt>
</event>
<event>
 6    4  0.5642870E-004  0.1281007E+03  0.7818608E-02  0.1230301E+00
         -4   -1    0    0    0  501 -0.00000000000E+00  0.00000000000E+00  0.89553774099E+02  0.89562778850E+02  0.12700000000E+01 0. -1.
          4   -1    0    0  502    0  0.00000000000E+00 -0.00000000000E+00 -0.68070531152E+02  0.68082377392E+02  0.12700000000E+01 0. -1.
         25    2    1    2    0    0  0.14013199303E+02  0.24239404525E+02  0.19501032343E+02  0.12957653238E+03  0.12500347593E+03 0.  0.
    9000005    1    3    3    0    0 -0.55876838149E+02  0.10751033220E+02  0.81923700042E+01  0.57497136303E+02  0.10000000000E+01 0.  0.
    9000005    1    3    3    0    0  0.69890037452E+02  0.13488371305E+02  0.11308662338E+02  0.72079396080E+02  0.10000000000E+01 0.  0.
         21    1    1    2  502  501 -0.14013199303E+02 -0.24239404525E+02  0.19822106037E+01  0.28068623858E+02  0.00000000000E+00 0. -1.
<mgrwt>
<rscale>  1 0.12810069E+03</rscale>
<asrwt>0</asrwt>
<pdfrwt beam="2">  1        4 0.10473993E-01 0.12810069E+03</pdfrwt>
<pdfrwt beam="1">  1       -4 0.13779108E-01 0.12810069E+03</pdfrwt>
<totfact> 0.49373025E+03</totfact>
</mgrwt>
</event>
<event>
 6    4  0.5642870E-004  0.1326662E+03  0.7818608E-02  0.1223552E+00
         -4   -1    0    0    0  501 -0.00000000000E+00  0.00000000000E+00  0.14057003075E+03  0.14057576763E+03  0.12700000000E+01 0.  1.
          4   -1    0    0  502    0  0.00000000000E+00 -0.00000000000E+00 -0.65377154007E+02  0.65389488192E+02  0.12700000000E+01 0.  1.
         25    2    1    2    0    0 -0.54686269071E+01 -0.44111938496E+02  0.88607400092E+02  0.15953554082E+03  0.12499819373E+03 0.  0.
    9000005    1    3    3    0    0  0.48277950522E+02 -0.43767529587E+02  0.12503488726E+02  0.66360337424E+02  0.10000000000E+01 0.  0.
    9000005    1    3    3    0    0 -0.53746577429E+02 -0.34440890931E+00  0.76103911366E+02  0.93175203397E+02  0.10000000000E+01 0.  0.
         21    1    1    2  502  501  0.54686269071E+01  0.44111938496E+02 -0.13414523352E+02  0.46429714999E+02  0.00000000000E+00 0.  1.
<mgrwt>
<rscale>  1 0.13266619E+03</rscale>
<asrwt>0</asrwt>
<pdfrwt beam="2">  1        4 0.10059414E-01 0.13266619E+03</pdfrwt>
<pdfrwt beam="1">  1       -4 0.21627549E-01 0.13266619E+03</pdfrwt>
<totfact> 0.24000336E+03</totfact>
</mgrwt>
</event>
<event>
 6    4  0.5642870E-004  0.1275298E+03  0.7818608E-02  0.1231168E+00
         -4   -1    0    0    0  501 -0.00000000000E+00  0.00000000000E+00  0.57500586167E+02  0.57514609531E+02  0.12700000000E+01 0.  1.
          4   -1    0    0  502    0  0.00000000000E+00 -0.00000000000E+00 -0.10161247509E+03  0.10162041131E+03  0.12700000000E+01 0.  1.
         25    2    1    2    0    0  0.17258980229E+02  0.18477399434E+02 -0.34823550035E+02  0.13219880121E+03  0.12499822685E+03 0.  0.
    9000005    1    3    3    0    0  0.31206411223E+02  0.36076091171E+01  0.42142384860E+02  0.52572193664E+02  0.10000000000E+01 0.  0.
    9000005    1    3    3    0    0 -0.13947430994E+02  0.14869790316E+02 -0.76965934895E+02  0.79626607548E+02  0.10000000000E+01 0.  0.
         21    1    1    2  502  501 -0.17258980229E+02 -0.18477399434E+02 -0.92883388888E+01  0.26936219625E+02  0.00000000000E+00 0. -1.
<mgrwt>
<rscale>  1 0.12752977E+03</rscale>
<asrwt>0</asrwt>
<pdfrwt beam="2">  1        4 0.15634378E-01 0.12752977E+03</pdfrwt>
<pdfrwt beam="1">  1       -4 0.88479332E-02 0.12752977E+03</pdfrwt>
<totfact> 0.52537342E+03</totfact>
</mgrwt>
</event>
<event>
 6    4  0.5642870E-004  0.1279917E+03  0.7818608E-02  0.1230467E+00
         -4   -1    0    0    0  501 -0.00000000000E+00  0.00000000000E+00  0.25063225910E+03  0.25063547674E+03  0.12700000000E+01 0.  1.
          4   -1    0    0  502    0  0.00000000000E+00 -0.00000000000E+00 -0.26784883959E+02  0.26814975455E+02  0.12700000000E+01 0.  1.
         25    2    1    2    0    0  0.16335200308E+02 -0.22129120668E+02  0.21169654883E+03  0.24738087736E+03  0.12500133179E+03 0.  0.
    9000005    1    3    3    0    0  0.50335722306E+02 -0.52124189736E+02  0.17371867159E+03  0.18822803445E+03  0.10000000000E+01 0.  0.
    9000005    1    3    3    0    0 -0.34000521999E+02  0.29995069069E+02  0.37977877240E+02  0.59152842909E+02  0.10000000000E+01 0.  0.
         21    1    1    2  502  501 -0.16335200308E+02  0.22129120668E+02  0.12150826313E+02  0.30069574834E+02  0.00000000000E+00 0.  1.
<mgrwt>
<rscale>  1 0.12799168E+03</rscale>
<asrwt>0</asrwt>
<pdfrwt beam="2">  1        4 0.41233136E-02 0.12799168E+03</pdfrwt>
<pdfrwt beam="1">  1       -4 0.38561372E-01 0.12799168E+03</pdfrwt>
<totfact> 0.34412263E+03</totfact>
</mgrwt>
</event>
<event>
 6    4  0.5642870E-004  0.1270306E+03  0.7818608E-02  0.1231929E+00
          4   -1    0    0  502    0  0.00000000000E+00  0.00000000000E+00  0.73959925323E+02  0.73970828398E+02  0.12700000000E+01 0.  1.
         -4   -1    0    0    0  501 -0.00000000000E+00 -0.00000000000E+00 -0.75908910724E+02  0.75919533898E+02  0.12700000000E+01 0.  1.
         25    2    1    2    0    0  0.14601208584E+02  0.17270416379E+02  0.13348804896E+01  0.12703765241E+03  0.12500128259E+03 0.  0.
    9000005    1    3    3    0    0 -0.13494922203E+01  0.13451261187E+02 -0.61043884689E+02  0.62530899679E+02  0.10000000000E+01 0.  0.
    9000005    1    3    3    0    0  0.15950700804E+02  0.38191551917E+01  0.62378765178E+02  0.64506752730E+02  0.10000000000E+01 0.  0.
         21    1    1    2  502  501 -0.14601208584E+02 -0.17270416379E+02 -0.32838658904E+01  0.22852709887E+02  0.00000000000E+00 0.  1.
<mgrwt>
<rscale>  1 0.12703064E+03</rscale>
<asrwt>0</asrwt>
<pdfrwt beam="1">  1        4 0.11380106E-01 0.12703064E+03</pdfrwt>
<pdfrwt beam="2">  1       -4 0.11679950E-01 0.12703064E+03</pdfrwt>
<totfact> 0.56850031E+03</totfact>
</mgrwt>
</event>
<event>
 6    4  0.5642870E-004  0.1276694E+03  0.7818608E-02  0.1230955E+00
         -4   -1    0    0    0  501 -0.00000000000E+00  0.00000000000E+00  0.61480380140E+02  0.61493495934E+02  0.12700000000E+01 0.  1.
          4   -1    0    0  502    0  0.00000000000E+00 -0.00000000000E+00 -0.10188563424E+03  0.10189354918E+03  0.12700000000E+01 0.  1.
         25    2    1    2    0    0  0.17740571715E+02  0.18939747972E+02 -0.17671105142E+02  0.12888656009E+03  0.12500414184E+03 0.  0.
    9000005    1    3    3    0    0 -0.50796572313E+02  0.28713950956E+02 -0.10246781722E+02  0.59251829288E+02  0.10000000000E+01 0.  0.
    9000005    1    3    3    0    0  0.68537144028E+02 -0.97742029842E+01 -0.74243234200E+01  0.69634730801E+02  0.10000000000E+01 0.  0.
         21    1    1    2  502  501 -0.17740571715E+02 -0.18939747972E+02 -0.22734148955E+02  0.34500485021E+02  0.00000000000E+00 0.  1.
<mgrwt>
<rscale>  1 0.12766941E+03</rscale>
<asrwt>0</asrwt>
<pdfrwt beam="2">  1        4 0.15676331E-01 0.12766941E+03</pdfrwt>
<pdfrwt beam="1">  1       -4 0.94601378E-02 0.12766941E+03</pdfrwt>
<totfact> 0.46772726E+03</totfact>
</mgrwt>
</event>
<event>
 6    4  0.5642870E-004  0.1593676E+03  0.7818608E-02  0.1189413E+00
          4   -1    0    0  502    0  0.00000000000E+00  0.00000000000E+00  0.26831498658E+02  0.26861537935E+02  0.12700000000E+01 0. -1.
         -4   -1    0    0    0  501 -0.00000000000E+00 -0.00000000000E+00 -0.10138834980E+04  0.10138842934E+04  0.12700000000E+01 0. -1.
         25    2    1    2    0    0  0.87712571452E+02  0.45604558401E+02 -0.88281491890E+03  0.89708428506E+03  0.12499905012E+03 0.  0.
    9000005    1    3    3    0    0  0.26373098475E+02  0.20451412006E+01 -0.68394987303E+03  0.68446194324E+03  0.10000000000E+01 0.  0.
    9000005    1    3    3    0    0  0.61339472976E+02  0.43559417200E+02 -0.19886504587E+03  0.21262234182E+03  0.10000000000E+01 0.  0.
         21    1    1    2  502  501 -0.87712571452E+02 -0.45604558401E+02 -0.10423708040E+03  0.14366154624E+03  0.00000000000E+00 0. -1.
<mgrwt>
<rscale>  1 0.15936760E+03</rscale>
<asrwt>0</asrwt>
<pdfrwt beam="1">  1        4 0.41302955E-02 0.15936760E+03</pdfrwt>
<pdfrwt beam="2">  1       -4 0.15598442E+00 0.15936760E+03</pdfrwt>
<totfact> 0.16068423E+02</totfact>
</mgrwt>
</event>
<event>
 6    4  0.5642870E-004  0.1278710E+03  0.7818608E-02  0.1230649E+00
         -4   -1    0    0    0  501 -0.00000000000E+00  0.00000000000E+00  0.69554869151E+02  0.69566462628E+02  0.12700000000E+01 0. -1.
          4   -1    0    0  502    0  0.00000000000E+00 -0.00000000000E+00 -0.93552764875E+02  0.93561384747E+02  0.12700000000E+01 0. -1.
         25    2    1    2    0    0  0.24282160509E+02  0.11683910846E+02 -0.12721097080E+01  0.12787733757E+03  0.12499943243E+03 0.  0.
    9000005    1    3    3    0    0  0.61254077703E+02  0.45009494751E+02 -0.11971056441E+02  0.76955979919E+02  0.10000000000E+01 0.  0.
    9000005    1    3    3    0    0 -0.36971917193E+02 -0.33325583905E+02  0.10698946733E+02  0.50921357649E+02  0.10000000000E+01 0.  0.
         21    1    1    2  502  501 -0.24282160509E+02 -0.11683910846E+02 -0.22725786016E+02  0.35250509808E+02  0.00000000000E+00 0. -1.
<mgrwt>
<rscale>  1 0.12787101E+03</rscale>
<asrwt>0</asrwt>
<pdfrwt beam="2">  1        4 0.14394288E-01 0.12787101E+03</pdfrwt>
<pdfrwt beam="1">  1       -4 0.10702304E-01 0.12787101E+03</pdfrwt>
<totfact> 0.44114289E+03</totfact>
</mgrwt>
</event>
<event>
 6    4  0.5642870E-004  0.1398354E+03  0.7818608E-02  0.1213551E+00
         -4   -1    0    0    0  501 -0.00000000000E+00  0.00000000000E+00  0.15827682011E+03  0.15828191521E+03  0.12700000000E+01 0.  1.
          4   -1    0    0  502    0  0.00000000000E+00 -0.00000000000E+00 -0.76846862104E+02  0.76857355635E+02  0.12700000000E+01 0.  1.
         25    2    1    2    0    0 -0.26104523596E+02 -0.57053025285E+02  0.97380321851E+02  0.17040204853E+03  0.12496974519E+03 0.  0.
    9000005    1    3    3    0    0 -0.47585221278E+01  0.27314558987E+02 -0.12332252804E+02  0.30361375541E+02  0.10000000000E+01 0.  0.
    9000005    1    3    3    0    0 -0.21346001468E+02 -0.84367584272E+02  0.10971257465E+03  0.14004067299E+03  0.10000000000E+01 0.  0.
         21    1    1    2  502  501  0.26104523596E+02  0.57053025285E+02 -0.15950363846E+02  0.64737222315E+02  0.00000000000E+00 0.  1.
<mgrwt>
<rscale>  1 0.13983537E+03</rscale>
<asrwt>0</asrwt>
<pdfrwt beam="2">  1        4 0.11823793E-01 0.13983537E+03</pdfrwt>
<pdfrwt beam="1">  1       -4 0.24351479E-01 0.13983537E+03</pdfrwt>
<totfact> 0.14858215E+03</totfact>
</mgrwt>
</event>
<event>
 6    4  0.5642870E-004  0.1276787E+03  0.7818608E-02  0.1230941E+00
         -4   -1    0    0    0  501 -0.00000000000E+00  0.00000000000E+00  0.47526081883E+02  0.47543047432E+02  0.12700000000E+01 0. -1.
          4   -1    0    0  502    0  0.00000000000E+00 -0.00000000000E+00 -0.13119871869E+03  0.13120486533E+03  0.12700000000E+01 0. -1.
         25    2    1    2    0    0  0.25999875453E+02  0.11350883609E+01 -0.52272034694E+02  0.13796458575E+03  0.12499831743E+03 0.  0.
    9000005    1    3    3    0    0  0.61666655546E+02 -0.18904414326E+02 -0.68361905996E+02  0.93992039443E+02  0.10000000000E+01 0.  0.
    9000005    1    3    3    0    0 -0.35666780093E+02  0.20039502687E+02  0.16089871302E+02  0.43972546306E+02  0.10000000000E+01 0.  0.
         21    1    1    2  502  501 -0.25999875453E+02 -0.11350883609E+01 -0.31400602114E+02  0.40783327013E+02  0.00000000000E+00 0. -1.
<mgrwt>
<rscale>  1 0.12767874E+03</rscale>
<asrwt>0</asrwt>
<pdfrwt beam="2">  1        4 0.20186196E-01 0.12767874E+03</pdfrwt>
<pdfrwt beam="1">  1       -4 0.73134828E-02 0.12767874E+03</pdfrwt>
<totfact> 0.45777447E+03</totfact>
</mgrwt>
</event>
<event>
 6    4  0.5642870E-004  0.1279810E+03  0.7818608E-02  0.1230483E+00
          4   -1    0    0  502    0  0.00000000000E+00  0.00000000000E+00  0.26849697219E+02  0.26879716158E+02  0.12700000000E+01 0.  1.
         -4   -1    0    0    0  501 -0.00000000000E+00 -0.00000000000E+00 -0.32921045838E+03  0.32921290802E+03  0.12700000000E+01 0.  1.
         25    2    1    2    0    0 -0.27431052063E+02 -0.19569023294E+01 -0.30264257799E+03  0.32859041509E+03  0.12499135487E+03 0.  0.
    9000005    1    3    3    0    0 -0.76700516788E+02  0.84740449030E+01 -0.16965680220E+03  0.18638457351E+03  0.10000000000E+01 0.  0.
    9000005    1    3    3    0    0  0.49269464725E+02 -0.10430947232E+02 -0.13298577579E+03  0.14220584158E+03  0.10000000000E+01 0.  0.
         21    1    1    2  502  501  0.27431052063E+02  0.19569023294E+01  0.28181682950E+00  0.27502209088E+02  0.00000000000E+00 0.  1.
<mgrwt>
<rscale>  1 0.12798098E+03</rscale>
<asrwt>0</asrwt>
<pdfrwt beam="1">  1        4 0.41332205E-02 0.12798098E+03</pdfrwt>
<pdfrwt beam="2">  1       -4 0.50650258E-01 0.12798098E+03</pdfrwt>
<totfact> 0.19892762E+03</totfact>
</mgrwt>
</event>
<event>
 6    4  0.5642870E-004  0.1290277E+03  0.7818608E-02  0.1228906E+00
          4   -1    0    0  502    0  0.00000000000E+00  0.00000000000E+00  0.10653515382E+02  0.10728946360E+02  0.12700000000E+01 0. -1.
         -4   -1    0    0    0  501 -0.00000000000E+00 -0.00000000000E+00 -0.81994684670E+03  0.81994783024E+03  0.12700000000E+01 0. -1.
         25    2    1    2    0    0 -0.31423097544E+02 -0.59681158404E+01 -0.76632200680E+03  0.77710846323E+03  0.12500046423E+03 0.  0.
    9000005    1    3    3    0    0 -0.40941982441E+02  0.58904732084E+01 -0.75913106576E+03  0.76025779746E+03  0.10000000000E+01 0.  0.
    9000005    1    3    3    0    0  0.95188848968E+01 -0.11858589049E+02 -0.71909410395E+01  0.16850665771E+02  0.10000000000E+01 0.  0.
         21    1    1    2  502  501  0.31423097544E+02  0.59681158404E+01 -0.42971324522E+02  0.53568313368E+02  0.00000000000E+00 0. -1.
<mgrwt>
<rscale>  1 0.12902769E+03</rscale>
<asrwt>0</asrwt>
<pdfrwt beam="1">  1        4 0.16448811E-02 0.12902769E+03</pdfrwt>
<pdfrwt beam="2">  1       -4 0.12615150E+00 0.12902769E+03</pdfrwt>
<totfact> 0.11064848E+03</totfact>
</mgrwt>
</event>
<event>
 6    4  0.5642870E-004  0.1372321E+03  0.7818608E-02  0.1217103E+00
          4   -1    0    0  502    0  0.00000000000E+00  0.00000000000E+00  0.39854276426E+03  0.39854478775E+03  0.12700000000E+01 0.  1.
         -4   -1    0    0    0  501 -0.00000000000E+00 -0.00000000000E+00 -0.26567429531E+02  0.26597767047E+02  0.12700000000E+01 0.  1.
         25    2    1    2    0    0 -0.25480169276E+01 -0.56585723986E+02  0.18877334044E+03  0.23338383332E+03  0.12499681215E+03 0.  0.
    9000005    1    3    3    0    0 -0.40009790934E+02 -0.75798872315E+02  0.16257226801E+03  0.18378518640E+03  0.10000000000E+01 0.  0.
    9000005    1    3    3    0    0  0.37461774007E+02  0.19213148328E+02  0.26201072432E+02  0.49598646927E+02  0.10000000000E+01 0.  0.
         21    1    1    2  502  501  0.25480169276E+01  0.56585723986E+02  0.18320199429E+03  0.19175872147E+03  0.00000000000E+00 0. -1.
<mgrwt>
<rscale>  1 0.13723206E+03</rscale>
<asrwt>0</asrwt>
<pdfrwt beam="1">  1        4 0.61316760E-01 0.13723206E+03</pdfrwt>
<pdfrwt beam="2">  1       -4 0.40897862E-02 0.13723206E+03</pdfrwt>
<totfact> 0.13825394E+03</totfact>
</mgrwt>
</event>
<event>
 6    4  0.5642870E-004  0.1302270E+03  0.7818608E-02  0.1227119E+00
          4   -1    0    0  502    0  0.00000000000E+00  0.00000000000E+00  0.26983584579E+02  0.27013454735E+02  0.12700000000E+01 0.  1.
         -4   -1    0    0    0  501 -0.00000000000E+00 -0.00000000000E+00 -0.28532601087E+03  0.28532883727E+03  0.12700000000E+01 0.  1.
         25    2    1    2    0    0 -0.23429133212E+02 -0.28019895948E+02 -0.23594362752E+03  0.26949669669E+03  0.12500014122E+03 0.  0.
    9000005    1    3    3    0    0 -0.10320008405E+02  0.36634648065E+02 -0.17692103601E+03  0.18097141486E+03  0.10000000000E+01 0.  0.
    9000005    1    3    3    0    0 -0.13109124806E+02 -0.64654544013E+02 -0.59022591510E+02  0.88525281831E+02  0.10000000000E+01 0.  0.
         21    1    1    2  502  501  0.23429133212E+02  0.28019895948E+02 -0.22398798773E+02  0.42845595322E+02  0.00000000000E+00 0.  1.
<mgrwt>
<rscale>  1 0.13022701E+03</rscale>
<asrwt>0</asrwt>
<pdfrwt beam="1">  1        4 0.41538360E-02 0.13022701E+03</pdfrwt>
<pdfrwt beam="2">  1       -4 0.43898823E-01 0.13022701E+03</pdfrwt>
<totfact> 0.26441815E+03</totfact>
</mgrwt>
</event>
<event>
 6    4  0.5642870E-004  0.1273039E+03  0.7818608E-02  0.1231512E+00
          4   -1    0    0  502    0  0.00000000000E+00  0.00000000000E+00  0.23936905052E+03  0.23937241956E+03  0.12700000000E+01 0. -1.
         -4   -1    0    0    0  501 -0.00000000000E+00 -0.00000000000E+00 -0.33777442225E+02  0.33801309195E+02  0.12700000000E+01 0. -1.
         25    2    1    2    0    0 -0.10128853983E+02  0.21870755452E+02  0.92037052761E+02  0.15708944597E+03  0.12500140530E+03 0.  0.
    9000005    1    3    3    0    0  0.27496684582E+02 -0.19783436258E+02  0.95007345622E+02  0.10087045026E+03  0.10000000000E+01 0.  0.
    9000005    1    3    3    0    0 -0.37625538565E+02  0.41654191710E+02 -0.29702928611E+01  0.56218995714E+02  0.10000000000E+01 0.  0.
         21    1    1    2  502  501  0.10128853983E+02 -0.21870755452E+02  0.11355455553E+03  0.11608428278E+03  0.00000000000E+00 0. -1.
<mgrwt>
<rscale>  1 0.12730387E+03</rscale>
<asrwt>0</asrwt>
<pdfrwt beam="1">  1        4 0.36828103E-01 0.12730387E+03</pdfrwt>
<pdfrwt beam="2">  1       -4 0.51986246E-02 0.12730387E+03</pdfrwt>
<totfact> 0.25950362E+03</totfact>
</mgrwt>
</event>
<event>
 6    4  0.5642870E-004  0.1282346E+03  0.7818608E-02  0.1230099E+00
          4   -1    0    0  502    0  0.00000000000E+00  0.00000000000E+00  0.24110028926E+02  0.24143454492E+02  0.12700000000E+01 0. -1.
         -4   -1    0    0    0  501 -0.00000000000E+00 -0.00000000000E+00 -0.32816050303E+03  0.32816296050E+03  0.12700000000E+01 0. -1.
         25    2    1    2    0    0  0.28627044635E+02  0.15739634891E-01 -0.29597748222E+03  0.32256282526E+03  0.12499839330E+03 0.  0.
    9000005    1    3    3    0    0  0.26004512309E+02 -0.46833059414E+02 -0.25402231594E+03  0.25961106893E+03  0.10000000000E+01 0.  0.
    9000005    1    3    3    0    0  0.26225323259E+01  0.46848799049E+02 -0.41955166278E+02  0.62951756334E+02  0.10000000000E+01 0.  0.
         21    1    1    2  502  501 -0.28627044635E+02 -0.15739634891E-01 -0.80729918816E+01  0.29743589732E+02  0.00000000000E+00 0.  1.
<mgrwt>
<rscale>  1 0.12823458E+03</rscale>
<asrwt>0</asrwt>
<pdfrwt beam="1">  1        4 0.37119957E-02 0.12823458E+03</pdfrwt>
<pdfrwt beam="2">  1       -4 0.50488988E-01 0.12823458E+03</pdfrwt>
<totfact> 0.23751471E+03</totfact>
</mgrwt>
</event>
<event>
 6    4  0.5642870E-004  0.1269817E+03  0.7818608E-02  0.1232004E+00
         -4   -1    0    0    0  501 -0.00000000000E+00  0.00000000000E+00  0.31770155638E+02  0.31795529391E+02  0.12700000000E+01 0. -1.
          4   -1    0    0  502    0  0.00000000000E+00 -0.00000000000E+00 -0.26177917118E+03  0.26178225181E+03  0.12700000000E+01 0. -1.
         25    2    1    2    0    0 -0.20349331033E+02 -0.90599644118E+01 -0.99880035623E+02  0.16155607979E+03  0.12501266805E+03 0.  0.
    9000005    1    3    3    0    0 -0.57870882623E+02 -0.20985074841E+02 -0.10512323737E+03  0.12182490492E+03  0.10000000000E+01 0.  0.
    9000005    1    3    3    0    0  0.37521551590E+02  0.11925110430E+02  0.52432017505E+01  0.39731174877E+02  0.10000000000E+01 0.  0.
         21    1    1    2  502  501  0.20349331033E+02  0.90599644118E+01 -0.13012897992E+03  0.13202170141E+03  0.00000000000E+00 0.  1.
<mgrwt>
<rscale>  1 0.12698167E+03</rscale>
<asrwt>0</asrwt>
<pdfrwt beam="2">  1        4 0.40275906E-01 0.12698167E+03</pdfrwt>
<pdfrwt beam="1">  1       -4 0.48899052E-02 0.12698167E+03</pdfrwt>
<totfact> 0.24023901E+03</totfact>
</mgrwt>
</event>
<event>
 6    4  0.5642870E-004  0.1269852E+03  0.7818608E-02  0.1231999E+00
         -4   -1    0    0    0  501 -0.00000000000E+00  0.00000000000E+00  0.49021131816E+02  0.49037580125E+02  0.12700000000E+01 0. -1.
          4   -1    0    0  502    0  0.00000000000E+00 -0.00000000000E+00 -0.15371703409E+03  0.15372228032E+03  0.12700000000E+01 0. -1.
         25    2    1    2    0    0  0.95555264735E+01  0.20222629891E+02 -0.38205036555E+02  0.13260789633E+03  0.12499986602E+03 0.  0.
    9000005    1    3    3    0    0 -0.43332472567E+02  0.39723128271E+02  0.84911212800E+01  0.59403107991E+02  0.10000000000E+01 0.  0.
    9000005    1    3    3    0    0  0.52887999040E+02 -0.19500498380E+02 -0.46696157835E+02  0.73204788342E+02  0.10000000000E+01 0.  0.
         21    1    1    2  502  501 -0.95555264735E+01 -0.20222629891E+02 -0.66490865715E+02  0.70151964116E+02  0.00000000000E+00 0. -1.
<mgrwt>
<rscale>  1 0.12698515E+03</rscale>
<asrwt>0</asrwt>
<pdfrwt beam="2">  1        4 0.23650443E-01 0.12698515E+03</pdfrwt>
<pdfrwt beam="1">  1       -4 0.75433815E-02 0.12698515E+03</pdfrwt>
<totfact> 0.32592797E+03</totfact>
</mgrwt>
</event>
<event>
 6    4  0.5642870E-004  0.1273838E+03  0.7818608E-02  0.1231390E+00
          4   -1    0    0  502    0  0.00000000000E+00  0.00000000000E+00  0.17749710426E+02  0.17795086968E+02  0.12700000000E+01 0.  1.
         -4   -1    0    0    0  501 -0.00000000000E+00 -0.00000000000E+00 -0.37483875657E+03  0.37484090802E+03  0.12700000000E+01 0.  1.
         25    2    1    2    0    0 -0.15391493431E+02  0.19167210638E+02 -0.33891977598E+03  0.36206799846E+03  0.12498936324E+03 0.  0.
    9000005    1    3    3    0    0 -0.23152467138E+01 -0.24078410294E+02 -0.30398806044E+03  0.30495060436E+03  0.10000000000E+01 0.  0.
    9000005    1    3    3    0    0 -0.13076246717E+02  0.43245620933E+02 -0.34931715544E+02  0.57117394101E+02  0.10000000000E+01 0.  0.
         21    1    1    2  502  501  0.15391493431E+02 -0.19167210638E+02 -0.18169270163E+02  0.30567996531E+02  0.00000000000E+00 0.  1.
<mgrwt>
<rscale>  1 0.12738375E+03</rscale>
<asrwt>0</asrwt>
<pdfrwt beam="1">  1        4 0.27343810E-02 0.12738375E+03</pdfrwt>
<pdfrwt beam="2">  1       -4 0.57671151E-01 0.12738375E+03</pdfrwt>
<totfact> 0.29126442E+03</totfact>
</mgrwt>
</event>
<event>
 6    4  0.5642870E-004  0.1532893E+03  0.7818608E-02  0.1196488E+00
         -4   -1    0    0    0  501 -0.00000000000E+00  0.00000000000E+00  0.74559194565E+03  0.74559302727E+03  0.12700000000E+01 0. -1.
          4   -1    0    0  502    0  0.00000000000E+00 -0.00000000000E+00 -0.25990117256E+02  0.26021127857E+02  0.12700000000E+01 0. -1.
         25    2    1    2    0    0 -0.83928336128E+02  0.28782693915E+02  0.24658430235E+03  0.29034708892E+03  0.12500081922E+03 0.  0.
    9000005    1    3    3    0    0 -0.40367061884E+02 -0.23984961018E+02  0.15677577632E+02  0.49513275802E+02  0.10000000000E+01 0.  0.
    9000005    1    3    3    0    0 -0.43561274244E+02  0.52767654933E+02  0.23090672472E+03  0.24083381312E+03  0.10000000000E+01 0.  0.
         21    1    1    2  502  501  0.83928336128E+02 -0.28782693915E+02  0.47301752604E+03  0.48126706621E+03  0.00000000000E+00 0. -1.
<mgrwt>
<rscale>  1 0.15328931E+03</rscale>
<asrwt>0</asrwt>
<pdfrwt beam="2">  1        4 0.40009485E-02 0.15328931E+03</pdfrwt>
<pdfrwt beam="1">  1       -4 0.11470891E+00 0.15328931E+03</pdfrwt>
<totfact> 0.36002664E+02</totfact>
</mgrwt>
</event>
<event>
 6    4  0.5642870E-004  0.1276104E+03  0.7818608E-02  0.1231045E+00
         -4   -1    0    0    0  501 -0.00000000000E+00  0.00000000000E+00  0.40076494672E+03  0.40076695899E+03  0.12700000000E+01 0.  1.
          4   -1    0    0  502    0  0.00000000000E+00 -0.00000000000E+00 -0.15333631657E+02  0.15386135311E+02  0.12700000000E+01 0.  1.
         25    2    1    2    0    0  0.15089544757E+02  0.20817510834E+02  0.28125338718E+03  0.30884930231E+03  0.12499344230E+03 0.  0.
    9000005    1    3    3    0    0 -0.24217713062E+02  0.19103071113E+02  0.26413250784E+03  0.26592932642E+03  0.10000000000E+01 0.  0.
    9000005    1    3    3    0    0  0.39307257819E+02  0.17144397217E+01  0.17120879338E+02  0.42919975887E+02  0.10000000000E+01 0.  0.
         21    1    1    2  502  501 -0.15089544757E+02 -0.20817510834E+02  0.10417792788E+03  0.10730379199E+03  0.00000000000E+00 0.  1.
<mgrwt>
<rscale>  1 0.12761044E+03</rscale>
<asrwt>0</asrwt>
<pdfrwt beam="2">  1        4 0.23632140E-02 0.12761044E+03</pdfrwt>
<pdfrwt beam="1">  1       -4 0.61660335E-01 0.12761044E+03</pdfrwt>
<totfact> 0.31770665E+03</totfact>
</mgrwt>
</event>
<event>
 6    4  0.5642870E-004  0.2038512E+03  0.7818608E-02  0.1146530E+00
         -4   -1    0    0    0  501 -0.00000000000E+00  0.00000000000E+00  0.87853871373E+02  0.87863050341E+02  0.12700000000E+01 0.  1.
          4   -1    0    0  502    0  0.00000000000E+00 -0.00000000000E+00 -0.52199631162E+03  0.52199785655E+03  0.12700000000E+01 0.  1.
         25    2    1    2    0    0 -0.15913987521E+03  0.24591109402E+02 -0.76668201950E+02  0.21779196705E+03  0.12500042071E+03 0.  0.
    9000005    1    3    3    0    0 -0.37195780432E+02 -0.41125032485E+02 -0.54027942463E+02  0.77426177392E+02  0.10000000000E+01 0.  0.
    9000005    1    3    3    0    0 -0.12194409478E+03  0.65716141886E+02 -0.22640259487E+02  0.14036578966E+03  0.10000000000E+01 0.  0.
         21    1    1    2  502  501  0.15913987521E+03 -0.24591109402E+02 -0.35747423830E+03  0.39206893984E+03  0.00000000000E+00 0.  1.
<mgrwt>
<rscale>  1 0.20385124E+03</rscale>
<asrwt>0</asrwt>
<pdfrwt beam="2">  1        4 0.80307948E-01 0.20385124E+03</pdfrwt>
<pdfrwt beam="1">  1       -4 0.13516805E-01 0.20385124E+03</pdfrwt>
<totfact> 0.11354005E+02</totfact>
</mgrwt>
</event>
<event>
 6    4  0.5642870E-004  0.1270188E+03  0.7818608E-02  0.1231947E+00
          4   -1    0    0  502    0  0.00000000000E+00  0.00000000000E+00  0.10069696507E+04  0.10069704516E+04  0.12700000000E+01 0.  1.
         -4   -1    0    0    0  501 -0.00000000000E+00 -0.00000000000E+00 -0.57928168554E+01  0.59303985634E+01  0.12700000000E+01 0.  1.
         25    2    1    2    0    0  0.24167345353E+01  0.22418288843E+02  0.91704560364E+03  0.92580042432E+03  0.12500146496E+03 0.  0.
    9000005    1    3    3    0    0 -0.29351525940E+02 -0.65496599709E+01  0.55083719291E+02  0.62766442082E+02  0.10000000000E+01 0.  0.
    9000005    1    3    3    0    0  0.31768260476E+02  0.28967948814E+02  0.86196188434E+03  0.86303398224E+03  0.10000000000E+01 0.  0.
         21    1    1    2  502  501 -0.24167345353E+01 -0.22418288843E+02  0.84131230250E+02  0.87100425854E+02  0.00000000000E+00 0.  1.
<mgrwt>
<rscale>  1 0.12701884E+03</rscale>
<asrwt>0</asrwt>
<pdfrwt beam="1">  1        4 0.15492901E+00 0.12701884E+03</pdfrwt>
<pdfrwt beam="2">  1       -4 0.90184767E-03 0.12701884E+03</pdfrwt>
<totfact> 0.16402060E+03</totfact>
</mgrwt>
</event>
<event>
 6    4  0.5642870E-004  0.1267728E+03  0.7818608E-02  0.1232325E+00
         -4   -1    0    0    0  501 -0.00000000000E+00  0.00000000000E+00  0.86403515191E+03  0.86403608526E+03  0.12700000000E+01 0.  1.
          4   -1    0    0  502    0  0.00000000000E+00 -0.00000000000E+00 -0.19273398084E+02  0.19315195409E+02  0.12700000000E+01 0.  1.
         25    2    1    2    0    0 -0.55084788003E+01  0.20397768863E+02  0.85172274056E+03  0.86110565976E+03  0.12499967272E+03 0.  0.
    9000005    1    3    3    0    0  0.32857992197E+02 -0.35117954499E+02  0.19177504060E+03  0.19771591887E+03  0.10000000000E+01 0.  0.
    9000005    1    3    3    0    0 -0.38366470998E+02  0.55515723363E+02  0.65994769996E+03  0.66338974089E+03  0.10000000000E+01 0.  0.
         21    1    1    2  502  501  0.55084788003E+01 -0.20397768863E+02 -0.69609867320E+01  0.22245620908E+02  0.00000000000E+00 0.  1.
<mgrwt>
<rscale>  1 0.12677275E+03</rscale>
<asrwt>0</asrwt>
<pdfrwt beam="2">  1        4 0.29684240E-02 0.12677275E+03</pdfrwt>
<pdfrwt beam="1">  1       -4 0.13293183E+00 0.12677275E+03</pdfrwt>
<totfact> 0.38975623E+02</totfact>
</mgrwt>
</event>
<event>
 6    4  0.5642870E-004  0.1282856E+03  0.7818608E-02  0.1230022E+00
          4   -1    0    0  502    0  0.00000000000E+00  0.00000000000E+00  0.14634566443E+03  0.14635117491E+03  0.12700000000E+01 0.  1.
         -4   -1    0    0    0  501 -0.00000000000E+00 -0.00000000000E+00 -0.70646810299E+02  0.70658224613E+02  0.12700000000E+01 0.  1.
         25    2    1    2    0    0 -0.17379377462E+02  0.23034887182E+02 -0.79416934288E+01  0.12853121021E+03  0.12499821084E+03 0.  0.
    9000005    1    3    3    0    0 -0.17577906013E+02  0.71509298203E+02 -0.23998648959E+02  0.77456424273E+02  0.10000000000E+01 0.  0.
    9000005    1    3    3    0    0  0.19852855143E+00 -0.48474411021E+02  0.16056955530E+02  0.51074785935E+02  0.10000000000E+01 0.  0.
         21    1    1    2  502  501  0.17379377462E+02 -0.23034887182E+02  0.83640547563E+02  0.88478189319E+02  0.00000000000E+00 0.  1.
<mgrwt>
<rscale>  1 0.12828562E+03</rscale>
<asrwt>0</asrwt>
<pdfrwt beam="1">  1        4 0.22516019E-01 0.12828562E+03</pdfrwt>
<pdfrwt beam="2">  1       -4 0.10870042E-01 0.12828562E+03</pdfrwt>
<totfact> 0.19416360E+03</totfact>
</mgrwt>
</event>
<event>
 6    4  0.5642870E-004  0.1275938E+03  0.7818608E-02  0.1231070E+00
          4   -1    0    0  502    0  0.00000000000E+00  0.00000000000E+00  0.65077950786E+02  0.65090341669E+02  0.12700000000E+01 0. -1.
         -4   -1    0    0    0  501 -0.00000000000E+00 -0.00000000000E+00 -0.10116784675E+03  0.10117581784E+03  0.12700000000E+01 0. -1.
         25    2    1    2    0    0 -0.14288804735E+02  0.21239213016E+02 -0.50108701165E+02  0.13708052931E+03  0.12499966190E+03 0.  0.
    9000005    1    3    3    0    0  0.20558683514E+02 -0.36429049041E+02 -0.55469423500E+02  0.69480875248E+02  0.10000000000E+01 0.  0.
    9000005    1    3    3    0    0 -0.34847488250E+02  0.57668262056E+02  0.53607223353E+01  0.67599654066E+02  0.10000000000E+01 0.  0.
         21    1    1    2  502  501  0.14288804735E+02 -0.21239213016E+02  0.14018805206E+02  0.29185630192E+02  0.00000000000E+00 0. -1.
<mgrwt>
<rscale>  1 0.12759385E+03</rscale>
<asrwt>0</asrwt>
<pdfrwt beam="1">  1        4 0.10013559E-01 0.12759385E+03</pdfrwt>
<pdfrwt beam="2">  1       -4 0.15565851E-01 0.12759385E+03</pdfrwt>
<totfact> 0.43037247E+03</totfact>
</mgrwt>
</event>
<event>
 6    4  0.5642870E-004  0.1522599E+03  0.7818608E-02  0.1197723E+00
          4   -1    0    0  502    0  0.00000000000E+00  0.00000000000E+00  0.41438078431E+03  0.41438273047E+03  0.12700000000E+01 0.  1.
         -4   -1    0    0    0  501 -0.00000000000E+00 -0.00000000000E+00 -0.39287689144E+02  0.39308210570E+02  0.12700000000E+01 0.  1.
         25    2    1    2    0    0 -0.86024027992E+02 -0.12560493910E+02  0.15604096216E+03  0.21801799737E+03  0.12500066363E+03 0.  0.
    9000005    1    3    3    0    0 -0.44612646235E+02  0.31829021684E+02  0.14667838148E+03  0.15658519220E+03  0.10000000000E+01 0.  0.
    9000005    1    3    3    0    0 -0.41411381757E+02 -0.44389515594E+02  0.93625806844E+01  0.61432805167E+02  0.10000000000E+01 0.  0.
         21    1    1    2  502  501  0.86024027992E+02  0.12560493910E+02  0.21905213301E+03  0.23567294366E+03  0.00000000000E+00 0.  1.
<mgrwt>
<rscale>  1 0.15225986E+03</rscale>
<asrwt>0</asrwt>
<pdfrwt beam="1">  1        4 0.63752621E-01 0.15225986E+03</pdfrwt>
<pdfrwt beam="2">  1       -4 0.60459879E-02 0.15225986E+03</pdfrwt>
<totfact> 0.69306028E+02</totfact>
</mgrwt>
</event>
<event>
 6    4  0.5642870E-004  0.2210194E+03  0.7818608E-02  0.1133125E+00
         -4   -1    0    0    0  501 -0.00000000000E+00  0.00000000000E+00  0.58312180634E+03  0.58312318933E+03  0.12700000000E+01 0. -1.
          4   -1    0    0  502    0  0.00000000000E+00 -0.00000000000E+00 -0.72853499547E+02  0.72864568182E+02  0.12700000000E+01 0. -1.
         25    2    1    2    0    0  0.16466959400E+03 -0.78147324595E+02  0.21090564926E+03  0.30550083870E+03  0.12500595997E+03 0.  0.
    9000005    1    3    3    0    0  0.14831860789E+03 -0.18357166915E+02  0.10453782465E+03  0.18238572259E+03  0.10000000000E+01 0.  0.
    9000005    1    3    3    0    0  0.16350986109E+02 -0.59790157680E+02  0.10636782461E+03  0.12311511611E+03  0.10000000000E+01 0.  0.
         21    1    1    2  502  501 -0.16466959400E+03  0.78147324595E+02  0.29936265754E+03  0.35048691881E+03  0.00000000000E+00 0. -1.
<mgrwt>
<rscale>  1 0.22101939E+03</rscale>
<asrwt>0</asrwt>
<pdfrwt beam="2">  1        4 0.11209188E-01 0.22101939E+03</pdfrwt>
<pdfrwt beam="1">  1       -4 0.89712006E-01 0.22101939E+03</pdfrwt>
<totfact> 0.12357973E+02</totfact>
</mgrwt>
</event>
<event>
 6    4  0.5642870E-004  0.1351031E+03  0.7818608E-02  0.1220074E+00
         -4   -1    0    0    0  501 -0.00000000000E+00  0.00000000000E+00  0.53392671190E+03  0.53392822231E+03  0.12700000000E+01 0. -1.
          4   -1    0    0  502    0  0.00000000000E+00 -0.00000000000E+00 -0.27908218057E+02  0.27937099619E+02  0.12700000000E+01 0. -1.
         25    2    1    2    0    0 -0.47058171926E+02 -0.20327827297E+02  0.48981263507E+03  0.50810360724E+03  0.12500066443E+03 0.  0.
    9000005    1    3    3    0    0 -0.78214998474E+02 -0.16269151835E+02  0.18294523230E+03  0.19963023145E+03  0.10000000000E+01 0.  0.
    9000005    1    3    3    0    0  0.31156826549E+02 -0.40586754619E+01  0.30686740278E+03  0.30847337579E+03  0.10000000000E+01 0.  0.
         21    1    1    2  502  501  0.47058171926E+02  0.20327827297E+02  0.16205858767E+02  0.53761714686E+02  0.00000000000E+00 0. -1.
<mgrwt>
<rscale>  1 0.13510314E+03</rscale>
<asrwt>0</asrwt>
<pdfrwt beam="2">  1        4 0.42959100E-02 0.13510314E+03</pdfrwt>
<pdfrwt beam="1">  1       -4 0.82144906E-01 0.13510314E+03</pdfrwt>
<totfact> 0.67684317E+02</totfact>
</mgrwt>
</event>
<event>
 6    4  0.5642870E-004  0.1620632E+03  0.7818608E-02  0.1186387E+00
          4   -1    0    0  502    0  0.00000000000E+00  0.00000000000E+00  0.12505912641E+03  0.12506557479E+03  0.12700000000E+01 0. -1.
         -4   -1    0    0    0  501 -0.00000000000E+00 -0.00000000000E+00 -0.30065673831E+03  0.30065942059E+03  0.12700000000E+01 0. -1.
         25    2    1    2    0    0 -0.15205513838E+02 -0.10202154963E+03 -0.25042729542E+03  0.29829232384E+03  0.12499950372E+03 0.  0.
    9000005    1    3    3    0    0 -0.35897994455E+02 -0.11862341560E+03 -0.23933009636E+03  0.26951822899E+03  0.10000000000E+01 0.  0.
    9000005    1    3    3    0    0  0.20692480617E+02  0.16601865967E+02 -0.11097199063E+02  0.28774094854E+02  0.10000000000E+01 0.  0.
         21    1    1    2  502  501  0.15205513838E+02  0.10202154963E+03  0.74829683524E+02  0.12743267154E+03  0.00000000000E+00 0. -1.
<mgrwt>
<rscale>  1 0.16206320E+03</rscale>
<asrwt>0</asrwt>
<pdfrwt beam="1">  1        4 0.19240568E-01 0.16206320E+03</pdfrwt>
<pdfrwt beam="2">  1       -4 0.46255585E-01 0.16206320E+03</pdfrwt>
<totfact> 0.18931948E+02</totfact>
</mgrwt>
</event>
<event>
 6    4  0.5642870E-004  0.1266666E+03  0.7818608E-02  0.1232487E+00
          4   -1    0    0  502    0  0.00000000000E+00  0.00000000000E+00  0.73920873029E+02  0.73931781862E+02  0.12700000000E+01 0.  1.
         -4   -1    0    0    0  501 -0.00000000000E+00 -0.00000000000E+00 -0.74532592512E+02  0.74543411825E+02  0.12700000000E+01 0.  1.
         25    2    1    2    0    0  0.16062145104E+02  0.12719482523E+02 -0.74238260550E+01  0.12688393303E+03  0.12499856610E+03 0.  0.
    9000005    1    3    3    0    0  0.36604358479E+02 -0.36494707373E+02 -0.39126103153E+02  0.64835134563E+02  0.10000000000E+01 0.  0.
    9000005    1    3    3    0    0 -0.20542213375E+02  0.49214189896E+02  0.31702277098E+02  0.62048798463E+02  0.10000000000E+01 0.  0.
         21    1    1    2  502  501 -0.16062145104E+02 -0.12719482523E+02  0.68121065720E+01  0.21591260661E+02  0.00000000000E+00 0.  1.
<mgrwt>
<rscale>  1 0.12666657E+03</rscale>
<asrwt>0</asrwt>
<pdfrwt beam="1">  1        4 0.11374113E-01 0.12666657E+03</pdfrwt>
<pdfrwt beam="2">  1       -4 0.11468224E-01 0.12666657E+03</pdfrwt>
<totfact> 0.58658191E+03</totfact>
</mgrwt>
</event>
<event>
 6    4  0.5642870E-004  0.1326942E+03  0.7818608E-02  0.1223512E+00
          4   -1    0    0  502    0  0.00000000000E+00  0.00000000000E+00  0.85303780703E+02  0.85313234039E+02  0.12700000000E+01 0. -1.
         -4   -1    0    0    0  501 -0.00000000000E+00 -0.00000000000E+00 -0.12753200012E+03  0.12753832347E+03  0.12700000000E+01 0. -1.
         25    2    1    2    0    0  0.12530574290E+02  0.42724894849E+02 -0.79585750449E+02  0.15473084643E+03  0.12500124492E+03 0.  0.
    9000005    1    3    3    0    0  0.50749178357E+02  0.11751600714E+02  0.94995232761E+01  0.52960552921E+02  0.10000000000E+01 0.  0.
    9000005    1    3    3    0    0 -0.38218604067E+02  0.30973294135E+02 -0.89085273725E+02  0.10177029351E+03  0.10000000000E+01 0.  0.
         21    1    1    2  502  501 -0.12530574290E+02 -0.42724894849E+02  0.37357531032E+02  0.58120711082E+02  0.00000000000E+00 0. -1.
<mgrwt>
<rscale>  1 0.13269417E+03</rscale>
<asrwt>0</asrwt>
<pdfrwt beam="1">  1        4 0.13124872E-01 0.13269417E+03</pdfrwt>
<pdfrwt beam="2">  1       -4 0.19621521E-01 0.13269417E+03</pdfrwt>
<totfact> 0.18184733E+03</totfact>
</mgrwt>
</event>
<event>
 6    4  0.5642870E-004  0.1276772E+03  0.7818608E-02  0.1230944E+00
          4   -1    0    0  502    0  0.00000000000E+00  0.00000000000E+00  0.22224554175E+02  0.22260811042E+02  0.12700000000E+01 0.  1.
         -4   -1    0    0    0  501 -0.00000000000E+00 -0.00000000000E+00 -0.27265625780E+03  0.27265921554E+03  0.12700000000E+01 0.  1.
         25    2    1    2    0    0 -0.25860989967E+02 -0.28264513002E+01 -0.22400782623E+03  0.25783902167E+03  0.12499870100E+03 0.  0.
    9000005    1    3    3    0    0 -0.70106882242E+02 -0.16862866436E+02 -0.86016585583E+02  0.11224608767E+03  0.10000000000E+01 0.  0.
    9000005    1    3    3    0    0  0.44245892275E+02  0.14036415136E+02 -0.13799124065E+03  0.14559293399E+03  0.10000000000E+01 0.  0.
         21    1    1    2  502  501  0.25860989967E+02  0.28264513002E+01 -0.26423877394E+02  0.37081004916E+02  0.00000000000E+00 0. -1.
<mgrwt>
<rscale>  1 0.12767715E+03</rscale>
<asrwt>0</asrwt>
<pdfrwt beam="1">  1        4 0.34221789E-02 0.12767715E+03</pdfrwt>
<pdfrwt beam="2">  1       -4 0.41950131E-01 0.12767715E+03</pdfrwt>
<totfact> 0.39128596E+03</totfact>
</mgrwt>
</event>
<event>
 6    4  0.5642870E-004  0.1297029E+03  0.7818608E-02  0.1227897E+00
          4   -1    0    0  502    0  0.00000000000E+00  0.00000000000E+00  0.37398548248E+02  0.37420105706E+02  0.12700000000E+01 0.  1.
         -4   -1    0    0    0  501 -0.00000000000E+00 -0.00000000000E+00 -0.19067411399E+03  0.19067834341E+03  0.12700000000E+01 0.  1.
         25    2    1    2    0    0 -0.32813928929E+02  0.10824938082E+02 -0.14061340991E+03  0.19129813110E+03  0.12501564181E+03 0.  0.
    9000005    1    3    3    0    0 -0.68899158985E+00  0.16771890664E+02 -0.15476802828E+03  0.15567887977E+03  0.10000000000E+01 0.  0.
    9000005    1    3    3    0    0 -0.32124937339E+02 -0.59469525816E+01  0.14154618374E+02  0.35619251331E+02  0.10000000000E+01 0.  0.
         21    1    1    2  502  501  0.32813928929E+02 -0.10824938082E+02 -0.12662155834E+02  0.36800318023E+02  0.00000000000E+00 0. -1.
<mgrwt>
<rscale>  1 0.12970291E+03</rscale>
<asrwt>0</asrwt>
<pdfrwt beam="1">  1        4 0.57556065E-02 0.12970291E+03</pdfrwt>
<pdfrwt beam="2">  1       -4 0.29336462E-01 0.12970291E+03</pdfrwt>
<totfact> 0.34161189E+03</totfact>
</mgrwt>
</event>
<event>
 6    4  0.5642870E-004  0.1670447E+03  0.7818608E-02  0.1180965E+00
         -4   -1    0    0    0  501 -0.00000000000E+00  0.00000000000E+00  0.61491703115E+02  0.61504816494E+02  0.12700000000E+01 0. -1.
          4   -1    0    0  502    0  0.00000000000E+00 -0.00000000000E+00 -0.57171866703E+03  0.57172007760E+03  0.12700000000E+01 0. -1.
         25    2    1    2    0    0  0.15240875918E+02 -0.10975781641E+03 -0.49369232243E+03  0.52118714630E+03  0.12499947873E+03 0.  0.
    9000005    1    3    3    0    0 -0.54982165654E+02 -0.41730640062E+02 -0.21810523110E+03  0.22876926519E+03  0.10000000000E+01 0.  0.
    9000005    1    3    3    0    0  0.70223041572E+02 -0.68027176345E+02 -0.27558709133E+03  0.29241788112E+03  0.10000000000E+01 0.  0.
         21    1    1    2  502  501 -0.15240875918E+02  0.10975781641E+03 -0.16534641485E+02  0.11203774779E+03  0.00000000000E+00 0. -1.
<mgrwt>
<rscale>  1 0.16704470E+03</rscale>
<asrwt>0</asrwt>
<pdfrwt beam="2">  1        4 0.87957832E-01 0.16704470E+03</pdfrwt>
<pdfrwt beam="1">  1       -4 0.94613796E-02 0.16704470E+03</pdfrwt>
<totfact> 0.16565473E+02</totfact>
</mgrwt>
</event>
<event>
 6    4  0.5642870E-004  0.1472253E+03  0.7818608E-02  0.1203925E+00
         -4   -1    0    0    0  501 -0.00000000000E+00  0.00000000000E+00  0.32218549018E+02  0.32243569915E+02  0.12700000000E+01 0. -1.
          4   -1    0    0  502    0  0.00000000000E+00 -0.00000000000E+00 -0.55512324341E+03  0.55512469615E+03  0.12700000000E+01 0. -1.
         25    2    1    2    0    0 -0.77776722810E+02 -0.21021912535E+00 -0.16510379490E+03  0.22121154213E+03  0.12500408185E+03 0.  0.
    9000005    1    3    3    0    0 -0.98634571615E+01  0.36299149472E+02  0.14675885829E+01  0.37657268300E+02  0.10000000000E+01 0.  0.
    9000005    1    3    3    0    0 -0.67913265648E+02 -0.36509368598E+02 -0.16657138348E+03  0.18355427383E+03  0.10000000000E+01 0.  0.
         21    1    1    2  502  501  0.77776722810E+02  0.21021912535E+00 -0.35780089950E+03  0.36615672394E+03  0.00000000000E+00 0. -1.
<mgrwt>
<rscale>  1 0.14722528E+03</rscale>
<asrwt>0</asrwt>
<pdfrwt beam="2">  1        4 0.85405605E-01 0.14722528E+03</pdfrwt>
<pdfrwt beam="1">  1       -4 0.49587367E-02 0.14722528E+03</pdfrwt>
<totfact> 0.50133977E+02</totfact>
</mgrwt>
</event>
<event>
 6    4  0.5642870E-004  0.1345655E+03  0.7818608E-02  0.1220834E+00
         -4   -1    0    0    0  501 -0.00000000000E+00  0.00000000000E+00  0.45591435891E+02  0.45609121090E+02  0.12700000000E+01 0.  1.
          4   -1    0    0  502    0  0.00000000000E+00 -0.00000000000E+00 -0.41803261331E+03  0.41803454246E+03  0.12700000000E+01 0.  1.
         25    2    1    2    0    0  0.27459563659E+02  0.41562417909E+02 -0.60137215097E+02  0.14739182229E+03  0.12500560955E+03 0.  0.
    9000005    1    3    3    0    0 -0.55980257540E+00 -0.23721850030E+00 -0.89242724860E+02  0.89250398273E+02  0.10000000000E+01 0.  0.
    9000005    1    3    3    0    0  0.28019366235E+02  0.41799636410E+02  0.29105509762E+02  0.58141424017E+02  0.10000000000E+01 0.  0.
         21    1    1    2  502  501 -0.27459563659E+02 -0.41562417909E+02 -0.31230396232E+03  0.31625184126E+03  0.00000000000E+00 0.  1.
<mgrwt>
<rscale>  1 0.13456547E+03</rscale>
<asrwt>0</asrwt>
<pdfrwt beam="2">  1        4 0.64314216E-01 0.13456547E+03</pdfrwt>
<pdfrwt beam="1">  1       -4 0.70155762E-02 0.13456547E+03</pdfrwt>
<totfact> 0.52075831E+02</totfact>
</mgrwt>
</event>
<event>
 6    4  0.5642870E-004  0.1269346E+03  0.7818608E-02  0.1232077E+00
          4   -1    0    0  502    0  0.00000000000E+00  0.00000000000E+00  0.70578853742E+03  0.70578968004E+03  0.12700000000E+01 0. -1.
         -4   -1    0    0    0  501 -0.00000000000E+00 -0.00000000000E+00 -0.10514869281E+02  0.10591287740E+02  0.12700000000E+01 0. -1.
         25    2    1    2    0    0  0.12792415204E+02 -0.17983556827E+02  0.38630385108E+03  0.40662396292E+03  0.12500131065E+03 0.  0.
    9000005    1    3    3    0    0 -0.15871664693E+02 -0.40485100919E+02  0.42230548212E+02  0.60624849186E+02  0.10000000000E+01 0.  0.
    9000005    1    3    3    0    0  0.28664079898E+02  0.22501544092E+02  0.34407330287E+03  0.34599911374E+03  0.10000000000E+01 0.  0.
         21    1    1    2  502  501 -0.12792415204E+02  0.17983556827E+02  0.30896981706E+03  0.30975700486E+03  0.00000000000E+00 0. -1.
<mgrwt>
<rscale>  1 0.12693456E+03</rscale>
<asrwt>0</asrwt>
<pdfrwt beam="1">  1        4 0.10858882E+00 0.12693456E+03</pdfrwt>
<pdfrwt beam="2">  1       -4 0.16236384E-02 0.12693456E+03</pdfrwt>
<totfact> 0.16080944E+03</totfact>
</mgrwt>
</event>
<event>
 6    4  0.5642870E-004  0.1281561E+03  0.7818608E-02  0.1230218E+00
          4   -1    0    0  502    0  0.00000000000E+00  0.00000000000E+00  0.28021347829E+03  0.28021635626E+03  0.12700000000E+01 0.  1.
         -4   -1    0    0    0  501 -0.00000000000E+00 -0.00000000000E+00 -0.22494187790E+02  0.22530010749E+02  0.12700000000E+01 0.  1.
         25    2    1    2    0    0 -0.28258939538E+02  0.30599694252E+00  0.18808669016E+03  0.22759744601E+03  0.12500133245E+03 0.  0.
    9000005    1    3    3    0    0 -0.27979255790E+02  0.21987740103E+02  0.19979005475E+03  0.20293685088E+03  0.10000000000E+01 0.  0.
    9000005    1    3    3    0    0 -0.27968374841E+00 -0.21681743160E+02 -0.11703364584E+02  0.24660595127E+02  0.10000000000E+01 0.  0.
         21    1    1    2  502  501  0.28258939538E+02 -0.30599694252E+00  0.69632600341E+02  0.75148921005E+02  0.00000000000E+00 0.  1.
<mgrwt>
<rscale>  1 0.12815613E+03</rscale>
<asrwt>0</asrwt>
<pdfrwt beam="1">  1        4 0.43112742E-01 0.12815613E+03</pdfrwt>
<pdfrwt beam="2">  1       -4 0.34636213E-02 0.12815613E+03</pdfrwt>
<totfact> 0.36401010E+03</totfact>
</mgrwt>
</event>
<event>
 6    4  0.5642870E-004  0.1307060E+03  0.7818608E-02  0.1226412E+00
          4   -1    0    0  502    0  0.00000000000E+00  0.00000000000E+00  0.17560684415E+03  0.17561143645E+03  0.12700000000E+01 0.  1.
         -4   -1    0    0    0  501 -0.00000000000E+00 -0.00000000000E+00 -0.65646439718E+02  0.65658723317E+02  0.12700000000E+01 0.  1.
         25    2    1    2    0    0 -0.23880125806E+02 -0.29797454516E+02  0.63647501427E+01  0.13086088347E+03  0.12500364825E+03 0.  0.
    9000005    1    3    3    0    0 -0.24397023938E+02  0.14358470360E+02  0.57010377833E+02  0.63659748890E+02  0.10000000000E+01 0.  0.
    9000005    1    3    3    0    0  0.51689813222E+00 -0.44155924875E+02 -0.50645627690E+02  0.67201134584E+02  0.10000000000E+01 0.  0.
         21    1    1    2  502  501  0.23880125806E+02  0.29797454516E+02  0.10359565429E+03  0.11040927630E+03  0.00000000000E+00 0.  1.
<mgrwt>
<rscale>  1 0.13070601E+03</rscale>
<asrwt>0</asrwt>
<pdfrwt beam="1">  1        4 0.27017735E-01 0.13070601E+03</pdfrwt>
<pdfrwt beam="2">  1       -4 0.10100750E-01 0.13070601E+03</pdfrwt>
<totfact> 0.15780647E+03</totfact>
</mgrwt>
</event>
<event>
 6    4  0.5642870E-004  0.1268555E+03  0.7818608E-02  0.1232198E+00
          4   -1    0    0  502    0  0.00000000000E+00  0.00000000000E+00  0.64139867625E+02  0.64152439696E+02  0.12700000000E+01 0.  1.
         -4   -1    0    0    0  501 -0.00000000000E+00 -0.00000000000E+00 -0.97569329481E+02  0.97577594536E+02  0.12700000000E+01 0.  1.
         25    2    1    2    0    0 -0.21148300943E+02 -0.45425007848E+01 -0.48018226614E+02  0.13563948032E+03  0.12499773433E+03 0.  0.
    9000005    1    3    3    0    0  0.17507045915E+02 -0.29915088706E+02 -0.74621438261E+02  0.82284678022E+02  0.10000000000E+01 0.  0.
    9000005    1    3    3    0    0 -0.38655346858E+02  0.25372587921E+02  0.26603211647E+02  0.53354802300E+02  0.10000000000E+01 0.  0.
         21    1    1    2  502  501  0.21148300943E+02  0.45425007848E+01  0.14588764758E+02  0.26090553910E+02  0.00000000000E+00 0.  1.
<mgrwt>
<rscale>  1 0.12685550E+03</rscale>
<asrwt>0</asrwt>
<pdfrwt beam="1">  1        4 0.98692748E-02 0.12685550E+03</pdfrwt>
<pdfrwt beam="2">  1       -4 0.15012269E-01 0.12685550E+03</pdfrwt>
<totfact> 0.46912310E+03</totfact>
</mgrwt>
</event>
<event>
 6    4  0.5642870E-004  0.1273923E+03  0.7818608E-02  0.1231377E+00
          4   -1    0    0  502    0  0.00000000000E+00  0.00000000000E+00  0.22865116195E+02  0.22900358918E+02  0.12700000000E+01 0. -1.
         -4   -1    0    0    0  501 -0.00000000000E+00 -0.00000000000E+00 -0.32317896137E+03  0.32318145673E+03  0.12700000000E+01 0. -1.
         25    2    1    2    0    0  0.16119197352E+02  0.18561203506E+02 -0.29442409944E+03  0.32080265617E+03  0.12499778830E+03 0.  0.
    9000005    1    3    3    0    0  0.41100913075E+02 -0.40721074478E+02 -0.94789177027E+02  0.11105619768E+03  0.10000000000E+01 0.  0.
    9000005    1    3    3    0    0 -0.24981715723E+02  0.59282277985E+02 -0.19963492241E+03  0.20974645849E+03  0.10000000000E+01 0.  0.
         21    1    1    2  502  501 -0.16119197352E+02 -0.18561203506E+02 -0.58897457406E+01  0.25279159475E+02  0.00000000000E+00 0. -1.
<mgrwt>
<rscale>  1 0.12739228E+03</rscale>
<asrwt>0</asrwt>
<pdfrwt beam="1">  1        4 0.35206133E-02 0.12739228E+03</pdfrwt>
<pdfrwt beam="2">  1       -4 0.49722740E-01 0.12739228E+03</pdfrwt>
<totfact> 0.26595657E+03</totfact>
</mgrwt>
</event>
<event>
 6    4  0.5642870E-004  0.1284479E+03  0.7818608E-02  0.1229777E+00
         -4   -1    0    0    0  501 -0.00000000000E+00  0.00000000000E+00  0.30062078828E+03  0.30062347089E+03  0.12700000000E+01 0. -1.
          4   -1    0    0  502    0  0.00000000000E+00 -0.00000000000E+00 -0.41783833224E+02  0.41803129295E+02  0.12700000000E+01 0. -1.
         25    2    1    2    0    0 -0.28508613323E+02 -0.78467355761E+01  0.27865234919E+03  0.30683218858E+03  0.12499819176E+03 0.  0.
    9000005    1    3    3    0    0  0.26926071306E+02 -0.50137251559E+02  0.15107091544E+03  0.16143784811E+03  0.10000000000E+01 0.  0.
    9000005    1    3    3    0    0 -0.55434684629E+02  0.42290515983E+02  0.12758143375E+03  0.14539434047E+03  0.10000000000E+01 0.  0.
         21    1    1    2  502  501  0.28508613323E+02  0.78467355761E+01 -0.19815394134E+02  0.35594411605E+02  0.00000000000E+00 0. -1.
<mgrwt>
<rscale>  1 0.12844789E+03</rscale>
<asrwt>0</asrwt>
<pdfrwt beam="2">  1        4 0.64299731E-02 0.12844789E+03</pdfrwt>
<pdfrwt beam="1">  1       -4 0.46251040E-01 0.12844789E+03</pdfrwt>
<totfact> 0.11752396E+03</totfact>
</mgrwt>
</event>
<event>
 6    4  0.5642870E-004  0.1277795E+03  0.7818608E-02  0.1230788E+00
          4   -1    0    0  502    0  0.00000000000E+00  0.00000000000E+00  0.12155805022E+03  0.12156468432E+03  0.12700000000E+01 0.  1.
         -4   -1    0    0    0  501 -0.00000000000E+00 -0.00000000000E+00 -0.57985915431E+02  0.57999821451E+02  0.12700000000E+01 0.  1.
         25    2    1    2    0    0  0.15803911688E+02  0.21297781112E+02  0.77665948893E+02  0.14953127916E+03  0.12499697886E+03 0.  0.
    9000005    1    3    3    0    0 -0.24457257989E+02  0.37406584062E+02  0.93273618966E+02  0.10343296377E+03  0.10000000000E+01 0.  0.
    9000005    1    3    3    0    0  0.40261169677E+02 -0.16108802950E+02 -0.15607670073E+02  0.46098315386E+02  0.10000000000E+01 0.  0.
         21    1    1    2  502  501 -0.15803911688E+02 -0.21297781112E+02 -0.14093814102E+02  0.30033226615E+02  0.00000000000E+00 0.  1.
<mgrwt>
<rscale>  1 0.12777951E+03</rscale>
<asrwt>0</asrwt>
<pdfrwt beam="1">  1        4 0.18702819E-01 0.12777951E+03</pdfrwt>
<pdfrwt beam="2">  1       -4 0.89224900E-02 0.12777951E+03</pdfrwt>
<totfact> 0.37767049E+03</totfact>
</mgrwt>
</event>
<event>
 6    4  0.5642870E-004  0.1275968E+03  0.7818608E-02  0.1231066E+00
         -4   -1    0    0    0  501 -0.00000000000E+00  0.00000000000E+00  0.88188583379E+03  0.88188674825E+03  0.12700000000E+01 0.  1.
          4   -1    0    0  502    0  0.00000000000E+00 -0.00000000000E+00 -0.67149513407E+01  0.68339938183E+01  0.12700000000E+01 0.  1.
         25    2    1    2    0    0  0.18316385499E+02  0.17909803472E+02  0.76823420551E+03  0.77875845802E+03  0.12499876154E+03 0.  0.
    9000005    1    3    3    0    0  0.65881083422E+02 -0.10010458225E+02  0.30162859943E+03  0.30890344514E+03  0.10000000000E+01 0.  0.
    9000005    1    3    3    0    0 -0.47564697923E+02  0.27920261697E+02  0.46660560608E+03  0.46985501288E+03  0.10000000000E+01 0.  0.
         21    1    1    2  502  501 -0.18316385499E+02 -0.17909803472E+02  0.10693667694E+03  0.10996228405E+03  0.00000000000E+00 0.  1.
<mgrwt>
<rscale>  1 0.12759679E+03</rscale>
<asrwt>0</asrwt>
<pdfrwt beam="2">  1        4 0.10422968E-02 0.12759679E+03</pdfrwt>
<pdfrwt beam="1">  1       -4 0.13568399E+00 0.12759679E+03</pdfrwt>
<totfact> 0.18448613E+03</totfact>
</mgrwt>
</event>
<event>
 6    4  0.5642870E-004  0.1286327E+03  0.7818608E-02  0.1229499E+00
         -4   -1    0    0    0  501 -0.00000000000E+00  0.00000000000E+00  0.22997831514E+02  0.23032871170E+02  0.12700000000E+01 0.  1.
          4   -1    0    0  502    0  0.00000000000E+00 -0.00000000000E+00 -0.27711597579E+03  0.27711888592E+03  0.12700000000E+01 0.  1.
         25    2    1    2    0    0 -0.16488300728E+02  0.25471691728E+02 -0.19335278744E+03  0.23223195342E+03  0.12500283452E+03 0.  0.
    9000005    1    3    3    0    0  0.47778534427E+02  0.24690825826E+01 -0.33503310144E+02  0.58415379065E+02  0.10000000000E+01 0.  0.
    9000005    1    3    3    0    0 -0.64266835155E+02  0.23002609146E+02 -0.15984947730E+03  0.17381657435E+03  0.10000000000E+01 0.  0.
         21    1    1    2  502  501  0.16488300728E+02 -0.25471691728E+02 -0.60765356833E+02  0.67919803676E+02  0.00000000000E+00 0.  1.
<mgrwt>
<rscale>  1 0.12863273E+03</rscale>
<asrwt>0</asrwt>
<pdfrwt beam="2">  1        4 0.42636144E-01 0.12863273E+03</pdfrwt>
<pdfrwt beam="1">  1       -4 0.35410473E-02 0.12863273E+03</pdfrwt>
<totfact> 0.35972032E+03</totfact>
</mgrwt>
</event>
<event>
 6    4  0.5642870E-004  0.1269603E+03  0.7818608E-02  0.1232037E+00
         -4   -1    0    0    0  501 -0.00000000000E+00  0.00000000000E+00  0.13906915995E+04  0.13906921794E+04  0.12700000000E+01 0. -1.
          4   -1    0    0  502    0  0.00000000000E+00 -0.00000000000E+00 -0.61739968746E+01  0.63032640280E+01  0.12700000000E+01 0. -1.
         25    2    1    2    0    0 -0.21109944012E+02  0.69308532074E+01  0.13499240346E+04  0.13558811952E+04  0.12500099871E+03 0.  0.
    9000005    1    3    3    0    0 -0.56423790292E+02 -0.38168621528E+02  0.83687067535E+03  0.83963921718E+03  0.10000000000E+01 0.  0.
    9000005    1    3    3    0    0  0.35313846280E+02  0.45099474736E+02  0.51305335927E+03  0.51624197797E+03  0.10000000000E+01 0.  0.
         21    1    1    2  502  501  0.21109944012E+02 -0.69308532074E+01  0.34593567985E+02  0.41114248239E+02  0.00000000000E+00 0. -1.
<mgrwt>
<rscale>  1 0.12696029E+03</rscale>
<asrwt>0</asrwt>
<pdfrwt beam="2">  1        4 0.95983363E-03 0.12696029E+03</pdfrwt>
<pdfrwt beam="1">  1       -4 0.21396260E+00 0.12696029E+03</pdfrwt>
<totfact> 0.61646338E+02</totfact>
</mgrwt>
</event>
<event>
 6    4  0.5642870E-004  0.1336710E+03  0.7818608E-02  0.1222108E+00
         -4   -1    0    0    0  501 -0.00000000000E+00  0.00000000000E+00  0.12143401085E+03  0.12144065173E+03  0.12700000000E+01 0.  1.
          4   -1    0    0  502    0  0.00000000000E+00 -0.00000000000E+00 -0.69919421252E+02  0.69930954292E+02  0.12700000000E+01 0.  1.
         25    2    1    2    0    0 -0.34430345250E+02 -0.32513673166E+02  0.53485998771E+02  0.14397462224E+03  0.12500140867E+03 0.  0.
    9000005    1    3    3    0    0  0.28873549191E+02  0.13459762461E+02  0.57377000241E+02  0.65635106498E+02  0.10000000000E+01 0.  0.
    9000005    1    3    3    0    0 -0.63303894442E+02 -0.45973435627E+02 -0.38910014696E+01  0.78339515746E+02  0.10000000000E+01 0.  0.
         21    1    1    2  502  501  0.34430345250E+02  0.32513673166E+02 -0.19714091701E+01  0.47396983774E+02  0.00000000000E+00 0.  1.
<mgrwt>
<rscale>  1 0.13367101E+03</rscale>
<asrwt>0</asrwt>
<pdfrwt beam="2">  1        4 0.10758232E-01 0.13367101E+03</pdfrwt>
<pdfrwt beam="1">  1       -4 0.18683554E-01 0.13367101E+03</pdfrwt>
<totfact> 0.27927069E+03</totfact>
</mgrwt>
</event>
<event>
 6    4  0.5642870E-004  0.1269297E+03  0.7818608E-02  0.1232084E+00
          4   -1    0    0  502    0  0.00000000000E+00  0.00000000000E+00  0.18134666658E+03  0.18135111353E+03  0.12700000000E+01 0. -1.
         -4   -1    0    0    0  501 -0.00000000000E+00 -0.00000000000E+00 -0.33343205388E+02  0.33367382959E+02  0.12700000000E+01 0. -1.
         25    2    1    2    0    0  0.21717178716E+02  0.38212796136E+01  0.98966871420E+02  0.16095210210E+03  0.12499959801E+03 0.  0.
    9000005    1    3    3    0    0  0.22211200204E+02  0.48900155216E+02  0.17036547068E+01  0.53744441889E+02  0.10000000000E+01 0.  0.
    9000005    1    3    3    0    0 -0.49402148762E+00 -0.45078875602E+02  0.97263216714E+02  0.10720766021E+03  0.10000000000E+01 0.  0.
         21    1    1    2  502  501 -0.21717178716E+02 -0.38212796136E+01  0.49036589769E+02  0.53766394388E+02  0.00000000000E+00 0.  1.
<mgrwt>
<rscale>  1 0.12692966E+03</rscale>
<asrwt>0</asrwt>
<pdfrwt beam="1">  1        4 0.27901689E-01 0.12692966E+03</pdfrwt>
<pdfrwt beam="2">  1       -4 0.51319258E-02 0.12692966E+03</pdfrwt>
<totfact> 0.44920226E+03</totfact>
</mgrwt>
</event>
<event>
 6    4  0.5642870E-004  0.1320893E+03  0.7818608E-02  0.1224388E+00
         -4   -1    0    0    0  501 -0.00000000000E+00  0.00000000000E+00  0.68725622820E+01  0.69889206835E+01  0.12700000000E+01 0.  1.
          4   -1    0    0  502    0  0.00000000000E+00 -0.00000000000E+00 -0.13685763796E+04  0.13685769689E+04  0.12700000000E+01 0.  1.
         25    2    1    2    0    0 -0.25882397397E+01  0.42518388911E+02 -0.69105526420E+03  0.70356589388E+03  0.12503230169E+03 0.  0.
    9000005    1    3    3    0    0 -0.25714173829E+02 -0.18293422001E+02 -0.51339255724E+03  0.51436250433E+03  0.10000000000E+01 0.  0.
    9000005    1    3    3    0    0  0.23125934089E+02  0.60811810911E+02 -0.17766270696E+03  0.18920338955E+03  0.10000000000E+01 0.  0.
         21    1    1    2  502  501  0.25882397397E+01 -0.42518388911E+02 -0.67064855315E+03  0.67199999571E+03  0.00000000000E+00 0.  1.
<mgrwt>
<rscale>  1 0.13208932E+03</rscale>
<asrwt>0</asrwt>
<pdfrwt beam="2">  1        4 0.21055899E+00 0.13208932E+03</pdfrwt>
<pdfrwt beam="1">  1       -4 0.10663143E-02 0.13208932E+03</pdfrwt>
<totfact> 0.55567358E+02</totfact>
</mgrwt>
</event>
<event>
 6    4  0.5642870E-004  0.1277323E+03  0.7818608E-02  0.1230860E+00
         -4   -1    0    0    0  501 -0.00000000000E+00  0.00000000000E+00  0.31931430937E+01  0.34364316983E+01  0.12700000000E+01 0. -1.
          4   -1    0    0  502    0  0.00000000000E+00 -0.00000000000E+00 -0.18183602381E+04  0.18183606816E+04  0.12700000000E+01 0. -1.
         25    2    1    2    0    0 -0.24116588821E+02  0.10439382914E+02 -0.14075767746E+04  0.14133605088E+04  0.12499984398E+03 0.  0.
    9000005    1    3    3    0    0 -0.20300252192E+02  0.67004790430E+02 -0.86478863589E+03  0.86761865295E+03  0.10000000000E+01 0.  0.
    9000005    1    3    3    0    0 -0.38163366289E+01 -0.56565407516E+02 -0.54278813871E+03  0.54574185589E+03  0.10000000000E+01 0.  0.
         21    1    1    2  502  501  0.24116588821E+02 -0.10439382914E+02 -0.40759032036E+03  0.40843660441E+03  0.00000000000E+00 0. -1.
<mgrwt>
<rscale>  1 0.12773234E+03</rscale>
<asrwt>0</asrwt>
<pdfrwt beam="2">  1        4 0.27976568E+00 0.12773234E+03</pdfrwt>
<pdfrwt beam="1">  1       -4 0.51000286E-03 0.12773234E+03</pdfrwt>
<totfact> 0.65711506E+02</totfact>
</mgrwt>
</event>
<event>
 6    4  0.5642870E-004  0.1300946E+03  0.7818608E-02  0.1227315E+00
          4   -1    0    0  502    0  0.00000000000E+00  0.00000000000E+00  0.54309839276E+02  0.54324686306E+02  0.12700000000E+01 0.  1.
         -4   -1    0    0    0  501 -0.00000000000E+00 -0.00000000000E+00 -0.12862330179E+03  0.12862957150E+03  0.12700000000E+01 0.  1.
         25    2    1    2    0    0 -0.29089028940E+02  0.21311325294E+02 -0.66298336110E+02  0.14601394863E+03  0.12499703850E+03 0.  0.
    9000005    1    3    3    0    0  0.12413147423E+01  0.53934720254E+02 -0.82521470050E+02  0.98596591880E+02  0.10000000000E+01 0.  0.
    9000005    1    3    3    0    0 -0.30330343682E+02 -0.32623394960E+02  0.16223133939E+02  0.47417356753E+02  0.10000000000E+01 0.  0.
         21    1    1    2  502  501  0.29089028940E+02 -0.21311325294E+02 -0.80151264069E+01  0.36940309173E+02  0.00000000000E+00 0.  1.
<mgrwt>
<rscale>  1 0.13009460E+03</rscale>
<asrwt>0</asrwt>
<pdfrwt beam="1">  1        4 0.83569843E-02 0.13009460E+03</pdfrwt>
<pdfrwt beam="2">  1       -4 0.19789825E-01 0.13009460E+03</pdfrwt>
<totfact> 0.38233515E+03</totfact>
</mgrwt>
</event>
<event>
 6    4  0.5642870E-004  0.1304240E+03  0.7818608E-02  0.1226828E+00
         -4   -1    0    0    0  501 -0.00000000000E+00  0.00000000000E+00  0.11568347298E+03  0.11569044395E+03  0.12700000000E+01 0. -1.
          4   -1    0    0  502    0  0.00000000000E+00 -0.00000000000E+00 -0.63215775533E+02  0.63228531347E+02  0.12700000000E+01 0. -1.
         25    2    1    2    0    0  0.98048451751E+01 -0.35905699738E+02  0.55144005699E+02  0.14160253270E+03  0.12500024656E+03 0.  0.
    9000005    1    3    3    0    0 -0.26175837760E+02 -0.24262994298E+02  0.85785379278E+02  0.92919312700E+02  0.10000000000E+01 0.  0.
    9000005    1    3    3    0    0  0.35980682935E+02 -0.11642705440E+02 -0.30641373579E+02  0.48683219996E+02  0.10000000000E+01 0.  0.
         21    1    1    2  502  501 -0.98048451751E+01  0.35905699738E+02 -0.26763082490E+01  0.37316442601E+02  0.00000000000E+00 0. -1.
<mgrwt>
<rscale>  1 0.13042399E+03</rscale>
<asrwt>0</asrwt>
<pdfrwt beam="2">  1        4 0.97270216E-02 0.13042399E+03</pdfrwt>
<pdfrwt beam="1">  1       -4 0.17798974E-01 0.13042399E+03</pdfrwt>
<totfact> 0.35875578E+03</totfact>
</mgrwt>
</event>
<event>
 6    4  0.5642870E-004  0.1307288E+03  0.7818608E-02  0.1226378E+00
         -4   -1    0    0    0  501 -0.00000000000E+00  0.00000000000E+00  0.18481095897E+03  0.18481532257E+03  0.12700000000E+01 0.  1.
          4   -1    0    0  502    0  0.00000000000E+00 -0.00000000000E+00 -0.38811946175E+02  0.38832719012E+02  0.12700000000E+01 0.  1.
         25    2    1    2    0    0 -0.38266899609E+02 -0.46133487229E+00  0.11933583661E+03  0.17700585681E+03  0.12500185203E+03 0.  0.
    9000005    1    3    3    0    0 -0.45196156443E+02 -0.33542415715E+02  0.35725428883E+01  0.56405223800E+02  0.10000000000E+01 0.  0.
    9000005    1    3    3    0    0  0.69292568333E+01  0.33081080843E+02  0.11576329372E+03  0.12060063301E+03  0.10000000000E+01 0.  0.
         21    1    1    2  502  501  0.38266899609E+02  0.46133487229E+00  0.26663176188E+02  0.46642184769E+02  0.00000000000E+00 0.  1.
<mgrwt>
<rscale>  1 0.13072885E+03</rscale>
<asrwt>0</asrwt>
<pdfrwt beam="2">  1        4 0.59730021E-02 0.13072885E+03</pdfrwt>
<pdfrwt beam="1">  1       -4 0.28434390E-01 0.13072885E+03</pdfrwt>
<totfact> 0.34177824E+03</totfact>
</mgrwt>
</event>
<event>
 6    4  0.5642870E-004  0.1274352E+03  0.7818608E-02  0.1231312E+00
          4   -1    0    0  502    0  0.00000000000E+00  0.00000000000E+00  0.65894939079E+02  0.65907176364E+02  0.12700000000E+01 0.  1.
         -4   -1    0    0    0  501 -0.00000000000E+00 -0.00000000000E+00 -0.90245671901E+02  0.90254607622E+02  0.12700000000E+01 0.  1.
         25    2    1    2    0    0  0.74841350980E+01 -0.23602532762E+02 -0.10690187031E+02  0.12788277512E+03  0.12500652880E+03 0.  0.
    9000005    1    3    3    0    0 -0.70388008584E+01  0.91749958398E+00  0.55421644280E+02  0.55883317526E+02  0.10000000000E+01 0.  0.
    9000005    1    3    3    0    0  0.14522935956E+02 -0.24520032346E+02 -0.66111831311E+02  0.71999457597E+02  0.10000000000E+01 0.  0.
         21    1    1    2  502  501 -0.74841350980E+01  0.23602532762E+02 -0.13660545791E+02  0.28279008862E+02  0.00000000000E+00 0.  1.
<mgrwt>
<rscale>  1 0.12743518E+03</rscale>
<asrwt>0</asrwt>
<pdfrwt beam="1">  1        4 0.10139312E-01 0.12743518E+03</pdfrwt>
<pdfrwt beam="2">  1       -4 0.13885578E-01 0.12743518E+03</pdfrwt>
<totfact> 0.51395410E+03</totfact>
</mgrwt>
</event>
<event>
 6    4  0.5642870E-004  0.1278504E+03  0.7818608E-02  0.1230681E+00
         -4   -1    0    0    0  501 -0.00000000000E+00  0.00000000000E+00  0.56170282225E+03  0.56170425797E+03  0.12700000000E+01 0. -1.
          4   -1    0    0  502    0  0.00000000000E+00 -0.00000000000E+00 -0.10625799741E+02  0.10701426080E+02  0.12700000000E+01 0. -1.
         25    2    1    2    0    0  0.10141244249E+02  0.24881112583E+02  0.46212206100E+03  0.47948152263E+03  0.12499526665E+03 0.  0.
    9000005    1    3    3    0    0 -0.31657261498E+01 -0.27091425804E+02  0.38246360311E+03  0.38343627225E+03  0.10000000000E+01 0.  0.
    9000005    1    3    3    0    0  0.13306970399E+02  0.51972538387E+02  0.79658457891E+02  0.96045250383E+02  0.10000000000E+01 0.  0.
         21    1    1    2  502  501 -0.10141244249E+02 -0.24881112583E+02  0.88954961507E+02  0.92924161417E+02  0.00000000000E+00 0.  1.
<mgrwt>
<rscale>  1 0.12785043E+03</rscale>
<asrwt>0</asrwt>
<pdfrwt beam="2">  1        4 0.16406668E-02 0.12785043E+03</pdfrwt>
<pdfrwt beam="1">  1       -4 0.86421719E-01 0.12785043E+03</pdfrwt>
<totfact> 0.26761829E+03</totfact>
</mgrwt>
</event>
<event>
 6    4  0.5642870E-004  0.1334676E+03  0.7818608E-02  0.1222399E+00
          4   -1    0    0  502    0  0.00000000000E+00  0.00000000000E+00  0.28199062593E+02  0.28227646574E+02  0.12700000000E+01 0. -1.
         -4   -1    0    0    0  501 -0.00000000000E+00 -0.00000000000E+00 -0.29250475702E+03  0.29250751405E+03  0.12700000000E+01 0. -1.
         25    2    1    2    0    0  0.28076143883E+02 -0.37425201296E+02 -0.21242479626E+03  0.25087427642E+03  0.12499877182E+03 0.  0.
    9000005    1    3    3    0    0  0.85775135656E+01  0.41341448668E+02 -0.12333394712E+03  0.13036468705E+03  0.10000000000E+01 0.  0.
    9000005    1    3    3    0    0  0.19498630317E+02 -0.78766649964E+02 -0.89090849138E+02  0.12050958937E+03  0.10000000000E+01 0.  0.
         21    1    1    2  502  501 -0.28076143883E+02  0.37425201296E+02 -0.51880898165E+02  0.69860884204E+02  0.00000000000E+00 0. -1.
<mgrwt>
<rscale>  1 0.13346763E+03</rscale>
<asrwt>0</asrwt>
<pdfrwt beam="1">  1        4 0.43407284E-02 0.13346763E+03</pdfrwt>
<pdfrwt beam="2">  1       -4 0.45003141E-01 0.13346763E+03</pdfrwt>
<totfact> 0.23593146E+03</totfact>
</mgrwt>
</event>
<event>
 6    4  0.5642870E-004  0.1271027E+03  0.7818608E-02  0.1231819E+00
         -4   -1    0    0    0  501 -0.00000000000E+00  0.00000000000E+00  0.46351959829E+03  0.46352133813E+03  0.12700000000E+01 0. -1.
          4   -1    0    0  502    0  0.00000000000E+00 -0.00000000000E+00 -0.14260701684E+02  0.14317140515E+02  0.12700000000E+01 0. -1.
         25    2    1    2    0    0 -0.35877806926E+00  0.23020341412E+02  0.42809764926E+03  0.44656767390E+03  0.12500010090E+03 0.  0.
    9000005    1    3    3    0    0  0.37810401130E+02  0.60764578057E+02  0.20626773022E+03  0.21833308707E+03  0.10000000000E+01 0.  0.
    9000005    1    3    3    0    0 -0.38169179199E+02 -0.37744236645E+02  0.22182991904E+03  0.22823458683E+03  0.10000000000E+01 0.  0.
         21    1    1    2  502  501  0.35877806926E+00 -0.23020341412E+02  0.21161247348E+02  0.31270804751E+02  0.00000000000E+00 0.  1.
<mgrwt>
<rscale>  1 0.12710268E+03</rscale>
<asrwt>0</asrwt>
<pdfrwt beam="2">  1        4 0.21984293E-02 0.12710268E+03</pdfrwt>
<pdfrwt beam="1">  1       -4 0.71315184E-01 0.12710268E+03</pdfrwt>
<totfact> 0.26021415E+03</totfact>
</mgrwt>
</event>
<event>
 6    4  0.5642870E-004  0.1279205E+03  0.7818608E-02  0.1230574E+00
          4   -1    0    0  502    0  0.00000000000E+00  0.00000000000E+00  0.34983070470E+02  0.35006115458E+02  0.12700000000E+01 0. -1.
         -4   -1    0    0    0  501 -0.00000000000E+00 -0.00000000000E+00 -0.42262057297E+03  0.42262248118E+03  0.12700000000E+01 0. -1.
         25    2    1    2    0    0  0.15259437961E+02 -0.22496736513E+02 -0.40543520439E+03  0.42513687780E+03  0.12499882520E+03 0.  0.
    9000005    1    3    3    0    0  0.45917828855E+02 -0.45667042202E+02 -0.35927121658E+03  0.36506264232E+03  0.10000000000E+01 0.  0.
    9000005    1    3    3    0    0 -0.30658390894E+02  0.23170305689E+02 -0.46163987811E+02  0.60074235481E+02  0.10000000000E+01 0.  0.
         21    1    1    2  502  501 -0.15259437961E+02  0.22496736513E+02  0.17797701892E+02  0.32491718842E+02  0.00000000000E+00 0. -1.
<mgrwt>
<rscale>  1 0.12792052E+03</rscale>
<asrwt>0</asrwt>
<pdfrwt beam="1">  1        4 0.53839306E-02 0.12792052E+03</pdfrwt>
<pdfrwt beam="2">  1       -4 0.65020465E-01 0.12792052E+03</pdfrwt>
<totfact> 0.77459385E+02</totfact>
</mgrwt>
</event>
<event>
 6    4  0.5642870E-004  0.1289496E+03  0.7818608E-02  0.1229023E+00
         -4   -1    0    0    0  501 -0.00000000000E+00  0.00000000000E+00  0.28452306769E+03  0.28452590207E+03  0.12700000000E+01 0.  1.
          4   -1    0    0  502    0  0.00000000000E+00 -0.00000000000E+00 -0.24192130069E+02  0.24225442354E+02  0.12700000000E+01 0.  1.
         25    2    1    2    0    0 -0.27722645866E+02 -0.15331451441E+02  0.23552841168E+03  0.26851748070E+03  0.12499762492E+03 0.  0.
    9000005    1    3    3    0    0 -0.55103655628E+01  0.51436173333E+02  0.14433373226E+03  0.15332733065E+03  0.10000000000E+01 0.  0.
    9000005    1    3    3    0    0 -0.22212280303E+02 -0.66767624774E+02  0.91194679419E+02  0.11519015005E+03  0.10000000000E+01 0.  0.
         21    1    1    2  502  501  0.27722645866E+02  0.15331451441E+02  0.24802525944E+02  0.40233863726E+02  0.00000000000E+00 0.  1.
<mgrwt>
<rscale>  1 0.12894962E+03</rscale>
<asrwt>0</asrwt>
<pdfrwt beam="2">  1        4 0.37246469E-02 0.12894962E+03</pdfrwt>
<pdfrwt beam="1">  1       -4 0.43775558E-01 0.12894962E+03</pdfrwt>
<totfact> 0.31534548E+03</totfact>
</mgrwt>
</event>
<event>
 6    4  0.5642870E-004  0.1310395E+03  0.7818608E-02  0.1225921E+00
          4   -1    0    0  502    0  0.00000000000E+00  0.00000000000E+00  0.13750305104E+03  0.13750891588E+03  0.12700000000E+01 0.  1.
         -4   -1    0    0    0  501 -0.00000000000E+00 -0.00000000000E+00 -0.60041329047E+02  0.60054759126E+02  0.12700000000E+01 0.  1.
         25    2    1    2    0    0 -0.28890867963E+02  0.26649639268E+02  0.27327532728E+02  0.13385871085E+03  0.12500589946E+03 0.  0.
    9000005    1    3    3    0    0 -0.62978766922E+02  0.11094883495E+02  0.57296788072E+02  0.85868174816E+02  0.10000000000E+01 0.  0.
    9000005    1    3    3    0    0  0.34087898960E+02  0.15554755773E+02 -0.29969255345E+02  0.47990536031E+02  0.10000000000E+01 0.  0.
         21    1    1    2  502  501  0.28890867963E+02 -0.26649639268E+02  0.50134189268E+02  0.63704964157E+02  0.00000000000E+00 0.  1.
<mgrwt>
<rscale>  1 0.13103954E+03</rscale>
<asrwt>0</asrwt>
<pdfrwt beam="1">  1        4 0.21155800E-01 0.13103954E+03</pdfrwt>
<pdfrwt beam="2">  1       -4 0.92386119E-02 0.13103954E+03</pdfrwt>
<totfact> 0.28732251E+03</totfact>
</mgrwt>
</event>
<event>
 6    4  0.5642870E-004  0.1289269E+03  0.7818608E-02  0.1229057E+00
         -4   -1    0    0    0  501 -0.00000000000E+00  0.00000000000E+00  0.10371762226E+03  0.10372539741E+03  0.12700000000E+01 0. -1.
          4   -1    0    0  502    0  0.00000000000E+00 -0.00000000000E+00 -0.69405743744E+02  0.69417362126E+02  0.12700000000E+01 0. -1.
         25    2    1    2    0    0  0.60121360112E+01  0.30997155270E+02  0.49502605064E+02  0.13810381567E+03  0.12500074632E+03 0.  0.
    9000005    1    3    3    0    0  0.44874373293E+02  0.29888399311E+02  0.74428302870E+02  0.91910815794E+02  0.10000000000E+01 0.  0.
    9000005    1    3    3    0    0 -0.38862237281E+02  0.11087559588E+01 -0.24925697806E+02  0.46192999875E+02  0.10000000000E+01 0.  0.
         21    1    1    2  502  501 -0.60121360112E+01 -0.30997155270E+02 -0.15190726546E+02  0.35038943866E+02  0.00000000000E+00 0. -1.
<mgrwt>
<rscale>  1 0.12892694E+03</rscale>
<asrwt>0</asrwt>
<pdfrwt beam="2">  1        4 0.10679299E-01 0.12892694E+03</pdfrwt>
<pdfrwt beam="1">  1       -4 0.15958049E-01 0.12892694E+03</pdfrwt>
<totfact> 0.37055477E+03</totfact>
</mgrwt>
</event>
<event>
 6    4  0.5642870E-004  0.1597674E+03  0.7818608E-02  0.1188960E+00
          4   -1    0    0  502    0  0.00000000000E+00  0.00000000000E+00  0.47184573447E+03  0.47184744361E+03  0.12700000000E+01 0. -1.
         -4   -1    0    0    0  501 -0.00000000000E+00 -0.00000000000E+00 -0.58136726810E+02  0.58150596765E+02  0.12700000000E+01 0. -1.
         25    2    1    2    0    0  0.99489683131E+02 -0.15188048181E+01  0.74103817769E+02  0.17611643755E+03  0.12500047979E+03 0.  0.
    9000005    1    3    3    0    0 -0.49568447738E+01 -0.36506269764E+02 -0.92272126157E+01  0.37992361007E+02  0.10000000000E+01 0.  0.
    9000005    1    3    3    0    0  0.10444652790E+03  0.34987464946E+02  0.83331030385E+02  0.13812407654E+03  0.10000000000E+01 0.  0.
         21    1    1    2  502  501 -0.99489683131E+02  0.15188048181E+01  0.33960518989E+03  0.35388160283E+03  0.00000000000E+00 0. -1.
<mgrwt>
<rscale>  1 0.15976741E+03</rscale>
<asrwt>0</asrwt>
<pdfrwt beam="1">  1        4 0.72592849E-01 0.15976741E+03</pdfrwt>
<pdfrwt beam="2">  1       -4 0.89453103E-02 0.15976741E+03</pdfrwt>
<totfact> 0.27677162E+02</totfact>
</mgrwt>
</event>
<event>
 6    4  0.5642870E-004  0.1343131E+03  0.7818608E-02  0.1221193E+00
         -4   -1    0    0    0  501 -0.00000000000E+00  0.00000000000E+00  0.10046915225E+03  0.10047717878E+03  0.12700000000E+01 0.  1.
          4   -1    0    0  502    0  0.00000000000E+00 -0.00000000000E+00 -0.97983380367E+02  0.97991610498E+02  0.12700000000E+01 0.  1.
         25    2    1    2    0    0  0.89880780459E+01  0.48314037471E+02  0.35916953669E+02  0.13903247311E+03  0.12499987702E+03 0.  0.
    9000005    1    3    3    0    0  0.54427102718E+02 -0.14108379981E+02  0.22940338347E+02  0.60733969238E+02  0.10000000000E+01 0.  0.
    9000005    1    3    3    0    0 -0.45439024672E+02  0.62422417451E+02  0.12976615322E+02  0.78298503874E+02  0.10000000000E+01 0.  0.
         21    1    1    2  502  501 -0.89880780459E+01 -0.48314037471E+02 -0.33431181781E+02  0.59436316162E+02  0.00000000000E+00 0. -1.
<mgrwt>
<rscale>  1 0.13431307E+03</rscale>
<asrwt>0</asrwt>
<pdfrwt beam="2">  1        4 0.15075617E-01 0.13431307E+03</pdfrwt>
<pdfrwt beam="1">  1       -4 0.15458043E-01 0.13431307E+03</pdfrwt>
<totfact> 0.21876959E+03</totfact>
</mgrwt>
</event>
<event>
 6    4  0.5642870E-004  0.1288846E+03  0.7818608E-02  0.1229120E+00
          4   -1    0    0  502    0  0.00000000000E+00  0.00000000000E+00  0.32413894815E+03  0.32414143611E+03  0.12700000000E+01 0.  1.
         -4   -1    0    0    0  501 -0.00000000000E+00 -0.00000000000E+00 -0.21615539946E+02  0.21652816610E+02  0.12700000000E+01 0.  1.
         25    2    1    2    0    0  0.20545885509E+02  0.23764751940E+02  0.19474874498E+03  0.23353439847E+03  0.12499737897E+03 0.  0.
    9000005    1    3    3    0    0  0.33053494208E+02  0.18232058965E+02 -0.53928413655E+00  0.37765490607E+02  0.10000000000E+01 0.  0.
    9000005    1    3    3    0    0 -0.12507608698E+02  0.55326929754E+01  0.19528802912E+03  0.19576890786E+03  0.10000000000E+01 0.  0.
         21    1    1    2  502  501 -0.20545885509E+02 -0.23764751940E+02  0.10777466322E+03  0.11225985425E+03  0.00000000000E+00 0.  1.
<mgrwt>
<rscale>  1 0.12888461E+03</rscale>
<asrwt>0</asrwt>
<pdfrwt beam="1">  1        4 0.49870588E-01 0.12888461E+03</pdfrwt>
<pdfrwt beam="2">  1       -4 0.33285266E-02 0.12888461E+03</pdfrwt>
<totfact> 0.28957270E+03</totfact>
</mgrwt>
</event>
<event>
 6    4  0.5642870E-004  0.1282360E+03  0.7818608E-02  0.1230097E+00
         -4   -1    0    0    0  501 -0.00000000000E+00  0.00000000000E+00  0.70158448694E+02  0.70169942448E+02  0.12700000000E+01 0.  1.
          4   -1    0    0  502    0  0.00000000000E+00 -0.00000000000E+00 -0.12815613379E+03  0.12816242635E+03  0.12700000000E+01 0.  1.
         25    2    1    2    0    0 -0.54670801331E+01 -0.28099790957E+02  0.58411500893E+01  0.12836892052E+03  0.12499989402E+03 0.  0.
    9000005    1    3    3    0    0  0.27418062116E+02 -0.60324776398E+02  0.33903289957E+02  0.74439652388E+02  0.10000000000E+01 0.  0.
    9000005    1    3    3    0    0 -0.32885142249E+02  0.32224985441E+02 -0.28062139868E+02  0.53929268133E+02  0.10000000000E+01 0.  0.
         21    1    1    2  502  501  0.54670801331E+01  0.28099790957E+02 -0.63838835190E+02  0.69963448281E+02  0.00000000000E+00 0.  1.
<mgrwt>
<rscale>  1 0.12823596E+03</rscale>
<asrwt>0</asrwt>
<pdfrwt beam="2">  1        4 0.19717696E-01 0.12823596E+03</pdfrwt>
<pdfrwt beam="1">  1       -4 0.10794976E-01 0.12823596E+03</pdfrwt>
<totfact> 0.24968874E+03</totfact>
</mgrwt>
</event>
<event>
 6    4  0.5642870E-004  0.1266559E+03  0.7818608E-02  0.1232504E+00
         -4   -1    0    0    0  501 -0.00000000000E+00  0.00000000000E+00  0.28262700017E+02  0.28291219703E+02  0.12700000000E+01 0.  1.
          4   -1    0    0  502    0  0.00000000000E+00 -0.00000000000E+00 -0.58475568785E+03  0.58475706697E+03  0.12700000000E+01 0.  1.
         25    2    1    2    0    0 -0.10736531401E+02 -0.17331492769E+02 -0.11497060066E+03  0.17105544497E+03  0.12500428988E+03 0.  0.
    9000005    1    3    3    0    0 -0.10523864849E+02 -0.67091375061E+02 -0.33857728258E+02  0.75890382142E+02  0.10000000000E+01 0.  0.
    9000005    1    3    3    0    0 -0.21266655240E+00  0.49759882292E+02 -0.81112872405E+02  0.95165062825E+02  0.10000000000E+01 0.  0.
         21    1    1    2  502  501  0.10736531401E+02  0.17331492769E+02 -0.44152238717E+03  0.44199284170E+03  0.00000000000E+00 0.  1.
<mgrwt>
<rscale>  1 0.12665594E+03</rscale>
<asrwt>0</asrwt>
<pdfrwt beam="2">  1        4 0.89964704E-01 0.12665594E+03</pdfrwt>
<pdfrwt beam="1">  1       -4 0.43504080E-02 0.12665594E+03</pdfrwt>
<totfact> 0.53420613E+02</totfact>
</mgrwt>
</event>
<event>
 6    4  0.5642870E-004  0.1276029E+03  0.7818608E-02  0.1231057E+00
         -4   -1    0    0    0  501 -0.00000000000E+00  0.00000000000E+00  0.89513211561E+02  0.89522220392E+02  0.12700000000E+01 0. -1.
          4   -1    0    0  502    0  0.00000000000E+00 -0.00000000000E+00 -0.79153178181E+02  0.79163365998E+02  0.12700000000E+01 0. -1.
         25    2    1    2    0    0 -0.18252587354E+02 -0.18024244539E+02  0.35828648140E+02  0.13253754807E+03  0.12499791713E+03 0.  0.
    9000005    1    3    3    0    0 -0.61670246675E+02  0.24308617623E+02  0.25424365239E+02  0.71003708097E+02  0.10000000000E+01 0.  0.
    9000005    1    3    3    0    0  0.43417659321E+02 -0.42332862162E+02  0.10404282901E+02  0.61533839978E+02  0.10000000000E+01 0.  0.
         21    1    1    2  502  501  0.18252587354E+02  0.18024244539E+02 -0.25468614760E+02  0.36148038316E+02  0.00000000000E+00 0. -1.
<mgrwt>
<rscale>  1 0.12760294E+03</rscale>
<asrwt>0</asrwt>
<pdfrwt beam="2">  1        4 0.12178889E-01 0.12760294E+03</pdfrwt>
<pdfrwt beam="1">  1       -4 0.13772740E-01 0.12760294E+03</pdfrwt>
<totfact> 0.38203368E+03</totfact>
</mgrwt>
</event>
<event>
 6    4  0.5642870E-004  0.1287757E+03  0.7818608E-02  0.1229284E+00
          4   -1    0    0  502    0  0.00000000000E+00  0.00000000000E+00  0.56500913635E+02  0.56515185054E+02  0.12700000000E+01 0. -1.
         -4   -1    0    0    0  501 -0.00000000000E+00 -0.00000000000E+00 -0.23469008667E+03  0.23469352288E+03  0.12700000000E+01 0. -1.
         25    2    1    2    0    0  0.23085426582E+01  0.30906702252E+02 -0.21029066860E+03  0.24658741670E+03  0.12499054029E+03 0.  0.
    9000005    1    3    3    0    0 -0.10365477989E+02  0.51000135388E+01  0.15284533603E+02  0.19185156750E+02  0.10000000000E+01 0.  0.
    9000005    1    3    3    0    0  0.12674020647E+02  0.25806688713E+02 -0.22557520220E+03  0.22740225995E+03  0.10000000000E+01 0.  0.
         21    1    1    2  502  501 -0.23085426582E+01 -0.30906702252E+02  0.32101495568E+02  0.44621291229E+02  0.00000000000E+00 0. -1.
<mgrwt>
<rscale>  1 0.12877573E+03</rscale>
<asrwt>0</asrwt>
<pdfrwt beam="1">  1        4 0.86938105E-02 0.12877573E+03</pdfrwt>
<pdfrwt beam="2">  1       -4 0.36107529E-01 0.12877573E+03</pdfrwt>
<totfact> 0.11658473E+03</totfact>
</mgrwt>
</event>
<event>
 6    4  0.5642870E-004  0.1305745E+03  0.7818608E-02  0.1226606E+00
         -4   -1    0    0    0  501 -0.00000000000E+00  0.00000000000E+00  0.12735752984E+03  0.12736386186E+03  0.12700000000E+01 0. -1.
          4   -1    0    0  502    0  0.00000000000E+00 -0.00000000000E+00 -0.57640697175E+02  0.57654686461E+02  0.12700000000E+01 0. -1.
         25    2    1    2    0    0 -0.13150801532E+02  0.35349830720E+02  0.68102476536E+02  0.14726725352E+03  0.12500856985E+03 0.  0.
    9000005    1    3    3    0    0  0.51260639605E+01 -0.39952018807E+02 -0.51635695464E+01  0.40621457248E+02  0.10000000000E+01 0.  0.
    9000005    1    3    3    0    0 -0.18276865493E+02  0.75301849527E+02  0.73266046082E+02  0.10664579627E+03  0.10000000000E+01 0.  0.
         21    1    1    2  502  501  0.13150801532E+02 -0.35349830720E+02  0.16143561272E+01  0.37751294794E+02  0.00000000000E+00 0.  1.
<mgrwt>
<rscale>  1 0.13057449E+03</rscale>
<asrwt>0</asrwt>
<pdfrwt beam="2">  1        4 0.88693629E-02 0.13057449E+03</pdfrwt>
<pdfrwt beam="1">  1       -4 0.19595029E-01 0.13057449E+03</pdfrwt>
<totfact> 0.35281195E+03</totfact>
</mgrwt>
</event>
<event>
 6    4  0.5642870E-004  0.1279985E+03  0.7818608E-02  0.1230456E+00
         -4   -1    0    0    0  501 -0.00000000000E+00  0.00000000000E+00  0.16330167020E+02  0.16379476637E+02  0.12700000000E+01 0.  1.
          4   -1    0    0  502    0  0.00000000000E+00 -0.00000000000E+00 -0.80261192115E+03  0.80261292593E+03  0.12700000000E+01 0.  1.
         25    2    1    2    0    0  0.52206380644E+01  0.27008182655E+02 -0.23983520443E+03  0.27185391126E+03  0.12500770693E+03 0.  0.
    9000005    1    3    3    0    0 -0.29141012972E+01 -0.47047551762E+02 -0.54275408732E+02  0.71894256420E+02  0.10000000000E+01 0.  0.
    9000005    1    3    3    0    0  0.81347393617E+01  0.74055734417E+02 -0.18555979570E+03  0.19995965484E+03  0.10000000000E+01 0.  0.
         21    1    1    2  502  501 -0.52206380644E+01 -0.27008182655E+02 -0.54644654970E+03  0.54713849130E+03  0.00000000000E+00 0.  1.
<mgrwt>
<rscale>  1 0.12799853E+03</rscale>
<asrwt>0</asrwt>
<pdfrwt beam="2">  1        4 0.12348260E+00 0.12799853E+03</pdfrwt>
<pdfrwt beam="1">  1       -4 0.25162044E-02 0.12799853E+03</pdfrwt>
<totfact> 0.60458107E+02</totfact>
</mgrwt>
</event>
<event>
 6    4  0.5642870E-004  0.1917226E+03  0.7818608E-02  0.1156917E+00
         -4   -1    0    0    0  501 -0.00000000000E+00  0.00000000000E+00  0.15593470915E+03  0.15593988078E+03  0.12700000000E+01 0. -1.
          4   -1    0    0  502    0  0.00000000000E+00 -0.00000000000E+00 -0.32869654402E+03  0.32869899749E+03  0.12700000000E+01 0. -1.
         25    2    1    2    0    0 -0.12687442602E+03 -0.70961233110E+02  0.67973997523E+02  0.20341591053E+03  0.12499980695E+03 0.  0.
    9000005    1    3    3    0    0  0.17119363507E+02 -0.18958677663E+02  0.40466499492E+02  0.47864826823E+02  0.10000000000E+01 0.  0.
    9000005    1    3    3    0    0 -0.14399378953E+03 -0.52002555447E+02  0.27507498031E+02  0.15555108371E+03  0.10000000000E+01 0.  0.
         21    1    1    2  502  501  0.12687442602E+03  0.70961233110E+02 -0.24073583239E+03  0.28122296773E+03  0.00000000000E+00 0. -1.
<mgrwt>
<rscale>  1 0.19172263E+03</rscale>
<asrwt>0</asrwt>
<pdfrwt beam="2">  1        4 0.50569285E-01 0.19172263E+03</pdfrwt>
<pdfrwt beam="1">  1       -4 0.23990542E-01 0.19172263E+03</pdfrwt>
<totfact> 0.10828151E+02</totfact>
</mgrwt>
</event>
<event>
 6    4  0.5642870E-004  0.1284933E+03  0.7818608E-02  0.1229709E+00
         -4   -1    0    0    0  501 -0.00000000000E+00  0.00000000000E+00  0.26580104365E+02  0.26610427431E+02  0.12700000000E+01 0. -1.
          4   -1    0    0  502    0  0.00000000000E+00 -0.00000000000E+00 -0.27641875768E+03  0.27642167515E+03  0.12700000000E+01 0. -1.
         25    2    1    2    0    0  0.76308420587E+01  0.28765778874E+02 -0.14356133247E+03  0.19266648878E+03  0.12499927974E+03 0.  0.
    9000005    1    3    3    0    0 -0.38467360672E+02  0.22812629881E+02 -0.13891847529E+03  0.14594347089E+03  0.10000000000E+01 0.  0.
    9000005    1    3    3    0    0  0.46098202731E+02  0.59531489930E+01 -0.46428571796E+01  0.46723017890E+02  0.10000000000E+01 0.  0.
         21    1    1    2  502  501 -0.76308420587E+01 -0.28765778874E+02 -0.10627732084E+03  0.11036561380E+03  0.00000000000E+00 0. -1.
<mgrwt>
<rscale>  1 0.12849327E+03</rscale>
<asrwt>0</asrwt>
<pdfrwt beam="2">  1        4 0.42528518E-01 0.12849327E+03</pdfrwt>
<pdfrwt beam="1">  1       -4 0.40918040E-02 0.12849327E+03</pdfrwt>
<totfact> 0.28752506E+03</totfact>
</mgrwt>
</event>
<event>
 6    4  0.5642870E-004  0.1337315E+03  0.7818608E-02  0.1222022E+00
         -4   -1    0    0    0  501 -0.00000000000E+00  0.00000000000E+00  0.18270801980E+02  0.18314887523E+02  0.12700000000E+01 0. -1.
          4   -1    0    0  502    0  0.00000000000E+00 -0.00000000000E+00 -0.47120105937E+03  0.47120277085E+03  0.12700000000E+01 0. -1.
         25    2    1    2    0    0  0.42954378100E+02  0.20592793880E+02 -0.28248510779E+03  0.31254113230E+03  0.12495991956E+03 0.  0.
    9000005    1    3    3    0    0  0.75773712844E+02  0.51443876719E+01 -0.95271721058E+02  0.12184342869E+03  0.10000000000E+01 0.  0.
    9000005    1    3    3    0    0 -0.32819334744E+02  0.15448406209E+02 -0.18721338674E+03  0.19069770361E+03  0.10000000000E+01 0.  0.
         21    1    1    2  502  501 -0.42954378100E+02 -0.20592793880E+02 -0.17044514960E+03  0.17697652607E+03  0.00000000000E+00 0. -1.
<mgrwt>
<rscale>  1 0.13373153E+03</rscale>
<asrwt>0</asrwt>
<pdfrwt beam="2">  1        4 0.72495984E-01 0.13373153E+03</pdfrwt>
<pdfrwt beam="1">  1       -4 0.28144158E-02 0.13373153E+03</pdfrwt>
<totfact> 0.17314951E+03</totfact>
</mgrwt>
</event>
<event>
 6    4  0.5642870E-004  0.1284352E+03  0.7818608E-02  0.1229796E+00
         -4   -1    0    0    0  501 -0.00000000000E+00  0.00000000000E+00  0.94940286482E+02  0.94948780389E+02  0.12700000000E+01 0. -1.
          4   -1    0    0  502    0  0.00000000000E+00 -0.00000000000E+00 -0.65885848938E+02  0.65898087911E+02  0.12700000000E+01 0. -1.
         25    2    1    2    0    0  0.29428527446E+02  0.14061903472E+01  0.19712838128E+02  0.12993924661E+03  0.12501038446E+03 0.  0.
    9000005    1    3    3    0    0  0.19103626196E+02 -0.15136324066E+02  0.70993212927E+02  0.75067257322E+02  0.10000000000E+01 0.  0.
    9000005    1    3    3    0    0  0.10324901250E+02  0.16542514413E+02 -0.51280374799E+02  0.54871989288E+02  0.10000000000E+01 0.  0.
         21    1    1    2  502  501 -0.29428527446E+02 -0.14061903472E+01  0.93415994156E+01  0.30907621690E+02  0.00000000000E+00 0. -1.
<mgrwt>
<rscale>  1 0.12843524E+03</rscale>
<asrwt>0</asrwt>
<pdfrwt beam="2">  1        4 0.10137879E-01 0.12843524E+03</pdfrwt>
<pdfrwt beam="1">  1       -4 0.14607793E-01 0.12843524E+03</pdfrwt>
<totfact> 0.47170430E+03</totfact>
</mgrwt>
</event>
<event>
 6    4  0.5642870E-004  0.1271486E+03  0.7818608E-02  0.1231749E+00
          4   -1    0    0  502    0  0.00000000000E+00  0.00000000000E+00  0.77532036047E+02  0.77542436856E+02  0.12700000000E+01 0. -1.
         -4   -1    0    0    0  501 -0.00000000000E+00 -0.00000000000E+00 -0.14049903197E+03  0.14050477175E+03  0.12700000000E+01 0. -1.
         25    2    1    2    0    0  0.22127599194E+02 -0.72032231816E+01 -0.10834581882E+03  0.16704961418E+03  0.12500096028E+03 0.  0.
    9000005    1    3    3    0    0 -0.77543844235E+01 -0.10229707891E+02 -0.12960226268E+03  0.13024025450E+03  0.10000000000E+01 0.  0.
    9000005    1    3    3    0    0  0.29881983617E+02  0.30264847097E+01  0.21256443857E+02  0.36809359680E+02  0.10000000000E+01 0.  0.
         21    1    1    2  502  501 -0.22127599194E+02  0.72032231816E+01  0.45378822894E+02  0.50997594429E+02  0.00000000000E+00 0. -1.
<mgrwt>
<rscale>  1 0.12714856E+03</rscale>
<asrwt>0</asrwt>
<pdfrwt beam="1">  1        4 0.11929247E-01 0.12714856E+03</pdfrwt>
<pdfrwt beam="2">  1       -4 0.21616477E-01 0.12714856E+03</pdfrwt>
<totfact> 0.17814214E+03</totfact>
</mgrwt>
</event>
<event>
 6    4  0.5642870E-004  0.1269520E+03  0.7818608E-02  0.1232050E+00
          4   -1    0    0  502    0  0.00000000000E+00  0.00000000000E+00  0.26691041178E+03  0.26691343319E+03  0.12700000000E+01 0. -1.
         -4   -1    0    0    0  501 -0.00000000000E+00 -0.00000000000E+00 -0.24635866348E+02  0.24668579422E+02  0.12700000000E+01 0. -1.
         25    2    1    2    0    0 -0.21330843543E+02  0.61951850337E+01  0.14923755284E+03  0.19593021078E+03  0.12499366029E+03 0.  0.
    9000005    1    3    3    0    0  0.44436220336E+02  0.24297343341E+02  0.99005167353E+02  0.11121133815E+03  0.10000000000E+01 0.  0.
    9000005    1    3    3    0    0 -0.65767063879E+02 -0.18102158307E+02  0.50232385489E+02  0.84718872624E+02  0.10000000000E+01 0.  0.
         21    1    1    2  502  501  0.21330843543E+02 -0.61951850337E+01  0.93036992592E+02  0.95651801836E+02  0.00000000000E+00 0. -1.
<mgrwt>
<rscale>  1 0.12695196E+03</rscale>
<asrwt>0</asrwt>
<pdfrwt beam="1">  1        4 0.41065889E-01 0.12695196E+03</pdfrwt>
<pdfrwt beam="2">  1       -4 0.37928821E-02 0.12695196E+03</pdfrwt>
<totfact> 0.34648973E+03</totfact>
</mgrwt>
</event>
<event>
 6    4  0.5642870E-004  0.1338608E+03  0.7818608E-02  0.1221837E+00
          4   -1    0    0  502    0  0.00000000000E+00  0.00000000000E+00  0.22720590995E+03  0.22720945935E+03  0.12700000000E+01 0.  1.
         -4   -1    0    0    0  501 -0.00000000000E+00 -0.00000000000E+00 -0.31277509937E+03  0.31277767773E+03  0.12700000000E+01 0.  1.
         25    2    1    2    0    0  0.47515256832E+02  0.59935368544E+01 -0.29563639792E+03  0.32452982297E+03  0.12500041641E+03 0.  0.
    9000005    1    3    3    0    0 -0.39629512348E+02  0.16700617720E+02 -0.67085164971E+02  0.79692083925E+02  0.10000000000E+01 0.  0.
    9000005    1    3    3    0    0  0.87144769180E+02 -0.10707080865E+02 -0.22855123295E+03  0.24483773904E+03  0.10000000000E+01 0.  0.
         21    1    1    2  502  501 -0.47515256832E+02 -0.59935368544E+01  0.21006720850E+03  0.21545731411E+03  0.00000000000E+00 0.  1.
<mgrwt>
<rscale>  1 0.13386085E+03</rscale>
<asrwt>0</asrwt>
<pdfrwt beam="1">  1        4 0.34955227E-01 0.13386085E+03</pdfrwt>
<pdfrwt beam="2">  1       -4 0.48119718E-01 0.13386085E+03</pdfrwt>
<totfact> 0.55893108E+01</totfact>
</mgrwt>
</event>
<event>
 6    4  0.5642870E-004  0.1266889E+03  0.7818608E-02  0.1232453E+00
          4   -1    0    0  502    0  0.00000000000E+00  0.00000000000E+00  0.42534325920E+03  0.42534515519E+03  0.12700000000E+01 0. -1.
         -4   -1    0    0    0  501 -0.00000000000E+00 -0.00000000000E+00 -0.14978945149E+02  0.15032687643E+02  0.12700000000E+01 0. -1.
         25    2    1    2    0    0 -0.20402628282E+02  0.29544196237E+01  0.26691853477E+03  0.29545825330E+03  0.12500031763E+03 0.  0.
    9000005    1    3    3    0    0 -0.63919787686E+02  0.14293928955E+02  0.22364433711E+03  0.23304043680E+03  0.10000000000E+01 0.  0.
    9000005    1    3    3    0    0  0.43517159403E+02 -0.11339509331E+02  0.43274197661E+02  0.62417816508E+02  0.10000000000E+01 0.  0.
         21    1    1    2  502  501  0.20402628282E+02 -0.29544196237E+01  0.14344577929E+03  0.14491958953E+03  0.00000000000E+00 0. -1.
<mgrwt>
<rscale>  1 0.12668889E+03</rscale>
<asrwt>0</asrwt>
<pdfrwt beam="1">  1        4 0.65441701E-01 0.12668889E+03</pdfrwt>
<pdfrwt beam="2">  1       -4 0.23087331E-02 0.12668889E+03</pdfrwt>
<totfact> 0.28987050E+03</totfact>
</mgrwt>
</event>
<event>
 6    4  0.5642870E-004  0.1374866E+03  0.7818608E-02  0.1216752E+00
          4   -1    0    0  502    0  0.00000000000E+00  0.00000000000E+00  0.28244247071E+02  0.28272785371E+02  0.12700000000E+01 0.  1.
         -4   -1    0    0    0  501 -0.00000000000E+00 -0.00000000000E+00 -0.81153244711E+03  0.81153344085E+03  0.12700000000E+01 0.  1.
         25    2    1    2    0    0 -0.50196669207E+02  0.27533989352E+02 -0.76846374688E+03  0.78066579520E+03  0.12499890944E+03 0.  0.
    9000005    1    3    3    0    0 -0.91789424880E+02  0.14604890839E+02 -0.56445530400E+03  0.57205715761E+03  0.10000000000E+01 0.  0.
    9000005    1    3    3    0    0  0.41592755673E+02  0.12929098513E+02 -0.20400844288E+03  0.20860863759E+03  0.10000000000E+01 0.  0.
         21    1    1    2  502  501  0.50196669207E+02 -0.27533989352E+02 -0.14824453157E+02  0.59140431014E+02  0.00000000000E+00 0.  1.
<mgrwt>
<rscale>  1 0.13748656E+03</rscale>
<asrwt>0</asrwt>
<pdfrwt beam="1">  1        4 0.43475411E-02 0.13748656E+03</pdfrwt>
<pdfrwt beam="2">  1       -4 0.12485340E+00 0.13748656E+03</pdfrwt>
<totfact> 0.25235099E+02</totfact>
</mgrwt>
</event>
<event>
 6    4  0.5642870E-004  0.1286025E+03  0.7818608E-02  0.1229544E+00
          4   -1    0    0  502    0  0.00000000000E+00  0.00000000000E+00  0.54138661907E+02  0.54153555867E+02  0.12700000000E+01 0.  1.
         -4   -1    0    0    0  501 -0.00000000000E+00 -0.00000000000E+00 -0.13376179165E+03  0.13376782051E+03  0.12700000000E+01 0.  1.
         25    2    1    2    0    0  0.30201334748E+02  0.36379680015E+00 -0.88884384052E+02  0.15632986170E+03  0.12500535573E+03 0.  0.
    9000005    1    3    3    0    0  0.14997585051E+02 -0.89617457182E+01  0.30743689231E+02  0.35375342701E+02  0.10000000000E+01 0.  0.
    9000005    1    3    3    0    0  0.15203749697E+02  0.93255425184E+01 -0.11962807328E+03  0.12095451900E+03  0.10000000000E+01 0.  0.
         21    1    1    2  502  501 -0.30201334748E+02 -0.36379680015E+00  0.92612543090E+01  0.31591514685E+02  0.00000000000E+00 0.  1.
<mgrwt>
<rscale>  1 0.12860246E+03</rscale>
<asrwt>0</asrwt>
<pdfrwt beam="1">  1        4 0.83306344E-02 0.12860246E+03</pdfrwt>
<pdfrwt beam="2">  1       -4 0.20580347E-01 0.12860246E+03</pdfrwt>
<totfact> 0.35718179E+03</totfact>
</mgrwt>
</event>
<event>
 6    4  0.5642870E-004  0.1269501E+03  0.7818608E-02  0.1232053E+00
         -4   -1    0    0    0  501 -0.00000000000E+00  0.00000000000E+00  0.24839028481E+03  0.24839353150E+03  0.12700000000E+01 0. -1.
          4   -1    0    0  502    0  0.00000000000E+00 -0.00000000000E+00 -0.35663205065E+02  0.35685810843E+02  0.12700000000E+01 0. -1.
         25    2    1    2    0    0 -0.89723202983E+01 -0.20172142073E+02  0.22534974741E+03  0.25864807052E+03  0.12501559055E+03 0.  0.
    9000005    1    3    3    0    0  0.92675834567E+01  0.62341889933E+01 -0.13556633510E+02  0.17593621789E+02  0.10000000000E+01 0.  0.
    9000005    1    3    3    0    0 -0.18239903755E+02 -0.26406331066E+02  0.23890638092E+03  0.24105444873E+03  0.10000000000E+01 0.  0.
         21    1    1    2  502  501  0.89723202983E+01  0.20172142073E+02 -0.12622667662E+02  0.25431271818E+02  0.00000000000E+00 0. -1.
<mgrwt>
<rscale>  1 0.12695005E+03</rscale>
<asrwt>0</asrwt>
<pdfrwt beam="2">  1        4 0.54886355E-02 0.12695005E+03</pdfrwt>
<pdfrwt beam="1">  1       -4 0.38215879E-01 0.12695005E+03</pdfrwt>
<totfact> 0.22110251E+03</totfact>
</mgrwt>
</event>
<event>
 6    4  0.5642870E-004  0.1358801E+03  0.7818608E-02  0.1218983E+00
         -4   -1    0    0    0  501 -0.00000000000E+00  0.00000000000E+00  0.10485958991E+03  0.10486728039E+03  0.12700000000E+01 0. -1.
          4   -1    0    0  502    0  0.00000000000E+00 -0.00000000000E+00 -0.85935752441E+02  0.85945136265E+02  0.12700000000E+01 0. -1.
         25    2    1    2    0    0 -0.53237171199E+02 -0.19341046040E+01  0.60927552073E+01  0.13601667020E+03  0.12500190297E+03 0.  0.
    9000005    1    3    3    0    0  0.14568363086E+02 -0.40515194640E+02 -0.27472741727E+02  0.51082969155E+02  0.10000000000E+01 0.  0.
    9000005    1    3    3    0    0 -0.67805534285E+02  0.38581090036E+02  0.33565496935E+02  0.84933701041E+02  0.10000000000E+01 0.  0.
         21    1    1    2  502  501  0.53237171199E+02  0.19341046040E+01  0.12831082263E+02  0.54795746459E+02  0.00000000000E+00 0. -1.
<mgrwt>
<rscale>  1 0.13588014E+03</rscale>
<asrwt>0</asrwt>
<pdfrwt beam="2">  1        4 0.13222198E-01 0.13588014E+03</pdfrwt>
<pdfrwt beam="1">  1       -4 0.16133558E-01 0.13588014E+03</pdfrwt>
<totfact> 0.25551816E+03</totfact>
</mgrwt>
</event>
<event>
 6    4  0.5642870E-004  0.1284685E+03  0.7818608E-02  0.1229746E+00
          4   -1    0    0  502    0  0.00000000000E+00  0.00000000000E+00  0.59498712352E+02  0.59512264884E+02  0.12700000000E+01 0. -1.
         -4   -1    0    0    0  501 -0.00000000000E+00 -0.00000000000E+00 -0.14238784412E+03  0.14239350776E+03  0.12700000000E+01 0. -1.
         25    2    1    2    0    0 -0.64253108037E+01  0.28932556114E+02 -0.10419001462E+03  0.16540775855E+03  0.12500316004E+03 0.  0.
    9000005    1    3    3    0    0 -0.11562820217E+02 -0.37099114265E+02 -0.89475005241E+02  0.97554188293E+02  0.10000000000E+01 0.  0.
    9000005    1    3    3    0    0  0.51375094130E+01  0.66031670379E+02 -0.14715009382E+02  0.67853570260E+02  0.10000000000E+01 0.  0.
         21    1    1    2  502  501  0.64253108037E+01 -0.28932556114E+02  0.21300882857E+02  0.36498014092E+02  0.00000000000E+00 0. -1.
<mgrwt>
<rscale>  1 0.12846855E+03</rscale>
<asrwt>0</asrwt>
<pdfrwt beam="1">  1        4 0.91551262E-02 0.12846855E+03</pdfrwt>
<pdfrwt beam="2">  1       -4 0.21907300E-01 0.12846855E+03</pdfrwt>
<totfact> 0.27254102E+03</totfact>
</mgrwt>
</event>
<event>
 6    4  0.5642870E-004  0.1267925E+03  0.7818608E-02  0.1232294E+00
          4   -1    0    0  502    0  0.00000000000E+00  0.00000000000E+00  0.34970930810E+02  0.34993983794E+02  0.12700000000E+01 0.  1.
         -4   -1    0    0    0  501 -0.00000000000E+00 -0.00000000000E+00 -0.24116469064E+03  0.24116803460E+03  0.12700000000E+01 0.  1.
         25    2    1    2    0    0 -0.21251184559E+02  0.72007432601E-01 -0.21774765388E+03  0.25197296100E+03  0.12499885708E+03 0.  0.
    9000005    1    3    3    0    0  0.94411856988E+01  0.46676834666E+02 -0.30443656662E+02  0.56530337986E+02  0.10000000000E+01 0.  0.
    9000005    1    3    3    0    0 -0.30692370257E+02 -0.46604827233E+02 -0.18730399722E+03  0.19544262301E+03  0.10000000000E+01 0.  0.
         21    1    1    2  502  501  0.21251184559E+02 -0.72007432601E-01  0.11553894049E+02  0.24189057400E+02  0.00000000000E+00 0.  1.
<mgrwt>
<rscale>  1 0.12679248E+03</rscale>
<asrwt>0</asrwt>
<pdfrwt beam="1">  1        4 0.53821739E-02 0.12679248E+03</pdfrwt>
<pdfrwt beam="2">  1       -4 0.37104290E-01 0.12679248E+03</pdfrwt>
<totfact> 0.24163212E+03</totfact>
</mgrwt>
</event>
<event>
 6    4  0.5642870E-004  0.1275860E+03  0.7818608E-02  0.1231082E+00
          4   -1    0    0  502    0  0.00000000000E+00  0.00000000000E+00  0.83515651084E+03  0.83515747646E+03  0.12700000000E+01 0. -1.
         -4   -1    0    0    0  501 -0.00000000000E+00 -0.00000000000E+00 -0.70211259612E+01  0.71350620014E+01  0.12700000000E+01 0. -1.
         25    2    1    2    0    0  0.22318944390E+02 -0.12521057723E+02  0.71551446574E+03  0.72680061844E+03  0.12499310425E+03 0.  0.
    9000005    1    3    3    0    0 -0.16007401804E+02 -0.80805323701E+00  0.76255656979E+01  0.17777488989E+02  0.10000000000E+01 0.  0.
    9000005    1    3    3    0    0  0.38326346194E+02 -0.11713004486E+02  0.70788890005E+03  0.70902312945E+03  0.10000000000E+01 0.  0.
         21    1    1    2  502  501 -0.22318944390E+02  0.12521057723E+02  0.11262091913E+03  0.11549192002E+03  0.00000000000E+00 0. -1.
<mgrwt>
<rscale>  1 0.12758600E+03</rscale>
<asrwt>0</asrwt>
<pdfrwt beam="1">  1        4 0.12849445E+00 0.12758600E+03</pdfrwt>
<pdfrwt beam="2">  1       -4 0.10890119E-02 0.12758600E+03</pdfrwt>
<totfact> 0.19733517E+03</totfact>
</mgrwt>
</event>
<event>
 6    4  0.5642870E-004  0.1664402E+03  0.7818608E-02  0.1181612E+00
          4   -1    0    0  502    0  0.00000000000E+00  0.00000000000E+00  0.12212266436E+04  0.12212273039E+04  0.12700000000E+01 0.  1.
         -4   -1    0    0    0  501 -0.00000000000E+00 -0.00000000000E+00 -0.15634611962E+02  0.15686108223E+02  0.12700000000E+01 0.  1.
         25    2    1    2    0    0  0.81895560151E+02  0.73284066084E+02  0.69999857862E+03  0.71951397572E+03  0.12499965631E+03 0.  0.
    9000005    1    3    3    0    0  0.53086560268E+02  0.10386610644E+03  0.59666804237E+03  0.60796390002E+03  0.10000000000E+01 0.  0.
    9000005    1    3    3    0    0  0.28808999883E+02 -0.30582040356E+02  0.10333053625E+03  0.11155007570E+03  0.10000000000E+01 0.  0.
         21    1    1    2  502  501 -0.81895560151E+02 -0.73284066084E+02  0.50559345300E+03  0.51739943644E+03  0.00000000000E+00 0.  1.
<mgrwt>
<rscale>  1 0.16644023E+03</rscale>
<asrwt>0</asrwt>
<pdfrwt beam="1">  1        4 0.18788501E+00 0.16644023E+03</pdfrwt>
<pdfrwt beam="2">  1       -4 0.24093372E-02 0.16644023E+03</pdfrwt>
<totfact> 0.22933269E+02</totfact>
</mgrwt>
</event>
<event>
 6    4  0.5642870E-004  0.1275096E+03  0.7818608E-02  0.1231198E+00
         -4   -1    0    0    0  501 -0.00000000000E+00  0.00000000000E+00  0.12818751954E+03  0.12819381056E+03  0.12700000000E+01 0.  1.
          4   -1    0    0  502    0  0.00000000000E+00 -0.00000000000E+00 -0.46992982086E+02  0.47010140027E+02  0.12700000000E+01 0.  1.
         25    2    1    2    0    0  0.24688135465E+02  0.49505737833E+01  0.78839264798E+02  0.14991443650E+03  0.12499878553E+03 0.  0.
    9000005    1    3    3    0    0  0.76656147369E+01 -0.57815723044E+02  0.56326965680E+02  0.81087277319E+02  0.10000000000E+01 0.  0.
    9000005    1    3    3    0    0  0.17022520728E+02  0.62766296827E+02  0.22512299119E+02  0.68827159181E+02  0.10000000000E+01 0.  0.
         21    1    1    2  502  501 -0.24688135465E+02 -0.49505737833E+01  0.23552726567E+01  0.25289514088E+02  0.00000000000E+00 0.  1.
<mgrwt>
<rscale>  1 0.12750964E+03</rscale>
<asrwt>0</asrwt>
<pdfrwt beam="2">  1        4 0.72314933E-02 0.12750964E+03</pdfrwt>
<pdfrwt beam="1">  1       -4 0.19722961E-01 0.12750964E+03</pdfrwt>
<totfact> 0.48603208E+03</totfact>
</mgrwt>
</event>
<event>
 6    4  0.5642870E-004  0.1286258E+03  0.7818608E-02  0.1229509E+00
         -4   -1    0    0    0  501 -0.00000000000E+00  0.00000000000E+00  0.14533301976E+02  0.14588686244E+02  0.12700000000E+01 0. -1.
          4   -1    0    0  502    0  0.00000000000E+00 -0.00000000000E+00 -0.95939972429E+03  0.95940056487E+03  0.12700000000E+01 0. -1.
         25    2    1    2    0    0  0.34408899615E+01 -0.30130680751E+02 -0.27670240904E+03  0.30513736446E+03  0.12499956149E+03 0.  0.
    9000005    1    3    3    0    0  0.26462292921E+02  0.80499844140E+00 -0.26280292644E+03  0.26413496383E+03  0.10000000000E+01 0.  0.
    9000005    1    3    3    0    0 -0.23021402959E+02 -0.30935679192E+02 -0.13899482604E+02  0.41002400636E+02  0.10000000000E+01 0.  0.
         21    1    1    2  502  501 -0.34408899615E+01  0.30130680751E+02 -0.66816401327E+03  0.66885188665E+03  0.00000000000E+00 0. -1.
<mgrwt>
<rscale>  1 0.12862577E+03</rscale>
<asrwt>0</asrwt>
<pdfrwt beam="2">  1        4 0.14760423E+00 0.12862577E+03</pdfrwt>
<pdfrwt beam="1">  1       -4 0.22402183E-02 0.12862577E+03</pdfrwt>
<totfact> 0.46620755E+02</totfact>
</mgrwt>
</event>
<event>
 6    4  0.5642870E-004  0.1343062E+03  0.7818608E-02  0.1221202E+00
          4   -1    0    0  502    0  0.00000000000E+00  0.00000000000E+00  0.39191156353E+02  0.39211728300E+02  0.12700000000E+01 0.  1.
         -4   -1    0    0    0  501 -0.00000000000E+00 -0.00000000000E+00 -0.22100069581E+03  0.22100434486E+03  0.12700000000E+01 0.  1.
         25    2    1    2    0    0  0.47527665992E+02 -0.12433938510E+02 -0.15163564627E+03  0.20256240293E+03  0.12499870399E+03 0.  0.
    9000005    1    3    3    0    0 -0.35056853782E+02 -0.93662499062E+01 -0.96787948736E+02  0.10337125643E+03  0.10000000000E+01 0.  0.
    9000005    1    3    3    0    0  0.82584519774E+02 -0.30676886036E+01 -0.54847697536E+02  0.99191146504E+02  0.10000000000E+01 0.  0.
         21    1    1    2  502  501 -0.47527665992E+02  0.12433938510E+02 -0.30173893183E+02  0.57653670233E+02  0.00000000000E+00 0.  1.
<mgrwt>
<rscale>  1 0.13430621E+03</rscale>
<asrwt>0</asrwt>
<pdfrwt beam="1">  1        4 0.60312720E-02 0.13430621E+03</pdfrwt>
<pdfrwt beam="2">  1       -4 0.34001969E-01 0.13430621E+03</pdfrwt>
<totfact> 0.24111809E+03</totfact>
</mgrwt>
</event>
<event>
 6    4  0.5642870E-004  0.1270403E+03  0.7818608E-02  0.1231915E+00
         -4   -1    0    0    0  501 -0.00000000000E+00  0.00000000000E+00  0.17917188666E+02  0.17962142124E+02  0.12700000000E+01 0. -1.
          4   -1    0    0  502    0  0.00000000000E+00 -0.00000000000E+00 -0.33049844139E+03  0.33050088148E+03  0.12700000000E+01 0. -1.
         25    2    1    2    0    0  0.19692516053E+02 -0.11107151365E+02 -0.22900470666E+03  0.26188240770E+03  0.12501230254E+03 0.  0.
    9000005    1    3    3    0    0 -0.49839938061E+02  0.95603459141E+01 -0.12649701001E+03  0.13630081871E+03  0.10000000000E+01 0.  0.
    9000005    1    3    3    0    0  0.69532454114E+02 -0.20667497279E+02 -0.10250769666E+03  0.12558158899E+03  0.10000000000E+01 0.  0.
         21    1    1    2  502  501 -0.19692516053E+02  0.11107151365E+02 -0.83576546058E+02  0.86580615908E+02  0.00000000000E+00 0. -1.
<mgrwt>
<rscale>  1 0.12704031E+03</rscale>
<asrwt>0</asrwt>
<pdfrwt beam="2">  1        4 0.50849555E-01 0.12704031E+03</pdfrwt>
<pdfrwt beam="1">  1       -4 0.27601365E-02 0.12704031E+03</pdfrwt>
<totfact> 0.37182489E+03</totfact>
</mgrwt>
</event>
<event>
 6    4  0.5642870E-004  0.1267540E+03  0.7818608E-02  0.1232353E+00
          4   -1    0    0  502    0  0.00000000000E+00  0.00000000000E+00  0.18172316306E+03  0.18172760080E+03  0.12700000000E+01 0.  1.
         -4   -1    0    0    0  501 -0.00000000000E+00 -0.00000000000E+00 -0.34574406446E+02  0.34597723641E+02  0.12700000000E+01 0.  1.
         25    2    1    2    0    0 -0.10681036297E+02  0.18096367872E+02  0.90056514760E+02  0.15548876351E+03  0.12500006664E+03 0.  0.
    9000005    1    3    3    0    0  0.57342859415E+02  0.66519074020E+01  0.42739908563E+02  0.71834192290E+02  0.10000000000E+01 0.  0.
    9000005    1    3    3    0    0 -0.68023895712E+02  0.11444460470E+02  0.47316606197E+02  0.83654571216E+02  0.10000000000E+01 0.  0.
         21    1    1    2  502  501  0.10681036297E+02 -0.18096367872E+02  0.57092241855E+02  0.60836560936E+02  0.00000000000E+00 0. -1.
<mgrwt>
<rscale>  1 0.12675401E+03</rscale>
<asrwt>0</asrwt>
<pdfrwt beam="1">  1        4 0.27959544E-01 0.12675401E+03</pdfrwt>
<pdfrwt beam="2">  1       -4 0.53212745E-02 0.12675401E+03</pdfrwt>
<totfact> 0.42197310E+03</totfact>
</mgrwt>
</event>
<event>
 6    4  0.5642870E-004  0.1288468E+03  0.7818608E-02  0.1229177E+00
         -4   -1    0    0    0  501 -0.00000000000E+00  0.00000000000E+00  0.87486704407E+02  0.87495921894E+02  0.12700000000E+01 0. -1.
          4   -1    0    0  502    0  0.00000000000E+00 -0.00000000000E+00 -0.73460621231E+02  0.73471598402E+02  0.12700000000E+01 0. -1.
         25    2    1    2    0    0 -0.61352708282E+01 -0.30644928125E+02  0.14877113021E+02  0.12970288501E+03  0.12499902687E+03 0.  0.
    9000005    1    3    3    0    0 -0.48606971772E+02 -0.33770828354E+02  0.47622079218E+02  0.75973475513E+02  0.10000000000E+01 0.  0.
    9000005    1    3    3    0    0  0.42471700944E+02  0.31259002287E+01 -0.32744966196E+02  0.53729409494E+02  0.10000000000E+01 0.  0.
         21    1    1    2  502  501  0.61352708282E+01  0.30644928125E+02 -0.85102984513E+00  0.31264635288E+02  0.00000000000E+00 0. -1.
<mgrwt>
<rscale>  1 0.12884685E+03</rscale>
<asrwt>0</asrwt>
<pdfrwt beam="2">  1        4 0.11303187E-01 0.12884685E+03</pdfrwt>
<pdfrwt beam="1">  1       -4 0.13461046E-01 0.12884685E+03</pdfrwt>
<totfact> 0.45246377E+03</totfact>
</mgrwt>
</event>
<event>
 6    4  0.5642870E-004  0.1333121E+03  0.7818608E-02  0.1222622E+00
          4   -1    0    0  502    0  0.00000000000E+00  0.00000000000E+00  0.22121264928E+03  0.22121629484E+03  0.12700000000E+01 0. -1.
         -4   -1    0    0    0  501 -0.00000000000E+00 -0.00000000000E+00 -0.39092816152E+02  0.39113439821E+02  0.12700000000E+01 0. -1.
         25    2    1    2    0    0  0.75331090043E+01  0.45708924859E+02  0.10229666089E+03  0.16803784786E+03  0.12500423169E+03 0.  0.
    9000005    1    3    3    0    0 -0.63415758692E+01  0.52972383312E+02  0.12757488837E+03  0.13828463805E+03  0.10000000000E+01 0.  0.
    9000005    1    3    3    0    0  0.13874684874E+02 -0.72634584527E+01 -0.25278227482E+02  0.29753209805E+02  0.10000000000E+01 0.  0.
         21    1    1    2  502  501 -0.75331090043E+01 -0.45708924859E+02  0.79823172241E+02  0.92291886803E+02  0.00000000000E+00 0. -1.
<mgrwt>
<rscale>  1 0.13331208E+03</rscale>
<asrwt>0</asrwt>
<pdfrwt beam="1">  1        4 0.34034582E-01 0.13331208E+03</pdfrwt>
<pdfrwt beam="2">  1       -4 0.60161462E-02 0.13331208E+03</pdfrwt>
<totfact> 0.24125519E+03</totfact>
</mgrwt>
</event>
<event>
 6    4  0.5642870E-004  0.1266027E+03  0.7818608E-02  0.1232586E+00
         -4   -1    0    0    0  501 -0.00000000000E+00  0.00000000000E+00  0.16166392942E+03  0.16166891777E+03  0.12700000000E+01 0. -1.
          4   -1    0    0  502    0  0.00000000000E+00 -0.00000000000E+00 -0.34970325872E+02  0.34993379253E+02  0.12700000000E+01 0. -1.
         25    2    1    2    0    0  0.20064783060E+02  0.79974029842E+00  0.12246378384E+03  0.17614093064E+03  0.12500005596E+03 0.  0.
    9000005    1    3    3    0    0 -0.30466004422E+02  0.37568671494E+01  0.12169202589E+03  0.12550793060E+03  0.10000000000E+01 0.  0.
    9000005    1    3    3    0    0  0.50530787482E+02 -0.29571268510E+01  0.77175794150E+00  0.50633000040E+02  0.10000000000E+01 0.  0.
         21    1    1    2  502  501 -0.20064783060E+02 -0.79974029842E+00  0.42298197081E+01  0.20521366391E+02  0.00000000000E+00 0. -1.
<mgrwt>
<rscale>  1 0.12660272E+03</rscale>
<asrwt>0</asrwt>
<pdfrwt beam="2">  1        4 0.53822072E-02 0.12660272E+03</pdfrwt>
<pdfrwt beam="1">  1       -4 0.24873531E-01 0.12660272E+03</pdfrwt>
<totfact> 0.51457246E+03</totfact>
</mgrwt>
</event>
<event>
 6    4  0.5642870E-004  0.1266989E+03  0.7818608E-02  0.1232438E+00
          4   -1    0    0  502    0  0.00000000000E+00  0.00000000000E+00  0.61364708943E+03  0.61364840362E+03  0.12700000000E+01 0.  1.
         -4   -1    0    0    0  501 -0.00000000000E+00 -0.00000000000E+00 -0.12282342842E+02  0.12347827570E+02  0.12700000000E+01 0.  1.
         25    2    1    2    0    0  0.19912860611E+02  0.55943700834E+01  0.32446075921E+03  0.34832081416E+03  0.12499914527E+03 0.  0.
    9000005    1    3    3    0    0  0.68924804617E+02 -0.79037114830E+01  0.13040785372E+03  0.14771697823E+03  0.10000000000E+01 0.  0.
    9000005    1    3    3    0    0 -0.49011944006E+02  0.13498081566E+02  0.19405290549E+03  0.20060383593E+03  0.10000000000E+01 0.  0.
         21    1    1    2  502  501 -0.19912860611E+02 -0.55943700834E+01  0.27690398738E+03  0.27767541703E+03  0.00000000000E+00 0.  1.
<mgrwt>
<rscale>  1 0.12669888E+03</rscale>
<asrwt>0</asrwt>
<pdfrwt beam="1">  1        4 0.94412396E-01 0.12669888E+03</pdfrwt>
<pdfrwt beam="2">  1       -4 0.18947293E-02 0.12669888E+03</pdfrwt>
<totfact> 0.17544137E+03</totfact>
</mgrwt>
</event>
<event>
 6    4  0.5642870E-004  0.1280593E+03  0.7818608E-02  0.1230364E+00
          4   -1    0    0  502    0  0.00000000000E+00  0.00000000000E+00  0.60302710875E+02  0.60316082755E+02  0.12700000000E+01 0.  1.
         -4   -1    0    0    0  501 -0.00000000000E+00 -0.00000000000E+00 -0.10156435722E+03  0.10157229719E+03  0.12700000000E+01 0.  1.
         25    2    1    2    0    0  0.10305971608E+02  0.25874890815E+02 -0.39360644572E+02  0.13397177497E+03  0.12499381234E+03 0.  0.
    9000005    1    3    3    0    0  0.25911805949E+02 -0.45696596969E+02 -0.41939935468E+01  0.52708540522E+02  0.10000000000E+01 0.  0.
    9000005    1    3    3    0    0 -0.15605834341E+02  0.71571487784E+02 -0.35166651025E+02  0.81263234451E+02  0.10000000000E+01 0.  0.
         21    1    1    2  502  501 -0.10305971608E+02 -0.25874890815E+02 -0.19010017691E+01  0.27916604973E+02  0.00000000000E+00 0.  1.
<mgrwt>
<rscale>  1 0.12805927E+03</rscale>
<asrwt>0</asrwt>
<pdfrwt beam="1">  1        4 0.92789795E-02 0.12805927E+03</pdfrwt>
<pdfrwt beam="2">  1       -4 0.15626925E-01 0.12805927E+03</pdfrwt>
<totfact> 0.48616694E+03</totfact>
</mgrwt>
</event>
<event>
 6    4  0.5642870E-004  0.1274133E+03  0.7818608E-02  0.1231345E+00
          4   -1    0    0  502    0  0.00000000000E+00  0.00000000000E+00  0.44361562495E+02  0.44379737798E+02  0.12700000000E+01 0.  1.
         -4   -1    0    0    0  501 -0.00000000000E+00 -0.00000000000E+00 -0.23661454147E+03  0.23661794973E+03  0.12700000000E+01 0.  1.
         25    2    1    2    0    0 -0.18097747402E+02  0.16756352535E+02 -0.21337751008E+03  0.24852385767E+03  0.12500336882E+03 0.  0.
    9000005    1    3    3    0    0 -0.70779547293E+02  0.10934212560E+02 -0.14745271855E+03  0.16392865987E+03  0.10000000000E+01 0.  0.
    9000005    1    3    3    0    0  0.52681799891E+02  0.58221399755E+01 -0.65924791528E+02  0.84595197805E+02  0.10000000000E+01 0.  0.
         21    1    1    2  502  501  0.18097747402E+02 -0.16756352535E+02  0.21124531101E+02  0.32473829856E+02  0.00000000000E+00 0.  1.
<mgrwt>
<rscale>  1 0.12741329E+03</rscale>
<asrwt>0</asrwt>
<pdfrwt beam="1">  1        4 0.68265162E-02 0.12741329E+03</pdfrwt>
<pdfrwt beam="2">  1       -4 0.36403897E-01 0.12741329E+03</pdfrwt>
<totfact> 0.17062120E+03</totfact>
</mgrwt>
</event>
<event>
 6    4  0.5642870E-004  0.1525291E+03  0.7818608E-02  0.1197399E+00
          4   -1    0    0  502    0  0.00000000000E+00  0.00000000000E+00  0.50827381500E+03  0.50827540164E+03  0.12700000000E+01 0. -1.
         -4   -1    0    0    0  501 -0.00000000000E+00 -0.00000000000E+00 -0.29240886357E+02  0.29268452897E+02  0.12700000000E+01 0. -1.
         25    2    1    2    0    0 -0.71507048381E+02  0.50278256567E+02  0.25603701142E+03  0.29802696547E+03  0.12499583944E+03 0.  0.
    9000005    1    3    3    0    0  0.28277721639E+02 -0.16006283617E+02  0.61450492999E+02  0.69519736379E+02  0.10000000000E+01 0.  0.
    9000005    1    3    3    0    0 -0.99784770021E+02  0.66284540184E+02  0.19458651842E+03  0.22850722909E+03  0.10000000000E+01 0.  0.
         21    1    1    2  502  501  0.71507048381E+02 -0.50278256567E+02  0.22299591722E+03  0.23951688907E+03  0.00000000000E+00 0. -1.
<mgrwt>
<rscale>  1 0.15252908E+03</rscale>
<asrwt>0</asrwt>
<pdfrwt beam="1">  1        4 0.78198209E-01 0.15252908E+03</pdfrwt>
<pdfrwt beam="2">  1       -4 0.45008408E-02 0.15252908E+03</pdfrwt>
<totfact> 0.71749473E+02</totfact>
</mgrwt>
</event>
<event>
 6    4  0.5642870E-004  0.1280618E+03  0.7818608E-02  0.1230360E+00
          4   -1    0    0  502    0  0.00000000000E+00  0.00000000000E+00  0.91845580431E+02  0.91854360510E+02  0.12700000000E+01 0. -1.
         -4   -1    0    0    0  501 -0.00000000000E+00 -0.00000000000E+00 -0.10170045083E+03  0.10170838018E+03  0.12700000000E+01 0. -1.
         25    2    1    2    0    0 -0.22927385174E+02 -0.15791025949E+02 -0.55920150236E+02  0.13973866153E+03  0.12499923532E+03 0.  0.
    9000005    1    3    3    0    0 -0.45090254402E+02  0.35881792353E+00 -0.87172112494E+02  0.98149054958E+02  0.10000000000E+01 0.  0.
    9000005    1    3    3    0    0  0.22162869228E+02 -0.16149843872E+02  0.31251962259E+02  0.41589606569E+02  0.10000000000E+01 0.  0.
         21    1    1    2  502  501  0.22927385174E+02  0.15791025949E+02  0.46065279837E+02  0.53824079164E+02  0.00000000000E+00 0. -1.
<mgrwt>
<rscale>  1 0.12806182E+03</rscale>
<asrwt>0</asrwt>
<pdfrwt beam="1">  1        4 0.14131375E-01 0.12806182E+03</pdfrwt>
<pdfrwt beam="2">  1       -4 0.15647509E-01 0.12806182E+03</pdfrwt>
<totfact> 0.23703605E+03</totfact>
</mgrwt>
</event>
<event>
 6    4  0.5642870E-004  0.1395617E+03  0.7818608E-02  0.1213920E+00
          4   -1    0    0  502    0  0.00000000000E+00  0.00000000000E+00  0.70375028054E+02  0.70386486441E+02  0.12700000000E+01 0. -1.
         -4   -1    0    0    0  501 -0.00000000000E+00 -0.00000000000E+00 -0.20060322539E+03  0.20060724548E+03  0.12700000000E+01 0. -1.
         25    2    1    2    0    0  0.61877936254E+02 -0.48058388846E+01 -0.15093190577E+03  0.20556729517E+03  0.12500199032E+03 0.  0.
    9000005    1    3    3    0    0  0.44172699209E+02  0.52830663146E+02 -0.40917262367E+02  0.80109479361E+02  0.10000000000E+01 0.  0.
    9000005    1    3    3    0    0  0.17705237045E+02 -0.57636502031E+02 -0.11001464340E+03  0.12545781581E+03  0.10000000000E+01 0.  0.
         21    1    1    2  502  501 -0.61877936254E+02  0.48058388846E+01  0.20703708431E+02  0.65426436746E+02  0.00000000000E+00 0. -1.
<mgrwt>
<rscale>  1 0.13956172E+03</rscale>
<asrwt>0</asrwt>
<pdfrwt beam="1">  1        4 0.10828118E-01 0.13956172E+03</pdfrwt>
<pdfrwt beam="2">  1       -4 0.30863225E-01 0.13956172E+03</pdfrwt>
<totfact> 0.11078529E+03</totfact>
</mgrwt>
</event>
<event>
 6    4  0.5642870E-004  0.1269883E+03  0.7818608E-02  0.1231994E+00
          4   -1    0    0  502    0  0.00000000000E+00  0.00000000000E+00  0.44732203174E+03  0.44732383458E+03  0.12700000000E+01 0. -1.
         -4   -1    0    0    0  501 -0.00000000000E+00 -0.00000000000E+00 -0.13634408223E+02  0.13693428628E+02  0.12700000000E+01 0. -1.
         25    2    1    2    0    0  0.14654850409E+02 -0.16914638430E+02  0.30471117727E+03  0.33011350726E+03  0.12500062595E+03 0.  0.
    9000005    1    3    3    0    0  0.56560654505E+02 -0.48260556779E+02  0.16776898396E+03  0.18350918494E+03  0.10000000000E+01 0.  0.
    9000005    1    3    3    0    0 -0.41905804096E+02  0.31345918350E+02  0.13694219331E+03  0.14660432232E+03  0.10000000000E+01 0.  0.
         21    1    1    2  502  501 -0.14654850409E+02  0.16914638430E+02  0.12897644624E+03  0.13090375594E+03  0.00000000000E+00 0.  1.
<mgrwt>
<rscale>  1 0.12698829E+03</rscale>
<asrwt>0</asrwt>
<pdfrwt beam="1">  1        4 0.68823439E-01 0.12698829E+03</pdfrwt>
<pdfrwt beam="2">  1       -4 0.21022804E-02 0.12698829E+03</pdfrwt>
<totfact> 0.30094136E+03</totfact>
</mgrwt>
</event>
<event>
 6    4  0.5642870E-004  0.1290523E+03  0.7818608E-02  0.1228869E+00
         -4   -1    0    0    0  501 -0.00000000000E+00  0.00000000000E+00  0.11918660562E+03  0.11919337170E+03  0.12700000000E+01 0. -1.
          4   -1    0    0  502    0  0.00000000000E+00 -0.00000000000E+00 -0.54508558629E+02  0.54523351546E+02  0.12700000000E+01 0. -1.
         25    2    1    2    0    0  0.28539891684E+02  0.14669273753E+02  0.49513422266E+02  0.13822476849E+03  0.12499917852E+03 0.  0.
    9000005    1    3    3    0    0  0.31076415400E+02 -0.69892408536E+01  0.88212998232E+02  0.93792996215E+02  0.10000000000E+01 0.  0.
    9000005    1    3    3    0    0 -0.25365237162E+01  0.21658514607E+02 -0.38699575966E+02  0.44431772275E+02  0.10000000000E+01 0.  0.
         21    1    1    2  502  501 -0.28539891684E+02 -0.14669273753E+02  0.15164624721E+02  0.35491954760E+02  0.00000000000E+00 0.  1.
<mgrwt>
<rscale>  1 0.12905234E+03</rscale>
<asrwt>0</asrwt>
<pdfrwt beam="2">  1        4 0.83875905E-02 0.12905234E+03</pdfrwt>
<pdfrwt beam="1">  1       -4 0.18338059E-01 0.12905234E+03</pdfrwt>
<totfact> 0.43460449E+03</totfact>
</mgrwt>
</event>
<event>
 6    4  0.5642870E-004  0.1266510E+03  0.7818608E-02  0.1232511E+00
          4   -1    0    0  502    0  0.00000000000E+00  0.00000000000E+00  0.15013077027E+03  0.15013614183E+03  0.12700000000E+01 0.  1.
         -4   -1    0    0    0  501 -0.00000000000E+00 -0.00000000000E+00 -0.35985521083E+02  0.36007924511E+02  0.12700000000E+01 0.  1.
         25    2    1    2    0    0  0.11332786570E+02  0.16910052974E+02  0.99655458668E+02  0.16115735042E+03  0.12500439676E+03 0.  0.
    9000005    1    3    3    0    0 -0.51174827614E+02  0.87044581192E+01  0.79519465186E+02  0.94968289002E+02  0.10000000000E+01 0.  0.
    9000005    1    3    3    0    0  0.62507614184E+02  0.82055948543E+01  0.20135993482E+02  0.66189061418E+02  0.10000000000E+01 0.  0.
         21    1    1    2  502  501 -0.11332786570E+02 -0.16910052974E+02  0.14489790521E+02  0.24986715918E+02  0.00000000000E+00 0. -1.
<mgrwt>
<rscale>  1 0.12665102E+03</rscale>
<asrwt>0</asrwt>
<pdfrwt beam="1">  1        4 0.23099179E-01 0.12665102E+03</pdfrwt>
<pdfrwt beam="2">  1       -4 0.55383704E-02 0.12665102E+03</pdfrwt>
<totfact> 0.56285525E+03</totfact>
</mgrwt>
</event>
<event>
 6    4  0.5642870E-004  0.1298573E+03  0.7818608E-02  0.1227668E+00
         -4   -1    0    0    0  501 -0.00000000000E+00  0.00000000000E+00  0.87370180584E+03  0.87370272887E+03  0.12700000000E+01 0. -1.
          4   -1    0    0  502    0  0.00000000000E+00 -0.00000000000E+00 -0.77382666971E+01  0.78417900683E+01  0.12700000000E+01 0. -1.
         25    2    1    2    0    0  0.30994360215E+02  0.16581907668E+02  0.68203012056E+03  0.69428236980E+03  0.12500925420E+03 0.  0.
    9000005    1    3    3    0    0  0.54521226012E+02 -0.96036797512E+01  0.62364859331E+03  0.62610171912E+03  0.10000000000E+01 0.  0.
    9000005    1    3    3    0    0 -0.23526865797E+02  0.26185587419E+02  0.58381527253E+02  0.68180650679E+02  0.10000000000E+01 0.  0.
         21    1    1    2  502  501 -0.30994360215E+02 -0.16581907668E+02  0.18393341858E+03  0.18726214913E+03  0.00000000000E+00 0.  1.
<mgrwt>
<rscale>  1 0.12985732E+03</rscale>
<asrwt>0</asrwt>
<pdfrwt beam="2">  1        4 0.11985373E-02 0.12985732E+03</pdfrwt>
<pdfrwt beam="1">  1       -4 0.13442366E+00 0.12985732E+03</pdfrwt>
<totfact> 0.15349422E+03</totfact>
</mgrwt>
</event>
<event>
 6    4  0.5642870E-004  0.1268676E+03  0.7818608E-02  0.1232179E+00
          4   -1    0    0  502    0  0.00000000000E+00  0.00000000000E+00  0.77543295945E+02  0.77553695244E+02  0.12700000000E+01 0. -1.
         -4   -1    0    0    0  501 -0.00000000000E+00 -0.00000000000E+00 -0.72058936077E+02  0.72070126741E+02  0.12700000000E+01 0. -1.
         25    2    1    2    0    0  0.19173546759E+02  0.98968285477E+01 -0.17092073126E+01  0.12687916285E+03  0.12501931236E+03 0.  0.
    9000005    1    3    3    0    0  0.24490853581E+01  0.66838815291E+02 -0.71623580933E+01  0.67273506093E+02  0.10000000000E+01 0.  0.
    9000005    1    3    3    0    0  0.16724461400E+02 -0.56941986743E+02  0.54531507808E+01  0.59605656752E+02  0.10000000000E+01 0.  0.
         21    1    1    2  502  501 -0.19173546759E+02 -0.98968285477E+01  0.71935671809E+01  0.22744659140E+02  0.00000000000E+00 0. -1.
<mgrwt>
<rscale>  1 0.12686765E+03</rscale>
<asrwt>0</asrwt>
<pdfrwt beam="1">  1        4 0.11931399E-01 0.12686765E+03</pdfrwt>
<pdfrwt beam="2">  1       -4 0.11087651E-01 0.12686765E+03</pdfrwt>
<totfact> 0.57281610E+03</totfact>
</mgrwt>
</event>
<event>
 6    4  0.5642870E-004  0.1285510E+03  0.7818608E-02  0.1229622E+00
         -4   -1    0    0    0  501 -0.00000000000E+00  0.00000000000E+00  0.88818363211E+02  0.88827442514E+02  0.12700000000E+01 0.  1.
          4   -1    0    0  502    0  0.00000000000E+00 -0.00000000000E+00 -0.73383225643E+02  0.73394214389E+02  0.12700000000E+01 0.  1.
         25    2    1    2    0    0 -0.19143271657E+02 -0.23080679449E+02  0.24563200060E+02  0.13087673485E+03  0.12500474517E+03 0.  0.
    9000005    1    3    3    0    0  0.24091941214E+02 -0.56817253007E+02 -0.14668354816E+02  0.63441173569E+02  0.10000000000E+01 0.  0.
    9000005    1    3    3    0    0 -0.43235212872E+02  0.33736573558E+02  0.39231554876E+02  0.67435561282E+02  0.10000000000E+01 0.  0.
         21    1    1    2  502  501  0.19143271657E+02  0.23080679449E+02 -0.91280624910E+01  0.31344922052E+02  0.00000000000E+00 0.  1.
<mgrwt>
<rscale>  1 0.12855104E+03</rscale>
<asrwt>0</asrwt>
<pdfrwt beam="2">  1        4 0.11291271E-01 0.12855104E+03</pdfrwt>
<pdfrwt beam="1">  1       -4 0.13665907E-01 0.12855104E+03</pdfrwt>
<totfact> 0.44134717E+03</totfact>
</mgrwt>
</event>
<event>
 6    4  0.5642870E-004  0.1269933E+03  0.7818608E-02  0.1231987E+00
          4   -1    0    0  502    0  0.00000000000E+00  0.00000000000E+00  0.12925473355E+02  0.12987715790E+02  0.12700000000E+01 0.  1.
         -4   -1    0    0    0  501 -0.00000000000E+00 -0.00000000000E+00 -0.58580545420E+03  0.58580683085E+03  0.12700000000E+01 0.  1.
         25    2    1    2    0    0 -0.20069846522E+02  0.10035130983E+02 -0.55702878037E+03  0.57132159358E+03  0.12499519407E+03 0.  0.
    9000005    1    3    3    0    0 -0.32223165498E+02  0.36336123728E+01 -0.55659760846E+03  0.55754231523E+03  0.10000000000E+01 0.  0.
    9000005    1    3    3    0    0  0.12153318977E+02  0.64015186097E+01 -0.43117191260E+00  0.13779278351E+02  0.10000000000E+01 0.  0.
         21    1    1    2  502  501  0.20069846522E+02 -0.10035130983E+02 -0.15851200477E+02  0.27472953060E+02  0.00000000000E+00 0. -1.
<mgrwt>
<rscale>  1 0.12699331E+03</rscale>
<asrwt>0</asrwt>
<pdfrwt beam="1">  1        4 0.19934286E-02 0.12699331E+03</pdfrwt>
<pdfrwt beam="2">  1       -4 0.90128789E-01 0.12699331E+03</pdfrwt>
<totfact> 0.18038376E+03</totfact>
</mgrwt>
</event>
<event>
 6    4  0.5642870E-004  0.1928445E+03  0.7818608E-02  0.1155920E+00
          4   -1    0    0  502    0  0.00000000000E+00  0.00000000000E+00  0.13372107486E+03  0.13372710556E+03  0.12700000000E+01 0.  1.
         -4   -1    0    0    0  501 -0.00000000000E+00 -0.00000000000E+00 -0.21674625659E+03  0.21674997727E+03  0.12700000000E+01 0.  1.
         25    2    1    2    0    0 -0.12013384037E+03  0.84445564843E+02 -0.59094945355E+02  0.20169587018E+03  0.12500327379E+03 0.  0.
    9000005    1    3    3    0    0 -0.18368430045E+02 -0.17338823025E+00 -0.66634539177E+02  0.69127354189E+02  0.10000000000E+01 0.  0.
    9000005    1    3    3    0    0 -0.10176541032E+03  0.84618953073E+02  0.75395938222E+01  0.13256851599E+03  0.10000000000E+01 0.  0.
         21    1    1    2  502  501  0.12013384037E+03 -0.84445564843E+02 -0.23930236375E+02  0.14878121264E+03  0.00000000000E+00 0.  1.
<mgrwt>
<rscale>  1 0.19284453E+03</rscale>
<asrwt>0</asrwt>
<pdfrwt beam="1">  1        4 0.20573223E-01 0.19284453E+03</pdfrwt>
<pdfrwt beam="2">  1       -4 0.33346328E-01 0.19284453E+03</pdfrwt>
<totfact> 0.32908759E+02</totfact>
</mgrwt>
</event>
<event>
 6    4  0.5642870E-004  0.1268391E+03  0.7818608E-02  0.1232223E+00
         -4   -1    0    0    0  501 -0.00000000000E+00  0.00000000000E+00  0.38994735191E+03  0.38994942000E+03  0.12700000000E+01 0.  1.
          4   -1    0    0  502    0  0.00000000000E+00 -0.00000000000E+00 -0.15867419833E+02  0.15918162965E+02  0.12700000000E+01 0.  1.
         25    2    1    2    0    0 -0.12669571201E+01 -0.21486985801E+02  0.35544230756E+03  0.37739554780E+03  0.12499947901E+03 0.  0.
    9000005    1    3    3    0    0  0.29512821080E+02 -0.44735756776E+02  0.64323018989E+02  0.83730193564E+02  0.10000000000E+01 0.  0.
    9000005    1    3    3    0    0 -0.30779778200E+02  0.23248770975E+02  0.29111928857E+03  0.29366535423E+03  0.10000000000E+01 0.  0.
         21    1    1    2  502  501  0.12669571201E+01  0.21486985801E+02  0.18637624510E+02  0.28472035166E+02  0.00000000000E+00 0.  1.
<mgrwt>
<rscale>  1 0.12683913E+03</rscale>
<asrwt>0</asrwt>
<pdfrwt beam="2">  1        4 0.24452040E-02 0.12683913E+03</pdfrwt>
<pdfrwt beam="1">  1       -4 0.59995961E-01 0.12683913E+03</pdfrwt>
<totfact> 0.31872435E+03</totfact>
</mgrwt>
</event>
<event>
 6    4  0.5642870E-004  0.1277217E+03  0.7818608E-02  0.1230876E+00
         -4   -1    0    0    0  501 -0.00000000000E+00  0.00000000000E+00  0.64347512197E+02  0.64360043707E+02  0.12700000000E+01 0.  1.
          4   -1    0    0  502    0  0.00000000000E+00 -0.00000000000E+00 -0.92070956205E+02  0.92079714794E+02  0.12700000000E+01 0.  1.
         25    2    1    2    0    0  0.26215387794E+02  0.62798197963E+00 -0.22073920787E+02  0.12961517964E+03  0.12500078358E+03 0.  0.
    9000005    1    3    3    0    0 -0.40822039420E+02  0.21158854989E+02 -0.35656404960E+02  0.58193773391E+02  0.10000000000E+01 0.  0.
    9000005    1    3    3    0    0  0.67037427214E+02 -0.20530873009E+02  0.13582484172E+02  0.71421406247E+02  0.10000000000E+01 0.  0.
         21    1    1    2  502  501 -0.26215387794E+02 -0.62798197963E+00 -0.56495232209E+01  0.26824578863E+02  0.00000000000E+00 0.  1.
<mgrwt>
<rscale>  1 0.12772172E+03</rscale>
<asrwt>0</asrwt>
<pdfrwt beam="2">  1        4 0.14166400E-01 0.12772172E+03</pdfrwt>
<pdfrwt beam="1">  1       -4 0.99012550E-02 0.12772172E+03</pdfrwt>
<totfact> 0.51697511E+03</totfact>
</mgrwt>
</event>
<event>
 6    4  0.5642870E-004  0.1281243E+03  0.7818608E-02  0.1230266E+00
          4   -1    0    0  502    0  0.00000000000E+00  0.00000000000E+00  0.17627688369E+02  0.17673378206E+02  0.12700000000E+01 0.  1.
         -4   -1    0    0    0  501 -0.00000000000E+00 -0.00000000000E+00 -0.39383446337E+03  0.39383651105E+03  0.12700000000E+01 0.  1.
         25    2    1    2    0    0  0.15234342154E+02  0.23637675213E+02 -0.35133296634E+03  0.37396616505E+03  0.12500005797E+03 0.  0.
    9000005    1    3    3    0    0  0.27771940739E+02  0.52598583415E+02 -0.33124307631E+03  0.33654251927E+03  0.10000000000E+01 0.  0.
    9000005    1    3    3    0    0 -0.12537598584E+02 -0.28960908202E+02 -0.20089890026E+02  0.37423645779E+02  0.10000000000E+01 0.  0.
         21    1    1    2  502  501 -0.15234342154E+02 -0.23637675213E+02 -0.24873808662E+02  0.37543724212E+02  0.00000000000E+00 0. -1.
<mgrwt>
<rscale>  1 0.12812431E+03</rscale>
<asrwt>0</asrwt>
<pdfrwt beam="1">  1        4 0.27156245E-02 0.12812431E+03</pdfrwt>
<pdfrwt beam="2">  1       -4 0.60593583E-01 0.12812431E+03</pdfrwt>
<totfact> 0.26585141E+03</totfact>
</mgrwt>
</event>
<event>
 6    4  0.5642870E-004  0.1721260E+03  0.7818608E-02  0.1175649E+00
          4   -1    0    0  502    0  0.00000000000E+00  0.00000000000E+00  0.98651697899E+02  0.98659872281E+02  0.12700000000E+01 0.  1.
         -4   -1    0    0    0  501 -0.00000000000E+00 -0.00000000000E+00 -0.21946199267E+03  0.21946566730E+03  0.12700000000E+01 0.  1.
         25    2    1    2    0    0  0.10838584743E+03 -0.47469016623E+02 -0.96492391825E+02  0.19732752691E+03  0.12500628678E+03 0.  0.
    9000005    1    3    3    0    0  0.57879466615E+02 -0.37730361657E+02 -0.12176806759E+03  0.14000741099E+03  0.10000000000E+01 0.  0.
    9000005    1    3    3    0    0  0.50506380815E+02 -0.97386549666E+01  0.25275675770E+02  0.57320115921E+02  0.10000000000E+01 0.  0.
         21    1    1    2  502  501 -0.10838584743E+03  0.47469016623E+02 -0.24317902943E+02  0.12079801267E+03  0.00000000000E+00 0.  1.
<mgrwt>
<rscale>  1 0.17212603E+03</rscale>
<asrwt>0</asrwt>
<pdfrwt beam="1">  1        4 0.15178096E-01 0.17212603E+03</pdfrwt>
<pdfrwt beam="2">  1       -4 0.33764295E-01 0.17212603E+03</pdfrwt>
<totfact> 0.54241037E+02</totfact>
</mgrwt>
</event>
<event>
 6    4  0.5642870E-004  0.1278083E+03  0.7818608E-02  0.1230745E+00
          4   -1    0    0  502    0  0.00000000000E+00  0.00000000000E+00  0.12637309910E+02  0.12700964600E+02  0.12700000000E+01 0. -1.
         -4   -1    0    0    0  501 -0.00000000000E+00 -0.00000000000E+00 -0.94777622655E+03  0.94777707744E+03  0.12700000000E+01 0. -1.
         25    2    1    2    0    0 -0.24688438230E+02  0.10062907046E+02 -0.92188940747E+03  0.93070673750E+03  0.12499668215E+03 0.  0.
    9000005    1    3    3    0    0 -0.27281822366E+00  0.35221578139E+02 -0.84988158048E+03  0.85061174153E+03  0.10000000000E+01 0.  0.
    9000005    1    3    3    0    0 -0.24415620006E+02 -0.25158671093E+02 -0.72007826992E+02  0.80094995971E+02  0.10000000000E+01 0.  0.
         21    1    1    2  502  501  0.24688438230E+02 -0.10062907046E+02 -0.13249509173E+02  0.29771304536E+02  0.00000000000E+00 0.  1.
<mgrwt>
<rscale>  1 0.12780826E+03</rscale>
<asrwt>0</asrwt>
<pdfrwt beam="1">  1        4 0.19491642E-02 0.12780826E+03</pdfrwt>
<pdfrwt beam="2">  1       -4 0.14581663E+00 0.12780826E+03</pdfrwt>
<totfact> 0.59506775E+02</totfact>
</mgrwt>
</event>
<event>
 6    4  0.5642870E-004  0.1271695E+03  0.7818608E-02  0.1231717E+00
          4   -1    0    0  502    0  0.00000000000E+00  0.00000000000E+00  0.41355779920E+02  0.41375275622E+02  0.12700000000E+01 0. -1.
         -4   -1    0    0    0  501 -0.00000000000E+00 -0.00000000000E+00 -0.19051722474E+03  0.19052145764E+03  0.12700000000E+01 0. -1.
         25    2    1    2    0    0  0.22684788243E+02 -0.57483329278E+01 -0.16140634312E+03  0.20548498430E+03  0.12499771287E+03 0.  0.
    9000005    1    3    3    0    0  0.55449601762E+02  0.35706061629E+02 -0.52030647712E+02  0.84010531923E+02  0.10000000000E+01 0.  0.
    9000005    1    3    3    0    0 -0.32764813519E+02 -0.41454394557E+02 -0.10937569541E+03  0.12147445237E+03  0.10000000000E+01 0.  0.
         21    1    1    2  502  501 -0.22684788243E+02  0.57483329278E+01  0.12244898304E+02  0.26411748968E+02  0.00000000000E+00 0. -1.
<mgrwt>
<rscale>  1 0.12716946E+03</rscale>
<asrwt>0</asrwt>
<pdfrwt beam="1">  1        4 0.63642530E-02 0.12716946E+03</pdfrwt>
<pdfrwt beam="2">  1       -4 0.29312167E-01 0.12716946E+03</pdfrwt>
<totfact> 0.28922113E+03</totfact>
</mgrwt>
</event>
<event>
 6    4  0.5642870E-004  0.1275311E+03  0.7818608E-02  0.1231166E+00
         -4   -1    0    0    0  501 -0.00000000000E+00  0.00000000000E+00  0.20091372637E+01  0.23768745328E+01  0.12700000000E+01 0. -1.
          4   -1    0    0  502    0  0.00000000000E+00 -0.00000000000E+00 -0.26612857211E+04  0.26612860241E+04  0.12700000000E+01 0. -1.
         25    2    1    2    0    0  0.79516063128E+01  0.23951418233E+02 -0.22401185116E+04  0.22437457783E+04  0.12500909172E+03 0.  0.
    9000005    1    3    3    0    0 -0.27452166888E+01 -0.51088919656E+02 -0.80224225128E+03  0.80387265389E+03  0.10000000000E+01 0.  0.
    9000005    1    3    3    0    0  0.10696823002E+02  0.75040337889E+02 -0.14378762603E+04  0.14398731244E+04  0.10000000000E+01 0.  0.
         21    1    1    2  502  501 -0.79516063128E+01 -0.23951418233E+02 -0.41915807224E+03  0.41991712039E+03  0.00000000000E+00 0. -1.
<mgrwt>
<rscale>  1 0.12753106E+03</rscale>
<asrwt>0</asrwt>
<pdfrwt beam="2">  1        4 0.40945430E+00 0.12753106E+03</pdfrwt>
<pdfrwt beam="1">  1       -4 0.33741096E-03 0.12753106E+03</pdfrwt>
<totfact> 0.19606488E+02</totfact>
</mgrwt>
</event>
<event>
 6    4  0.5642870E-004  0.1307565E+03  0.7818608E-02  0.1226338E+00
         -4   -1    0    0    0  501 -0.00000000000E+00  0.00000000000E+00  0.42073494863E+03  0.42073686539E+03  0.12700000000E+01 0. -1.
          4   -1    0    0  502    0  0.00000000000E+00 -0.00000000000E+00 -0.28309205656E+02  0.28337678537E+02  0.12700000000E+01 0. -1.
         25    2    1    2    0    0  0.31328898610E+02  0.22132215660E+02  0.38920421980E+03  0.41058151768E+03  0.12500369232E+03 0.  0.
    9000005    1    3    3    0    0  0.23118055422E+02  0.49304095434E+02  0.63569032030E+02  0.83709976385E+02  0.10000000000E+01 0.  0.
    9000005    1    3    3    0    0  0.82108431882E+01 -0.27171879774E+02  0.32563518777E+03  0.32687154129E+03  0.10000000000E+01 0.  0.
         21    1    1    2  502  501 -0.31328898610E+02 -0.22132215660E+02  0.32215231769E+01  0.38493026248E+02  0.00000000000E+00 0. -1.
<mgrwt>
<rscale>  1 0.13075648E+03</rscale>
<asrwt>0</asrwt>
<pdfrwt beam="2">  1        4 0.43576002E-02 0.13075648E+03</pdfrwt>
<pdfrwt beam="1">  1       -4 0.64730789E-01 0.13075648E+03</pdfrwt>
<totfact> 0.11028470E+03</totfact>
</mgrwt>
</event>
<event>
 6    4  0.5642870E-004  0.1292419E+03  0.7818608E-02  0.1228585E+00
         -4   -1    0    0    0  501 -0.00000000000E+00  0.00000000000E+00  0.30602993604E+03  0.30603257123E+03  0.12700000000E+01 0.  1.
          4   -1    0    0  502    0  0.00000000000E+00 -0.00000000000E+00 -0.22884002533E+02  0.22919216215E+02  0.12700000000E+01 0.  1.
         25    2    1    2    0    0  0.30758460875E+02  0.11451714725E+02  0.25429300597E+03  0.28525148867E+03  0.12500501677E+03 0.  0.
    9000005    1    3    3    0    0  0.64124660157E+02 -0.18305807719E+02  0.21701585498E+03  0.22703294023E+03  0.10000000000E+01 0.  0.
    9000005    1    3    3    0    0 -0.33366199282E+02  0.29757522444E+02  0.37277150991E+02  0.58218548440E+02  0.10000000000E+01 0.  0.
         21    1    1    2  502  501 -0.30758460875E+02 -0.11451714725E+02  0.28852927538E+02  0.43700298776E+02  0.00000000000E+00 0.  1.
<mgrwt>
<rscale>  1 0.12924194E+03</rscale>
<asrwt>0</asrwt>
<pdfrwt beam="2">  1        4 0.35235274E-02 0.12924194E+03</pdfrwt>
<pdfrwt beam="1">  1       -4 0.47084438E-01 0.12924194E+03</pdfrwt>
<totfact> 0.29762234E+03</totfact>
</mgrwt>
</event>
<event>
 6    4  0.5642870E-004  0.1273558E+03  0.7818608E-02  0.1231433E+00
          4   -1    0    0  502    0  0.00000000000E+00  0.00000000000E+00  0.15529570865E+02  0.15581414290E+02  0.12700000000E+01 0.  1.
         -4   -1    0    0    0  501 -0.00000000000E+00 -0.00000000000E+00 -0.40199368779E+03  0.40199569391E+03  0.12700000000E+01 0.  1.
         25    2    1    2    0    0  0.21753175201E+02 -0.10999121150E+02 -0.35866311659E+03  0.38060310494E+03  0.12500124396E+03 0.  0.
    9000005    1    3    3    0    0 -0.72910431781E+01 -0.15212354010E+02 -0.34940439529E+03  0.34981281634E+03  0.10000000000E+01 0.  0.
    9000005    1    3    3    0    0  0.29044218379E+02  0.42132328602E+01 -0.92587213042E+01  0.30790288608E+02  0.10000000000E+01 0.  0.
         21    1    1    2  502  501 -0.21753175201E+02  0.10999121150E+02 -0.27801000330E+02  0.36974003256E+02  0.00000000000E+00 0.  1.
<mgrwt>
<rscale>  1 0.12735577E+03</rscale>
<asrwt>0</asrwt>
<pdfrwt beam="1">  1        4 0.23933073E-02 0.12735577E+03</pdfrwt>
<pdfrwt beam="2">  1       -4 0.61849317E-01 0.12735577E+03</pdfrwt>
<totfact> 0.30938813E+03</totfact>
</mgrwt>
</event>
<event>
 6    4  0.5642870E-004  0.1331357E+03  0.7818608E-02  0.1222876E+00
          4   -1    0    0  502    0  0.00000000000E+00  0.00000000000E+00  0.18073873918E+04  0.18073878380E+04  0.12700000000E+01 0.  1.
         -4   -1    0    0    0  501 -0.00000000000E+00 -0.00000000000E+00 -0.50774777177E+01  0.52338972070E+01  0.12700000000E+01 0.  1.
         25    2    1    2    0    0 -0.11165160659E+02 -0.44412104404E+02  0.97531961657E+03  0.98436449980E+03  0.12501207204E+03 0.  0.
    9000005    1    3    3    0    0 -0.61905258996E+02 -0.25018013546E+02  0.73268289213E+03  0.73571963581E+03  0.10000000000E+01 0.  0.
    9000005    1    3    3    0    0  0.50740098336E+02 -0.19394090857E+02  0.24263672444E+03  0.24864486399E+03  0.10000000000E+01 0.  0.
         21    1    1    2  502  501  0.11165160659E+02  0.44412104404E+02  0.82699029753E+03  0.82825723543E+03  0.00000000000E+00 0.  1.
<mgrwt>
<rscale>  1 0.13313570E+03</rscale>
<asrwt>0</asrwt>
<pdfrwt beam="1">  1        4 0.27807172E+00 0.13313570E+03</pdfrwt>
<pdfrwt beam="2">  1       -4 0.79321684E-03 0.13313570E+03</pdfrwt>
<totfact> 0.35078066E+02</totfact>
</mgrwt>
</event>
<event>
 6    4  0.5642870E-004  0.1274292E+03  0.7818608E-02  0.1231321E+00
          4   -1    0    0  502    0  0.00000000000E+00  0.00000000000E+00  0.12073058199E+02  0.12139671918E+02  0.12700000000E+01 0. -1.
         -4   -1    0    0    0  501 -0.00000000000E+00 -0.00000000000E+00 -0.52066334353E+03  0.52066489241E+03  0.12700000000E+01 0. -1.
         25    2    1    2    0    0  0.20693695079E+02  0.13600652351E+02 -0.46987059828E+03  0.48684348378E+03  0.12499996724E+03 0.  0.
    9000005    1    3    3    0    0  0.70166469108E+02 -0.41348815454E+01 -0.20248380522E+03  0.21433880192E+03  0.10000000000E+01 0.  0.
    9000005    1    3    3    0    0 -0.49472774028E+02  0.17735533896E+02 -0.26738679306E+03  0.27250468186E+03  0.10000000000E+01 0.  0.
         21    1    1    2  502  501 -0.20693695079E+02 -0.13600652351E+02 -0.38719687044E+02  0.45961080549E+02  0.00000000000E+00 0.  1.
<mgrwt>
<rscale>  1 0.12742919E+03</rscale>
<asrwt>0</asrwt>
<pdfrwt beam="1">  1        4 0.18626372E-02 0.12742919E+03</pdfrwt>
<pdfrwt beam="2">  1       -4 0.80107279E-01 0.12742919E+03</pdfrwt>
<totfact> 0.26066037E+03</totfact>
</mgrwt>
</event>
<event>
 6    4  0.5642870E-004  0.1274541E+03  0.7818608E-02  0.1231283E+00
          4   -1    0    0  502    0  0.00000000000E+00  0.00000000000E+00  0.14635303930E+03  0.14635854950E+03  0.12700000000E+01 0.  1.
         -4   -1    0    0    0  501 -0.00000000000E+00 -0.00000000000E+00 -0.69734356379E+02  0.69745920021E+02  0.12700000000E+01 0.  1.
         25    2    1    2    0    0  0.10499573201E+02  0.22591902973E+02 -0.81856127570E+01  0.12771666673E+03  0.12499563027E+03 0.  0.
    9000005    1    3    3    0    0 -0.21521936412E+02 -0.25516738269E+02 -0.47317674832E+02  0.57915973878E+02  0.10000000000E+01 0.  0.
    9000005    1    3    3    0    0  0.32021509612E+02  0.48108641242E+02  0.39132062075E+02  0.69800692850E+02  0.10000000000E+01 0.  0.
         21    1    1    2  502  501 -0.10499573201E+02 -0.22591902973E+02  0.84804295677E+02  0.88387802794E+02  0.00000000000E+00 0.  1.
<mgrwt>
<rscale>  1 0.12745408E+03</rscale>
<asrwt>0</asrwt>
<pdfrwt beam="1">  1        4 0.22517166E-01 0.12745408E+03</pdfrwt>
<pdfrwt beam="2">  1       -4 0.10729676E-01 0.12745408E+03</pdfrwt>
<totfact> 0.19816616E+03</totfact>
</mgrwt>
</event>
<event>
 6    4  0.5642870E-004  0.1274909E+03  0.7818608E-02  0.1231227E+00
          4   -1    0    0  502    0  0.00000000000E+00  0.00000000000E+00  0.62336135167E+01  0.63616693938E+01  0.12700000000E+01 0. -1.
         -4   -1    0    0    0  501 -0.00000000000E+00 -0.00000000000E+00 -0.92423591286E+03  0.92423678542E+03  0.12700000000E+01 0. -1.
         25    2    1    2    0    0 -0.24624693696E+02  0.48162198226E+01 -0.77148625878E+03  0.78194946674E+03  0.12499739810E+03 0.  0.
    9000005    1    3    3    0    0  0.56191282699E+01 -0.39700831137E+02 -0.92357174566E+02  0.10069050744E+03  0.10000000000E+01 0.  0.
    9000005    1    3    3    0    0 -0.30243821966E+02  0.44517050960E+02 -0.67912908422E+03  0.68125895930E+03  0.10000000000E+01 0.  0.
         21    1    1    2  502  501  0.24624693696E+02 -0.48162198226E+01 -0.14651604056E+03  0.14864898807E+03  0.00000000000E+00 0.  1.
<mgrwt>
<rscale>  1 0.12749087E+03</rscale>
<asrwt>0</asrwt>
<pdfrwt beam="1">  1        4 0.96893577E-03 0.12749087E+03</pdfrwt>
<pdfrwt beam="2">  1       -4 0.14219995E+00 0.12749087E+03</pdfrwt>
<totfact> 0.18315906E+03</totfact>
</mgrwt>
</event>
<event>
 6    4  0.5642870E-004  0.1339106E+03  0.7818608E-02  0.1221766E+00
         -4   -1    0    0    0  501 -0.00000000000E+00  0.00000000000E+00  0.44339478890E+03  0.44339660770E+03  0.12700000000E+01 0. -1.
          4   -1    0    0  502    0  0.00000000000E+00 -0.00000000000E+00 -0.24728800004E+02  0.24761390301E+02  0.12700000000E+01 0. -1.
         25    2    1    2    0    0  0.48005088011E+02  0.15418659931E+01  0.38970937779E+03  0.41207456772E+03  0.12500073760E+03 0.  0.
    9000005    1    3    3    0    0  0.44551428658E+02 -0.46167028974E+02  0.10264509697E+03  0.12105056915E+03  0.10000000000E+01 0.  0.
    9000005    1    3    3    0    0  0.34536593531E+01  0.47708894967E+02  0.28706428081E+03  0.29102399857E+03  0.10000000000E+01 0.  0.
         21    1    1    2  502  501 -0.48005088011E+02 -0.15418659931E+01  0.28956611106E+02  0.56083430284E+02  0.00000000000E+00 0.  1.
<mgrwt>
<rscale>  1 0.13391061E+03</rscale>
<asrwt>0</asrwt>
<pdfrwt beam="2">  1        4 0.38070780E-02 0.13391061E+03</pdfrwt>
<pdfrwt beam="1">  1       -4 0.68217224E-01 0.13391061E+03</pdfrwt>
<totfact> 0.12281959E+03</totfact>
</mgrwt>
</event>
<event>
 6    4  0.5642870E-004  0.1377746E+03  0.7818608E-02  0.1216355E+00
         -4   -1    0    0    0  501 -0.00000000000E+00  0.00000000000E+00  0.20712920720E+02  0.20751818830E+02  0.12700000000E+01 0. -1.
          4   -1    0    0  502    0  0.00000000000E+00 -0.00000000000E+00 -0.10792971476E+04  0.10792978948E+04  0.12700000000E+01 0. -1.
         25    2    1    2    0    0  0.21874969549E+00  0.57933730535E+02 -0.22075789217E+03  0.26022274805E+03  0.12500186663E+03 0.  0.
    9000005    1    3    3    0    0 -0.31565523275E+02 -0.58111018178E+01 -0.16936604266E+03  0.17238331581E+03  0.10000000000E+01 0.  0.
    9000005    1    3    3    0    0  0.31784272970E+02  0.63744832353E+02 -0.51391849517E+02  0.87839432243E+02  0.10000000000E+01 0.  0.
         21    1    1    2  502  501 -0.21874969549E+00 -0.57933730535E+02 -0.83782633468E+03  0.83982696556E+03  0.00000000000E+00 0. -1.
<mgrwt>
<rscale>  1 0.13777457E+03</rscale>
<asrwt>0</asrwt>
<pdfrwt beam="2">  1        4 0.16604872E+00 0.13777457E+03</pdfrwt>
<pdfrwt beam="1">  1       -4 0.31896537E-02 0.13777457E+03</pdfrwt>
<totfact> 0.20075139E+02</totfact>
</mgrwt>
</event>
<event>
 6    4  0.5642870E-004  0.1268436E+03  0.7818608E-02  0.1232216E+00
         -4   -1    0    0    0  501 -0.00000000000E+00  0.00000000000E+00  0.24337354156E+02  0.24370467934E+02  0.12700000000E+01 0.  1.
          4   -1    0    0  502    0  0.00000000000E+00 -0.00000000000E+00 -0.27009755065E+03  0.27010053641E+03  0.12700000000E+01 0.  1.
         25    2    1    2    0    0 -0.20583756000E+02  0.63769204077E+01 -0.15059381185E+03  0.19689540856E+03  0.12499979848E+03 0.  0.
    9000005    1    3    3    0    0  0.29249649235E+02  0.51569833450E+02 -0.64199811525E+02  0.87393395072E+02  0.10000000000E+01 0.  0.
    9000005    1    3    3    0    0 -0.49833405235E+02 -0.45192913042E+02 -0.86394000323E+02  0.10950201349E+03  0.10000000000E+01 0.  0.
         21    1    1    2  502  501  0.20583756000E+02 -0.63769204077E+01 -0.95166384649E+02  0.97575595782E+02  0.00000000000E+00 0.  1.
<mgrwt>
<rscale>  1 0.12684363E+03</rscale>
<asrwt>0</asrwt>
<pdfrwt beam="2">  1        4 0.41556244E-01 0.12684363E+03</pdfrwt>
<pdfrwt beam="1">  1       -4 0.37469854E-02 0.12684363E+03</pdfrwt>
<totfact> 0.34497028E+03</totfact>
</mgrwt>
</event>
<event>
 6    4  0.5642870E-004  0.1269333E+03  0.7818608E-02  0.1232078E+00
         -4   -1    0    0    0  501 -0.00000000000E+00  0.00000000000E+00  0.90130771092E+03  0.90130860567E+03  0.12700000000E+01 0.  1.
          4   -1    0    0  502    0  0.00000000000E+00 -0.00000000000E+00 -0.95048349674E+01  0.95893059059E+01  0.12700000000E+01 0.  1.
         25    2    1    2    0    0  0.22083521094E+02 -0.62396641950E+00  0.87212120299E+03  0.88131008489E+03  0.12499600703E+03 0.  0.
    9000005    1    3    3    0    0  0.55737040680E+00  0.12605159340E+02  0.46710340791E+01  0.13491451483E+02  0.10000000000E+01 0.  0.
    9000005    1    3    3    0    0  0.21526150687E+02 -0.13229125759E+02  0.86745016891E+03  0.86781863340E+03  0.10000000000E+01 0.  0.
         21    1    1    2  502  501 -0.22083521094E+02  0.62396641950E+00  0.19681672955E+02  0.29587826691E+02  0.00000000000E+00 0.  1.
<mgrwt>
<rscale>  1 0.12693334E+03</rscale>
<asrwt>0</asrwt>
<pdfrwt beam="2">  1        4 0.14688485E-02 0.12693334E+03</pdfrwt>
<pdfrwt beam="1">  1       -4 0.13866933E+00 0.12693334E+03</pdfrwt>
<totfact> 0.10388703E+03</totfact>
</mgrwt>
</event>
<event>
 6    4  0.5642870E-004  0.1506301E+03  0.7818608E-02  0.1199701E+00
          4   -1    0    0  502    0  0.00000000000E+00  0.00000000000E+00  0.25210333927E+02  0.25242302524E+02  0.12700000000E+01 0.  1.
         -4   -1    0    0    0  501 -0.00000000000E+00 -0.00000000000E+00 -0.64114887163E+03  0.64115012945E+03  0.12700000000E+01 0.  1.
         25    2    1    2    0    0 -0.78610689441E+02  0.29725449662E+02 -0.50639729558E+03  0.52832532301E+03  0.12500473235E+03 0.  0.
    9000005    1    3    3    0    0 -0.63985274543E+02  0.39161640545E+02 -0.50531885287E+03  0.51085799643E+03  0.10000000000E+01 0.  0.
    9000005    1    3    3    0    0 -0.14625414898E+02 -0.94361908827E+01 -0.10784427141E+01  0.17467326584E+02  0.10000000000E+01 0.  0.
         21    1    1    2  502  501  0.78610689441E+02 -0.29725449662E+02 -0.10954124212E+03  0.13806710896E+03  0.00000000000E+00 0.  1.
<mgrwt>
<rscale>  1 0.15063010E+03</rscale>
<asrwt>0</asrwt>
<pdfrwt beam="1">  1        4 0.38810693E-02 0.15063010E+03</pdfrwt>
<pdfrwt beam="2">  1       -4 0.98640831E-01 0.15063010E+03</pdfrwt>
<totfact> 0.53692703E+02</totfact>
</mgrwt>
</event>
<event>
 6    4  0.5642870E-004  0.1345195E+03  0.7818608E-02  0.1220900E+00
         -4   -1    0    0    0  501 -0.00000000000E+00  0.00000000000E+00  0.75351873484E+02  0.75362575179E+02  0.12700000000E+01 0. -1.
          4   -1    0    0  502    0  0.00000000000E+00 -0.00000000000E+00 -0.13223934777E+03  0.13224544604E+03  0.12700000000E+01 0. -1.
         25    2    1    2    0    0 -0.25688638553E+02  0.42557971527E+02 -0.33646482129E+01  0.13456159761E+03  0.12499766239E+03 0.  0.
    9000005    1    3    3    0    0 -0.62811307536E+02 -0.10095149149E+02 -0.22275644754E+02  0.67411992553E+02  0.10000000000E+01 0.  0.
    9000005    1    3    3    0    0  0.37122668983E+02  0.52653120676E+02  0.18910996541E+02  0.67149605059E+02  0.10000000000E+01 0.  0.
         21    1    1    2  502  501  0.25688638553E+02 -0.42557971527E+02 -0.53522826074E+02  0.73046423609E+02  0.00000000000E+00 0. -1.
<mgrwt>
<rscale>  1 0.13451953E+03</rscale>
<asrwt>0</asrwt>
<pdfrwt beam="2">  1        4 0.20345807E-01 0.13451953E+03</pdfrwt>
<pdfrwt beam="1">  1       -4 0.11593888E-01 0.13451953E+03</pdfrwt>
<totfact> 0.21136523E+03</totfact>
</mgrwt>
</event>
<event>
 6    4  0.5642870E-004  0.1395546E+03  0.7818608E-02  0.1213930E+00
          4   -1    0    0  502    0  0.00000000000E+00  0.00000000000E+00  0.16714528277E+02  0.16762707285E+02  0.12700000000E+01 0. -1.
         -4   -1    0    0    0  501 -0.00000000000E+00 -0.00000000000E+00 -0.67305297677E+03  0.67305417497E+03  0.12700000000E+01 0. -1.
         25    2    1    2    0    0  0.52480571756E+02 -0.33134413941E+02 -0.54245890308E+03  0.56012243109E+03  0.12499350574E+03 0.  0.
    9000005    1    3    3    0    0 -0.24848899797E+02  0.29491880062E+02 -0.11764730899E+03  0.12381085624E+03  0.10000000000E+01 0.  0.
    9000005    1    3    3    0    0  0.77329471553E+02 -0.62626294003E+02 -0.42481159409E+03  0.43631157485E+03  0.10000000000E+01 0.  0.
         21    1    1    2  502  501 -0.52480571756E+02  0.33134413941E+02 -0.11387954541E+03  0.12969445116E+03  0.00000000000E+00 0. -1.
<mgrwt>
<rscale>  1 0.13955456E+03</rscale>
<asrwt>0</asrwt>
<pdfrwt beam="1">  1        4 0.25752647E-02 0.13955456E+03</pdfrwt>
<pdfrwt beam="2">  1       -4 0.10355039E+00 0.13955456E+03</pdfrwt>
<totfact> 0.90069024E+02</totfact>
</mgrwt>
</event>
<event>
 6    4  0.5642870E-004  0.1270917E+03  0.7818608E-02  0.1231836E+00
          4   -1    0    0  502    0  0.00000000000E+00  0.00000000000E+00  0.16631948131E+02  0.16680365662E+02  0.12700000000E+01 0. -1.
         -4   -1    0    0    0  501 -0.00000000000E+00 -0.00000000000E+00 -0.84563288902E+03  0.84563384269E+03  0.12700000000E+01 0. -1.
         25    2    1    2    0    0  0.46631267525E+01 -0.22481506611E+02 -0.82966676920E+03  0.83934452794E+03  0.12500050311E+03 0.  0.
    9000005    1    3    3    0    0 -0.20835210866E+02  0.18376798080E+02 -0.42996443900E+02  0.51200653390E+02  0.10000000000E+01 0.  0.
    9000005    1    3    3    0    0  0.25498337618E+02 -0.40858304691E+02 -0.78667032530E+03  0.78814387455E+03  0.10000000000E+01 0.  0.
         21    1    1    2  502  501 -0.46631267525E+01  0.22481506611E+02  0.66582831060E+00  0.22969680406E+02  0.00000000000E+00 0. -1.
<mgrwt>
<rscale>  1 0.12709165E+03</rscale>
<asrwt>0</asrwt>
<pdfrwt beam="1">  1        4 0.25625597E-02 0.12709165E+03</pdfrwt>
<pdfrwt beam="2">  1       -4 0.13010113E+00 0.12709165E+03</pdfrwt>
<totfact> 0.51688666E+02</totfact>
</mgrwt>
</event>
<event>
 6    4  0.5642870E-004  0.1489998E+03  0.7818608E-02  0.1201707E+00
         -4   -1    0    0    0  501 -0.00000000000E+00  0.00000000000E+00  0.21041329406E+03  0.21041712672E+03  0.12700000000E+01 0. -1.
          4   -1    0    0  502    0  0.00000000000E+00 -0.00000000000E+00 -0.12365911831E+03  0.12366563969E+03  0.12700000000E+01 0. -1.
         25    2    1    2    0    0 -0.79838404144E+02 -0.14205796886E+02  0.16435596374E+03  0.22184189622E+03  0.12499987463E+03 0.  0.
    9000005    1    3    3    0    0 -0.13508337349E+02  0.36168221167E+02  0.11847015883E+01  0.38639602977E+02  0.10000000000E+01 0.  0.
    9000005    1    3    3    0    0 -0.66330066795E+02 -0.50374018054E+02  0.16317126215E+03  0.18320229324E+03  0.10000000000E+01 0.  0.
         21    1    1    2  502  501  0.79838404144E+02  0.14205796886E+02 -0.77601787991E+02  0.11224087019E+03  0.00000000000E+00 0. -1.
<mgrwt>
<rscale>  1 0.14899981E+03</rscale>
<asrwt>0</asrwt>
<pdfrwt beam="2">  1        4 0.19025276E-01 0.14899981E+03</pdfrwt>
<pdfrwt beam="1">  1       -4 0.32372072E-01 0.14899981E+03</pdfrwt>
<totfact> 0.38380479E+02</totfact>
</mgrwt>
</event>
<event>
 6    4  0.5642870E-004  0.1641418E+03  0.7818608E-02  0.1184098E+00
         -4   -1    0    0    0  501 -0.00000000000E+00  0.00000000000E+00  0.59081901163E+02  0.59095549283E+02  0.12700000000E+01 0. -1.
          4   -1    0    0  502    0  0.00000000000E+00 -0.00000000000E+00 -0.32872055563E+03  0.32872300892E+03  0.12700000000E+01 0. -1.
         25    2    1    2    0    0 -0.92957950458E+02 -0.51725037353E+02 -0.11619731949E+03  0.20110781046E+03  0.12500349727E+03 0.  0.
    9000005    1    3    3    0    0  0.12163653224E+02  0.29072897800E+02 -0.21035877603E+02  0.37903772804E+02  0.10000000000E+01 0.  0.
    9000005    1    3    3    0    0 -0.10512160368E+03 -0.80797935153E+02 -0.95161441888E+02  0.16320403766E+03  0.10000000000E+01 0.  0.
         21    1    1    2  502  501  0.92957950458E+02  0.51725037353E+02 -0.15344133497E+03  0.18671074774E+03  0.00000000000E+00 0. -1.
<mgrwt>
<rscale>  1 0.16414181E+03</rscale>
<asrwt>0</asrwt>
<pdfrwt beam="2">  1        4 0.50573631E-01 0.16414181E+03</pdfrwt>
<pdfrwt beam="1">  1       -4 0.90907620E-02 0.16414181E+03</pdfrwt>
<totfact> 0.58071525E+02</totfact>
</mgrwt>
</event>
<event>
 6    4  0.5642870E-004  0.1350811E+03  0.7818608E-02  0.1220105E+00
         -4   -1    0    0    0  501 -0.00000000000E+00  0.00000000000E+00  0.55056246881E+03  0.55056393358E+03  0.12700000000E+01 0. -1.
          4   -1    0    0  502    0  0.00000000000E+00 -0.00000000000E+00 -0.17369756181E+02  0.17416122697E+02  0.12700000000E+01 0. -1.
         25    2    1    2    0    0  0.72946699966E+01  0.50683264547E+02  0.45404314468E+03  0.47371097533E+03  0.12499962163E+03 0.  0.
    9000005    1    3    3    0    0 -0.38309924767E+02  0.45969941621E+02  0.98750124548E+02  0.11547065847E+03  0.10000000000E+01 0.  0.
    9000005    1    3    3    0    0  0.45604594764E+02  0.47133229269E+01  0.35529302013E+03  0.35824031687E+03  0.10000000000E+01 0.  0.
         21    1    1    2  502  501 -0.72946699966E+01 -0.50683264547E+02  0.79149567948E+02  0.94269080943E+02  0.00000000000E+00 0. -1.
<mgrwt>
<rscale>  1 0.13508113E+03</rscale>
<asrwt>0</asrwt>
<pdfrwt beam="2">  1        4 0.26759491E-02 0.13508113E+03</pdfrwt>
<pdfrwt beam="1">  1       -4 0.84705611E-01 0.13508113E+03</pdfrwt>
<totfact> 0.13325420E+03</totfact>
</mgrwt>
</event>
<event>
 6    4  0.5642870E-004  0.1297469E+03  0.7818608E-02  0.1227832E+00
          4   -1    0    0  502    0  0.00000000000E+00  0.00000000000E+00  0.70189491764E+02  0.70200980435E+02  0.12700000000E+01 0. -1.
         -4   -1    0    0    0  501 -0.00000000000E+00 -0.00000000000E+00 -0.14601472610E+03  0.14602024907E+03  0.12700000000E+01 0. -1.
         25    2    1    2    0    0  0.30425080504E+02  0.16837750252E+02 -0.10802409021E+03  0.16882965139E+03  0.12500020706E+03 0.  0.
    9000005    1    3    3    0    0 -0.48691080270E+02  0.13791890764E+01 -0.47255408189E+02  0.67873389951E+02  0.10000000000E+01 0.  0.
    9000005    1    3    3    0    0  0.79116160773E+02  0.15458561176E+02 -0.60768682021E+02  0.10095626144E+03  0.10000000000E+01 0.  0.
         21    1    1    2  502  501 -0.30425080504E+02 -0.16837750252E+02  0.32198855870E+02  0.47391578118E+02  0.00000000000E+00 0. -1.
<mgrwt>
<rscale>  1 0.12974686E+03</rscale>
<asrwt>0</asrwt>
<pdfrwt beam="1">  1        4 0.10799692E-01 0.12974686E+03</pdfrwt>
<pdfrwt beam="2">  1       -4 0.22465113E-01 0.12974686E+03</pdfrwt>
<totfact> 0.19764023E+03</totfact>
</mgrwt>
</event>
<event>
 6    4  0.5642870E-004  0.1276201E+03  0.7818608E-02  0.1231030E+00
          4   -1    0    0  502    0  0.00000000000E+00  0.00000000000E+00  0.12288671215E+02  0.12354122398E+02  0.12700000000E+01 0. -1.
         -4   -1    0    0    0  501 -0.00000000000E+00 -0.00000000000E+00 -0.69249484488E+03  0.69249600943E+03  0.12700000000E+01 0. -1.
         25    2    1    2    0    0  0.21739721421E+02  0.13730773013E+02 -0.65978591232E+03  0.67201514000E+03  0.12500299471E+03 0.  0.
    9000005    1    3    3    0    0 -0.11377654427E+02 -0.50203936500E+02 -0.19493474271E+03  0.20161954314E+03  0.10000000000E+01 0.  0.
    9000005    1    3    3    0    0  0.33117375847E+02  0.63934709513E+02 -0.46485116961E+03  0.47039559686E+03  0.10000000000E+01 0.  0.
         21    1    1    2  502  501 -0.21739721421E+02 -0.13730773013E+02 -0.20420261344E+02  0.32834991828E+02  0.00000000000E+00 0. -1.
<mgrwt>
<rscale>  1 0.12762013E+03</rscale>
<asrwt>0</asrwt>
<pdfrwt beam="1">  1        4 0.18956896E-02 0.12762013E+03</pdfrwt>
<pdfrwt beam="2">  1       -4 0.10654276E+00 0.12762013E+03</pdfrwt>
<totfact> 0.13279953E+03</totfact>
</mgrwt>
</event>
<event>
 6    4  0.5642870E-004  0.1268888E+03  0.7818608E-02  0.1232147E+00
         -4   -1    0    0    0  501 -0.00000000000E+00  0.00000000000E+00  0.12310042812E+03  0.12310697910E+03  0.12700000000E+01 0.  1.
          4   -1    0    0  502    0  0.00000000000E+00 -0.00000000000E+00 -0.45311795667E+02  0.45329589967E+02  0.12700000000E+01 0.  1.
         25    2    1    2    0    0 -0.21660412594E+02  0.27027148084E+01  0.71831421084E+02  0.14580989215E+03  0.12499717378E+03 0.  0.
    9000005    1    3    3    0    0  0.25587955321E+02  0.46612900441E+02  0.60081128949E+02  0.80238693913E+02  0.10000000000E+01 0.  0.
    9000005    1    3    3    0    0 -0.47248367915E+02 -0.43910185633E+02  0.11750292135E+02  0.65571198236E+02  0.10000000000E+01 0.  0.
         21    1    1    2  502  501  0.21660412594E+02 -0.27027148084E+01  0.59572113689E+01  0.22626676918E+02  0.00000000000E+00 0. -1.
<mgrwt>
<rscale>  1 0.12688882E+03</rscale>
<asrwt>0</asrwt>
<pdfrwt beam="2">  1        4 0.69729183E-02 0.12688882E+03</pdfrwt>
<pdfrwt beam="1">  1       -4 0.18940400E-01 0.12688882E+03</pdfrwt>
<totfact> 0.55404812E+03</totfact>
</mgrwt>
</event>
<event>
 6    4  0.5642870E-004  0.1290986E+03  0.7818608E-02  0.1228799E+00
         -4   -1    0    0    0  501 -0.00000000000E+00  0.00000000000E+00  0.14330242855E+03  0.14330805605E+03  0.12700000000E+01 0.  1.
          4   -1    0    0  502    0  0.00000000000E+00 -0.00000000000E+00 -0.69071198234E+02  0.69082872881E+02  0.12700000000E+01 0.  1.
         25    2    1    2    0    0  0.30936180059E+02  0.91471868580E+01  0.10605540793E+03  0.16707540680E+03  0.12500289494E+03 0.  0.
    9000005    1    3    3    0    0  0.24027949090E+02  0.65989629795E+02  0.45266861986E+02  0.83558736060E+02  0.10000000000E+01 0.  0.
    9000005    1    3    3    0    0  0.69082309689E+01 -0.56842442937E+02  0.60788545946E+02  0.83516670745E+02  0.10000000000E+01 0.  0.
         21    1    1    2  502  501 -0.30936180059E+02 -0.91471868580E+01 -0.31824177619E+02  0.45315522122E+02  0.00000000000E+00 0.  1.
<mgrwt>
<rscale>  1 0.12909857E+03</rscale>
<asrwt>0</asrwt>
<pdfrwt beam="2">  1        4 0.10627669E-01 0.12909857E+03</pdfrwt>
<pdfrwt beam="1">  1       -4 0.22047858E-01 0.12909857E+03</pdfrwt>
<totfact> 0.20988583E+03</totfact>
</mgrwt>
</event>
<event>
 6    4  0.5642870E-004  0.1270519E+03  0.7818608E-02  0.1231897E+00
          4   -1    0    0  502    0  0.00000000000E+00  0.00000000000E+00  0.59759581489E+03  0.59759716438E+03  0.12700000000E+01 0.  1.
         -4   -1    0    0    0  501 -0.00000000000E+00 -0.00000000000E+00 -0.13467665584E+02  0.13527413511E+02  0.12700000000E+01 0.  1.
         25    2    1    2    0    0  0.75580383573E+01  0.21450866555E+02  0.29619232317E+03  0.32229192116E+03  0.12499970609E+03 0.  0.
    9000005    1    3    3    0    0  0.34499952068E+02 -0.44199695459E+02  0.13163810320E+03  0.14308546392E+03  0.10000000000E+01 0.  0.
    9000005    1    3    3    0    0 -0.26941913711E+02  0.65650562014E+02  0.16455421997E+03  0.17920645724E+03  0.10000000000E+01 0.  0.
         21    1    1    2  502  501 -0.75580383573E+01 -0.21450866555E+02  0.28793582613E+03  0.28883265673E+03  0.00000000000E+00 0.  1.
<mgrwt>
<rscale>  1 0.12705192E+03</rscale>
<asrwt>0</asrwt>
<pdfrwt beam="1">  1        4 0.91942517E-01 0.12705192E+03</pdfrwt>
<pdfrwt beam="2">  1       -4 0.20766484E-02 0.12705192E+03</pdfrwt>
<totfact> 0.16193181E+03</totfact>
</mgrwt>
</event>
<event>
 6    4  0.5642870E-004  0.1299272E+03  0.7818608E-02  0.1227564E+00
          4   -1    0    0  502    0  0.00000000000E+00  0.00000000000E+00  0.49137081179E+02  0.49153490688E+02  0.12700000000E+01 0. -1.
         -4   -1    0    0    0  501 -0.00000000000E+00 -0.00000000000E+00 -0.15149295272E+03  0.15149827598E+03  0.12700000000E+01 0. -1.
         25    2    1    2    0    0 -0.23607814032E+02  0.26436108488E+02 -0.10204141655E+03  0.16520750623E+03  0.12499949084E+03 0.  0.
    9000005    1    3    3    0    0 -0.58199913019E+02 -0.18153320867E+02 -0.87973019803E+02  0.10703749412E+03  0.10000000000E+01 0.  0.
    9000005    1    3    3    0    0  0.34592098987E+02  0.44589429355E+02 -0.14068396748E+02  0.58170012116E+02  0.10000000000E+01 0.  0.
         21    1    1    2  502  501  0.23607814032E+02 -0.26436108488E+02 -0.31445498867E+00  0.35444260428E+02  0.00000000000E+00 0.  1.
<mgrwt>
<rscale>  1 0.12992717E+03</rscale>
<asrwt>0</asrwt>
<pdfrwt beam="1">  1        4 0.75612228E-02 0.12992717E+03</pdfrwt>
<pdfrwt beam="2">  1       -4 0.23308280E-01 0.12992717E+03</pdfrwt>
<totfact> 0.33529923E+03</totfact>
</mgrwt>
</event>
<event>
 6    4  0.5642870E-004  0.1277868E+03  0.7818608E-02  0.1230777E+00
          4   -1    0    0  502    0  0.00000000000E+00  0.00000000000E+00  0.66262837270E+01  0.67468908418E+01  0.12700000000E+01 0. -1.
         -4   -1    0    0    0  501 -0.00000000000E+00 -0.00000000000E+00 -0.93628974819E+03  0.93629060952E+03  0.12700000000E+01 0. -1.
         25    2    1    2    0    0 -0.20095868258E+02 -0.17407011685E+02 -0.83460463545E+03  0.84433071766E+03  0.12499046081E+03 0.  0.
    9000005    1    3    3    0    0 -0.14151213351E+02 -0.65719527968E+02 -0.29646376881E+03  0.30399190682E+03  0.10000000000E+01 0.  0.
    9000005    1    3    3    0    0 -0.59446549069E+01  0.48312516284E+02 -0.53814086664E+03  0.54033881084E+03  0.10000000000E+01 0.  0.
         21    1    1    2  502  501  0.20095868258E+02  0.17407011685E+02 -0.95058829015E+02  0.98706782698E+02  0.00000000000E+00 0. -1.
<mgrwt>
<rscale>  1 0.12778679E+03</rscale>
<asrwt>0</asrwt>
<pdfrwt beam="1">  1        4 0.10287727E-02 0.12778679E+03</pdfrwt>
<pdfrwt beam="2">  1       -4 0.14405382E+00 0.12778679E+03</pdfrwt>
<totfact> 0.16210259E+03</totfact>
</mgrwt>
</event>
<event>
 6    4  0.5642870E-004  0.1355725E+03  0.7818608E-02  0.1219414E+00
          4   -1    0    0  502    0  0.00000000000E+00  0.00000000000E+00  0.71028922059E+02  0.71040274978E+02  0.12700000000E+01 0.  1.
         -4   -1    0    0    0  501 -0.00000000000E+00 -0.00000000000E+00 -0.12741315792E+03  0.12741948717E+03  0.12700000000E+01 0.  1.
         25    2    1    2    0    0  0.14803037814E+02  0.50354648131E+02 -0.26750717255E+02  0.13818650156E+03  0.12500075129E+03 0.  0.
    9000005    1    3    3    0    0 -0.17953414358E+02 -0.37609852953E+02 -0.91575454667E+01  0.42681222631E+02  0.10000000000E+01 0.  0.
    9000005    1    3    3    0    0  0.32756452172E+02  0.87964501084E+02 -0.17593171789E+02  0.95505278930E+02  0.10000000000E+01 0.  0.
         21    1    1    2  502  501 -0.14803037814E+02 -0.50354648131E+02 -0.29633518602E+02  0.60273260586E+02  0.00000000000E+00 0.  1.
<mgrwt>
<rscale>  1 0.13557252E+03</rscale>
<asrwt>0</asrwt>
<pdfrwt beam="1">  1        4 0.10928887E-01 0.13557252E+03</pdfrwt>
<pdfrwt beam="2">  1       -4 0.19603384E-01 0.13557252E+03</pdfrwt>
<totfact> 0.25030060E+03</totfact>
</mgrwt>
</event>
<event>
 6    4  0.5642870E-004  0.1327836E+03  0.7818608E-02  0.1223383E+00
          4   -1    0    0  502    0  0.00000000000E+00  0.00000000000E+00  0.22800791079E+02  0.22836133075E+02  0.12700000000E+01 0. -1.
         -4   -1    0    0    0  501 -0.00000000000E+00 -0.00000000000E+00 -0.42246183490E+03  0.42246374382E+03  0.12700000000E+01 0. -1.
         25    2    1    2    0    0  0.10750193559E+02  0.43485942938E+02 -0.36577759409E+03  0.38913332048E+03  0.12499959549E+03 0.  0.
    9000005    1    3    3    0    0 -0.46172750432E+02  0.57090123880E+02 -0.18186101814E+03  0.19612657915E+03  0.10000000000E+01 0.  0.
    9000005    1    3    3    0    0  0.56922943991E+02 -0.13604180942E+02 -0.18391657594E+03  0.19300674133E+03  0.10000000000E+01 0.  0.
         21    1    1    2  502  501 -0.10750193559E+02 -0.43485942938E+02 -0.33883449729E+02  0.56166556422E+02  0.00000000000E+00 0. -1.
<mgrwt>
<rscale>  1 0.13278363E+03</rscale>
<asrwt>0</asrwt>
<pdfrwt beam="1">  1        4 0.35106798E-02 0.13278363E+03</pdfrwt>
<pdfrwt beam="2">  1       -4 0.64996988E-01 0.13278363E+03</pdfrwt>
<totfact> 0.15453023E+03</totfact>
</mgrwt>
</event>
<event>
 6    4  0.5642870E-004  0.1300082E+03  0.7818608E-02  0.1227444E+00
         -4   -1    0    0    0  501 -0.00000000000E+00  0.00000000000E+00  0.11823292504E+03  0.11823974570E+03  0.12700000000E+01 0. -1.
          4   -1    0    0  502    0  0.00000000000E+00 -0.00000000000E+00 -0.61078473839E+02  0.61091675919E+02  0.12700000000E+01 0. -1.
         25    2    1    2    0    0  0.10932350138E+02 -0.34043668148E+02  0.60545354263E+02  0.14341504869E+03  0.12499459447E+03 0.  0.
    9000005    1    3    3    0    0 -0.29943697600E+02 -0.67593818106E+02  0.19495642163E+02  0.76463254805E+02  0.10000000000E+01 0.  0.
    9000005    1    3    3    0    0  0.40876047738E+02  0.33550149958E+02  0.41049712100E+02  0.66951793885E+02  0.10000000000E+01 0.  0.
         21    1    1    2  502  501 -0.10932350138E+02  0.34043668148E+02 -0.33909030669E+01  0.35916372925E+02  0.00000000000E+00 0. -1.
<mgrwt>
<rscale>  1 0.13000822E+03</rscale>
<asrwt>0</asrwt>
<pdfrwt beam="2">  1        4 0.93982285E-02 0.13000822E+03</pdfrwt>
<pdfrwt beam="1">  1       -4 0.18191221E-01 0.13000822E+03</pdfrwt>
<totfact> 0.36533733E+03</totfact>
</mgrwt>
</event>
<event>
 6    4  0.5642870E-004  0.1295406E+03  0.7818608E-02  0.1228139E+00
         -4   -1    0    0    0  501 -0.00000000000E+00  0.00000000000E+00  0.17954386874E+03  0.17954836034E+03  0.12700000000E+01 0.  1.
          4   -1    0    0  502    0  0.00000000000E+00 -0.00000000000E+00 -0.45764815719E+02  0.45782433944E+02  0.12700000000E+01 0.  1.
         25    2    1    2    0    0  0.29932359325E+00 -0.33940291519E+02  0.14009428279E+03  0.19080667069E+03  0.12501497721E+03 0.  0.
    9000005    1    3    3    0    0  0.62274102744E+02 -0.11366497517E+02  0.74704433141E+02  0.97923508256E+02  0.10000000000E+01 0.  0.
    9000005    1    3    3    0    0 -0.61974779151E+02 -0.22573794002E+02  0.65389849650E+02  0.92883162434E+02  0.10000000000E+01 0.  0.
         21    1    1    2  502  501 -0.29932359325E+00  0.33940291519E+02 -0.63152297714E+01  0.34524123596E+02  0.00000000000E+00 0.  1.
<mgrwt>
<rscale>  1 0.12954064E+03</rscale>
<asrwt>0</asrwt>
<pdfrwt beam="2">  1        4 0.70424417E-02 0.12954064E+03</pdfrwt>
<pdfrwt beam="1">  1       -4 0.27623834E-01 0.12954064E+03</pdfrwt>
<totfact> 0.27514329E+03</totfact>
</mgrwt>
</event>
<event>
 6    4  0.5642870E-004  0.1269181E+03  0.7818608E-02  0.1232102E+00
         -4   -1    0    0    0  501 -0.00000000000E+00  0.00000000000E+00  0.62601613249E+02  0.62614494180E+02  0.12700000000E+01 0.  1.
          4   -1    0    0  502    0  0.00000000000E+00 -0.00000000000E+00 -0.90541234714E+02  0.90550141268E+02  0.12700000000E+01 0.  1.
         25    2    1    2    0    0  0.20500633760E+02  0.79707343797E+01 -0.15408970152E+02  0.12785009786E+03  0.12499761026E+03 0.  0.
    9000005    1    3    3    0    0 -0.37241276786E+02 -0.18820633039E+02  0.28476077597E+02  0.50527377925E+02  0.10000000000E+01 0.  0.
    9000005    1    3    3    0    0  0.57741910546E+02  0.26791367419E+02 -0.43885047749E+02  0.77322719932E+02  0.10000000000E+01 0.  0.
         21    1    1    2  502  501 -0.20500633760E+02 -0.79707343797E+01 -0.12530651313E+02  0.25314537591E+02  0.00000000000E+00 0.  1.
<mgrwt>
<rscale>  1 0.12691813E+03</rscale>
<asrwt>0</asrwt>
<pdfrwt beam="2">  1        4 0.13931097E-01 0.12691813E+03</pdfrwt>
<pdfrwt beam="1">  1       -4 0.96326934E-02 0.12691813E+03</pdfrwt>
<totfact> 0.55646442E+03</totfact>
</mgrwt>
</event>
<event>
 6    4  0.5642870E-004  0.1300825E+03  0.7818608E-02  0.1227333E+00
         -4   -1    0    0    0  501 -0.00000000000E+00  0.00000000000E+00  0.20504290332E+02  0.20543583476E+02  0.12700000000E+01 0.  1.
          4   -1    0    0  502    0  0.00000000000E+00 -0.00000000000E+00 -0.36229642872E+03  0.36229865466E+03  0.12700000000E+01 0.  1.
         25    2    1    2    0    0  0.49816947726E+01 -0.35617391573E+02 -0.21730811708E+03  0.25326721188E+03  0.12501218741E+03 0.  0.
    9000005    1    3    3    0    0  0.78676984543E+01 -0.81184668312E+02 -0.16328914515E+03  0.18252998650E+03  0.10000000000E+01 0.  0.
    9000005    1    3    3    0    0 -0.28860036817E+01  0.45567276740E+02 -0.54018971929E+02  0.70737225384E+02  0.10000000000E+01 0.  0.
         21    1    1    2  502  501 -0.49816947726E+01  0.35617391573E+02 -0.12448402131E+03  0.12957502625E+03  0.00000000000E+00 0.  1.
<mgrwt>
<rscale>  1 0.13008252E+03</rscale>
<asrwt>0</asrwt>
<pdfrwt beam="2">  1        4 0.55741101E-01 0.13008252E+03</pdfrwt>
<pdfrwt beam="1">  1       -4 0.31577002E-02 0.13008252E+03</pdfrwt>
<totfact> 0.25086588E+03</totfact>
</mgrwt>
</event>
<event>
 6    4  0.5642870E-004  0.1266834E+03  0.7818608E-02  0.1232462E+00
         -4   -1    0    0    0  501 -0.00000000000E+00  0.00000000000E+00  0.18640458913E+02  0.18683672243E+02  0.12700000000E+01 0.  1.
          4   -1    0    0  502    0  0.00000000000E+00 -0.00000000000E+00 -0.75897655951E+03  0.75897762206E+03  0.12700000000E+01 0.  1.
         25    2    1    2    0    0  0.10778070399E+02 -0.17540334240E+02 -0.19879460817E+03  0.23572862492E+03  0.12499943296E+03 0.  0.
    9000005    1    3    3    0    0 -0.53348633888E+02  0.37396498058E+01 -0.54330723466E+02  0.76242306043E+02  0.10000000000E+01 0.  0.
    9000005    1    3    3    0    0  0.64126704287E+02 -0.21279984046E+02 -0.14446388470E+03  0.15948631887E+03  0.10000000000E+01 0.  0.
         21    1    1    2  502  501 -0.10778070399E+02  0.17540334240E+02 -0.54154149243E+03  0.54193266938E+03  0.00000000000E+00 0.  1.
<mgrwt>
<rscale>  1 0.12668342E+03</rscale>
<asrwt>0</asrwt>
<pdfrwt beam="2">  1        4 0.11676901E+00 0.12668342E+03</pdfrwt>
<pdfrwt beam="1">  1       -4 0.28711693E-02 0.12668342E+03</pdfrwt>
<totfact> 0.56185800E+02</totfact>
</mgrwt>
</event>
<event>
 6    4  0.5642870E-004  0.1281740E+03  0.7818608E-02  0.1230191E+00
         -4   -1    0    0    0  501 -0.00000000000E+00  0.00000000000E+00  0.14306216158E+03  0.14306779853E+03  0.12700000000E+01 0. -1.
          4   -1    0    0  502    0  0.00000000000E+00 -0.00000000000E+00 -0.52656048435E+02  0.52671361638E+02  0.12700000000E+01 0. -1.
         25    2    1    2    0    0  0.16566819224E+02 -0.22990497166E+02  0.10328735484E+03  0.16461121698E+03  0.12500221049E+03 0.  0.
    9000005    1    3    3    0    0 -0.28585145968E+02  0.40833090508E+02  0.43896497518E+02  0.66425554908E+02  0.10000000000E+01 0.  0.
    9000005    1    3    3    0    0  0.45151965192E+02 -0.63823587674E+02  0.59390857319E+02  0.98185662076E+02  0.10000000000E+01 0.  0.
         21    1    1    2  502  501 -0.16566819224E+02  0.22990497166E+02 -0.12881241694E+02  0.31127943181E+02  0.00000000000E+00 0.  1.
<mgrwt>
<rscale>  1 0.12817400E+03</rscale>
<asrwt>0</asrwt>
<pdfrwt beam="2">  1        4 0.81025422E-02 0.12817400E+03</pdfrwt>
<pdfrwt beam="1">  1       -4 0.22011174E-01 0.12817400E+03</pdfrwt>
<totfact> 0.33090515E+03</totfact>
</mgrwt>
</event>
<event>
 6    4  0.5642870E-004  0.1293696E+03  0.7818608E-02  0.1228394E+00
          4   -1    0    0  502    0  0.00000000000E+00  0.00000000000E+00  0.33994460648E+01  0.36289300830E+01  0.12700000000E+01 0.  1.
         -4   -1    0    0    0  501 -0.00000000000E+00 -0.00000000000E+00 -0.18873409436E+04  0.18873413709E+04  0.12700000000E+01 0.  1.
         25    2    1    2    0    0 -0.33239823190E+02 -0.26175306382E+01 -0.14610295677E+04  0.14667460234E+04  0.12499904829E+03 0.  0.
    9000005    1    3    3    0    0 -0.81224788299E+02 -0.42907856426E+01 -0.91602903647E+03  0.91963366224E+03  0.10000000000E+01 0.  0.
    9000005    1    3    3    0    0  0.47984965109E+02  0.16732550044E+01 -0.54500053121E+03  0.54711236111E+03  0.10000000000E+01 0.  0.
         21    1    1    2  502  501  0.33239823190E+02  0.26175306382E+01 -0.42291192981E+03  0.42422427758E+03  0.00000000000E+00 0.  1.
<mgrwt>
<rscale>  1 0.12936962E+03</rscale>
<asrwt>0</asrwt>
<pdfrwt beam="1">  1        4 0.54067870E-03 0.12936962E+03</pdfrwt>
<pdfrwt beam="2">  1       -4 0.29037702E+00 0.12936962E+03</pdfrwt>
<totfact> 0.52499414E+02</totfact>
</mgrwt>
</event>
<event>
 6    4  0.5642870E-004  0.1275230E+03  0.7818608E-02  0.1231178E+00
         -4   -1    0    0    0  501 -0.00000000000E+00  0.00000000000E+00  0.40724712821E+02  0.40744510481E+02  0.12700000000E+01 0.  1.
          4   -1    0    0  502    0  0.00000000000E+00 -0.00000000000E+00 -0.15767924791E+03  0.15768436233E+03  0.12700000000E+01 0.  1.
         25    2    1    2    0    0  0.23838985713E+02 -0.82986299044E+01 -0.70891714672E+02  0.14590318459E+03  0.12499975826E+03 0.  0.
    9000005    1    3    3    0    0  0.44946555665E+02 -0.53967697008E+02 -0.64162608143E+02  0.95134354837E+02  0.10000000000E+01 0.  0.
    9000005    1    3    3    0    0 -0.21107569952E+02  0.45669067104E+02 -0.67291065298E+01  0.50768829749E+02  0.10000000000E+01 0.  0.
         21    1    1    2  502  501 -0.23838985713E+02  0.82986299044E+01 -0.46062820420E+02  0.52525688221E+02  0.00000000000E+00 0. -1.
<mgrwt>
<rscale>  1 0.12752296E+03</rscale>
<asrwt>0</asrwt>
<pdfrwt beam="2">  1        4 0.24260262E-01 0.12752296E+03</pdfrwt>
<pdfrwt beam="1">  1       -4 0.62672568E-02 0.12752296E+03</pdfrwt>
<totfact> 0.42178661E+03</totfact>
</mgrwt>
</event>
<event>
 6    4  0.5642870E-004  0.1267637E+03  0.7818608E-02  0.1232338E+00
         -4   -1    0    0    0  501 -0.00000000000E+00  0.00000000000E+00  0.68467353605E+02  0.68479131199E+02  0.12700000000E+01 0. -1.
          4   -1    0    0  502    0  0.00000000000E+00 -0.00000000000E+00 -0.87248192622E+02  0.87257435304E+02  0.12700000000E+01 0. -1.
         25    2    1    2    0    0 -0.18227111434E+01  0.20926907238E+02  0.11655582501E+01  0.12676905908E+03  0.12501111187E+03 0.  0.
    9000005    1    3    3    0    0 -0.26436819055E+02 -0.46219661089E+02 -0.10557022807E+02  0.54291925767E+02  0.10000000000E+01 0.  0.
    9000005    1    3    3    0    0  0.24614107912E+02  0.67146568327E+02  0.11722581058E+02  0.72477133311E+02  0.10000000000E+01 0.  0.
         21    1    1    2  502  501  0.18227111434E+01 -0.20926907238E+02 -0.19946397267E+02  0.28967507425E+02  0.00000000000E+00 0.  1.
<mgrwt>
<rscale>  1 0.12676370E+03</rscale>
<asrwt>0</asrwt>
<pdfrwt beam="2">  1        4 0.13424416E-01 0.12676370E+03</pdfrwt>
<pdfrwt beam="1">  1       -4 0.10535056E-01 0.12676370E+03</pdfrwt>
<totfact> 0.51008567E+03</totfact>
</mgrwt>
</event>
<event>
 6    4  0.5642870E-004  0.1282729E+03  0.7818608E-02  0.1230041E+00
          4   -1    0    0  502    0  0.00000000000E+00  0.00000000000E+00  0.39947139850E+03  0.39947341728E+03  0.12700000000E+01 0. -1.
         -4   -1    0    0    0  501 -0.00000000000E+00 -0.00000000000E+00 -0.15611391927E+02  0.15662964531E+02  0.12700000000E+01 0. -1.
         25    2    1    2    0    0  0.26033321630E+02 -0.12312581522E+02  0.29372345419E+03  0.32051116544E+03  0.12499842452E+03 0.  0.
    9000005    1    3    3    0    0 -0.44886412217E+02  0.15649400220E+02  0.74211253488E+02  0.88136280119E+02  0.10000000000E+01 0.  0.
    9000005    1    3    3    0    0  0.70919733847E+02 -0.27961981742E+02  0.21951220070E+03  0.23237488533E+03  0.10000000000E+01 0.  0.
         21    1    1    2  502  501 -0.26033321630E+02  0.12312581522E+02  0.90136552376E+02  0.94625216370E+02  0.00000000000E+00 0. -1.
<mgrwt>
<rscale>  1 0.12827291E+03</rscale>
<asrwt>0</asrwt>
<pdfrwt beam="1">  1        4 0.61461260E-01 0.12827291E+03</pdfrwt>
<pdfrwt beam="2">  1       -4 0.24058750E-02 0.12827291E+03</pdfrwt>
<totfact> 0.31152320E+03</totfact>
</mgrwt>
</event>
<event>
 6    4  0.5642870E-004  0.1317419E+03  0.7818608E-02  0.1224894E+00
         -4   -1    0    0    0  501 -0.00000000000E+00  0.00000000000E+00  0.81967949196E+01  0.82945974558E+01  0.12700000000E+01 0.  1.
          4   -1    0    0  502    0  0.00000000000E+00 -0.00000000000E+00 -0.93560542143E+03  0.93560628338E+03  0.12700000000E+01 0.  1.
         25    2    1    2    0    0 -0.25160525122E+01  0.41523432833E+02 -0.76429855081E+03  0.77556959203E+03  0.12500156532E+03 0.  0.
    9000005    1    3    3    0    0 -0.51260308450E+02  0.10747948980E+02 -0.58242853854E+03  0.58477956543E+03  0.10000000000E+01 0.  0.
    9000005    1    3    3    0    0  0.48744255938E+02  0.30775483853E+02 -0.18187001226E+03  0.19079002661E+03  0.10000000000E+01 0.  0.
         21    1    1    2  502  501  0.25160525122E+01 -0.41523432833E+02 -0.16311007570E+03  0.16833128880E+03  0.00000000000E+00 0.  1.
<mgrwt>
<rscale>  1 0.13174186E+03</rscale>
<asrwt>0</asrwt>
<pdfrwt beam="2">  1        4 0.14394680E+00 0.13174186E+03</pdfrwt>
<pdfrwt beam="1">  1       -4 0.12686357E-02 0.13174186E+03</pdfrwt>
<totfact> 0.11912196E+03</totfact>
</mgrwt>
</event>
<event>
 6    4  0.5642870E-004  0.1272586E+03  0.7818608E-02  0.1231581E+00
         -4   -1    0    0    0  501 -0.00000000000E+00  0.00000000000E+00  0.21185572217E+02  0.21223604081E+02  0.12700000000E+01 0. -1.
          4   -1    0    0  502    0  0.00000000000E+00 -0.00000000000E+00 -0.63020276079E+03  0.63020404046E+03  0.12700000000E+01 0. -1.
         25    2    1    2    0    0  0.22432098292E+02 -0.81380601355E+01 -0.17303344810E+03  0.21479135537E+03  0.12500130050E+03 0.  0.
    9000005    1    3    3    0    0 -0.22751720781E+01  0.39425621534E+02 -0.67449790681E+01  0.40075563427E+02  0.10000000000E+01 0.  0.
    9000005    1    3    3    0    0  0.24707270371E+02 -0.47563681669E+02 -0.16628846903E+03  0.17471579194E+03  0.10000000000E+01 0.  0.
         21    1    1    2  502  501 -0.22432098292E+02  0.81380601355E+01 -0.43598374048E+03  0.43663628917E+03  0.00000000000E+00 0. -1.
<mgrwt>
<rscale>  1 0.12725860E+03</rscale>
<asrwt>0</asrwt>
<pdfrwt beam="2">  1        4 0.96957281E-01 0.12725860E+03</pdfrwt>
<pdfrwt beam="1">  1       -4 0.32623432E-02 0.12725860E+03</pdfrwt>
<totfact> 0.71107659E+02</totfact>
</mgrwt>
</event>
<event>
 6    4  0.5642870E-004  0.2198014E+03  0.7818608E-02  0.1134031E+00
          4   -1    0    0  502    0  0.00000000000E+00  0.00000000000E+00  0.85976616514E+03  0.85976710313E+03  0.12700000000E+01 0.  1.
         -4   -1    0    0    0  501 -0.00000000000E+00 -0.00000000000E+00 -0.47026239040E+02  0.47043384851E+02  0.12700000000E+01 0.  1.
         25    2    1    2    0    0  0.13830703550E+03  0.11644668201E+03  0.40551626001E+03  0.46125490217E+03  0.12499592724E+03 0.  0.
    9000005    1    3    3    0    0  0.43087495464E+02  0.11651107860E+03  0.21658206361E+03  0.24968010329E+03  0.10000000000E+01 0.  0.
    9000005    1    3    3    0    0  0.95219540035E+02 -0.64396598624E-01  0.18893419640E+03  0.21157479887E+03  0.10000000000E+01 0.  0.
         21    1    1    2  502  501 -0.13830703550E+03 -0.11644668201E+03  0.40722366609E+03  0.44555558581E+03  0.00000000000E+00 0.  1.
<mgrwt>
<rscale>  1 0.21980138E+03</rscale>
<asrwt>0</asrwt>
<pdfrwt beam="1">  1        4 0.13227311E+00 0.21980138E+03</pdfrwt>
<pdfrwt beam="2">  1       -4 0.72361967E-02 0.21980138E+03</pdfrwt>
<totfact> 0.10248026E+02</totfact>
</mgrwt>
</event>
<event>
 6    4  0.5642870E-004  0.1266461E+03  0.7818608E-02  0.1232519E+00
          4   -1    0    0  502    0  0.00000000000E+00  0.00000000000E+00  0.88031382644E+03  0.88031474253E+03  0.12700000000E+01 0.  1.
         -4   -1    0    0    0  501 -0.00000000000E+00 -0.00000000000E+00 -0.10470714998E+02  0.10547453369E+02  0.12700000000E+01 0.  1.
         25    2    1    2    0    0  0.14886980389E+02 -0.13881383134E+02  0.37905647841E+03  0.39965365145E+03  0.12499964923E+03 0.  0.
    9000005    1    3    3    0    0 -0.45022208134E+02 -0.26495555113E+02  0.88991918208E+02  0.10319677889E+03  0.10000000000E+01 0.  0.
    9000005    1    3    3    0    0  0.59909188523E+02  0.12614171979E+02  0.29006456020E+03  0.29645687256E+03  0.10000000000E+01 0.  0.
         21    1    1    2  502  501 -0.14886980389E+02  0.13881383134E+02  0.49078663303E+03  0.49120854445E+03  0.00000000000E+00 0.  1.
<mgrwt>
<rscale>  1 0.12664607E+03</rscale>
<asrwt>0</asrwt>
<pdfrwt beam="1">  1        4 0.13543887E+00 0.12664607E+03</pdfrwt>
<pdfrwt beam="2">  1       -4 0.16168527E-02 0.12664607E+03</pdfrwt>
<totfact> 0.95099362E+02</totfact>
</mgrwt>
</event>
<event>
 6    4  0.5642870E-004  0.1274346E+03  0.7818608E-02  0.1231313E+00
          4   -1    0    0  502    0  0.00000000000E+00  0.00000000000E+00  0.76548627139E+02  0.76559161548E+02  0.12700000000E+01 0.  1.
         -4   -1    0    0    0  501 -0.00000000000E+00 -0.00000000000E+00 -0.10423396100E+03  0.10424169763E+03  0.12700000000E+01 0.  1.
         25    2    1    2    0    0  0.22763460368E+02  0.96683917081E+01 -0.59387217395E+02  0.14059311930E+03  0.12501172217E+03 0.  0.
    9000005    1    3    3    0    0  0.11649980651E+01 -0.19584843539E+02  0.34613305016E+02  0.39799550262E+02  0.10000000000E+01 0.  0.
    9000005    1    3    3    0    0  0.21598462303E+02  0.29253235247E+02 -0.94000522410E+02  0.10079356904E+03  0.10000000000E+01 0.  0.
         21    1    1    2  502  501 -0.22763460368E+02 -0.96683917081E+01  0.31701883538E+02  0.40207739877E+02  0.00000000000E+00 0. -1.
<mgrwt>
<rscale>  1 0.12743462E+03</rscale>
<asrwt>0</asrwt>
<pdfrwt beam="1">  1        4 0.11778117E-01 0.12743462E+03</pdfrwt>
<pdfrwt beam="2">  1       -4 0.16037400E-01 0.12743462E+03</pdfrwt>
<totfact> 0.31016416E+03</totfact>
</mgrwt>
</event>
<event>
 6    4  0.5642870E-004  0.1334717E+03  0.7818608E-02  0.1222393E+00
          4   -1    0    0  502    0  0.00000000000E+00  0.00000000000E+00  0.70738758037E+01  0.71869756425E+01  0.12700000000E+01 0. -1.
         -4   -1    0    0    0  501 -0.00000000000E+00 -0.00000000000E+00 -0.30727047527E+04  0.30727050151E+04  0.12700000000E+01 0. -1.
         25    2    1    2    0    0 -0.41160502332E+02 -0.22275793456E+02 -0.29740658484E+04  0.29770593483E+04  0.12499717809E+03 0.  0.
    9000005    1    3    3    0    0 -0.44666658878E+02 -0.71117853500E+02 -0.20006147052E+04  0.20023768522E+04  0.10000000000E+01 0.  0.
    9000005    1    3    3    0    0  0.35061565455E+01  0.48842060043E+02 -0.97345114317E+03  0.97468249605E+03  0.10000000000E+01 0.  0.
         21    1    1    2  502  501  0.41160502332E+02  0.22275793456E+02 -0.91565028448E+02  0.10283264249E+03  0.00000000000E+00 0. -1.
<mgrwt>
<rscale>  1 0.13347169E+03</rscale>
<asrwt>0</asrwt>
<pdfrwt beam="1">  1        4 0.10970112E-02 0.13347169E+03</pdfrwt>
<pdfrwt beam="2">  1       -4 0.47273147E+00 0.13347169E+03</pdfrwt>
<totfact> 0.12247969E+01</totfact>
</mgrwt>
</event>
<event>
 6    4  0.5642870E-004  0.1287487E+03  0.7818608E-02  0.1229324E+00
          4   -1    0    0  502    0  0.00000000000E+00  0.00000000000E+00  0.83144804142E+02  0.83154502920E+02  0.12700000000E+01 0. -1.
         -4   -1    0    0    0  501 -0.00000000000E+00 -0.00000000000E+00 -0.76655263950E+02  0.76665783706E+02  0.12700000000E+01 0. -1.
         25    2    1    2    0    0  0.30691229572E+02  0.28697403604E+01  0.76250311960E+01  0.12897427680E+03  0.12500414390E+03 0.  0.
    9000005    1    3    3    0    0  0.44228137740E+02 -0.51593310345E+02 -0.12963158673E+02  0.69188447902E+02  0.10000000000E+01 0.  0.
    9000005    1    3    3    0    0 -0.13536908168E+02  0.54463050706E+02  0.20588189869E+02  0.59785828898E+02  0.10000000000E+01 0.  0.
         21    1    1    2  502  501 -0.30691229572E+02 -0.28697403604E+01 -0.11354910040E+01  0.30846009826E+02  0.00000000000E+00 0. -1.
<mgrwt>
<rscale>  1 0.12874868E+03</rscale>
<asrwt>0</asrwt>
<pdfrwt beam="1">  1        4 0.12793064E-01 0.12874868E+03</pdfrwt>
<pdfrwt beam="2">  1       -4 0.11794673E-01 0.12874868E+03</pdfrwt>
<totfact> 0.45929977E+03</totfact>
</mgrwt>
</event>
<event>
 6    4  0.5642870E-004  0.1270949E+03  0.7818608E-02  0.1231831E+00
          4   -1    0    0  502    0  0.00000000000E+00  0.00000000000E+00  0.26306766549E+01  0.29211914800E+01  0.12700000000E+01 0. -1.
         -4   -1    0    0    0  501 -0.00000000000E+00 -0.00000000000E+00 -0.21295554796E+04  0.21295558583E+04  0.12700000000E+01 0. -1.
         25    2    1    2    0    0  0.20931244572E+02 -0.94013171691E+01 -0.15941422670E+04  0.15992006370E+04  0.12500643315E+03 0.  0.
    9000005    1    3    3    0    0  0.64289432342E+02 -0.29832039825E+01 -0.49276040700E+03  0.49694652562E+03  0.10000000000E+01 0.  0.
    9000005    1    3    3    0    0 -0.43358187770E+02 -0.64181131866E+01 -0.11013818600E+04  0.11022541114E+04  0.10000000000E+01 0.  0.
         21    1    1    2  502  501 -0.20931244572E+02  0.94013171691E+01 -0.53278253598E+03  0.53327641276E+03  0.00000000000E+00 0. -1.
<mgrwt>
<rscale>  1 0.12709489E+03</rscale>
<asrwt>0</asrwt>
<pdfrwt beam="1">  1        4 0.42709761E-03 0.12709489E+03</pdfrwt>
<pdfrwt beam="2">  1       -4 0.32764499E+00 0.12709489E+03</pdfrwt>
<totfact> 0.45027321E+02</totfact>
</mgrwt>
</event>
<event>
 6    4  0.5642870E-004  0.1273702E+03  0.7818608E-02  0.1231411E+00
         -4   -1    0    0    0  501 -0.00000000000E+00  0.00000000000E+00  0.14628424141E+03  0.14628975420E+03  0.12700000000E+01 0.  1.
          4   -1    0    0  502    0  0.00000000000E+00 -0.00000000000E+00 -0.39450644642E+02  0.39471081347E+02  0.12700000000E+01 0.  1.
         25    2    1    2    0    0  0.18550978495E+02  0.15965389543E+02  0.86833291556E+02  0.15415316757E+03  0.12499658429E+03 0.  0.
    9000005    1    3    3    0    0 -0.32247441843E+01 -0.14285458789E+02  0.10952511093E+03  0.11050440368E+03  0.10000000000E+01 0.  0.
    9000005    1    3    3    0    0  0.21775722679E+02  0.30250848332E+02 -0.22691819374E+02  0.43648763894E+02  0.10000000000E+01 0.  0.
         21    1    1    2  502  501 -0.18550978495E+02 -0.15965389543E+02  0.20000305207E+02  0.31607667974E+02  0.00000000000E+00 0. -1.
<mgrwt>
<rscale>  1 0.12737024E+03</rscale>
<asrwt>0</asrwt>
<pdfrwt beam="2">  1        4 0.60713261E-02 0.12737024E+03</pdfrwt>
<pdfrwt beam="1">  1       -4 0.22507264E-01 0.12737024E+03</pdfrwt>
<totfact> 0.50928508E+03</totfact>
</mgrwt>
</event>
<event>
 6    4  0.5642870E-004  0.1284366E+03  0.7818608E-02  0.1229794E+00
          4   -1    0    0  502    0  0.00000000000E+00  0.00000000000E+00  0.44345244771E+02  0.44363426759E+02  0.12700000000E+01 0.  1.
         -4   -1    0    0    0  501 -0.00000000000E+00 -0.00000000000E+00 -0.14372414574E+03  0.14372975673E+03  0.12700000000E+01 0.  1.
         25    2    1    2    0    0  0.29469392571E+02  0.15029781868E+01 -0.91038937791E+02  0.15742954006E+03  0.12500107139E+03 0.  0.
    9000005    1    3    3    0    0 -0.48509625815E+02 -0.40198012782E+01 -0.47135117532E+02  0.67764754141E+02  0.10000000000E+01 0.  0.
    9000005    1    3    3    0    0  0.77979018386E+02  0.55227794649E+01 -0.43903820259E+02  0.89664785924E+02  0.10000000000E+01 0.  0.
         21    1    1    2  502  501 -0.29469392571E+02 -0.15029781868E+01 -0.83399631765E+01  0.30663643419E+02  0.00000000000E+00 0.  1.
<mgrwt>
<rscale>  1 0.12843665E+03</rscale>
<asrwt>0</asrwt>
<pdfrwt beam="1">  1        4 0.68241756E-02 0.12843665E+03</pdfrwt>
<pdfrwt beam="2">  1       -4 0.22113237E-01 0.12843665E+03</pdfrwt>
<totfact> 0.43555492E+03</totfact>
</mgrwt>
</event>
<event>
 6    4  0.5642870E-004  0.1465713E+03  0.7818608E-02  0.1204751E+00
         -4   -1    0    0    0  501 -0.00000000000E+00  0.00000000000E+00  0.15749146028E+04  0.15749151149E+04  0.12700000000E+01 0.  1.
          4   -1    0    0  502    0  0.00000000000E+00 -0.00000000000E+00 -0.17090899089E+02  0.17138020063E+02  0.12700000000E+01 0.  1.
         25    2    1    2    0    0  0.55306326361E+02 -0.52897116986E+02  0.14624219036E+04  0.14697486044E+04  0.12500496502E+03 0.  0.
    9000005    1    3    3    0    0  0.33139456022E+02 -0.78620794980E+02  0.53984947741E+03  0.54655092279E+03  0.10000000000E+01 0.  0.
    9000005    1    3    3    0    0  0.22166870339E+02  0.25723677995E+02  0.92257242622E+03  0.92319768164E+03  0.10000000000E+01 0.  0.
         21    1    1    2  502  501 -0.55306326361E+02  0.52897116986E+02  0.95401800085E+02  0.12230453050E+03  0.00000000000E+00 0.  1.
<mgrwt>
<rscale>  1 0.14657127E+03</rscale>
<asrwt>0</asrwt>
<pdfrwt beam="2">  1        4 0.26330322E-02 0.14657127E+03</pdfrwt>
<pdfrwt beam="1">  1       -4 0.24229831E+00 0.14657127E+03</pdfrwt>
<totfact> 0.91641728E+01</totfact>
</mgrwt>
</event>
<event>
 6    4  0.5642870E-004  0.1268789E+03  0.7818608E-02  0.1232162E+00
         -4   -1    0    0    0  501 -0.00000000000E+00  0.00000000000E+00  0.19299330196E+03  0.19299748056E+03  0.12700000000E+01 0.  1.
          4   -1    0    0  502    0  0.00000000000E+00 -0.00000000000E+00 -0.28593228790E+02  0.28621419123E+02  0.12700000000E+01 0.  1.
         25    2    1    2    0    0  0.21721422623E+02  0.72027690967E+00  0.14108795244E+03  0.18974737677E+03  0.12500367062E+03 0.  0.
    9000005    1    3    3    0    0  0.86354471144E+00 -0.55964218086E+02  0.30533768157E+02  0.63765589571E+02  0.10000000000E+01 0.  0.
    9000005    1    3    3    0    0  0.20857877911E+02  0.56684494996E+02  0.11055418428E+03  0.12598178720E+03  0.10000000000E+01 0.  0.
         21    1    1    2  502  501 -0.21721422623E+02 -0.72027690967E+00  0.23312120732E+02  0.31871522910E+02  0.00000000000E+00 0. -1.
<mgrwt>
<rscale>  1 0.12687891E+03</rscale>
<asrwt>0</asrwt>
<pdfrwt beam="2">  1        4 0.44014484E-02 0.12687891E+03</pdfrwt>
<pdfrwt beam="1">  1       -4 0.29693766E-01 0.12687891E+03</pdfrwt>
<totfact> 0.51098855E+03</totfact>
</mgrwt>
</event>
<event>
 6    4  0.5642870E-004  0.1267668E+03  0.7818608E-02  0.1232334E+00
          4   -1    0    0  502    0  0.00000000000E+00  0.00000000000E+00  0.51978700463E+02  0.51994213157E+02  0.12700000000E+01 0.  1.
         -4   -1    0    0    0  501 -0.00000000000E+00 -0.00000000000E+00 -0.10780369841E+03  0.10781117887E+03  0.12700000000E+01 0.  1.
         25    2    1    2    0    0  0.21071898022E+02  0.14665731892E+01 -0.56231170825E+02  0.13867861519E+03  0.12499455195E+03 0.  0.
    9000005    1    3    3    0    0 -0.55245791265E+01 -0.87188018687E+01 -0.92204216976E+02  0.92785538252E+02  0.10000000000E+01 0.  0.
    9000005    1    3    3    0    0  0.26596477148E+02  0.10185375058E+02  0.35973046151E+02  0.45893076941E+02  0.10000000000E+01 0.  0.
         21    1    1    2  502  501 -0.21071898022E+02 -0.14665731892E+01  0.40617288052E+00  0.21126776838E+02  0.00000000000E+00 0.  1.
<mgrwt>
<rscale>  1 0.12676677E+03</rscale>
<asrwt>0</asrwt>
<pdfrwt beam="1">  1        4 0.79984919E-02 0.12676677E+03</pdfrwt>
<pdfrwt beam="2">  1       -4 0.16586953E-01 0.12676677E+03</pdfrwt>
<totfact> 0.55909478E+03</totfact>
</mgrwt>
</event>
<event>
 6    4  0.5642870E-004  0.1295842E+03  0.7818608E-02  0.1228074E+00
          4   -1    0    0  502    0  0.00000000000E+00  0.00000000000E+00  0.16601273237E+02  0.16649779972E+02  0.12700000000E+01 0. -1.
         -4   -1    0    0    0  501 -0.00000000000E+00 -0.00000000000E+00 -0.40744435033E+03  0.40744632962E+03  0.12700000000E+01 0. -1.
         25    2    1    2    0    0  0.50274496871E+01 -0.33782581462E+02 -0.32593968595E+03  0.35075452355E+03  0.12500207539E+03 0.  0.
    9000005    1    3    3    0    0 -0.69061637338E+01 -0.72815925012E+02 -0.27952370560E+03  0.28893659516E+03  0.10000000000E+01 0.  0.
    9000005    1    3    3    0    0  0.11933613421E+02  0.39033343550E+02 -0.46415980351E+02  0.61817928386E+02  0.10000000000E+01 0.  0.
         21    1    1    2  502  501 -0.50274496871E+01  0.33782581462E+02 -0.64903391148E+02  0.73341586041E+02  0.00000000000E+00 0.  1.
<mgrwt>
<rscale>  1 0.12958417E+03</rscale>
<asrwt>0</asrwt>
<pdfrwt beam="1">  1        4 0.25579259E-02 0.12958417E+03</pdfrwt>
<pdfrwt beam="2">  1       -4 0.62687622E-01 0.12958417E+03</pdfrwt>
<totfact> 0.27235807E+03</totfact>
</mgrwt>
</event>
<event>
 6    4  0.5642870E-004  0.1267474E+03  0.7818608E-02  0.1232363E+00
         -4   -1    0    0    0  501 -0.00000000000E+00  0.00000000000E+00  0.10606585257E+02  0.10682347626E+02  0.12700000000E+01 0. -1.
          4   -1    0    0  502    0  0.00000000000E+00 -0.00000000000E+00 -0.52042406638E+03  0.52042561598E+03  0.12700000000E+01 0. -1.
         25    2    1    2    0    0  0.17182027086E+02 -0.12063950942E+02 -0.45757154128E+03  0.47480166558E+03  0.12499658108E+03 0.  0.
    9000005    1    3    3    0    0 -0.45641763937E+02 -0.30601259382E+02 -0.28422096530E+03  0.28948603560E+03  0.10000000000E+01 0.  0.
    9000005    1    3    3    0    0  0.62823791024E+02  0.18537308440E+02 -0.17335057598E+03  0.18531562998E+03  0.10000000000E+01 0.  0.
         21    1    1    2  502  501 -0.17182027086E+02  0.12063950942E+02 -0.52245939841E+02  0.56306298023E+02  0.00000000000E+00 0.  1.
<mgrwt>
<rscale>  1 0.12674741E+03</rscale>
<asrwt>0</asrwt>
<pdfrwt beam="2">  1        4 0.80071168E-01 0.12674741E+03</pdfrwt>
<pdfrwt beam="1">  1       -4 0.16377298E-02 0.12674741E+03</pdfrwt>
<totfact> 0.31731898E+03</totfact>
</mgrwt>
</event>
<event>
 6    4  0.5642870E-004  0.1280148E+03  0.7818608E-02  0.1230431E+00
          4   -1    0    0  502    0  0.00000000000E+00  0.00000000000E+00  0.20558205157E+03  0.20558597429E+03  0.12700000000E+01 0.  1.
         -4   -1    0    0    0  501 -0.00000000000E+00 -0.00000000000E+00 -0.36774064078E+02  0.36795987401E+02  0.12700000000E+01 0.  1.
         25    2    1    2    0    0  0.32158871786E+01  0.27394684450E+02  0.83782688107E+02  0.15299453416E+03  0.12500791171E+03 0.  0.
    9000005    1    3    3    0    0  0.21879407567E+02  0.21991684284E+02 -0.26620606107E+02  0.40890088318E+02  0.10000000000E+01 0.  0.
    9000005    1    3    3    0    0 -0.18663520389E+02  0.54030001659E+01  0.11040329421E+03  0.11210444584E+03  0.10000000000E+01 0.  0.
         21    1    1    2  502  501 -0.32158871786E+01 -0.27394684450E+02  0.85025299380E+02  0.89387427534E+02  0.00000000000E+00 0.  1.
<mgrwt>
<rscale>  1 0.12801480E+03</rscale>
<asrwt>0</asrwt>
<pdfrwt beam="1">  1        4 0.31629995E-01 0.12801480E+03</pdfrwt>
<pdfrwt beam="2">  1       -4 0.56595367E-02 0.12801480E+03</pdfrwt>
<totfact> 0.30348838E+03</totfact>
</mgrwt>
</event>
<event>
 6    4  0.5642870E-004  0.1308287E+03  0.7818608E-02  0.1226231E+00
         -4   -1    0    0    0  501 -0.00000000000E+00  0.00000000000E+00  0.92550654573E+02  0.92559367769E+02  0.12700000000E+01 0. -1.
          4   -1    0    0  502    0  0.00000000000E+00 -0.00000000000E+00 -0.11608673236E+03  0.11609367911E+03  0.12700000000E+01 0. -1.
         25    2    1    2    0    0 -0.28819662834E+02  0.25694077648E+02  0.37796714669E+02  0.13617912038E+03  0.12500161037E+03 0.  0.
    9000005    1    3    3    0    0  0.26966439883E+02  0.59662063599E+02  0.20284349853E+02  0.68550751723E+02  0.10000000000E+01 0.  0.
    9000005    1    3    3    0    0 -0.55786102717E+02 -0.33967985951E+02  0.17512364815E+02  0.67628368658E+02  0.10000000000E+01 0.  0.
         21    1    1    2  502  501  0.28819662834E+02 -0.25694077648E+02 -0.61332792454E+02  0.72473926499E+02  0.00000000000E+00 0. -1.
<mgrwt>
<rscale>  1 0.13082875E+03</rscale>
<asrwt>0</asrwt>
<pdfrwt beam="2">  1        4 0.17860702E-01 0.13082875E+03</pdfrwt>
<pdfrwt beam="1">  1       -4 0.14239767E-01 0.13082875E+03</pdfrwt>
<totfact> 0.18617822E+03</totfact>
</mgrwt>
</event>
<event>
 6    4  0.5642870E-004  0.1270877E+03  0.7818608E-02  0.1231842E+00
          4   -1    0    0  502    0  0.00000000000E+00  0.00000000000E+00  0.10986660118E+03  0.10987394120E+03  0.12700000000E+01 0.  1.
         -4   -1    0    0    0  501 -0.00000000000E+00 -0.00000000000E+00 -0.54668104287E+02  0.54682854043E+02  0.12700000000E+01 0.  1.
         25    2    1    2    0    0 -0.21091409255E+02 -0.90511871570E+01  0.60873069751E+02  0.14091419998E+03  0.12499803840E+03 0.  0.
    9000005    1    3    3    0    0 -0.68261794983E+01 -0.59706695793E+02  0.64488679108E+02  0.88154840945E+02  0.10000000000E+01 0.  0.
    9000005    1    3    3    0    0 -0.14265229757E+02  0.50655508636E+02 -0.36156093570E+01  0.52759359039E+02  0.10000000000E+01 0.  0.
         21    1    1    2  502  501  0.21091409255E+02  0.90511871570E+01 -0.56745728602E+01  0.23642595256E+02  0.00000000000E+00 0. -1.
<mgrwt>
<rscale>  1 0.12708769E+03</rscale>
<asrwt>0</asrwt>
<pdfrwt beam="1">  1        4 0.16904253E-01 0.12708769E+03</pdfrwt>
<pdfrwt beam="2">  1       -4 0.84121769E-02 0.12708769E+03</pdfrwt>
<totfact> 0.49769811E+03</totfact>
</mgrwt>
</event>
<event>
 6    4  0.5642870E-004  0.1276600E+03  0.7818608E-02  0.1230970E+00
          4   -1    0    0  502    0  0.00000000000E+00  0.00000000000E+00  0.42351068884E+03  0.42351259304E+03  0.12700000000E+01 0. -1.
         -4   -1    0    0    0  501 -0.00000000000E+00 -0.00000000000E+00 -0.14169022092E+02  0.14225824653E+02  0.12700000000E+01 0. -1.
         25    2    1    2    0    0 -0.90565830184E+01  0.24304189323E+02  0.36051935891E+03  0.38245430553E+03  0.12499748940E+03 0.  0.
    9000005    1    3    3    0    0  0.13327377159E+02  0.71294217978E+02  0.24959413276E+03  0.25992059481E+03  0.10000000000E+01 0.  0.
    9000005    1    3    3    0    0 -0.22383960177E+02 -0.46990028655E+02  0.11092522615E+03  0.12253371072E+03  0.10000000000E+01 0.  0.
         21    1    1    2  502  501  0.90565830184E+01 -0.24304189323E+02  0.48822307836E+02  0.55284112158E+02  0.00000000000E+00 0.  1.
<mgrwt>
<rscale>  1 0.12766005E+03</rscale>
<asrwt>0</asrwt>
<pdfrwt beam="1">  1        4 0.65159996E-01 0.12766005E+03</pdfrwt>
<pdfrwt beam="2">  1       -4 0.21843658E-02 0.12766005E+03</pdfrwt>
<totfact> 0.31926658E+03</totfact>
</mgrwt>
</event>
<event>
 6    4  0.5642870E-004  0.1299215E+03  0.7818608E-02  0.1227572E+00
          4   -1    0    0  502    0  0.00000000000E+00  0.00000000000E+00  0.17222412950E+02  0.17269175077E+02  0.12700000000E+01 0.  1.
         -4   -1    0    0    0  501 -0.00000000000E+00 -0.00000000000E+00 -0.39644443003E+03  0.39644646424E+03  0.12700000000E+01 0.  1.
         25    2    1    2    0    0 -0.14117283015E+02  0.32509515519E+02 -0.29539179619E+03  0.32270095800E+03  0.12499371488E+03 0.  0.
    9000005    1    3    3    0    0 -0.52737670403E+01  0.77703568935E+02 -0.22909236178E+03  0.24197100543E+03  0.10000000000E+01 0.  0.
    9000005    1    3    3    0    0 -0.88435159747E+01 -0.45194053415E+02 -0.66299434415E+02  0.80729952575E+02  0.10000000000E+01 0.  0.
         21    1    1    2  502  501  0.14117283015E+02 -0.32509515519E+02 -0.83830220893E+02  0.91014681310E+02  0.00000000000E+00 0. -1.
<mgrwt>
<rscale>  1 0.12992150E+03</rscale>
<asrwt>0</asrwt>
<pdfrwt beam="1">  1        4 0.26533559E-02 0.12992150E+03</pdfrwt>
<pdfrwt beam="2">  1       -4 0.60995197E-01 0.12992150E+03</pdfrwt>
<totfact> 0.27273031E+03</totfact>
</mgrwt>
</event>
<event>
 6    4  0.5642870E-004  0.1282678E+03  0.7818608E-02  0.1230049E+00
          4   -1    0    0  502    0  0.00000000000E+00  0.00000000000E+00  0.31645842681E+03  0.31646097516E+03  0.12700000000E+01 0. -1.
         -4   -1    0    0    0  501 -0.00000000000E+00 -0.00000000000E+00 -0.20813820279E+02  0.20852530173E+02  0.12700000000E+01 0. -1.
         25    2    1    2    0    0 -0.60037772593E+01 -0.28137403841E+02  0.26937145513E+03  0.29835150691E+03  0.12499952801E+03 0.  0.
    9000005    1    3    3    0    0  0.20827929736E+01 -0.72775677054E+02  0.10460672661E+03  0.12745275379E+03  0.10000000000E+01 0.  0.
    9000005    1    3    3    0    0 -0.80865702329E+01  0.44638273213E+02  0.16476472853E+03  0.17089875313E+03  0.10000000000E+01 0.  0.
         21    1    1    2  502  501  0.60037772593E+01  0.28137403841E+02  0.26273151397E+02  0.38961998417E+02  0.00000000000E+00 0. -1.
<mgrwt>
<rscale>  1 0.12826785E+03</rscale>
<asrwt>0</asrwt>
<pdfrwt beam="1">  1        4 0.48689079E-01 0.12826785E+03</pdfrwt>
<pdfrwt beam="2">  1       -4 0.32053004E-02 0.12826785E+03</pdfrwt>
<totfact> 0.32220273E+03</totfact>
</mgrwt>
</event>
<event>
 6    4  0.5642870E-004  0.2108492E+03  0.7818608E-02  0.1140895E+00
         -4   -1    0    0    0  501 -0.00000000000E+00  0.00000000000E+00  0.98248064969E+03  0.98248147052E+03  0.12700000000E+01 0.  1.
          4   -1    0    0  502    0  0.00000000000E+00 -0.00000000000E+00 -0.39416673257E+02  0.39437127566E+02  0.12700000000E+01 0.  1.
         25    2    1    2    0    0  0.91927245998E+02 -0.14275917749E+03  0.64855100945E+03  0.68196464674E+03  0.12500626476E+03 0.  0.
    9000005    1    3    3    0    0  0.10146815448E+03 -0.14721463845E+03  0.64702825888E+03  0.67127826118E+03  0.10000000000E+01 0.  0.
    9000005    1    3    3    0    0 -0.95409084811E+01  0.44554609584E+01  0.15227505725E+01  0.10686385558E+02  0.10000000000E+01 0.  0.
         21    1    1    2  502  501 -0.91927245998E+02  0.14275917749E+03  0.29451296698E+03  0.33995395135E+03  0.00000000000E+00 0.  1.
<mgrwt>
<rscale>  1 0.21084916E+03</rscale>
<asrwt>0</asrwt>
<pdfrwt beam="2">  1        4 0.60657406E-02 0.21084916E+03</pdfrwt>
<pdfrwt beam="1">  1       -4 0.15115250E+00 0.21084916E+03</pdfrwt>
<totfact> 0.97231117E+01</totfact>
</mgrwt>
</event>
<event>
 6    4  0.5642870E-004  0.1287351E+03  0.7818608E-02  0.1229345E+00
          4   -1    0    0  502    0  0.00000000000E+00  0.00000000000E+00  0.29642740627E+03  0.29643012682E+03  0.12700000000E+01 0. -1.
         -4   -1    0    0    0  501 -0.00000000000E+00 -0.00000000000E+00 -0.30023338400E+02  0.30050187166E+02  0.12700000000E+01 0. -1.
         25    2    1    2    0    0  0.28658081675E+02 -0.11096215283E+02  0.11703450367E+03  0.17398218827E+03  0.12501325988E+03 0.  0.
    9000005    1    3    3    0    0 -0.49767764924E+02 -0.52204209102E+01  0.47419213876E+02  0.68946827807E+02  0.10000000000E+01 0.  0.
    9000005    1    3    3    0    0  0.78425846600E+02 -0.58757943728E+01  0.69615289798E+02  0.10503536046E+03  0.10000000000E+01 0.  0.
         21    1    1    2  502  501 -0.28658081675E+02  0.11096215283E+02  0.14936956420E+03  0.15249812572E+03  0.00000000000E+00 0. -1.
<mgrwt>
<rscale>  1 0.12873510E+03</rscale>
<asrwt>0</asrwt>
<pdfrwt beam="1">  1        4 0.45606492E-01 0.12873510E+03</pdfrwt>
<pdfrwt beam="2">  1       -4 0.46212496E-02 0.12873510E+03</pdfrwt>
<totfact> 0.20612566E+03</totfact>
</mgrwt>
</event>
<event>
 6    4  0.5642870E-004  0.1368240E+03  0.7818608E-02  0.1217668E+00
          4   -1    0    0  502    0  0.00000000000E+00  0.00000000000E+00  0.79691483808E+02  0.79701602817E+02  0.12700000000E+01 0.  1.
         -4   -1    0    0    0  501 -0.00000000000E+00 -0.00000000000E+00 -0.13098677238E+03  0.13099292896E+03  0.12700000000E+01 0.  1.
         25    2    1    2    0    0  0.49920162742E+02 -0.24552111591E+02 -0.67752605966E+02  0.15268011868E+03  0.12500389671E+03 0.  0.
    9000005    1    3    3    0    0  0.35720029400E+02  0.20684929397E+02  0.25169488520E+02  0.48355867864E+02  0.10000000000E+01 0.  0.
    9000005    1    3    3    0    0  0.14200133343E+02 -0.45237040988E+02 -0.92922094487E+02  0.10432425081E+03  0.10000000000E+01 0.  0.
         21    1    1    2  502  501 -0.49920162742E+02  0.24552111591E+02  0.16457317395E+02  0.58014413102E+02  0.00000000000E+00 0.  1.
<mgrwt>
<rscale>  1 0.13682399E+03</rscale>
<asrwt>0</asrwt>
<pdfrwt beam="1">  1        4 0.12261480E-01 0.13682399E+03</pdfrwt>
<pdfrwt beam="2">  1       -4 0.20153063E-01 0.13682399E+03</pdfrwt>
<totfact> 0.19612990E+03</totfact>
</mgrwt>
</event>
<event>
 6    4  0.5642870E-004  0.1981780E+03  0.7818608E-02  0.1151285E+00
         -4   -1    0    0    0  501 -0.00000000000E+00  0.00000000000E+00  0.40323961484E+03  0.40324161476E+03  0.12700000000E+01 0. -1.
          4   -1    0    0  502    0  0.00000000000E+00 -0.00000000000E+00 -0.84952083053E+02  0.84961575521E+02  0.12700000000E+01 0. -1.
         25    2    1    2    0    0  0.10613537361E+03  0.11128538858E+03  0.25238651437E+03  0.32089479438E+03  0.12500144471E+03 0.  0.
    9000005    1    3    3    0    0  0.29387619094E+02  0.10593419566E+03  0.93353587359E+02  0.14422752247E+03  0.10000000000E+01 0.  0.
    9000005    1    3    3    0    0  0.76747754518E+02  0.53511929237E+01  0.15903292701E+03  0.17666727190E+03  0.10000000000E+01 0.  0.
         21    1    1    2  502  501 -0.10613537361E+03 -0.11128538858E+03  0.65901017418E+02  0.16730839591E+03  0.00000000000E+00 0. -1.
<mgrwt>
<rscale>  1 0.19817799E+03</rscale>
<asrwt>0</asrwt>
<pdfrwt beam="2">  1        4 0.13070435E-01 0.19817799E+03</pdfrwt>
<pdfrwt beam="1">  1       -4 0.62037749E-01 0.19817799E+03</pdfrwt>
<totfact> 0.21044020E+02</totfact>
</mgrwt>
</event>
<event>
 6    4  0.5642870E-004  0.1492034E+03  0.7818608E-02  0.1201455E+00
          4   -1    0    0  502    0  0.00000000000E+00  0.00000000000E+00  0.50448134135E+03  0.50448293992E+03  0.12700000000E+01 0.  1.
         -4   -1    0    0    0  501 -0.00000000000E+00 -0.00000000000E+00 -0.27046398187E+02  0.27076199048E+02  0.12700000000E+01 0.  1.
         25    2    1    2    0    0 -0.80407806547E+02 -0.13132252757E+02  0.26629454137E+03  0.30524488691E+03  0.12499514712E+03 0.  0.
    9000005    1    3    3    0    0 -0.43202216332E+02  0.40987460023E+02  0.21144158964E+03  0.21967009174E+03  0.10000000000E+01 0.  0.
    9000005    1    3    3    0    0 -0.37205590216E+02 -0.54119712781E+02  0.54852951731E+02  0.85574795170E+02  0.10000000000E+01 0.  0.
         21    1    1    2  502  501  0.80407806547E+02  0.13132252757E+02  0.21114040179E+03  0.22631425206E+03  0.00000000000E+00 0. -1.
<mgrwt>
<rscale>  1 0.14920341E+03</rscale>
<asrwt>0</asrwt>
<pdfrwt beam="1">  1        4 0.77614930E-01 0.14920341E+03</pdfrwt>
<pdfrwt beam="2">  1       -4 0.41633997E-02 0.14920341E+03</pdfrwt>
<totfact> 0.82264153E+02</totfact>
</mgrwt>
</event>
<event>
 6    4  0.5642870E-004  0.1278393E+03  0.7818608E-02  0.1230698E+00
          4   -1    0    0  502    0  0.00000000000E+00  0.00000000000E+00  0.44397948913E+02  0.44416109327E+02  0.12700000000E+01 0. -1.
         -4   -1    0    0    0  501 -0.00000000000E+00 -0.00000000000E+00 -0.13752032388E+03  0.13752618798E+03  0.12700000000E+01 0. -1.
         25    2    1    2    0    0 -0.26768414149E+02  0.11542416075E+01 -0.86465056216E+02  0.15433432450E+03  0.12499999001E+03 0.  0.
    9000005    1    3    3    0    0 -0.63195289500E+02  0.27319383624E+01 -0.30989271926E+01  0.63338072689E+02  0.10000000000E+01 0.  0.
    9000005    1    3    3    0    0  0.36426875351E+02 -0.15776967549E+01 -0.83366129023E+02  0.90996251808E+02  0.10000000000E+01 0.  0.
         21    1    1    2  502  501  0.26768414149E+02 -0.11542416075E+01 -0.66573187538E+01  0.27607972811E+02  0.00000000000E+00 0.  1.
<mgrwt>
<rscale>  1 0.12783927E+03</rscale>
<asrwt>0</asrwt>
<pdfrwt beam="1">  1        4 0.68323018E-02 0.12783927E+03</pdfrwt>
<pdfrwt beam="2">  1       -4 0.21158821E-01 0.12783927E+03</pdfrwt>
<totfact> 0.47035334E+03</totfact>
</mgrwt>
</event>
<event>
 6    4  0.5642870E-004  0.1273130E+03  0.7818608E-02  0.1231498E+00
         -4   -1    0    0    0  501 -0.00000000000E+00  0.00000000000E+00  0.36099033369E+03  0.36099256768E+03  0.12700000000E+01 0.  1.
          4   -1    0    0  502    0  0.00000000000E+00 -0.00000000000E+00 -0.18538097759E+02  0.18581549142E+02  0.12700000000E+01 0.  1.
         25    2    1    2    0    0 -0.24122890879E+02  0.10016569670E+01  0.32699828856E+03  0.35090807994E+03  0.12500273063E+03 0.  0.
    9000005    1    3    3    0    0  0.42483342201E+02 -0.31575243401E+02  0.14643476591E+03  0.15571117824E+03  0.10000000000E+01 0.  0.
    9000005    1    3    3    0    0 -0.66606233080E+02  0.32576900368E+02  0.18056352265E+03  0.19519690170E+03  0.10000000000E+01 0.  0.
         21    1    1    2  502  501  0.24122890879E+02 -0.10016569670E+01  0.15453947368E+02  0.28666036878E+02  0.00000000000E+00 0. -1.
<mgrwt>
<rscale>  1 0.12731300E+03</rscale>
<asrwt>0</asrwt>
<pdfrwt beam="2">  1        4 0.28555294E-02 0.12731300E+03</pdfrwt>
<pdfrwt beam="1">  1       -4 0.55540486E-01 0.12731300E+03</pdfrwt>
<totfact> 0.29431713E+03</totfact>
</mgrwt>
</event>
<event>
 6    4  0.5642870E-004  0.1644748E+03  0.7818608E-02  0.1183735E+00
          4   -1    0    0  502    0  0.00000000000E+00  0.00000000000E+00  0.53303374409E+02  0.53318501698E+02  0.12700000000E+01 0. -1.
         -4   -1    0    0    0  501 -0.00000000000E+00 -0.00000000000E+00 -0.48158044105E+03  0.48158211563E+03  0.12700000000E+01 0. -1.
         25    2    1    2    0    0  0.10677899327E+03  0.51241977032E+01 -0.38665222053E+03  0.42018079072E+03  0.12499578569E+03 0.  0.
    9000005    1    3    3    0    0  0.69406970736E+02  0.51001557780E+02 -0.31839210817E+03  0.32983787082E+03  0.10000000000E+01 0.  0.
    9000005    1    3    3    0    0  0.37372022531E+02 -0.45877360076E+02 -0.68260112359E+02  0.90342919894E+02  0.10000000000E+01 0.  0.
         21    1    1    2  502  501 -0.10677899327E+03 -0.51241977032E+01 -0.41624846107E+02  0.11471982662E+03  0.00000000000E+00 0. -1.
<mgrwt>
<rscale>  1 0.16447479E+03</rscale>
<asrwt>0</asrwt>
<pdfrwt beam="1">  1        4 0.82018119E-02 0.16447479E+03</pdfrwt>
<pdfrwt beam="2">  1       -4 0.74090588E-01 0.16447479E+03</pdfrwt>
<totfact> 0.30747973E+02</totfact>
</mgrwt>
</event>
<event>
 6    4  0.5642870E-004  0.1522347E+03  0.7818608E-02  0.1197754E+00
         -4   -1    0    0    0  501 -0.00000000000E+00  0.00000000000E+00  0.36649696552E+02  0.36671694225E+02  0.12700000000E+01 0.  1.
          4   -1    0    0  502    0  0.00000000000E+00 -0.00000000000E+00 -0.62018881908E+03  0.62019011940E+03  0.12700000000E+01 0.  1.
         25    2    1    2    0    0  0.85985166753E+02 -0.12534783367E+02 -0.14652829785E+03  0.21129584704E+03  0.12499929285E+03 0.  0.
    9000005    1    3    3    0    0  0.87180589882E+02  0.37429354268E+02 -0.62804062685E+02  0.11378383937E+03  0.10000000000E+01 0.  0.
    9000005    1    3    3    0    0 -0.11954231289E+01 -0.49964137635E+02 -0.83724235164E+02  0.97512007670E+02  0.10000000000E+01 0.  0.
         21    1    1    2  502  501 -0.85985166753E+02  0.12534783367E+02 -0.43701082468E+03  0.44556596659E+03  0.00000000000E+00 0.  1.
<mgrwt>
<rscale>  1 0.15223466E+03</rscale>
<asrwt>0</asrwt>
<pdfrwt beam="2">  1        4 0.95415449E-01 0.15223466E+03</pdfrwt>
<pdfrwt beam="1">  1       -4 0.56402075E-02 0.15223466E+03</pdfrwt>
<totfact> 0.31864628E+02</totfact>
</mgrwt>
</event>
<event>
 6    4  0.5642870E-004  0.1525349E+03  0.7818608E-02  0.1197392E+00
          4   -1    0    0  502    0  0.00000000000E+00  0.00000000000E+00  0.39859445740E+03  0.39859648063E+03  0.12700000000E+01 0. -1.
         -4   -1    0    0    0  501 -0.00000000000E+00 -0.00000000000E+00 -0.38472824176E+02  0.38493780018E+02  0.12700000000E+01 0. -1.
         25    2    1    2    0    0  0.78278499792E+02  0.38875888952E+02  0.17350884706E+03  0.23102427551E+03  0.12501214979E+03 0.  0.
    9000005    1    3    3    0    0  0.73839072372E+02  0.15563803103E+02  0.18842536053E+03  0.20297674021E+03  0.10000000000E+01 0.  0.
    9000005    1    3    3    0    0  0.44394274196E+01  0.23312085849E+02 -0.14916513466E+02  0.28047535301E+02  0.10000000000E+01 0.  0.
         21    1    1    2  502  501 -0.78278499792E+02 -0.38875888952E+02  0.18661278617E+03  0.20606598514E+03  0.00000000000E+00 0. -1.
<mgrwt>
<rscale>  1 0.15253490E+03</rscale>
<asrwt>0</asrwt>
<pdfrwt beam="1">  1        4 0.61323991E-01 0.15253490E+03</pdfrwt>
<pdfrwt beam="2">  1       -4 0.59206637E-02 0.15253490E+03</pdfrwt>
<totfact> 0.77893782E+02</totfact>
</mgrwt>
</event>
<event>
 6    4  0.5642870E-004  0.1311949E+03  0.7818608E-02  0.1225693E+00
          4   -1    0    0  502    0  0.00000000000E+00  0.00000000000E+00  0.17215269946E+02  0.17262051422E+02  0.12700000000E+01 0.  1.
         -4   -1    0    0    0  501 -0.00000000000E+00 -0.00000000000E+00 -0.91772427723E+03  0.91772515598E+03  0.12700000000E+01 0.  1.
         25    2    1    2    0    0 -0.37903732532E+02  0.12291382192E+02 -0.88082826473E+03  0.89054508050E+03  0.12499734973E+03 0.  0.
    9000005    1    3    3    0    0 -0.62532783481E+02  0.10255493523E+02 -0.84281062608E+03  0.84519008252E+03  0.10000000000E+01 0.  0.
    9000005    1    3    3    0    0  0.24629050949E+02  0.20358886691E+01 -0.38017638654E+02  0.45354997984E+02  0.10000000000E+01 0.  0.
         21    1    1    2  502  501  0.37903732532E+02 -0.12291382192E+02 -0.19680742555E+02  0.44442126902E+02  0.00000000000E+00 0.  1.
<mgrwt>
<rscale>  1 0.13119493E+03</rscale>
<asrwt>0</asrwt>
<pdfrwt beam="1">  1        4 0.26521700E-02 0.13119493E+03</pdfrwt>
<pdfrwt beam="2">  1       -4 0.14119198E+00 0.13119493E+03</pdfrwt>
<totfact> 0.40278299E+02</totfact>
</mgrwt>
</event>
<event>
 6    4  0.5642870E-004  0.1322312E+03  0.7818608E-02  0.1224182E+00
          4   -1    0    0  502    0  0.00000000000E+00  0.00000000000E+00  0.17034580283E+02  0.17081856615E+02  0.12700000000E+01 0. -1.
         -4   -1    0    0    0  501 -0.00000000000E+00 -0.00000000000E+00 -0.45361089958E+03  0.45361267742E+03  0.12700000000E+01 0. -1.
         25    2    1    2    0    0 -0.26401966467E+02 -0.34106983472E+02 -0.34487744332E+03  0.36935829170E+03  0.12499898633E+03 0.  0.
    9000005    1    3    3    0    0 -0.42916046547E+02 -0.66468979011E+02 -0.30630379614E+03  0.31635885913E+03  0.10000000000E+01 0.  0.
    9000005    1    3    3    0    0  0.16514080080E+02  0.32361995539E+02 -0.38573647182E+02  0.52999432573E+02  0.10000000000E+01 0.  0.
         21    1    1    2  502  501  0.26401966467E+02  0.34106983472E+02 -0.91698875976E+02  0.10133624233E+03  0.00000000000E+00 0. -1.
<mgrwt>
<rscale>  1 0.13223122E+03</rscale>
<asrwt>0</asrwt>
<pdfrwt beam="1">  1        4 0.26244784E-02 0.13223122E+03</pdfrwt>
<pdfrwt beam="2">  1       -4 0.69790057E-01 0.13223122E+03</pdfrwt>
<totfact> 0.20910756E+03</totfact>
</mgrwt>
</event>
<event>
 6    4  0.5642870E-004  0.1397320E+03  0.7818608E-02  0.1213690E+00
          4   -1    0    0  502    0  0.00000000000E+00  0.00000000000E+00  0.58080428367E+03  0.58080567217E+03  0.12700000000E+01 0.  1.
         -4   -1    0    0    0  501 -0.00000000000E+00 -0.00000000000E+00 -0.18957108424E+02  0.18999601570E+02  0.12700000000E+01 0.  1.
         25    2    1    2    0    0  0.59613464867E+02  0.18627699097E+02  0.30517843441E+03  0.33564698996E+03  0.12499707467E+03 0.  0.
    9000005    1    3    3    0    0 -0.38154946189E+02 -0.63769836470E+01  0.90781662755E+02  0.98685237658E+02  0.10000000000E+01 0.  0.
    9000005    1    3    3    0    0  0.97768411056E+02  0.25004682744E+02  0.21439677165E+03  0.23696175230E+03  0.10000000000E+01 0.  0.
         21    1    1    2  502  501 -0.59613464867E+02 -0.18627699097E+02  0.25666874084E+03  0.26415828378E+03  0.00000000000E+00 0.  1.
<mgrwt>
<rscale>  1 0.13973198E+03</rscale>
<asrwt>0</asrwt>
<pdfrwt beam="1">  1        4 0.89357883E-01 0.13973198E+03</pdfrwt>
<pdfrwt beam="2">  1       -4 0.29198537E-02 0.13973198E+03</pdfrwt>
<totfact> 0.10385480E+03</totfact>
</mgrwt>
</event>
<event>
 6    4  0.5642870E-004  0.1268305E+03  0.7818608E-02  0.1232236E+00
         -4   -1    0    0    0  501 -0.00000000000E+00  0.00000000000E+00  0.13532764717E+02  0.13592226487E+02  0.12700000000E+01 0. -1.
          4   -1    0    0  502    0  0.00000000000E+00 -0.00000000000E+00 -0.12838790961E+04  0.12838797242E+04  0.12700000000E+01 0. -1.
         25    2    1    2    0    0 -0.13336342304E+01  0.21430545158E+02 -0.28564406901E+03  0.31253561148E+03  0.12499970974E+03 0.  0.
    9000005    1    3    3    0    0  0.58588999914E+02 -0.70735442732E+01 -0.11118018980E+03  0.12587589341E+03  0.10000000000E+01 0.  0.
    9000005    1    3    3    0    0 -0.59922634144E+02  0.28504089431E+02 -0.17446387922E+03  0.18665971807E+03  0.10000000000E+01 0.  0.
         21    1    1    2  502  501  0.13336342304E+01 -0.21430545158E+02 -0.98470226233E+03  0.98493633921E+03  0.00000000000E+00 0. -1.
<mgrwt>
<rscale>  1 0.12683049E+03</rscale>
<asrwt>0</asrwt>
<pdfrwt beam="2">  1        4 0.19752439E+00 0.12683049E+03</pdfrwt>
<pdfrwt beam="1">  1       -4 0.20865871E-02 0.12683049E+03</pdfrwt>
<totfact> 0.23857923E+02</totfact>
</mgrwt>
</event>
<event>
 6    4  0.5642870E-004  0.1293399E+03  0.7818608E-02  0.1228438E+00
         -4   -1    0    0    0  501 -0.00000000000E+00  0.00000000000E+00  0.40533317745E+02  0.40553208842E+02  0.12700000000E+01 0.  1.
          4   -1    0    0  502    0  0.00000000000E+00 -0.00000000000E+00 -0.17599999817E+03  0.17600458021E+03  0.12700000000E+01 0.  1.
         25    2    1    2    0    0 -0.29502205626E+02 -0.15317575330E+02 -0.80573585203E+02  0.15238411724E+03  0.12499523313E+03 0.  0.
    9000005    1    3    3    0    0 -0.69338938790E+02  0.17904211573E+02 -0.23788971701E+02  0.75467638092E+02  0.10000000000E+01 0.  0.
    9000005    1    3    3    0    0  0.39836733164E+02 -0.33221786904E+02 -0.56784613503E+02  0.76916479151E+02  0.10000000000E+01 0.  0.
         21    1    1    2  502  501  0.29502205626E+02  0.15317575330E+02 -0.54893095220E+02  0.64173671810E+02  0.00000000000E+00 0.  1.
<mgrwt>
<rscale>  1 0.12933993E+03</rscale>
<asrwt>0</asrwt>
<pdfrwt beam="2">  1        4 0.27078805E-01 0.12933993E+03</pdfrwt>
<pdfrwt beam="1">  1       -4 0.62377777E-02 0.12933993E+03</pdfrwt>
<totfact> 0.34805449E+03</totfact>
</mgrwt>
</event>
<event>
 6    4  0.5642870E-004  0.1324598E+03  0.7818608E-02  0.1223851E+00
         -4   -1    0    0    0  501 -0.00000000000E+00  0.00000000000E+00  0.15344267956E+03  0.15344793518E+03  0.12700000000E+01 0. -1.
          4   -1    0    0  502    0  0.00000000000E+00 -0.00000000000E+00 -0.77306832643E+02  0.77317263747E+02  0.12700000000E+01 0. -1.
         25    2    1    2    0    0  0.17069410953E+02  0.40369344924E+02  0.11252139674E+03  0.17380067456E+03  0.12499824381E+03 0.  0.
    9000005    1    3    3    0    0 -0.20718767628E+02 -0.11999001685E+02 -0.16788067671E+02  0.29258889070E+02  0.10000000000E+01 0.  0.
    9000005    1    3    3    0    0  0.37788178581E+02  0.52368346609E+02  0.12930946441E+03  0.14454178549E+03  0.10000000000E+01 0.  0.
         21    1    1    2  502  501 -0.17069410953E+02 -0.40369344924E+02 -0.36385549824E+02  0.56964524363E+02  0.00000000000E+00 0. -1.
<mgrwt>
<rscale>  1 0.13245984E+03</rscale>
<asrwt>0</asrwt>
<pdfrwt beam="2">  1        4 0.11894566E-01 0.13245984E+03</pdfrwt>
<pdfrwt beam="1">  1       -4 0.23607773E-01 0.13245984E+03</pdfrwt>
<totfact> 0.15390027E+03</totfact>
</mgrwt>
</event>
<event>
 6    4  0.5642870E-004  0.1281036E+03  0.7818608E-02  0.1230297E+00
          4   -1    0    0  502    0  0.00000000000E+00  0.00000000000E+00  0.83507297293E+01  0.84467500858E+01  0.12700000000E+01 0.  1.
         -4   -1    0    0    0  501 -0.00000000000E+00 -0.00000000000E+00 -0.81686619047E+03  0.81686717772E+03  0.12700000000E+01 0.  1.
         25    2    1    2    0    0 -0.89887754742E+01 -0.26563128258E+02 -0.74428089907E+03  0.75522486460E+03  0.12499656606E+03 0.  0.
    9000005    1    3    3    0    0  0.68046668106E+01 -0.57914161867E+02 -0.67534913314E+03  0.67786267434E+03  0.10000000000E+01 0.  0.
    9000005    1    3    3    0    0 -0.15793442285E+02  0.31351033609E+02 -0.68931765932E+02  0.77362190261E+02  0.10000000000E+01 0.  0.
         21    1    1    2  502  501  0.89887754742E+01  0.26563128258E+02 -0.64234561675E+02  0.70089063205E+02  0.00000000000E+00 0.  1.
<mgrwt>
<rscale>  1 0.12810363E+03</rscale>
<asrwt>0</asrwt>
<pdfrwt beam="1">  1        4 0.12921904E-02 0.12810363E+03</pdfrwt>
<pdfrwt beam="2">  1       -4 0.12567912E+00 0.12810363E+03</pdfrwt>
<totfact> 0.16095637E+03</totfact>
</mgrwt>
</event>
<event>
 6    4  0.5642870E-004  0.1287839E+03  0.7818608E-02  0.1229271E+00
          4   -1    0    0  502    0  0.00000000000E+00  0.00000000000E+00  0.37979058611E+02  0.38000286749E+02  0.12700000000E+01 0.  1.
         -4   -1    0    0    0  501 -0.00000000000E+00 -0.00000000000E+00 -0.22932895522E+03  0.22933247176E+03  0.12700000000E+01 0.  1.
         25    2    1    2    0    0  0.28243125404E+02 -0.12790231998E+02 -0.19744745442E+03  0.23573458802E+03  0.12499613820E+03 0.  0.
    9000005    1    3    3    0    0  0.67843783855E+02 -0.40909879796E+02 -0.13610137208E+03  0.15748327135E+03  0.10000000000E+01 0.  0.
    9000005    1    3    3    0    0 -0.39600658452E+02  0.28119647798E+02 -0.61346082334E+02  0.78251316666E+02  0.10000000000E+01 0.  0.
         21    1    1    2  502  501 -0.28243125404E+02  0.12790231998E+02  0.60975578070E+01  0.31598170490E+02  0.00000000000E+00 0. -1.
<mgrwt>
<rscale>  1 0.12878392E+03</rscale>
<asrwt>0</asrwt>
<pdfrwt beam="1">  1        4 0.58448356E-02 0.12878392E+03</pdfrwt>
<pdfrwt beam="2">  1       -4 0.35283280E-01 0.12878392E+03</pdfrwt>
<totfact> 0.23398575E+03</totfact>
</mgrwt>
</event>
<event>
 6    4  0.5642870E-004  0.1298045E+03  0.7818608E-02  0.1227746E+00
          4   -1    0    0  502    0  0.00000000000E+00  0.00000000000E+00  0.24717717066E+03  0.24718043328E+03  0.12700000000E+01 0. -1.
         -4   -1    0    0    0  501 -0.00000000000E+00 -0.00000000000E+00 -0.28038798778E+02  0.28067545972E+02  0.12700000000E+01 0. -1.
         25    2    1    2    0    0 -0.25093156121E+02  0.24420899387E+02  0.15499566263E+03  0.20217039062E+03  0.12499265817E+03 0.  0.
    9000005    1    3    3    0    0 -0.58207278533E+02  0.18106024810E+02  0.21761367329E+02  0.64733859121E+02  0.10000000000E+01 0.  0.
    9000005    1    3    3    0    0  0.33114122411E+02  0.63148745766E+01  0.13323429531E+03  0.13743653150E+03  0.10000000000E+01 0.  0.
         21    1    1    2  502  501  0.25093156121E+02 -0.24420899387E+02  0.64142709250E+02  0.73077588637E+02  0.00000000000E+00 0. -1.
<mgrwt>
<rscale>  1 0.12980451E+03</rscale>
<asrwt>0</asrwt>
<pdfrwt beam="1">  1        4 0.38029719E-01 0.12980451E+03</pdfrwt>
<pdfrwt beam="2">  1       -4 0.43161237E-02 0.12980451E+03</pdfrwt>
<totfact> 0.32991094E+03</totfact>
</mgrwt>
</event>
<event>
 6    4  0.5642870E-004  0.1269912E+03  0.7818608E-02  0.1231990E+00
         -4   -1    0    0    0  501 -0.00000000000E+00  0.00000000000E+00  0.51756740038E+03  0.51756895853E+03  0.12700000000E+01 0.  1.
          4   -1    0    0  502    0  0.00000000000E+00 -0.00000000000E+00 -0.21612293876E+02  0.21649576130E+02  0.12700000000E+01 0.  1.
         25    2    1    2    0    0  0.15932262620E+02 -0.15707041160E+02  0.50052503453E+03  0.51638364082E+03  0.12500482463E+03 0.  0.
    9000005    1    3    3    0    0  0.64462180977E+02 -0.23770131600E+02  0.19125376266E+03  0.20322252253E+03  0.10000000000E+01 0.  0.
    9000005    1    3    3    0    0 -0.48529918357E+02  0.80630904399E+01  0.30927127187E+03  0.31316111829E+03  0.10000000000E+01 0.  0.
         21    1    1    2  502  501 -0.15932262620E+02  0.15707041160E+02 -0.45699280346E+01  0.22834893834E+02  0.00000000000E+00 0.  1.
<mgrwt>
<rscale>  1 0.12699116E+03</rscale>
<asrwt>0</asrwt>
<pdfrwt beam="2">  1        4 0.33279560E-02 0.12699116E+03</pdfrwt>
<pdfrwt beam="1">  1       -4 0.79628743E-01 0.12699116E+03</pdfrwt>
<totfact> 0.10721153E+03</totfact>
</mgrwt>
</event>
<event>
 6    4  0.5642870E-004  0.1291954E+03  0.7818608E-02  0.1228654E+00
         -4   -1    0    0    0  501 -0.00000000000E+00  0.00000000000E+00  0.15858493438E+03  0.15859001958E+03  0.12700000000E+01 0. -1.
          4   -1    0    0  502    0  0.00000000000E+00 -0.00000000000E+00 -0.41416724975E+02  0.41436192003E+02  0.12700000000E+01 0. -1.
         25    2    1    2    0    0 -0.17777401513E+01 -0.32620496942E+02  0.97900305736E+02  0.16209852655E+03  0.12499682102E+03 0.  0.
    9000005    1    3    3    0    0 -0.22676142898E+02  0.38366219954E+02  0.73932521961E+01  0.45186662504E+02  0.10000000000E+01 0.  0.
    9000005    1    3    3    0    0  0.20898402746E+02 -0.70986716896E+02  0.90507053540E+02  0.11691186404E+03  0.10000000000E+01 0.  0.
         21    1    1    2  502  501  0.17777401513E+01  0.32620496942E+02  0.19267903663E+02  0.37927685039E+02  0.00000000000E+00 0. -1.
<mgrwt>
<rscale>  1 0.12919544E+03</rscale>
<asrwt>0</asrwt>
<pdfrwt beam="2">  1        4 0.63736925E-02 0.12919544E+03</pdfrwt>
<pdfrwt beam="1">  1       -4 0.24399571E-01 0.12919544E+03</pdfrwt>
<totfact> 0.40739271E+03</totfact>
</mgrwt>
</event>
<event>
 6    4  0.5642870E-004  0.1290483E+03  0.7818608E-02  0.1228875E+00
         -4   -1    0    0    0  501 -0.00000000000E+00  0.00000000000E+00  0.13068083764E+04  0.13068089935E+04  0.12700000000E+01 0.  1.
          4   -1    0    0  502    0  0.00000000000E+00 -0.00000000000E+00 -0.80584760404E+01  0.81579369998E+01  0.12700000000E+01 0.  1.
         25    2    1    2    0    0 -0.31443280007E+02  0.64156421023E+01  0.12497410929E+04  0.12563861868E+04  0.12499444334E+03 0.  0.
    9000005    1    3    3    0    0  0.23297922644E+02  0.37284978712E+02  0.89781862654E+03  0.89889501556E+03  0.10000000000E+01 0.  0.
    9000005    1    3    3    0    0 -0.54741202652E+02 -0.30869336610E+02  0.35192246632E+03  0.35749117124E+03  0.10000000000E+01 0.  0.
         21    1    1    2  502  501  0.31443280007E+02 -0.64156421023E+01  0.49008807455E+02  0.58580743674E+02  0.00000000000E+00 0.  1.
<mgrwt>
<rscale>  1 0.12904825E+03</rscale>
<asrwt>0</asrwt>
<pdfrwt beam="2">  1        4 0.12474631E-02 0.12904825E+03</pdfrwt>
<pdfrwt beam="1">  1       -4 0.20105526E+00 0.12904825E+03</pdfrwt>
<totfact> 0.49906647E+02</totfact>
</mgrwt>
</event>
<event>
 6    4  0.5642870E-004  0.1270418E+03  0.7818608E-02  0.1231912E+00
         -4   -1    0    0    0  501 -0.00000000000E+00  0.00000000000E+00  0.24634954523E+02  0.24667668807E+02  0.12700000000E+01 0. -1.
          4   -1    0    0  502    0  0.00000000000E+00 -0.00000000000E+00 -0.44847186408E+03  0.44847366229E+03  0.12700000000E+01 0. -1.
         25    2    1    2    0    0  0.46400912079E+01  0.22209115893E+02 -0.14256776731E+03  0.19095857887E+03  0.12499934117E+03 0.  0.
    9000005    1    3    3    0    0  0.40048427054E+02  0.60516254522E+02 -0.10034609015E+03  0.12384034633E+03  0.10000000000E+01 0.  0.
    9000005    1    3    3    0    0 -0.35408335846E+02 -0.38307138629E+02 -0.42221677162E+02  0.67118232543E+02  0.10000000000E+01 0.  0.
         21    1    1    2  502  501 -0.46400912079E+01 -0.22209115893E+02 -0.28126914224E+03  0.28218275223E+03  0.00000000000E+00 0. -1.
<mgrwt>
<rscale>  1 0.12704177E+03</rscale>
<asrwt>0</asrwt>
<pdfrwt beam="2">  1        4 0.68998320E-01 0.12704177E+03</pdfrwt>
<pdfrwt beam="1">  1       -4 0.37926481E-02 0.12704177E+03</pdfrwt>
<totfact> 0.11919385E+03</totfact>
</mgrwt>
</event>
<event>
 6    4  0.5642870E-004  0.1270995E+03  0.7818608E-02  0.1231824E+00
          4   -1    0    0  502    0  0.00000000000E+00  0.00000000000E+00  0.24087490018E+03  0.24087824816E+03  0.12700000000E+01 0.  1.
         -4   -1    0    0    0  501 -0.00000000000E+00 -0.00000000000E+00 -0.25405942650E+02  0.25437665418E+02  0.12700000000E+01 0.  1.
         25    2    1    2    0    0  0.50138257341E+01  0.22339518912E+02  0.20485374427E+03  0.24107952504E+03  0.12502035154E+03 0.  0.
    9000005    1    3    3    0    0  0.29738514374E+02  0.20587734983E+02  0.14959262169E+01  0.36214249463E+02  0.10000000000E+01 0.  0.
    9000005    1    3    3    0    0 -0.24724688640E+02  0.17517839293E+01  0.20335781805E+03  0.20486527558E+03  0.10000000000E+01 0.  0.
         21    1    1    2  502  501 -0.50138257341E+01 -0.22339518912E+02  0.10615213260E+02  0.25236388535E+02  0.00000000000E+00 0.  1.
<mgrwt>
<rscale>  1 0.12709949E+03</rscale>
<asrwt>0</asrwt>
<pdfrwt beam="1">  1        4 0.37060376E-01 0.12709949E+03</pdfrwt>
<pdfrwt beam="2">  1       -4 0.39113042E-02 0.12709949E+03</pdfrwt>
<totfact> 0.40358731E+03</totfact>
</mgrwt>
</event>
<event>
 6    4  0.5642870E-004  0.1275252E+03  0.7818608E-02  0.1231175E+00
          4   -1    0    0  502    0  0.00000000000E+00  0.00000000000E+00  0.18745108282E+02  0.18788080916E+02  0.12700000000E+01 0. -1.
         -4   -1    0    0    0  501 -0.00000000000E+00 -0.00000000000E+00 -0.31497214099E+03  0.31497470137E+03  0.12700000000E+01 0. -1.
         25    2    1    2    0    0 -0.82599313518E+01  0.23857160670E+02 -0.23176179153E+03  0.26453014618E+03  0.12500111857E+03 0.  0.
    9000005    1    3    3    0    0 -0.63460625858E+02 -0.75953024837E+01 -0.12039989337E+03  0.13631608114E+03  0.10000000000E+01 0.  0.
    9000005    1    3    3    0    0  0.55200694506E+02  0.31452463153E+02 -0.11136189815E+03  0.12821406504E+03  0.10000000000E+01 0.  0.
         21    1    1    2  502  501  0.82599313518E+01 -0.23857160670E+02 -0.64465241187E+02  0.69232636108E+02  0.00000000000E+00 0. -1.
<mgrwt>
<rscale>  1 0.12752517E+03</rscale>
<asrwt>0</asrwt>
<pdfrwt beam="1">  1        4 0.28873656E-02 0.12752517E+03</pdfrwt>
<pdfrwt beam="2">  1       -4 0.48460751E-01 0.12752517E+03</pdfrwt>
<totfact> 0.38253816E+03</totfact>
</mgrwt>
</event>
<event>
 6    4  0.5642870E-004  0.1346926E+03  0.7818608E-02  0.1220654E+00
         -4   -1    0    0    0  501 -0.00000000000E+00  0.00000000000E+00  0.13822700844E+03  0.13823284256E+03  0.12700000000E+01 0. -1.
          4   -1    0    0  502    0  0.00000000000E+00 -0.00000000000E+00 -0.68253234514E+02  0.68265049049E+02  0.12700000000E+01 0. -1.
         25    2    1    2    0    0 -0.49970263925E+02 -0.44727280106E+01  0.78064426700E+02  0.15567967406E+03  0.12500029451E+03 0.  0.
    9000005    1    3    3    0    0 -0.76399851982E+02 -0.40749803735E+02  0.34780860036E+02  0.93317694529E+02  0.10000000000E+01 0.  0.
    9000005    1    3    3    0    0  0.26429588057E+02  0.36277075724E+02  0.43283566664E+02  0.62361979532E+02  0.10000000000E+01 0.  0.
         21    1    1    2  502  501  0.49970263925E+02  0.44727280106E+01 -0.80906527729E+01  0.50818217549E+02  0.00000000000E+00 0. -1.
<mgrwt>
<rscale>  1 0.13469264E+03</rscale>
<asrwt>0</asrwt>
<pdfrwt beam="2">  1        4 0.10501855E-01 0.13469264E+03</pdfrwt>
<pdfrwt beam="1">  1       -4 0.21267051E-01 0.13469264E+03</pdfrwt>
<totfact> 0.23087036E+03</totfact>
</mgrwt>
</event>
<event>
 6    4  0.5642870E-004  0.1298448E+03  0.7818608E-02  0.1227686E+00
          4   -1    0    0  502    0  0.00000000000E+00  0.00000000000E+00  0.47939282854E+02  0.47956102224E+02  0.12700000000E+01 0.  1.
         -4   -1    0    0    0  501 -0.00000000000E+00 -0.00000000000E+00 -0.20111520156E+03  0.20111921141E+03  0.12700000000E+01 0.  1.
         25    2    1    2    0    0 -0.24787159649E+02  0.24890732351E+02 -0.16681495144E+03  0.21139275727E+03  0.12500287182E+03 0.  0.
    9000005    1    3    3    0    0 -0.74260815559E+01 -0.35584296969E+02 -0.36896096393E+01  0.36551362456E+02  0.10000000000E+01 0.  0.
    9000005    1    3    3    0    0 -0.17361078093E+02  0.60475029320E+02 -0.16312534180E+03  0.17484139482E+03  0.10000000000E+01 0.  0.
         21    1    1    2  502  501  0.24787159649E+02 -0.24890732351E+02  0.13639032731E+02  0.37682556366E+02  0.00000000000E+00 0.  1.
<mgrwt>
<rscale>  1 0.12984479E+03</rscale>
<asrwt>0</asrwt>
<pdfrwt beam="1">  1        4 0.73768766E-02 0.12984479E+03</pdfrwt>
<pdfrwt beam="2">  1       -4 0.30942402E-01 0.12984479E+03</pdfrwt>
<totfact> 0.20605093E+03</totfact>
</mgrwt>
</event>
<event>
 6    4  0.5642870E-004  0.2264350E+03  0.7818608E-02  0.1129174E+00
          4   -1    0    0  502    0  0.00000000000E+00  0.00000000000E+00  0.13712535357E+04  0.13712541238E+04  0.12700000000E+01 0.  1.
         -4   -1    0    0    0  501 -0.00000000000E+00 -0.00000000000E+00 -0.52438046779E+02  0.52453423625E+02  0.12700000000E+01 0.  1.
         25    2    1    2    0    0 -0.94313335293E+01  0.18857719051E+03  0.24577875075E+03  0.33418556588E+03  0.12498996476E+03 0.  0.
    9000005    1    3    3    0    0  0.29927768655E+01  0.61196913491E+02  0.49729925222E+01  0.61479668093E+02  0.10000000000E+01 0.  0.
    9000005    1    3    3    0    0 -0.12424110395E+02  0.12738027702E+03  0.24080575823E+03  0.27270589778E+03  0.10000000000E+01 0.  0.
         21    1    1    2  502  501  0.94313335293E+01 -0.18857719051E+03  0.10730367382E+04  0.10895219816E+04  0.00000000000E+00 0.  1.
<mgrwt>
<rscale>  1 0.22643498E+03</rscale>
<asrwt>0</asrwt>
<pdfrwt beam="1">  1        4 0.21096327E+00 0.22643498E+03</pdfrwt>
<pdfrwt beam="2">  1       -4 0.80686213E-02 0.22643498E+03</pdfrwt>
<totfact> 0.24241895E+01</totfact>
</mgrwt>
</event>
<event>
 6    4  0.5642870E-004  0.1323382E+03  0.7818608E-02  0.1224027E+00
          4   -1    0    0  502    0  0.00000000000E+00  0.00000000000E+00  0.23387852399E+03  0.23388197212E+03  0.12700000000E+01 0.  1.
         -4   -1    0    0    0  501 -0.00000000000E+00 -0.00000000000E+00 -0.42712774490E+02  0.42731651087E+02  0.12700000000E+01 0.  1.
         25    2    1    2    0    0 -0.27007135895E+02 -0.34061898356E+02  0.73952291104E+02  0.15159925148E+03  0.12499517343E+03 0.  0.
    9000005    1    3    3    0    0 -0.12823179683E+02 -0.75567274418E+02  0.14991943927E+02  0.78106371589E+02  0.10000000000E+01 0.  0.
    9000005    1    3    3    0    0 -0.14183956212E+02  0.41505376062E+02  0.58960347177E+02  0.73492879894E+02  0.10000000000E+01 0.  0.
         21    1    1    2  502  501  0.27007135895E+02  0.34061898356E+02  0.11721345840E+03  0.12501437173E+03  0.00000000000E+00 0.  1.
<mgrwt>
<rscale>  1 0.13233817E+03</rscale>
<asrwt>0</asrwt>
<pdfrwt beam="1">  1        4 0.35983029E-01 0.13233817E+03</pdfrwt>
<pdfrwt beam="2">  1       -4 0.65729133E-02 0.13233817E+03</pdfrwt>
<totfact> 0.18727795E+03</totfact>
</mgrwt>
</event>
<event>
 6    4  0.5642870E-004  0.1284732E+03  0.7818608E-02  0.1229739E+00
          4   -1    0    0  502    0  0.00000000000E+00  0.00000000000E+00  0.24544154093E+02  0.24576989241E+02  0.12700000000E+01 0.  1.
         -4   -1    0    0    0  501 -0.00000000000E+00 -0.00000000000E+00 -0.25606859459E+03  0.25607174392E+03  0.12700000000E+01 0.  1.
         25    2    1    2    0    0 -0.80392910773E+01  0.28569403906E+02 -0.19607199299E+03  0.23441328059E+03  0.12499807454E+03 0.  0.
    9000005    1    3    3    0    0  0.16211458884E+02 -0.29987588046E+02 -0.15540205361E+03  0.15910017317E+03  0.10000000000E+01 0.  0.
    9000005    1    3    3    0    0 -0.24250749961E+02  0.58556991952E+02 -0.40669939384E+02  0.75313107422E+02  0.10000000000E+01 0.  0.
         21    1    1    2  502  501  0.80392910773E+01 -0.28569403906E+02 -0.35452447503E+02  0.46235452572E+02  0.00000000000E+00 0.  1.
<mgrwt>
<rscale>  1 0.12847319E+03</rscale>
<asrwt>0</asrwt>
<pdfrwt beam="1">  1        4 0.37787919E-02 0.12847319E+03</pdfrwt>
<pdfrwt beam="2">  1       -4 0.39397935E-01 0.12847319E+03</pdfrwt>
<totfact> 0.37925850E+03</totfact>
</mgrwt>
</event>
<event>
 6    4  0.5642870E-004  0.1309320E+03  0.7818608E-02  0.1226079E+00
          4   -1    0    0  502    0  0.00000000000E+00  0.00000000000E+00  0.10532420985E+04  0.10532428641E+04  0.12700000000E+01 0.  1.
         -4   -1    0    0    0  501 -0.00000000000E+00 -0.00000000000E+00 -0.13483106169E+02  0.13542785975E+02  0.12700000000E+01 0.  1.
         25    2    1    2    0    0 -0.36385083951E+02 -0.13994444610E+02  0.31699189958E+03  0.34296800104E+03  0.12499386594E+03 0.  0.
    9000005    1    3    3    0    0  0.38728233853E+02 -0.33001369319E+02  0.15992562957E+03  0.16782780898E+03  0.10000000000E+01 0.  0.
    9000005    1    3    3    0    0 -0.75113317804E+02  0.19006924709E+02  0.15706627001E+03  0.17514019206E+03  0.10000000000E+01 0.  0.
         21    1    1    2  502  501  0.36385083951E+02  0.13994444610E+02  0.72276709271E+03  0.72381764908E+03  0.00000000000E+00 0.  1.
<mgrwt>
<rscale>  1 0.13093199E+03</rscale>
<asrwt>0</asrwt>
<pdfrwt beam="1">  1        4 0.16204184E+00 0.13093199E+03</pdfrwt>
<pdfrwt beam="2">  1       -4 0.20789744E-02 0.13093199E+03</pdfrwt>
<totfact> 0.41301629E+02</totfact>
</mgrwt>
</event>
<event>
 6    4  0.5642870E-004  0.1654791E+03  0.7818608E-02  0.1182646E+00
         -4   -1    0    0    0  501 -0.00000000000E+00  0.00000000000E+00  0.72929116236E+02  0.72940173395E+02  0.12700000000E+01 0.  1.
          4   -1    0    0  502    0  0.00000000000E+00 -0.00000000000E+00 -0.28863784863E+03  0.28864064260E+03  0.12700000000E+01 0.  1.
         25    2    1    2    0    0 -0.40986665685E+02 -0.10038753603E+03 -0.69330999047E+02  0.17941604176E+03  0.12500305780E+03 0.  0.
    9000005    1    3    3    0    0 -0.77558929075E+02 -0.48992456283E+02 -0.71465862768E+02  0.11629281058E+03  0.10000000000E+01 0.  0.
    9000005    1    3    3    0    0  0.36572263390E+02 -0.51395079743E+02  0.21348637216E+01  0.63123231178E+02  0.10000000000E+01 0.  0.
         21    1    1    2  502  501  0.40986665685E+02  0.10038753603E+03 -0.14637773335E+03  0.18216477424E+03  0.00000000000E+00 0.  1.
<mgrwt>
<rscale>  1 0.16547909E+03</rscale>
<asrwt>0</asrwt>
<pdfrwt beam="2">  1        4 0.44406888E-01 0.16547909E+03</pdfrwt>
<pdfrwt beam="1">  1       -4 0.11220930E-01 0.16547909E+03</pdfrwt>
<totfact> 0.53004263E+02</totfact>
</mgrwt>
</event>
<event>
 6    4  0.5642870E-004  0.1334993E+03  0.7818608E-02  0.1222354E+00
          4   -1    0    0  502    0  0.00000000000E+00  0.00000000000E+00  0.15361956417E+02  0.15414363592E+02  0.12700000000E+01 0.  1.
         -4   -1    0    0    0  501 -0.00000000000E+00 -0.00000000000E+00 -0.70774237674E+03  0.70774351621E+03  0.12700000000E+01 0.  1.
         25    2    1    2    0    0 -0.39497676683E+02  0.25241930304E+02 -0.63588925335E+03  0.64975165762E+03  0.12499941017E+03 0.  0.
    9000005    1    3    3    0    0  0.43131705458E+02 -0.69935897333E+01 -0.17261112512E+03  0.17805857134E+03  0.10000000000E+01 0.  0.
    9000005    1    3    3    0    0 -0.82629382141E+02  0.32235520037E+02 -0.46327812823E+03  0.47169308628E+03  0.10000000000E+01 0.  0.
         21    1    1    2  502  501  0.39497676683E+02 -0.25241930304E+02 -0.56491166972E+02  0.73406222180E+02  0.00000000000E+00 0.  1.
<mgrwt>
<rscale>  1 0.13349934E+03</rscale>
<asrwt>0</asrwt>
<pdfrwt beam="1">  1        4 0.23674974E-02 0.13349934E+03</pdfrwt>
<pdfrwt beam="2">  1       -4 0.10888754E+00 0.13349934E+03</pdfrwt>
<totfact> 0.90427339E+02</totfact>
</mgrwt>
</event>
<event>
 6    4  0.5642870E-004  0.1274597E+03  0.7818608E-02  0.1231275E+00
         -4   -1    0    0    0  501 -0.00000000000E+00  0.00000000000E+00  0.44316805668E+02  0.44334999319E+02  0.12700000000E+01 0.  1.
          4   -1    0    0  502    0  0.00000000000E+00 -0.00000000000E+00 -0.44766429688E+03  0.44766609833E+03  0.12700000000E+01 0.  1.
         25    2    1    2    0    0  0.99488726323E+01  0.22845755380E+02 -0.48648923981E+02  0.13642834532E+03  0.12500026799E+03 0.  0.
    9000005    1    3    3    0    0 -0.30005948915E+01  0.27516868392E+02 -0.89300553610E+02  0.93497435745E+02  0.10000000000E+01 0.  0.
    9000005    1    3    3    0    0  0.12949467524E+02 -0.46711130123E+01  0.40651629629E+02  0.42930909580E+02  0.10000000000E+01 0.  0.
         21    1    1    2  502  501 -0.99488726323E+01 -0.22845755380E+02 -0.35469856723E+03  0.35557275233E+03  0.00000000000E+00 0.  1.
<mgrwt>
<rscale>  1 0.12745970E+03</rscale>
<asrwt>0</asrwt>
<pdfrwt beam="2">  1        4 0.68872965E-01 0.12745970E+03</pdfrwt>
<pdfrwt beam="1">  1       -4 0.68195085E-02 0.12745970E+03</pdfrwt>
<totfact> 0.46620838E+02</totfact>
</mgrwt>
</event>
<event>
 6    4  0.5642870E-004  0.1280932E+03  0.7818608E-02  0.1230313E+00
          4   -1    0    0  502    0  0.00000000000E+00  0.00000000000E+00  0.33175008750E+01  0.35522826542E+01  0.12700000000E+01 0.  1.
         -4   -1    0    0    0  501 -0.00000000000E+00 -0.00000000000E+00 -0.18657030795E+04  0.18657035117E+04  0.12700000000E+01 0.  1.
         25    2    1    2    0    0  0.23574847016E+02 -0.15118467597E+02 -0.16610528767E+04  0.16659845511E+04  0.12499409572E+03 0.  0.
    9000005    1    3    3    0    0  0.82265730002E+01 -0.41615152459E+02 -0.19288917699E+03  0.19750122029E+03  0.10000000000E+01 0.  0.
    9000005    1    3    3    0    0  0.15348274016E+02  0.26496684862E+02 -0.14681636997E+04  0.14684833308E+04  0.10000000000E+01 0.  0.
         21    1    1    2  502  501 -0.23574847016E+02  0.15118467597E+02 -0.20133270194E+03  0.20327124328E+03  0.00000000000E+00 0. -1.
<mgrwt>
<rscale>  1 0.12809319E+03</rscale>
<asrwt>0</asrwt>
<pdfrwt beam="1">  1        4 0.52847963E-03 0.12809319E+03</pdfrwt>
<pdfrwt beam="2">  1       -4 0.28704853E+00 0.12809319E+03</pdfrwt>
<totfact> 0.56658067E+02</totfact>
</mgrwt>
</event>
<event>
 6    4  0.5642870E-004  0.1287562E+03  0.7818608E-02  0.1229313E+00
          4   -1    0    0  502    0  0.00000000000E+00  0.00000000000E+00  0.13868244798E+03  0.13868826294E+03  0.12700000000E+01 0.  1.
         -4   -1    0    0    0  501 -0.00000000000E+00 -0.00000000000E+00 -0.76296628166E+02  0.76307197364E+02  0.12700000000E+01 0.  1.
         25    2    1    2    0    0  0.19713061752E+02 -0.23759699588E+02 -0.16947493009E+02  0.12986671867E+03  0.12500007589E+03 0.  0.
    9000005    1    3    3    0    0  0.50115130364E+02 -0.44642604915E+02 -0.47279476895E+02  0.82102602884E+02  0.10000000000E+01 0.  0.
    9000005    1    3    3    0    0 -0.30402068612E+02  0.20882905327E+02  0.30331983886E+02  0.47764115790E+02  0.10000000000E+01 0.  0.
         21    1    1    2  502  501 -0.19713061752E+02  0.23759699588E+02  0.79333312822E+02  0.85128741630E+02  0.00000000000E+00 0.  1.
<mgrwt>
<rscale>  1 0.12875615E+03</rscale>
<asrwt>0</asrwt>
<pdfrwt beam="1">  1        4 0.21337022E-01 0.12875615E+03</pdfrwt>
<pdfrwt beam="2">  1       -4 0.11739203E-01 0.12875615E+03</pdfrwt>
<totfact> 0.18800115E+03</totfact>
</mgrwt>
</event>
<event>
 6    4  0.5642870E-004  0.1272778E+03  0.7818608E-02  0.1231552E+00
         -4   -1    0    0    0  501 -0.00000000000E+00  0.00000000000E+00  0.71615239527E+02  0.71626499513E+02  0.12700000000E+01 0. -1.
          4   -1    0    0  502    0  0.00000000000E+00 -0.00000000000E+00 -0.88810155738E+02  0.88819235879E+02  0.12700000000E+01 0. -1.
         25    2    1    2    0    0 -0.23984558889E+02 -0.69506239143E-01  0.55398912616E+01  0.12739826398E+03  0.12499745347E+03 0.  0.
    9000005    1    3    3    0    0 -0.11982296322E+02 -0.26285456786E+02  0.59533893103E+02  0.66179944784E+02  0.10000000000E+01 0.  0.
    9000005    1    3    3    0    0 -0.12002262567E+02  0.26215950547E+02 -0.53994001842E+02  0.61218319192E+02  0.10000000000E+01 0.  0.
         21    1    1    2  502  501  0.23984558889E+02  0.69506239143E-01 -0.22734807472E+02  0.33047471416E+02  0.00000000000E+00 0. -1.
<mgrwt>
<rscale>  1 0.12727776E+03</rscale>
<asrwt>0</asrwt>
<pdfrwt beam="2">  1        4 0.13664665E-01 0.12727776E+03</pdfrwt>
<pdfrwt beam="1">  1       -4 0.11019294E-01 0.12727776E+03</pdfrwt>
<totfact> 0.45892927E+03</totfact>
</mgrwt>
</event>
<event>
 6    4  0.5642870E-004  0.1267138E+03  0.7818608E-02  0.1232415E+00
          4   -1    0    0  502    0  0.00000000000E+00  0.00000000000E+00  0.19413476477E+03  0.19413891880E+03  0.12700000000E+01 0.  1.
         -4   -1    0    0    0  501 -0.00000000000E+00 -0.00000000000E+00 -0.29055057076E+02  0.29082799757E+02  0.12700000000E+01 0.  1.
         25    2    1    2    0    0 -0.20134318633E+02  0.50706542365E+01  0.12451710511E+03  0.17765388945E+03  0.12500117060E+03 0.  0.
    9000005    1    3    3    0    0 -0.85517778686E+00 -0.59376379122E+02  0.60788180136E+02  0.84985225604E+02  0.10000000000E+01 0.  0.
    9000005    1    3    3    0    0 -0.19279140846E+02  0.64447033359E+02  0.63728924975E+02  0.92668663846E+02  0.10000000000E+01 0.  0.
         21    1    1    2  502  501  0.20134318633E+02 -0.50706542365E+01  0.40562602582E+02  0.45567829105E+02  0.00000000000E+00 0.  1.
<mgrwt>
<rscale>  1 0.12671383E+03</rscale>
<asrwt>0</asrwt>
<pdfrwt beam="1">  1        4 0.29869340E-01 0.12671383E+03</pdfrwt>
<pdfrwt beam="2">  1       -4 0.44724624E-02 0.12671383E+03</pdfrwt>
<totfact> 0.49244182E+03</totfact>
</mgrwt>
</event>
<event>
 6    4  0.5642870E-004  0.1286207E+03  0.7818608E-02  0.1229517E+00
          4   -1    0    0  502    0  0.00000000000E+00  0.00000000000E+00  0.30273551674E+03  0.30273818060E+03  0.12700000000E+01 0. -1.
         -4   -1    0    0    0  501 -0.00000000000E+00 -0.00000000000E+00 -0.20944423913E+02  0.20982892866E+02  0.12700000000E+01 0. -1.
         25    2    1    2    0    0 -0.77646582870E+01 -0.29306823879E+02  0.23663203921E+03  0.26932879491E+03  0.12499639170E+03 0.  0.
    9000005    1    3    3    0    0  0.31026157365E+02 -0.20939740793E+02  0.93337837311E+01  0.38590344700E+02  0.10000000000E+01 0.  0.
    9000005    1    3    3    0    0 -0.38790815652E+02 -0.83670830855E+01  0.22729825548E+03  0.23073845021E+03  0.10000000000E+01 0.  0.
         21    1    1    2  502  501  0.77646582870E+01  0.29306823879E+02  0.45159053613E+02  0.54392278564E+02  0.00000000000E+00 0. -1.
<mgrwt>
<rscale>  1 0.12862067E+03</rscale>
<asrwt>0</asrwt>
<pdfrwt beam="1">  1        4 0.46577852E-01 0.12862067E+03</pdfrwt>
<pdfrwt beam="2">  1       -4 0.32253836E-02 0.12862067E+03</pdfrwt>
<totfact> 0.34916310E+03</totfact>
</mgrwt>
</event>
<event>
 6    4  0.5642870E-004  0.1285838E+03  0.7818608E-02  0.1229572E+00
          4   -1    0    0  502    0  0.00000000000E+00  0.00000000000E+00  0.57659026695E+03  0.57659166561E+03  0.12700000000E+01 0.  1.
         -4   -1    0    0    0  501 -0.00000000000E+00 -0.00000000000E+00 -0.11752775726E+02  0.11821194409E+02  0.12700000000E+01 0.  1.
         25    2    1    2    0    0 -0.12081171134E+01 -0.30140866976E+02  0.50852694892E+03  0.52453165320E+03  0.12499546401E+03 0.  0.
    9000005    1    3    3    0    0  0.22551109253E+02  0.24367691557E+02  0.39479387636E+03  0.39618877032E+03  0.10000000000E+01 0.  0.
    9000005    1    3    3    0    0 -0.23759226367E+02 -0.54508558533E+02  0.11373307256E+03  0.12834288288E+03  0.10000000000E+01 0.  0.
         21    1    1    2  502  501  0.12081171134E+01  0.30140866976E+02  0.56310542309E+02  0.63881206815E+02  0.00000000000E+00 0.  1.
<mgrwt>
<rscale>  1 0.12858381E+03</rscale>
<asrwt>0</asrwt>
<pdfrwt beam="1">  1        4 0.88711554E-01 0.12858381E+03</pdfrwt>
<pdfrwt beam="2">  1       -4 0.18134901E-02 0.12858381E+03</pdfrwt>
<totfact> 0.21679227E+03</totfact>
</mgrwt>
</event>
<event>
 6    4  0.5642870E-004  0.1386556E+03  0.7818608E-02  0.1215150E+00
         -4   -1    0    0    0  501 -0.00000000000E+00  0.00000000000E+00  0.28430995717E+02  0.28459346750E+02  0.12700000000E+01 0.  1.
          4   -1    0    0  502    0  0.00000000000E+00 -0.00000000000E+00 -0.36167116168E+03  0.36167339146E+03  0.12700000000E+01 0.  1.
         25    2    1    2    0    0 -0.36807480451E+02 -0.47405710949E+02 -0.19350390111E+03  0.23805277318E+03  0.12499308392E+03 0.  0.
    9000005    1    3    3    0    0 -0.81302659345E+01  0.20041957378E+02  0.84246055954E+01  0.23232633496E+02  0.10000000000E+01 0.  0.
    9000005    1    3    3    0    0 -0.28677214516E+02 -0.67447668327E+02 -0.20192850670E+03  0.21482013969E+03  0.10000000000E+01 0.  0.
         21    1    1    2  502  501  0.36807480451E+02  0.47405710949E+02 -0.13973626485E+03  0.15207996503E+03  0.00000000000E+00 0.  1.
<mgrwt>
<rscale>  1 0.13865556E+03</rscale>
<asrwt>0</asrwt>
<pdfrwt beam="2">  1        4 0.55644066E-01 0.13865556E+03</pdfrwt>
<pdfrwt beam="1">  1       -4 0.43763520E-02 0.13865556E+03</pdfrwt>
<totfact> 0.15237830E+03</totfact>
</mgrwt>
</event>
<event>
 6    4  0.5642870E-004  0.1314380E+03  0.7818608E-02  0.1225338E+00
          4   -1    0    0  502    0  0.00000000000E+00  0.00000000000E+00  0.55185698783E+03  0.55185844916E+03  0.12700000000E+01 0. -1.
         -4   -1    0    0    0  501 -0.00000000000E+00 -0.00000000000E+00 -0.15161048803E+02  0.15214148047E+02  0.12700000000E+01 0. -1.
         25    2    1    2    0    0 -0.12138428124E+02  0.38840606802E+02  0.30937520206E+03  0.33613829567E+03  0.12498001437E+03 0.  0.
    9000005    1    3    3    0    0  0.52469799520E-01  0.20099865520E+02  0.31284497398E+03  0.31349160291E+03  0.10000000000E+01 0.  0.
    9000005    1    3    3    0    0 -0.12190897924E+02  0.18740741282E+02 -0.34697719221E+01  0.22646692765E+02  0.10000000000E+01 0.  0.
         21    1    1    2  502  501  0.12138428124E+02 -0.38840606802E+02  0.22732073696E+03  0.23093430154E+03  0.00000000000E+00 0. -1.
<mgrwt>
<rscale>  1 0.13143796E+03</rscale>
<asrwt>0</asrwt>
<pdfrwt beam="1">  1        4 0.84905260E-01 0.13143796E+03</pdfrwt>
<pdfrwt beam="2">  1       -4 0.23366663E-02 0.13143796E+03</pdfrwt>
<totfact> 0.16266693E+03</totfact>
</mgrwt>
</event>
<event>
 6    4  0.5642870E-004  0.1280931E+03  0.7818608E-02  0.1230313E+00
         -4   -1    0    0    0  501 -0.00000000000E+00  0.00000000000E+00  0.32656631719E+02  0.32681317220E+02  0.12700000000E+01 0. -1.
          4   -1    0    0  502    0  0.00000000000E+00 -0.00000000000E+00 -0.21516227510E+03  0.21516602316E+03  0.12700000000E+01 0. -1.
         25    2    1    2    0    0  0.27942385794E+02 -0.15623779805E+01 -0.17830747364E+03  0.21954817824E+03  0.12499851785E+03 0.  0.
    9000005    1    3    3    0    0 -0.34437358054E+02 -0.22261087784E+02 -0.15286263018E+02  0.43773936265E+02  0.10000000000E+01 0.  0.
    9000005    1    3    3    0    0  0.62379743848E+02  0.20698709803E+02 -0.16302121062E+03  0.17577424198E+03  0.10000000000E+01 0.  0.
         21    1    1    2  502  501 -0.27942385794E+02  0.15623779805E+01 -0.41981697369E+01  0.28299162142E+02  0.00000000000E+00 0. -1.
<mgrwt>
<rscale>  1 0.12809312E+03</rscale>
<asrwt>0</asrwt>
<pdfrwt beam="2">  1        4 0.33104075E-01 0.12809312E+03</pdfrwt>
<pdfrwt beam="1">  1       -4 0.50262845E-02 0.12809312E+03</pdfrwt>
<totfact> 0.33693155E+03</totfact>
</mgrwt>
</event>
<event>
 6    4  0.5642870E-004  0.1280280E+03  0.7818608E-02  0.1230412E+00
         -4   -1    0    0    0  501 -0.00000000000E+00  0.00000000000E+00  0.15424852573E+03  0.15425375389E+03  0.12700000000E+01 0.  1.
          4   -1    0    0  502    0  0.00000000000E+00 -0.00000000000E+00 -0.53860314954E+02  0.53875285864E+02  0.12700000000E+01 0.  1.
         25    2    1    2    0    0 -0.26894829956E+02  0.65762167807E+01  0.11898058827E+03  0.17477855241E+03  0.12499833395E+03 0.  0.
    9000005    1    3    3    0    0 -0.41314857782E+02 -0.11653925664E+02 -0.96925341538E+01  0.44019049005E+02  0.10000000000E+01 0.  0.
    9000005    1    3    3    0    0  0.14420027826E+02  0.18230142445E+02  0.12867312242E+03  0.13075950340E+03  0.10000000000E+01 0.  0.
         21    1    1    2  502  501  0.26894829956E+02 -0.65762167807E+01 -0.18592377493E+02  0.33350487348E+02  0.00000000000E+00 0.  1.
<mgrwt>
<rscale>  1 0.12802797E+03</rscale>
<asrwt>0</asrwt>
<pdfrwt beam="2">  1        4 0.82877561E-02 0.12802797E+03</pdfrwt>
<pdfrwt beam="1">  1       -4 0.23732096E-01 0.12802797E+03</pdfrwt>
<totfact> 0.27776283E+03</totfact>
</mgrwt>
</event>
<event>
 6    4  0.5642870E-004  0.1359994E+03  0.7818608E-02  0.1218816E+00
          4   -1    0    0  502    0  0.00000000000E+00  0.00000000000E+00  0.13246933980E+02  0.13307672970E+02  0.12700000000E+01 0.  1.
         -4   -1    0    0    0  501 -0.00000000000E+00 -0.00000000000E+00 -0.69079261625E+03  0.69079378368E+03  0.12700000000E+01 0.  1.
         25    2    1    2    0    0 -0.53391900955E+02 -0.43241316347E+01 -0.43745715877E+03  0.45810980574E+03  0.12500574046E+03 0.  0.
    9000005    1    3    3    0    0 -0.53328750977E+01  0.56892844283E+02 -0.15811728875E+03  0.16812885621E+03  0.10000000000E+01 0.  0.
    9000005    1    3    3    0    0 -0.48059025858E+02 -0.61216975917E+02 -0.27933987002E+03  0.28998094953E+03  0.10000000000E+01 0.  0.
         21    1    1    2  502  501  0.53391900955E+02  0.43241316347E+01 -0.24008852350E+03  0.24599165091E+03  0.00000000000E+00 0.  1.
<mgrwt>
<rscale>  1 0.13599937E+03</rscale>
<asrwt>0</asrwt>
<pdfrwt beam="1">  1        4 0.20427524E-02 0.13599937E+03</pdfrwt>
<pdfrwt beam="2">  1       -4 0.10628052E+00 0.13599937E+03</pdfrwt>
<totfact> 0.12070168E+03</totfact>
</mgrwt>
</event>
<event>
 6    4  0.5642870E-004  0.1286034E+03  0.7818608E-02  0.1229543E+00
         -4   -1    0    0    0  501 -0.00000000000E+00  0.00000000000E+00  0.71365403027E+01  0.72486624623E+01  0.12700000000E+01 0. -1.
          4   -1    0    0  502    0  0.00000000000E+00 -0.00000000000E+00 -0.10623101537E+04  0.10623109129E+04  0.12700000000E+01 0. -1.
         25    2    1    2    0    0  0.12198080690E+02  0.27594443762E+02 -0.61231382212E+03  0.62567328218E+03  0.12501437027E+03 0.  0.
    9000005    1    3    3    0    0  0.13745662561E+01  0.44089795307E+02 -0.60157026846E+03  0.60318619627E+03  0.10000000000E+01 0.  0.
    9000005    1    3    3    0    0  0.10823514434E+02 -0.16495351545E+02 -0.10743553664E+02  0.22487085908E+02  0.10000000000E+01 0.  0.
         21    1    1    2  502  501 -0.12198080690E+02 -0.27594443762E+02 -0.44285979132E+03  0.44388629317E+03  0.00000000000E+00 0.  1.
<mgrwt>
<rscale>  1 0.12860342E+03</rscale>
<asrwt>0</asrwt>
<pdfrwt beam="2">  1        4 0.16344089E+00 0.12860342E+03</pdfrwt>
<pdfrwt beam="1">  1       -4 0.11066133E-02 0.12860342E+03</pdfrwt>
<totfact> 0.10521985E+03</totfact>
</mgrwt>
</event>
<event>
 6    4  0.5642870E-004  0.1293377E+03  0.7818608E-02  0.1228442E+00
         -4   -1    0    0    0  501 -0.00000000000E+00  0.00000000000E+00  0.67596416958E+01  0.68779107188E+01  0.12700000000E+01 0.  1.
          4   -1    0    0  502    0  0.00000000000E+00 -0.00000000000E+00 -0.14341630254E+04  0.14341635877E+04  0.12700000000E+01 0.  1.
         25    2    1    2    0    0 -0.14159787551E+02  0.30074399909E+02 -0.64007320363E+03  0.65300991177E+03  0.12499307884E+03 0.  0.
    9000005    1    3    3    0    0  0.11107683981E+02 -0.38922172263E+01 -0.57652098150E+03  0.57664197914E+03  0.10000000000E+01 0.  0.
    9000005    1    3    3    0    0 -0.25267471532E+02  0.33966617135E+02 -0.63552222130E+02  0.76367932634E+02  0.10000000000E+01 0.  0.
         21    1    1    2  502  501  0.14159787551E+02 -0.30074399909E+02 -0.78733018004E+03  0.78803158662E+03  0.00000000000E+00 0.  1.
<mgrwt>
<rscale>  1 0.12933769E+03</rscale>
<asrwt>0</asrwt>
<pdfrwt beam="2">  1        4 0.22064937E+00 0.12933769E+03</pdfrwt>
<pdfrwt beam="1">  1       -4 0.10490869E-02 0.12933769E+03</pdfrwt>
<totfact> 0.49350792E+02</totfact>
</mgrwt>
</event>
<event>
 6    4  0.5642870E-004  0.1306452E+03  0.7818608E-02  0.1226501E+00
         -4   -1    0    0    0  501 -0.00000000000E+00  0.00000000000E+00  0.15910443639E+03  0.15910950499E+03  0.12700000000E+01 0.  1.
          4   -1    0    0  502    0  0.00000000000E+00 -0.00000000000E+00 -0.47715714418E+02  0.47732612567E+02  0.12700000000E+01 0.  1.
         25    2    1    2    0    0 -0.28849070377E+02  0.24718750858E+02  0.10646893262E+03  0.16853428765E+03  0.12499954797E+03 0.  0.
    9000005    1    3    3    0    0  0.24157549550E+02  0.12660212961E+02  0.11068574621E+03  0.11400088862E+03  0.10000000000E+01 0.  0.
    9000005    1    3    3    0    0 -0.53006619926E+02  0.12058537898E+02 -0.42168135872E+01  0.54533399023E+02  0.10000000000E+01 0.  0.
         21    1    1    2  502  501  0.28849070377E+02 -0.24718750858E+02  0.49197893499E+01  0.38307829915E+02  0.00000000000E+00 0.  1.
<mgrwt>
<rscale>  1 0.13064522E+03</rscale>
<asrwt>0</asrwt>
<pdfrwt beam="2">  1        4 0.73425690E-02 0.13064522E+03</pdfrwt>
<pdfrwt beam="1">  1       -4 0.24479295E-01 0.13064522E+03</pdfrwt>
<totfact> 0.32206978E+03</totfact>
</mgrwt>
</event>
<event>
 6    4  0.5642870E-004  0.1286892E+03  0.7818608E-02  0.1229414E+00
         -4   -1    0    0    0  501 -0.00000000000E+00  0.00000000000E+00  0.42760453545E+03  0.42760642142E+03  0.12700000000E+01 0. -1.
          4   -1    0    0  502    0  0.00000000000E+00 -0.00000000000E+00 -0.17216309334E+02  0.17263087994E+02  0.12700000000E+01 0. -1.
         25    2    1    2    0    0 -0.30584532487E+02 -0.11922036639E+01  0.38210946400E+03  0.40319789601E+03  0.12499626349E+03 0.  0.
    9000005    1    3    3    0    0 -0.67005050383E+02 -0.22528511207E+01  0.11122446918E+03  0.12987160837E+03  0.10000000000E+01 0.  0.
    9000005    1    3    3    0    0  0.36420517895E+02  0.10606474568E+01  0.27088499482E+03  0.27332628764E+03  0.10000000000E+01 0.  0.
         21    1    1    2  502  501  0.30584532487E+02  0.11922036639E+01  0.28278762117E+02  0.41671613407E+02  0.00000000000E+00 0.  1.
<mgrwt>
<rscale>  1 0.12868916E+03</rscale>
<asrwt>0</asrwt>
<pdfrwt beam="2">  1        4 0.26524066E-02 0.12868916E+03</pdfrwt>
<pdfrwt beam="1">  1       -4 0.65789052E-01 0.12868916E+03</pdfrwt>
<totfact> 0.23196306E+03</totfact>
</mgrwt>
</event>
<event>
 6    4  0.5642870E-004  0.1279989E+03  0.7818608E-02  0.1230456E+00
         -4   -1    0    0    0  501 -0.00000000000E+00  0.00000000000E+00  0.17049558695E+03  0.17050031692E+03  0.12700000000E+01 0. -1.
          4   -1    0    0  502    0  0.00000000000E+00 -0.00000000000E+00 -0.42666590409E+02  0.42685487430E+02  0.12700000000E+01 0. -1.
         25    2    1    2    0    0 -0.19196520676E+02 -0.19772828638E+02  0.13360948865E+03  0.18502758623E+03  0.12499696416E+03 0.  0.
    9000005    1    3    3    0    0  0.46360649254E+02  0.24080618099E+01  0.17047867190E+02  0.49464515934E+02  0.10000000000E+01 0.  0.
    9000005    1    3    3    0    0 -0.65557169929E+02 -0.22180890447E+02  0.11656162146E+03  0.13556307030E+03  0.10000000000E+01 0.  0.
         21    1    1    2  502  501  0.19196520676E+02  0.19772828638E+02 -0.57804921128E+01  0.28158218116E+02  0.00000000000E+00 0.  1.
<mgrwt>
<rscale>  1 0.12799888E+03</rscale>
<asrwt>0</asrwt>
<pdfrwt beam="2">  1        4 0.65659083E-02 0.12799888E+03</pdfrwt>
<pdfrwt beam="1">  1       -4 0.26231908E-01 0.12799888E+03</pdfrwt>
<totfact> 0.33876284E+03</totfact>
</mgrwt>
</event>
<event>
 6    4  0.5642870E-004  0.1304258E+03  0.7818608E-02  0.1226825E+00
          4   -1    0    0  502    0  0.00000000000E+00  0.00000000000E+00  0.12741594239E+02  0.12804730522E+02  0.12700000000E+01 0. -1.
         -4   -1    0    0    0  501 -0.00000000000E+00 -0.00000000000E+00 -0.64931792266E+03  0.64931916466E+03  0.12700000000E+01 0. -1.
         25    2    1    2    0    0 -0.13536926836E+02  0.34664528390E+02 -0.57943803842E+03  0.59393546433E+03  0.12500406997E+03 0.  0.
    9000005    1    3    3    0    0  0.41478333409E+02  0.13588108728E+02 -0.44519049369E+03  0.44732612769E+03  0.10000000000E+01 0.  0.
    9000005    1    3    3    0    0 -0.55015260245E+02  0.21076419662E+02 -0.13424754473E+03  0.14660933665E+03  0.10000000000E+01 0.  0.
         21    1    1    2  502  501  0.13536926836E+02 -0.34664528390E+02 -0.57138290007E+02  0.68188430848E+02  0.00000000000E+00 0. -1.
<mgrwt>
<rscale>  1 0.13042582E+03</rscale>
<asrwt>0</asrwt>
<pdfrwt beam="1">  1        4 0.19651979E-02 0.13042582E+03</pdfrwt>
<pdfrwt beam="2">  1       -4 0.99899992E-01 0.13042582E+03</pdfrwt>
<totfact> 0.14667782E+03</totfact>
</mgrwt>
</event>
<event>
 6    4  0.5642870E-004  0.1353750E+03  0.7818608E-02  0.1219691E+00
         -4   -1    0    0    0  501 -0.00000000000E+00  0.00000000000E+00  0.85490129829E+02  0.85499562561E+02  0.12700000000E+01 0.  1.
          4   -1    0    0  502    0  0.00000000000E+00 -0.00000000000E+00 -0.16428938983E+03  0.16429429848E+03  0.12700000000E+01 0.  1.
         25    2    1    2    0    0 -0.41412554832E+02 -0.31407460516E+02  0.21266139403E+02  0.13703521422E+03  0.12499989191E+03 0.  0.
    9000005    1    3    3    0    0  0.32597627912E+02  0.29025708678E+01 -0.26830190148E+02  0.42330714222E+02  0.10000000000E+01 0.  0.
    9000005    1    3    3    0    0 -0.74010182744E+02 -0.34310031383E+02  0.48096329551E+02  0.94704499997E+02  0.10000000000E+01 0.  0.
         21    1    1    2  502  501  0.41412554832E+02  0.31407460516E+02 -0.10006539941E+03  0.11275864682E+03  0.00000000000E+00 0.  1.
<mgrwt>
<rscale>  1 0.13537504E+03</rscale>
<asrwt>0</asrwt>
<pdfrwt beam="2">  1        4 0.25276394E-01 0.13537504E+03</pdfrwt>
<pdfrwt beam="1">  1       -4 0.13153431E-01 0.13537504E+03</pdfrwt>
<totfact> 0.11472945E+03</totfact>
</mgrwt>
</event>
<event>
 6    4  0.5642870E-004  0.1284658E+03  0.7818608E-02  0.1229750E+00
         -4   -1    0    0    0  501 -0.00000000000E+00  0.00000000000E+00  0.40649407757E+02  0.40669242075E+02  0.12700000000E+01 0. -1.
          4   -1    0    0  502    0  0.00000000000E+00 -0.00000000000E+00 -0.16248767464E+03  0.16249263771E+03  0.12700000000E+01 0. -1.
         25    2    1    2    0    0 -0.87749182895E+01 -0.28303379097E+02 -0.78139958439E+02  0.15036393835E+03  0.12500152155E+03 0.  0.
    9000005    1    3    3    0    0  0.26252710421E+02 -0.61635681559E+02 -0.11432805063E+02  0.67969633494E+02  0.10000000000E+01 0.  0.
    9000005    1    3    3    0    0 -0.35027628710E+02  0.33332302462E+02 -0.66707153376E+02  0.82394304852E+02  0.10000000000E+01 0.  0.
         21    1    1    2  502  501  0.87749182895E+01  0.28303379097E+02 -0.43698308441E+02  0.52797941436E+02  0.00000000000E+00 0.  1.
<mgrwt>
<rscale>  1 0.12846580E+03</rscale>
<asrwt>0</asrwt>
<pdfrwt beam="2">  1        4 0.25000011E-01 0.12846580E+03</pdfrwt>
<pdfrwt beam="1">  1       -4 0.62556626E-02 0.12846580E+03</pdfrwt>
<totfact> 0.40103880E+03</totfact>
</mgrwt>
</event>
<event>
 6    4  0.5642870E-004  0.1274104E+03  0.7818608E-02  0.1231350E+00
          4   -1    0    0  502    0  0.00000000000E+00  0.00000000000E+00  0.10543821017E+02  0.10620031151E+02  0.12700000000E+01 0.  1.
         -4   -1    0    0    0  501 -0.00000000000E+00 -0.00000000000E+00 -0.54958897502E+03  0.54959044239E+03  0.12700000000E+01 0.  1.
         25    2    1    2    0    0 -0.21675854674E+02  0.11822234334E+02 -0.46608110743E+03  0.48318216709E+03  0.12499519990E+03 0.  0.
    9000005    1    3    3    0    0 -0.26318090311E+01  0.37366474183E+02 -0.44108281065E+03  0.44267169060E+03  0.10000000000E+01 0.  0.
    9000005    1    3    3    0    0 -0.19044045643E+02 -0.25544239849E+02 -0.24998296779E+02  0.40510476494E+02  0.10000000000E+01 0.  0.
         21    1    1    2  502  501  0.21675854674E+02 -0.11822234334E+02 -0.72964046577E+02  0.77028306442E+02  0.00000000000E+00 0. -1.
<mgrwt>
<rscale>  1 0.12741039E+03</rscale>
<asrwt>0</asrwt>
<pdfrwt beam="1">  1        4 0.16281019E-02 0.12741039E+03</pdfrwt>
<pdfrwt beam="2">  1       -4 0.84558103E-01 0.12741039E+03</pdfrwt>
<totfact> 0.28406065E+03</totfact>
</mgrwt>
</event>
<event>
 6    4  0.5642870E-004  0.1315077E+03  0.7818608E-02  0.1225236E+00
          4   -1    0    0  502    0  0.00000000000E+00  0.00000000000E+00  0.64284609577E+02  0.64297153347E+02  0.12700000000E+01 0.  1.
         -4   -1    0    0    0  501 -0.00000000000E+00 -0.00000000000E+00 -0.14838910282E+03  0.14839453742E+03  0.12700000000E+01 0.  1.
         25    2    1    2    0    0 -0.14582133134E+01 -0.40834103592E+02 -0.10360525606E+03  0.16741664076E+03  0.12499892848E+03 0.  0.
    9000005    1    3    3    0    0  0.13951342296E+02 -0.40714911934E+02 -0.12994125850E+03  0.13688708729E+03  0.10000000000E+01 0.  0.
    9000005    1    3    3    0    0 -0.15409555609E+02 -0.11919165754E+00  0.26336002443E+02  0.30529553476E+02  0.10000000000E+01 0.  0.
         21    1    1    2  502  501  0.14582133134E+01  0.40834103592E+02  0.19500762815E+02  0.45275050001E+02  0.00000000000E+00 0.  1.
<mgrwt>
<rscale>  1 0.13150773E+03</rscale>
<asrwt>0</asrwt>
<pdfrwt beam="1">  1        4 0.98913229E-02 0.13150773E+03</pdfrwt>
<pdfrwt beam="2">  1       -4 0.22830476E-01 0.13150773E+03</pdfrwt>
<totfact> 0.22329343E+03</totfact>
</mgrwt>
</event>
<event>
 6    4  0.5642870E-004  0.1266109E+03  0.7818608E-02  0.1232573E+00
          4   -1    0    0  502    0  0.00000000000E+00  0.00000000000E+00  0.62300468136E+01  0.63581745258E+01  0.12700000000E+01 0. -1.
         -4   -1    0    0    0  501 -0.00000000000E+00 -0.00000000000E+00 -0.12403560150E+04  0.12403566652E+04  0.12700000000E+01 0. -1.
         25    2    1    2    0    0 -0.19988596064E+02 -0.24275040579E+01 -0.12029967229E+04  0.12096410395E+04  0.12499956964E+03 0.  0.
    9000005    1    3    3    0    0  0.19287990631E+02 -0.33512292608E+02 -0.99292067094E+03  0.99367376896E+03  0.10000000000E+01 0.  0.
    9000005    1    3    3    0    0 -0.39276586695E+02  0.31084788550E+02 -0.21007605193E+03  0.21596727052E+03  0.10000000000E+01 0.  0.
         21    1    1    2  502  501  0.19988596064E+02  0.24275040579E+01 -0.31129245288E+02  0.37073800194E+02  0.00000000000E+00 0. -1.
<mgrwt>
<rscale>  1 0.12661094E+03</rscale>
<asrwt>0</asrwt>
<pdfrwt beam="1">  1        4 0.96837572E-03 0.12661094E+03</pdfrwt>
<pdfrwt beam="2">  1       -4 0.19083371E+00 0.12661094E+03</pdfrwt>
<totfact> 0.84424360E+02</totfact>
</mgrwt>
</event>
<event>
 6    4  0.5642870E-004  0.1626801E+03  0.7818608E-02  0.1185704E+00
         -4   -1    0    0    0  501 -0.00000000000E+00  0.00000000000E+00  0.32239017367E+03  0.32239267513E+03  0.12700000000E+01 0.  1.
          4   -1    0    0  502    0  0.00000000000E+00 -0.00000000000E+00 -0.57479225323E+02  0.57493253897E+02  0.12700000000E+01 0.  1.
         25    2    1    2    0    0 -0.93594225408E+02  0.45607456564E+02  0.19741186408E+03  0.25580512672E+03  0.12499959862E+03 0.  0.
    9000005    1    3    3    0    0 -0.15887486595E+02  0.31029828646E+02  0.16778030549E+03  0.17136654693E+03  0.10000000000E+01 0.  0.
    9000005    1    3    3    0    0 -0.77706738813E+02  0.14577627918E+02  0.29631558585E+02  0.84438579789E+02  0.10000000000E+01 0.  0.
         21    1    1    2  502  501  0.93594225408E+02 -0.45607456564E+02  0.67499084268E+02  0.12408080231E+03  0.00000000000E+00 0.  1.
<mgrwt>
<rscale>  1 0.16268011E+03</rscale>
<asrwt>0</asrwt>
<pdfrwt beam="2">  1        4 0.88442293E-02 0.16268011E+03</pdfrwt>
<pdfrwt beam="1">  1       -4 0.49599760E-01 0.16268011E+03</pdfrwt>
<totfact> 0.63177158E+02</totfact>
</mgrwt>
</event>
<event>
 6    4  0.5642870E-004  0.1283439E+03  0.7818608E-02  0.1229934E+00
          4   -1    0    0  502    0  0.00000000000E+00  0.00000000000E+00  0.23566167648E+02  0.23600363506E+02  0.12700000000E+01 0.  1.
         -4   -1    0    0    0  501 -0.00000000000E+00 -0.00000000000E+00 -0.26292817889E+03  0.26293124606E+03  0.12700000000E+01 0.  1.
         25    2    1    2    0    0 -0.25307283893E+02  0.14381745314E+02 -0.19780092183E+03  0.23579092205E+03  0.12499944411E+03 0.  0.
    9000005    1    3    3    0    0 -0.57981414552E+02  0.34518715959E+02 -0.18229180888E+03  0.19438284330E+03  0.10000000000E+01 0.  0.
    9000005    1    3    3    0    0  0.32674130659E+02 -0.20136970645E+02 -0.15509112945E+02  0.41408078746E+02  0.10000000000E+01 0.  0.
         21    1    1    2  502  501  0.25307283893E+02 -0.14381745314E+02 -0.41561089414E+02  0.50740687516E+02  0.00000000000E+00 0. -1.
<mgrwt>
<rscale>  1 0.12834389E+03</rscale>
<asrwt>0</asrwt>
<pdfrwt beam="1">  1        4 0.36284308E-02 0.12834389E+03</pdfrwt>
<pdfrwt beam="2">  1       -4 0.40453353E-01 0.12834389E+03</pdfrwt>
<totfact> 0.38382613E+03</totfact>
</mgrwt>
</event>
<event>
 6    4  0.5642870E-004  0.1272195E+03  0.7818608E-02  0.1231641E+00
         -4   -1    0    0    0  501 -0.00000000000E+00  0.00000000000E+00  0.59975361659E+02  0.59988806507E+02  0.12700000000E+01 0. -1.
          4   -1    0    0  502    0  0.00000000000E+00 -0.00000000000E+00 -0.10250832017E+03  0.10251618703E+03  0.12700000000E+01 0. -1.
         25    2    1    2    0    0  0.15642187241E+01 -0.23590412156E+02 -0.18090462625E+02  0.12849925974E+03  0.12500336232E+03 0.  0.
    9000005    1    3    3    0    0  0.10745445055E+02 -0.69847537364E+02 -0.34381300182E+02  0.78595272551E+02  0.10000000000E+01 0.  0.
    9000005    1    3    3    0    0 -0.91812263305E+01  0.46257125208E+02  0.16290837557E+02  0.49903987193E+02  0.10000000000E+01 0.  0.
         21    1    1    2  502  501 -0.15642187241E+01  0.23590412156E+02 -0.24442495884E+02  0.34005733795E+02  0.00000000000E+00 0.  1.
<mgrwt>
<rscale>  1 0.12721948E+03</rscale>
<asrwt>0</asrwt>
<pdfrwt beam="2">  1        4 0.15772150E-01 0.12721948E+03</pdfrwt>
<pdfrwt beam="1">  1       -4 0.92286181E-02 0.12721948E+03</pdfrwt>
<totfact> 0.48192975E+03</totfact>
</mgrwt>
</event>
<event>
 6    4  0.5642870E-004  0.1288749E+03  0.7818608E-02  0.1229135E+00
          4   -1    0    0  502    0  0.00000000000E+00  0.00000000000E+00  0.67814108515E+02  0.67825999541E+02  0.12700000000E+01 0.  1.
         -4   -1    0    0    0  501 -0.00000000000E+00 -0.00000000000E+00 -0.13244645819E+03  0.13245254692E+03  0.12700000000E+01 0.  1.
         25    2    1    2    0    0 -0.31157826843E+02  0.36129822541E+01 -0.92247655319E+02  0.15848777092E+03  0.12499951922E+03 0.  0.
    9000005    1    3    3    0    0 -0.67370216530E+02  0.35683972733E+02 -0.75468676138E+02  0.10727820405E+03  0.10000000000E+01 0.  0.
    9000005    1    3    3    0    0  0.36212389686E+02 -0.32070990479E+02 -0.16778979181E+02  0.51209566874E+02  0.10000000000E+01 0.  0.
         21    1    1    2  502  501  0.31157826843E+02 -0.36129822541E+01  0.27615305648E+02  0.41790775542E+02  0.00000000000E+00 0.  1.
<mgrwt>
<rscale>  1 0.12887491E+03</rscale>
<asrwt>0</asrwt>
<pdfrwt beam="1">  1        4 0.10434323E-01 0.12887491E+03</pdfrwt>
<pdfrwt beam="2">  1       -4 0.20377761E-01 0.12887491E+03</pdfrwt>
<totfact> 0.24955272E+03</totfact>
</mgrwt>
</event>
<event>
 6    4  0.5642870E-004  0.1766095E+03  0.7818608E-02  0.1171125E+00
         -4   -1    0    0    0  501 -0.00000000000E+00  0.00000000000E+00  0.59106992897E+02  0.59120635224E+02  0.12700000000E+01 0. -1.
          4   -1    0    0  502    0  0.00000000000E+00 -0.00000000000E+00 -0.38905848075E+03  0.38906055357E+03  0.12700000000E+01 0. -1.
         25    2    1    2    0    0  0.30260955379E+02  0.12103915191E+03 -0.21791581276E+03  0.28049638266E+03  0.12499887006E+03 0.  0.
    9000005    1    3    3    0    0 -0.11643535495E+02  0.56937438500E+02 -0.19046362484E+03  0.19913522092E+03  0.10000000000E+01 0.  0.
    9000005    1    3    3    0    0  0.41904490875E+02  0.64101713411E+02 -0.27452187918E+02  0.81361161737E+02  0.10000000000E+01 0.  0.
         21    1    1    2  502  501 -0.30260955379E+02 -0.12103915191E+03 -0.11203567509E+03  0.16768480613E+03  0.00000000000E+00 0. -1.
<mgrwt>
<rscale>  1 0.17660951E+03</rscale>
<asrwt>0</asrwt>
<pdfrwt beam="2">  1        4 0.59856358E-01 0.17660951E+03</pdfrwt>
<pdfrwt beam="1">  1       -4 0.90945926E-02 0.17660951E+03</pdfrwt>
<totfact> 0.41406378E+02</totfact>
</mgrwt>
</event>
<event>
 6    4  0.5642870E-004  0.1291538E+03  0.7818608E-02  0.1228717E+00
         -4   -1    0    0    0  501 -0.00000000000E+00  0.00000000000E+00  0.91130597820E+02  0.91139446778E+02  0.12700000000E+01 0. -1.
          4   -1    0    0  502    0  0.00000000000E+00 -0.00000000000E+00 -0.73100601631E+02  0.73111632855E+02  0.12700000000E+01 0. -1.
         25    2    1    2    0    0 -0.11810093692E+02  0.30272840744E+02  0.23571092005E+02  0.13128705466E+03  0.12499908457E+03 0.  0.
    9000005    1    3    3    0    0  0.25904043737E+02  0.62354428567E+02  0.40746935933E+02  0.78869557066E+02  0.10000000000E+01 0.  0.
    9000005    1    3    3    0    0 -0.37714137429E+02 -0.32081587823E+02 -0.17175843928E+02  0.52417497593E+02  0.10000000000E+01 0.  0.
         21    1    1    2  502  501  0.11810093692E+02 -0.30272840744E+02 -0.55410958152E+01  0.32964024975E+02  0.00000000000E+00 0. -1.
<mgrwt>
<rscale>  1 0.12915376E+03</rscale>
<asrwt>0</asrwt>
<pdfrwt beam="2">  1        4 0.11247776E-01 0.12915376E+03</pdfrwt>
<pdfrwt beam="1">  1       -4 0.14021621E-01 0.12915376E+03</pdfrwt>
<totfact> 0.42541917E+03</totfact>
</mgrwt>
</event>
<event>
 6    4  0.5642870E-004  0.1276122E+03  0.7818608E-02  0.1231042E+00
         -4   -1    0    0    0  501 -0.00000000000E+00  0.00000000000E+00  0.12178123421E+04  0.12178130043E+04  0.12700000000E+01 0.  1.
          4   -1    0    0  502    0  0.00000000000E+00 -0.00000000000E+00 -0.56302247269E+01  0.57716835044E+01  0.12700000000E+01 0.  1.
         25    2    1    2    0    0 -0.12889227594E+02 -0.22208908659E+02  0.11369880900E+04  0.11441270918E+04  0.12500207031E+03 0.  0.
    9000005    1    3    3    0    0  0.94230389953E+01 -0.71700136481E+02  0.71862049956E+03  0.72225073598E+03  0.10000000000E+01 0.  0.
    9000005    1    3    3    0    0 -0.22312266589E+02  0.49491227822E+02  0.41836759045E+03  0.42187635583E+03  0.10000000000E+01 0.  0.
         21    1    1    2  502  501  0.12889227594E+02  0.22208908659E+02  0.75194027380E+02  0.79457596021E+02  0.00000000000E+00 0.  1.
<mgrwt>
<rscale>  1 0.12761225E+03</rscale>
<asrwt>0</asrwt>
<pdfrwt beam="2">  1        4 0.87712033E-03 0.12761225E+03</pdfrwt>
<pdfrwt beam="1">  1       -4 0.18736678E+00 0.12761225E+03</pdfrwt>
<totfact> 0.10320588E+03</totfact>
</mgrwt>
</event>
<event>
 6    4  0.5642870E-004  0.1355122E+03  0.7818608E-02  0.1219498E+00
          4   -1    0    0  502    0  0.00000000000E+00  0.00000000000E+00  0.66952733128E+03  0.66952853578E+03  0.12700000000E+01 0. -1.
         -4   -1    0    0    0  501 -0.00000000000E+00 -0.00000000000E+00 -0.10694543059E+03  0.10695297108E+03  0.12700000000E+01 0. -1.
         25    2    1    2    0    0  0.16004499281E+00  0.52331949185E+02 -0.62487309093E+02  0.14922543831E+03  0.12499963648E+03 0.  0.
    9000005    1    3    3    0    0  0.14261137061E+02 -0.39594117861E+02 -0.24913032467E+02  0.48915574066E+02  0.10000000000E+01 0.  0.
    9000005    1    3    3    0    0 -0.14101092068E+02  0.91926067046E+02 -0.37574276626E+02  0.10030986424E+03  0.10000000000E+01 0.  0.
         21    1    1    2  502  501 -0.16004499281E+00 -0.52331949185E+02  0.62506920979E+03  0.62725606856E+03  0.00000000000E+00 0. -1.
<mgrwt>
<rscale>  1 0.13551224E+03</rscale>
<asrwt>0</asrwt>
<pdfrwt beam="1">  1        4 0.10300488E+00 0.13551224E+03</pdfrwt>
<pdfrwt beam="2">  1       -4 0.16453816E-01 0.13551224E+03</pdfrwt>
<totfact> 0.43135969E+01</totfact>
</mgrwt>
</event>
<event>
 6    4  0.5642870E-004  0.1290579E+03  0.7818608E-02  0.1228860E+00
         -4   -1    0    0    0  501 -0.00000000000E+00  0.00000000000E+00  0.13306654189E+02  0.13367121818E+02  0.12700000000E+01 0.  1.
          4   -1    0    0  502    0  0.00000000000E+00 -0.00000000000E+00 -0.69384183089E+03  0.69384299319E+03  0.12700000000E+01 0.  1.
         25    2    1    2    0    0 -0.26406372680E+02 -0.18258704031E+02 -0.31706182360E+03  0.34232170027E+03  0.12500107880E+03 0.  0.
    9000005    1    3    3    0    0  0.25345000927E+02 -0.56926077805E+02 -0.18671012372E+03  0.19683652534E+03  0.10000000000E+01 0.  0.
    9000005    1    3    3    0    0 -0.51751373607E+02  0.38667373774E+02 -0.13035169988E+03  0.14548517494E+03  0.10000000000E+01 0.  0.
         21    1    1    2  502  501  0.26406372680E+02  0.18258704031E+02 -0.36347335310E+03  0.36488841473E+03  0.00000000000E+00 0. -1.
<mgrwt>
<rscale>  1 0.12905792E+03</rscale>
<asrwt>0</asrwt>
<pdfrwt beam="2">  1        4 0.10674961E+00 0.12905792E+03</pdfrwt>
<pdfrwt beam="1">  1       -4 0.20519189E-02 0.12905792E+03</pdfrwt>
<totfact> 0.11732756E+03</totfact>
</mgrwt>
</event>
<event>
 6    4  0.5642870E-004  0.1282939E+03  0.7818608E-02  0.1230009E+00
         -4   -1    0    0    0  501 -0.00000000000E+00  0.00000000000E+00  0.13488634874E+02  0.13548290326E+02  0.12700000000E+01 0. -1.
          4   -1    0    0  502    0  0.00000000000E+00 -0.00000000000E+00 -0.73921031947E+03  0.73921141043E+03  0.12700000000E+01 0. -1.
         25    2    1    2    0    0  0.39785568189E+01  0.28621930673E+02 -0.30287073694E+03  0.32892250588E+03  0.12499715096E+03 0.  0.
    9000005    1    3    3    0    0 -0.52589269879E+02 -0.12233091207E+02 -0.17633337335E+03  0.18441729416E+03  0.10000000000E+01 0.  0.
    9000005    1    3    3    0    0  0.56567826698E+02  0.40855021880E+02 -0.12653736359E+03  0.14450521172E+03  0.10000000000E+01 0.  0.
         21    1    1    2  502  501 -0.39785568189E+01 -0.28621930673E+02 -0.42285094766E+03  0.42383719488E+03  0.00000000000E+00 0. -1.
<mgrwt>
<rscale>  1 0.12829393E+03</rscale>
<asrwt>0</asrwt>
<pdfrwt beam="2">  1        4 0.11372931E+00 0.12829393E+03</pdfrwt>
<pdfrwt beam="1">  1       -4 0.20798480E-02 0.12829393E+03</pdfrwt>
<totfact> 0.98868355E+02</totfact>
</mgrwt>
</event>
<event>
 6    4  0.5642870E-004  0.1269673E+03  0.7818608E-02  0.1232026E+00
         -4   -1    0    0    0  501 -0.00000000000E+00  0.00000000000E+00  0.24657528138E+03  0.24657855196E+03  0.12700000000E+01 0.  1.
          4   -1    0    0  502    0  0.00000000000E+00 -0.00000000000E+00 -0.22644765819E+02  0.22680350945E+02  0.12700000000E+01 0.  1.
         25    2    1    2    0    0  0.14597334831E+02 -0.17139216682E+02  0.19231377259E+03  0.23044584623E+03  0.12495545600E+03 0.  0.
    9000005    1    3    3    0    0  0.60257272628E+02  0.11221603578E+02  0.52704165382E+02  0.80843010459E+02  0.10000000000E+01 0.  0.
    9000005    1    3    3    0    0 -0.45659937798E+02 -0.28360820259E+02  0.13960960721E+03  0.14960283577E+03  0.10000000000E+01 0.  0.
         21    1    1    2  502  501 -0.14597334831E+02  0.17139216682E+02  0.31616742974E+02  0.38813056681E+02  0.00000000000E+00 0. -1.
<mgrwt>
<rscale>  1 0.12696732E+03</rscale>
<asrwt>0</asrwt>
<pdfrwt beam="2">  1        4 0.34867992E-02 0.12696732E+03</pdfrwt>
<pdfrwt beam="1">  1       -4 0.37937645E-01 0.12696732E+03</pdfrwt>
<totfact> 0.46224113E+03</totfact>
</mgrwt>
</event>
<event>
 6    4  0.5642870E-004  0.1276667E+03  0.7818608E-02  0.1230960E+00
          4   -1    0    0  502    0  0.00000000000E+00  0.00000000000E+00  0.38335564939E+03  0.38335775304E+03  0.12700000000E+01 0.  1.
         -4   -1    0    0    0  501 -0.00000000000E+00 -0.00000000000E+00 -0.38720782907E+02  0.38741604625E+02  0.12700000000E+01 0.  1.
         25    2    1    2    0    0 -0.91311453194E+01 -0.24304829769E+02  0.68760991305E+02  0.14500641736E+03  0.12499873833E+03 0.  0.
    9000005    1    3    3    0    0 -0.35007566824E+02 -0.25256166757E+02  0.97304664690E+02  0.10645469207E+03  0.10000000000E+01 0.  0.
    9000005    1    3    3    0    0  0.25876421505E+02  0.95133698849E+00 -0.28543673386E+02  0.38551725283E+02  0.10000000000E+01 0.  0.
         21    1    1    2  502  501  0.91311453194E+01  0.24304829769E+02  0.27587387518E+03  0.27709294031E+03  0.00000000000E+00 0.  1.
<mgrwt>
<rscale>  1 0.12766670E+03</rscale>
<asrwt>0</asrwt>
<pdfrwt beam="1">  1        4 0.58979555E-01 0.12766670E+03</pdfrwt>
<pdfrwt beam="2">  1       -4 0.59588071E-02 0.12766670E+03</pdfrwt>
<totfact> 0.80710586E+02</totfact>
</mgrwt>
</event>
<event>
 6    4  0.5642870E-004  0.1306003E+03  0.7818608E-02  0.1226568E+00
         -4   -1    0    0    0  501 -0.00000000000E+00  0.00000000000E+00  0.61703886647E+03  0.61704017344E+03  0.12700000000E+01 0. -1.
          4   -1    0    0  502    0  0.00000000000E+00 -0.00000000000E+00 -0.12187637475E+02  0.12253628329E+02  0.12700000000E+01 0. -1.
         25    2    1    2    0    0 -0.37783573006E+02 -0.17219716555E+01  0.52404656101E+03  0.54007520537E+03  0.12500346302E+03 0.  0.
    9000005    1    3    3    0    0 -0.51102931913E+02 -0.89354147042E+01  0.52221317649E+03  0.52478467297E+03  0.10000000000E+01 0.  0.
    9000005    1    3    3    0    0  0.13319358906E+02  0.72134430487E+01  0.18333845286E+01  0.15290532402E+02  0.10000000000E+01 0.  0.
         21    1    1    2  502  501  0.37783573006E+02  0.17219716555E+01  0.80804667982E+02  0.89218596398E+02  0.00000000000E+00 0. -1.
<mgrwt>
<rscale>  1 0.13060027E+03</rscale>
<asrwt>0</asrwt>
<pdfrwt beam="2">  1        4 0.18801979E-02 0.13060027E+03</pdfrwt>
<pdfrwt beam="1">  1       -4 0.94934236E-01 0.13060027E+03</pdfrwt>
<totfact> 0.17652275E+03</totfact>
</mgrwt>
</event>
<event>
 6    4  0.5642870E-004  0.1372112E+03  0.7818608E-02  0.1217132E+00
         -4   -1    0    0    0  501 -0.00000000000E+00  0.00000000000E+00  0.16192503036E+03  0.16193001067E+03  0.12700000000E+01 0. -1.
          4   -1    0    0  502    0  0.00000000000E+00 -0.00000000000E+00 -0.57980868983E+02  0.57994776214E+02  0.12700000000E+01 0. -1.
         25    2    1    2    0    0 -0.23602693133E+02 -0.51433660355E+02  0.74536001669E+02  0.15614902034E+03  0.12499756985E+03 0.  0.
    9000005    1    3    3    0    0 -0.65787672790E+02 -0.36691881930E+02  0.81418247980E+02  0.11092449321E+03  0.10000000000E+01 0.  0.
    9000005    1    3    3    0    0  0.42184979657E+02 -0.14741778425E+02 -0.68822463115E+01  0.45224527129E+02  0.10000000000E+01 0.  0.
         21    1    1    2  502  501  0.23602693133E+02  0.51433660355E+02  0.29408159704E+02  0.63775766541E+02  0.00000000000E+00 0. -1.
<mgrwt>
<rscale>  1 0.13721115E+03</rscale>
<asrwt>0</asrwt>
<pdfrwt beam="2">  1        4 0.89215866E-02 0.13721115E+03</pdfrwt>
<pdfrwt beam="1">  1       -4 0.24912996E-01 0.13721115E+03</pdfrwt>
<totfact> 0.22833474E+03</totfact>
</mgrwt>
</event>
<event>
 6    4  0.5642870E-004  0.1268486E+03  0.7818608E-02  0.1232208E+00
          4   -1    0    0  502    0  0.00000000000E+00  0.00000000000E+00  0.27413680672E+02  0.27443082698E+02  0.12700000000E+01 0.  1.
         -4   -1    0    0    0  501 -0.00000000000E+00 -0.00000000000E+00 -0.26292146945E+03  0.26292453670E+03  0.12700000000E+01 0.  1.
         25    2    1    2    0    0  0.96242842328E+01 -0.19322362602E+02 -0.23691369645E+03  0.26873530284E+03  0.12499833152E+03 0.  0.
    9000005    1    3    3    0    0  0.47347215246E+02 -0.40375351790E+02 -0.20707013704E+03  0.21621972499E+03  0.10000000000E+01 0.  0.
    9000005    1    3    3    0    0 -0.37722931013E+02  0.21052989188E+02 -0.29843559413E+02  0.52515577845E+02  0.10000000000E+01 0.  0.
         21    1    1    2  502  501 -0.96242842328E+01  0.19322362602E+02  0.14059076666E+01  0.21632316563E+02  0.00000000000E+00 0.  1.
<mgrwt>
<rscale>  1 0.12684858E+03</rscale>
<asrwt>0</asrwt>
<pdfrwt beam="1">  1        4 0.42199871E-02 0.12684858E+03</pdfrwt>
<pdfrwt beam="2">  1       -4 0.40451953E-01 0.12684858E+03</pdfrwt>
<totfact> 0.30129893E+03</totfact>
</mgrwt>
</event>
<event>
 6    4  0.5642870E-004  0.1300904E+03  0.7818608E-02  0.1227322E+00
          4   -1    0    0  502    0  0.00000000000E+00  0.00000000000E+00  0.18131574178E+02  0.18175997419E+02  0.12700000000E+01 0.  1.
         -4   -1    0    0    0  501 -0.00000000000E+00 -0.00000000000E+00 -0.38024616198E+03  0.38024828284E+03  0.12700000000E+01 0.  1.
         25    2    1    2    0    0  0.35496708699E+02 -0.62178040427E+01 -0.28752410864E+03  0.31558457361E+03  0.12499933054E+03 0.  0.
    9000005    1    3    3    0    0  0.33644324283E+02 -0.53746427866E+02 -0.77005041255E+02  0.99756681197E+02  0.10000000000E+01 0.  0.
    9000005    1    3    3    0    0  0.18523844162E+01  0.47528623823E+02 -0.21051906739E+03  0.21582789242E+03  0.10000000000E+01 0.  0.
         21    1    1    2  502  501 -0.35496708699E+02  0.62178040427E+01 -0.74590479160E+02  0.82839706644E+02  0.00000000000E+00 0.  1.
<mgrwt>
<rscale>  1 0.13009039E+03</rscale>
<asrwt>0</asrwt>
<pdfrwt beam="1">  1        4 0.27930536E-02 0.13009039E+03</pdfrwt>
<pdfrwt beam="2">  1       -4 0.58502984E-01 0.13009039E+03</pdfrwt>
<totfact> 0.27486872E+03</totfact>
</mgrwt>
</event>
<event>
 6    4  0.5642870E-004  0.1511013E+03  0.7818608E-02  0.1199126E+00
         -4   -1    0    0    0  501 -0.00000000000E+00  0.00000000000E+00  0.44997103702E+02  0.45015022399E+02  0.12700000000E+01 0.  1.
          4   -1    0    0  502    0  0.00000000000E+00 -0.00000000000E+00 -0.30990868580E+03  0.30991128800E+03  0.12700000000E+01 0.  1.
         25    2    1    2    0    0  0.83115400545E+02 -0.17272001320E+02 -0.16226160504E+03  0.22172154462E+03  0.12500049217E+03 0.  0.
    9000005    1    3    3    0    0 -0.15482297637E+02 -0.20888081838E+02 -0.10384791925E+03  0.10705794616E+03  0.10000000000E+01 0.  0.
    9000005    1    3    3    0    0  0.98597698182E+02  0.36160805185E+01 -0.58413685789E+02  0.11466359846E+03  0.10000000000E+01 0.  0.
         21    1    1    2  502  501 -0.83115400545E+02  0.17272001320E+02 -0.10264997705E+03  0.13320476578E+03  0.00000000000E+00 0.  1.
<mgrwt>
<rscale>  1 0.15110134E+03</rscale>
<asrwt>0</asrwt>
<pdfrwt beam="2">  1        4 0.47679837E-01 0.15110134E+03</pdfrwt>
<pdfrwt beam="1">  1       -4 0.69242101E-02 0.15110134E+03</pdfrwt>
<totfact> 0.10128292E+03</totfact>
</mgrwt>
</event>
<event>
 6    4  0.5642870E-004  0.1303945E+03  0.7818608E-02  0.1226872E+00
         -4   -1    0    0    0  501 -0.00000000000E+00  0.00000000000E+00  0.23760211802E+02  0.23794128790E+02  0.12700000000E+01 0. -1.
          4   -1    0    0  502    0  0.00000000000E+00 -0.00000000000E+00 -0.40812525267E+03  0.40812722865E+03  0.12700000000E+01 0. -1.
         25    2    1    2    0    0 -0.37114480807E+02 -0.44761204260E+00 -0.16938987187E+03  0.21376543081E+03  0.12500018269E+03 0.  0.
    9000005    1    3    3    0    0 -0.52576740553E+02 -0.51869257465E+02 -0.11937042609E+03  0.14037461360E+03  0.10000000000E+01 0.  0.
    9000005    1    3    3    0    0  0.15462259746E+02  0.51421645422E+02 -0.50019445780E+02  0.73390817209E+02  0.10000000000E+01 0.  0.
         21    1    1    2  502  501  0.37114480807E+02  0.44761204260E+00 -0.21497516899E+03  0.21815592663E+03  0.00000000000E+00 0. -1.
<mgrwt>
<rscale>  1 0.13039452E+03</rscale>
<asrwt>0</asrwt>
<pdfrwt beam="2">  1        4 0.62791256E-01 0.13039452E+03</pdfrwt>
<pdfrwt beam="1">  1       -4 0.36581785E-02 0.13039452E+03</pdfrwt>
<totfact> 0.15517983E+03</totfact>
</mgrwt>
</event>
<event>
 6    4  0.5642870E-004  0.1274553E+03  0.7818608E-02  0.1231281E+00
         -4   -1    0    0    0  501 -0.00000000000E+00  0.00000000000E+00  0.15762489522E+04  0.15762494638E+04  0.12700000000E+01 0. -1.
          4   -1    0    0  502    0  0.00000000000E+00 -0.00000000000E+00 -0.10160004973E+02  0.10239072275E+02  0.12700000000E+01 0. -1.
         25    2    1    2    0    0  0.19622771969E+02 -0.15332829903E+02  0.15532506886E+04  0.15584712247E+04  0.12499883113E+03 0.  0.
    9000005    1    3    3    0    0 -0.26032684735E+02 -0.82958566020E+01  0.13397034350E+04  0.13399823938E+04  0.10000000000E+01 0.  0.
    9000005    1    3    3    0    0  0.45655456705E+02 -0.70369733008E+01  0.21354725352E+03  0.21848883085E+03  0.10000000000E+01 0.  0.
         21    1    1    2  502  501 -0.19622771969E+02  0.15332829903E+02  0.12838258627E+02  0.28017311383E+02  0.00000000000E+00 0. -1.
<mgrwt>
<rscale>  1 0.12745531E+03</rscale>
<asrwt>0</asrwt>
<pdfrwt beam="2">  1        4 0.15691983E-02 0.12745531E+03</pdfrwt>
<pdfrwt beam="1">  1       -4 0.24250609E+00 0.12745531E+03</pdfrwt>
<totfact> 0.19918038E+02</totfact>
</mgrwt>
</event>
<event>
 6    4  0.5642870E-004  0.1270396E+03  0.7818608E-02  0.1231916E+00
          4   -1    0    0  502    0  0.00000000000E+00  0.00000000000E+00  0.18797664189E+04  0.18797668480E+04  0.12700000000E+01 0.  1.
         -4   -1    0    0    0  501 -0.00000000000E+00 -0.00000000000E+00 -0.33856924381E+01  0.36160494031E+01  0.12700000000E+01 0.  1.
         25    2    1    2    0    0 -0.66572348468E+00  0.22634127906E+02  0.12168413169E+04  0.12234548863E+04  0.12500528555E+03 0.  0.
    9000005    1    3    3    0    0 -0.27806645002E+02 -0.33535857024E+02  0.19956684221E+03  0.20426891031E+03  0.10000000000E+01 0.  0.
    9000005    1    3    3    0    0  0.27140921517E+02  0.56169984930E+02  0.10172744747E+04  0.10191859760E+04  0.10000000000E+01 0.  0.
         21    1    1    2  502  501  0.66572348468E+00 -0.22634127906E+02  0.65953940963E+03  0.65992801107E+03  0.00000000000E+00 0. -1.
<mgrwt>
<rscale>  1 0.12703963E+03</rscale>
<asrwt>0</asrwt>
<pdfrwt beam="1">  1        4 0.28921232E+00 0.12703963E+03</pdfrwt>
<pdfrwt beam="2">  1       -4 0.53862903E-03 0.12703963E+03</pdfrwt>
<totfact> 0.53464322E+02</totfact>
</mgrwt>
</event>
<event>
 6    4  0.5642870E-004  0.1386173E+03  0.7818608E-02  0.1215202E+00
          4   -1    0    0  502    0  0.00000000000E+00  0.00000000000E+00  0.97826304926E+02  0.97834548272E+02  0.12700000000E+01 0. -1.
         -4   -1    0    0    0  501 -0.00000000000E+00 -0.00000000000E+00 -0.10093149141E+03  0.10093948117E+03  0.12700000000E+01 0. -1.
         25    2    1    2    0    0 -0.47490563068E+02  0.36528888332E+02 -0.64421101416E+01  0.13876696050E+03  0.12500022112E+03 0.  0.
    9000005    1    3    3    0    0  0.32061655202E+02 -0.18169904719E+02  0.15110724376E+02  0.39842554674E+02  0.10000000000E+01 0.  0.
    9000005    1    3    3    0    0 -0.79552218270E+02  0.54698793051E+02 -0.21552834517E+02  0.98924405829E+02  0.10000000000E+01 0.  0.
         21    1    1    2  502  501  0.47490563068E+02 -0.36528888332E+02  0.33369236532E+01  0.60007068940E+02  0.00000000000E+00 0.  1.
<mgrwt>
<rscale>  1 0.13861735E+03</rscale>
<asrwt>0</asrwt>
<pdfrwt beam="1">  1        4 0.15051450E-01 0.13861735E+03</pdfrwt>
<pdfrwt beam="2">  1       -4 0.15529170E-01 0.13861735E+03</pdfrwt>
<totfact> 0.21915468E+03</totfact>
</mgrwt>
</event>
<event>
 6    4  0.5642870E-004  0.1278297E+03  0.7818608E-02  0.1230712E+00
          4   -1    0    0  502    0  0.00000000000E+00  0.00000000000E+00  0.88338005134E+01  0.89246250067E+01  0.12700000000E+01 0. -1.
         -4   -1    0    0    0  501 -0.00000000000E+00 -0.00000000000E+00 -0.70973409850E+03  0.70973523476E+03  0.12700000000E+01 0. -1.
         25    2    1    2    0    0  0.14657690402E+02  0.22367371194E+02 -0.63101824332E+03  0.64383574103E+03  0.12500116335E+03 0.  0.
    9000005    1    3    3    0    0 -0.10897193913E+02  0.63097153393E+02 -0.50338633679E+03  0.50744339948E+03  0.10000000000E+01 0.  0.
    9000005    1    3    3    0    0  0.25554884315E+02 -0.40729782198E+02 -0.12763190653E+03  0.13639234155E+03  0.10000000000E+01 0.  0.
         21    1    1    2  502  501 -0.14657690402E+02 -0.22367371194E+02 -0.69882054657E+02  0.74824118740E+02  0.00000000000E+00 0. -1.
<mgrwt>
<rscale>  1 0.12782972E+03</rscale>
<asrwt>0</asrwt>
<pdfrwt beam="1">  1        4 0.13661207E-02 0.12782972E+03</pdfrwt>
<pdfrwt beam="2">  1       -4 0.10919689E+00 0.12782972E+03</pdfrwt>
<totfact> 0.20677374E+03</totfact>
</mgrwt>
</event>
<event>
 6    4  0.5642870E-004  0.1346471E+03  0.7818608E-02  0.1220719E+00
         -4   -1    0    0    0  501 -0.00000000000E+00  0.00000000000E+00  0.27026237618E+02  0.27056060685E+02  0.12700000000E+01 0. -1.
          4   -1    0    0  502    0  0.00000000000E+00 -0.00000000000E+00 -0.32342666487E+03  0.32342915832E+03  0.12700000000E+01 0. -1.
         25    2    1    2    0    0 -0.16985338310E+02 -0.47077281859E+02 -0.18967674784E+03  0.23260936934E+03  0.12500031140E+03 0.  0.
    9000005    1    3    3    0    0 -0.37641472008E+02 -0.28810925939E+02 -0.19815154133E+03  0.20374489736E+03  0.10000000000E+01 0.  0.
    9000005    1    3    3    0    0  0.20656133698E+02 -0.18266355920E+02  0.84747934950E+01  0.28864471981E+02  0.10000000000E+01 0.  0.
         21    1    1    2  502  501  0.16985338310E+02  0.47077281859E+02 -0.10672367942E+03  0.11787584966E+03  0.00000000000E+00 0. -1.
<mgrwt>
<rscale>  1 0.13464713E+03</rscale>
<asrwt>0</asrwt>
<pdfrwt beam="2">  1        4 0.49760432E-01 0.13464713E+03</pdfrwt>
<pdfrwt beam="1">  1       -4 0.41603688E-02 0.13464713E+03</pdfrwt>
<totfact> 0.20648909E+03</totfact>
</mgrwt>
</event>
<event>
 6    4  0.5642870E-004  0.1634940E+03  0.7818608E-02  0.1184808E+00
          4   -1    0    0  502    0  0.00000000000E+00  0.00000000000E+00  0.15234335980E+03  0.15234865334E+03  0.12700000000E+01 0.  1.
         -4   -1    0    0    0  501 -0.00000000000E+00 -0.00000000000E+00 -0.11984719372E+03  0.11985392252E+03  0.12700000000E+01 0.  1.
         25    2    1    2    0    0  0.92080498435E+02  0.51257929102E+02  0.63283741153E+01  0.16361644957E+03  0.12499640300E+03 0.  0.
    9000005    1    3    3    0    0  0.43211118700E+02  0.11612680061E+02 -0.58239595768E+02  0.73450021325E+02  0.10000000000E+01 0.  0.
    9000005    1    3    3    0    0  0.48869379735E+02  0.39645249041E+02  0.64567969883E+02  0.90166428242E+02  0.10000000000E+01 0.  0.
         21    1    1    2  502  501 -0.92080498435E+02 -0.51257929102E+02  0.26167791964E+02  0.10858612630E+03  0.00000000000E+00 0.  1.
<mgrwt>
<rscale>  1 0.16349402E+03</rscale>
<asrwt>0</asrwt>
<pdfrwt beam="1">  1        4 0.23438365E-01 0.16349402E+03</pdfrwt>
<pdfrwt beam="2">  1       -4 0.18438955E-01 0.16349402E+03</pdfrwt>
<totfact> 0.75671682E+02</totfact>
</mgrwt>
</event>
<event>
 6    4  0.5642870E-004  0.1275205E+03  0.7818608E-02  0.1231182E+00
         -4   -1    0    0    0  501 -0.00000000000E+00  0.00000000000E+00  0.17647099184E+02  0.17692738895E+02  0.12700000000E+01 0. -1.
          4   -1    0    0  502    0  0.00000000000E+00 -0.00000000000E+00 -0.33031138374E+03  0.33031382522E+03  0.12700000000E+01 0. -1.
         25    2    1    2    0    0  0.18019721737E+02  0.17698337056E+02 -0.25846860490E+03  0.28821431379E+03  0.12499411764E+03 0.  0.
    9000005    1    3    3    0    0  0.35703458803E+02  0.40920258084E+02 -0.39137716104E+02  0.66947481760E+02  0.10000000000E+01 0.  0.
    9000005    1    3    3    0    0 -0.17683737066E+02 -0.23221921028E+02 -0.21933088880E+03  0.22126683203E+03  0.10000000000E+01 0.  0.
         21    1    1    2  502  501 -0.18019721737E+02 -0.17698337056E+02 -0.54195679655E+02  0.59792250328E+02  0.00000000000E+00 0. -1.
<mgrwt>
<rscale>  1 0.12752047E+03</rscale>
<asrwt>0</asrwt>
<pdfrwt beam="2">  1        4 0.50820830E-01 0.12752047E+03</pdfrwt>
<pdfrwt beam="1">  1       -4 0.27186371E-02 0.12752047E+03</pdfrwt>
<totfact> 0.38149791E+03</totfact>
</mgrwt>
</event>
<event>
 6    4  0.5642870E-004  0.1268379E+03  0.7818608E-02  0.1232225E+00
          4   -1    0    0  502    0  0.00000000000E+00  0.00000000000E+00  0.87330046761E+02  0.87339280780E+02  0.12700000000E+01 0.  1.
         -4   -1    0    0    0  501 -0.00000000000E+00 -0.00000000000E+00 -0.63718243414E+02  0.63730898659E+02  0.12700000000E+01 0.  1.
         25    2    1    2    0    0  0.17813034354E+02  0.12059541186E+02  0.14340755585E+02  0.12764606680E+03  0.12500049748E+03 0.  0.
    9000005    1    3    3    0    0  0.49038726625E+02 -0.16541265570E+02  0.50231050019E+02  0.72128833081E+02  0.10000000000E+01 0.  0.
    9000005    1    3    3    0    0 -0.31225692271E+02  0.28600806756E+02 -0.35890294433E+02  0.55517233715E+02  0.10000000000E+01 0.  0.
         21    1    1    2  502  501 -0.17813034354E+02 -0.12059541186E+02  0.92710477608E+01  0.23424112642E+02  0.00000000000E+00 0. -1.
<mgrwt>
<rscale>  1 0.12683793E+03</rscale>
<asrwt>0</asrwt>
<pdfrwt beam="1">  1        4 0.13437076E-01 0.12683793E+03</pdfrwt>
<pdfrwt beam="2">  1       -4 0.98044905E-02 0.12683793E+03</pdfrwt>
<totfact> 0.57488840E+03</totfact>
</mgrwt>
</event>
<event>
 6    4  0.5642870E-004  0.1313109E+03  0.7818608E-02  0.1225523E+00
          4   -1    0    0  502    0  0.00000000000E+00  0.00000000000E+00  0.21449099869E+02  0.21486665288E+02  0.12700000000E+01 0. -1.
         -4   -1    0    0    0  501 -0.00000000000E+00 -0.00000000000E+00 -0.34807334192E+03  0.34807565880E+03  0.12700000000E+01 0. -1.
         25    2    1    2    0    0  0.38187111415E+02  0.12565976345E+02 -0.26850840319E+03  0.29889684479E+03  0.12500560787E+03 0.  0.
    9000005    1    3    3    0    0 -0.28939707083E+02 -0.35636023230E+02 -0.12668162944E+03  0.13474668098E+03  0.10000000000E+01 0.  0.
    9000005    1    3    3    0    0  0.67126818498E+02  0.48201999576E+02 -0.14182677375E+03  0.16415016381E+03  0.10000000000E+01 0.  0.
         21    1    1    2  502  501 -0.38187111415E+02 -0.12565976345E+02 -0.58115838852E+02  0.70665479304E+02  0.00000000000E+00 0. -1.
<mgrwt>
<rscale>  1 0.13131093E+03</rscale>
<asrwt>0</asrwt>
<pdfrwt beam="1">  1        4 0.33029296E-02 0.13131093E+03</pdfrwt>
<pdfrwt beam="2">  1       -4 0.53552809E-01 0.13131093E+03</pdfrwt>
<totfact> 0.25448081E+03</totfact>
</mgrwt>
</event>
<event>
 6    4  0.5642870E-004  0.1285246E+03  0.7818608E-02  0.1229662E+00
          4   -1    0    0  502    0  0.00000000000E+00  0.00000000000E+00  0.13339680728E+03  0.13340285264E+03  0.12700000000E+01 0. -1.
         -4   -1    0    0    0  501 -0.00000000000E+00 -0.00000000000E+00 -0.47116878745E+02  0.47133991584E+02  0.12700000000E+01 0. -1.
         25    2    1    2    0    0  0.27258597034E+02  0.12205806414E+02  0.66448135081E+02  0.14468558408E+03  0.12500620289E+03 0.  0.
    9000005    1    3    3    0    0 -0.44247947145E+02 -0.21726466889E+02  0.27744656450E+02  0.56574606951E+02  0.10000000000E+01 0.  0.
    9000005    1    3    3    0    0  0.71506544180E+02  0.33932273303E+02  0.38703478631E+02  0.88110977126E+02  0.10000000000E+01 0.  0.
         21    1    1    2  502  501 -0.27258597034E+02 -0.12205806414E+02  0.19831793454E+02  0.35851260146E+02  0.00000000000E+00 0. -1.
<mgrwt>
<rscale>  1 0.12852456E+03</rscale>
<asrwt>0</asrwt>
<pdfrwt beam="1">  1        4 0.20524367E-01 0.12852456E+03</pdfrwt>
<pdfrwt beam="2">  1       -4 0.72505321E-02 0.12852456E+03</pdfrwt>
<totfact> 0.45138841E+03</totfact>
</mgrwt>
</event>
<event>
 6    4  0.5642870E-004  0.1270577E+03  0.7818608E-02  0.1231888E+00
          4   -1    0    0  502    0  0.00000000000E+00  0.00000000000E+00  0.13360335480E+02  0.13420561246E+02  0.12700000000E+01 0.  1.
         -4   -1    0    0    0  501 -0.00000000000E+00 -0.00000000000E+00 -0.51515723066E+03  0.51515879610E+03  0.12700000000E+01 0.  1.
         25    2    1    2    0    0  0.13428136637E+02  0.18340499258E+02 -0.48190609634E+03  0.49837451262E+03  0.12500792124E+03 0.  0.
    9000005    1    3    3    0    0  0.51361052125E+02 -0.12358326161E+02 -0.97623866785E+02  0.11100497857E+03  0.10000000000E+01 0.  0.
    9000005    1    3    3    0    0 -0.37932915488E+02  0.30698825419E+02 -0.38428222955E+03  0.38736953405E+03  0.10000000000E+01 0.  0.
         21    1    1    2  502  501 -0.13428136637E+02 -0.18340499258E+02 -0.19890798840E+02  0.30204844728E+02  0.00000000000E+00 0.  1.
<mgrwt>
<rscale>  1 0.12705774E+03</rscale>
<asrwt>0</asrwt>
<pdfrwt beam="1">  1        4 0.20601898E-02 0.12705774E+03</pdfrwt>
<pdfrwt beam="2">  1       -4 0.79259697E-01 0.12705774E+03</pdfrwt>
<totfact> 0.22838773E+03</totfact>
</mgrwt>
</event>
<event>
 6    4  0.5642870E-004  0.1393240E+03  0.7818608E-02  0.1214241E+00
         -4   -1    0    0    0  501 -0.00000000000E+00  0.00000000000E+00  0.35729131566E+03  0.35729357277E+03  0.12700000000E+01 0. -1.
          4   -1    0    0  502    0  0.00000000000E+00 -0.00000000000E+00 -0.35230910100E+03  0.35231139003E+03  0.12700000000E+01 0. -1.
         25    2    1    2    0    0 -0.51413725706E+02  0.33799997811E+02  0.34080940207E+03  0.36818775344E+03  0.12500144882E+03 0.  0.
    9000005    1    3    3    0    0 -0.52090430804E+01 -0.42980698993E+02  0.64344607008E+02  0.77560963550E+02  0.10000000000E+01 0.  0.
    9000005    1    3    3    0    0 -0.46204682626E+02  0.76780696804E+02  0.27646479506E+03  0.29062678989E+03  0.10000000000E+01 0.  0.
         21    1    1    2  502  501  0.51413725706E+02 -0.33799997811E+02 -0.33582718741E+03  0.34141720936E+03  0.00000000000E+00 0. -1.
<mgrwt>
<rscale>  1 0.13932399E+03</rscale>
<asrwt>0</asrwt>
<pdfrwt beam="2">  1        4 0.54201750E-01 0.13932399E+03</pdfrwt>
<pdfrwt beam="1">  1       -4 0.54968245E-01 0.13932399E+03</pdfrwt>
<totfact> 0.17840751E+01</totfact>
</mgrwt>
</event>
<event>
 6    4  0.5642870E-004  0.1278537E+03  0.7818608E-02  0.1230676E+00
         -4   -1    0    0    0  501 -0.00000000000E+00  0.00000000000E+00  0.31847643286E+02  0.31872955352E+02  0.12700000000E+01 0. -1.
          4   -1    0    0  502    0  0.00000000000E+00 -0.00000000000E+00 -0.37899855970E+03  0.37900068754E+03  0.12700000000E+01 0. -1.
         25    2    1    2    0    0 -0.16600957199E+02  0.21073568113E+02 -0.10011970462E+03  0.16239002843E+03  0.12500751589E+03 0.  0.
    9000005    1    3    3    0    0  0.53200314921E+02 -0.35806572463E+01 -0.34979675667E+02  0.63778306059E+02  0.10000000000E+01 0.  0.
    9000005    1    3    3    0    0 -0.69801272120E+02  0.24654225359E+02 -0.65140028952E+02  0.98611722374E+02  0.10000000000E+01 0.  0.
         21    1    1    2  502  501  0.16600957199E+02 -0.21073568113E+02 -0.24703121180E+03  0.24848361446E+03  0.00000000000E+00 0. -1.
<mgrwt>
<rscale>  1 0.12785369E+03</rscale>
<asrwt>0</asrwt>
<pdfrwt beam="2">  1        4 0.58309578E-01 0.12785369E+03</pdfrwt>
<pdfrwt beam="1">  1       -4 0.49017485E-02 0.12785369E+03</pdfrwt>
<totfact> 0.11329772E+03</totfact>
</mgrwt>
</event>
<event>
 6    4  0.5642870E-004  0.1280080E+03  0.7818608E-02  0.1230442E+00
         -4   -1    0    0    0  501 -0.00000000000E+00  0.00000000000E+00  0.38434670416E+03  0.38434880239E+03  0.12700000000E+01 0. -1.
          4   -1    0    0  502    0  0.00000000000E+00 -0.00000000000E+00 -0.15834192965E+02  0.15885042236E+02  0.12700000000E+01 0. -1.
         25    2    1    2    0    0  0.20090096540E+02  0.18877051324E+02  0.28908885959E+03  0.31616202129E+03  0.12500439960E+03 0.  0.
    9000005    1    3    3    0    0 -0.51073940270E+02 -0.73186315436E+01  0.10274805492E+03  0.11497944396E+03  0.10000000000E+01 0.  0.
    9000005    1    3    3    0    0  0.71164036811E+02  0.26195682867E+02  0.18634080467E+03  0.20118257733E+03  0.10000000000E+01 0.  0.
         21    1    1    2  502  501 -0.20090096540E+02 -0.18877051324E+02  0.79423651598E+02  0.84071823335E+02  0.00000000000E+00 0. -1.
<mgrwt>
<rscale>  1 0.12800803E+03</rscale>
<asrwt>0</asrwt>
<pdfrwt beam="2">  1        4 0.24401029E-02 0.12800803E+03</pdfrwt>
<pdfrwt beam="1">  1       -4 0.59134328E-01 0.12800803E+03</pdfrwt>
<totfact> 0.33032781E+03</totfact>
</mgrwt>
</event>
<event>
 6    4  0.5642870E-004  0.1278682E+03  0.7818608E-02  0.1230654E+00
         -4   -1    0    0    0  501 -0.00000000000E+00  0.00000000000E+00  0.50803327449E+02  0.50819198930E+02  0.12700000000E+01 0.  1.
          4   -1    0    0  502    0  0.00000000000E+00 -0.00000000000E+00 -0.16912757388E+03  0.16913234211E+03  0.12700000000E+01 0.  1.
         25    2    1    2    0    0  0.22881801342E+01  0.26961757584E+02 -0.35332384154E+02  0.13265995299E+03  0.12497245143E+03 0.  0.
    9000005    1    3    3    0    0  0.42951979907E+02  0.45120322042E+02 -0.55799308601E+02  0.83637783803E+02  0.10000000000E+01 0.  0.
    9000005    1    3    3    0    0 -0.40663799773E+02 -0.18158564458E+02  0.20466924446E+02  0.49022169183E+02  0.10000000000E+01 0.  0.
         21    1    1    2  502  501 -0.22881801342E+01 -0.26961757584E+02 -0.82991862280E+02  0.87291588054E+02  0.00000000000E+00 0. -1.
<mgrwt>
<rscale>  1 0.12786824E+03</rscale>
<asrwt>0</asrwt>
<pdfrwt beam="2">  1        4 0.26021214E-01 0.12786824E+03</pdfrwt>
<pdfrwt beam="1">  1       -4 0.78174843E-02 0.12786824E+03</pdfrwt>
<totfact> 0.25813912E+03</totfact>
</mgrwt>
</event>
<event>
 6    4  0.5642870E-004  0.1273392E+03  0.7818608E-02  0.1231458E+00
          4   -1    0    0  502    0  0.00000000000E+00  0.00000000000E+00  0.17377027887E+03  0.17377491970E+03  0.12700000000E+01 0.  1.
         -4   -1    0    0    0  501 -0.00000000000E+00 -0.00000000000E+00 -0.45882452394E+02  0.45900025465E+02  0.12700000000E+01 0.  1.
         25    2    1    2    0    0 -0.13225329720E+02  0.20054544375E+02  0.47723047466E+02  0.13598811293E+03  0.12505272289E+03 0.  0.
    9000005    1    3    3    0    0 -0.19793973859E+02  0.38928036850E+02  0.83931665225E+02  0.94618803002E+02  0.10000000000E+01 0.  0.
    9000005    1    3    3    0    0  0.65686441383E+01 -0.18873492475E+02 -0.36208617759E+02  0.41369309930E+02  0.10000000000E+01 0.  0.
         21    1    1    2  502  501  0.13225329720E+02 -0.20054544375E+02  0.80164779006E+02  0.83686832234E+02  0.00000000000E+00 0. -1.
<mgrwt>
<rscale>  1 0.12733922E+03</rscale>
<asrwt>0</asrwt>
<pdfrwt beam="1">  1        4 0.26735597E-01 0.12733922E+03</pdfrwt>
<pdfrwt beam="2">  1       -4 0.70605477E-02 0.12733922E+03</pdfrwt>
<totfact> 0.28999739E+03</totfact>
</mgrwt>
</event>
<event>
 6    4  0.5642870E-004  0.1266595E+03  0.7818608E-02  0.1232498E+00
         -4   -1    0    0    0  501 -0.00000000000E+00  0.00000000000E+00  0.51320513084E+02  0.51336224668E+02  0.12700000000E+01 0.  1.
          4   -1    0    0  502    0  0.00000000000E+00 -0.00000000000E+00 -0.10536925404E+03  0.10537690732E+03  0.12700000000E+01 0.  1.
         25    2    1    2    0    0 -0.15150927818E+02 -0.13716765017E+02 -0.46397365071E+02  0.13489012099E+03  0.12499971599E+03 0.  0.
    9000005    1    3    3    0    0  0.56887453287E+01  0.50728444466E+01  0.41712407814E+02  0.42414862252E+02  0.10000000000E+01 0.  0.
    9000005    1    3    3    0    0 -0.20839673147E+02 -0.18789609463E+02 -0.88109772885E+02  0.92475258737E+02  0.10000000000E+01 0.  0.
         21    1    1    2  502  501  0.15150927818E+02  0.13716765017E+02 -0.76513758849E+01  0.21823011002E+02  0.00000000000E+00 0. -1.
<mgrwt>
<rscale>  1 0.12665950E+03</rscale>
<asrwt>0</asrwt>
<pdfrwt beam="2">  1        4 0.16212452E-01 0.12665950E+03</pdfrwt>
<pdfrwt beam="1">  1       -4 0.78972608E-02 0.12665950E+03</pdfrwt>
<totfact> 0.59426622E+03</totfact>
</mgrwt>
</event>
<event>
 6    4  0.5642870E-004  0.1294571E+03  0.7818608E-02  0.1228263E+00
          4   -1    0    0  502    0  0.00000000000E+00  0.00000000000E+00  0.29632435970E+03  0.29632708120E+03  0.12700000000E+01 0. -1.
         -4   -1    0    0    0  501 -0.00000000000E+00 -0.00000000000E+00 -0.23404571805E+02  0.23439003421E+02  0.12700000000E+01 0. -1.
         25    2    1    2    0    0  0.31844695535E+02  0.10969987581E+02  0.18661384615E+03  0.22712084274E+03  0.12499889749E+03 0.  0.
    9000005    1    3    3    0    0  0.77453921774E+02  0.16808072915E+02  0.88774707585E+02  0.11901079791E+03  0.10000000000E+01 0.  0.
    9000005    1    3    3    0    0 -0.45609226239E+02 -0.58380853339E+01  0.97839138562E+02  0.10811004483E+03  0.10000000000E+01 0.  0.
         21    1    1    2  502  501 -0.31844695535E+02 -0.10969987581E+02  0.86305941750E+02  0.92645241878E+02  0.00000000000E+00 0. -1.
<mgrwt>
<rscale>  1 0.12945713E+03</rscale>
<asrwt>0</asrwt>
<pdfrwt beam="1">  1        4 0.45591221E-01 0.12945713E+03</pdfrwt>
<pdfrwt beam="2">  1       -4 0.36035612E-02 0.12945713E+03</pdfrwt>
<totfact> 0.30661248E+03</totfact>
</mgrwt>
</event>
<event>
 6    4  0.5642870E-004  0.1274968E+03  0.7818608E-02  0.1231218E+00
         -4   -1    0    0    0  501 -0.00000000000E+00  0.00000000000E+00  0.30495490934E+03  0.30495755382E+03  0.12700000000E+01 0. -1.
          4   -1    0    0  502    0  0.00000000000E+00 -0.00000000000E+00 -0.21044333321E+02  0.21082619973E+02  0.12700000000E+01 0. -1.
         25    2    1    2    0    0  0.24970865619E+02  0.26273200259E+01  0.26667274407E+03  0.29558381501E+03  0.12499996929E+03 0.  0.
    9000005    1    3    3    0    0  0.34738005631E+00 -0.24580109339E+02  0.25624354533E+03  0.25742194345E+03  0.10000000000E+01 0.  0.
    9000005    1    3    3    0    0  0.24623485562E+02  0.27207429364E+02  0.10429198740E+02  0.38161871550E+02  0.10000000000E+01 0.  0.
         21    1    1    2  502  501 -0.24970865619E+02 -0.26273200259E+01  0.17237831949E+02  0.30456358787E+02  0.00000000000E+00 0. -1.
<mgrwt>
<rscale>  1 0.12749682E+03</rscale>
<asrwt>0</asrwt>
<pdfrwt beam="2">  1        4 0.32407384E-02 0.12749682E+03</pdfrwt>
<pdfrwt beam="1">  1       -4 0.46919287E-01 0.12749682E+03</pdfrwt>
<totfact> 0.34078139E+03</totfact>
</mgrwt>
</event>
<event>
 6    4  0.5642870E-004  0.1298577E+03  0.7818608E-02  0.1227667E+00
          4   -1    0    0  502    0  0.00000000000E+00  0.00000000000E+00  0.10482770162E+03  0.10483539444E+03  0.12700000000E+01 0. -1.
         -4   -1    0    0    0  501 -0.00000000000E+00 -0.00000000000E+00 -0.75000952865E+02  0.75011704624E+02  0.12700000000E+01 0. -1.
         25    2    1    2    0    0 -0.24639148988E+02 -0.25113494751E+02 -0.55208059080E+01  0.12997501366E+03  0.12500099838E+03 0.  0.
    9000005    1    3    3    0    0  0.29668164707E+02  0.13348967140E+02 -0.42737642590E+02  0.53720582787E+02  0.10000000000E+01 0.  0.
    9000005    1    3    3    0    0 -0.54307313696E+02 -0.38462461890E+02  0.37216836682E+02  0.76254430875E+02  0.10000000000E+01 0.  0.
         21    1    1    2  502  501  0.24639148988E+02  0.25113494751E+02  0.35347554663E+02  0.49872085400E+02  0.00000000000E+00 0. -1.
<mgrwt>
<rscale>  1 0.12985771E+03</rscale>
<asrwt>0</asrwt>
<pdfrwt beam="1">  1        4 0.16128758E-01 0.12985771E+03</pdfrwt>
<pdfrwt beam="2">  1       -4 0.11540027E-01 0.12985771E+03</pdfrwt>
<totfact> 0.31941490E+03</totfact>
</mgrwt>
</event>
<event>
 6    4  0.5642870E-004  0.1277638E+03  0.7818608E-02  0.1230812E+00
          4   -1    0    0  502    0  0.00000000000E+00  0.00000000000E+00  0.33246525467E+02  0.33270773295E+02  0.12700000000E+01 0. -1.
         -4   -1    0    0    0  501 -0.00000000000E+00 -0.00000000000E+00 -0.19305351086E+03  0.19305768816E+03  0.12700000000E+01 0. -1.
         25    2    1    2    0    0  0.25666658446E+02 -0.63210157126E+01 -0.15241325474E+03  0.19888033131E+03  0.12499941346E+03 0.  0.
    9000005    1    3    3    0    0  0.19615499598E+02  0.48254783900E+02 -0.12910292062E+03  0.13921873475E+03  0.10000000000E+01 0.  0.
    9000005    1    3    3    0    0  0.60511588474E+01 -0.54575799612E+02 -0.23310334119E+02  0.59661596554E+02  0.10000000000E+01 0.  0.
         21    1    1    2  502  501 -0.25666658446E+02  0.63210157126E+01 -0.73937306582E+01  0.27448130145E+02  0.00000000000E+00 0. -1.
<mgrwt>
<rscale>  1 0.12776379E+03</rscale>
<asrwt>0</asrwt>
<pdfrwt beam="1">  1        4 0.51170367E-02 0.12776379E+03</pdfrwt>
<pdfrwt beam="2">  1       -4 0.29702726E-01 0.12776379E+03</pdfrwt>
<totfact> 0.40195953E+03</totfact>
</mgrwt>
</event>
<event>
 6    4  0.5642870E-004  0.1273111E+03  0.7818608E-02  0.1231501E+00
         -4   -1    0    0    0  501 -0.00000000000E+00  0.00000000000E+00  0.70824582985E+03  0.70824696850E+03  0.12700000000E+01 0.  1.
          4   -1    0    0  502    0  0.00000000000E+00 -0.00000000000E+00 -0.80572026555E+01  0.81566791424E+01  0.12700000000E+01 0.  1.
         25    2    1    2    0    0  0.17320161860E+02 -0.16809048968E+02  0.57816384787E+03  0.59201482619E+03  0.12500234924E+03 0.  0.
    9000005    1    3    3    0    0  0.69192901975E+02 -0.95688300295E+00  0.39379914047E+03  0.39983413604E+03  0.10000000000E+01 0.  0.
    9000005    1    3    3    0    0 -0.51872740115E+02 -0.15852165965E+02  0.18436470740E+03  0.19218069015E+03  0.10000000000E+01 0.  0.
         21    1    1    2  502  501 -0.17320161860E+02  0.16809048968E+02  0.12202477932E+03  0.12438882145E+03  0.00000000000E+00 0.  1.
<mgrwt>
<rscale>  1 0.12731111E+03</rscale>
<asrwt>0</asrwt>
<pdfrwt beam="2">  1        4 0.12473093E-02 0.12731111E+03</pdfrwt>
<pdfrwt beam="1">  1       -4 0.10896863E+00 0.12731111E+03</pdfrwt>
<totfact> 0.23829888E+03</totfact>
</mgrwt>
</event>
<event>
 6    4  0.5642870E-004  0.1325322E+03  0.7818608E-02  0.1223746E+00
         -4   -1    0    0    0  501 -0.00000000000E+00  0.00000000000E+00  0.61786891801E+02  0.61799942543E+02  0.12700000000E+01 0.  1.
          4   -1    0    0  502    0  0.00000000000E+00 -0.00000000000E+00 -0.13893635397E+03  0.13894215831E+03  0.12700000000E+01 0.  1.
         25    2    1    2    0    0 -0.22779970230E+02  0.37688492444E+02 -0.82909427677E+02  0.15632896418E+03  0.12500168934E+03 0.  0.
    9000005    1    3    3    0    0  0.44485229399E+02 -0.37766820156E+01 -0.58546748390E+02  0.73633692755E+02  0.10000000000E+01 0.  0.
    9000005    1    3    3    0    0 -0.67265199629E+02  0.41465174459E+02 -0.24362679287E+02  0.82695271426E+02  0.10000000000E+01 0.  0.
         21    1    1    2  502  501  0.22779970230E+02 -0.37688492444E+02  0.57599655036E+01  0.44413136671E+02  0.00000000000E+00 0.  1.
<mgrwt>
<rscale>  1 0.13253215E+03</rscale>
<asrwt>0</asrwt>
<pdfrwt beam="2">  1        4 0.21376274E-01 0.13253215E+03</pdfrwt>
<pdfrwt beam="1">  1       -4 0.95071261E-02 0.13253215E+03</pdfrwt>
<totfact> 0.26949191E+03</totfact>
</mgrwt>
</event>
<event>
 6    4  0.5642870E-004  0.1330514E+03  0.7818608E-02  0.1222997E+00
          4   -1    0    0  502    0  0.00000000000E+00  0.00000000000E+00  0.82165241128E+02  0.82175055520E+02  0.12700000000E+01 0.  1.
         -4   -1    0    0    0  501 -0.00000000000E+00 -0.00000000000E+00 -0.21473911467E+03  0.21474287012E+03  0.12700000000E+01 0.  1.
         25    2    1    2    0    0  0.75153349190E+01  0.45057363564E+02 -0.18468444949E+03  0.22762031821E+03  0.12496406327E+03 0.  0.
    9000005    1    3    3    0    0  0.16464336637E+02 -0.16765246080E+02  0.81709465516E+01  0.24898036561E+02  0.10000000000E+01 0.  0.
    9000005    1    3    3    0    0 -0.89490017184E+01  0.61822609644E+02 -0.19285539604E+03  0.20272228165E+03  0.10000000000E+01 0.  0.
         21    1    1    2  502  501 -0.75153349190E+01 -0.45057363564E+02  0.52110575948E+02  0.69297607433E+02  0.00000000000E+00 0.  1.
<mgrwt>
<rscale>  1 0.13305136E+03</rscale>
<asrwt>0</asrwt>
<pdfrwt beam="1">  1        4 0.12641850E-01 0.13305136E+03</pdfrwt>
<pdfrwt beam="2">  1       -4 0.33037831E-01 0.13305136E+03</pdfrwt>
<totfact> 0.73977609E+02</totfact>
</mgrwt>
</event>
<event>
 6    4  0.5642870E-004  0.1344697E+03  0.7818608E-02  0.1220970E+00
         -4   -1    0    0    0  501 -0.00000000000E+00  0.00000000000E+00  0.11071115312E+03  0.11071843715E+03  0.12700000000E+01 0.  1.
          4   -1    0    0  502    0  0.00000000000E+00 -0.00000000000E+00 -0.10799870832E+03  0.10800617528E+03  0.12700000000E+01 0.  1.
         25    2    1    2    0    0 -0.75055503735E+01 -0.48991314298E+02  0.56256038393E+02  0.14576298842E+03  0.12500249907E+03 0.  0.
    9000005    1    3    3    0    0 -0.31385144056E+02 -0.78544479399E+02  0.65100154786E+02  0.10673936792E+03  0.10000000000E+01 0.  0.
    9000005    1    3    3    0    0  0.23879593682E+02  0.29553165101E+02 -0.88441163932E+01  0.39023620497E+02  0.10000000000E+01 0.  0.
         21    1    1    2  502  501  0.75055503735E+01  0.48991314298E+02 -0.53543593591E+02  0.72961624007E+02  0.00000000000E+00 0.  1.
<mgrwt>
<rscale>  1 0.13446972E+03</rscale>
<asrwt>0</asrwt>
<pdfrwt beam="2">  1        4 0.16616321E-01 0.13446972E+03</pdfrwt>
<pdfrwt beam="1">  1       -4 0.17033620E-01 0.13446972E+03</pdfrwt>
<totfact> 0.15551979E+03</totfact>
</mgrwt>
</event>
<event>
 6    4  0.5642870E-004  0.1316757E+03  0.7818608E-02  0.1224990E+00
          4   -1    0    0  502    0  0.00000000000E+00  0.00000000000E+00  0.34068135299E+03  0.34068372015E+03  0.12700000000E+01 0.  1.
         -4   -1    0    0    0  501 -0.00000000000E+00 -0.00000000000E+00 -0.23812337205E+02  0.23846180054E+02  0.12700000000E+01 0.  1.
         25    2    1    2    0    0  0.41028587118E+02 -0.55129721929E+01  0.19070249503E+03  0.23174538009E+03  0.12499896703E+03 0.  0.
    9000005    1    3    3    0    0  0.35327037130E+02 -0.28667416729E+02  0.64589140507E+01  0.45962353127E+02  0.10000000000E+01 0.  0.
    9000005    1    3    3    0    0  0.57015499880E+01  0.23154444536E+02  0.18424358098E+03  0.18578302696E+03  0.10000000000E+01 0.  0.
         21    1    1    2  502  501 -0.41028587118E+02  0.55129721929E+01  0.12616652075E+03  0.13278452011E+03  0.00000000000E+00 0.  1.
<mgrwt>
<rscale>  1 0.13167566E+03</rscale>
<asrwt>0</asrwt>
<pdfrwt beam="1">  1        4 0.52415302E-01 0.13167566E+03</pdfrwt>
<pdfrwt beam="2">  1       -4 0.36662218E-02 0.13167566E+03</pdfrwt>
<totfact> 0.22576710E+03</totfact>
</mgrwt>
</event>
<event>
 6    4  0.5642870E-004  0.1336507E+03  0.7818608E-02  0.1222137E+00
          4   -1    0    0  502    0  0.00000000000E+00  0.00000000000E+00  0.12554871195E+02  0.12618941744E+02  0.12700000000E+01 0.  1.
         -4   -1    0    0    0  501 -0.00000000000E+00 -0.00000000000E+00 -0.66342891803E+03  0.66343013361E+03  0.12700000000E+01 0.  1.
         25    2    1    2    0    0  0.16950048050E+02  0.44167412127E+02 -0.51950343410E+03  0.53641991539E+03  0.12499777260E+03 0.  0.
    9000005    1    3    3    0    0 -0.34771549738E+02  0.39942913977E+02 -0.42763851862E+03  0.43090625390E+03  0.10000000000E+01 0.  0.
    9000005    1    3    3    0    0  0.51721597788E+02  0.42244981493E+01 -0.91864915485E+02  0.10551366148E+03  0.10000000000E+01 0.  0.
         21    1    1    2  502  501 -0.16950048050E+02 -0.44167412127E+02 -0.13137061273E+03  0.13962915996E+03  0.00000000000E+00 0.  1.
<mgrwt>
<rscale>  1 0.13365069E+03</rscale>
<asrwt>0</asrwt>
<pdfrwt beam="1">  1        4 0.19365412E-02 0.13365069E+03</pdfrwt>
<pdfrwt beam="2">  1       -4 0.10207098E+00 0.13365069E+03</pdfrwt>
<totfact> 0.14349155E+03</totfact>
</mgrwt>
</event>
<event>
 6    4  0.5642870E-004  0.1266572E+03  0.7818608E-02  0.1232502E+00
          4   -1    0    0  502    0  0.00000000000E+00  0.00000000000E+00  0.13334750101E+03  0.13335354860E+03  0.12700000000E+01 0. -1.
         -4   -1    0    0    0  501 -0.00000000000E+00 -0.00000000000E+00 -0.42085231167E+02  0.42104389110E+02  0.12700000000E+01 0. -1.
         25    2    1    2    0    0  0.77708324049E+01 -0.18879148372E+02  0.65513659602E+02  0.14259764239E+03  0.12500095976E+03 0.  0.
    9000005    1    3    3    0    0 -0.82124833205E+01 -0.60247360638E+02  0.75681953538E+02  0.97087318624E+02  0.10000000000E+01 0.  0.
    9000005    1    3    3    0    0  0.15983315725E+02  0.41368212266E+02 -0.10168293936E+02  0.45510323766E+02  0.10000000000E+01 0.  0.
         21    1    1    2  502  501 -0.77708324049E+01  0.18879148372E+02  0.25748610237E+02  0.32860295322E+02  0.00000000000E+00 0. -1.
<mgrwt>
<rscale>  1 0.12665721E+03</rscale>
<asrwt>0</asrwt>
<pdfrwt beam="1">  1        4 0.20516939E-01 0.12665721E+03</pdfrwt>
<pdfrwt beam="2">  1       -4 0.64765899E-02 0.12665721E+03</pdfrwt>
<totfact> 0.54136627E+03</totfact>
</mgrwt>
</event>
<event>
 6    4  0.5642870E-004  0.1271650E+03  0.7818608E-02  0.1231724E+00
         -4   -1    0    0    0  501 -0.00000000000E+00  0.00000000000E+00  0.30812087087E+03  0.30812348818E+03  0.12700000000E+01 0. -1.
          4   -1    0    0  502    0  0.00000000000E+00 -0.00000000000E+00 -0.39687107449E+02  0.39707422451E+02  0.12700000000E+01 0. -1.
         25    2    1    2    0    0  0.54998465136E+01  0.22726646462E+02  0.28960097895E+03  0.31629046383E+03  0.12499672688E+03 0.  0.
    9000005    1    3    3    0    0 -0.21720055149E+02 -0.47264657540E+02  0.11491632055E+03  0.12614463674E+03  0.10000000000E+01 0.  0.
    9000005    1    3    3    0    0  0.27219901663E+02  0.69991304002E+02  0.17468465839E+03  0.19014582709E+03  0.10000000000E+01 0.  0.
         21    1    1    2  502  501 -0.54998465136E+01 -0.22726646462E+02 -0.21167215526E+02  0.31540446797E+02  0.00000000000E+00 0. -1.
<mgrwt>
<rscale>  1 0.12716497E+03</rscale>
<asrwt>0</asrwt>
<pdfrwt beam="2">  1        4 0.61074728E-02 0.12716497E+03</pdfrwt>
<pdfrwt beam="1">  1       -4 0.47404975E-01 0.12716497E+03</pdfrwt>
<totfact> 0.12133622E+03</totfact>
</mgrwt>
</event>
<event>
 6    4  0.5642870E-004  0.1266931E+03  0.7818608E-02  0.1232447E+00
         -4   -1    0    0    0  501 -0.00000000000E+00  0.00000000000E+00  0.97587244196E+02  0.97595507734E+02  0.12700000000E+01 0. -1.
          4   -1    0    0  502    0  0.00000000000E+00 -0.00000000000E+00 -0.55721404285E+02  0.55735875300E+02  0.12700000000E+01 0. -1.
         25    2    1    2    0    0  0.20582745550E+02 -0.14215768781E+01  0.38599366166E+02  0.13244262659E+03  0.12500187188E+03 0.  0.
    9000005    1    3    3    0    0  0.93360185692E+01 -0.58345346285E+02  0.44689569714E+02  0.74091148709E+02  0.10000000000E+01 0.  0.
    9000005    1    3    3    0    0  0.11246726980E+02  0.56923769407E+02 -0.60902035476E+01  0.58351477877E+02  0.10000000000E+01 0.  0.
         21    1    1    2  502  501 -0.20582745550E+02  0.14215768781E+01  0.32664737451E+01  0.20888756447E+02  0.00000000000E+00 0. -1.
<mgrwt>
<rscale>  1 0.12669309E+03</rscale>
<asrwt>0</asrwt>
<pdfrwt beam="2">  1        4 0.85742726E-02 0.12669309E+03</pdfrwt>
<pdfrwt beam="1">  1       -4 0.15015171E-01 0.12669309E+03</pdfrwt>
<totfact> 0.59308197E+03</totfact>
</mgrwt>
</event>
<event>
 6    4  0.5642870E-004  0.1942107E+03  0.7818608E-02  0.1154717E+00
         -4   -1    0    0    0  501 -0.00000000000E+00  0.00000000000E+00  0.10958938187E+03  0.10959674046E+03  0.12700000000E+01 0.  1.
          4   -1    0    0  502    0  0.00000000000E+00 -0.00000000000E+00 -0.55061893660E+03  0.55062040123E+03  0.12700000000E+01 0.  1.
         25    2    1    2    0    0 -0.99166916374E+02  0.11072057060E+03  0.63536110569E+00  0.19421175551E+03  0.12499872095E+03 0.  0.
    9000005    1    3    3    0    0 -0.37697870302E+02 -0.11151719131E+02  0.35880877832E+02  0.53234647165E+02  0.10000000000E+01 0.  0.
    9000005    1    3    3    0    0 -0.61469046073E+02  0.12187228973E+03 -0.35245516726E+02  0.14097710835E+03  0.10000000000E+01 0.  0.
         21    1    1    2  502  501  0.99166916374E+02 -0.11072057060E+03 -0.44166491584E+03  0.46600538617E+03  0.00000000000E+00 0.  1.
<mgrwt>
<rscale>  1 0.19421072E+03</rscale>
<asrwt>0</asrwt>
<pdfrwt beam="2">  1        4 0.84711283E-01 0.19421072E+03</pdfrwt>
<pdfrwt beam="1">  1       -4 0.16860584E-01 0.19421072E+03</pdfrwt>
<totfact> 0.67828256E+01</totfact>
</mgrwt>
</event>
<event>
 6    4  0.5642870E-004  0.1283590E+03  0.7818608E-02  0.1229911E+00
          4   -1    0    0  502    0  0.00000000000E+00  0.00000000000E+00  0.48699350734E+02  0.48715907689E+02  0.12700000000E+01 0.  1.
         -4   -1    0    0    0  501 -0.00000000000E+00 -0.00000000000E+00 -0.18460885028E+03  0.18461321866E+03  0.12700000000E+01 0.  1.
         25    2    1    2    0    0  0.25149004011E+02  0.14751064990E+02 -0.15285908841E+03  0.19960443385E+03  0.12500385107E+03 0.  0.
    9000005    1    3    3    0    0 -0.46377412230E+02  0.20362541029E+02 -0.94065742656E+02  0.10684035466E+03  0.10000000000E+01 0.  0.
    9000005    1    3    3    0    0  0.71526416241E+02 -0.56114760388E+01 -0.58793345756E+02  0.92764079194E+02  0.10000000000E+01 0.  0.
         21    1    1    2  502  501 -0.25149004011E+02 -0.14751064990E+02  0.16949588863E+02  0.33724692492E+02  0.00000000000E+00 0.  1.
<mgrwt>
<rscale>  1 0.12835899E+03</rscale>
<asrwt>0</asrwt>
<pdfrwt beam="1">  1        4 0.74938175E-02 0.12835899E+03</pdfrwt>
<pdfrwt beam="2">  1       -4 0.28402971E-01 0.12835899E+03</pdfrwt>
<totfact> 0.23532079E+03</totfact>
</mgrwt>
</event>
<event>
 6    4  0.5642870E-004  0.1301233E+03  0.7818608E-02  0.1227273E+00
         -4   -1    0    0    0  501 -0.00000000000E+00  0.00000000000E+00  0.25230098916E+03  0.25230418552E+03  0.12700000000E+01 0.  1.
          4   -1    0    0  502    0  0.00000000000E+00 -0.00000000000E+00 -0.29592302543E+02  0.29619542025E+02  0.12700000000E+01 0.  1.
         25    2    1    2    0    0  0.35768384090E+02 -0.52486899227E+01  0.20193513490E+03  0.24022880582E+03  0.12500061757E+03 0.  0.
    9000005    1    3    3    0    0  0.56487352398E+02 -0.45783617117E+02  0.16915337830E+03  0.18412176940E+03  0.10000000000E+01 0.  0.
    9000005    1    3    3    0    0 -0.20718968307E+02  0.40534927194E+02  0.32781756605E+02  0.56107036425E+02  0.10000000000E+01 0.  0.
         21    1    1    2  502  501 -0.35768384090E+02  0.52486899227E+01  0.20773551712E+02  0.41694921718E+02  0.00000000000E+00 0.  1.
<mgrwt>
<rscale>  1 0.13012333E+03</rscale>
<asrwt>0</asrwt>
<pdfrwt beam="2">  1        4 0.45550033E-02 0.13012333E+03</pdfrwt>
<pdfrwt beam="1">  1       -4 0.38817877E-01 0.13012333E+03</pdfrwt>
<totfact> 0.29101414E+03</totfact>
</mgrwt>
</event>
<event>
 6    4  0.5642870E-004  0.1288429E+03  0.7818608E-02  0.1229183E+00
         -4   -1    0    0    0  501 -0.00000000000E+00  0.00000000000E+00  0.29441837098E+03  0.29442111010E+03  0.12700000000E+01 0.  1.
          4   -1    0    0  502    0  0.00000000000E+00 -0.00000000000E+00 -0.23973548721E+02  0.24007164311E+02  0.12700000000E+01 0.  1.
         25    2    1    2    0    0  0.28494415251E+02  0.12826279206E+02  0.24951900642E+03  0.28082063014E+03  0.12499618638E+03 0.  0.
    9000005    1    3    3    0    0  0.70072978816E+02  0.30406218262E+02  0.10810189074E+03  0.13236985779E+03  0.10000000000E+01 0.  0.
    9000005    1    3    3    0    0 -0.41578563565E+02 -0.17579939056E+02  0.14141711568E+03  0.14845077235E+03  0.10000000000E+01 0.  0.
         21    1    1    2  502  501 -0.28494415251E+02 -0.12826279206E+02  0.20925815838E+02  0.37607644266E+02  0.00000000000E+00 0. -1.
<mgrwt>
<rscale>  1 0.12884290E+03</rscale>
<asrwt>0</asrwt>
<pdfrwt beam="2">  1        4 0.36910347E-02 0.12884290E+03</pdfrwt>
<pdfrwt beam="1">  1       -4 0.45297931E-01 0.12884290E+03</pdfrwt>
<totfact> 0.29871702E+03</totfact>
</mgrwt>
</event>
<event>
 6    4  0.5642870E-004  0.1274812E+03  0.7818608E-02  0.1231242E+00
          4   -1    0    0  502    0  0.00000000000E+00  0.00000000000E+00  0.39269878249E+02  0.39290408978E+02  0.12700000000E+01 0. -1.
         -4   -1    0    0    0  501 -0.00000000000E+00 -0.00000000000E+00 -0.27650069308E+03  0.27650360970E+03  0.12700000000E+01 0. -1.
         25    2    1    2    0    0 -0.13204227708E+02 -0.21294488356E+02 -0.25499083395E+03  0.28508204800E+03  0.12499456721E+03 0.  0.
    9000005    1    3    3    0    0 -0.37606931928E+02 -0.27710342389E+01 -0.25140579692E+03  0.25422005169E+03  0.10000000000E+01 0.  0.
    9000005    1    3    3    0    0  0.24402704220E+02 -0.18523454117E+02 -0.35850370340E+01  0.30861996309E+02  0.10000000000E+01 0.  0.
         21    1    1    2  502  501  0.13204227708E+02  0.21294488356E+02  0.17760019115E+02  0.30711970673E+02  0.00000000000E+00 0. -1.
<mgrwt>
<rscale>  1 0.12748117E+03</rscale>
<asrwt>0</asrwt>
<pdfrwt beam="1">  1        4 0.60433236E-02 0.12748117E+03</pdfrwt>
<pdfrwt beam="2">  1       -4 0.42540370E-01 0.12748117E+03</pdfrwt>
<totfact> 0.15336567E+03</totfact>
</mgrwt>
</event>
<event>
 6    4  0.5642870E-004  0.1296416E+03  0.7818608E-02  0.1227988E+00
          4   -1    0    0  502    0  0.00000000000E+00  0.00000000000E+00  0.10773404569E+02  0.10848001936E+02  0.12700000000E+01 0.  1.
         -4   -1    0    0    0  501 -0.00000000000E+00 -0.00000000000E+00 -0.12642956609E+04  0.12642962988E+04  0.12700000000E+01 0.  1.
         25    2    1    2    0    0 -0.20431826154E+02  0.27667945387E+02 -0.12208217863E+04  0.12276859457E+04  0.12499589030E+03 0.  0.
    9000005    1    3    3    0    0 -0.14960966765E+02  0.77176234610E+02 -0.82608607510E+03  0.82981877853E+03  0.10000000000E+01 0.  0.
    9000005    1    3    3    0    0 -0.54708593887E+01 -0.49508289223E+02 -0.39473571120E+03  0.39786716715E+03  0.10000000000E+01 0.  0.
         21    1    1    2  502  501  0.20431826154E+02 -0.27667945387E+02 -0.32700470056E+02  0.47458355047E+02  0.00000000000E+00 0.  1.
<mgrwt>
<rscale>  1 0.12964161E+03</rscale>
<asrwt>0</asrwt>
<pdfrwt beam="1">  1        4 0.16632352E-02 0.12964161E+03</pdfrwt>
<pdfrwt beam="2">  1       -4 0.19451269E+00 0.12964161E+03</pdfrwt>
<totfact> 0.35420879E+02</totfact>
</mgrwt>
</event>
<event>
 6    4  0.5642870E-004  0.1265948E+03  0.7818608E-02  0.1232598E+00
          4   -1    0    0  502    0  0.00000000000E+00  0.00000000000E+00  0.67200896784E+02  0.67212896296E+02  0.12700000000E+01 0.  1.
         -4   -1    0    0    0  501 -0.00000000000E+00 -0.00000000000E+00 -0.83115210898E+02  0.83124913128E+02  0.12700000000E+01 0.  1.
         25    2    1    2    0    0  0.12580431428E+02  0.15592959705E+02 -0.23789246423E+02  0.12881056608E+03  0.12499930416E+03 0.  0.
    9000005    1    3    3    0    0  0.62657969001E+02 -0.10461852024E+02  0.79713286662E+01  0.64031347853E+02  0.10000000000E+01 0.  0.
    9000005    1    3    3    0    0 -0.50077537573E+02  0.26054811729E+02 -0.31760575090E+02  0.64779218223E+02  0.10000000000E+01 0.  0.
         21    1    1    2  502  501 -0.12580431428E+02 -0.15592959705E+02  0.78749323094E+01  0.21527243348E+02  0.00000000000E+00 0. -1.
<mgrwt>
<rscale>  1 0.12659476E+03</rscale>
<asrwt>0</asrwt>
<pdfrwt beam="1">  1        4 0.10340269E-01 0.12659476E+03</pdfrwt>
<pdfrwt beam="2">  1       -4 0.12788625E-01 0.12659476E+03</pdfrwt>
<totfact> 0.57207839E+03</totfact>
</mgrwt>
</event>
<event>
 6    4  0.5642870E-004  0.1267091E+03  0.7818608E-02  0.1232422E+00
          4   -1    0    0  502    0  0.00000000000E+00  0.00000000000E+00  0.30677779523E+03  0.30678042399E+03  0.12700000000E+01 0.  1.
         -4   -1    0    0    0  501 -0.00000000000E+00 -0.00000000000E+00 -0.17868174077E+02  0.17913250538E+02  0.12700000000E+01 0.  1.
         25    2    1    2    0    0  0.88024005042E+01  0.18788155024E+02  0.25844291633E+03  0.28783316549E+03  0.12499885252E+03 0.  0.
    9000005    1    3    3    0    0  0.65348686431E+02  0.13846993541E+02  0.17090150561E+03  0.18349527151E+03  0.10000000000E+01 0.  0.
    9000005    1    3    3    0    0 -0.56546285927E+02  0.49411614827E+01  0.87541410725E+02  0.10433789398E+03  0.10000000000E+01 0.  0.
         21    1    1    2  502  501 -0.88024005042E+01 -0.18788155024E+02  0.30466704818E+02  0.36860509035E+02  0.00000000000E+00 0.  1.
<mgrwt>
<rscale>  1 0.12670908E+03</rscale>
<asrwt>0</asrwt>
<pdfrwt beam="1">  1        4 0.47200256E-01 0.12670908E+03</pdfrwt>
<pdfrwt beam="2">  1       -4 0.27526194E-02 0.12670908E+03</pdfrwt>
<totfact> 0.43398807E+03</totfact>
</mgrwt>
</event>
<event>
 6    4  0.5642870E-004  0.1278542E+03  0.7818608E-02  0.1230675E+00
          4   -1    0    0  502    0  0.00000000000E+00  0.00000000000E+00  0.24521024035E+03  0.24521352913E+03  0.12700000000E+01 0.  1.
         -4   -1    0    0    0  501 -0.00000000000E+00 -0.00000000000E+00 -0.33568522015E+02  0.33592537420E+02  0.12700000000E+01 0.  1.
         25    2    1    2    0    0  0.19548591619E+02 -0.18417622330E+02  0.95458450760E+02  0.15955881120E+03  0.12500136864E+03 0.  0.
    9000005    1    3    3    0    0  0.40409011252E+02  0.17559334373E+02 -0.10862404286E+02  0.45389538893E+02  0.10000000000E+01 0.  0.
    9000005    1    3    3    0    0 -0.20860419634E+02 -0.35976956703E+02  0.10632085505E+03  0.11416927231E+03  0.10000000000E+01 0.  0.
         21    1    1    2  502  501 -0.19548591619E+02  0.18417622330E+02  0.11618326757E+03  0.11924725535E+03  0.00000000000E+00 0.  1.
<mgrwt>
<rscale>  1 0.12785421E+03</rscale>
<asrwt>0</asrwt>
<pdfrwt beam="1">  1        4 0.37726752E-01 0.12785421E+03</pdfrwt>
<pdfrwt beam="2">  1       -4 0.51664884E-02 0.12785421E+03</pdfrwt>
<totfact> 0.25035668E+03</totfact>
</mgrwt>
</event>
<event>
 6    4  0.5642870E-004  0.1377588E+03  0.7818608E-02  0.1216377E+00
          4   -1    0    0  502    0  0.00000000000E+00  0.00000000000E+00  0.21663540587E+03  0.21663912845E+03  0.12700000000E+01 0.  1.
         -4   -1    0    0    0  501 -0.00000000000E+00 -0.00000000000E+00 -0.51902782515E+02  0.51918317893E+02  0.12700000000E+01 0.  1.
         25    2    1    2    0    0  0.30657791062E+02 -0.49116319968E+02  0.62952348636E+02  0.15146117244E+03  0.12500070207E+03 0.  0.
    9000005    1    3    3    0    0  0.48822920300E+02 -0.99960334424E+01  0.88317997274E+02  0.10141334663E+03  0.10000000000E+01 0.  0.
    9000005    1    3    3    0    0 -0.18165129238E+02 -0.39120286526E+02 -0.25365648638E+02  0.50047825816E+02  0.10000000000E+01 0.  0.
         21    1    1    2  502  501 -0.30657791062E+02  0.49116319968E+02  0.10178027472E+03  0.11709627390E+03  0.00000000000E+00 0.  1.
<mgrwt>
<rscale>  1 0.13775881E+03</rscale>
<asrwt>0</asrwt>
<pdfrwt beam="1">  1        4 0.33330006E-01 0.13775881E+03</pdfrwt>
<pdfrwt beam="2">  1       -4 0.79865248E-02 0.13775881E+03</pdfrwt>
<totfact> 0.15892385E+03</totfact>
</mgrwt>
</event>
<event>
 6    4  0.5642870E-004  0.1268204E+03  0.7818608E-02  0.1232251E+00
         -4   -1    0    0    0  501 -0.00000000000E+00  0.00000000000E+00  0.84390030310E+03  0.84390125873E+03  0.12700000000E+01 0. -1.
          4   -1    0    0  502    0  0.00000000000E+00 -0.00000000000E+00 -0.94561523513E+01  0.95410543071E+01  0.12700000000E+01 0. -1.
         25    2    1    2    0    0 -0.16547504143E+02  0.13562781570E+02  0.81409906072E+03  0.82391788881E+03  0.12500255156E+03 0.  0.
    9000005    1    3    3    0    0 -0.36756684102E+02 -0.18107539018E+02  0.90560421197E+02  0.99403856479E+02  0.10000000000E+01 0.  0.
    9000005    1    3    3    0    0  0.20209179959E+02  0.31670320589E+02  0.72353863952E+03  0.72451403233E+03  0.10000000000E+01 0.  0.
         21    1    1    2  502  501  0.16547504143E+02 -0.13562781570E+02  0.20345090031E+02  0.29524424222E+02  0.00000000000E+00 0. -1.
<mgrwt>
<rscale>  1 0.12682037E+03</rscale>
<asrwt>0</asrwt>
<pdfrwt beam="2">  1        4 0.14613970E-02 0.12682037E+03</pdfrwt>
<pdfrwt beam="1">  1       -4 0.12983743E+00 0.12682037E+03</pdfrwt>
<totfact> 0.12307943E+03</totfact>
</mgrwt>
</event>
<event>
 6    4  0.5642870E-004  0.1576663E+03  0.7818608E-02  0.1191357E+00
          4   -1    0    0  502    0  0.00000000000E+00  0.00000000000E+00  0.31911318236E+03  0.31911570951E+03  0.12700000000E+01 0.  1.
         -4   -1    0    0    0  501 -0.00000000000E+00 -0.00000000000E+00 -0.50541430172E+02  0.50557383870E+02  0.12700000000E+01 0.  1.
         25    2    1    2    0    0  0.13068443649E+02  0.95196362430E+02  0.15858487459E+03  0.22362431768E+03  0.12500216546E+03 0.  0.
    9000005    1    3    3    0    0 -0.54225364989E+02  0.23457403696E+02  0.65152051716E+02  0.87956977205E+02  0.10000000000E+01 0.  0.
    9000005    1    3    3    0    0  0.67293808639E+02  0.71738958734E+02  0.93432822870E+02  0.13566734047E+03  0.10000000000E+01 0.  0.
         21    1    1    2  502  501 -0.13068443649E+02 -0.95196362430E+02  0.10998687760E+03  0.14604877570E+03  0.00000000000E+00 0.  1.
<mgrwt>
<rscale>  1 0.15766633E+03</rscale>
<asrwt>0</asrwt>
<pdfrwt beam="1">  1        4 0.49095756E-01 0.15766633E+03</pdfrwt>
<pdfrwt beam="2">  1       -4 0.77770264E-02 0.15766633E+03</pdfrwt>
<totfact> 0.79453533E+02</totfact>
</mgrwt>
</event>
<event>
 6    4  0.5642870E-004  0.1353003E+03  0.7818608E-02  0.1219796E+00
         -4   -1    0    0    0  501 -0.00000000000E+00  0.00000000000E+00  0.25434561572E+03  0.25434878638E+03  0.12700000000E+01 0.  1.
          4   -1    0    0  502    0  0.00000000000E+00 -0.00000000000E+00 -0.46291897348E+02  0.46309315047E+02  0.12700000000E+01 0.  1.
         25    2    1    2    0    0 -0.25325656360E+02 -0.45159770991E+02  0.20888423534E+03  0.24887505841E+03  0.12500150854E+03 0.  0.
    9000005    1    3    3    0    0 -0.14341331916E+02 -0.21974236394E+01 -0.14850713768E+02  0.20785720368E+02  0.10000000000E+01 0.  0.
    9000005    1    3    3    0    0 -0.10984324444E+02 -0.42962347352E+02  0.22373494911E+03  0.22808933804E+03  0.10000000000E+01 0.  0.
         21    1    1    2  502  501  0.25325656360E+02  0.45159770991E+02 -0.83051697601E+00  0.51783043021E+02  0.00000000000E+00 0.  1.
<mgrwt>
<rscale>  1 0.13530030E+03</rscale>
<asrwt>0</asrwt>
<pdfrwt beam="2">  1        4 0.71234138E-02 0.13530030E+03</pdfrwt>
<pdfrwt beam="1">  1       -4 0.39131680E-01 0.13530030E+03</pdfrwt>
<totfact> 0.14006913E+03</totfact>
</mgrwt>
</event>
<event>
 6    4  0.5642870E-004  0.1269057E+03  0.7818608E-02  0.1232121E+00
          4   -1    0    0  502    0  0.00000000000E+00  0.00000000000E+00  0.13919775327E+02  0.13977590821E+02  0.12700000000E+01 0.  1.
         -4   -1    0    0    0  501 -0.00000000000E+00 -0.00000000000E+00 -0.44076303956E+03  0.44076486922E+03  0.12700000000E+01 0.  1.
         25    2    1    2    0    0 -0.15305555746E+02  0.15675614074E+02 -0.40230793101E+03  0.42184918581E+03  0.12500031722E+03 0.  0.
    9000005    1    3    3    0    0  0.46973077842E+02 -0.23125996593E+02 -0.14014273452E+03  0.14960704461E+03  0.10000000000E+01 0.  0.
    9000005    1    3    3    0    0 -0.62278633588E+02  0.38801610667E+02 -0.26216519649E+03  0.27224214120E+03  0.10000000000E+01 0.  0.
         21    1    1    2  502  501  0.15305555746E+02 -0.15675614074E+02 -0.24535333221E+02  0.32893274230E+02  0.00000000000E+00 0.  1.
<mgrwt>
<rscale>  1 0.12690573E+03</rscale>
<asrwt>0</asrwt>
<pdfrwt beam="1">  1        4 0.21460923E-02 0.12690573E+03</pdfrwt>
<pdfrwt beam="2">  1       -4 0.67814276E-01 0.12690573E+03</pdfrwt>
<totfact> 0.30085851E+03</totfact>
</mgrwt>
</event>
<event>
 6    4  0.5642870E-004  0.1293234E+03  0.7818608E-02  0.1228463E+00
         -4   -1    0    0    0  501 -0.00000000000E+00  0.00000000000E+00  0.48721545858E+02  0.48738095272E+02  0.12700000000E+01 0.  1.
          4   -1    0    0  502    0  0.00000000000E+00 -0.00000000000E+00 -0.13798073346E+03  0.13798657799E+03  0.12700000000E+01 0.  1.
         25    2    1    2    0    0  0.32110849862E+02  0.82977053202E+01 -0.60280671042E+02  0.14268250013E+03  0.12499831179E+03 0.  0.
    9000005    1    3    3    0    0  0.62867163864E+02 -0.36415886425E+02 -0.47843144043E+02  0.86996341925E+02  0.10000000000E+01 0.  0.
    9000005    1    3    3    0    0 -0.30756314002E+02  0.44713591746E+02 -0.12437526999E+02  0.55686158205E+02  0.10000000000E+01 0.  0.
         21    1    1    2  502  501 -0.32110849862E+02 -0.82977053202E+01 -0.28978516561E+02  0.44042173136E+02  0.00000000000E+00 0.  1.
<mgrwt>
<rscale>  1 0.12932338E+03</rscale>
<asrwt>0</asrwt>
<pdfrwt beam="2">  1        4 0.21229528E-01 0.12932338E+03</pdfrwt>
<pdfrwt beam="1">  1       -4 0.74973451E-02 0.12932338E+03</pdfrwt>
<totfact> 0.40253815E+03</totfact>
</mgrwt>
</event>
<event>
 6    4  0.5642870E-004  0.1307197E+03  0.7818608E-02  0.1226392E+00
         -4   -1    0    0    0  501 -0.00000000000E+00  0.00000000000E+00  0.60961778975E+03  0.60961911263E+03  0.12700000000E+01 0.  1.
          4   -1    0    0  502    0  0.00000000000E+00 -0.00000000000E+00 -0.11726992331E+02  0.11795560569E+02  0.12700000000E+01 0.  1.
         25    2    1    2    0    0  0.10854155750E+02 -0.36694136261E+02  0.47907949731E+03  0.49659321123E+03  0.12499352130E+03 0.  0.
    9000005    1    3    3    0    0  0.43196621638E+02 -0.33108241528E+02  0.44893937818E+03  0.45222745280E+03  0.10000000000E+01 0.  0.
    9000005    1    3    3    0    0 -0.32342465888E+02 -0.35858947327E+01  0.30140119125E+02  0.44365758437E+02  0.10000000000E+01 0.  0.
         21    1    1    2  502  501 -0.10854155750E+02  0.36694136261E+02  0.11881130011E+03  0.12482146196E+03  0.00000000000E+00 0.  1.
<mgrwt>
<rscale>  1 0.13071975E+03</rscale>
<asrwt>0</asrwt>
<pdfrwt beam="2">  1        4 0.18095288E-02 0.13071975E+03</pdfrwt>
<pdfrwt beam="1">  1       -4 0.93792732E-01 0.13071975E+03</pdfrwt>
<totfact> 0.19248515E+03</totfact>
</mgrwt>
</event>
<event>
 6    4  0.5642870E-004  0.1318054E+03  0.7818608E-02  0.1224801E+00
          4   -1    0    0  502    0  0.00000000000E+00  0.00000000000E+00  0.13261907063E+03  0.13262515144E+03  0.12700000000E+01 0.  1.
         -4   -1    0    0    0  501 -0.00000000000E+00 -0.00000000000E+00 -0.58635863354E+02  0.58649615270E+02  0.12700000000E+01 0.  1.
         25    2    1    2    0    0 -0.14619932221E+02 -0.39168988485E+02  0.41039995278E+02  0.13804688592E+03  0.12499883768E+03 0.  0.
    9000005    1    3    3    0    0 -0.58978666391E+01 -0.11637102300E+01 -0.44035750905E+02  0.44455442975E+02  0.10000000000E+01 0.  0.
    9000005    1    3    3    0    0 -0.87220655816E+01 -0.38005278255E+02  0.85075746183E+02  0.93591442941E+02  0.10000000000E+01 0.  0.
         21    1    1    2  502  501  0.14619932221E+02  0.39168988485E+02  0.32943211996E+02  0.53227880793E+02  0.00000000000E+00 0.  1.
<mgrwt>
<rscale>  1 0.13180539E+03</rscale>
<asrwt>0</asrwt>
<pdfrwt beam="1">  1        4 0.20404459E-01 0.13180539E+03</pdfrwt>
<pdfrwt beam="2">  1       -4 0.90224279E-02 0.13180539E+03</pdfrwt>
<totfact> 0.31954035E+03</totfact>
</mgrwt>
</event>
<event>
 6    4  0.5642870E-004  0.1458882E+03  0.7818608E-02  0.1205619E+00
         -4   -1    0    0    0  501 -0.00000000000E+00  0.00000000000E+00  0.10032116409E+03  0.10032920245E+03  0.12700000000E+01 0. -1.
          4   -1    0    0  502    0  0.00000000000E+00 -0.00000000000E+00 -0.12200131767E+03  0.12200792766E+03  0.12700000000E+01 0. -1.
         25    2    1    2    0    0 -0.47009646841E+02 -0.58724182177E+02 -0.10209450508E+02  0.14624499190E+03  0.12499971323E+03 0.  0.
    9000005    1    3    3    0    0  0.18417886274E+02  0.29260363644E+02 -0.11910790551E+02  0.36582158861E+02  0.10000000000E+01 0.  0.
    9000005    1    3    3    0    0 -0.65427533115E+02 -0.87984545821E+02  0.17013400426E+01  0.10966283304E+03  0.10000000000E+01 0.  0.
         21    1    1    2  502  501  0.47009646841E+02  0.58724182177E+02 -0.11470703069E+02  0.76092138210E+02  0.00000000000E+00 0. -1.
<mgrwt>
<rscale>  1 0.14588819E+03</rscale>
<asrwt>0</asrwt>
<pdfrwt beam="2">  1        4 0.18770560E-01 0.14588819E+03</pdfrwt>
<pdfrwt beam="1">  1       -4 0.15435152E-01 0.14588819E+03</pdfrwt>
<totfact> 0.15158998E+03</totfact>
</mgrwt>
</event>
<event>
 6    4  0.5642870E-004  0.1289944E+03  0.7818608E-02  0.1228955E+00
          4   -1    0    0  502    0  0.00000000000E+00  0.00000000000E+00  0.37053368690E+02  0.37075126855E+02  0.12700000000E+01 0. -1.
         -4   -1    0    0    0  501 -0.00000000000E+00 -0.00000000000E+00 -0.40273257056E+03  0.40273457300E+03  0.12700000000E+01 0. -1.
         25    2    1    2    0    0  0.42071359953E+01  0.31580781193E+02 -0.38258242685E+03  0.40374358350E+03  0.12499808856E+03 0.  0.
    9000005    1    3    3    0    0  0.29476000217E+02  0.44150358004E+02 -0.36828078055E+03  0.37208845994E+03  0.10000000000E+01 0.  0.
    9000005    1    3    3    0    0 -0.25268864221E+02 -0.12569576811E+02 -0.14301646304E+02  0.31655123554E+02  0.10000000000E+01 0.  0.
         21    1    1    2  502  501 -0.42071359953E+01 -0.31580781193E+02  0.16903224986E+02  0.36066116355E+02  0.00000000000E+00 0. -1.
<mgrwt>
<rscale>  1 0.12899445E+03</rscale>
<asrwt>0</asrwt>
<pdfrwt beam="1">  1        4 0.57023463E-02 0.12899445E+03</pdfrwt>
<pdfrwt beam="2">  1       -4 0.61960682E-01 0.12899445E+03</pdfrwt>
<totfact> 0.78319524E+02</totfact>
</mgrwt>
</event>
<event>
 6    4  0.5642870E-004  0.1332566E+03  0.7818608E-02  0.1222702E+00
         -4   -1    0    0    0  501 -0.00000000000E+00  0.00000000000E+00  0.12372337547E+03  0.12372989346E+03  0.12700000000E+01 0. -1.
          4   -1    0    0  502    0  0.00000000000E+00 -0.00000000000E+00 -0.65660295680E+02  0.65672576688E+02  0.12700000000E+01 0. -1.
         25    2    1    2    0    0 -0.22139850692E+02 -0.40527307831E+02  0.51011841542E+02  0.14268678082E+03  0.12499869510E+03 0.  0.
    9000005    1    3    3    0    0 -0.19647323734E+02 -0.76059079357E+02  0.67356566489E+02  0.10348385348E+03  0.10000000000E+01 0.  0.
    9000005    1    3    3    0    0 -0.24925269577E+01  0.35531771527E+02 -0.16344724947E+02  0.39202927341E+02  0.10000000000E+01 0.  0.
         21    1    1    2  502  501  0.22139850692E+02  0.40527307831E+02  0.70512382439E+01  0.46715689328E+02  0.00000000000E+00 0. -1.
<mgrwt>
<rscale>  1 0.13325655E+03</rscale>
<asrwt>0</asrwt>
<pdfrwt beam="2">  1        4 0.10103030E-01 0.13325655E+03</pdfrwt>
<pdfrwt beam="1">  1       -4 0.19035811E-01 0.13325655E+03</pdfrwt>
<totfact> 0.30015123E+03</totfact>
</mgrwt>
</event>
<event>
 6    4  0.5642870E-004  0.1286847E+03  0.7818608E-02  0.1229421E+00
         -4   -1    0    0    0  501 -0.00000000000E+00  0.00000000000E+00  0.26211755147E+02  0.26242503842E+02  0.12700000000E+01 0. -1.
          4   -1    0    0  502    0  0.00000000000E+00 -0.00000000000E+00 -0.17206399342E+04  0.17206404029E+04  0.12700000000E+01 0. -1.
         25    2    1    2    0    0  0.28209499001E+02 -0.11790689037E+02 -0.13267585541E+03  0.18483133378E+03  0.12499977262E+03 0.  0.
    9000005    1    3    3    0    0  0.36757068945E+02 -0.38790635850E+02 -0.14454295599E+03  0.15410860350E+03  0.10000000000E+01 0.  0.
    9000005    1    3    3    0    0 -0.85475699432E+01  0.26999946812E+02  0.11867100572E+02  0.30722730279E+02  0.10000000000E+01 0.  0.
         21    1    1    2  502  501 -0.28209499001E+02  0.11790689037E+02 -0.15617523237E+04  0.15620515730E+04  0.00000000000E+00 0. -1.
<mgrwt>
<rscale>  1 0.12868465E+03</rscale>
<asrwt>0</asrwt>
<pdfrwt beam="2">  1        4 0.26471615E+00 0.12868465E+03</pdfrwt>
<pdfrwt beam="1">  1       -4 0.40349804E-02 0.12868465E+03</pdfrwt>
<totfact> 0.34256823E+01</totfact>
</mgrwt>
</event>
<event>
 6    4  0.5642870E-004  0.1287420E+03  0.7818608E-02  0.1229334E+00
          4   -1    0    0  502    0  0.00000000000E+00  0.00000000000E+00  0.89135018510E+02  0.89144065561E+02  0.12700000000E+01 0. -1.
         -4   -1    0    0    0  501 -0.00000000000E+00 -0.00000000000E+00 -0.76726588965E+02  0.76737098943E+02  0.12700000000E+01 0. -1.
         25    2    1    2    0    0  0.25464527504E+02 -0.17366591188E+02 -0.78759677847E+01  0.12898268993E+03  0.12499785112E+03 0.  0.
    9000005    1    3    3    0    0 -0.38741410076E+02  0.14676667399E+01 -0.39158545353E+02  0.55112998235E+02  0.10000000000E+01 0.  0.
    9000005    1    3    3    0    0  0.64205937581E+02 -0.18834257928E+02  0.31282577568E+02  0.73869691698E+02  0.10000000000E+01 0.  0.
         21    1    1    2  502  501 -0.25464527504E+02  0.17366591188E+02  0.20284397330E+02  0.36898474569E+02  0.00000000000E+00 0.  1.
<mgrwt>
<rscale>  1 0.12874200E+03</rscale>
<asrwt>0</asrwt>
<pdfrwt beam="1">  1        4 0.13714584E-01 0.12874200E+03</pdfrwt>
<pdfrwt beam="2">  1       -4 0.11805595E-01 0.12874200E+03</pdfrwt>
<totfact> 0.40675074E+03</totfact>
</mgrwt>
</event>
<event>
 6    4  0.5642870E-004  0.1267447E+03  0.7818608E-02  0.1232368E+00
          4   -1    0    0  502    0  0.00000000000E+00  0.00000000000E+00  0.65557019906E+02  0.65569320257E+02  0.12700000000E+01 0. -1.
         -4   -1    0    0    0  501 -0.00000000000E+00 -0.00000000000E+00 -0.85387627002E+02  0.85397071056E+02  0.12700000000E+01 0. -1.
         25    2    1    2    0    0  0.20872589203E+02 -0.23443689977E+01 -0.25337847895E+02  0.12925255362E+03  0.12499221990E+03 0.  0.
    9000005    1    3    3    0    0 -0.10818961325E+02 -0.58050727054E+02  0.30765905911E+01  0.59138838721E+02  0.10000000000E+01 0.  0.
    9000005    1    3    3    0    0  0.31691550528E+02  0.55706358056E+02 -0.28414438486E+02  0.70113714901E+02  0.10000000000E+01 0.  0.
         21    1    1    2  502  501 -0.20872589203E+02  0.23443689977E+01  0.55072407994E+01  0.21713837690E+02  0.00000000000E+00 0. -1.
<mgrwt>
<rscale>  1 0.12674469E+03</rscale>
<asrwt>0</asrwt>
<pdfrwt beam="1">  1        4 0.10087368E-01 0.12674469E+03</pdfrwt>
<pdfrwt beam="2">  1       -4 0.13138231E-01 0.12674469E+03</pdfrwt>
<totfact> 0.56959475E+03</totfact>
</mgrwt>
</event>
<event>
 6    4  0.5642870E-004  0.1366454E+03  0.7818608E-02  0.1217915E+00
          4   -1    0    0  502    0  0.00000000000E+00  0.00000000000E+00  0.35613620589E+02  0.35636257820E+02  0.12700000000E+01 0.  1.
         -4   -1    0    0    0  501 -0.00000000000E+00 -0.00000000000E+00 -0.32684628453E+03  0.32684875189E+03  0.12700000000E+01 0.  1.
         25    2    1    2    0    0  0.30011759884E+02  0.46323445740E+02 -0.27135660449E+03  0.30381964432E+03  0.12500160847E+03 0.  0.
    9000005    1    3    3    0    0 -0.10306121363E+02  0.81984077124E+02 -0.17175111584E+03  0.19059656564E+03  0.10000000000E+01 0.  0.
    9000005    1    3    3    0    0  0.40317881246E+02 -0.35660631384E+02 -0.99605488649E+02  0.11322307869E+03  0.10000000000E+01 0.  0.
         21    1    1    2  502  501 -0.30011759884E+02 -0.46323445740E+02 -0.19876059455E+02  0.58665365387E+02  0.00000000000E+00 0.  1.
<mgrwt>
<rscale>  1 0.13664542E+03</rscale>
<asrwt>0</asrwt>
<pdfrwt beam="1">  1        4 0.54809499E-02 0.13664542E+03</pdfrwt>
<pdfrwt beam="2">  1       -4 0.50285973E-01 0.13664542E+03</pdfrwt>
<totfact> 0.13031258E+03</totfact>
</mgrwt>
</event>
<event>
 6    4  0.5642870E-004  0.1335140E+03  0.7818608E-02  0.1222333E+00
         -4   -1    0    0    0  501 -0.00000000000E+00  0.00000000000E+00  0.32615020305E+03  0.32615267568E+03  0.12700000000E+01 0. -1.
          4   -1    0    0  502    0  0.00000000000E+00 -0.00000000000E+00 -0.25159352642E+02  0.25191385936E+02  0.12700000000E+01 0. -1.
         25    2    1    2    0    0  0.39141757971E+02 -0.25857721959E+02  0.23667909548E+03  0.27174066454E+03  0.12500118212E+03 0.  0.
    9000005    1    3    3    0    0  0.32677389089E+02  0.47732133231E+02  0.12627307241E+03  0.13889584989E+03  0.10000000000E+01 0.  0.
    9000005    1    3    3    0    0  0.64643688825E+01 -0.73589855190E+02  0.11040602307E+03  0.13284481466E+03  0.10000000000E+01 0.  0.
         21    1    1    2  502  501 -0.39141757971E+02  0.25857721959E+02  0.64311754934E+02  0.79603397068E+02  0.00000000000E+00 0. -1.
<mgrwt>
<rscale>  1 0.13351402E+03</rscale>
<asrwt>0</asrwt>
<pdfrwt beam="2">  1        4 0.38733239E-02 0.13351402E+03</pdfrwt>
<pdfrwt beam="1">  1       -4 0.50179609E-01 0.13351402E+03</pdfrwt>
<totfact> 0.22697021E+03</totfact>
</mgrwt>
</event>
<event>
 6    4  0.5642870E-004  0.1341314E+03  0.7818608E-02  0.1221451E+00
          4   -1    0    0  502    0  0.00000000000E+00  0.00000000000E+00  0.38329804059E+02  0.38350838051E+02  0.12700000000E+01 0. -1.
         -4   -1    0    0    0  501 -0.00000000000E+00 -0.00000000000E+00 -0.42743355011E+03  0.42743543683E+03  0.12700000000E+01 0. -1.
         25    2    1    2    0    0 -0.25382086853E+02  0.41498801083E+02 -0.39465408734E+03  0.41682499311E+03  0.12499930161E+03 0.  0.
    9000005    1    3    3    0    0 -0.38010347984E+02 -0.37669566001E+02 -0.17462973818E+03  0.18264809940E+03  0.10000000000E+01 0.  0.
    9000005    1    3    3    0    0  0.12628261131E+02  0.79168367085E+02 -0.22002434916E+03  0.23417689371E+03  0.10000000000E+01 0.  0.
         21    1    1    2  502  501  0.25382086853E+02 -0.41498801083E+02  0.55503412894E+01  0.48961281772E+02  0.00000000000E+00 0. -1.
<mgrwt>
<rscale>  1 0.13413138E+03</rscale>
<asrwt>0</asrwt>
<pdfrwt beam="1">  1        4 0.58986564E-02 0.13413138E+03</pdfrwt>
<pdfrwt beam="2">  1       -4 0.65760768E-01 0.13413138E+03</pdfrwt>
<totfact> 0.65874706E+02</totfact>
</mgrwt>
</event>
<event>
 6    4  0.5642870E-004  0.2234677E+03  0.7818608E-02  0.1131324E+00
         -4   -1    0    0    0  501 -0.00000000000E+00  0.00000000000E+00  0.31244628628E+03  0.31244886735E+03  0.12700000000E+01 0.  1.
          4   -1    0    0  502    0  0.00000000000E+00 -0.00000000000E+00 -0.15421395858E+03  0.15421918792E+03  0.12700000000E+01 0.  1.
         25    2    1    2    0    0  0.13217847279E+03  0.12977446319E+03  0.17041380273E+03  0.28103145247E+03  0.12500101259E+03 0.  0.
    9000005    1    3    3    0    0  0.21502594142E+02 -0.22206820064E+02  0.46543090269E+02  0.55881693460E+02  0.10000000000E+01 0.  0.
    9000005    1    3    3    0    0  0.11067587865E+03  0.15198128326E+03  0.12387071246E+03  0.22514975901E+03  0.10000000000E+01 0.  0.
         21    1    1    2  502  501 -0.13217847279E+03 -0.12977446319E+03 -0.12181475029E+02  0.18563660281E+03  0.00000000000E+00 0.  1.
<mgrwt>
<rscale>  1 0.22346770E+03</rscale>
<asrwt>0</asrwt>
<pdfrwt beam="2">  1        4 0.23725825E-01 0.22346770E+03</pdfrwt>
<pdfrwt beam="1">  1       -4 0.48069260E-01 0.22346770E+03</pdfrwt>
<totfact> 0.12520401E+02</totfact>
</mgrwt>
</event>
<event>
 6    4  0.5642870E-004  0.1474516E+03  0.7818608E-02  0.1203640E+00
          4   -1    0    0  502    0  0.00000000000E+00  0.00000000000E+00  0.38433991568E+03  0.38434201395E+03  0.12700000000E+01 0. -1.
         -4   -1    0    0    0  501 -0.00000000000E+00 -0.00000000000E+00 -0.46054786467E+02  0.46072293806E+02  0.12700000000E+01 0. -1.
         25    2    1    2    0    0 -0.64838870633E+02 -0.43737165950E+02  0.96321835201E+02  0.17612460195E+03  0.12499984257E+03 0.  0.
    9000005    1    3    3    0    0 -0.34913987459E+02 -0.42283823491E+02 -0.18168084843E+02  0.57775319611E+02  0.10000000000E+01 0.  0.
    9000005    1    3    3    0    0 -0.29924883175E+02 -0.14533424590E+01  0.11448992004E+03  0.11834928233E+03  0.10000000000E+01 0.  0.
         21    1    1    2  502  501  0.64838870633E+02  0.43737165950E+02  0.24196329401E+03  0.25428970581E+03  0.00000000000E+00 0. -1.
<mgrwt>
<rscale>  1 0.14745162E+03</rscale>
<asrwt>0</asrwt>
<pdfrwt beam="1">  1        4 0.59130728E-01 0.14745162E+03</pdfrwt>
<pdfrwt beam="2">  1       -4 0.70868597E-02 0.14745162E+03</pdfrwt>
<totfact> 0.62249207E+02</totfact>
</mgrwt>
</event>
<event>
 6    4  0.5642870E-004  0.1296740E+03  0.7818608E-02  0.1227940E+00
         -4   -1    0    0    0  501 -0.00000000000E+00  0.00000000000E+00  0.26951977142E+02  0.26981882289E+02  0.12700000000E+01 0. -1.
          4   -1    0    0  502    0  0.00000000000E+00 -0.00000000000E+00 -0.24989874022E+03  0.24990196730E+03  0.12700000000E+01 0. -1.
         25    2    1    2    0    0 -0.30550330159E+02  0.16030430021E+02 -0.17438445561E+03  0.21731376427E+03  0.12500014568E+03 0.  0.
    9000005    1    3    3    0    0  0.23455336332E+02 -0.42622614201E+02 -0.81275600894E+02  0.94728893926E+02  0.10000000000E+01 0.  0.
    9000005    1    3    3    0    0 -0.54005666491E+02  0.58653044221E+02 -0.93108854719E+02  0.12258487034E+03  0.10000000000E+01 0.  0.
         21    1    1    2  502  501  0.30550330159E+02 -0.16030430021E+02 -0.48562307461E+02  0.59570085323E+02  0.00000000000E+00 0. -1.
<mgrwt>
<rscale>  1 0.12967395E+03</rscale>
<asrwt>0</asrwt>
<pdfrwt beam="2">  1        4 0.38448507E-01 0.12967395E+03</pdfrwt>
<pdfrwt beam="1">  1       -4 0.41490068E-02 0.12967395E+03</pdfrwt>
<totfact> 0.34379245E+03</totfact>
</mgrwt>
</event>
<event>
 6    4  0.5642870E-004  0.1278468E+03  0.7818608E-02  0.1230686E+00
          4   -1    0    0  502    0  0.00000000000E+00  0.00000000000E+00  0.63362681169E+03  0.63362808444E+03  0.12700000000E+01 0. -1.
         -4   -1    0    0    0  501 -0.00000000000E+00 -0.00000000000E+00 -0.12429619408E+02  0.12494332260E+02  0.12700000000E+01 0. -1.
         25    2    1    2    0    0 -0.26577065667E+02  0.37230748009E+01  0.33332297601E+03  0.35700000992E+03  0.12499839617E+03 0.  0.
    9000005    1    3    3    0    0 -0.26463510094E+02  0.34335140996E+01  0.34462073767E+03  0.34565381413E+03  0.10000000000E+01 0.  0.
    9000005    1    3    3    0    0 -0.11355557369E+00  0.28956070129E+00 -0.11297761669E+02  0.11346195794E+02  0.10000000000E+01 0.  0.
         21    1    1    2  502  501  0.26577065667E+02 -0.37230748009E+01  0.28787421627E+03  0.28912240678E+03  0.00000000000E+00 0. -1.
<mgrwt>
<rscale>  1 0.12784679E+03</rscale>
<asrwt>0</asrwt>
<pdfrwt beam="1">  1        4 0.97486121E-01 0.12784679E+03</pdfrwt>
<pdfrwt beam="2">  1       -4 0.19173250E-02 0.12784679E+03</pdfrwt>
<totfact> 0.16044036E+03</totfact>
</mgrwt>
</event>
<event>
 6    4  0.5642870E-004  0.1273301E+03  0.7818608E-02  0.1231472E+00
          4   -1    0    0  502    0  0.00000000000E+00  0.00000000000E+00  0.18590746791E+02  0.18634075406E+02  0.12700000000E+01 0.  1.
         -4   -1    0    0    0  501 -0.00000000000E+00 -0.00000000000E+00 -0.38609370522E+03  0.38609579395E+03  0.12700000000E+01 0.  1.
         25    2    1    2    0    0  0.18727101444E+02  0.15399058359E+02 -0.35562200040E+03  0.37773000842E+03  0.12500046708E+03 0.  0.
    9000005    1    3    3    0    0 -0.18892471664E+02 -0.42082859774E+02 -0.22965872046E+03  0.23424777578E+03  0.10000000000E+01 0.  0.
    9000005    1    3    3    0    0  0.37619573108E+02  0.57481918132E+02 -0.12596327993E+03  0.14348223264E+03  0.10000000000E+01 0.  0.
         21    1    1    2  502  501 -0.18727101444E+02 -0.15399058359E+02 -0.11880958028E+02  0.26999860934E+02  0.00000000000E+00 0. -1.
<mgrwt>
<rscale>  1 0.12733009E+03</rscale>
<asrwt>0</asrwt>
<pdfrwt beam="1">  1        4 0.28636088E-02 0.12733009E+03</pdfrwt>
<pdfrwt beam="2">  1       -4 0.59402519E-01 0.12733009E+03</pdfrwt>
<totfact> 0.25476849E+03</totfact>
</mgrwt>
</event>
<event>
 6    4  0.5642870E-004  0.1367065E+03  0.7818608E-02  0.1217831E+00
          4   -1    0    0  502    0  0.00000000000E+00  0.00000000000E+00  0.19189907963E+03  0.19190328205E+03  0.12700000000E+01 0.  1.
         -4   -1    0    0    0  501 -0.00000000000E+00 -0.00000000000E+00 -0.48258871547E+02  0.48275579572E+02  0.12700000000E+01 0.  1.
         25    2    1    2    0    0  0.25373127616E+02  0.49191913648E+02  0.94785495540E+02  0.16635188206E+03  0.12500007411E+03 0.  0.
    9000005    1    3    3    0    0  0.34655133303E+02 -0.25048069656E+02  0.79066699595E+02  0.89893976676E+02  0.10000000000E+01 0.  0.
    9000005    1    3    3    0    0 -0.92820056868E+01  0.74239983303E+02  0.15718795944E+02  0.76457905388E+02  0.10000000000E+01 0.  0.
         21    1    1    2  502  501 -0.25373127616E+02 -0.49191913648E+02  0.48854712541E+02  0.73826979559E+02  0.00000000000E+00 0.  1.
<mgrwt>
<rscale>  1 0.13670647E+03</rscale>
<asrwt>0</asrwt>
<pdfrwt beam="1">  1        4 0.29524544E-01 0.13670647E+03</pdfrwt>
<pdfrwt beam="2">  1       -4 0.74260502E-02 0.13670647E+03</pdfrwt>
<totfact> 0.22532659E+03</totfact>
</mgrwt>
</event>
<event>
 6    4  0.5642870E-004  0.1309883E+03  0.7818608E-02  0.1225997E+00
         -4   -1    0    0    0  501 -0.00000000000E+00  0.00000000000E+00  0.23244614687E+03  0.23244961625E+03  0.12700000000E+01 0. -1.
          4   -1    0    0  502    0  0.00000000000E+00 -0.00000000000E+00 -0.52127270954E+02  0.52142739448E+02  0.12700000000E+01 0. -1.
         25    2    1    2    0    0  0.37712020616E+02  0.10524083359E+02  0.20130477453E+03  0.24016983021E+03  0.12499992907E+03 0.  0.
    9000005    1    3    3    0    0 -0.93450988785E+01  0.38290757629E+00 -0.15473910775E+02  0.18108545108E+02  0.10000000000E+01 0.  0.
    9000005    1    3    3    0    0  0.47057119494E+02  0.10141175782E+02  0.21677868530E+03  0.22206128511E+03  0.10000000000E+01 0.  0.
         21    1    1    2  502  501 -0.37712020616E+02 -0.10524083359E+02 -0.20985898615E+02  0.44422525481E+02  0.00000000000E+00 0. -1.
<mgrwt>
<rscale>  1 0.13098830E+03</rscale>
<asrwt>0</asrwt>
<pdfrwt beam="2">  1        4 0.80210368E-02 0.13098830E+03</pdfrwt>
<pdfrwt beam="1">  1       -4 0.35762403E-01 0.13098830E+03</pdfrwt>
<totfact> 0.13627958E+03</totfact>
</mgrwt>
</event>
<event>
 6    4  0.5642870E-004  0.1270682E+03  0.7818608E-02  0.1231872E+00
         -4   -1    0    0    0  501 -0.00000000000E+00  0.00000000000E+00  0.51220672344E+03  0.51220829790E+03  0.12700000000E+01 0. -1.
          4   -1    0    0  502    0  0.00000000000E+00 -0.00000000000E+00 -0.19799071677E+02  0.19839761573E+02  0.12700000000E+01 0. -1.
         25    2    1    2    0    0 -0.21841973846E+02 -0.66865606676E+01  0.49308585864E+03  0.50919544738E+03  0.12499823088E+03 0.  0.
    9000005    1    3    3    0    0  0.13983063700E+02  0.64684841933E+01  0.45502560473E+03  0.45528745680E+03  0.10000000000E+01 0.  0.
    9000005    1    3    3    0    0 -0.35825037546E+02 -0.13155044861E+02  0.38060253911E+02  0.53907990579E+02  0.10000000000E+01 0.  0.
         21    1    1    2  502  501  0.21841973846E+02  0.66865606676E+01 -0.67820687765E+00  0.22852612096E+02  0.00000000000E+00 0. -1.
<mgrwt>
<rscale>  1 0.12706825E+03</rscale>
<asrwt>0</asrwt>
<pdfrwt beam="2">  1        4 0.30492624E-02 0.12706825E+03</pdfrwt>
<pdfrwt beam="1">  1       -4 0.78804278E-01 0.12706825E+03</pdfrwt>
<totfact> 0.12584728E+03</totfact>
</mgrwt>
</event>
<event>
 6    4  0.5642870E-004  0.1332847E+03  0.7818608E-02  0.1222662E+00
          4   -1    0    0  502    0  0.00000000000E+00  0.00000000000E+00  0.52794799053E+03  0.52794951804E+03  0.12700000000E+01 0.  1.
         -4   -1    0    0    0  501 -0.00000000000E+00 -0.00000000000E+00 -0.15460073218E+02  0.15512148913E+02  0.12700000000E+01 0.  1.
         25    2    1    2    0    0  0.30595412865E+02 -0.34719693689E+02  0.35025985152E+03  0.37476228418E+03  0.12499307837E+03 0.  0.
    9000005    1    3    3    0    0 -0.26581643880E+02  0.17004383609E+02  0.24392505954E+02  0.39896455983E+02  0.10000000000E+01 0.  0.
    9000005    1    3    3    0    0  0.57177056745E+02 -0.51724077297E+02  0.32586734557E+03  0.33486582820E+03  0.10000000000E+01 0.  0.
         21    1    1    2  502  501 -0.30595412865E+02  0.34719693689E+02  0.16222806579E+03  0.16869938277E+03  0.00000000000E+00 0.  1.
<mgrwt>
<rscale>  1 0.13328468E+03</rscale>
<asrwt>0</asrwt>
<pdfrwt beam="1">  1        4 0.81226889E-01 0.13328468E+03</pdfrwt>
<pdfrwt beam="2">  1       -4 0.23825962E-02 0.13328468E+03</pdfrwt>
<totfact> 0.17471682E+03</totfact>
</mgrwt>
</event>
<event>
 6    4  0.5642870E-004  0.1275900E+03  0.7818608E-02  0.1231076E+00
         -4   -1    0    0    0  501 -0.00000000000E+00  0.00000000000E+00  0.37101274755E+02  0.37123004842E+02  0.12700000000E+01 0.  1.
          4   -1    0    0  502    0  0.00000000000E+00 -0.00000000000E+00 -0.16370018326E+03  0.16370510957E+03  0.12700000000E+01 0.  1.
         25    2    1    2    0    0 -0.17041693724E+02  0.19079293129E+02 -0.89851084586E+02  0.15605266004E+03  0.12499910621E+03 0.  0.
    9000005    1    3    3    0    0 -0.57097890727E+02  0.16502947922E+01 -0.11145260677E+01  0.57141357760E+02  0.10000000000E+01 0.  0.
    9000005    1    3    3    0    0  0.40056197003E+02  0.17428998336E+02 -0.88736558518E+02  0.98911302281E+02  0.10000000000E+01 0.  0.
         21    1    1    2  502  501  0.17041693724E+02 -0.19079293129E+02 -0.36747823916E+02  0.44775454367E+02  0.00000000000E+00 0. -1.
<mgrwt>
<rscale>  1 0.12759003E+03</rscale>
<asrwt>0</asrwt>
<pdfrwt beam="2">  1        4 0.25186694E-01 0.12759003E+03</pdfrwt>
<pdfrwt beam="1">  1       -4 0.57099390E-02 0.12759003E+03</pdfrwt>
<totfact> 0.45794819E+03</totfact>
</mgrwt>
</event>
<event>
 6    4  0.5642870E-004  0.1270412E+03  0.7818608E-02  0.1231913E+00
         -4   -1    0    0    0  501 -0.00000000000E+00  0.00000000000E+00  0.72779974005E+01  0.73879730753E+01  0.12700000000E+01 0. -1.
          4   -1    0    0  502    0  0.00000000000E+00 -0.00000000000E+00 -0.88274777868E+03  0.88274869225E+03  0.12700000000E+01 0. -1.
         25    2    1    2    0    0  0.15055265988E+02  0.16992924527E+02 -0.57775597386E+03  0.59155848185E+03  0.12499620634E+03 0.  0.
    9000005    1    3    3    0    0  0.45831253378E+02 -0.40712342318E+02 -0.30067669948E+03  0.30686393762E+03  0.10000000000E+01 0.  0.
    9000005    1    3    3    0    0 -0.30775987390E+02  0.57705266845E+02 -0.27707927438E+03  0.28469454422E+03  0.10000000000E+01 0.  0.
         21    1    1    2  502  501 -0.15055265988E+02 -0.16992924527E+02 -0.29771380742E+03  0.29857818347E+03  0.00000000000E+00 0. -1.
<mgrwt>
<rscale>  1 0.12704122E+03</rscale>
<asrwt>0</asrwt>
<pdfrwt beam="2">  1        4 0.13581580E+00 0.12704122E+03</pdfrwt>
<pdfrwt beam="1">  1       -4 0.11282225E-02 0.12704122E+03</pdfrwt>
<totfact> 0.16317266E+03</totfact>
</mgrwt>
</event>
<event>
 6    4  0.5642870E-004  0.1268397E+03  0.7818608E-02  0.1232222E+00
          4   -1    0    0  502    0  0.00000000000E+00  0.00000000000E+00  0.67065142346E+01  0.68257038596E+01  0.12700000000E+01 0. -1.
         -4   -1    0    0    0  501 -0.00000000000E+00 -0.00000000000E+00 -0.12872213408E+04  0.12872219673E+04  0.12700000000E+01 0. -1.
         25    2    1    2    0    0 -0.11108120672E+02 -0.18424172368E+02 -0.12515825060E+04  0.12579932727E+04  0.12500185798E+03 0.  0.
    9000005    1    3    3    0    0  0.13084113514E+01 -0.16284367101E+02 -0.12420613688E+04  0.12421692060E+04  0.10000000000E+01 0.  0.
    9000005    1    3    3    0    0 -0.12416532023E+02 -0.21398052670E+01 -0.95211372030E+01  0.15824066725E+02  0.10000000000E+01 0.  0.
         21    1    1    2  502  501  0.11108120672E+02  0.18424172368E+02 -0.28932320635E+02  0.36054398478E+02  0.00000000000E+00 0.  1.
<mgrwt>
<rscale>  1 0.12683968E+03</rscale>
<asrwt>0</asrwt>
<pdfrwt beam="1">  1        4 0.10409891E-02 0.12683968E+03</pdfrwt>
<pdfrwt beam="2">  1       -4 0.19804307E+00 0.12683968E+03</pdfrwt>
<totfact> 0.68247936E+02</totfact>
</mgrwt>
</event>
<event>
 6    4  0.5642870E-004  0.1277460E+03  0.7818608E-02  0.1230839E+00
         -4   -1    0    0    0  501 -0.00000000000E+00  0.00000000000E+00  0.14426782698E+03  0.14427341682E+03  0.12700000000E+01 0. -1.
          4   -1    0    0  502    0  0.00000000000E+00 -0.00000000000E+00 -0.45438065772E+02  0.45455810641E+02  0.12700000000E+01 0. -1.
         25    2    1    2    0    0 -0.18906867627E+02  0.18333890428E+02  0.10163447176E+03  0.16324399416E+03  0.12500173838E+03 0.  0.
    9000005    1    3    3    0    0  0.93332839437E+01 -0.12678189431E+02  0.11737705460E+03  0.11843234196E+03  0.10000000000E+01 0.  0.
    9000005    1    3    3    0    0 -0.28240151571E+02  0.31012079859E+02 -0.15742582844E+02  0.44811652196E+02  0.10000000000E+01 0.  0.
         21    1    1    2  502  501  0.18906867627E+02 -0.18333890428E+02 -0.28047105512E+01  0.26485233300E+02  0.00000000000E+00 0. -1.
<mgrwt>
<rscale>  1 0.12774598E+03</rscale>
<asrwt>0</asrwt>
<pdfrwt beam="2">  1        4 0.69922667E-02 0.12774598E+03</pdfrwt>
<pdfrwt beam="1">  1       -4 0.22196845E-01 0.12774598E+03</pdfrwt>
<totfact> 0.41511675E+03</totfact>
</mgrwt>
</event>
<event>
 6    4  0.5642870E-004  0.1271833E+03  0.7818608E-02  0.1231696E+00
         -4   -1    0    0    0  501 -0.00000000000E+00  0.00000000000E+00  0.30362441816E+03  0.30362707422E+03  0.12700000000E+01 0. -1.
          4   -1    0    0  502    0  0.00000000000E+00 -0.00000000000E+00 -0.21883713910E+02  0.21920534540E+02  0.12700000000E+01 0. -1.
         25    2    1    2    0    0  0.10538207410E+02 -0.20967917027E+02  0.27175553441E+03  0.30004445256E+03  0.12499958266E+03 0.  0.
    9000005    1    3    3    0    0  0.10730749447E+01  0.42350642421E+02  0.19749960299E+03  0.20199460781E+03  0.10000000000E+01 0.  0.
    9000005    1    3    3    0    0  0.94651324657E+01 -0.63318559448E+02  0.74255931422E+02  0.98049844745E+02  0.10000000000E+01 0.  0.
         21    1    1    2  502  501 -0.10538207410E+02  0.20967917027E+02  0.99851698342E+01  0.25503156206E+02  0.00000000000E+00 0.  1.
<mgrwt>
<rscale>  1 0.12718334E+03</rscale>
<asrwt>0</asrwt>
<pdfrwt beam="2">  1        4 0.33697621E-02 0.12718334E+03</pdfrwt>
<pdfrwt beam="1">  1       -4 0.46714483E-01 0.12718334E+03</pdfrwt>
<totfact> 0.32314400E+03</totfact>
</mgrwt>
</event>
<event>
 6    4  0.5642870E-004  0.1282944E+03  0.7818608E-02  0.1230009E+00
          4   -1    0    0  502    0  0.00000000000E+00  0.00000000000E+00  0.51539445848E+01  0.53081112256E+01  0.12700000000E+01 0. -1.
         -4   -1    0    0    0  501 -0.00000000000E+00 -0.00000000000E+00 -0.12089259549E+04  0.12089266220E+04  0.12700000000E+01 0. -1.
         25    2    1    2    0    0 -0.62334931191E+01  0.28219647957E+02 -0.10459159162E+04  0.10537549793E+04  0.12499699057E+03 0.  0.
    9000005    1    3    3    0    0 -0.21245739560E+02  0.35103429727E+02 -0.10563732067E+03  0.11333082435E+03  0.10000000000E+01 0.  0.
    9000005    1    3    3    0    0  0.15012246441E+02 -0.68837817706E+01 -0.94027859557E+03  0.94042415499E+03  0.10000000000E+01 0.  0.
         21    1    1    2  502  501  0.62334931191E+01 -0.28219647957E+02 -0.15785609408E+03  0.16047975388E+03  0.00000000000E+00 0. -1.
<mgrwt>
<rscale>  1 0.12829440E+03</rscale>
<asrwt>0</asrwt>
<pdfrwt beam="1">  1        4 0.80482580E-03 0.12829440E+03</pdfrwt>
<pdfrwt beam="2">  1       -4 0.18600030E+00 0.12829440E+03</pdfrwt>
<totfact> 0.11990701E+03</totfact>
</mgrwt>
</event>
<event>
 6    4  0.5642870E-004  0.1269602E+03  0.7818608E-02  0.1232037E+00
         -4   -1    0    0    0  501 -0.00000000000E+00  0.00000000000E+00  0.73424353990E+02  0.73435336581E+02  0.12700000000E+01 0. -1.
          4   -1    0    0  502    0  0.00000000000E+00 -0.00000000000E+00 -0.75858843166E+02  0.75869473350E+02  0.12700000000E+01 0. -1.
         25    2    1    2    0    0  0.73919129304E+00 -0.22258756766E+02 -0.64337989752E+00  0.12696187528E+03  0.12499162044E+03 0.  0.
    9000005    1    3    3    0    0 -0.35737523004E+02 -0.62891322299E+02 -0.90198889318E+00  0.72348479976E+02  0.10000000000E+01 0.  0.
    9000005    1    3    3    0    0  0.36476714297E+02  0.40632565533E+02  0.25860899566E+00  0.54613395301E+02  0.10000000000E+01 0.  0.
         21    1    1    2  502  501 -0.73919129304E+00  0.22258756766E+02 -0.17911092786E+01  0.22342934654E+02  0.00000000000E+00 0. -1.
<mgrwt>
<rscale>  1 0.12696025E+03</rscale>
<asrwt>0</asrwt>
<pdfrwt beam="2">  1        4 0.11672254E-01 0.12696025E+03</pdfrwt>
<pdfrwt beam="1">  1       -4 0.11297717E-01 0.12696025E+03</pdfrwt>
<totfact> 0.57613063E+03</totfact>
</mgrwt>
</event>
<event>
 6    4  0.5642870E-004  0.1296158E+03  0.7818608E-02  0.1228027E+00
          4   -1    0    0  502    0  0.00000000000E+00  0.00000000000E+00  0.20232118952E+02  0.20271939653E+02  0.12700000000E+01 0.  1.
         -4   -1    0    0    0  501 -0.00000000000E+00 -0.00000000000E+00 -0.34599955075E+03  0.34600188153E+03  0.12700000000E+01 0.  1.
         25    2    1    2    0    0  0.25856751402E+02  0.22495614640E+02 -0.28446839565E+03  0.31260600347E+03  0.12500248401E+03 0.  0.
    9000005    1    3    3    0    0 -0.20546243902E+02  0.61134738220E+02 -0.18835900169E+03  0.19909725732E+03  0.10000000000E+01 0.  0.
    9000005    1    3    3    0    0  0.46402995304E+02 -0.38639123580E+02 -0.96109393959E+02  0.11350874614E+03  0.10000000000E+01 0.  0.
         21    1    1    2  502  501 -0.25856751402E+02 -0.22495614640E+02 -0.41299036149E+02  0.53667817712E+02  0.00000000000E+00 0.  1.
<mgrwt>
<rscale>  1 0.12961576E+03</rscale>
<asrwt>0</asrwt>
<pdfrwt beam="1">  1        4 0.31158764E-02 0.12961576E+03</pdfrwt>
<pdfrwt beam="2">  1       -4 0.53233938E-01 0.12961576E+03</pdfrwt>
<totfact> 0.28145078E+03</totfact>
</mgrwt>
</event>
<event>
 6    4  0.5642870E-004  0.1279627E+03  0.7818608E-02  0.1230510E+00
          4   -1    0    0  502    0  0.00000000000E+00  0.00000000000E+00  0.14583264251E+02  0.14638459489E+02  0.12700000000E+01 0. -1.
         -4   -1    0    0    0  501 -0.00000000000E+00 -0.00000000000E+00 -0.43915491194E+03  0.43915674831E+03  0.12700000000E+01 0. -1.
         25    2    1    2    0    0  0.27199944017E+02 -0.31142675257E+01 -0.38474146042E+03  0.40546323665E+03  0.12499963717E+03 0.  0.
    9000005    1    3    3    0    0  0.39047061436E+02 -0.38854305265E+01 -0.39033332004E+03  0.39230201416E+03  0.10000000000E+01 0.  0.
    9000005    1    3    3    0    0 -0.11847117419E+02  0.77116300080E+00  0.55918596207E+01  0.13161222494E+02  0.10000000000E+01 0.  0.
         21    1    1    2  502  501 -0.27199944017E+02  0.31142675257E+01 -0.39830187269E+02  0.48331971143E+02  0.00000000000E+00 0. -1.
<mgrwt>
<rscale>  1 0.12796267E+03</rscale>
<asrwt>0</asrwt>
<pdfrwt beam="1">  1        4 0.22479665E-02 0.12796267E+03</pdfrwt>
<pdfrwt beam="2">  1       -4 0.67566671E-01 0.12796267E+03</pdfrwt>
<totfact> 0.28283198E+03</totfact>
</mgrwt>
</event>
<event>
 6    4  0.5642870E-004  0.1274035E+03  0.7818608E-02  0.1231360E+00
          4   -1    0    0  502    0  0.00000000000E+00  0.00000000000E+00  0.23283343909E+03  0.23283690270E+03  0.12700000000E+01 0. -1.
         -4   -1    0    0    0  501 -0.00000000000E+00 -0.00000000000E+00 -0.24889749326E+02  0.24922129152E+02  0.12700000000E+01 0. -1.
         25    2    1    2    0    0  0.32780861178E+01 -0.24408464427E+02  0.17978005602E+03  0.22034634349E+03  0.12500049426E+03 0.  0.
    9000005    1    3    3    0    0  0.13247929432E+02 -0.15413381467E+02  0.19724583450E+03  0.19829271089E+03  0.10000000000E+01 0.  0.
    9000005    1    3    3    0    0 -0.99698433137E+01 -0.89950829604E+01 -0.17465778484E+02  0.22053632608E+02  0.10000000000E+01 0.  0.
         21    1    1    2  502  501 -0.32780861178E+01  0.24408464427E+02  0.28163633751E+02  0.37412688360E+02  0.00000000000E+00 0.  1.
<mgrwt>
<rscale>  1 0.12740346E+03</rscale>
<asrwt>0</asrwt>
<pdfrwt beam="1">  1        4 0.35823285E-01 0.12740346E+03</pdfrwt>
<pdfrwt beam="2">  1       -4 0.38319495E-02 0.12740346E+03</pdfrwt>
<totfact> 0.44552428E+03</totfact>
</mgrwt>
</event>
<event>
 6    4  0.5642870E-004  0.1298992E+03  0.7818608E-02  0.1227605E+00
         -4   -1    0    0    0  501 -0.00000000000E+00  0.00000000000E+00  0.27246891710E+03  0.27247187687E+03  0.12700000000E+01 0. -1.
          4   -1    0    0  502    0  0.00000000000E+00 -0.00000000000E+00 -0.25957734450E+02  0.25988783691E+02  0.12700000000E+01 0. -1.
         25    2    1    2    0    0  0.21966600076E+02 -0.27592122994E+02  0.21484605552E+03  0.25106301245E+03  0.12501980594E+03 0.  0.
    9000005    1    3    3    0    0  0.34560151377E+01 -0.77021128362E+02  0.12664874013E+03  0.14827373884E+03  0.10000000000E+01 0.  0.
    9000005    1    3    3    0    0  0.18510584938E+02  0.49429005368E+02  0.88197315394E+02  0.10278927361E+03  0.10000000000E+01 0.  0.
         21    1    1    2  502  501 -0.21966600076E+02  0.27592122994E+02  0.31665127128E+02  0.47397648108E+02  0.00000000000E+00 0. -1.
<mgrwt>
<rscale>  1 0.12989922E+03</rscale>
<asrwt>0</asrwt>
<pdfrwt beam="2">  1        4 0.39961136E-02 0.12989922E+03</pdfrwt>
<pdfrwt beam="1">  1       -4 0.41920912E-01 0.12989922E+03</pdfrwt>
<totfact> 0.30797244E+03</totfact>
</mgrwt>
</event>
<event>
 6    4  0.5642870E-004  0.1347678E+03  0.7818608E-02  0.1220548E+00
          4   -1    0    0  502    0  0.00000000000E+00  0.00000000000E+00  0.14874006215E+02  0.14928126503E+02  0.12700000000E+01 0. -1.
         -4   -1    0    0    0  501 -0.00000000000E+00 -0.00000000000E+00 -0.57717683449E+03  0.57717823172E+03  0.12700000000E+01 0. -1.
         25    2    1    2    0    0  0.40044850388E+02 -0.30558468622E+02 -0.42494200664E+03  0.44580049584E+03  0.12499985215E+03 0.  0.
    9000005    1    3    3    0    0  0.15666514828E+02 -0.25599527350E+01  0.30539684016E+01  0.16196288707E+02  0.10000000000E+01 0.  0.
    9000005    1    3    3    0    0  0.24378335559E+02 -0.27998515887E+02 -0.42799597504E+03  0.42960420713E+03  0.10000000000E+01 0.  0.
         21    1    1    2  502  501 -0.40044850388E+02  0.30558468622E+02 -0.13736082164E+03  0.14630586239E+03  0.00000000000E+00 0. -1.
<mgrwt>
<rscale>  1 0.13476785E+03</rscale>
<asrwt>0</asrwt>
<pdfrwt beam="1">  1        4 0.22925797E-02 0.13476785E+03</pdfrwt>
<pdfrwt beam="2">  1       -4 0.88800689E-01 0.13476785E+03</pdfrwt>
<totfact> 0.15232917E+03</totfact>
</mgrwt>
</event>
<event>
 6    4  0.5642870E-004  0.1318685E+03  0.7818608E-02  0.1224709E+00
          4   -1    0    0  502    0  0.00000000000E+00  0.00000000000E+00  0.15316832466E+03  0.15317358969E+03  0.12700000000E+01 0.  1.
         -4   -1    0    0    0  501 -0.00000000000E+00 -0.00000000000E+00 -0.68749535272E+02  0.68761264532E+02  0.12700000000E+01 0.  1.
         25    2    1    2    0    0  0.19013449097E+02 -0.37457833070E+02  0.48493549010E+01  0.13195766039E+03  0.12499882955E+03 0.  0.
    9000005    1    3    3    0    0 -0.43776998075E+02  0.18368836532E+02  0.64230450670E+01  0.47917587835E+02  0.10000000000E+01 0.  0.
    9000005    1    3    3    0    0  0.62790447172E+02 -0.55826669603E+02 -0.15736901660E+01  0.84040072559E+02  0.10000000000E+01 0.  0.
         21    1    1    2  502  501 -0.19013449097E+02  0.37457833070E+02  0.79569434487E+02  0.89977193830E+02  0.00000000000E+00 0.  1.
<mgrwt>
<rscale>  1 0.13186853E+03</rscale>
<asrwt>0</asrwt>
<pdfrwt beam="1">  1        4 0.23565665E-01 0.13186853E+03</pdfrwt>
<pdfrwt beam="2">  1       -4 0.10578159E-01 0.13186853E+03</pdfrwt>
<totfact> 0.18827835E+03</totfact>
</mgrwt>
</event>
<event>
 6    4  0.5642870E-004  0.1321008E+03  0.7818608E-02  0.1224371E+00
          4   -1    0    0  502    0  0.00000000000E+00  0.00000000000E+00  0.33633810731E+02  0.33657779550E+02  0.12700000000E+01 0.  1.
         -4   -1    0    0    0  501 -0.00000000000E+00 -0.00000000000E+00 -0.43002683675E+03  0.43002871210E+03  0.12700000000E+01 0.  1.
         25    2    1    2    0    0 -0.42287390077E+02  0.61308022437E+01 -0.39956848181E+03  0.42083916250E+03  0.12499927577E+03 0.  0.
    9000005    1    3    3    0    0 -0.71081970922E+02 -0.36772853627E+02 -0.22689147064E+03  0.24059432413E+03  0.10000000000E+01 0.  0.
    9000005    1    3    3    0    0  0.28794580845E+02  0.42903655871E+02 -0.17267701117E+03  0.18024483837E+03  0.10000000000E+01 0.  0.
         21    1    1    2  502  501  0.42287390077E+02 -0.61308022437E+01  0.31754557855E+01  0.42847329148E+02  0.00000000000E+00 0.  1.
<mgrwt>
<rscale>  1 0.13210083E+03</rscale>
<asrwt>0</asrwt>
<pdfrwt beam="1">  1        4 0.51764208E-02 0.13210083E+03</pdfrwt>
<pdfrwt beam="2">  1       -4 0.66159959E-01 0.13210083E+03</pdfrwt>
<totfact> 0.80068149E+02</totfact>
</mgrwt>
</event>
<event>
 6    4  0.5642870E-004  0.1321495E+03  0.7818608E-02  0.1224301E+00
          4   -1    0    0  502    0  0.00000000000E+00  0.00000000000E+00  0.54288822436E+03  0.54288970983E+03  0.12700000000E+01 0.  1.
         -4   -1    0    0    0  501 -0.00000000000E+00 -0.00000000000E+00 -0.14246034286E+02  0.14302530996E+02  0.12700000000E+01 0.  1.
         25    2    1    2    0    0  0.31079938244E+02  0.29502362974E+02  0.42396655297E+03  0.44408458864E+03  0.12500852709E+03 0.  0.
    9000005    1    3    3    0    0 -0.19462166076E+02  0.80865768275E+01  0.51944506168E+01  0.21729034732E+02  0.10000000000E+01 0.  0.
    9000005    1    3    3    0    0  0.50542104320E+02  0.21415786146E+02  0.41877210236E+03  0.42235555391E+03  0.10000000000E+01 0.  0.
         21    1    1    2  502  501 -0.31079938244E+02 -0.29502362974E+02  0.10467563710E+03  0.11310765219E+03  0.00000000000E+00 0.  1.
<mgrwt>
<rscale>  1 0.13214948E+03</rscale>
<asrwt>0</asrwt>
<pdfrwt beam="1">  1        4 0.83525727E-01 0.13214948E+03</pdfrwt>
<pdfrwt beam="2">  1       -4 0.21961577E-02 0.13214948E+03</pdfrwt>
<totfact> 0.18593367E+03</totfact>
</mgrwt>
</event>
<event>
 6    4  0.5642870E-004  0.1293404E+03  0.7818608E-02  0.1228438E+00
          4   -1    0    0  502    0  0.00000000000E+00  0.00000000000E+00  0.11645649774E+03  0.11646342244E+03  0.12700000000E+01 0.  1.
         -4   -1    0    0    0  501 -0.00000000000E+00 -0.00000000000E+00 -0.61580409669E+02  0.61593504163E+02  0.12700000000E+01 0.  1.
         25    2    1    2    0    0  0.29876336703E+02  0.14531236193E+02  0.21778307177E+02  0.13116113340E+03  0.12500078372E+03 0.  0.
    9000005    1    3    3    0    0  0.31411751729E+02 -0.21828975877E+02  0.64521517306E+02  0.75014855396E+02  0.10000000000E+01 0.  0.
    9000005    1    3    3    0    0 -0.15354150260E+01  0.36360212070E+02 -0.42743210129E+02  0.56146278000E+02  0.10000000000E+01 0.  0.
         21    1    1    2  502  501 -0.29876336703E+02 -0.14531236193E+02  0.33097780891E+02  0.46895793202E+02  0.00000000000E+00 0.  1.
<mgrwt>
<rscale>  1 0.12934044E+03</rscale>
<asrwt>0</asrwt>
<pdfrwt beam="1">  1        4 0.17917924E-01 0.12934044E+03</pdfrwt>
<pdfrwt beam="2">  1       -4 0.94754492E-02 0.12934044E+03</pdfrwt>
<totfact> 0.36972016E+03</totfact>
</mgrwt>
</event>
<event>
 6    4  0.5642870E-004  0.1267897E+03  0.7818608E-02  0.1232298E+00
         -4   -1    0    0    0  501 -0.00000000000E+00  0.00000000000E+00  0.72610929611E+03  0.72611040675E+03  0.12700000000E+01 0.  1.
          4   -1    0    0  502    0  0.00000000000E+00 -0.00000000000E+00 -0.15297238884E+02  0.15349867019E+02  0.12700000000E+01 0.  1.
         25    2    1    2    0    0 -0.32149303997E+00 -0.20935751186E+02  0.70921717025E+03  0.72046139999E+03  0.12504889152E+03 0.  0.
    9000005    1    3    3    0    0 -0.17507692850E+02 -0.27134982860E+02  0.41978471986E+02  0.52971867194E+02  0.10000000000E+01 0.  0.
    9000005    1    3    3    0    0  0.17186199810E+02  0.61992316737E+01  0.66723869826E+03  0.66748953280E+03  0.10000000000E+01 0.  0.
         21    1    1    2  502  501  0.32149303997E+00  0.20935751186E+02  0.15948869755E+01  0.20998873779E+02  0.00000000000E+00 0.  1.
<mgrwt>
<rscale>  1 0.12678972E+03</rscale>
<asrwt>0</asrwt>
<pdfrwt beam="2">  1        4 0.23575550E-02 0.12678972E+03</pdfrwt>
<pdfrwt beam="1">  1       -4 0.11171326E+00 0.12678972E+03</pdfrwt>
<totfact> 0.84769085E+02</totfact>
</mgrwt>
</event>
<event>
 6    4  0.5642870E-004  0.1349276E+03  0.7818608E-02  0.1220322E+00
         -4   -1    0    0    0  501 -0.00000000000E+00  0.00000000000E+00  0.54778099386E+02  0.54792819533E+02  0.12700000000E+01 0. -1.
          4   -1    0    0  502    0  0.00000000000E+00 -0.00000000000E+00 -0.23672253939E+03  0.23672594610E+03  0.12700000000E+01 0. -1.
         25    2    1    2    0    0 -0.40488073986E+02  0.30690058534E+02 -0.39963219646E+02  0.14072144880E+03  0.12499721357E+03 0.  0.
    9000005    1    3    3    0    0 -0.56601286499E+02  0.25900995215E+02  0.29754210021E+02  0.68999131882E+02  0.10000000000E+01 0.  0.
    9000005    1    3    3    0    0  0.16113212512E+02  0.47890633183E+01 -0.69717429668E+02  0.71722316920E+02  0.10000000000E+01 0.  0.
         21    1    1    2  502  501  0.40488073986E+02 -0.30690058534E+02 -0.14198122036E+03  0.15079731683E+03  0.00000000000E+00 0. -1.
<mgrwt>
<rscale>  1 0.13492764E+03</rscale>
<asrwt>0</asrwt>
<pdfrwt beam="2">  1        4 0.36420246E-01 0.13492764E+03</pdfrwt>
<pdfrwt beam="1">  1       -4 0.84287944E-02 0.13492764E+03</pdfrwt>
<totfact> 0.12193852E+03</totfact>
</mgrwt>
</event>
<event>
 6    4  0.5642870E-004  0.1280853E+03  0.7818608E-02  0.1230325E+00
         -4   -1    0    0    0  501 -0.00000000000E+00  0.00000000000E+00  0.99361193603E+02  0.99369309620E+02  0.12700000000E+01 0. -1.
          4   -1    0    0  502    0  0.00000000000E+00 -0.00000000000E+00 -0.83855527623E+02  0.83865144207E+02  0.12700000000E+01 0. -1.
         25    2    1    2    0    0 -0.21414194534E+02  0.17948678326E+02  0.51169843888E+02  0.13792820297E+03  0.12500045387E+03 0.  0.
    9000005    1    3    3    0    0  0.43765441028E+02  0.37494197395E+02  0.10321395199E+02  0.58555613441E+02  0.10000000000E+01 0.  0.
    9000005    1    3    3    0    0 -0.65179635562E+02 -0.19545519069E+02  0.40848448689E+02  0.79372589525E+02  0.10000000000E+01 0.  0.
         21    1    1    2  502  501  0.21414194534E+02 -0.17948678326E+02 -0.35664177907E+02  0.45306250860E+02  0.00000000000E+00 0.  1.
<mgrwt>
<rscale>  1 0.12808527E+03</rscale>
<asrwt>0</asrwt>
<pdfrwt beam="2">  1        4 0.12902214E-01 0.12808527E+03</pdfrwt>
<pdfrwt beam="1">  1       -4 0.15287701E-01 0.12808527E+03</pdfrwt>
<totfact> 0.28890074E+03</totfact>
</mgrwt>
</event>
<event>
 6    4  0.5642870E-004  0.1272589E+03  0.7818608E-02  0.1231581E+00
          4   -1    0    0  502    0  0.00000000000E+00  0.00000000000E+00  0.87013929489E+02  0.87023197052E+02  0.12700000000E+01 0. -1.
         -4   -1    0    0    0  501 -0.00000000000E+00 -0.00000000000E+00 -0.72132681446E+02  0.72143860672E+02  0.12700000000E+01 0. -1.
         25    2    1    2    0    0 -0.84551079824E+01  0.22315490870E+02 -0.60809414159E+01  0.12740413326E+03  0.12500146135E+03 0.  0.
    9000005    1    3    3    0    0  0.53107805720E+02  0.18842744784E+02  0.20873990490E+02  0.60101676668E+02  0.10000000000E+01 0.  0.
    9000005    1    3    3    0    0 -0.61562913702E+02  0.34727460859E+01 -0.26954931906E+02  0.67302456589E+02  0.10000000000E+01 0.  0.
         21    1    1    2  502  501  0.84551079824E+01 -0.22315490870E+02  0.20962189459E+02  0.31762924466E+02  0.00000000000E+00 0. -1.
<mgrwt>
<rscale>  1 0.12725893E+03</rscale>
<asrwt>0</asrwt>
<pdfrwt beam="1">  1        4 0.13388331E-01 0.12725893E+03</pdfrwt>
<pdfrwt beam="2">  1       -4 0.11098908E-01 0.12725893E+03</pdfrwt>
<totfact> 0.46962097E+03</totfact>
</mgrwt>
</event>
<event>
 6    4  0.5642870E-004  0.1299663E+03  0.7818608E-02  0.1227506E+00
         -4   -1    0    0    0  501 -0.00000000000E+00  0.00000000000E+00  0.13183657807E+02  0.13244686979E+02  0.12700000000E+01 0.  1.
          4   -1    0    0  502    0  0.00000000000E+00 -0.00000000000E+00 -0.59757670779E+03  0.59757805732E+03  0.12700000000E+01 0.  1.
         25    2    1    2    0    0 -0.29707517798E+02 -0.19554412728E+02 -0.34251261004E+03  0.36634154073E+03  0.12500529893E+03 0.  0.
    9000005    1    3    3    0    0 -0.55755589836E+01 -0.67842162836E+02 -0.12618572670E+03  0.14337881133E+03  0.10000000000E+01 0.  0.
    9000005    1    3    3    0    0 -0.24131958814E+02  0.48287750108E+02 -0.21632688334E+03  0.22296272940E+03  0.10000000000E+01 0.  0.
         21    1    1    2  502  501  0.29707517798E+02  0.19554412728E+02 -0.24188043994E+03  0.24448120356E+03  0.00000000000E+00 0.  1.
<mgrwt>
<rscale>  1 0.12996629E+03</rscale>
<asrwt>0</asrwt>
<pdfrwt beam="2">  1        4 0.91939656E-01 0.12996629E+03</pdfrwt>
<pdfrwt beam="1">  1       -4 0.20330539E-02 0.12996629E+03</pdfrwt>
<totfact> 0.16818384E+03</totfact>
</mgrwt>
</event>
<event>
 6    4  0.5642870E-004  0.1356425E+03  0.7818608E-02  0.1219316E+00
         -4   -1    0    0    0  501 -0.00000000000E+00  0.00000000000E+00  0.76838343792E+03  0.76838448746E+03  0.12700000000E+01 0.  1.
          4   -1    0    0  502    0  0.00000000000E+00 -0.00000000000E+00 -0.12773566133E+02  0.12836545164E+02  0.12700000000E+01 0.  1.
         25    2    1    2    0    0  0.46345131549E+02 -0.25036845719E+02  0.63941193422E+03  0.65364095755E+03  0.12499665955E+03 0.  0.
    9000005    1    3    3    0    0  0.28296766536E+02 -0.69356022982E+02  0.24127481789E+03  0.25263709678E+03  0.10000000000E+01 0.  0.
    9000005    1    3    3    0    0  0.18048365013E+02  0.44319177264E+02  0.39813711633E+03  0.40100386077E+03  0.10000000000E+01 0.  0.
         21    1    1    2  502  501 -0.46345131549E+02  0.25036845719E+02  0.11619793757E+03  0.12758007508E+03  0.00000000000E+00 0.  1.
<mgrwt>
<rscale>  1 0.13564247E+03</rscale>
<asrwt>0</asrwt>
<pdfrwt beam="2">  1        4 0.19700892E-02 0.13564247E+03</pdfrwt>
<pdfrwt beam="1">  1       -4 0.11821777E+00 0.13564247E+03</pdfrwt>
<totfact> 0.99188615E+02</totfact>
</mgrwt>
</event>
<event>
 6    4  0.5642870E-004  0.1266281E+03  0.7818608E-02  0.1232547E+00
         -4   -1    0    0    0  501 -0.00000000000E+00  0.00000000000E+00  0.46451722379E+01  0.48156541736E+01  0.12700000000E+01 0. -1.
          4   -1    0    0  502    0  0.00000000000E+00 -0.00000000000E+00 -0.13470964665E+04  0.13470970652E+04  0.12700000000E+01 0. -1.
         25    2    1    2    0    0  0.16897638299E+02  0.11177140054E+02 -0.88502490153E+03  0.89403788555E+03  0.12499682330E+03 0.  0.
    9000005    1    3    3    0    0  0.52442994726E+02  0.30163566822E+02 -0.76571952170E+03  0.76810643428E+03  0.10000000000E+01 0.  0.
    9000005    1    3    3    0    0 -0.35545356427E+02 -0.18986426768E+02 -0.11930537983E+03  0.12593145128E+03  0.10000000000E+01 0.  0.
         21    1    1    2  502  501 -0.16897638299E+02 -0.11177140054E+02 -0.45742639273E+03  0.45787483378E+03  0.00000000000E+00 0. -1.
<mgrwt>
<rscale>  1 0.12662806E+03</rscale>
<asrwt>0</asrwt>
<pdfrwt beam="2">  1        4 0.20725846E+00 0.12662806E+03</pdfrwt>
<pdfrwt beam="1">  1       -4 0.72780300E-03 0.12662806E+03</pdfrwt>
<totfact> 0.10233964E+03</totfact>
</mgrwt>
</event>
<event>
 6    4  0.5642870E-004  0.1269105E+03  0.7818608E-02  0.1232113E+00
         -4   -1    0    0    0  501 -0.00000000000E+00  0.00000000000E+00  0.40861365979E+02  0.40881097462E+02  0.12700000000E+01 0. -1.
          4   -1    0    0  502    0  0.00000000000E+00 -0.00000000000E+00 -0.13584750579E+03  0.13585344210E+03  0.12700000000E+01 0. -1.
         25    2    1    2    0    0 -0.21665243416E+02  0.35232104705E+01 -0.83973913692E+02  0.15217715964E+03  0.12499789579E+03 0.  0.
    9000005    1    3    3    0    0  0.15210297960E+02 -0.39018354994E+02 -0.86184658434E+02  0.95825782229E+02  0.10000000000E+01 0.  0.
    9000005    1    3    3    0    0 -0.36875541377E+02  0.42541565464E+02  0.22107447418E+01  0.56351377413E+02  0.10000000000E+01 0.  0.
         21    1    1    2  502  501  0.21665243416E+02 -0.35232104705E+01 -0.11012226120E+02  0.24557379918E+02  0.00000000000E+00 0. -1.
<mgrwt>
<rscale>  1 0.12691048E+03</rscale>
<asrwt>0</asrwt>
<pdfrwt beam="2">  1        4 0.20901591E-01 0.12691048E+03</pdfrwt>
<pdfrwt beam="1">  1       -4 0.62883385E-02 0.12691048E+03</pdfrwt>
<totfact> 0.54958841E+03</totfact>
</mgrwt>
</event>
<event>
 6    4  0.5642870E-004  0.1275156E+03  0.7818608E-02  0.1231189E+00
          4   -1    0    0  502    0  0.00000000000E+00  0.00000000000E+00  0.14266524731E+02  0.14322940616E+02  0.12700000000E+01 0.  1.
         -4   -1    0    0    0  501 -0.00000000000E+00 -0.00000000000E+00 -0.41152029877E+03  0.41152225845E+03  0.12700000000E+01 0.  1.
         25    2    1    2    0    0  0.20879453743E+02  0.14107412215E+02 -0.34556136987E+03  0.36833802285E+03  0.12500107224E+03 0.  0.
    9000005    1    3    3    0    0 -0.16962012071E+02 -0.27276613633E+02 -0.28094018998E+03  0.28277219426E+03  0.10000000000E+01 0.  0.
    9000005    1    3    3    0    0  0.37841465814E+02  0.41384025848E+02 -0.64621179897E+02  0.85565828586E+02  0.10000000000E+01 0.  0.
         21    1    1    2  502  501 -0.20879453743E+02 -0.14107412215E+02 -0.51692404170E+02  0.57507176221E+02  0.00000000000E+00 0.  1.
<mgrwt>
<rscale>  1 0.12751564E+03</rscale>
<asrwt>0</asrwt>
<pdfrwt beam="1">  1        4 0.21993407E-02 0.12751564E+03</pdfrwt>
<pdfrwt beam="2">  1       -4 0.63315297E-01 0.12751564E+03</pdfrwt>
<totfact> 0.33567554E+03</totfact>
</mgrwt>
</event>
<event>
 6    4  0.5642870E-004  0.1346329E+03  0.7818608E-02  0.1220739E+00
          4   -1    0    0  502    0  0.00000000000E+00  0.00000000000E+00  0.14094637909E+02  0.14151739037E+02  0.12700000000E+01 0. -1.
         -4   -1    0    0    0  501 -0.00000000000E+00 -0.00000000000E+00 -0.60787105501E+03  0.60787238169E+03  0.12700000000E+01 0. -1.
         25    2    1    2    0    0  0.40974530464E+02  0.28684477880E+02 -0.45546556577E+03  0.47494725982E+03  0.12499722633E+03 0.  0.
    9000005    1    3    3    0    0 -0.15500947530E+02  0.60878943068E+02 -0.14977641166E+03  0.16242074551E+03  0.10000000000E+01 0.  0.
    9000005    1    3    3    0    0  0.56475477995E+02 -0.32194465189E+02 -0.30568915411E+03  0.31252651431E+03  0.10000000000E+01 0.  0.
         21    1    1    2  502  501 -0.40974530464E+02 -0.28684477880E+02 -0.13831085133E+03  0.14707686091E+03  0.00000000000E+00 0. -1.
<mgrwt>
<rscale>  1 0.13463290E+03</rscale>
<asrwt>0</asrwt>
<pdfrwt beam="1">  1        4 0.21729008E-02 0.13463290E+03</pdfrwt>
<pdfrwt beam="2">  1       -4 0.93523098E-01 0.13463290E+03</pdfrwt>
<totfact> 0.14714235E+03</totfact>
</mgrwt>
</event>
<event>
 6    4  0.5642870E-004  0.1291150E+03  0.7818608E-02  0.1228775E+00
         -4   -1    0    0    0  501 -0.00000000000E+00  0.00000000000E+00  0.15657133555E+03  0.15657648615E+03  0.12700000000E+01 0. -1.
          4   -1    0    0  502    0  0.00000000000E+00 -0.00000000000E+00 -0.48391571859E+02  0.48408234083E+02  0.12700000000E+01 0. -1.
         25    2    1    2    0    0  0.20193466136E+02 -0.25263636622E+02  0.11385974816E+03  0.17214739949E+03  0.12499862996E+03 0.  0.
    9000005    1    3    3    0    0  0.19962495509E+02 -0.34894581844E+02  0.13926699964E+03  0.14495664958E+03  0.10000000000E+01 0.  0.
    9000005    1    3    3    0    0  0.23097062682E+00  0.96309452220E+01 -0.25407251478E+02  0.27190749915E+02  0.10000000000E+01 0.  0.
         21    1    1    2  502  501 -0.20193466136E+02  0.25263636622E+02 -0.56799844685E+01  0.32837320742E+02  0.00000000000E+00 0. -1.
<mgrwt>
<rscale>  1 0.12911501E+03</rscale>
<asrwt>0</asrwt>
<pdfrwt beam="2">  1        4 0.74465352E-02 0.12911501E+03</pdfrwt>
<pdfrwt beam="1">  1       -4 0.24089576E-01 0.12911501E+03</pdfrwt>
<totfact> 0.32319833E+03</totfact>
</mgrwt>
</event>
<event>
 6    4  0.5642870E-004  0.1279454E+03  0.7818608E-02  0.1230537E+00
         -4   -1    0    0    0  501 -0.00000000000E+00  0.00000000000E+00  0.17827802750E+03  0.17828255099E+03  0.12700000000E+01 0.  1.
          4   -1    0    0  502    0  0.00000000000E+00 -0.00000000000E+00 -0.54989903436E+02  0.55004566900E+02  0.12700000000E+01 0.  1.
         25    2    1    2    0    0  0.15138107194E+02  0.22702830706E+02  0.14858339461E+03  0.19607916815E+03  0.12500173686E+03 0.  0.
    9000005    1    3    3    0    0 -0.38774900332E+02 -0.32488954455E+02  0.53690921613E+02  0.73774928811E+02  0.10000000000E+01 0.  0.
    9000005    1    3    3    0    0  0.53913007527E+02  0.55191785160E+02  0.94892472997E+02  0.12230423934E+03  0.10000000000E+01 0.  0.
         21    1    1    2  502  501 -0.15138107194E+02 -0.22702830706E+02 -0.25295270550E+02  0.37207949738E+02  0.00000000000E+00 0.  1.
<mgrwt>
<rscale>  1 0.12794536E+03</rscale>
<asrwt>0</asrwt>
<pdfrwt beam="2">  1        4 0.84614612E-02 0.12794536E+03</pdfrwt>
<pdfrwt beam="1">  1       -4 0.27428864E-01 0.12794536E+03</pdfrwt>
<totfact> 0.20532018E+03</totfact>
</mgrwt>
</event>
<event>
 6    4  0.5642870E-004  0.1273472E+03  0.7818608E-02  0.1231446E+00
         -4   -1    0    0    0  501 -0.00000000000E+00  0.00000000000E+00  0.12924023524E+03  0.12924647502E+03  0.12700000000E+01 0.  1.
          4   -1    0    0  502    0  0.00000000000E+00 -0.00000000000E+00 -0.84951346621E+02  0.84960839172E+02  0.12700000000E+01 0.  1.
         25    2    1    2    0    0  0.45890233478E+01 -0.23903730231E+02  0.94384849248E+02  0.15851123960E+03  0.12499946343E+03 0.  0.
    9000005    1    3    3    0    0 -0.11497721199E+02  0.39281568711E+02 -0.32852962584E+01  0.41073500029E+02  0.10000000000E+01 0.  0.
    9000005    1    3    3    0    0  0.16086744547E+02 -0.63185298942E+02  0.97670145506E+02  0.11743773957E+03  0.10000000000E+01 0.  0.
         21    1    1    2  502  501 -0.45890233478E+01  0.23903730231E+02 -0.50095960625E+02  0.55696074594E+02  0.00000000000E+00 0.  1.
<mgrwt>
<rscale>  1 0.12734722E+03</rscale>
<asrwt>0</asrwt>
<pdfrwt beam="2">  1        4 0.13070648E-01 0.12734722E+03</pdfrwt>
<pdfrwt beam="1">  1       -4 0.19884323E-01 0.12734722E+03</pdfrwt>
<totfact> 0.17714659E+03</totfact>
</mgrwt>
</event>
<event>
 6    4  0.5642870E-004  0.1290953E+03  0.7818608E-02  0.1228804E+00
          4   -1    0    0  502    0  0.00000000000E+00  0.00000000000E+00  0.15482280342E+03  0.15482801219E+03  0.12700000000E+01 0. -1.
         -4   -1    0    0    0  501 -0.00000000000E+00 -0.00000000000E+00 -0.53392733126E+02  0.53407835106E+02  0.12700000000E+01 0. -1.
         25    2    1    2    0    0  0.18441661559E+01 -0.32192980174E+02  0.34008120487E+02  0.13349958945E+03  0.12500319677E+03 0.  0.
    9000005    1    3    3    0    0 -0.33009968798E+02  0.16449842175E+02  0.58229967857E+02  0.68934639364E+02  0.10000000000E+01 0.  0.
    9000005    1    3    3    0    0  0.34854134954E+02 -0.48642822349E+02 -0.24221847370E+02  0.64564950085E+02  0.10000000000E+01 0.  0.
         21    1    1    2  502  501 -0.18441661559E+01  0.32192980174E+02  0.67421949802E+02  0.74736257843E+02  0.00000000000E+00 0. -1.
<mgrwt>
<rscale>  1 0.12909527E+03</rscale>
<asrwt>0</asrwt>
<pdfrwt beam="1">  1        4 0.23820455E-01 0.12909527E+03</pdfrwt>
<pdfrwt beam="2">  1       -4 0.82158291E-02 0.12909527E+03</pdfrwt>
<totfact> 0.28045122E+03</totfact>
</mgrwt>
</event>
<event>
 6    4  0.5642870E-004  0.1271000E+03  0.7818608E-02  0.1231823E+00
         -4   -1    0    0    0  501 -0.00000000000E+00  0.00000000000E+00  0.31275647920E+02  0.31301422537E+02  0.12700000000E+01 0. -1.
          4   -1    0    0  502    0  0.00000000000E+00 -0.00000000000E+00 -0.22412033638E+03  0.22412393464E+03  0.12700000000E+01 0. -1.
         25    2    1    2    0    0  0.13522973616E+01 -0.22995407700E+02 -0.10576385819E+03  0.16534934215E+03  0.12499517497E+03 0.  0.
    9000005    1    3    3    0    0  0.25702811233E+02 -0.25864122186E+02 -0.12747064044E+03  0.13258714680E+03  0.10000000000E+01 0.  0.
    9000005    1    3    3    0    0 -0.24350513872E+02  0.28687144863E+01  0.21706782248E+02  0.32762195351E+02  0.10000000000E+01 0.  0.
         21    1    1    2  502  501 -0.13522973616E+01  0.22995407700E+02 -0.87080830266E+02  0.90076015027E+02  0.00000000000E+00 0. -1.
<mgrwt>
<rscale>  1 0.12710000E+03</rscale>
<asrwt>0</asrwt>
<pdfrwt beam="2">  1        4 0.34482310E-01 0.12710000E+03</pdfrwt>
<pdfrwt beam="1">  1       -4 0.48138977E-02 0.12710000E+03</pdfrwt>
<totfact> 0.33328709E+03</totfact>
</mgrwt>
</event>
<event>
 6    4  0.5642870E-004  0.1286869E+03  0.7818608E-02  0.1229417E+00
          4   -1    0    0  502    0  0.00000000000E+00  0.00000000000E+00  0.23370506628E+02  0.23404988358E+02  0.12700000000E+01 0.  1.
         -4   -1    0    0    0  501 -0.00000000000E+00 -0.00000000000E+00 -0.27243956176E+03  0.27244252185E+03  0.12700000000E+01 0.  1.
         25    2    1    2    0    0  0.20378970680E+02 -0.22801899950E+02 -0.20900933807E+03  0.24544899814E+03  0.12500031280E+03 0.  0.
    9000005    1    3    3    0    0  0.55490512802E+02 -0.36202502170E+02 -0.19393736032E+03  0.20494515828E+03  0.10000000000E+01 0.  0.
    9000005    1    3    3    0    0 -0.35111542122E+02  0.13400602221E+02 -0.15071977745E+02  0.40503839858E+02  0.10000000000E+01 0.  0.
         21    1    1    2  502  501 -0.20378970680E+02  0.22801899950E+02 -0.40059717064E+02  0.50398512067E+02  0.00000000000E+00 0.  1.
<mgrwt>
<rscale>  1 0.12868686E+03</rscale>
<asrwt>0</asrwt>
<pdfrwt beam="1">  1        4 0.35983429E-02 0.12868686E+03</pdfrwt>
<pdfrwt beam="2">  1       -4 0.41916657E-01 0.12868686E+03</pdfrwt>
<totfact> 0.36279604E+03</totfact>
</mgrwt>
</event>
<event>
 6    4  0.5642870E-004  0.1268297E+03  0.7818608E-02  0.1232237E+00
         -4   -1    0    0    0  501 -0.00000000000E+00  0.00000000000E+00  0.20478368871E+02  0.20517711657E+02  0.12700000000E+01 0. -1.
          4   -1    0    0  502    0  0.00000000000E+00 -0.00000000000E+00 -0.26984431970E+03  0.26984730825E+03  0.12700000000E+01 0. -1.
         25    2    1    2    0    0  0.14324750326E+02  0.15947103177E+02 -0.20441518156E+03  0.24056461600E+03  0.12500503770E+03 0.  0.
    9000005    1    3    3    0    0  0.53661489898E+02 -0.86603668655E+01 -0.34413107689E+02  0.64341428591E+02  0.10000000000E+01 0.  0.
    9000005    1    3    3    0    0 -0.39336739572E+02  0.24607470042E+02 -0.17000207387E+03  0.17622318741E+03  0.10000000000E+01 0.  0.
         21    1    1    2  502  501 -0.14324750326E+02 -0.15947103177E+02 -0.44950769269E+02  0.49800403909E+02  0.00000000000E+00 0.  1.
<mgrwt>
<rscale>  1 0.12682968E+03</rscale>
<asrwt>0</asrwt>
<pdfrwt beam="2">  1        4 0.41517765E-01 0.12682968E+03</pdfrwt>
<pdfrwt beam="1">  1       -4 0.31537747E-02 0.12682968E+03</pdfrwt>
<totfact> 0.45331513E+03</totfact>
</mgrwt>
</event>
<event>
 6    4  0.5642870E-004  0.1277521E+03  0.7818608E-02  0.1230830E+00
         -4   -1    0    0    0  501 -0.00000000000E+00  0.00000000000E+00  0.24976650684E+02  0.25008917998E+02  0.12700000000E+01 0.  1.
          4   -1    0    0  502    0  0.00000000000E+00 -0.00000000000E+00 -0.26290306370E+03  0.26290613116E+03  0.12700000000E+01 0.  1.
         25    2    1    2    0    0 -0.26392470887E+02  0.15406018528E+01 -0.15492122482E+03  0.20080134621E+03  0.12498663436E+03 0.  0.
    9000005    1    3    3    0    0 -0.44266276714E+02 -0.42747481347E+02 -0.13626310003E+03  0.14951750013E+03  0.10000000000E+01 0.  0.
    9000005    1    3    3    0    0  0.17873805827E+02  0.44288083200E+02 -0.18658124788E+02  0.51283846081E+02  0.10000000000E+01 0.  0.
         21    1    1    2  502  501  0.26392470887E+02 -0.15406018528E+01 -0.83005188198E+02  0.87113702948E+02  0.00000000000E+00 0.  1.
<mgrwt>
<rscale>  1 0.12775208E+03</rscale>
<asrwt>0</asrwt>
<pdfrwt beam="2">  1        4 0.40449341E-01 0.12775208E+03</pdfrwt>
<pdfrwt beam="1">  1       -4 0.38452799E-02 0.12775208E+03</pdfrwt>
<totfact> 0.34984472E+03</totfact>
</mgrwt>
</event>
<event>
 6    4  0.5642870E-004  0.1275712E+03  0.7818608E-02  0.1231105E+00
          4   -1    0    0  502    0  0.00000000000E+00  0.00000000000E+00  0.19793925513E+03  0.19794332932E+03  0.12700000000E+01 0. -1.
         -4   -1    0    0    0  501 -0.00000000000E+00 -0.00000000000E+00 -0.33532865157E+02  0.33556906080E+02  0.12700000000E+01 0. -1.
         25    2    1    2    0    0  0.24671920260E+02 -0.68624671486E+01  0.99694554273E+02  0.16190556043E+03  0.12497443435E+03 0.  0.
    9000005    1    3    3    0    0  0.68097022175E+02  0.85030193162E+01  0.22905465835E+02  0.72354447906E+02  0.10000000000E+01 0.  0.
    9000005    1    3    3    0    0 -0.43425101915E+02 -0.15365486465E+02  0.76789088438E+02  0.89551112521E+02  0.10000000000E+01 0.  0.
         21    1    1    2  502  501 -0.24671920260E+02  0.68624671486E+01  0.64711835698E+02  0.69594674969E+02  0.00000000000E+00 0. -1.
<mgrwt>
<rscale>  1 0.12757118E+03</rscale>
<asrwt>0</asrwt>
<pdfrwt beam="1">  1        4 0.30454356E-01 0.12757118E+03</pdfrwt>
<pdfrwt beam="2">  1       -4 0.51610651E-02 0.12757118E+03</pdfrwt>
<totfact> 0.37804662E+03</totfact>
</mgrwt>
</event>
<event>
 6    4  0.5642870E-004  0.1268211E+03  0.7818608E-02  0.1232250E+00
          4   -1    0    0  502    0  0.00000000000E+00  0.00000000000E+00  0.73457989457E+03  0.73458099240E+03  0.12700000000E+01 0. -1.
         -4   -1    0    0    0  501 -0.00000000000E+00 -0.00000000000E+00 -0.26102944295E+02  0.26133821015E+02  0.12700000000E+01 0. -1.
         25    2    1    2    0    0 -0.12558613638E+02  0.17329731230E+02  0.12919804222E+03  0.18104068800E+03  0.12500223293E+03 0.  0.
    9000005    1    3    3    0    0 -0.57806301129E+02 -0.24947684260E+02  0.49427273227E+02  0.80050051460E+02  0.10000000000E+01 0.  0.
    9000005    1    3    3    0    0  0.45247687491E+02  0.42277415490E+02  0.79770768992E+02  0.10099063654E+03  0.10000000000E+01 0.  0.
         21    1    1    2  502  501  0.12558613638E+02 -0.17329731230E+02  0.57927890805E+03  0.57967412542E+03  0.00000000000E+00 0. -1.
<mgrwt>
<rscale>  1 0.12682112E+03</rscale>
<asrwt>0</asrwt>
<pdfrwt beam="1">  1        4 0.11301476E+00 0.12682112E+03</pdfrwt>
<pdfrwt beam="2">  1       -4 0.40182970E-02 0.12682112E+03</pdfrwt>
<totfact> 0.35778921E+02</totfact>
</mgrwt>
</event>
<event>
 6    4  0.5642870E-004  0.1278499E+03  0.7818608E-02  0.1230681E+00
         -4   -1    0    0    0  501 -0.00000000000E+00  0.00000000000E+00  0.11779547401E+03  0.11780232000E+03  0.12700000000E+01 0. -1.
          4   -1    0    0  502    0  0.00000000000E+00 -0.00000000000E+00 -0.54152946183E+02  0.54167836216E+02  0.12700000000E+01 0. -1.
         25    2    1    2    0    0 -0.17699730324E+02  0.20173108523E+02  0.67956634606E+02  0.14478842930E+03  0.12500140123E+03 0.  0.
    9000005    1    3    3    0    0  0.50434615610E+02  0.24101463283E+02  0.47974558243E+02  0.73668780516E+02  0.10000000000E+01 0.  0.
    9000005    1    3    3    0    0 -0.68134345934E+02 -0.39283547603E+01  0.19982076363E+02  0.71119648781E+02  0.10000000000E+01 0.  0.
         21    1    1    2  502  501  0.17699730324E+02 -0.20173108523E+02 -0.43141067783E+01  0.27181726919E+02  0.00000000000E+00 0.  1.
<mgrwt>
<rscale>  1 0.12784985E+03</rscale>
<asrwt>0</asrwt>
<pdfrwt beam="2">  1        4 0.83328945E-02 0.12784985E+03</pdfrwt>
<pdfrwt beam="1">  1       -4 0.18124053E-01 0.12784985E+03</pdfrwt>
<totfact> 0.44757285E+03</totfact>
</mgrwt>
</event>
<event>
 6    4  0.5642870E-004  0.1266038E+03  0.7818608E-02  0.1232584E+00
         -4   -1    0    0    0  501 -0.00000000000E+00  0.00000000000E+00  0.55964249847E+01  0.57387169829E+01  0.12700000000E+01 0. -1.
          4   -1    0    0  502    0  0.00000000000E+00 -0.00000000000E+00 -0.16102713723E+04  0.16102718731E+04  0.12700000000E+01 0. -1.
         25    2    1    2    0    0  0.19682581303E+02 -0.40076940397E+01 -0.71588639446E+03  0.72699509119E+03  0.12500026888E+03 0.  0.
    9000005    1    3    3    0    0 -0.27231352224E+02 -0.12895673268E+02 -0.61104450144E+03  0.61178773090E+03  0.10000000000E+01 0.  0.
    9000005    1    3    3    0    0  0.46913933527E+02  0.88879792282E+01 -0.10484189302E+03  0.11520736029E+03  0.10000000000E+01 0.  0.
         21    1    1    2  502  501 -0.19682581303E+02  0.40076940397E+01 -0.88878855284E+03  0.88901549890E+03  0.00000000000E+00 0. -1.
<mgrwt>
<rscale>  1 0.12660384E+03</rscale>
<asrwt>0</asrwt>
<pdfrwt beam="2">  1        4 0.24774468E+00 0.12660384E+03</pdfrwt>
<pdfrwt beam="1">  1       -4 0.87197380E-03 0.12660384E+03</pdfrwt>
<totfact> 0.45091080E+02</totfact>
</mgrwt>
</event>
<event>
 6    4  0.5642870E-004  0.1269408E+03  0.7818608E-02  0.1232067E+00
         -4   -1    0    0    0  501 -0.00000000000E+00  0.00000000000E+00  0.17235596010E+03  0.17236063901E+03  0.12700000000E+01 0.  1.
          4   -1    0    0  502    0  0.00000000000E+00 -0.00000000000E+00 -0.51117369961E+02  0.51133143965E+02  0.12700000000E+01 0.  1.
         25    2    1    2    0    0 -0.63237673873E+01  0.21245011899E+02  0.14383544996E+03  0.19184005273E+03  0.12499051404E+03 0.  0.
    9000005    1    3    3    0    0  0.32087534954E+02 -0.13174526484E+02  0.13514246093E+03  0.13952656662E+03  0.10000000000E+01 0.  0.
    9000005    1    3    3    0    0 -0.38411302342E+02  0.34419538383E+02  0.86929890323E+01  0.52313486104E+02  0.10000000000E+01 0.  0.
         21    1    1    2  502  501  0.63237673873E+01 -0.21245011899E+02 -0.22596859828E+02  0.31653730248E+02  0.00000000000E+00 0.  1.
<mgrwt>
<rscale>  1 0.12694081E+03</rscale>
<asrwt>0</asrwt>
<pdfrwt beam="2">  1        4 0.78657840E-02 0.12694081E+03</pdfrwt>
<pdfrwt beam="1">  1       -4 0.26517875E-01 0.12694081E+03</pdfrwt>
<totfact> 0.24629304E+03</totfact>
</mgrwt>
</event>
<event>
 6    4  0.5642870E-004  0.1283958E+03  0.7818608E-02  0.1229856E+00
          4   -1    0    0  502    0  0.00000000000E+00  0.00000000000E+00  0.51172147446E+02  0.51187904570E+02  0.12700000000E+01 0. -1.
         -4   -1    0    0    0  501 -0.00000000000E+00 -0.00000000000E+00 -0.12470563286E+03  0.12471209952E+03  0.12700000000E+01 0. -1.
         25    2    1    2    0    0 -0.27209794401E+02  0.11003181983E+02 -0.70274354091E+02  0.14636925974E+03  0.12499612966E+03 0.  0.
    9000005    1    3    3    0    0 -0.46076793558E+02 -0.47824510377E+02 -0.32411706488E+02  0.73903811910E+02  0.10000000000E+01 0.  0.
    9000005    1    3    3    0    0  0.18866999158E+02  0.58827692360E+02 -0.37862647604E+02  0.72465447830E+02  0.10000000000E+01 0.  0.
         21    1    1    2  502  501  0.27209794401E+02 -0.11003181983E+02 -0.32591313247E+01  0.29530744354E+02  0.00000000000E+00 0. -1.
<mgrwt>
<rscale>  1 0.12839578E+03</rscale>
<asrwt>0</asrwt>
<pdfrwt beam="1">  1        4 0.78743476E-02 0.12839578E+03</pdfrwt>
<pdfrwt beam="2">  1       -4 0.19187191E-01 0.12839578E+03</pdfrwt>
<totfact> 0.44452443E+03</totfact>
</mgrwt>
</event>
<event>
 6    4  0.5642870E-004  0.1268753E+03  0.7818608E-02  0.1232167E+00
         -4   -1    0    0    0  501 -0.00000000000E+00  0.00000000000E+00  0.20353609043E+03  0.20354005259E+03  0.12700000000E+01 0. -1.
          4   -1    0    0  502    0  0.00000000000E+00 -0.00000000000E+00 -0.31487505781E+02  0.31513107119E+02  0.12700000000E+01 0. -1.
         25    2    1    2    0    0  0.15264233906E+02  0.15461046800E+02  0.17148711682E+03  0.21331940598E+03  0.12500118771E+03 0.  0.
    9000005    1    3    3    0    0  0.35457647337E+01 -0.46630955125E+02  0.23381415759E+02  0.52294445463E+02  0.10000000000E+01 0.  0.
    9000005    1    3    3    0    0  0.11718469172E+02  0.62092001925E+02  0.14810570106E+03  0.16102496052E+03  0.10000000000E+01 0.  0.
         21    1    1    2  502  501 -0.15264233906E+02 -0.15461046800E+02  0.56146782807E+00  0.21733753726E+02  0.00000000000E+00 0.  1.
<mgrwt>
<rscale>  1 0.12687528E+03</rscale>
<asrwt>0</asrwt>
<pdfrwt beam="2">  1        4 0.48465057E-02 0.12687528E+03</pdfrwt>
<pdfrwt beam="1">  1       -4 0.31315519E-01 0.12687528E+03</pdfrwt>
<totfact> 0.39615341E+03</totfact>
</mgrwt>
</event>
<event>
 6    4  0.5642870E-004  0.1471866E+03  0.7818608E-02  0.1203973E+00
          4   -1    0    0  502    0  0.00000000000E+00  0.00000000000E+00  0.97397453758E+02  0.97405733396E+02  0.12700000000E+01 0. -1.
         -4   -1    0    0    0  501 -0.00000000000E+00 -0.00000000000E+00 -0.13007492337E+03  0.13008112311E+03  0.12700000000E+01 0. -1.
         25    2    1    2    0    0  0.77706830667E+02  0.86057741258E+00 -0.26258630732E+02  0.14951061898E+03  0.12499926950E+03 0.  0.
    9000005    1    3    3    0    0 -0.59026945755E+01  0.15937518802E+02 -0.56744112679E+02  0.59243064003E+02  0.10000000000E+01 0.  0.
    9000005    1    3    3    0    0  0.83609525242E+02 -0.15076941389E+02  0.30485481946E+02  0.90267554981E+02  0.10000000000E+01 0.  0.
         21    1    1    2  502  501 -0.77706830667E+02 -0.86057741258E+00 -0.64188388809E+01  0.77976237523E+02  0.00000000000E+00 0. -1.
<mgrwt>
<rscale>  1 0.14718665E+03</rscale>
<asrwt>0</asrwt>
<pdfrwt beam="1">  1        4 0.14985338E-01 0.14718665E+03</pdfrwt>
<pdfrwt beam="2">  1       -4 0.20012640E-01 0.14718665E+03</pdfrwt>
<totfact> 0.14256269E+03</totfact>
</mgrwt>
</event>
<event>
 6    4  0.5642870E-004  0.1418901E+03  0.7818608E-02  0.1210808E+00
         -4   -1    0    0    0  501 -0.00000000000E+00  0.00000000000E+00  0.19764126178E+02  0.19804887870E+02  0.12700000000E+01 0.  1.
          4   -1    0    0  502    0  0.00000000000E+00 -0.00000000000E+00 -0.56025052036E+03  0.56025195980E+03  0.12700000000E+01 0.  1.
         25    2    1    2    0    0 -0.31497149815E+00 -0.67135136022E+02 -0.33268530337E+03  0.36167983643E+03  0.12500226921E+03 0.  0.
    9000005    1    3    3    0    0  0.61219307494E+02 -0.30412807945E+02 -0.19169617105E+03  0.20352190175E+03  0.10000000000E+01 0.  0.
    9000005    1    3    3    0    0 -0.61534278992E+02 -0.36722328077E+02 -0.14098913233E+03  0.15815793469E+03  0.10000000000E+01 0.  0.
         21    1    1    2  502  501  0.31497149815E+00  0.67135136022E+02 -0.20780109081E+03  0.21837701124E+03  0.00000000000E+00 0.  1.
<mgrwt>
<rscale>  1 0.14189007E+03</rscale>
<asrwt>0</asrwt>
<pdfrwt beam="2">  1        4 0.86195622E-01 0.14189007E+03</pdfrwt>
<pdfrwt beam="1">  1       -4 0.30438815E-02 0.14189007E+03</pdfrwt>
<totfact> 0.10584941E+03</totfact>
</mgrwt>
</event>
<event>
 6    4  0.5642870E-004  0.1325701E+03  0.7818608E-02  0.1223691E+00
         -4   -1    0    0    0  501 -0.00000000000E+00  0.00000000000E+00  0.27117723577E+02  0.27147446142E+02  0.12700000000E+01 0. -1.
          4   -1    0    0  502    0  0.00000000000E+00 -0.00000000000E+00 -0.31842229576E+03  0.31842482839E+03  0.12700000000E+01 0. -1.
         25    2    1    2    0    0  0.88312693679E+01  0.43267286421E+02 -0.16432919570E+03  0.21113717634E+03  0.12499909312E+03 0.  0.
    9000005    1    3    3    0    0 -0.46550654825E+02 -0.16475193528E+01 -0.11595645215E+03  0.12496630177E+03  0.10000000000E+01 0.  0.
    9000005    1    3    3    0    0  0.55381924193E+02  0.44914805774E+02 -0.48372743554E+02  0.86170874569E+02  0.10000000000E+01 0.  0.
         21    1    1    2  502  501 -0.88312693679E+01 -0.43267286421E+02 -0.12697537648E+03  0.13443509819E+03  0.00000000000E+00 0. -1.
<mgrwt>
<rscale>  1 0.13257007E+03</rscale>
<asrwt>0</asrwt>
<pdfrwt beam="2">  1        4 0.48990524E-01 0.13257007E+03</pdfrwt>
<pdfrwt beam="1">  1       -4 0.41744389E-02 0.13257007E+03</pdfrwt>
<totfact> 0.21126561E+03</totfact>
</mgrwt>
</event>
<event>
 6    4  0.5642870E-004  0.1391727E+03  0.7818608E-02  0.1214447E+00
          4   -1    0    0  502    0  0.00000000000E+00  0.00000000000E+00  0.20398866186E+03  0.20399261523E+03  0.12700000000E+01 0.  1.
         -4   -1    0    0    0  501 -0.00000000000E+00 -0.00000000000E+00 -0.87800989562E+02  0.87810174058E+02  0.12700000000E+01 0.  1.
         25    2    1    2    0    0 -0.26778422710E+02 -0.55017823533E+02 -0.21788061385E+02  0.14086787644E+03  0.12499997666E+03 0.  0.
    9000005    1    3    3    0    0 -0.20185326340E+02  0.11485850788E+02 -0.59672568152E+02  0.64040514970E+02  0.10000000000E+01 0.  0.
    9000005    1    3    3    0    0 -0.65930963702E+01 -0.66503674322E+02  0.37884506767E+02  0.76827361474E+02  0.10000000000E+01 0.  0.
         21    1    1    2  502  501  0.26778422710E+02  0.55017823533E+02  0.13797573368E+03  0.15093491284E+03  0.00000000000E+00 0.  1.
<mgrwt>
<rscale>  1 0.13917269E+03</rscale>
<asrwt>0</asrwt>
<pdfrwt beam="1">  1        4 0.31383881E-01 0.13917269E+03</pdfrwt>
<pdfrwt beam="2">  1       -4 0.13508855E-01 0.13917269E+03</pdfrwt>
<totfact> 0.73432463E+02</totfact>
</mgrwt>
</event>
<event>
 6    4  0.5642870E-004  0.1306072E+03  0.7818608E-02  0.1226558E+00
         -4   -1    0    0    0  501 -0.00000000000E+00  0.00000000000E+00  0.44437390598E+03  0.44437572078E+03  0.12700000000E+01 0. -1.
          4   -1    0    0  502    0  0.00000000000E+00 -0.00000000000E+00 -0.16594546366E+02  0.16643072705E+02  0.12700000000E+01 0. -1.
         25    2    1    2    0    0  0.15241132738E+01  0.37923834345E+02  0.36493344317E+03  0.38760115700E+03  0.12497079192E+03 0.  0.
    9000005    1    3    3    0    0 -0.67935258944E+01  0.78365027152E+02  0.30383710802E+03  0.31385540888E+03  0.10000000000E+01 0.  0.
    9000005    1    3    3    0    0  0.83176391682E+01 -0.40441192807E+02  0.61096335146E+02  0.73745748117E+02  0.10000000000E+01 0.  0.
         21    1    1    2  502  501 -0.15241132738E+01 -0.37923834345E+02  0.62845916452E+02  0.73417636487E+02  0.00000000000E+00 0. -1.
<mgrwt>
<rscale>  1 0.13060719E+03</rscale>
<asrwt>0</asrwt>
<pdfrwt beam="2">  1        4 0.25568800E-02 0.13060719E+03</pdfrwt>
<pdfrwt beam="1">  1       -4 0.68369077E-01 0.13060719E+03</pdfrwt>
<totfact> 0.22696762E+03</totfact>
</mgrwt>
</event>
<event>
 6    4  0.5642870E-004  0.1445953E+03  0.7818608E-02  0.1207276E+00
         -4   -1    0    0    0  501 -0.00000000000E+00  0.00000000000E+00  0.30347224035E+02  0.30373786504E+02  0.12700000000E+01 0.  1.
          4   -1    0    0  502    0  0.00000000000E+00 -0.00000000000E+00 -0.40805679001E+03  0.40805876633E+03  0.12700000000E+01 0.  1.
         25    2    1    2    0    0 -0.28392121380E+02 -0.66904885833E+02 -0.20322177848E+03  0.24941307159E+03  0.12500165088E+03 0.  0.
    9000005    1    3    3    0    0 -0.76853890003E+02 -0.55298145910E+02 -0.13672009380E+03  0.16630631196E+03  0.10000000000E+01 0.  0.
    9000005    1    3    3    0    0  0.48461768623E+02 -0.11606739923E+02 -0.66501684687E+02  0.83106759628E+02  0.10000000000E+01 0.  0.
         21    1    1    2  502  501  0.28392121380E+02  0.66904885833E+02 -0.17448778750E+03  0.18901948125E+03  0.00000000000E+00 0.  1.
<mgrwt>
<rscale>  1 0.14459526E+03</rscale>
<asrwt>0</asrwt>
<pdfrwt beam="2">  1        4 0.62780159E-01 0.14459526E+03</pdfrwt>
<pdfrwt beam="1">  1       -4 0.46709993E-02 0.14459526E+03</pdfrwt>
<totfact> 0.10754640E+03</totfact>
</mgrwt>
</event>
<event>
 6    4  0.5642870E-004  0.1409510E+03  0.7818608E-02  0.1212055E+00
          4   -1    0    0  502    0  0.00000000000E+00  0.00000000000E+00  0.22866880980E+02  0.22902120988E+02  0.12700000000E+01 0. -1.
         -4   -1    0    0    0  501 -0.00000000000E+00 -0.00000000000E+00 -0.47610318116E+03  0.47610487501E+03  0.12700000000E+01 0. -1.
         25    2    1    2    0    0 -0.57721690964E+02 -0.30199397361E+02 -0.34494303833E+03  0.37262967299E+03  0.12499350500E+03 0.  0.
    9000005    1    3    3    0    0 -0.69518283732E+02 -0.53518420043E+02 -0.13462525045E+03  0.16069216258E+03  0.10000000000E+01 0.  0.
    9000005    1    3    3    0    0  0.11796592768E+02  0.23319022682E+02 -0.21031778788E+03  0.21193751041E+03  0.10000000000E+01 0.  0.
         21    1    1    2  502  501  0.57721690964E+02  0.30199397361E+02 -0.10829326185E+03  0.12637732301E+03  0.00000000000E+00 0.  1.
<mgrwt>
<rscale>  1 0.14095096E+03</rscale>
<asrwt>0</asrwt>
<pdfrwt beam="1">  1        4 0.35208231E-02 0.14095096E+03</pdfrwt>
<pdfrwt beam="2">  1       -4 0.73249477E-01 0.14095096E+03</pdfrwt>
<totfact> 0.12044450E+03</totfact>
</mgrwt>
</event>
<event>
 6    4  0.5642870E-004  0.1490286E+03  0.7818608E-02  0.1201672E+00
         -4   -1    0    0    0  501 -0.00000000000E+00  0.00000000000E+00  0.17951726479E+04  0.17951730971E+04  0.12700000000E+01 0. -1.
          4   -1    0    0  502    0  0.00000000000E+00 -0.00000000000E+00 -0.10794925535E+02  0.10869375203E+02  0.12700000000E+01 0. -1.
         25    2    1    2    0    0  0.54863525864E+02  0.59787229063E+02  0.15660150767E+04  0.15730901934E+04  0.12500006781E+03 0.  0.
    9000005    1    3    3    0    0 -0.10045400681E+00  0.27181735970E+02  0.12682959342E+04  0.12685875743E+04  0.10000000000E+01 0.  0.
    9000005    1    3    3    0    0  0.54963979871E+02  0.32605493093E+02  0.29771914247E+03  0.30450261913E+03  0.10000000000E+01 0.  0.
         21    1    1    2  502  501 -0.54863525864E+02 -0.59787229063E+02  0.21836264564E+03  0.23295227889E+03  0.00000000000E+00 0. -1.
<mgrwt>
<rscale>  1 0.14902864E+03</rscale>
<asrwt>0</asrwt>
<pdfrwt beam="2">  1        4 0.16665208E-02 0.14902864E+03</pdfrwt>
<pdfrwt beam="1">  1       -4 0.27618590E+00 0.14902864E+03</pdfrwt>
<totfact> 0.11866959E+02</totfact>
</mgrwt>
</event>
<event>
 6    4  0.5642870E-004  0.1267461E+03  0.7818608E-02  0.1232365E+00
         -4   -1    0    0    0  501 -0.00000000000E+00  0.00000000000E+00  0.72059039415E+02  0.72070230063E+02  0.12700000000E+01 0.  1.
          4   -1    0    0  502    0  0.00000000000E+00 -0.00000000000E+00 -0.11050043703E+03  0.11050773495E+03  0.12700000000E+01 0.  1.
         25    2    1    2    0    0 -0.91454963213E+01 -0.18873268944E+02  0.12624409321E+02  0.12737328205E+03  0.12499894753E+03 0.  0.
    9000005    1    3    3    0    0 -0.63162802234E+02 -0.13225337901E+02  0.28829645797E+02  0.70686615603E+02  0.10000000000E+01 0.  0.
    9000005    1    3    3    0    0  0.54017305912E+02 -0.56479310424E+01 -0.16205236477E+02  0.56686666442E+02  0.10000000000E+01 0.  0.
         21    1    1    2  502  501  0.91454963213E+01  0.18873268944E+02 -0.51065806936E+02  0.55204682968E+02  0.00000000000E+00 0. -1.
<mgrwt>
<rscale>  1 0.12674611E+03</rscale>
<asrwt>0</asrwt>
<pdfrwt beam="2">  1        4 0.17001489E-01 0.12674611E+03</pdfrwt>
<pdfrwt beam="1">  1       -4 0.11087428E-01 0.12674611E+03</pdfrwt>
<totfact> 0.30977003E+03</totfact>
</mgrwt>
</event>
<event>
 6    4  0.5642870E-004  0.1278891E+03  0.7818608E-02  0.1230622E+00
          4   -1    0    0  502    0  0.00000000000E+00  0.00000000000E+00  0.81418133972E+03  0.81418233022E+03  0.12700000000E+01 0.  1.
         -4   -1    0    0    0  501 -0.00000000000E+00 -0.00000000000E+00 -0.75075050051E+01  0.76141664942E+01  0.12700000000E+01 0.  1.
         25    2    1    2    0    0  0.16992304321E+02  0.21025313230E+02  0.60905519101E+03  0.62233740181E+03  0.12499925516E+03 0.  0.
    9000005    1    3    3    0    0  0.38179401438E+02  0.42059315703E+02  0.12435988215E+03  0.13672246713E+03  0.10000000000E+01 0.  0.
    9000005    1    3    3    0    0 -0.21187097117E+02 -0.21034002473E+02  0.48469530886E+03  0.48561493467E+03  0.10000000000E+01 0.  0.
         21    1    1    2  502  501 -0.16992304321E+02 -0.21025313230E+02  0.19761864371E+03  0.19945909491E+03  0.00000000000E+00 0. -1.
<mgrwt>
<rscale>  1 0.12788908E+03</rscale>
<asrwt>0</asrwt>
<pdfrwt beam="1">  1        4 0.12526688E+00 0.12788908E+03</pdfrwt>
<pdfrwt beam="2">  1       -4 0.11632824E-02 0.12788908E+03</pdfrwt>
<totfact> 0.19013606E+03</totfact>
</mgrwt>
</event>
<event>
 6    4  0.5642870E-004  0.1272389E+03  0.7818608E-02  0.1231611E+00
         -4   -1    0    0    0  501 -0.00000000000E+00  0.00000000000E+00  0.71448897009E+02  0.71460183206E+02  0.12700000000E+01 0.  1.
          4   -1    0    0  502    0  0.00000000000E+00 -0.00000000000E+00 -0.79797939787E+02  0.79808045298E+02  0.12700000000E+01 0.  1.
         25    2    1    2    0    0  0.13145145812E+02  0.19794576905E+02 -0.82527873920E+01  0.12750629680E+03  0.12500050836E+03 0.  0.
    9000005    1    3    3    0    0 -0.45267077871E+02  0.16589057490E+01 -0.38324468853E+02  0.59343282856E+02  0.10000000000E+01 0.  0.
    9000005    1    3    3    0    0  0.58412223683E+02  0.18135671155E+02  0.30071681461E+02  0.68163013943E+02  0.10000000000E+01 0.  0.
         21    1    1    2  502  501 -0.13145145812E+02 -0.19794576905E+02 -0.96255385495E-01  0.23761931705E+02  0.00000000000E+00 0. -1.
<mgrwt>
<rscale>  1 0.12723894E+03</rscale>
<asrwt>0</asrwt>
<pdfrwt beam="2">  1        4 0.12278252E-01 0.12723894E+03</pdfrwt>
<pdfrwt beam="1">  1       -4 0.10993783E-01 0.12723894E+03</pdfrwt>
<totfact> 0.55376951E+03</totfact>
</mgrwt>
</event>
<event>
 6    4  0.5642870E-004  0.1529748E+03  0.7818608E-02  0.1196865E+00
          4   -1    0    0  502    0  0.00000000000E+00  0.00000000000E+00  0.18763834634E+03  0.18764264419E+03  0.12700000000E+01 0. -1.
         -4   -1    0    0    0  501 -0.00000000000E+00 -0.00000000000E+00 -0.17208081708E+03  0.17208550348E+03  0.12700000000E+01 0. -1.
         25    2    1    2    0    0 -0.67008153933E+02  0.57325575764E+02 -0.12245379047E+03  0.19594952054E+03  0.12499987788E+03 0.  0.
    9000005    1    3    3    0    0 -0.80123235311E+02  0.86157864767E+02 -0.11235507512E+03  0.16268857797E+03  0.10000000000E+01 0.  0.
    9000005    1    3    3    0    0  0.13115081378E+02 -0.28832289003E+02 -0.10098715347E+02  0.33260942566E+02  0.10000000000E+01 0.  0.
         21    1    1    2  502  501  0.67008153933E+02 -0.57325575764E+02  0.13801131973E+03  0.16377862713E+03  0.00000000000E+00 0. -1.
<mgrwt>
<rscale>  1 0.15297478E+03</rscale>
<asrwt>0</asrwt>
<pdfrwt beam="1">  1        4 0.28868129E-01 0.15297478E+03</pdfrwt>
<pdfrwt beam="2">  1       -4 0.26474663E-01 0.15297478E+03</pdfrwt>
<totfact> 0.26207562E+02</totfact>
</mgrwt>
</event>
<event>
 6    4  0.5642870E-004  0.1281669E+03  0.7818608E-02  0.1230201E+00
         -4   -1    0    0    0  501 -0.00000000000E+00  0.00000000000E+00  0.13418111099E+03  0.13418712102E+03  0.12700000000E+01 0.  1.
          4   -1    0    0  502    0  0.00000000000E+00 -0.00000000000E+00 -0.58911789937E+03  0.58911926828E+03  0.12700000000E+01 0.  1.
         25    2    1    2    0    0  0.20177261848E+02 -0.19868786277E+02  0.10313900213E+03  0.16451261829E+03  0.12499942901E+03 0.  0.
    9000005    1    3    3    0    0  0.78496846122E+01  0.17741300216E+02 -0.24273978783E+02  0.31090148405E+02  0.10000000000E+01 0.  0.
    9000005    1    3    3    0    0  0.12327577236E+02 -0.37610086493E+02  0.12741298091E+03  0.13342246989E+03  0.10000000000E+01 0.  0.
         21    1    1    2  502  501 -0.20177261848E+02  0.19868786277E+02 -0.55807579051E+03  0.55879377100E+03  0.00000000000E+00 0.  1.
<mgrwt>
<rscale>  1 0.12816687E+03</rscale>
<asrwt>0</asrwt>
<pdfrwt beam="2">  1        4 0.90634089E-01 0.12816687E+03</pdfrwt>
<pdfrwt beam="1">  1       -4 0.20643816E-01 0.12816687E+03</pdfrwt>
<totfact> 0.38302411E+01</totfact>
</mgrwt>
</event>
<event>
 6    4  0.5642870E-004  0.1282780E+03  0.7818608E-02  0.1230034E+00
          4   -1    0    0  502    0  0.00000000000E+00  0.00000000000E+00  0.30027078321E+02  0.30053923746E+02  0.12700000000E+01 0.  1.
         -4   -1    0    0    0  501 -0.00000000000E+00 -0.00000000000E+00 -0.21772678638E+03  0.21773049030E+03  0.12700000000E+01 0.  1.
         25    2    1    2    0    0 -0.19411883302E+01 -0.28737772264E+02 -0.17321899739E+03  0.21554594714E+03  0.12500242600E+03 0.  0.
    9000005    1    3    3    0    0 -0.49330209343E+02 -0.54501241542E+02 -0.11169931348E+03  0.13372206817E+03  0.10000000000E+01 0.  0.
    9000005    1    3    3    0    0  0.47389021013E+02  0.25763469278E+02 -0.61519683908E+02  0.81823878971E+02  0.10000000000E+01 0.  0.
         21    1    1    2  502  501  0.19411883302E+01  0.28737772264E+02 -0.14480710663E+02  0.32238466901E+02  0.00000000000E+00 0. -1.
<mgrwt>
<rscale>  1 0.12827796E+03</rscale>
<asrwt>0</asrwt>
<pdfrwt beam="1">  1        4 0.46219006E-02 0.12827796E+03</pdfrwt>
<pdfrwt beam="2">  1       -4 0.33498778E-01 0.12827796E+03</pdfrwt>
<totfact> 0.37688932E+03</totfact>
</mgrwt>
</event>
<event>
 6    4  0.5642870E-004  0.1313201E+03  0.7818608E-02  0.1225510E+00
          4   -1    0    0  502    0  0.00000000000E+00  0.00000000000E+00  0.26849158505E+03  0.26849458867E+03  0.12700000000E+01 0.  1.
         -4   -1    0    0    0  501 -0.00000000000E+00 -0.00000000000E+00 -0.27414067041E+02  0.27443468653E+02  0.12700000000E+01 0.  1.
         25    2    1    2    0    0 -0.15977023743E+02  0.36939094220E+02  0.18074643553E+03  0.22341494733E+03  0.12500081105E+03 0.  0.
    9000005    1    3    3    0    0 -0.70078540941E+02  0.17084151495E+02  0.11720802340E+03  0.13762845230E+03  0.10000000000E+01 0.  0.
    9000005    1    3    3    0    0  0.54101517198E+02  0.19854942725E+02  0.63538412133E+02  0.85786495034E+02  0.10000000000E+01 0.  0.
         21    1    1    2  502  501  0.15977023743E+02 -0.36939094220E+02  0.60331082478E+02  0.72523109989E+02  0.00000000000E+00 0.  1.
<mgrwt>
<rscale>  1 0.13132009E+03</rscale>
<asrwt>0</asrwt>
<pdfrwt beam="1">  1        4 0.41308892E-01 0.13132009E+03</pdfrwt>
<pdfrwt beam="2">  1       -4 0.42200413E-02 0.13132009E+03</pdfrwt>
<totfact> 0.29151000E+03</totfact>
</mgrwt>
</event>
<event>
 6    4  0.5642870E-004  0.1342751E+03  0.7818608E-02  0.1221247E+00
         -4   -1    0    0    0  501 -0.00000000000E+00  0.00000000000E+00  0.32782126506E+03  0.32782372508E+03  0.12700000000E+01 0. -1.
          4   -1    0    0  502    0  0.00000000000E+00 -0.00000000000E+00 -0.27889370660E+02  0.27918271719E+02  0.12700000000E+01 0. -1.
         25    2    1    2    0    0 -0.32655996730E+02 -0.36579394973E+02  0.25952265990E+03  0.29220167502E+03  0.12500136648E+03 0.  0.
    9000005    1    3    3    0    0  0.39211981082E+02  0.17770930104E+02  0.10216073636E+03  0.11086569113E+03  0.10000000000E+01 0.  0.
    9000005    1    3    3    0    0 -0.71867977812E+02 -0.54350325078E+02  0.15736192354E+03  0.18133598389E+03  0.10000000000E+01 0.  0.
         21    1    1    2  502  501  0.32655996730E+02  0.36579394973E+02  0.40409234497E+02  0.63540321778E+02  0.00000000000E+00 0. -1.
<mgrwt>
<rscale>  1 0.13427512E+03</rscale>
<asrwt>0</asrwt>
<pdfrwt beam="2">  1        4 0.42930846E-02 0.13427512E+03</pdfrwt>
<pdfrwt beam="1">  1       -4 0.50436456E-01 0.13427512E+03</pdfrwt>
<totfact> 0.19097393E+03</totfact>
</mgrwt>
</event>
<event>
 6    4  0.5642870E-004  0.1279128E+03  0.7818608E-02  0.1230586E+00
          4   -1    0    0  502    0  0.00000000000E+00  0.00000000000E+00  0.25142124380E+02  0.25174179597E+02  0.12700000000E+01 0. -1.
         -4   -1    0    0    0  501 -0.00000000000E+00 -0.00000000000E+00 -0.29499938552E+03  0.29500211924E+03  0.12700000000E+01 0. -1.
         25    2    1    2    0    0  0.19888227858E+01 -0.27144475601E+02 -0.26246149360E+03  0.29197212629E+03  0.12498363467E+03 0.  0.
    9000005    1    3    3    0    0  0.63256020601E+01  0.48947876708E+02 -0.77085616548E+02  0.91537424883E+02  0.10000000000E+01 0.  0.
    9000005    1    3    3    0    0 -0.43367792743E+01 -0.76092352309E+02 -0.18537587705E+03  0.20043470140E+03  0.10000000000E+01 0.  0.
         21    1    1    2  502  501 -0.19888227858E+01  0.27144475601E+02 -0.73957675387E+01  0.28204172550E+02  0.00000000000E+00 0. -1.
<mgrwt>
<rscale>  1 0.12791281E+03</rscale>
<asrwt>0</asrwt>
<pdfrwt beam="1">  1        4 0.38706954E-02 0.12791281E+03</pdfrwt>
<pdfrwt beam="2">  1       -4 0.45387194E-01 0.12791281E+03</pdfrwt>
<totfact> 0.27551257E+03</totfact>
</mgrwt>
</event>
<event>
 6    4  0.5642870E-004  0.1273761E+03  0.7818608E-02  0.1231402E+00
         -4   -1    0    0    0  501 -0.00000000000E+00  0.00000000000E+00  0.41367823209E+02  0.41387313238E+02  0.12700000000E+01 0.  1.
          4   -1    0    0  502    0  0.00000000000E+00 -0.00000000000E+00 -0.13942512484E+03  0.13943090882E+03  0.12700000000E+01 0.  1.
         25    2    1    2    0    0 -0.21829062957E+02  0.11222351752E+02 -0.82134332298E+02  0.15156091322E+03  0.12498885033E+03 0.  0.
    9000005    1    3    3    0    0 -0.21714321850E+02 -0.42720326892E+02  0.59154231280E+01  0.48296276605E+02  0.10000000000E+01 0.  0.
    9000005    1    3    3    0    0 -0.11474110684E+00  0.53942678643E+02 -0.88049755426E+02  0.10326463662E+03  0.10000000000E+01 0.  0.
         21    1    1    2  502  501  0.21829062957E+02 -0.11222351752E+02 -0.15922969330E+02  0.29257308842E+02  0.00000000000E+00 0.  1.
<mgrwt>
<rscale>  1 0.12737606E+03</rscale>
<asrwt>0</asrwt>
<pdfrwt beam="2">  1        4 0.21451963E-01 0.12737606E+03</pdfrwt>
<pdfrwt beam="1">  1       -4 0.63662247E-02 0.12737606E+03</pdfrwt>
<totfact> 0.51442932E+03</totfact>
</mgrwt>
</event>
<event>
 6    4  0.5642870E-004  0.1267593E+03  0.7818608E-02  0.1232345E+00
          4   -1    0    0  502    0  0.00000000000E+00  0.00000000000E+00  0.34450445538E+02  0.34473846576E+02  0.12700000000E+01 0.  1.
         -4   -1    0    0    0  501 -0.00000000000E+00 -0.00000000000E+00 -0.16335311849E+03  0.16335805526E+03  0.12700000000E+01 0.  1.
         25    2    1    2    0    0  0.17556277488E+02  0.11576023926E+02 -0.12136727094E+03  0.17549338146E+03  0.12500274107E+03 0.  0.
    9000005    1    3    3    0    0  0.13520807586E+02 -0.25453873547E+01 -0.14607925748E+03  0.14672914059E+03  0.10000000000E+01 0.  0.
    9000005    1    3    3    0    0  0.40354699013E+01  0.14121411280E+02  0.24711986542E+02  0.28764240868E+02  0.10000000000E+01 0.  0.
         21    1    1    2  502  501 -0.17556277488E+02 -0.11576023926E+02 -0.75354020150E+01  0.22338520378E+02  0.00000000000E+00 0.  1.
<mgrwt>
<rscale>  1 0.12675927E+03</rscale>
<asrwt>0</asrwt>
<pdfrwt beam="1">  1        4 0.53022485E-02 0.12675927E+03</pdfrwt>
<pdfrwt beam="2">  1       -4 0.25133428E-01 0.12675927E+03</pdfrwt>
<totfact> 0.51729165E+03</totfact>
</mgrwt>
</event>
<event>
 6    4  0.5642870E-004  0.1326561E+03  0.7818608E-02  0.1223567E+00
          4   -1    0    0  502    0  0.00000000000E+00  0.00000000000E+00  0.11997676880E+03  0.11998349033E+03  0.12700000000E+01 0.  1.
         -4   -1    0    0    0  501 -0.00000000000E+00 -0.00000000000E+00 -0.18579134366E+03  0.18579568423E+03  0.12700000000E+01 0.  1.
         25    2    1    2    0    0 -0.39624549315E+02 -0.20049409273E+02 -0.15628683745E+03  0.20499567383E+03  0.12500226801E+03 0.  0.
    9000005    1    3    3    0    0 -0.70212052349E+02 -0.51351200752E+02 -0.86951073568E+02  0.12299661503E+03  0.10000000000E+01 0.  0.
    9000005    1    3    3    0    0  0.30587503033E+02  0.31301791478E+02 -0.69335763878E+02  0.81999058800E+02  0.10000000000E+01 0.  0.
         21    1    1    2  502  501  0.39624549315E+02  0.20049409273E+02  0.90472262590E+02  0.10078350073E+03  0.00000000000E+00 0.  1.
<mgrwt>
<rscale>  1 0.13265614E+03</rscale>
<asrwt>0</asrwt>
<pdfrwt beam="1">  1        4 0.18458815E-01 0.13265614E+03</pdfrwt>
<pdfrwt beam="2">  1       -4 0.28584134E-01 0.13265614E+03</pdfrwt>
<totfact> 0.50180121E+02</totfact>
</mgrwt>
</event>
<event>
 6    4  0.5642870E-004  0.1275990E+03  0.7818608E-02  0.1231063E+00
         -4   -1    0    0    0  501 -0.00000000000E+00  0.00000000000E+00  0.14594789533E+03  0.14595342083E+03  0.12700000000E+01 0.  1.
          4   -1    0    0  502    0  0.00000000000E+00 -0.00000000000E+00 -0.56586658018E+02  0.56600907816E+02  0.12700000000E+01 0.  1.
         25    2    1    2    0    0 -0.87983392288E+01  0.24114103741E+02  0.11089132240E+03  0.16905141331E+03  0.12499037637E+03 0.  0.
    9000005    1    3    3    0    0  0.26844696831E+02 -0.32432394824E+02  0.31174471912E+01  0.42228147710E+02  0.10000000000E+01 0.  0.
    9000005    1    3    3    0    0 -0.35643036060E+02  0.56546498565E+02  0.10777387521E+03  0.12682326560E+03  0.10000000000E+01 0.  0.
         21    1    1    2  502  501  0.87983392288E+01 -0.24114103741E+02 -0.21530085085E+02  0.33502915338E+02  0.00000000000E+00 0.  1.
<mgrwt>
<rscale>  1 0.12759896E+03</rscale>
<asrwt>0</asrwt>
<pdfrwt beam="2">  1        4 0.87071609E-02 0.12759896E+03</pdfrwt>
<pdfrwt beam="1">  1       -4 0.22455043E-01 0.12759896E+03</pdfrwt>
<totfact> 0.28286016E+03</totfact>
</mgrwt>
</event>
<event>
 6    4  0.5642870E-004  0.1276143E+03  0.7818608E-02  0.1231039E+00
         -4   -1    0    0    0  501 -0.00000000000E+00  0.00000000000E+00  0.39497343956E+02  0.39517756510E+02  0.12700000000E+01 0. -1.
          4   -1    0    0  502    0  0.00000000000E+00 -0.00000000000E+00 -0.28970042023E+03  0.28970320395E+03  0.12700000000E+01 0. -1.
         25    2    1    2    0    0 -0.18053503564E+02 -0.18293283225E+02 -0.66827861607E+02  0.14405335380E+03  0.12499932981E+03 0.  0.
    9000005    1    3    3    0    0 -0.44095560306E+02 -0.37034257071E+02  0.12097565086E+02  0.58849857404E+02  0.10000000000E+01 0.  0.
    9000005    1    3    3    0    0  0.26042056742E+02  0.18740973846E+02 -0.78925426692E+02  0.85203496399E+02  0.10000000000E+01 0.  0.
         21    1    1    2  502  501  0.18053503564E+02  0.18293283225E+02 -0.18337521466E+03  0.18516760666E+03  0.00000000000E+00 0. -1.
<mgrwt>
<rscale>  1 0.12761428E+03</rscale>
<asrwt>0</asrwt>
<pdfrwt beam="2">  1        4 0.44571078E-01 0.12761428E+03</pdfrwt>
<pdfrwt beam="1">  1       -4 0.60782990E-02 0.12761428E+03</pdfrwt>
<totfact> 0.13849930E+03</totfact>
</mgrwt>
</event>
<event>
 6    4  0.5642870E-004  0.1346211E+03  0.7818608E-02  0.1220756E+00
         -4   -1    0    0    0  501 -0.00000000000E+00  0.00000000000E+00  0.43416035595E+03  0.43416221344E+03  0.12700000000E+01 0. -1.
          4   -1    0    0  502    0  0.00000000000E+00 -0.00000000000E+00 -0.20231849810E+02  0.20271671039E+02  0.12700000000E+01 0. -1.
         25    2    1    2    0    0  0.37891847014E+02  0.32580466929E+02  0.33473798122E+03  0.36079405250E+03  0.12500221340E+03 0.  0.
    9000005    1    3    3    0    0  0.53897821159E+02 -0.26601762980E+02  0.88144210061E+02  0.10669128684E+03  0.10000000000E+01 0.  0.
    9000005    1    3    3    0    0 -0.16005974145E+02  0.59182229909E+02  0.24659377116E+03  0.25410276567E+03  0.10000000000E+01 0.  0.
         21    1    1    2  502  501 -0.37891847014E+02 -0.32580466929E+02  0.79190524924E+02  0.93639831980E+02  0.00000000000E+00 0. -1.
<mgrwt>
<rscale>  1 0.13462107E+03</rscale>
<asrwt>0</asrwt>
<pdfrwt beam="2">  1        4 0.31157981E-02 0.13462107E+03</pdfrwt>
<pdfrwt beam="1">  1       -4 0.66797113E-01 0.13462107E+03</pdfrwt>
<totfact> 0.17640577E+03</totfact>
</mgrwt>
</event>
<event>
 6    4  0.5642870E-004  0.1267259E+03  0.7818608E-02  0.1232396E+00
          4   -1    0    0  502    0  0.00000000000E+00  0.00000000000E+00  0.35445079269E+02  0.35467824072E+02  0.12700000000E+01 0.  1.
         -4   -1    0    0    0  501 -0.00000000000E+00 -0.00000000000E+00 -0.18104813855E+03  0.18105259283E+03  0.12700000000E+01 0.  1.
         25    2    1    2    0    0 -0.14508812494E+02 -0.14989039733E+02 -0.14876216169E+03  0.19542167571E+03  0.12499709450E+03 0.  0.
    9000005    1    3    3    0    0  0.32684871259E+02 -0.41694376082E+02 -0.12584154971E+03  0.13654236500E+03  0.10000000000E+01 0.  0.
    9000005    1    3    3    0    0 -0.47193683753E+02  0.26705336349E+02 -0.22920611978E+02  0.58879310706E+02  0.10000000000E+01 0.  0.
         21    1    1    2  502  501  0.14508812494E+02  0.14989039733E+02  0.31591024120E+01  0.21098741198E+02  0.00000000000E+00 0.  1.
<mgrwt>
<rscale>  1 0.12672589E+03</rscale>
<asrwt>0</asrwt>
<pdfrwt beam="1">  1        4 0.54551815E-02 0.12672589E+03</pdfrwt>
<pdfrwt beam="2">  1       -4 0.27855651E-01 0.12672589E+03</pdfrwt>
<totfact> 0.40820778E+03</totfact>
</mgrwt>
</event>
<event>
 6    4  0.5642870E-004  0.1326213E+03  0.7818608E-02  0.1223617E+00
         -4   -1    0    0    0  501 -0.00000000000E+00  0.00000000000E+00  0.48314305640E+02  0.48330994501E+02  0.12700000000E+01 0.  1.
          4   -1    0    0  502    0  0.00000000000E+00 -0.00000000000E+00 -0.16215336876E+03  0.16215834206E+03  0.12700000000E+01 0.  1.
         25    2    1    2    0    0 -0.73647588174E+01  0.43707152578E+02 -0.88424754674E+02  0.15939685245E+03  0.12499545781E+03 0.  0.
    9000005    1    3    3    0    0 -0.58429131884E+02  0.35655376218E+02 -0.15815881652E+02  0.70259600187E+02  0.10000000000E+01 0.  0.
    9000005    1    3    3    0    0  0.51064373067E+02  0.80517763604E+01 -0.72608873022E+02  0.89137252262E+02  0.10000000000E+01 0.  0.
         21    1    1    2  502  501  0.73647588174E+01 -0.43707152578E+02 -0.25414308442E+02  0.51092484110E+02  0.00000000000E+00 0. -1.
<mgrwt>
<rscale>  1 0.13262134E+03</rscale>
<asrwt>0</asrwt>
<pdfrwt beam="2">  1        4 0.24948338E-01 0.13262134E+03</pdfrwt>
<pdfrwt beam="1">  1       -4 0.74346365E-02 0.13262134E+03</pdfrwt>
<totfact> 0.30579098E+03</totfact>
</mgrwt>
</event>
<event>
 6    4  0.5642870E-004  0.1552573E+03  0.7818608E-02  0.1194158E+00
          4   -1    0    0  502    0  0.00000000000E+00  0.00000000000E+00  0.99504240092E+02  0.99512344442E+02  0.12700000000E+01 0. -1.
         -4   -1    0    0    0  501 -0.00000000000E+00 -0.00000000000E+00 -0.16237008114E+03  0.16237504780E+03  0.12700000000E+01 0. -1.
         25    2    1    2    0    0 -0.90782188615E+02 -0.15440198714E+02 -0.68354083989E+02  0.16963813037E+03  0.12500003588E+03 0.  0.
    9000005    1    3    3    0    0  0.59502793667E+01  0.39222345807E+02 -0.98334305411E+00  0.39695909093E+02  0.10000000000E+01 0.  0.
    9000005    1    3    3    0    0 -0.96732467982E+02 -0.54662544522E+02 -0.67370740935E+02  0.12994222127E+03  0.10000000000E+01 0.  0.
         21    1    1    2  502  501  0.90782188615E+02  0.15440198714E+02  0.54882429443E+01  0.92249261876E+02  0.00000000000E+00 0. -1.
<mgrwt>
<rscale>  1 0.15525725E+03</rscale>
<asrwt>0</asrwt>
<pdfrwt beam="1">  1        4 0.15309350E-01 0.15525725E+03</pdfrwt>
<pdfrwt beam="2">  1       -4 0.24981018E-01 0.15525725E+03</pdfrwt>
<totfact> 0.92603410E+02</totfact>
</mgrwt>
</event>
<event>
 6    4  0.5642870E-004  0.1266335E+03  0.7818608E-02  0.1232538E+00
          4   -1    0    0  502    0  0.00000000000E+00  0.00000000000E+00  0.39330973339E+03  0.39331178380E+03  0.12700000000E+01 0. -1.
         -4   -1    0    0    0  501 -0.00000000000E+00 -0.00000000000E+00 -0.14345995080E+02  0.14402099668E+02  0.12700000000E+01 0. -1.
         25    2    1    2    0    0 -0.19745310438E+02  0.45792752925E+01  0.28953246546E+03  0.31601437633E+03  0.12500076178E+03 0.  0.
    9000005    1    3    3    0    0  0.18063085914E+02  0.38900639997E+02  0.32143606414E+02  0.53607334370E+02  0.10000000000E+01 0.  0.
    9000005    1    3    3    0    0 -0.37808396353E+02 -0.34321364704E+02  0.25738885904E+03  0.26240704196E+03  0.10000000000E+01 0.  0.
         21    1    1    2  502  501  0.19745310438E+02 -0.45792752925E+01  0.89431272853E+02  0.91699507145E+02  0.00000000000E+00 0. -1.
<mgrwt>
<rscale>  1 0.12663348E+03</rscale>
<asrwt>0</asrwt>
<pdfrwt beam="1">  1        4 0.60513658E-01 0.12663348E+03</pdfrwt>
<pdfrwt beam="2">  1       -4 0.22115498E-02 0.12663348E+03</pdfrwt>
<totfact> 0.36551767E+03</totfact>
</mgrwt>
</event>
<event>
 6    4  0.5642870E-004  0.1309406E+03  0.7818608E-02  0.1226067E+00
          4   -1    0    0  502    0  0.00000000000E+00  0.00000000000E+00  0.60794626971E+03  0.60794759622E+03  0.12700000000E+01 0. -1.
         -4   -1    0    0    0  501 -0.00000000000E+00 -0.00000000000E+00 -0.11956982223E+02  0.12024239014E+02  0.12700000000E+01 0. -1.
         25    2    1    2    0    0  0.25293921349E+02 -0.29687207596E+02  0.43198615034E+03  0.45139502264E+03  0.12499727847E+03 0.  0.
    9000005    1    3    3    0    0 -0.14298864737E+02 -0.67721116760E+02  0.16697123071E+03  0.18075120767E+03  0.10000000000E+01 0.  0.
    9000005    1    3    3    0    0  0.39592786086E+02  0.38033909163E+02  0.26501491963E+03  0.27064381497E+03  0.10000000000E+01 0.  0.
         21    1    1    2  502  501 -0.25293921349E+02  0.29687207596E+02  0.16400313714E+03  0.16857681259E+03  0.00000000000E+00 0. -1.
<mgrwt>
<rscale>  1 0.13094057E+03</rscale>
<asrwt>0</asrwt>
<pdfrwt beam="1">  1        4 0.93535460E-01 0.13094057E+03</pdfrwt>
<pdfrwt beam="2">  1       -4 0.18448116E-02 0.13094057E+03</pdfrwt>
<totfact> 0.18811097E+03</totfact>
</mgrwt>
</event>
<event>
 6    4  0.5642870E-004  0.1324987E+03  0.7818608E-02  0.1223794E+00
         -4   -1    0    0    0  501 -0.00000000000E+00  0.00000000000E+00  0.16076424979E+02  0.16126510475E+02  0.12700000000E+01 0.  1.
          4   -1    0    0  502    0  0.00000000000E+00 -0.00000000000E+00 -0.61075899941E+03  0.61076031981E+03  0.12700000000E+01 0.  1.
         25    2    1    2    0    0  0.43103378188E+02 -0.85190686957E+01 -0.28731803055E+03  0.31639779896E+03  0.12500176304E+03 0.  0.
    9000005    1    3    3    0    0 -0.39949320181E+01 -0.29708847949E+02 -0.25210318743E+03  0.25388105924E+03  0.10000000000E+01 0.  0.
    9000005    1    3    3    0    0  0.47098310206E+02  0.21189779253E+02 -0.35214843120E+02  0.62516739719E+02  0.10000000000E+01 0.  0.
         21    1    1    2  502  501 -0.43103378188E+02  0.85190686957E+01 -0.30736454388E+03  0.31048903133E+03  0.00000000000E+00 0.  1.
<mgrwt>
<rscale>  1 0.13249874E+03</rscale>
<asrwt>0</asrwt>
<pdfrwt beam="2">  1        4 0.93966860E-01 0.13249874E+03</pdfrwt>
<pdfrwt beam="1">  1       -4 0.24772509E-02 0.13249874E+03</pdfrwt>
<totfact> 0.11841581E+03</totfact>
</mgrwt>
</event>
<event>
 6    4  0.5642870E-004  0.1265917E+03  0.7818608E-02  0.1232602E+00
          4   -1    0    0  502    0  0.00000000000E+00  0.00000000000E+00  0.12098932351E+03  0.12099598879E+03  0.12700000000E+01 0. -1.
         -4   -1    0    0    0  501 -0.00000000000E+00 -0.00000000000E+00 -0.71349227791E+02  0.71360529752E+02  0.12700000000E+01 0. -1.
         25    2    1    2    0    0 -0.18229581317E+02  0.82326735010E+01 -0.12375259451E+02  0.12719518933E+03  0.12500149837E+03 0.  0.
    9000005    1    3    3    0    0 -0.37628499653E+02 -0.50262689702E+02  0.54551242687E+01  0.63031740758E+02  0.10000000000E+01 0.  0.
    9000005    1    3    3    0    0  0.19398918335E+02  0.58495363203E+02 -0.17830383720E+02  0.64163448571E+02  0.10000000000E+01 0.  0.
         21    1    1    2  502  501  0.18229581317E+02 -0.82326735010E+01  0.62015355170E+02  0.65161329213E+02  0.00000000000E+00 0. -1.
<mgrwt>
<rscale>  1 0.12659174E+03</rscale>
<asrwt>0</asrwt>
<pdfrwt beam="1">  1        4 0.18615124E-01 0.12659174E+03</pdfrwt>
<pdfrwt beam="2">  1       -4 0.10978186E-01 0.12659174E+03</pdfrwt>
<totfact> 0.26814376E+03</totfact>
</mgrwt>
</event>
<event>
 6    4  0.5642870E-004  0.1271073E+03  0.7818608E-02  0.1231812E+00
          4   -1    0    0  502    0  0.00000000000E+00  0.00000000000E+00  0.42182651530E+02  0.42201765249E+02  0.12700000000E+01 0.  1.
         -4   -1    0    0    0  501 -0.00000000000E+00 -0.00000000000E+00 -0.14152580408E+03  0.14153150222E+03  0.12700000000E+01 0.  1.
         25    2    1    2    0    0 -0.73005303458E+01  0.21861739093E+02 -0.98260629656E+02  0.16065935937E+03  0.12500018013E+03 0.  0.
    9000005    1    3    3    0    0 -0.62192432639E+02 -0.37010903029E+01 -0.29220061588E+02  0.68821571809E+02  0.10000000000E+01 0.  0.
    9000005    1    3    3    0    0  0.54891902294E+02  0.25562829396E+02 -0.69040568068E+02  0.91837787557E+02  0.10000000000E+01 0.  0.
         21    1    1    2  502  501  0.73005303458E+01 -0.21861739093E+02 -0.10825228983E+01  0.23073908107E+02  0.00000000000E+00 0.  1.
<mgrwt>
<rscale>  1 0.12710735E+03</rscale>
<asrwt>0</asrwt>
<pdfrwt beam="1">  1        4 0.64915474E-02 0.12710735E+03</pdfrwt>
<pdfrwt beam="2">  1       -4 0.21775109E-01 0.12710735E+03</pdfrwt>
<totfact> 0.48475719E+03</totfact>
</mgrwt>
</event>
<event>
 6    4  0.5642870E-004  0.1306412E+03  0.7818608E-02  0.1226507E+00
         -4   -1    0    0    0  501 -0.00000000000E+00  0.00000000000E+00  0.10485521869E+04  0.10485529560E+04  0.12700000000E+01 0. -1.
          4   -1    0    0  502    0  0.00000000000E+00 -0.00000000000E+00 -0.12947890527E+02  0.13010025715E+02  0.12700000000E+01 0. -1.
         25    2    1    2    0    0  0.25671686173E+02 -0.28002977042E+02  0.10030831400E+04  0.10115547044E+04  0.12499572770E+03 0.  0.
    9000005    1    3    3    0    0  0.57059698215E+02 -0.59981519148E+02  0.74754275673E+03  0.75211353194E+03  0.10000000000E+01 0.  0.
    9000005    1    3    3    0    0 -0.31388012042E+02  0.31978542105E+02  0.25554038330E+03  0.25944117243E+03  0.10000000000E+01 0.  0.
         21    1    1    2  502  501 -0.25671686173E+02  0.28002977042E+02  0.32521156377E+02  0.50008277378E+02  0.00000000000E+00 0. -1.
<mgrwt>
<rscale>  1 0.13064124E+03</rscale>
<asrwt>0</asrwt>
<pdfrwt beam="2">  1        4 0.19968220E-02 0.13064124E+03</pdfrwt>
<pdfrwt beam="1">  1       -4 0.16132056E+00 0.13064124E+03</pdfrwt>
<totfact> 0.44444558E+02</totfact>
</mgrwt>
</event>
<event>
 6    4  0.5642870E-004  0.1302493E+03  0.7818608E-02  0.1227086E+00
          4   -1    0    0  502    0  0.00000000000E+00  0.00000000000E+00  0.12519563011E+03  0.12520207146E+03  0.12700000000E+01 0.  1.
         -4   -1    0    0    0  501 -0.00000000000E+00 -0.00000000000E+00 -0.77710556115E+02  0.77720933034E+02  0.12700000000E+01 0.  1.
         25    2    1    2    0    0  0.26833669345E+02 -0.24879950624E+02 -0.14385197901E+02  0.13104123839E+03  0.12500325791E+03 0.  0.
    9000005    1    3    3    0    0  0.47827686754E+02  0.38933788607E+02  0.26264249441E+01  0.61735124714E+02  0.10000000000E+01 0.  0.
    9000005    1    3    3    0    0 -0.20994017408E+02 -0.63813739231E+02 -0.17011622845E+02  0.69306113679E+02  0.10000000000E+01 0.  0.
         21    1    1    2  502  501 -0.26833669345E+02  0.24879950624E+02  0.61870271894E+02  0.71881766101E+02  0.00000000000E+00 0.  1.
<mgrwt>
<rscale>  1 0.13024927E+03</rscale>
<asrwt>0</asrwt>
<pdfrwt beam="1">  1        4 0.19262160E-01 0.13024927E+03</pdfrwt>
<pdfrwt beam="2">  1       -4 0.11956764E-01 0.13024927E+03</pdfrwt>
<totfact> 0.21962654E+03</totfact>
</mgrwt>
</event>
<event>
 6    4  0.5642870E-004  0.1267602E+03  0.7818608E-02  0.1232344E+00
         -4   -1    0    0    0  501 -0.00000000000E+00  0.00000000000E+00  0.43942363257E+02  0.43960711876E+02  0.12700000000E+01 0. -1.
          4   -1    0    0  502    0  0.00000000000E+00 -0.00000000000E+00 -0.20198231877E+03  0.20198631141E+03  0.12700000000E+01 0. -1.
         25    2    1    2    0    0 -0.20744526133E+02  0.35946023599E+01 -0.50636972943E+02  0.13649997126E+03  0.12499953038E+03 0.  0.
    9000005    1    3    3    0    0 -0.44271864472E+02  0.48304454187E+01 -0.84331430095E+02  0.95373588003E+02  0.10000000000E+01 0.  0.
    9000005    1    3    3    0    0  0.23527338340E+02 -0.12358430587E+01  0.33694457151E+02  0.41126383261E+02  0.10000000000E+01 0.  0.
         21    1    1    2  502  501  0.20744526133E+02 -0.35946023599E+01 -0.10740298257E+03  0.10944705202E+03  0.00000000000E+00 0.  1.
<mgrwt>
<rscale>  1 0.12676016E+03</rscale>
<asrwt>0</asrwt>
<pdfrwt beam="2">  1        4 0.31075921E-01 0.12676016E+03</pdfrwt>
<pdfrwt beam="1">  1       -4 0.67620823E-02 0.12676016E+03</pdfrwt>
<totfact> 0.23441347E+03</totfact>
</mgrwt>
</event>
<event>
 6    4  0.5642870E-004  0.1312574E+03  0.7818608E-02  0.1225602E+00
         -4   -1    0    0    0  501 -0.00000000000E+00  0.00000000000E+00  0.72129476988E+02  0.72140656710E+02  0.12700000000E+01 0. -1.
          4   -1    0    0  502    0  0.00000000000E+00 -0.00000000000E+00 -0.25949313986E+03  0.25949624763E+03  0.12700000000E+01 0. -1.
         25    2    1    2    0    0 -0.70615414707E+01 -0.39413123436E+02  0.86817962369E+01  0.13154422156E+03  0.12500099588E+03 0.  0.
    9000005    1    3    3    0    0 -0.39674712506E+02 -0.68582134626E+01  0.53693349468E+02  0.67119994647E+02  0.10000000000E+01 0.  0.
    9000005    1    3    3    0    0  0.32613171036E+02 -0.32554909974E+02 -0.45011553231E+02  0.64424226908E+02  0.10000000000E+01 0.  0.
         21    1    1    2  502  501  0.70615414707E+01  0.39413123436E+02 -0.19604545911E+03  0.20009268279E+03  0.00000000000E+00 0. -1.
<mgrwt>
<rscale>  1 0.13125741E+03</rscale>
<asrwt>0</asrwt>
<pdfrwt beam="2">  1        4 0.39923120E-01 0.13125741E+03</pdfrwt>
<pdfrwt beam="1">  1       -4 0.11097942E-01 0.13125741E+03</pdfrwt>
<totfact> 0.63833269E+02</totfact>
</mgrwt>
</event>
<event>
 6    4  0.5642870E-004  0.1266241E+03  0.7818608E-02  0.1232553E+00
         -4   -1    0    0    0  501 -0.00000000000E+00  0.00000000000E+00  0.16843067265E+03  0.16843546061E+03  0.12700000000E+01 0.  1.
          4   -1    0    0  502    0  0.00000000000E+00 -0.00000000000E+00 -0.71510373616E+02  0.71521650112E+02  0.12700000000E+01 0.  1.
         25    2    1    2    0    0  0.10638480927E+02  0.17207272011E+02  0.14217435685E+03  0.19038698629E+03  0.12499755724E+03 0.  0.
    9000005    1    3    3    0    0  0.12278413823E+02 -0.53987149872E+02  0.64211876041E+02  0.84791136459E+02  0.10000000000E+01 0.  0.
    9000005    1    3    3    0    0 -0.16399328960E+01  0.71194421883E+02  0.77962480814E+02  0.10559584983E+03  0.10000000000E+01 0.  0.
         21    1    1    2  502  501 -0.10638480927E+02 -0.17207272011E+02 -0.45254057820E+02  0.49570124427E+02  0.00000000000E+00 0.  1.
<mgrwt>
<rscale>  1 0.12662408E+03</rscale>
<asrwt>0</asrwt>
<pdfrwt beam="2">  1        4 0.11002832E-01 0.12662408E+03</pdfrwt>
<pdfrwt beam="1">  1       -4 0.25913647E-01 0.12662408E+03</pdfrwt>
<totfact> 0.14650805E+03</totfact>
</mgrwt>
</event>
<event>
 6    4  0.5642870E-004  0.1272746E+03  0.7818608E-02  0.1231557E+00
         -4   -1    0    0    0  501 -0.00000000000E+00  0.00000000000E+00  0.26424523450E+03  0.26424828638E+03  0.12700000000E+01 0.  1.
          4   -1    0    0  502    0  0.00000000000E+00 -0.00000000000E+00 -0.24329906278E+02  0.24363030179E+02  0.12700000000E+01 0.  1.
         25    2    1    2    0    0 -0.13687003813E+02  0.19672640705E+02  0.22960718596E+03  0.26252291564E+03  0.12499789810E+03 0.  0.
    9000005    1    3    3    0    0  0.42182604784E+02  0.71674295110E+01  0.18514346002E+03  0.19002590607E+03  0.10000000000E+01 0.  0.
    9000005    1    3    3    0    0 -0.55869608597E+02  0.12505211194E+02  0.44463725940E+02  0.72497009568E+02  0.10000000000E+01 0.  0.
         21    1    1    2  502  501  0.13687003813E+02 -0.19672640705E+02  0.10308142267E+02  0.26088400922E+02  0.00000000000E+00 0.  1.
<mgrwt>
<rscale>  1 0.12727459E+03</rscale>
<asrwt>0</asrwt>
<pdfrwt beam="2">  1        4 0.37458455E-02 0.12727459E+03</pdfrwt>
<pdfrwt beam="1">  1       -4 0.40655893E-01 0.12727459E+03</pdfrwt>
<totfact> 0.36067879E+03</totfact>
</mgrwt>
</event>
<event>
 6    4  0.5642870E-004  0.1266691E+03  0.7818608E-02  0.1232484E+00
          4   -1    0    0  502    0  0.00000000000E+00  0.00000000000E+00  0.26364857662E+02  0.26395428005E+02  0.12700000000E+01 0. -1.
         -4   -1    0    0    0  501 -0.00000000000E+00 -0.00000000000E+00 -0.21050416679E+03  0.21050799780E+03  0.12700000000E+01 0. -1.
         25    2    1    2    0    0  0.16551715427E+02  0.12054975122E+02 -0.17007317782E+03  0.21206116828E+03  0.12500308624E+03 0.  0.
    9000005    1    3    3    0    0  0.10084686987E+02  0.59881964983E+02 -0.14598048135E+03  0.15811025134E+03  0.10000000000E+01 0.  0.
    9000005    1    3    3    0    0  0.64670284395E+01 -0.47826989861E+02 -0.24092696471E+02  0.53950916945E+02  0.10000000000E+01 0.  0.
         21    1    1    2  502  501 -0.16551715427E+02 -0.12054975122E+02 -0.14066131305E+02  0.24842257519E+02  0.00000000000E+00 0. -1.
<mgrwt>
<rscale>  1 0.12666907E+03</rscale>
<asrwt>0</asrwt>
<pdfrwt beam="1">  1        4 0.40587783E-02 0.12666907E+03</pdfrwt>
<pdfrwt beam="2">  1       -4 0.32387902E-01 0.12666907E+03</pdfrwt>
<totfact> 0.49286089E+03</totfact>
</mgrwt>
</event>
<event>
 6    4  0.5642870E-004  0.1273109E+03  0.7818608E-02  0.1231501E+00
          4   -1    0    0  502    0  0.00000000000E+00  0.00000000000E+00  0.47044533034E+02  0.47061672180E+02  0.12700000000E+01 0.  1.
         -4   -1    0    0    0  501 -0.00000000000E+00 -0.00000000000E+00 -0.12188039454E+03  0.12188701110E+03  0.12700000000E+01 0.  1.
         25    2    1    2    0    0  0.50778137546E+01  0.23610395260E+02 -0.62219511920E+02  0.14170153235E+03  0.12499928659E+03 0.  0.
    9000005    1    3    3    0    0  0.46545880646E+02  0.40099386457E+02  0.42978514264E+01  0.61595059268E+02  0.10000000000E+01 0.  0.
    9000005    1    3    3    0    0 -0.41468066892E+02 -0.16488991197E+02 -0.66517363346E+02  0.80106473077E+02  0.10000000000E+01 0.  0.
         21    1    1    2  502  501 -0.50778137546E+01 -0.23610395260E+02 -0.12616349591E+02  0.27247150931E+02  0.00000000000E+00 0. -1.
<mgrwt>
<rscale>  1 0.12731087E+03</rscale>
<asrwt>0</asrwt>
<pdfrwt beam="1">  1        4 0.72394478E-02 0.12731087E+03</pdfrwt>
<pdfrwt beam="2">  1       -4 0.18752657E-01 0.12731087E+03</pdfrwt>
<totfact> 0.53076745E+03</totfact>
</mgrwt>
</event>
<event>
 6    4  0.5642870E-004  0.1269885E+03  0.7818608E-02  0.1231994E+00
          4   -1    0    0  502    0  0.00000000000E+00  0.00000000000E+00  0.30511703054E+03  0.30511967361E+03  0.12700000000E+01 0.  1.
         -4   -1    0    0    0  501 -0.00000000000E+00 -0.00000000000E+00 -0.18421019428E+02  0.18464746323E+02  0.12700000000E+01 0.  1.
         25    2    1    2    0    0 -0.22395425751E+02  0.81627589639E+00  0.25355582544E+03  0.28357825407E+03  0.12499539258E+03 0.  0.
    9000005    1    3    3    0    0  0.18181971677E+02 -0.52619836843E+02  0.15178199869E+03  0.16167314696E+03  0.10000000000E+01 0.  0.
    9000005    1    3    3    0    0 -0.40577397428E+02  0.53436112739E+02  0.10177382676E+03  0.12190510711E+03  0.10000000000E+01 0.  0.
         21    1    1    2  502  501  0.22395425751E+02 -0.81627589639E+00  0.33140185669E+02  0.40006165864E+02  0.00000000000E+00 0.  1.
<mgrwt>
<rscale>  1 0.12698846E+03</rscale>
<asrwt>0</asrwt>
<pdfrwt beam="1">  1        4 0.46944649E-01 0.12698846E+03</pdfrwt>
<pdfrwt beam="2">  1       -4 0.28375699E-02 0.12698846E+03</pdfrwt>
<totfact> 0.41868230E+03</totfact>
</mgrwt>
</event>
<event>
 6    4  0.5642870E-004  0.1590734E+03  0.7818608E-02  0.1189747E+00
          4   -1    0    0  502    0  0.00000000000E+00  0.00000000000E+00  0.25161287320E+03  0.25161607830E+03  0.12700000000E+01 0. -1.
         -4   -1    0    0    0  501 -0.00000000000E+00 -0.00000000000E+00 -0.70635971288E+02  0.70647387353E+02  0.12700000000E+01 0. -1.
         25    2    1    2    0    0  0.80202830668E+02 -0.56985010674E+02  0.69538733762E+02  0.17360866146E+03  0.12499818540E+03 0.  0.
    9000005    1    3    3    0    0 -0.92985880799E+01 -0.31120383791E+02 -0.24906402818E+02  0.40942287783E+02  0.10000000000E+01 0.  0.
    9000005    1    3    3    0    0  0.89501418748E+02 -0.25864626883E+02  0.94445136580E+02  0.13266637368E+03  0.10000000000E+01 0.  0.
         21    1    1    2  502  501 -0.80202830668E+02  0.56985010674E+02  0.11143816815E+03  0.14865480419E+03  0.00000000000E+00 0. -1.
<mgrwt>
<rscale>  1 0.15907335E+03</rscale>
<asrwt>0</asrwt>
<pdfrwt beam="1">  1        4 0.38710798E-01 0.15907335E+03</pdfrwt>
<pdfrwt beam="2">  1       -4 0.10868197E-01 0.15907335E+03</pdfrwt>
<totfact> 0.72981705E+02</totfact>
</mgrwt>
</event>
<event>
 6    4  0.5642870E-004  0.1418528E+03  0.7818608E-02  0.1210857E+00
         -4   -1    0    0    0  501 -0.00000000000E+00  0.00000000000E+00  0.60254318056E+03  0.60254451897E+03  0.12700000000E+01 0.  1.
          4   -1    0    0  502    0  0.00000000000E+00 -0.00000000000E+00 -0.26426326040E+02  0.26456825357E+02  0.12700000000E+01 0.  1.
         25    2    1    2    0    0  0.12699215844E+02 -0.65872490660E+02  0.52726570054E+03  0.54601405401E+03  0.12498709175E+03 0.  0.
    9000005    1    3    3    0    0  0.43732086892E+02 -0.22605860387E+02  0.44690427486E+03  0.44960866454E+03  0.10000000000E+01 0.  0.
    9000005    1    3    3    0    0 -0.31032871048E+02 -0.43266630272E+02  0.80361425685E+02  0.96405389469E+02  0.10000000000E+01 0.  0.
         21    1    1    2  502  501 -0.12699215844E+02  0.65872490660E+02  0.48851153984E+02  0.82987290318E+02  0.00000000000E+00 0.  1.
<mgrwt>
<rscale>  1 0.14185284E+03</rscale>
<asrwt>0</asrwt>
<pdfrwt beam="2">  1        4 0.40680380E-02 0.14185284E+03</pdfrwt>
<pdfrwt beam="1">  1       -4 0.92701393E-01 0.14185284E+03</pdfrwt>
<totfact> 0.56791873E+02</totfact>
</mgrwt>
</event>
<event>
 6    4  0.5642870E-004  0.1301196E+03  0.7818608E-02  0.1227278E+00
          4   -1    0    0  502    0  0.00000000000E+00  0.00000000000E+00  0.17232389472E+02  0.17279124599E+02  0.12700000000E+01 0. -1.
         -4   -1    0    0    0  501 -0.00000000000E+00 -0.00000000000E+00 -0.68955567612E+03  0.68955684565E+03  0.12700000000E+01 0. -1.
         25    2    1    2    0    0  0.14647010074E+02  0.33013952028E+02 -0.65307172038E+03  0.66590824448E+03  0.12500664849E+03 0.  0.
    9000005    1    3    3    0    0 -0.34515484059E+02 -0.28587709857E+02 -0.14538554884E+03  0.15213984885E+03  0.10000000000E+01 0.  0.
    9000005    1    3    3    0    0  0.49162494134E+02  0.61601661884E+02 -0.50768617154E+03  0.51376839563E+03  0.10000000000E+01 0.  0.
         21    1    1    2  502  501 -0.14647010074E+02 -0.33013952028E+02 -0.19251566270E+02  0.40927725767E+02  0.00000000000E+00 0. -1.
<mgrwt>
<rscale>  1 0.13011963E+03</rscale>
<asrwt>0</asrwt>
<pdfrwt beam="1">  1        4 0.26548223E-02 0.13011963E+03</pdfrwt>
<pdfrwt beam="2">  1       -4 0.10608915E+00 0.13011963E+03</pdfrwt>
<totfact> 0.80028497E+02</totfact>
</mgrwt>
</event>
<event>
 6    4  0.5642870E-004  0.1267744E+03  0.7818608E-02  0.1232322E+00
          4   -1    0    0  502    0  0.00000000000E+00  0.00000000000E+00  0.49000449176E+03  0.49000613756E+03  0.12700000000E+01 0. -1.
         -4   -1    0    0    0  501 -0.00000000000E+00 -0.00000000000E+00 -0.15049400131E+02  0.15102891918E+02  0.12700000000E+01 0. -1.
         25    2    1    2    0    0 -0.18937835252E+02 -0.93769443709E+01  0.26149226007E+03  0.29060273785E+03  0.12500072192E+03 0.  0.
    9000005    1    3    3    0    0 -0.17175074810E+02  0.50911347456E+02  0.18797051765E+03  0.19550157033E+03  0.10000000000E+01 0.  0.
    9000005    1    3    3    0    0 -0.17627604417E+01 -0.60288291827E+02  0.73521742414E+02  0.95101167518E+02  0.10000000000E+01 0.  0.
         21    1    1    2  502  501  0.18937835252E+02  0.93769443709E+01  0.21346283157E+03  0.21450629163E+03  0.00000000000E+00 0. -1.
<mgrwt>
<rscale>  1 0.12677440E+03</rscale>
<asrwt>0</asrwt>
<pdfrwt beam="1">  1        4 0.75389538E-01 0.12677440E+03</pdfrwt>
<pdfrwt beam="2">  1       -4 0.23195340E-02 0.12677440E+03</pdfrwt>
<totfact> 0.21215301E+03</totfact>
</mgrwt>
</event>
<event>
 6    4  0.5642870E-004  0.1300415E+03  0.7818608E-02  0.1227394E+00
         -4   -1    0    0    0  501 -0.00000000000E+00  0.00000000000E+00  0.39099292882E+03  0.39099499138E+03  0.12700000000E+01 0. -1.
          4   -1    0    0  502    0  0.00000000000E+00 -0.00000000000E+00 -0.17574055464E+02  0.17619884377E+02  0.12700000000E+01 0. -1.
         25    2    1    2    0    0  0.34495820257E+02  0.98012415695E+01  0.29181622935E+03  0.31948004834E+03  0.12499905448E+03 0.  0.
    9000005    1    3    3    0    0  0.32690822314E+02 -0.40749211820E+02  0.49626067693E+02  0.72062019970E+02  0.10000000000E+01 0.  0.
    9000005    1    3    3    0    0  0.18049979425E+01  0.50550453390E+02  0.24219016166E+03  0.24741802837E+03  0.10000000000E+01 0.  0.
         21    1    1    2  502  501 -0.34495820257E+02 -0.98012415695E+01  0.81602643997E+02  0.89134827418E+02  0.00000000000E+00 0. -1.
<mgrwt>
<rscale>  1 0.13004149E+03</rscale>
<asrwt>0</asrwt>
<pdfrwt beam="2">  1        4 0.27073849E-02 0.13004149E+03</pdfrwt>
<pdfrwt beam="1">  1       -4 0.60156440E-01 0.13004149E+03</pdfrwt>
<totfact> 0.27216537E+03</totfact>
</mgrwt>
</event>
<event>
 6    4  0.5642870E-004  0.1349900E+03  0.7818608E-02  0.1220234E+00
          4   -1    0    0  502    0  0.00000000000E+00  0.00000000000E+00  0.78528156475E+02  0.78538425368E+02  0.12700000000E+01 0. -1.
         -4   -1    0    0    0  501 -0.00000000000E+00 -0.00000000000E+00 -0.14401600413E+03  0.14402160375E+03  0.12700000000E+01 0. -1.
         25    2    1    2    0    0  0.49870695634E+02  0.10553383462E+02 -0.93677115049E+02  0.16430975031E+03  0.12499532782E+03 0.  0.
    9000005    1    3    3    0    0  0.10402360587E+02  0.62598597471E+02 -0.21614098453E+02  0.67044483465E+02  0.10000000000E+01 0.  0.
    9000005    1    3    3    0    0  0.39468335047E+02 -0.52045214009E+02 -0.72063016596E+02  0.97265266841E+02  0.10000000000E+01 0.  0.
         21    1    1    2  502  501 -0.49870695634E+02 -0.10553383462E+02  0.28189267391E+02  0.58250278811E+02  0.00000000000E+00 0. -1.
<mgrwt>
<rscale>  1 0.13498997E+03</rscale>
<asrwt>0</asrwt>
<pdfrwt beam="1">  1        4 0.12082475E-01 0.13498997E+03</pdfrwt>
<pdfrwt beam="2">  1       -4 0.22157529E-01 0.13498997E+03</pdfrwt>
<totfact> 0.16891116E+03</totfact>
</mgrwt>
</event>
<event>
 6    4  0.5642870E-004  0.1323890E+03  0.7818608E-02  0.1223953E+00
         -4   -1    0    0    0  501 -0.00000000000E+00  0.00000000000E+00  0.69954579405E+02  0.69966106649E+02  0.12700000000E+01 0. -1.
          4   -1    0    0  502    0  0.00000000000E+00 -0.00000000000E+00 -0.11081994241E+03  0.11082721929E+03  0.12700000000E+01 0. -1.
         25    2    1    2    0    0  0.36806207225E+02 -0.23421249603E+02 -0.33343534055E+02  0.13652336170E+03  0.12499434069E+03 0.  0.
    9000005    1    3    3    0    0  0.19556883231E+02 -0.10770524945E+02 -0.81133241419E+02  0.84155087501E+02  0.10000000000E+01 0.  0.
    9000005    1    3    3    0    0  0.17249323994E+02 -0.12650724657E+02  0.47789707364E+02  0.52368274198E+02  0.10000000000E+01 0.  0.
         21    1    1    2  502  501 -0.36806207225E+02  0.23421249603E+02 -0.75218289526E+01  0.44269964242E+02  0.00000000000E+00 0. -1.
<mgrwt>
<rscale>  1 0.13238896E+03</rscale>
<asrwt>0</asrwt>
<pdfrwt beam="2">  1        4 0.17050668E-01 0.13238896E+03</pdfrwt>
<pdfrwt beam="1">  1       -4 0.10763689E-01 0.13238896E+03</pdfrwt>
<totfact> 0.32750743E+03</totfact>
</mgrwt>
</event>
<event>
 6    4  0.5642870E-004  0.1266826E+03  0.7818608E-02  0.1232463E+00
         -4   -1    0    0    0  501 -0.00000000000E+00  0.00000000000E+00  0.41135563691E+02  0.41155163713E+02  0.12700000000E+01 0.  1.
          4   -1    0    0  502    0  0.00000000000E+00 -0.00000000000E+00 -0.13290748969E+03  0.13291355731E+03  0.12700000000E+01 0.  1.
         25    2    1    2    0    0  0.20610284577E+02  0.31488681028E+00 -0.84186174161E+02  0.15210450888E+03  0.12499434674E+03 0.  0.
    9000005    1    3    3    0    0 -0.32110691921E+02  0.34621839967E+02 -0.27662531919E+00  0.47231820417E+02  0.10000000000E+01 0.  0.
    9000005    1    3    3    0    0  0.52720976499E+02 -0.34306953157E+02 -0.83909548842E+02  0.10487268846E+03  0.10000000000E+01 0.  0.
         21    1    1    2  502  501 -0.20610284577E+02 -0.31488681028E+00 -0.75857518368E+01  0.21964212141E+02  0.00000000000E+00 0.  1.
<mgrwt>
<rscale>  1 0.12668255E+03</rscale>
<asrwt>0</asrwt>
<pdfrwt beam="2">  1        4 0.20449280E-01 0.12668255E+03</pdfrwt>
<pdfrwt beam="1">  1       -4 0.63305228E-02 0.12668255E+03</pdfrwt>
<totfact> 0.56525246E+03</totfact>
</mgrwt>
</event>
<event>
 6    4  0.5642870E-004  0.1326697E+03  0.7818608E-02  0.1223547E+00
          4   -1    0    0  502    0  0.00000000000E+00  0.00000000000E+00  0.16356149756E+02  0.16405381277E+02  0.12700000000E+01 0.  1.
         -4   -1    0    0    0  501 -0.00000000000E+00 -0.00000000000E+00 -0.47902198627E+03  0.47902366981E+03  0.12700000000E+01 0.  1.
         25    2    1    2    0    0 -0.22379176151E+02 -0.38425323386E+02 -0.34213997112E+03  0.36696186759E+03  0.12499567764E+03 0.  0.
    9000005    1    3    3    0    0 -0.63268916544E+02 -0.64333903284E+01 -0.94327997082E+02  0.11376781331E+03  0.10000000000E+01 0.  0.
    9000005    1    3    3    0    0  0.40889740392E+02 -0.31991933058E+02 -0.24781197403E+03  0.25319405428E+03  0.10000000000E+01 0.  0.
         21    1    1    2  502  501  0.22379176151E+02  0.38425323386E+02 -0.12052586540E+03  0.12846718349E+03  0.00000000000E+00 0.  1.
<mgrwt>
<rscale>  1 0.13266971E+03</rscale>
<asrwt>0</asrwt>
<pdfrwt beam="1">  1        4 0.25202476E-02 0.13266971E+03</pdfrwt>
<pdfrwt beam="2">  1       -4 0.73699596E-01 0.13266971E+03</pdfrwt>
<totfact> 0.19806022E+03</totfact>
</mgrwt>
</event>
<event>
 6    4  0.5642870E-004  0.1288215E+03  0.7818608E-02  0.1229215E+00
         -4   -1    0    0    0  501 -0.00000000000E+00  0.00000000000E+00  0.18223453551E+03  0.18223896080E+03  0.12700000000E+01 0.  1.
          4   -1    0    0  502    0  0.00000000000E+00 -0.00000000000E+00 -0.35614326372E+02  0.35636963155E+02  0.12700000000E+01 0.  1.
         25    2    1    2    0    0  0.29238364663E+02 -0.10718357975E+02  0.10687260234E+03  0.16738198955E+03  0.12500084851E+03 0.  0.
    9000005    1    3    3    0    0  0.38582976664E+02 -0.46273371208E+02  0.66470211840E+01  0.60622222508E+02  0.10000000000E+01 0.  0.
    9000005    1    3    3    0    0 -0.93446120010E+01  0.35555013233E+02  0.10022558116E+03  0.10675976704E+03  0.10000000000E+01 0.  0.
         21    1    1    2  502  501 -0.29238364663E+02  0.10718357975E+02  0.39747606797E+02  0.50493934408E+02  0.00000000000E+00 0.  1.
<mgrwt>
<rscale>  1 0.12882149E+03</rscale>
<asrwt>0</asrwt>
<pdfrwt beam="2">  1        4 0.54812087E-02 0.12882149E+03</pdfrwt>
<pdfrwt beam="1">  1       -4 0.28038165E-01 0.12882149E+03</pdfrwt>
<totfact> 0.40179524E+03</totfact>
</mgrwt>
</event>
<event>
 6    4  0.5642870E-004  0.1295966E+03  0.7818608E-02  0.1228056E+00
         -4   -1    0    0    0  501 -0.00000000000E+00  0.00000000000E+00  0.12479304256E+02  0.12543760789E+02  0.12700000000E+01 0. -1.
          4   -1    0    0  502    0  0.00000000000E+00 -0.00000000000E+00 -0.57749348141E+03  0.57749487788E+03  0.12700000000E+01 0. -1.
         25    2    1    2    0    0  0.21119790397E+02  0.26903058472E+02 -0.36980697674E+03  0.39185773344E+03  0.12500185243E+03 0.  0.
    9000005    1    3    3    0    0  0.23930756801E+02 -0.48230310585E+02 -0.13673586937E+03  0.14695761958E+03  0.10000000000E+01 0.  0.
    9000005    1    3    3    0    0 -0.28109664047E+01  0.75133369057E+02 -0.23307110737E+03  0.24490011386E+03  0.10000000000E+01 0.  0.
         21    1    1    2  502  501 -0.21119790397E+02 -0.26903058472E+02 -0.19520720042E+03  0.19818090523E+03  0.00000000000E+00 0.  1.
<mgrwt>
<rscale>  1 0.12959662E+03</rscale>
<asrwt>0</asrwt>
<pdfrwt beam="2">  1        4 0.88850196E-01 0.12959662E+03</pdfrwt>
<pdfrwt beam="1">  1       -4 0.19249590E-02 0.12959662E+03</pdfrwt>
<totfact> 0.19748821E+03</totfact>
</mgrwt>
</event>
<event>
 6    4  0.5642870E-004  0.1292773E+03  0.7818608E-02  0.1228532E+00
         -4   -1    0    0    0  501 -0.00000000000E+00  0.00000000000E+00  0.44519587334E+03  0.44519768479E+03  0.12700000000E+01 0. -1.
          4   -1    0    0  502    0  0.00000000000E+00 -0.00000000000E+00 -0.15867176928E+02  0.15917920833E+02  0.12700000000E+01 0. -1.
         25    2    1    2    0    0  0.20081768742E+02 -0.26161133473E+02  0.38313066397E+03  0.40435346558E+03  0.12499974844E+03 0.  0.
    9000005    1    3    3    0    0 -0.59888229980E+01 -0.53626431067E+02  0.34966913361E+03  0.35380950115E+03  0.10000000000E+01 0.  0.
    9000005    1    3    3    0    0  0.26070591740E+02  0.27465297593E+02  0.33461530368E+02  0.50543964428E+02  0.10000000000E+01 0.  0.
         21    1    1    2  502  501 -0.20081768742E+02  0.26161133473E+02  0.46198032438E+02  0.56762140037E+02  0.00000000000E+00 0. -1.
<mgrwt>
<rscale>  1 0.12927730E+03</rscale>
<asrwt>0</asrwt>
<pdfrwt beam="2">  1        4 0.24451474E-02 0.12927730E+03</pdfrwt>
<pdfrwt beam="1">  1       -4 0.68495701E-01 0.12927730E+03</pdfrwt>
<totfact> 0.24172804E+03</totfact>
</mgrwt>
</event>
<event>
 6    4  0.5642870E-004  0.1271460E+03  0.7818608E-02  0.1231753E+00
          4   -1    0    0  502    0  0.00000000000E+00  0.00000000000E+00  0.12261181399E+02  0.12326778545E+02  0.12700000000E+01 0. -1.
         -4   -1    0    0    0  501 -0.00000000000E+00 -0.00000000000E+00 -0.46659935776E+03  0.46660108612E+03  0.12700000000E+01 0. -1.
         25    2    1    2    0    0 -0.71941652612E+00 -0.23252410537E+02 -0.40260323110E+03  0.42220311947E+03  0.12499968096E+03 0.  0.
    9000005    1    3    3    0    0 -0.48475633171E+02 -0.91749538356E+01 -0.68580768178E+02  0.84488984803E+02  0.10000000000E+01 0.  0.
    9000005    1    3    3    0    0  0.47756216645E+02 -0.14077456701E+02 -0.33402246292E+03  0.33771413467E+03  0.10000000000E+01 0.  0.
         21    1    1    2  502  501  0.71941652612E+00  0.23252410537E+02 -0.51734945260E+02  0.56724745191E+02  0.00000000000E+00 0.  1.
<mgrwt>
<rscale>  1 0.12714603E+03</rscale>
<asrwt>0</asrwt>
<pdfrwt beam="1">  1        4 0.18915148E-02 0.12714603E+03</pdfrwt>
<pdfrwt beam="2">  1       -4 0.71789682E-01 0.12714603E+03</pdfrwt>
<totfact> 0.32335019E+03</totfact>
</mgrwt>
</event>
<event>
 6    4  0.5642870E-004  0.1271195E+03  0.7818608E-02  0.1231794E+00
         -4   -1    0    0    0  501 -0.00000000000E+00  0.00000000000E+00  0.17784747489E+03  0.17785200933E+03  0.12700000000E+01 0. -1.
          4   -1    0    0  502    0  0.00000000000E+00 -0.00000000000E+00 -0.49772028600E+02  0.49788228839E+02  0.12700000000E+01 0. -1.
         25    2    1    2    0    0 -0.10624926502E+02 -0.20571593822E+02  0.14940035931E+03  0.19616276287E+03  0.12499313037E+03 0.  0.
    9000005    1    3    3    0    0  0.19054641811E+02 -0.65362253271E+02  0.54965325175E+02  0.87507088277E+02  0.10000000000E+01 0.  0.
    9000005    1    3    3    0    0 -0.29679568312E+02  0.44790659449E+02  0.94435034139E+02  0.10865567460E+03  0.10000000000E+01 0.  0.
         21    1    1    2  502  501  0.10624926502E+02  0.20571593822E+02 -0.21324913027E+02  0.31477475298E+02  0.00000000000E+00 0. -1.
<mgrwt>
<rscale>  1 0.12711948E+03</rscale>
<asrwt>0</asrwt>
<pdfrwt beam="2">  1        4 0.76588301E-02 0.12711948E+03</pdfrwt>
<pdfrwt beam="1">  1       -4 0.27362745E-01 0.12711948E+03</pdfrwt>
<totfact> 0.24286627E+03</totfact>
</mgrwt>
</event>
<event>
 6    4  0.5642870E-004  0.1347464E+03  0.7818608E-02  0.1220578E+00
          4   -1    0    0  502    0  0.00000000000E+00  0.00000000000E+00  0.13667988609E+03  0.13668578625E+03  0.12700000000E+01 0.  1.
         -4   -1    0    0    0  501 -0.00000000000E+00 -0.00000000000E+00 -0.93907201275E+02  0.93915788616E+02  0.12700000000E+01 0.  1.
         25    2    1    2    0    0 -0.19934762728E+00  0.50318323673E+02 -0.33850480403E+02  0.13893324399E+03  0.12499847129E+03 0.  0.
    9000005    1    3    3    0    0 -0.50611805564E+02  0.56835752412E+02 -0.42785256365E+02  0.87312288807E+02  0.10000000000E+01 0.  0.
    9000005    1    3    3    0    0  0.50412457936E+02 -0.65174287390E+01  0.89347759613E+01  0.51620955183E+02  0.10000000000E+01 0.  0.
         21    1    1    2  502  501  0.19934762728E+00 -0.50318323673E+02  0.76623165220E+02  0.91668330873E+02  0.00000000000E+00 0.  1.
<mgrwt>
<rscale>  1 0.13474640E+03</rscale>
<asrwt>0</asrwt>
<pdfrwt beam="1">  1        4 0.21028789E-01 0.13474640E+03</pdfrwt>
<pdfrwt beam="2">  1       -4 0.14448376E-01 0.13474640E+03</pdfrwt>
<totfact> 0.13636436E+03</totfact>
</mgrwt>
</event>
<event>
 6    4  0.5642870E-004  0.1294659E+03  0.7818608E-02  0.1228250E+00
         -4   -1    0    0    0  501 -0.00000000000E+00  0.00000000000E+00  0.50910948039E+01  0.52471083753E+01  0.12700000000E+01 0. -1.
          4   -1    0    0  502    0  0.00000000000E+00 -0.00000000000E+00 -0.13031524620E+04  0.13031530809E+04  0.12700000000E+01 0. -1.
         25    2    1    2    0    0  0.16856545743E+02  0.29082595371E+02 -0.96477078824E+03  0.97341877107E+03  0.12502595545E+03 0.  0.
    9000005    1    3    3    0    0  0.48840102273E+02  0.63572950609E+02 -0.69088845595E+03  0.69552479051E+03  0.10000000000E+01 0.  0.
    9000005    1    3    3    0    0 -0.31983556530E+02 -0.34490355238E+02 -0.27388233229E+03  0.27789398056E+03  0.10000000000E+01 0.  0.
         21    1    1    2  502  501 -0.16856545743E+02 -0.29082595371E+02 -0.33329057899E+03  0.33498141819E+03  0.00000000000E+00 0.  1.
<mgrwt>
<rscale>  1 0.12946594E+03</rscale>
<asrwt>0</asrwt>
<pdfrwt beam="2">  1        4 0.20049678E+00 0.12946594E+03</pdfrwt>
<pdfrwt beam="1">  1       -4 0.79529504E-03 0.12946594E+03</pdfrwt>
<totfact> 0.99067091E+02</totfact>
</mgrwt>
</event>
<event>
 6    4  0.5642870E-004  0.1266884E+03  0.7818608E-02  0.1232454E+00
          4   -1    0    0  502    0  0.00000000000E+00  0.00000000000E+00  0.17901953003E+03  0.17902403479E+03  0.12700000000E+01 0. -1.
         -4   -1    0    0    0  501 -0.00000000000E+00 -0.00000000000E+00 -0.30677808551E+02  0.30704085029E+02  0.12700000000E+01 0. -1.
         25    2    1    2    0    0 -0.15433810477E+02 -0.13661029540E+02  0.11857733775E+03  0.17352391049E+03  0.12500054500E+03 0.  0.
    9000005    1    3    3    0    0  0.25125737326E+02 -0.54241088874E+02  0.93318671229E+02  0.11082767163E+03  0.10000000000E+01 0.  0.
    9000005    1    3    3    0    0 -0.40559547803E+02  0.40580059334E+02  0.25258666518E+02  0.62696238865E+02  0.10000000000E+01 0.  0.
         21    1    1    2  502  501  0.15433810477E+02  0.13661029540E+02  0.29764383735E+02  0.36204209328E+02  0.00000000000E+00 0. -1.
<mgrwt>
<rscale>  1 0.12668845E+03</rscale>
<asrwt>0</asrwt>
<pdfrwt beam="1">  1        4 0.27543834E-01 0.12668845E+03</pdfrwt>
<pdfrwt beam="2">  1       -4 0.47220306E-02 0.12668845E+03</pdfrwt>
<totfact> 0.52564575E+03</totfact>
</mgrwt>
</event>
<event>
 6    4  0.5642870E-004  0.1278596E+03  0.7818608E-02  0.1230667E+00
         -4   -1    0    0    0  501 -0.00000000000E+00  0.00000000000E+00  0.69268637801E+02  0.69280279177E+02  0.12700000000E+01 0. -1.
          4   -1    0    0  502    0  0.00000000000E+00 -0.00000000000E+00 -0.10606192229E+03  0.10606952560E+03  0.12700000000E+01 0. -1.
         25    2    1    2    0    0  0.76792341703E+01 -0.25768185134E+02  0.23262609713E+01  0.12788077445E+03  0.12500044393E+03 0.  0.
    9000005    1    3    3    0    0 -0.56579645058E+02 -0.18693528045E+02  0.16190163892E+02  0.61756178901E+02  0.10000000000E+01 0.  0.
    9000005    1    3    3    0    0  0.64258879228E+02 -0.70746570891E+01 -0.13863902920E+02  0.66124595551E+02  0.10000000000E+01 0.  0.
         21    1    1    2  502  501 -0.76792341703E+01  0.25768185134E+02 -0.39119545462E+02  0.47469030322E+02  0.00000000000E+00 0. -1.
<mgrwt>
<rscale>  1 0.12785961E+03</rscale>
<asrwt>0</asrwt>
<pdfrwt beam="2">  1        4 0.16318699E-01 0.12785961E+03</pdfrwt>
<pdfrwt beam="1">  1       -4 0.10658194E-01 0.12785961E+03</pdfrwt>
<totfact> 0.35675720E+03</totfact>
</mgrwt>
</event>
<event>
 6    4  0.5642870E-004  0.1292467E+03  0.7818608E-02  0.1228578E+00
         -4   -1    0    0    0  501 -0.00000000000E+00  0.00000000000E+00  0.57429082851E+02  0.57443123671E+02  0.12700000000E+01 0. -1.
          4   -1    0    0  502    0  0.00000000000E+00 -0.00000000000E+00 -0.11451868372E+03  0.11452572558E+03  0.12700000000E+01 0. -1.
         25    2    1    2    0    0 -0.32453370604E+02  0.51155985013E+01 -0.42887855941E+02  0.13617666896E+03  0.12500130547E+03 0.  0.
    9000005    1    3    3    0    0 -0.63348752727E+02 -0.19971532226E+02  0.12870073647E+02  0.67665097112E+02  0.10000000000E+01 0.  0.
    9000005    1    3    3    0    0  0.30895382124E+02  0.25087130727E+02 -0.55757929588E+02  0.68511571845E+02  0.10000000000E+01 0.  0.
         21    1    1    2  502  501  0.32453370604E+02 -0.51155985013E+01 -0.14201744926E+02  0.35792180298E+02  0.00000000000E+00 0. -1.
<mgrwt>
<rscale>  1 0.12924673E+03</rscale>
<asrwt>0</asrwt>
<pdfrwt beam="2">  1        4 0.17619881E-01 0.12924673E+03</pdfrwt>
<pdfrwt beam="1">  1       -4 0.88368653E-02 0.12924673E+03</pdfrwt>
<totfact> 0.42792996E+03</totfact>
</mgrwt>
</event>
<event>
 6    4  0.5642870E-004  0.1272289E+03  0.7818608E-02  0.1231626E+00
          4   -1    0    0  502    0  0.00000000000E+00  0.00000000000E+00  0.23615387184E+03  0.23615728675E+03  0.12700000000E+01 0. -1.
         -4   -1    0    0    0  501 -0.00000000000E+00 -0.00000000000E+00 -0.35103073907E+02  0.35126040166E+02  0.12700000000E+01 0. -1.
         25    2    1    2    0    0  0.22917280843E+02  0.62009392917E+01  0.85428849291E+02  0.15324905894E+03  0.12499412932E+03 0.  0.
    9000005    1    3    3    0    0 -0.38871991214E+02 -0.18297513446E+02  0.74320877046E+02  0.85851170430E+02  0.10000000000E+01 0.  0.
    9000005    1    3    3    0    0  0.61789272058E+02  0.24498452737E+02  0.11107972245E+02  0.67397888508E+02  0.10000000000E+01 0.  0.
         21    1    1    2  502  501 -0.22917280843E+02 -0.62009392917E+01  0.11562194864E+03  0.11803426798E+03  0.00000000000E+00 0. -1.
<mgrwt>
<rscale>  1 0.12722887E+03</rscale>
<asrwt>0</asrwt>
<pdfrwt beam="1">  1        4 0.36333395E-01 0.12722887E+03</pdfrwt>
<pdfrwt beam="2">  1       -4 0.54025021E-02 0.12722887E+03</pdfrwt>
<totfact> 0.25035825E+03</totfact>
</mgrwt>
</event>
<event>
 6    4  0.5642870E-004  0.1316849E+03  0.7818608E-02  0.1224977E+00
         -4   -1    0    0    0  501 -0.00000000000E+00  0.00000000000E+00  0.92345080004E+02  0.92353812595E+02  0.12700000000E+01 0.  1.
          4   -1    0    0  502    0  0.00000000000E+00 -0.00000000000E+00 -0.91529256731E+02  0.91538067151E+02  0.12700000000E+01 0.  1.
         25    2    1    2    0    0  0.40724099039E+02 -0.75705848408E+01  0.27624860958E+02  0.13455132342E+03  0.12500063877E+03 0.  0.
    9000005    1    3    3    0    0 -0.12986165145E+02  0.45967686347E+02  0.33698186180E+02  0.58465685877E+02  0.10000000000E+01 0.  0.
    9000005    1    3    3    0    0  0.53710264184E+02 -0.53538271188E+02 -0.60733252213E+01  0.76085637539E+02  0.10000000000E+01 0.  0.
         21    1    1    2  502  501 -0.40724099039E+02  0.75705848408E+01 -0.26809037686E+02  0.49340556331E+02  0.00000000000E+00 0.  1.
<mgrwt>
<rscale>  1 0.13168495E+03</rscale>
<asrwt>0</asrwt>
<pdfrwt beam="2">  1        4 0.14082774E-01 0.13168495E+03</pdfrwt>
<pdfrwt beam="1">  1       -4 0.14208285E-01 0.13168495E+03</pdfrwt>
<totfact> 0.28401754E+03</totfact>
</mgrwt>
</event>
<event>
 6    4  0.5642870E-004  0.1269789E+03  0.7818608E-02  0.1232009E+00
          4   -1    0    0  502    0  0.00000000000E+00  0.00000000000E+00  0.98626450555E+01  0.99440770055E+01  0.12700000000E+01 0.  1.
         -4   -1    0    0    0  501 -0.00000000000E+00 -0.00000000000E+00 -0.12403614202E+04  0.12403620704E+04  0.12700000000E+01 0.  1.
         25    2    1    2    0    0  0.41244572368E+01 -0.21944206728E+02 -0.12182285924E+04  0.12248283778E+04  0.12500037009E+03 0.  0.
    9000005    1    3    3    0    0 -0.16706976692E+02  0.49320203234E+02 -0.44269861433E+03  0.44575180162E+03  0.10000000000E+01 0.  0.
    9000005    1    3    3    0    0  0.20831433929E+02 -0.71264409963E+02 -0.77552997804E+03  0.77907657621E+03  0.10000000000E+01 0.  0.
         21    1    1    2  502  501 -0.41244572368E+01  0.21944206728E+02 -0.12270182803E+02  0.25477769574E+02  0.00000000000E+00 0.  1.
<mgrwt>
<rscale>  1 0.12697894E+03</rscale>
<asrwt>0</asrwt>
<pdfrwt beam="1">  1        4 0.15236450E-02 0.12697894E+03</pdfrwt>
<pdfrwt beam="2">  1       -4 0.19083102E+00 0.12697894E+03</pdfrwt>
<totfact> 0.42559950E+02</totfact>
</mgrwt>
</event>
<event>
 6    4  0.5642870E-004  0.1302337E+03  0.7818608E-02  0.1227109E+00
          4   -1    0    0  502    0  0.00000000000E+00  0.00000000000E+00  0.17712610801E+02  0.17758082142E+02  0.12700000000E+01 0. -1.
         -4   -1    0    0    0  501 -0.00000000000E+00 -0.00000000000E+00 -0.39737109247E+03  0.39737312193E+03  0.12700000000E+01 0. -1.
         25    2    1    2    0    0 -0.30683452927E+02 -0.19864841314E+02 -0.31491757956E+03  0.34078424307E+03  0.12499892882E+03 0.  0.
    9000005    1    3    3    0    0 -0.14363798160E+02  0.46039320461E+02 -0.60045342425E+02  0.77021950592E+02  0.10000000000E+01 0.  0.
    9000005    1    3    3    0    0 -0.16319654767E+02 -0.65904161776E+02 -0.25487223713E+03  0.26376229248E+03  0.10000000000E+01 0.  0.
         21    1    1    2  502  501  0.30683452927E+02  0.19864841314E+02 -0.64740902108E+02  0.74346960998E+02  0.00000000000E+00 0. -1.
<mgrwt>
<rscale>  1 0.13023371E+03</rscale>
<asrwt>0</asrwt>
<pdfrwt beam="1">  1        4 0.27286712E-02 0.13023371E+03</pdfrwt>
<pdfrwt beam="2">  1       -4 0.61137662E-01 0.13023371E+03</pdfrwt>
<totfact> 0.25996599E+03</totfact>
</mgrwt>
</event>
<event>
 6    4  0.5642870E-004  0.1288289E+03  0.7818608E-02  0.1229204E+00
          4   -1    0    0  502    0  0.00000000000E+00  0.00000000000E+00  0.16993540797E+02  0.17040930985E+02  0.12700000000E+01 0. -1.
         -4   -1    0    0    0  501 -0.00000000000E+00 -0.00000000000E+00 -0.51960008253E+03  0.51960163459E+03  0.12700000000E+01 0. -1.
         25    2    1    2    0    0 -0.37486374631E+01 -0.30980875550E+02 -0.48277267526E+03  0.49966623271E+03  0.12499208455E+03 0.  0.
    9000005    1    3    3    0    0  0.40857486116E+02  0.12702503895E+01 -0.55902623603E+02  0.69260746700E+02  0.10000000000E+01 0.  0.
    9000005    1    3    3    0    0 -0.44606123579E+02 -0.32251125940E+02 -0.42687005166E+03  0.43040548601E+03  0.10000000000E+01 0.  0.
         21    1    1    2  502  501  0.37486374631E+01  0.30980875550E+02 -0.19833866472E+02  0.36976332862E+02  0.00000000000E+00 0. -1.
<mgrwt>
<rscale>  1 0.12882891E+03</rscale>
<asrwt>0</asrwt>
<pdfrwt beam="1">  1        4 0.26181561E-02 0.12882891E+03</pdfrwt>
<pdfrwt beam="2">  1       -4 0.79942227E-01 0.12882891E+03</pdfrwt>
<totfact> 0.15514846E+03</totfact>
</mgrwt>
</event>
<event>
 6    4  0.5642870E-004  0.1280607E+03  0.7818608E-02  0.1230362E+00
          4   -1    0    0  502    0  0.00000000000E+00  0.00000000000E+00  0.56053627384E+02  0.56068012654E+02  0.12700000000E+01 0.  1.
         -4   -1    0    0    0  501 -0.00000000000E+00 -0.00000000000E+00 -0.20726822593E+03  0.20727211674E+03  0.12700000000E+01 0.  1.
         25    2    1    2    0    0  0.12348958873E+02 -0.24932867233E+02 -0.18155404473E+03  0.22217428617E+03  0.12500159050E+03 0.  0.
    9000005    1    3    3    0    0 -0.53858232528E+02  0.63699294498E+01 -0.66955787978E+02  0.86170544596E+02  0.10000000000E+01 0.  0.
    9000005    1    3    3    0    0  0.66207191401E+02 -0.31302796682E+02 -0.11459825675E+03  0.13600374158E+03  0.10000000000E+01 0.  0.
         21    1    1    2  502  501 -0.12348958873E+02  0.24932867233E+02  0.30339446183E+02  0.41165843224E+02  0.00000000000E+00 0. -1.
<mgrwt>
<rscale>  1 0.12806070E+03</rscale>
<asrwt>0</asrwt>
<pdfrwt beam="1">  1        4 0.86250409E-02 0.12806070E+03</pdfrwt>
<pdfrwt beam="2">  1       -4 0.31888825E-01 0.12806070E+03</pdfrwt>
<totfact> 0.14976717E+03</totfact>
</mgrwt>
</event>
<event>
 6    4  0.5642870E-004  0.1315014E+03  0.7818608E-02  0.1225245E+00
         -4   -1    0    0    0  501 -0.00000000000E+00  0.00000000000E+00  0.33765851547E+02  0.33789726704E+02  0.12700000000E+01 0.  1.
          4   -1    0    0  502    0  0.00000000000E+00 -0.00000000000E+00 -0.23596818507E+03  0.23597160267E+03  0.12700000000E+01 0.  1.
         25    2    1    2    0    0 -0.25784957212E+02 -0.31670230459E+02 -0.12023169959E+03  0.17818047797E+03  0.12499901451E+03 0.  0.
    9000005    1    3    3    0    0  0.47975996773E+02 -0.28112421075E+02 -0.36452225830E+02  0.66496385263E+02  0.10000000000E+01 0.  0.
    9000005    1    3    3    0    0 -0.73760953985E+02 -0.35578093838E+01 -0.83779473757E+02  0.11168409270E+03  0.10000000000E+01 0.  0.
         21    1    1    2  502  501  0.25784957212E+02  0.31670230459E+02 -0.81970633934E+02  0.91580851401E+02  0.00000000000E+00 0.  1.
<mgrwt>
<rscale>  1 0.13150141E+03</rscale>
<asrwt>0</asrwt>
<pdfrwt beam="2">  1        4 0.36304896E-01 0.13150141E+03</pdfrwt>
<pdfrwt beam="1">  1       -4 0.51968460E-02 0.13150141E+03</pdfrwt>
<totfact> 0.26902495E+03</totfact>
</mgrwt>
</event>
<event>
 6    4  0.5642870E-004  0.1267405E+03  0.7818608E-02  0.1232374E+00
          4   -1    0    0  502    0  0.00000000000E+00  0.00000000000E+00  0.17962196906E+03  0.17962645871E+03  0.12700000000E+01 0.  1.
         -4   -1    0    0    0  501 -0.00000000000E+00 -0.00000000000E+00 -0.51923734974E+02  0.51939264085E+02  0.12700000000E+01 0.  1.
         25    2    1    2    0    0 -0.16944238988E+02 -0.12293099178E+02  0.28135352929E+02  0.12982588386E+03  0.12499973805E+03 0.  0.
    9000005    1    3    3    0    0  0.33170831090E+01 -0.64926453787E+02  0.33540415397E+02  0.73160145617E+02  0.10000000000E+01 0.  0.
    9000005    1    3    3    0    0 -0.20261322097E+02  0.52633354608E+02 -0.54050624680E+01  0.56665738244E+02  0.10000000000E+01 0.  0.
         21    1    1    2  502  501  0.16944238988E+02  0.12293099178E+02  0.99562881156E+02  0.10173983893E+03  0.00000000000E+00 0.  1.
<mgrwt>
<rscale>  1 0.12674053E+03</rscale>
<asrwt>0</asrwt>
<pdfrwt beam="1">  1        4 0.27635689E-01 0.12674053E+03</pdfrwt>
<pdfrwt beam="2">  1       -4 0.79898068E-02 0.12674053E+03</pdfrwt>
<totfact> 0.22216206E+03</totfact>
</mgrwt>
</event>
<event>
 6    4  0.5642870E-004  0.1267891E+03  0.7818608E-02  0.1232299E+00
          4   -1    0    0  502    0  0.00000000000E+00  0.00000000000E+00  0.46932694945E+02  0.46949874918E+02  0.12700000000E+01 0. -1.
         -4   -1    0    0    0  501 -0.00000000000E+00 -0.00000000000E+00 -0.12089521899E+03  0.12090188946E+03  0.12700000000E+01 0. -1.
         25    2    1    2    0    0 -0.16689390652E+02 -0.13153981175E+02 -0.51269907850E+02  0.13676289481E+03  0.12499569179E+03 0.  0.
    9000005    1    3    3    0    0  0.50534020479E+01 -0.67737998422E+02 -0.30084170728E+02  0.74296908623E+02  0.10000000000E+01 0.  0.
    9000005    1    3    3    0    0 -0.21742792700E+02  0.54584017247E+02 -0.21185737122E+02  0.62465986189E+02  0.10000000000E+01 0.  0.
         21    1    1    2  502  501  0.16689390652E+02  0.13153981175E+02 -0.22692616199E+02  0.31088869568E+02  0.00000000000E+00 0. -1.
<mgrwt>
<rscale>  1 0.12678914E+03</rscale>
<asrwt>0</asrwt>
<pdfrwt beam="1">  1        4 0.72222493E-02 0.12678914E+03</pdfrwt>
<pdfrwt beam="2">  1       -4 0.18601099E-01 0.12678914E+03</pdfrwt>
<totfact> 0.54004647E+03</totfact>
</mgrwt>
</event>
<event>
 6    4  0.5642870E-004  0.1282345E+03  0.7818608E-02  0.1230099E+00
          4   -1    0    0  502    0  0.00000000000E+00  0.00000000000E+00  0.23034850056E+02  0.23069833487E+02  0.12700000000E+01 0. -1.
         -4   -1    0    0    0  501 -0.00000000000E+00 -0.00000000000E+00 -0.26755783029E+03  0.26756084438E+03  0.12700000000E+01 0. -1.
         25    2    1    2    0    0 -0.15605501546E+02  0.23992597408E+02 -0.20570847786E+03  0.24240473046E+03  0.12499959632E+03 0.  0.
    9000005    1    3    3    0    0  0.29272314703E+02 -0.38942621097E+02 -0.58520794847E+02  0.76151687936E+02  0.10000000000E+01 0.  0.
    9000005    1    3    3    0    0 -0.44877816249E+02  0.62935218506E+02 -0.14718768301E+03  0.16625304253E+03  0.10000000000E+01 0.  0.
         21    1    1    2  502  501  0.15605501546E+02 -0.23992597408E+02 -0.38814502372E+02  0.48225947407E+02  0.00000000000E+00 0. -1.
<mgrwt>
<rscale>  1 0.12823446E+03</rscale>
<asrwt>0</asrwt>
<pdfrwt beam="1">  1        4 0.35467462E-02 0.12823446E+03</pdfrwt>
<pdfrwt beam="2">  1       -4 0.41165664E-01 0.12823446E+03</pdfrwt>
<totfact> 0.38432777E+03</totfact>
</mgrwt>
</event>
<event>
 6    4  0.5642870E-004  0.1272531E+03  0.7818608E-02  0.1231589E+00
          4   -1    0    0  502    0  0.00000000000E+00  0.00000000000E+00  0.18133268098E+03  0.18133712827E+03  0.12700000000E+01 0.  1.
         -4   -1    0    0    0  501 -0.00000000000E+00 -0.00000000000E+00 -0.10942098275E+03  0.10942835266E+03  0.12700000000E+01 0.  1.
         25    2    1    2    0    0  0.18957424366E+02 -0.14458914275E+02 -0.71107526395E+02  0.14577257506E+03  0.12499967676E+03 0.  0.
    9000005    1    3    3    0    0  0.92217504320E+01 -0.50807922327E+02 -0.89914586343E+02  0.10369242253E+03  0.10000000000E+01 0.  0.
    9000005    1    3    3    0    0  0.97356739336E+01  0.36349008052E+02  0.18807059948E+02  0.42080152533E+02  0.10000000000E+01 0.  0.
         21    1    1    2  502  501 -0.18957424366E+02  0.14458914275E+02  0.14301922462E+03  0.14499290587E+03  0.00000000000E+00 0.  1.
<mgrwt>
<rscale>  1 0.12725315E+03</rscale>
<asrwt>0</asrwt>
<pdfrwt beam="1">  1        4 0.27898244E-01 0.12725315E+03</pdfrwt>
<pdfrwt beam="2">  1       -4 0.16834907E-01 0.12725315E+03</pdfrwt>
<totfact> 0.61304697E+02</totfact>
</mgrwt>
</event>
<event>
 6    4  0.5642870E-004  0.1517220E+03  0.7818608E-02  0.1198373E+00
         -4   -1    0    0    0  501 -0.00000000000E+00  0.00000000000E+00  0.63721505149E+02  0.63734159746E+02  0.12700000000E+01 0. -1.
          4   -1    0    0  502    0  0.00000000000E+00 -0.00000000000E+00 -0.28469650658E+03  0.28469933923E+03  0.12700000000E+01 0. -1.
         25    2    1    2    0    0  0.51833080863E+02  0.68612947567E+02 -0.54777125666E+02  0.16130750197E+03  0.12500068740E+03 0.  0.
    9000005    1    3    3    0    0  0.60535680113E+02  0.96589589472E+02 -0.19856124408E+02  0.11571250165E+03  0.10000000000E+01 0.  0.
    9000005    1    3    3    0    0 -0.87025992499E+01 -0.27976641904E+02 -0.34921001258E+02  0.45595000327E+02  0.10000000000E+01 0.  0.
         21    1    1    2  502  501 -0.51833080863E+02 -0.68612947567E+02 -0.16619787577E+03  0.18712599701E+03  0.00000000000E+00 0. -1.
<mgrwt>
<rscale>  1 0.15172204E+03</rscale>
<asrwt>0</asrwt>
<pdfrwt beam="2">  1        4 0.43800653E-01 0.15172204E+03</pdfrwt>
<pdfrwt beam="1">  1       -4 0.98045000E-02 0.15172204E+03</pdfrwt>
<totfact> 0.67399540E+02</totfact>
</mgrwt>
</event>
<event>
 6    4  0.5642870E-004  0.1340326E+03  0.7818608E-02  0.1221592E+00
         -4   -1    0    0    0  501 -0.00000000000E+00  0.00000000000E+00  0.32107110036E+02  0.32132217709E+02  0.12700000000E+01 0.  1.
          4   -1    0    0  502    0  0.00000000000E+00 -0.00000000000E+00 -0.28695252773E+03  0.28695533811E+03  0.12700000000E+01 0.  1.
         25    2    1    2    0    0  0.44164334251E+02  0.19714749904E+02 -0.13679594812E+03  0.19151468625E+03  0.12500233535E+03 0.  0.
    9000005    1    3    3    0    0  0.51139089567E+02 -0.45464712188E+02 -0.67550490072E+02  0.96157762272E+02  0.10000000000E+01 0.  0.
    9000005    1    3    3    0    0 -0.69747553158E+01  0.65179462093E+02 -0.69245458048E+02  0.95356923979E+02  0.10000000000E+01 0.  0.
         21    1    1    2  502  501 -0.44164334251E+02 -0.19714749904E+02 -0.11804946957E+03  0.12757286957E+03  0.00000000000E+00 0.  1.
<mgrwt>
<rscale>  1 0.13403262E+03</rscale>
<asrwt>0</asrwt>
<pdfrwt beam="2">  1        4 0.44148689E-01 0.13403262E+03</pdfrwt>
<pdfrwt beam="1">  1       -4 0.49417031E-02 0.13403262E+03</pdfrwt>
<totfact> 0.19939554E+03</totfact>
</mgrwt>
</event>
<event>
 6    4  0.5642870E-004  0.1322714E+03  0.7818608E-02  0.1224124E+00
         -4   -1    0    0    0  501 -0.00000000000E+00  0.00000000000E+00  0.10201128230E+03  0.10201918750E+03  0.12700000000E+01 0.  1.
          4   -1    0    0  502    0  0.00000000000E+00 -0.00000000000E+00 -0.81824239630E+02  0.81834094918E+02  0.12700000000E+01 0.  1.
         25    2    1    2    0    0 -0.26443590329E+02  0.34214628953E+02  0.37171122143E+02  0.13739509412E+03  0.12500326101E+03 0.  0.
    9000005    1    3    3    0    0 -0.34346964083E+02  0.79298251770E+02  0.22222288943E+02  0.89234280416E+02  0.10000000000E+01 0.  0.
    9000005    1    3    3    0    0  0.79033737548E+01 -0.45083622817E+02  0.14948833200E+02  0.48160813708E+02  0.10000000000E+01 0.  0.
         21    1    1    2  502  501  0.26443590329E+02 -0.34214628953E+02 -0.16984079469E+02  0.46458188291E+02  0.00000000000E+00 0.  1.
<mgrwt>
<rscale>  1 0.13227139E+03</rscale>
<asrwt>0</asrwt>
<pdfrwt beam="2">  1        4 0.12589711E-01 0.13227139E+03</pdfrwt>
<pdfrwt beam="1">  1       -4 0.15695410E-01 0.13227139E+03</pdfrwt>
<totfact> 0.28999457E+03</totfact>
</mgrwt>
</event>
<event>
 6    4  0.5642870E-004  0.1343567E+03  0.7818608E-02  0.1221131E+00
         -4   -1    0    0    0  501 -0.00000000000E+00  0.00000000000E+00  0.20577359326E+02  0.20616513207E+02  0.12700000000E+01 0. -1.
          4   -1    0    0  502    0  0.00000000000E+00 -0.00000000000E+00 -0.42648130812E+03  0.42648319906E+03  0.12700000000E+01 0. -1.
         25    2    1    2    0    0 -0.42844322858E+02  0.24277263674E+02 -0.25301358379E+03  0.28647441773E+03  0.12500678741E+03 0.  0.
    9000005    1    3    3    0    0 -0.58504645394E+01 -0.44022219541E+02 -0.40139296197E+02  0.59869414962E+02  0.10000000000E+01 0.  0.
    9000005    1    3    3    0    0 -0.36993858319E+02  0.68299483216E+02 -0.21287428760E+03  0.22660500277E+03  0.10000000000E+01 0.  0.
         21    1    1    2  502  501  0.42844322858E+02 -0.24277263674E+02 -0.15289036500E+03  0.16062529453E+03  0.00000000000E+00 0. -1.
<mgrwt>
<rscale>  1 0.13435668E+03</rscale>
<asrwt>0</asrwt>
<pdfrwt beam="2">  1        4 0.65615659E-01 0.13435668E+03</pdfrwt>
<pdfrwt beam="1">  1       -4 0.31689052E-02 0.13435668E+03</pdfrwt>
<totfact> 0.17838527E+03</totfact>
</mgrwt>
</event>
<event>
 6    4  0.5642870E-004  0.1388008E+03  0.7818608E-02  0.1214952E+00
         -4   -1    0    0    0  501 -0.00000000000E+00  0.00000000000E+00  0.19241596688E+03  0.19242015801E+03  0.12700000000E+01 0. -1.
          4   -1    0    0  502    0  0.00000000000E+00 -0.00000000000E+00 -0.23330670578E+03  0.23331016236E+03  0.12700000000E+01 0. -1.
         25    2    1    2    0    0 -0.34733512862E+02  0.49327861513E+02  0.16242488216E+03  0.21365274824E+03  0.12500399854E+03 0.  0.
    9000005    1    3    3    0    0 -0.89977212338E+01 -0.10015719290E+02  0.14637987731E+03  0.14700116361E+03  0.10000000000E+01 0.  0.
    9000005    1    3    3    0    0 -0.25735791628E+02  0.59343580803E+02  0.16045004841E+02  0.66651584629E+02  0.10000000000E+01 0.  0.
         21    1    1    2  502  501  0.34733512862E+02 -0.49327861513E+02 -0.20331562105E+03  0.21207757213E+03  0.00000000000E+00 0. -1.
<mgrwt>
<rscale>  1 0.13880077E+03</rscale>
<asrwt>0</asrwt>
<pdfrwt beam="2">  1        4 0.35893927E-01 0.13880077E+03</pdfrwt>
<pdfrwt beam="1">  1       -4 0.29603045E-01 0.13880077E+03</pdfrwt>
<totfact> 0.13788755E+02</totfact>
</mgrwt>
</event>
<event>
 6    4  0.5642870E-004  0.1269554E+03  0.7818608E-02  0.1232045E+00
          4   -1    0    0  502    0  0.00000000000E+00  0.00000000000E+00  0.24498830079E+03  0.24499159255E+03  0.12700000000E+01 0.  1.
         -4   -1    0    0    0  501 -0.00000000000E+00 -0.00000000000E+00 -0.29045239125E+02  0.29072991174E+02  0.12700000000E+01 0.  1.
         25    2    1    2    0    0  0.15789507098E+02  0.15616491135E+02  0.11695381492E+03  0.17261482129E+03  0.12499799348E+03 0.  0.
    9000005    1    3    3    0    0 -0.33258154683E+02 -0.32988858482E+01  0.11525727771E+03  0.12000928117E+03  0.10000000000E+01 0.  0.
    9000005    1    3    3    0    0  0.49047661781E+02  0.18915376983E+02  0.16965372099E+01  0.52605540118E+02  0.10000000000E+01 0.  0.
         21    1    1    2  502  501 -0.15789507098E+02 -0.15616491135E+02  0.98989246737E+02  0.10144976244E+03  0.00000000000E+00 0.  1.
<mgrwt>
<rscale>  1 0.12695543E+03</rscale>
<asrwt>0</asrwt>
<pdfrwt beam="1">  1        4 0.37692896E-01 0.12695543E+03</pdfrwt>
<pdfrwt beam="2">  1       -4 0.44708863E-02 0.12695543E+03</pdfrwt>
<totfact> 0.31564271E+03</totfact>
</mgrwt>
</event>
<event>
 6    4  0.5642870E-004  0.1338573E+03  0.7818608E-02  0.1221842E+00
         -4   -1    0    0    0  501 -0.00000000000E+00  0.00000000000E+00  0.11459125665E+04  0.11459132702E+04  0.12700000000E+01 0.  1.
          4   -1    0    0  502    0  0.00000000000E+00 -0.00000000000E+00 -0.76295676730E+01  0.77345460680E+01  0.12700000000E+01 0.  1.
         25    2    1    2    0    0 -0.78935505462E+01 -0.47229953322E+02  0.69395490279E+03  0.70674689491E+03  0.12499915895E+03 0.  0.
    9000005    1    3    3    0    0  0.12951737812E+02  0.21667026860E+02  0.31438898698E+02  0.40331277151E+02  0.10000000000E+01 0.  0.
    9000005    1    3    3    0    0 -0.20845288358E+02 -0.68896980183E+02  0.66251600409E+03  0.66641561776E+03  0.10000000000E+01 0.  0.
         21    1    1    2  502  501  0.78935505462E+01  0.47229953322E+02  0.44432809601E+03  0.44690092139E+03  0.00000000000E+00 0.  1.
<mgrwt>
<rscale>  1 0.13385726E+03</rscale>
<asrwt>0</asrwt>
<pdfrwt beam="2">  1        4 0.11819096E-02 0.13385726E+03</pdfrwt>
<pdfrwt beam="1">  1       -4 0.17630229E+00 0.13385726E+03</pdfrwt>
<totfact> 0.78522202E+02</totfact>
</mgrwt>
</event>
<event>
 6    4  0.5642870E-004  0.1331803E+03  0.7818608E-02  0.1222812E+00
          4   -1    0    0  502    0  0.00000000000E+00  0.00000000000E+00  0.65670558579E+02  0.65682837668E+02  0.12700000000E+01 0.  1.
         -4   -1    0    0    0  501 -0.00000000000E+00 -0.00000000000E+00 -0.12278254179E+03  0.12278910973E+03  0.12700000000E+01 0.  1.
         25    2    1    2    0    0  0.23735921106E+02 -0.39328963888E+02 -0.48491294749E+02  0.14173355183E+03  0.12500733057E+03 0.  0.
    9000005    1    3    3    0    0 -0.25037533185E+02 -0.62315511955E+02 -0.55790635481E+02  0.87313779586E+02  0.10000000000E+01 0.  0.
    9000005    1    3    3    0    0  0.48773454291E+02  0.22986548067E+02  0.72993407323E+01  0.54419772239E+02  0.10000000000E+01 0.  0.
         21    1    1    2  502  501 -0.23735921106E+02  0.39328963888E+02 -0.86206884623E+01  0.46738395574E+02  0.00000000000E+00 0.  1.
<mgrwt>
<rscale>  1 0.13318031E+03</rscale>
<asrwt>0</asrwt>
<pdfrwt beam="1">  1        4 0.10104613E-01 0.13318031E+03</pdfrwt>
<pdfrwt beam="2">  1       -4 0.18891072E-01 0.13318031E+03</pdfrwt>
<totfact> 0.30415508E+03</totfact>
</mgrwt>
</event>
<event>
 6    4  0.5642870E-004  0.1266817E+03  0.7818608E-02  0.1232464E+00
         -4   -1    0    0    0  501 -0.00000000000E+00  0.00000000000E+00  0.11364464486E+03  0.11365174088E+03  0.12700000000E+01 0. -1.
          4   -1    0    0  502    0  0.00000000000E+00 -0.00000000000E+00 -0.47692965680E+02  0.47709871886E+02  0.12700000000E+01 0. -1.
         25    2    1    2    0    0  0.12598832089E+02  0.16267746635E+02  0.56060377865E+02  0.13853163265E+03  0.12499950851E+03 0.  0.
    9000005    1    3    3    0    0  0.36137444231E+01 -0.16477041543E+02  0.89371184795E+02  0.90954717956E+02  0.10000000000E+01 0.  0.
    9000005    1    3    3    0    0  0.89850876661E+01  0.32744788177E+02 -0.33310806930E+02  0.47576914691E+02  0.10000000000E+01 0.  0.
         21    1    1    2  502  501 -0.12598832089E+02 -0.16267746635E+02  0.98913013159E+01  0.22829980120E+02  0.00000000000E+00 0. -1.
<mgrwt>
<rscale>  1 0.12668168E+03</rscale>
<asrwt>0</asrwt>
<pdfrwt beam="2">  1        4 0.73392257E-02 0.12668168E+03</pdfrwt>
<pdfrwt beam="1">  1       -4 0.17485638E-01 0.12668168E+03</pdfrwt>
<totfact> 0.58690410E+03</totfact>
</mgrwt>
</event>
<event>
 6    4  0.5642870E-004  0.1320506E+03  0.7818608E-02  0.1224444E+00
          4   -1    0    0  502    0  0.00000000000E+00  0.00000000000E+00  0.23905324896E+03  0.23905662245E+03  0.12700000000E+01 0. -1.
         -4   -1    0    0    0  501 -0.00000000000E+00 -0.00000000000E+00 -0.32733243647E+02  0.32757871415E+02  0.12700000000E+01 0. -1.
         25    2    1    2    0    0 -0.35292829011E+02 -0.23888462945E+02  0.13580224703E+03  0.18941912583E+03  0.12498444899E+03 0.  0.
    9000005    1    3    3    0    0 -0.18736582652E+02 -0.94784243769E-01 -0.22033620070E+02  0.28940437573E+02  0.10000000000E+01 0.  0.
    9000005    1    3    3    0    0 -0.16556246359E+02 -0.23793678701E+02  0.15783586710E+03  0.16047868825E+03  0.10000000000E+01 0.  0.
         21    1    1    2  502  501  0.35292829011E+02  0.23888462945E+02  0.70517758280E+02  0.82395368039E+02  0.00000000000E+00 0.  1.
<mgrwt>
<rscale>  1 0.13205058E+03</rscale>
<asrwt>0</asrwt>
<pdfrwt beam="1">  1        4 0.36779576E-01 0.13205058E+03</pdfrwt>
<pdfrwt beam="2">  1       -4 0.50380377E-02 0.13205058E+03</pdfrwt>
<totfact> 0.27603208E+03</totfact>
</mgrwt>
</event>
<event>
 6    4  0.5642870E-004  0.1277716E+03  0.7818608E-02  0.1230800E+00
         -4   -1    0    0    0  501 -0.00000000000E+00  0.00000000000E+00  0.27579478031E+02  0.27608703491E+02  0.12700000000E+01 0. -1.
          4   -1    0    0  502    0  0.00000000000E+00 -0.00000000000E+00 -0.26786302604E+03  0.26786603670E+03  0.12700000000E+01 0. -1.
         25    2    1    2    0    0 -0.26271417355E+02 -0.33134404020E+01 -0.13086126764E+03  0.18289409489E+03  0.12499764925E+03 0.  0.
    9000005    1    3    3    0    0 -0.49984257120E+02 -0.80470283176E+00 -0.14620677913E+03  0.15452021153E+03  0.10000000000E+01 0.  0.
    9000005    1    3    3    0    0  0.23712839765E+02 -0.25087375702E+01  0.15345511491E+02  0.28373883358E+02  0.10000000000E+01 0.  0.
         21    1    1    2  502  501  0.26271417355E+02  0.33134404020E+01 -0.10942228037E+03  0.11258064531E+03  0.00000000000E+00 0.  1.
<mgrwt>
<rscale>  1 0.12777159E+03</rscale>
<asrwt>0</asrwt>
<pdfrwt beam="2">  1        4 0.41212174E-01 0.12777159E+03</pdfrwt>
<pdfrwt beam="1">  1       -4 0.42454765E-02 0.12777159E+03</pdfrwt>
<totfact> 0.28817503E+03</totfact>
</mgrwt>
</event>
<event>
 6    4  0.5642870E-004  0.1376715E+03  0.7818608E-02  0.1216497E+00
         -4   -1    0    0    0  501 -0.00000000000E+00  0.00000000000E+00  0.70317668363E+02  0.70329136096E+02  0.12700000000E+01 0.  1.
          4   -1    0    0  502    0  0.00000000000E+00 -0.00000000000E+00 -0.19181038183E+03  0.19181458620E+03  0.12700000000E+01 0.  1.
         25    2    1    2    0    0  0.29554734551E+02 -0.49554006441E+02 -0.11768007022E+02  0.13817359245E+03  0.12499749507E+03 0.  0.
    9000005    1    3    3    0    0  0.90409848375E+01  0.30861342085E+02 -0.39244234787E+02  0.50747135940E+02  0.10000000000E+01 0.  0.
    9000005    1    3    3    0    0  0.20513749713E+02 -0.80415348525E+02  0.27476227765E+02  0.87426456510E+02  0.10000000000E+01 0.  0.
         21    1    1    2  502  501 -0.29554734551E+02  0.49554006441E+02 -0.10972470645E+03  0.12397012984E+03  0.00000000000E+00 0.  1.
<mgrwt>
<rscale>  1 0.13767155E+03</rscale>
<asrwt>0</asrwt>
<pdfrwt beam="2">  1        4 0.29510495E-01 0.13767155E+03</pdfrwt>
<pdfrwt beam="1">  1       -4 0.10819308E-01 0.13767155E+03</pdfrwt>
<totfact> 0.12041544E+03</totfact>
</mgrwt>
</event>
<event>
 6    4  0.5642870E-004  0.1294241E+03  0.7818608E-02  0.1228313E+00
         -4   -1    0    0    0  501 -0.00000000000E+00  0.00000000000E+00  0.21558264929E+02  0.21595640457E+02  0.12700000000E+01 0.  1.
          4   -1    0    0  502    0  0.00000000000E+00 -0.00000000000E+00 -0.31126871916E+03  0.31127131000E+03  0.12700000000E+01 0.  1.
         25    2    1    2    0    0  0.28105568719E+01 -0.33449800951E+02 -0.24340009128E+03  0.27567046341E+03  0.12499524610E+03 0.  0.
    9000005    1    3    3    0    0  0.65915559026E+01  0.15301543574E+02 -0.22142370566E+03  0.22205189320E+03  0.10000000000E+01 0.  0.
    9000005    1    3    3    0    0 -0.37809990306E+01 -0.48751344524E+02 -0.21976385619E+02  0.53618570211E+02  0.10000000000E+01 0.  0.
         21    1    1    2  502  501 -0.28105568719E+01  0.33449800951E+02 -0.46310362951E+02  0.57196487044E+02  0.00000000000E+00 0.  1.
<mgrwt>
<rscale>  1 0.12942411E+03</rscale>
<asrwt>0</asrwt>
<pdfrwt beam="2">  1        4 0.47890566E-01 0.12942411E+03</pdfrwt>
<pdfrwt beam="1">  1       -4 0.33197307E-02 0.12942411E+03</pdfrwt>
<totfact> 0.31598964E+03</totfact>
</mgrwt>
</event>
<event>
 6    4  0.5642870E-004  0.1285001E+03  0.7818608E-02  0.1229698E+00
          4   -1    0    0  502    0  0.00000000000E+00  0.00000000000E+00  0.19883650125E+03  0.19884055705E+03  0.12700000000E+01 0.  1.
         -4   -1    0    0    0  501 -0.00000000000E+00 -0.00000000000E+00 -0.49216703672E+02  0.49233086643E+02  0.12700000000E+01 0.  1.
         25    2    1    2    0    0  0.20024736551E+02 -0.22052977627E+02  0.40154627540E+02  0.13462785335E+03  0.12499976355E+03 0.  0.
    9000005    1    3    3    0    0 -0.28175080258E+01  0.49076189797E+02 -0.12997564231E+01  0.49184348356E+02  0.10000000000E+01 0.  0.
    9000005    1    3    3    0    0  0.22842244577E+02 -0.71129167424E+02  0.41454383963E+02  0.85443504993E+02  0.10000000000E+01 0.  0.
         21    1    1    2  502  501 -0.20024736551E+02  0.22052977627E+02  0.10946517004E+03  0.11344579035E+03  0.00000000000E+00 0. -1.
<mgrwt>
<rscale>  1 0.12850006E+03</rscale>
<asrwt>0</asrwt>
<pdfrwt beam="1">  1        4 0.30591803E-01 0.12850006E+03</pdfrwt>
<pdfrwt beam="2">  1       -4 0.75733728E-02 0.12850006E+03</pdfrwt>
<totfact> 0.20113735E+03</totfact>
</mgrwt>
</event>
<event>
 6    4  0.5642870E-004  0.1302861E+03  0.7818608E-02  0.1227032E+00
          4   -1    0    0  502    0  0.00000000000E+00  0.00000000000E+00  0.44132502637E+03  0.44132685370E+03  0.12700000000E+01 0.  1.
         -4   -1    0    0    0  501 -0.00000000000E+00 -0.00000000000E+00 -0.18235765549E+02  0.18279935589E+02  0.12700000000E+01 0.  1.
         25    2    1    2    0    0  0.36044805475E+02  0.70902448190E+01  0.24213663845E+03  0.27496293990E+03  0.12499986828E+03 0.  0.
    9000005    1    3    3    0    0  0.25357525396E+02  0.63929474044E+02  0.16319099868E+03  0.17709399707E+03  0.10000000000E+01 0.  0.
    9000005    1    3    3    0    0  0.10687280079E+02 -0.56839229225E+02  0.78945639764E+02  0.97868942838E+02  0.10000000000E+01 0.  0.
         21    1    1    2  502  501 -0.36044805475E+02 -0.70902448190E+01  0.18095262237E+03  0.18464384939E+03  0.00000000000E+00 0.  1.
<mgrwt>
<rscale>  1 0.13028610E+03</rscale>
<asrwt>0</asrwt>
<pdfrwt beam="1">  1        4 0.67899704E-01 0.13028610E+03</pdfrwt>
<pdfrwt beam="2">  1       -4 0.28090403E-02 0.13028610E+03</pdfrwt>
<totfact> 0.19884791E+03</totfact>
</mgrwt>
</event>
<event>
 6    4  0.5642870E-004  0.1272379E+03  0.7818608E-02  0.1231613E+00
         -4   -1    0    0    0  501 -0.00000000000E+00  0.00000000000E+00  0.99312623122E+01  0.10012136191E+02  0.12700000000E+01 0.  1.
          4   -1    0    0  502    0  0.00000000000E+00 -0.00000000000E+00 -0.57457363082E+03  0.57457503438E+03  0.12700000000E+01 0.  1.
         25    2    1    2    0    0 -0.70981065923E+01 -0.22679380950E+02 -0.45936523643E+03  0.47666121459E+03  0.12499902244E+03 0.  0.
    9000005    1    3    3    0    0 -0.65010943449E+02 -0.19069214449E+02 -0.21130228964E+03  0.22190023730E+03  0.10000000000E+01 0.  0.
    9000005    1    3    3    0    0  0.57912836857E+02 -0.36101665008E+01 -0.24806294680E+03  0.25476097729E+03  0.10000000000E+01 0.  0.
         21    1    1    2  502  501  0.70981065923E+01  0.22679380950E+02 -0.10527713208E+03  0.10792595599E+03  0.00000000000E+00 0.  1.
<mgrwt>
<rscale>  1 0.12723794E+03</rscale>
<asrwt>0</asrwt>
<pdfrwt beam="2">  1        4 0.88402246E-01 0.12723794E+03</pdfrwt>
<pdfrwt beam="1">  1       -4 0.15342160E-02 0.12723794E+03</pdfrwt>
<totfact> 0.28144521E+03</totfact>
</mgrwt>
</event>
<event>
 6    4  0.5642870E-004  0.1274893E+03  0.7818608E-02  0.1231229E+00
         -4   -1    0    0    0  501 -0.00000000000E+00  0.00000000000E+00  0.60738266589E+02  0.60751542600E+02  0.12700000000E+01 0. -1.
          4   -1    0    0  502    0  0.00000000000E+00 -0.00000000000E+00 -0.20643695696E+03  0.20644086344E+03  0.12700000000E+01 0. -1.
         25    2    1    2    0    0  0.13678967768E+02  0.21009827639E+02 -0.85549189084E+01  0.12777597564E+03  0.12499994518E+03 0.  0.
    9000005    1    3    3    0    0 -0.19121851998E+02 -0.86354948509E+01  0.50095563386E+02  0.54321105163E+02  0.10000000000E+01 0.  0.
    9000005    1    3    3    0    0  0.32800819765E+02  0.29645322490E+02 -0.58650482294E+02  0.73454870473E+02  0.10000000000E+01 0.  0.
         21    1    1    2  502  501 -0.13678967768E+02 -0.21009827639E+02 -0.13714377146E+03  0.13941643040E+03  0.00000000000E+00 0. -1.
<mgrwt>
<rscale>  1 0.12748927E+03</rscale>
<asrwt>0</asrwt>
<pdfrwt beam="2">  1        4 0.31760853E-01 0.12748927E+03</pdfrwt>
<pdfrwt beam="1">  1       -4 0.93456705E-02 0.12748927E+03</pdfrwt>
<totfact> 0.13187049E+03</totfact>
</mgrwt>
</event>
<event>
 6    4  0.5642870E-004  0.1279741E+03  0.7818608E-02  0.1230493E+00
         -4   -1    0    0    0  501 -0.00000000000E+00  0.00000000000E+00  0.62238578088E+02  0.62251534137E+02  0.12700000000E+01 0. -1.
          4   -1    0    0  502    0  0.00000000000E+00 -0.00000000000E+00 -0.97633907643E+02  0.97642167231E+02  0.12700000000E+01 0. -1.
         25    2    1    2    0    0  0.16837065968E+02 -0.21638621762E+02 -0.34130090182E+02  0.13244707001E+03  0.12500258620E+03 0.  0.
    9000005    1    3    3    0    0 -0.41336820661E+02  0.23143668946E+02 -0.35182597127E+02  0.59018448770E+02  0.10000000000E+01 0.  0.
    9000005    1    3    3    0    0  0.58173886629E+02 -0.44782290708E+02  0.10525069451E+01  0.73428621242E+02  0.10000000000E+01 0.  0.
         21    1    1    2  502  501 -0.16837065968E+02  0.21638621762E+02 -0.12652393725E+01  0.27446631357E+02  0.00000000000E+00 0. -1.
<mgrwt>
<rscale>  1 0.12797407E+03</rscale>
<asrwt>0</asrwt>
<pdfrwt beam="2">  1        4 0.15022233E-01 0.12797407E+03</pdfrwt>
<pdfrwt beam="1">  1       -4 0.95767978E-02 0.12797407E+03</pdfrwt>
<totfact> 0.49394541E+03</totfact>
</mgrwt>
</event>
<event>
 6    4  0.5642870E-004  0.1288361E+03  0.7818608E-02  0.1229193E+00
         -4   -1    0    0    0  501 -0.00000000000E+00  0.00000000000E+00  0.11343657461E+02  0.11414528663E+02  0.12700000000E+01 0.  1.
          4   -1    0    0  502    0  0.00000000000E+00 -0.00000000000E+00 -0.59388340753E+03  0.59388476546E+03  0.12700000000E+01 0.  1.
         25    2    1    2    0    0 -0.17192973582E+02 -0.26025105358E+02 -0.40369983602E+03  0.42375971357E+03  0.12500333112E+03 0.  0.
    9000005    1    3    3    0    0  0.64520300930E+01  0.37792346901E+02 -0.47184023728E+02  0.60804788231E+02  0.10000000000E+01 0.  0.
    9000005    1    3    3    0    0 -0.23645003675E+02 -0.63817452259E+02 -0.35651581230E+03  0.36295492534E+03  0.10000000000E+01 0.  0.
         21    1    1    2  502  501  0.17192973582E+02  0.26025105358E+02 -0.17883991404E+03  0.18153958055E+03  0.00000000000E+00 0.  1.
<mgrwt>
<rscale>  1 0.12883609E+03</rscale>
<asrwt>0</asrwt>
<pdfrwt beam="2">  1        4 0.91372210E-01 0.12883609E+03</pdfrwt>
<pdfrwt beam="1">  1       -4 0.17507346E-02 0.12883609E+03</pdfrwt>
<totfact> 0.21414465E+03</totfact>
</mgrwt>
</event>
<event>
 6    4  0.5642870E-004  0.1278949E+03  0.7818608E-02  0.1230613E+00
         -4   -1    0    0    0  501 -0.00000000000E+00  0.00000000000E+00  0.69115856325E+02  0.69127523430E+02  0.12700000000E+01 0. -1.
          4   -1    0    0  502    0  0.00000000000E+00 -0.00000000000E+00 -0.11094226101E+03  0.11094952987E+03  0.12700000000E+01 0. -1.
         25    2    1    2    0    0  0.26788958625E+02  0.33488557437E+01  0.27934828539E+01  0.12792537544E+03  0.12501293932E+03 0.  0.
    9000005    1    3    3    0    0  0.37943685792E+02 -0.21662805837E+02 -0.51235922181E+02  0.67343300854E+02  0.10000000000E+01 0.  0.
    9000005    1    3    3    0    0 -0.11154727168E+02  0.25011661581E+02  0.54029405035E+02  0.60582074590E+02  0.10000000000E+01 0.  0.
         21    1    1    2  502  501 -0.26788958625E+02 -0.33488557437E+01 -0.44619887539E+02  0.52151677854E+02  0.00000000000E+00 0. -1.
<mgrwt>
<rscale>  1 0.12789487E+03</rscale>
<asrwt>0</asrwt>
<pdfrwt beam="2">  1        4 0.17069497E-01 0.12789487E+03</pdfrwt>
<pdfrwt beam="1">  1       -4 0.10634665E-01 0.12789487E+03</pdfrwt>
<totfact> 0.33082608E+03</totfact>
</mgrwt>
</event>
<event>
 6    4  0.5642870E-004  0.1269137E+03  0.7818608E-02  0.1232108E+00
          4   -1    0    0  502    0  0.00000000000E+00  0.00000000000E+00  0.85857438366E+02  0.85866830748E+02  0.12700000000E+01 0. -1.
         -4   -1    0    0    0  501 -0.00000000000E+00 -0.00000000000E+00 -0.64747867156E+02  0.64760321195E+02  0.12700000000E+01 0. -1.
         25    2    1    2    0    0  0.79153536053E+00 -0.21950392279E+02  0.14797201017E+02  0.12777343743E+03  0.12499859162E+03 0.  0.
    9000005    1    3    3    0    0  0.39459300544E+02  0.22985736634E+01  0.54458652301E+02  0.67298325764E+02  0.10000000000E+01 0.  0.
    9000005    1    3    3    0    0 -0.38667765183E+02 -0.24248965942E+02 -0.39661451284E+02  0.60475111670E+02  0.10000000000E+01 0.  0.
         21    1    1    2  502  501 -0.79153536053E+00  0.21950392279E+02  0.63123701927E+01  0.22853714509E+02  0.00000000000E+00 0.  1.
<mgrwt>
<rscale>  1 0.12691373E+03</rscale>
<asrwt>0</asrwt>
<pdfrwt beam="1">  1        4 0.13210517E-01 0.12691373E+03</pdfrwt>
<pdfrwt beam="2">  1       -4 0.99628908E-02 0.12691373E+03</pdfrwt>
<totfact> 0.57634670E+03</totfact>
</mgrwt>
</event>
<event>
 6    4  0.5642870E-004  0.1268368E+03  0.7818608E-02  0.1232226E+00
         -4   -1    0    0    0  501 -0.00000000000E+00  0.00000000000E+00  0.56090249853E+03  0.56090393630E+03  0.12700000000E+01 0.  1.
          4   -1    0    0  502    0  0.00000000000E+00 -0.00000000000E+00 -0.98352905557E+01  0.99169471267E+01  0.12700000000E+01 0.  1.
         25    2    1    2    0    0 -0.21267935203E+02  0.30778490550E+01  0.48698236115E+03  0.50322897700E+03  0.12500313993E+03 0.  0.
    9000005    1    3    3    0    0 -0.66141466791E+01  0.36313937357E+02  0.44953768349E+03  0.45105163547E+03  0.10000000000E+01 0.  0.
    9000005    1    3    3    0    0 -0.14653788524E+02 -0.33236088302E+02  0.37444677667E+02  0.52177341532E+02  0.10000000000E+01 0.  0.
         21    1    1    2  502  501  0.21267935203E+02 -0.30778490550E+01  0.64084846817E+02  0.67591906425E+02  0.00000000000E+00 0.  1.
<mgrwt>
<rscale>  1 0.12683684E+03</rscale>
<asrwt>0</asrwt>
<pdfrwt beam="2">  1        4 0.15195134E-02 0.12683684E+03</pdfrwt>
<pdfrwt beam="1">  1       -4 0.86299090E-01 0.12683684E+03</pdfrwt>
<totfact> 0.30122777E+03</totfact>
</mgrwt>
</event>
<event>
 6    4  0.5642870E-004  0.1287618E+03  0.7818608E-02  0.1229305E+00
         -4   -1    0    0    0  501 -0.00000000000E+00  0.00000000000E+00  0.92395190086E+03  0.92395277368E+03  0.12700000000E+01 0.  1.
          4   -1    0    0  502    0  0.00000000000E+00 -0.00000000000E+00 -0.83151107235E+01  0.84115376920E+01  0.12700000000E+01 0.  1.
         25    2    1    2    0    0  0.43217305963E+01 -0.30589321233E+02  0.85143776871E+03  0.86111897272E+03  0.12500090903E+03 0.  0.
    9000005    1    3    3    0    0  0.10037389839E+02  0.48427293044E+02  0.31397719659E+03  0.31785001476E+03  0.10000000000E+01 0.  0.
    9000005    1    3    3    0    0 -0.57156592425E+01 -0.79016614277E+02  0.53746057213E+03  0.54326895796E+03  0.10000000000E+01 0.  0.
         21    1    1    2  502  501 -0.43217305963E+01  0.30589321233E+02  0.64199021421E+02  0.71245338656E+02  0.00000000000E+00 0.  1.
<mgrwt>
<rscale>  1 0.12876184E+03</rscale>
<asrwt>0</asrwt>
<pdfrwt beam="2">  1        4 0.12867326E-02 0.12876184E+03</pdfrwt>
<pdfrwt beam="1">  1       -4 0.14215391E+00 0.12876184E+03</pdfrwt>
<totfact> 0.11973939E+03</totfact>
</mgrwt>
</event>
<event>
 6    4  0.5642870E-004  0.1319063E+03  0.7818608E-02  0.1224654E+00
          4   -1    0    0  502    0  0.00000000000E+00  0.00000000000E+00  0.10581075443E+03  0.10581837578E+03  0.12700000000E+01 0. -1.
         -4   -1    0    0    0  501 -0.00000000000E+00 -0.00000000000E+00 -0.77645281762E+02  0.77655667403E+02  0.12700000000E+01 0. -1.
         25    2    1    2    0    0 -0.41771582419E+02 -0.54255168950E+01  0.43120596447E+02  0.13877553025E+03  0.12499984251E+03 0.  0.
    9000005    1    3    3    0    0  0.32375162083E+02  0.12683529960E+02 -0.19646886529E+02  0.39950259103E+02  0.10000000000E+01 0.  0.
    9000005    1    3    3    0    0 -0.74146744502E+02 -0.18109046855E+02  0.62767482976E+02  0.98825271147E+02  0.10000000000E+01 0.  0.
         21    1    1    2  502  501  0.41771582419E+02  0.54255168950E+01 -0.14955123779E+02  0.44698512935E+02  0.00000000000E+00 0.  1.
<mgrwt>
<rscale>  1 0.13190626E+03</rscale>
<asrwt>0</asrwt>
<pdfrwt beam="1">  1        4 0.16279963E-01 0.13190626E+03</pdfrwt>
<pdfrwt beam="2">  1       -4 0.11946813E-01 0.13190626E+03</pdfrwt>
<totfact> 0.29730612E+03</totfact>
</mgrwt>
</event>
<event>
 6    4  0.5642870E-004  0.1318436E+03  0.7818608E-02  0.1224746E+00
         -4   -1    0    0    0  501 -0.00000000000E+00  0.00000000000E+00  0.22281914975E+03  0.22282276902E+03  0.12700000000E+01 0. -1.
          4   -1    0    0  502    0  0.00000000000E+00 -0.00000000000E+00 -0.41050481403E+02  0.41070122028E+02  0.12700000000E+01 0. -1.
         25    2    1    2    0    0  0.70343610159E+01  0.41297368683E+02  0.17844667331E+03  0.22186920076E+03  0.12501108804E+03 0.  0.
    9000005    1    3    3    0    0  0.10234945538E+02  0.86196392299E+02  0.11890709857E+03  0.14722251949E+03  0.10000000000E+01 0.  0.
    9000005    1    3    3    0    0 -0.32005845225E+01 -0.44899023617E+02  0.59539574745E+02  0.74646681265E+02  0.10000000000E+01 0.  0.
         21    1    1    2  502  501 -0.70343610159E+01 -0.41297368683E+02  0.33219950345E+01  0.42023690295E+02  0.00000000000E+00 0. -1.
<mgrwt>
<rscale>  1 0.13184357E+03</rscale>
<asrwt>0</asrwt>
<pdfrwt beam="2">  1        4 0.63172479E-02 0.13184357E+03</pdfrwt>
<pdfrwt beam="1">  1       -4 0.34281659E-01 0.13184357E+03</pdfrwt>
<totfact> 0.21919085E+03</totfact>
</mgrwt>
</event>
<event>
 6    4  0.5642870E-004  0.1291660E+03  0.7818608E-02  0.1228698E+00
         -4   -1    0    0    0  501 -0.00000000000E+00  0.00000000000E+00  0.13697389502E+03  0.13697978251E+03  0.12700000000E+01 0.  1.
          4   -1    0    0  502    0  0.00000000000E+00 -0.00000000000E+00 -0.57366457376E+02  0.57380513521E+02  0.12700000000E+01 0.  1.
         25    2    1    2    0    0 -0.23006056414E+02 -0.23004035608E+02  0.93015084694E+02  0.15917181374E+03  0.12500158409E+03 0.  0.
    9000005    1    3    3    0    0  0.11897135019E+02  0.45201082075E+02  0.59158536584E+02  0.75401671687E+02  0.10000000000E+01 0.  0.
    9000005    1    3    3    0    0 -0.34903191432E+02 -0.68205117684E+02  0.33856548110E+02  0.83770142058E+02  0.10000000000E+01 0.  0.
         21    1    1    2  502  501  0.23006056414E+02  0.23004035608E+02 -0.13407647054E+02  0.35188482285E+02  0.00000000000E+00 0.  1.
<mgrwt>
<rscale>  1 0.12916602E+03</rscale>
<asrwt>0</asrwt>
<pdfrwt beam="2">  1        4 0.88271430E-02 0.12916602E+03</pdfrwt>
<pdfrwt beam="1">  1       -4 0.21074441E-01 0.12916602E+03</pdfrwt>
<totfact> 0.31112739E+03</totfact>
</mgrwt>
</event>
<event>
 6    4  0.5642870E-004  0.1340971E+03  0.7818608E-02  0.1221500E+00
          4   -1    0    0  502    0  0.00000000000E+00  0.00000000000E+00  0.25282096190E+04  0.25282099380E+04  0.12700000000E+01 0. -1.
         -4   -1    0    0    0  501 -0.00000000000E+00 -0.00000000000E+00 -0.37631643664E+01  0.39716880604E+01  0.12700000000E+01 0. -1.
         25    2    1    2    0    0  0.19368897778E+02 -0.44507429139E+02  0.13285206206E+04  0.13352711591E+04  0.12500385362E+03 0.  0.
    9000005    1    3    3    0    0  0.46974390432E+02  0.16463157701E+02  0.91628370829E+03  0.91763525597E+03  0.10000000000E+01 0.  0.
    9000005    1    3    3    0    0 -0.27605492654E+02 -0.60970586840E+02  0.41223691233E+03  0.41763590312E+03  0.10000000000E+01 0.  0.
         21    1    1    2  502  501 -0.19368897778E+02  0.44507429139E+02  0.11959258340E+04  0.11969104670E+04  0.00000000000E+00 0. -1.
<mgrwt>
<rscale>  1 0.13409709E+03</rscale>
<asrwt>0</asrwt>
<pdfrwt beam="1">  1        4 0.38897013E+00 0.13409709E+03</pdfrwt>
<pdfrwt beam="2">  1       -4 0.59501511E-03 0.13409709E+03</pdfrwt>
<totfact> 0.11633583E+02</totfact>
</mgrwt>
</event>
<event>
 6    4  0.5642870E-004  0.1300523E+03  0.7818608E-02  0.1227378E+00
         -4   -1    0    0    0  501 -0.00000000000E+00  0.00000000000E+00  0.45388083679E+02  0.45405848082E+02  0.12700000000E+01 0.  1.
          4   -1    0    0  502    0  0.00000000000E+00 -0.00000000000E+00 -0.16278375446E+03  0.16278870850E+03  0.12700000000E+01 0.  1.
         25    2    1    2    0    0  0.28744011448E+02  0.21504397879E+02 -0.66931818015E+02  0.14626509867E+03  0.12499981401E+03 0.  0.
    9000005    1    3    3    0    0 -0.20229543194E+02  0.34314472516E+02 -0.83887793420E+02  0.92870228420E+02  0.10000000000E+01 0.  0.
    9000005    1    3    3    0    0  0.48973554642E+02 -0.12810074637E+02  0.16955975405E+02  0.53394870245E+02  0.10000000000E+01 0.  0.
         21    1    1    2  502  501 -0.28744011448E+02 -0.21504397879E+02 -0.50463852763E+02  0.61929457917E+02  0.00000000000E+00 0.  1.
<mgrwt>
<rscale>  1 0.13005234E+03</rscale>
<asrwt>0</asrwt>
<pdfrwt beam="2">  1        4 0.25045402E-01 0.13005234E+03</pdfrwt>
<pdfrwt beam="1">  1       -4 0.69845298E-02 0.13005234E+03</pdfrwt>
<totfact> 0.33484311E+03</totfact>
</mgrwt>
</event>
<event>
 6    4  0.5642870E-004  0.1267258E+03  0.7818608E-02  0.1232397E+00
         -4   -1    0    0    0  501 -0.00000000000E+00  0.00000000000E+00  0.95186169731E+02  0.95194641698E+02  0.12700000000E+01 0.  1.
          4   -1    0    0  502    0  0.00000000000E+00 -0.00000000000E+00 -0.55452263115E+03  0.55452408546E+03  0.12700000000E+01 0.  1.
         25    2    1    2    0    0  0.20825946932E+02  0.14701764164E+01  0.52707142941E+02  0.13724967029E+03  0.12499419024E+03 0.  0.
    9000005    1    3    3    0    0  0.41322918043E+02  0.49661594076E+02  0.54954779147E+02  0.84822669333E+02  0.10000000000E+01 0.  0.
    9000005    1    3    3    0    0 -0.20496971111E+02 -0.48191417659E+02 -0.22476362064E+01  0.52427000956E+02  0.10000000000E+01 0.  0.
         21    1    1    2  502  501 -0.20825946932E+02 -0.14701764164E+01 -0.51204360436E+03  0.51246905687E+03  0.00000000000E+00 0.  1.
<mgrwt>
<rscale>  1 0.12672580E+03</rscale>
<asrwt>0</asrwt>
<pdfrwt beam="2">  1        4 0.85311936E-01 0.12672580E+03</pdfrwt>
<pdfrwt beam="1">  1       -4 0.14644790E-01 0.12672580E+03</pdfrwt>
<totfact> 0.80434742E+01</totfact>
</mgrwt>
</event>
<event>
 6    4  0.5642870E-004  0.1271644E+03  0.7818608E-02  0.1231725E+00
          4   -1    0    0  502    0  0.00000000000E+00  0.00000000000E+00  0.29892268112E+04  0.29892270810E+04  0.12700000000E+01 0.  1.
         -4   -1    0    0    0  501 -0.00000000000E+00 -0.00000000000E+00 -0.17796818972E+01  0.21863594525E+01  0.12700000000E+01 0.  1.
         25    2    1    2    0    0  0.20160987913E+02 -0.11909143224E+02  0.22463358397E+04  0.22499323303E+04  0.12498997179E+03 0.  0.
    9000005    1    3    3    0    0 -0.35786681474E+02 -0.45274095893E+02  0.13492373071E+04  0.13504713034E+04  0.10000000000E+01 0.  0.
    9000005    1    3    3    0    0  0.55947669386E+02  0.33364952669E+02  0.89709853259E+03  0.89946102692E+03  0.10000000000E+01 0.  0.
         21    1    1    2  502  501 -0.20160987913E+02  0.11909143224E+02  0.74111128959E+03  0.74148111013E+03  0.00000000000E+00 0. -1.
<mgrwt>
<rscale>  1 0.12716441E+03</rscale>
<asrwt>0</asrwt>
<pdfrwt beam="1">  1        4 0.45991001E+00 0.12716441E+03</pdfrwt>
<pdfrwt beam="2">  1       -4 0.30510241E-03 0.12716441E+03</pdfrwt>
<totfact> 0.10122019E+02</totfact>
</mgrwt>
</event>
<event>
 6    4  0.5642870E-004  0.1280544E+03  0.7818608E-02  0.1230372E+00
          4   -1    0    0  502    0  0.00000000000E+00  0.00000000000E+00  0.97593960774E+02  0.97602223743E+02  0.12700000000E+01 0. -1.
         -4   -1    0    0    0  501 -0.00000000000E+00 -0.00000000000E+00 -0.11354830251E+03  0.11355540455E+03  0.12700000000E+01 0. -1.
         25    2    1    2    0    0  0.14139902048E+02  0.23942199136E+02 -0.73211790029E+02  0.14750559679E+03  0.12499907662E+03 0.  0.
    9000005    1    3    3    0    0  0.87809722372E+01  0.87868376110E+01 -0.10823838383E+03  0.10895348421E+03  0.10000000000E+01 0.  0.
    9000005    1    3    3    0    0  0.53589298108E+01  0.15155361525E+02  0.35026593796E+02  0.38552112583E+02  0.10000000000E+01 0.  0.
         21    1    1    2  502  501 -0.14139902048E+02 -0.23942199136E+02  0.57257448292E+02  0.63652031502E+02  0.00000000000E+00 0. -1.
<mgrwt>
<rscale>  1 0.12805442E+03</rscale>
<asrwt>0</asrwt>
<pdfrwt beam="1">  1        4 0.15015637E-01 0.12805442E+03</pdfrwt>
<pdfrwt beam="2">  1       -4 0.17470152E-01 0.12805442E+03</pdfrwt>
<totfact> 0.17567830E+03</totfact>
</mgrwt>
</event>
<event>
 6    4  0.5642870E-004  0.1274730E+03  0.7818608E-02  0.1231254E+00
          4   -1    0    0  502    0  0.00000000000E+00  0.00000000000E+00  0.65698126695E+03  0.65698249445E+03  0.12700000000E+01 0. -1.
         -4   -1    0    0    0  501 -0.00000000000E+00 -0.00000000000E+00 -0.95178127534E+01  0.96021695262E+01  0.12700000000E+01 0. -1.
         25    2    1    2    0    0 -0.21521131729E+02  0.12690015736E+02  0.45544485861E+03  0.47294753773E+03  0.12500063442E+03 0.  0.
    9000005    1    3    3    0    0  0.64692837920E+01 -0.82208807408E+01 -0.46751593363E+01  0.11501809760E+02  0.10000000000E+01 0.  0.
    9000005    1    3    3    0    0 -0.27990415521E+02  0.20910896477E+02  0.46012001794E+03  0.46144572797E+03  0.10000000000E+01 0.  0.
         21    1    1    2  502  501  0.21521131729E+02 -0.12690015736E+02  0.19201859559E+03  0.19363712625E+03  0.00000000000E+00 0.  1.
<mgrwt>
<rscale>  1 0.12747295E+03</rscale>
<asrwt>0</asrwt>
<pdfrwt beam="1">  1        4 0.10108062E+00 0.12747295E+03</pdfrwt>
<pdfrwt beam="2">  1       -4 0.14708624E-02 0.12747295E+03</pdfrwt>
<totfact> 0.22119994E+03</totfact>
</mgrwt>
</event>
<event>
 6    4  0.5642870E-004  0.1280935E+03  0.7818608E-02  0.1230312E+00
         -4   -1    0    0    0  501 -0.00000000000E+00  0.00000000000E+00  0.10497449196E+02  0.10573993551E+02  0.12700000000E+01 0. -1.
          4   -1    0    0  502    0  0.00000000000E+00 -0.00000000000E+00 -0.67768439614E+03  0.67768558614E+03  0.12700000000E+01 0. -1.
         25    2    1    2    0    0 -0.68090233625E+01  0.27145665147E+02 -0.40973519391E+03  0.42929113553E+03  0.12499879991E+03 0.  0.
    9000005    1    3    3    0    0  0.46390075643E+02 -0.23409694912E+02 -0.12790702557E+03  0.13806252252E+03  0.10000000000E+01 0.  0.
    9000005    1    3    3    0    0 -0.53199099006E+02  0.50555360059E+02 -0.28182816834E+03  0.29122861301E+03  0.10000000000E+01 0.  0.
         21    1    1    2  502  501  0.68090233625E+01 -0.27145665147E+02 -0.25745175303E+03  0.25896844416E+03  0.00000000000E+00 0. -1.
<mgrwt>
<rscale>  1 0.12809352E+03</rscale>
<asrwt>0</asrwt>
<pdfrwt beam="2">  1        4 0.10426508E+00 0.12809352E+03</pdfrwt>
<pdfrwt beam="1">  1       -4 0.16209723E-02 0.12809352E+03</pdfrwt>
<totfact> 0.17766098E+03</totfact>
</mgrwt>
</event>
<event>
 6    4  0.5642870E-004  0.1270842E+03  0.7818608E-02  0.1231847E+00
         -4   -1    0    0    0  501 -0.00000000000E+00  0.00000000000E+00  0.92539504197E+03  0.92539591343E+03  0.12700000000E+01 0. -1.
          4   -1    0    0  502    0  0.00000000000E+00 -0.00000000000E+00 -0.66430717336E+01  0.67633794850E+01  0.12700000000E+01 0. -1.
         25    2    1    2    0    0  0.34414456201E+01  0.22670826636E+02  0.85532532960E+03  0.86471488121E+03  0.12499838561E+03 0.  0.
    9000005    1    3    3    0    0 -0.26474653633E+02 -0.40379177768E+02  0.20296870282E+03  0.20863527891E+03  0.10000000000E+01 0.  0.
    9000005    1    3    3    0    0  0.29916099253E+02  0.63050004404E+02  0.65235662678E+03  0.65607960230E+03  0.10000000000E+01 0.  0.
         21    1    1    2  502  501 -0.34414456201E+01 -0.22670826636E+02  0.63426640638E+02  0.67444411710E+02  0.00000000000E+00 0. -1.
<mgrwt>
<rscale>  1 0.12708425E+03</rscale>
<asrwt>0</asrwt>
<pdfrwt beam="2">  1        4 0.10313327E-02 0.12708425E+03</pdfrwt>
<pdfrwt beam="1">  1       -4 0.14237776E+00 0.12708425E+03</pdfrwt>
<totfact> 0.16611307E+03</totfact>
</mgrwt>
</event>
<event>
 6    4  0.5642870E-004  0.1306736E+03  0.7818608E-02  0.1226460E+00
          4   -1    0    0  502    0  0.00000000000E+00  0.00000000000E+00  0.52902809640E+03  0.52902962080E+03  0.12700000000E+01 0.  1.
         -4   -1    0    0    0  501 -0.00000000000E+00 -0.00000000000E+00 -0.23283214441E+02  0.23317825257E+02  0.12700000000E+01 0.  1.
         25    2    1    2    0    0 -0.46244280306E+00  0.38047498595E+02  0.16983038455E+03  0.21428476611E+03  0.12501110137E+03 0.  0.
    9000005    1    3    3    0    0  0.16993166876E+02 -0.41630041182E+02  0.36246449669E+02  0.57763597212E+02  0.10000000000E+01 0.  0.
    9000005    1    3    3    0    0 -0.17455609679E+02  0.79677539777E+02  0.13358393488E+03  0.15652116890E+03  0.10000000000E+01 0.  0.
         21    1    1    2  502  501  0.46244280306E+00 -0.38047498595E+02  0.33591449741E+03  0.33806267995E+03  0.00000000000E+00 0.  1.
<mgrwt>
<rscale>  1 0.13067364E+03</rscale>
<asrwt>0</asrwt>
<pdfrwt beam="1">  1        4 0.81391722E-01 0.13067364E+03</pdfrwt>
<pdfrwt beam="2">  1       -4 0.35848124E-02 0.13067364E+03</pdfrwt>
<totfact> 0.91420300E+02</totfact>
</mgrwt>
</event>
<event>
 6    4  0.5642870E-004  0.1266116E+03  0.7818608E-02  0.1232572E+00
          4   -1    0    0  502    0  0.00000000000E+00  0.00000000000E+00  0.57850527514E+02  0.57864466071E+02  0.12700000000E+01 0.  1.
         -4   -1    0    0    0  501 -0.00000000000E+00 -0.00000000000E+00 -0.10076431447E+03  0.10077231748E+03  0.12700000000E+01 0.  1.
         25    2    1    2    0    0 -0.13771771898E+02  0.14872933485E+02 -0.51419675216E+02  0.13665460926E+03  0.12497853168E+03 0.  0.
    9000005    1    3    3    0    0  0.31049945241E+02  0.39717194360E+02  0.15138658051E+02  0.52647256290E+02  0.10000000000E+01 0.  0.
    9000005    1    3    3    0    0 -0.44821717139E+02 -0.24844260875E+02 -0.66558333266E+02  0.84007352969E+02  0.10000000000E+01 0.  0.
         21    1    1    2  502  501  0.13771771898E+02 -0.14872933485E+02  0.85058882581E+01  0.21982174294E+02  0.00000000000E+00 0.  1.
<mgrwt>
<rscale>  1 0.12661161E+03</rscale>
<asrwt>0</asrwt>
<pdfrwt beam="1">  1        4 0.89017690E-02 0.12661161E+03</pdfrwt>
<pdfrwt beam="2">  1       -4 0.15503890E-01 0.12661161E+03</pdfrwt>
<totfact> 0.52680624E+03</totfact>
</mgrwt>
</event>
<event>
 6    4  0.5642870E-004  0.1326102E+03  0.7818608E-02  0.1223633E+00
          4   -1    0    0  502    0  0.00000000000E+00  0.00000000000E+00  0.93993256259E+03  0.93993342058E+03  0.12700000000E+01 0.  1.
         -4   -1    0    0    0  501 -0.00000000000E+00 -0.00000000000E+00 -0.94547684503E+01  0.95396827227E+01  0.12700000000E+01 0.  1.
         25    2    1    2    0    0 -0.34434864992E+02  0.27841340273E+02  0.52115691997E+03  0.53776388772E+03  0.12499825421E+03 0.  0.
    9000005    1    3    3    0    0  0.27657000894E+02 -0.28368516336E+02  0.87012063231E+02  0.95612664252E+02  0.10000000000E+01 0.  0.
    9000005    1    3    3    0    0 -0.62091865885E+02  0.56209856609E+02  0.43414485674E+03  0.44215122347E+03  0.10000000000E+01 0.  0.
         21    1    1    2  502  501  0.34434864992E+02 -0.27841340273E+02  0.40932087418E+03  0.41170921558E+03  0.00000000000E+00 0.  1.
<mgrwt>
<rscale>  1 0.13261019E+03</rscale>
<asrwt>0</asrwt>
<pdfrwt beam="1">  1        4 0.14461156E+00 0.13261019E+03</pdfrwt>
<pdfrwt beam="2">  1       -4 0.14611781E-02 0.13261019E+03</pdfrwt>
<totfact> 0.95132342E+02</totfact>
</mgrwt>
</event>
<event>
 6    4  0.5642870E-004  0.1356565E+03  0.7818608E-02  0.1219296E+00
          4   -1    0    0  502    0  0.00000000000E+00  0.00000000000E+00  0.32730523694E+02  0.32755153507E+02  0.12700000000E+01 0. -1.
         -4   -1    0    0    0  501 -0.00000000000E+00 -0.00000000000E+00 -0.53084154307E+03  0.53084306226E+03  0.12700000000E+01 0. -1.
         25    2    1    2    0    0 -0.44596698369E+02 -0.28079328105E+02 -0.49221799896E+03  0.51056952672E+03  0.12500147576E+03 0.  0.
    9000005    1    3    3    0    0 -0.31330373304E+02  0.35816937930E+02 -0.35986571982E+03  0.36299969922E+03  0.10000000000E+01 0.  0.
    9000005    1    3    3    0    0 -0.13266325065E+02 -0.63896266035E+02 -0.13235227915E+03  0.14756982750E+03  0.10000000000E+01 0.  0.
         21    1    1    2  502  501  0.44596698369E+02  0.28079328105E+02 -0.58930204143E+01  0.53028689045E+02  0.00000000000E+00 0. -1.
<mgrwt>
<rscale>  1 0.13565649E+03</rscale>
<asrwt>0</asrwt>
<pdfrwt beam="1">  1        4 0.50374770E-02 0.13565649E+03</pdfrwt>
<pdfrwt beam="2">  1       -4 0.81669935E-01 0.13565649E+03</pdfrwt>
<totfact> 0.53172460E+02</totfact>
</mgrwt>
</event>
<event>
 6    4  0.5642870E-004  0.1290538E+03  0.7818608E-02  0.1228866E+00
          4   -1    0    0  502    0  0.00000000000E+00  0.00000000000E+00  0.37950711099E+03  0.37950923598E+03  0.12700000000E+01 0.  1.
         -4   -1    0    0    0  501 -0.00000000000E+00 -0.00000000000E+00 -0.39767070486E+02  0.39787344659E+02  0.12700000000E+01 0.  1.
         25    2    1    2    0    0 -0.23999108028E+02 -0.21279132401E+02  0.68385419105E+02  0.14605293621E+03  0.12500454379E+03 0.  0.
    9000005    1    3    3    0    0  0.20269493244E+02  0.30655941374E+02 -0.13759621133E+02  0.39255143250E+02  0.10000000000E+01 0.  0.
    9000005    1    3    3    0    0 -0.44268601272E+02 -0.51935073775E+02  0.82145040237E+02  0.10679779296E+03  0.10000000000E+01 0.  0.
         21    1    1    2  502  501  0.23999108028E+02  0.21279132401E+02  0.27135462140E+03  0.27324364442E+03  0.00000000000E+00 0.  1.
<mgrwt>
<rscale>  1 0.12905384E+03</rscale>
<asrwt>0</asrwt>
<pdfrwt beam="1">  1        4 0.58387434E-01 0.12905384E+03</pdfrwt>
<pdfrwt beam="2">  1       -4 0.61197337E-02 0.12905384E+03</pdfrwt>
<totfact> 0.79121163E+02</totfact>
</mgrwt>
</event>
<event>
 6    4  0.5642870E-004  0.1326671E+03  0.7818608E-02  0.1223551E+00
          4   -1    0    0  502    0  0.00000000000E+00  0.00000000000E+00  0.28207394595E+03  0.28207680494E+03  0.12700000000E+01 0.  1.
         -4   -1    0    0    0  501 -0.00000000000E+00 -0.00000000000E+00 -0.27965990914E+02  0.27994812873E+02  0.12700000000E+01 0.  1.
         25    2    1    2    0    0 -0.33060963692E+02  0.29710861879E+02  0.17913175862E+03  0.22290974161E+03  0.12499921330E+03 0.  0.
    9000005    1    3    3    0    0 -0.58486823092E+02  0.11290020384E+02  0.23342166147E+02  0.63984605618E+02  0.10000000000E+01 0.  0.
    9000005    1    3    3    0    0  0.25425859399E+02  0.18420841495E+02  0.15578959247E+03  0.15892513599E+03  0.10000000000E+01 0.  0.
         21    1    1    2  502  501  0.33060963692E+02 -0.29710861879E+02  0.74976196423E+02  0.87161876207E+02  0.00000000000E+00 0.  1.
<mgrwt>
<rscale>  1 0.13266712E+03</rscale>
<asrwt>0</asrwt>
<pdfrwt beam="1">  1        4 0.43398429E-01 0.13266712E+03</pdfrwt>
<pdfrwt beam="2">  1       -4 0.43048971E-02 0.13266712E+03</pdfrwt>
<totfact> 0.25669961E+03</totfact>
</mgrwt>
</event>
<event>
 6    4  0.5642870E-004  0.1267879E+03  0.7818608E-02  0.1232301E+00
          4   -1    0    0  502    0  0.00000000000E+00  0.00000000000E+00  0.17857724369E+03  0.17858175961E+03  0.12700000000E+01 0.  1.
         -4   -1    0    0    0  501 -0.00000000000E+00 -0.00000000000E+00 -0.30678339513E+02  0.30704615537E+02  0.12700000000E+01 0.  1.
         25    2    1    2    0    0  0.15167121246E+02 -0.14852592026E+02  0.12454685199E+03  0.17772755073E+03  0.12499809155E+03 0.  0.
    9000005    1    3    3    0    0  0.39025472179E+02  0.43386841045E+02  0.34297733353E+02  0.67695937601E+02  0.10000000000E+01 0.  0.
    9000005    1    3    3    0    0 -0.23858350933E+02 -0.58239433071E+02  0.90249118633E+02  0.11003161313E+03  0.10000000000E+01 0.  0.
         21    1    1    2  502  501 -0.15167121246E+02  0.14852592026E+02  0.23352052193E+02  0.31558824414E+02  0.00000000000E+00 0.  1.
<mgrwt>
<rscale>  1 0.12678787E+03</rscale>
<asrwt>0</asrwt>
<pdfrwt beam="1">  1        4 0.27475791E-01 0.12678787E+03</pdfrwt>
<pdfrwt beam="2">  1       -4 0.47221132E-02 0.12678787E+03</pdfrwt>
<totfact> 0.52816777E+03</totfact>
</mgrwt>
</event>
<event>
 6    4  0.5642870E-004  0.1288397E+03  0.7818608E-02  0.1229188E+00
         -4   -1    0    0    0  501 -0.00000000000E+00  0.00000000000E+00  0.29108398220E+03  0.29108675269E+03  0.12700000000E+01 0. -1.
          4   -1    0    0  502    0  0.00000000000E+00 -0.00000000000E+00 -0.42905923639E+02  0.42924715296E+02  0.12700000000E+01 0. -1.
         25    2    1    2    0    0  0.31111936823E+02 -0.14721983624E+01  0.26781276630E+03  0.29719242768E+03  0.12501816386E+03 0.  0.
    9000005    1    3    3    0    0  0.69705247759E+02 -0.26222582008E+02  0.10993989884E+03  0.13279392580E+03  0.10000000000E+01 0.  0.
    9000005    1    3    3    0    0 -0.38593310936E+02  0.24750383646E+02  0.15787286746E+03  0.16439850188E+03  0.10000000000E+01 0.  0.
         21    1    1    2  502  501 -0.31111936823E+02  0.14721983624E+01 -0.19634707744E+02  0.36819040306E+02  0.00000000000E+00 0. -1.
<mgrwt>
<rscale>  1 0.12883967E+03</rscale>
<asrwt>0</asrwt>
<pdfrwt beam="2">  1        4 0.66025699E-02 0.12883967E+03</pdfrwt>
<pdfrwt beam="1">  1       -4 0.44783810E-01 0.12883967E+03</pdfrwt>
<totfact> 0.12014595E+03</totfact>
</mgrwt>
</event>
<event>
 6    4  0.5642870E-004  0.1271874E+03  0.7818608E-02  0.1231690E+00
          4   -1    0    0  502    0  0.00000000000E+00  0.00000000000E+00  0.21323200046E+03  0.21323578245E+03  0.12700000000E+01 0.  1.
         -4   -1    0    0    0  501 -0.00000000000E+00 -0.00000000000E+00 -0.45606788709E+02  0.45624467957E+02  0.12700000000E+01 0.  1.
         25    2    1    2    0    0  0.18986378717E+02 -0.13855476638E+02  0.46414786569E+02  0.13539193876E+03  0.12499675140E+03 0.  0.
    9000005    1    3    3    0    0  0.69926403137E+02 -0.20720608949E+02  0.41064856447E+02  0.83704049638E+02  0.10000000000E+01 0.  0.
    9000005    1    3    3    0    0 -0.50940024420E+02  0.68651323113E+01  0.53499301219E+01  0.51687889122E+02  0.10000000000E+01 0.  0.
         21    1    1    2  502  501 -0.18986378717E+02  0.13855476638E+02  0.12121042518E+03  0.12346831165E+03  0.00000000000E+00 0.  1.
<mgrwt>
<rscale>  1 0.12718744E+03</rscale>
<asrwt>0</asrwt>
<pdfrwt beam="1">  1        4 0.32806575E-01 0.12718744E+03</pdfrwt>
<pdfrwt beam="2">  1       -4 0.70180798E-02 0.12718744E+03</pdfrwt>
<totfact> 0.19911643E+03</totfact>
</mgrwt>
</event>
<event>
 6    4  0.5642870E-004  0.1286734E+03  0.7818608E-02  0.1229438E+00
         -4   -1    0    0    0  501 -0.00000000000E+00  0.00000000000E+00  0.31965291115E+02  0.31990510094E+02  0.12700000000E+01 0.  1.
          4   -1    0    0  502    0  0.00000000000E+00 -0.00000000000E+00 -0.32693610269E+03  0.32693856937E+03  0.12700000000E+01 0.  1.
         25    2    1    2    0    0 -0.26018708846E+02  0.15982521445E+02 -0.10376333069E+03  0.16529872299E+03  0.12499769928E+03 0.  0.
    9000005    1    3    3    0    0 -0.59101767100E+02 -0.18529428991E+02 -0.13872677997E+02  0.63480782981E+02  0.10000000000E+01 0.  0.
    9000005    1    3    3    0    0  0.33083058254E+02  0.34511950437E+02 -0.89890652688E+02  0.10181794001E+03  0.10000000000E+01 0.  0.
         21    1    1    2  502  501  0.26018708846E+02 -0.15982521445E+02 -0.19120748089E+03  0.19363035648E+03  0.00000000000E+00 0. -1.
<mgrwt>
<rscale>  1 0.12867338E+03</rscale>
<asrwt>0</asrwt>
<pdfrwt beam="2">  1        4 0.50299989E-01 0.12867338E+03</pdfrwt>
<pdfrwt beam="1">  1       -4 0.49198670E-02 0.12867338E+03</pdfrwt>
<totfact> 0.15295365E+03</totfact>
</mgrwt>
</event>
<event>
 6    4  0.5642870E-004  0.1319746E+03  0.7818608E-02  0.1224555E+00
         -4   -1    0    0    0  501 -0.00000000000E+00  0.00000000000E+00  0.13106142192E+02  0.13167530640E+02  0.12700000000E+01 0. -1.
          4   -1    0    0  502    0  0.00000000000E+00 -0.00000000000E+00 -0.69699089519E+03  0.69699205224E+03  0.12700000000E+01 0. -1.
         25    2    1    2    0    0 -0.31199575059E+02 -0.28611509848E+02 -0.35826822445E+03  0.38180283230E+03  0.12500100050E+03 0.  0.
    9000005    1    3    3    0    0  0.28499833278E+02 -0.38714365049E+02 -0.57295599416E+02  0.74798584682E+02  0.10000000000E+01 0.  0.
    9000005    1    3    3    0    0 -0.59699408337E+02  0.10102855201E+02 -0.30097262503E+03  0.30700424762E+03  0.10000000000E+01 0.  0.
         21    1    1    2  502  501  0.31199575059E+02  0.28611509848E+02 -0.32561652856E+03  0.32835675058E+03  0.00000000000E+00 0. -1.
<mgrwt>
<rscale>  1 0.13197455E+03</rscale>
<asrwt>0</asrwt>
<pdfrwt beam="2">  1        4 0.10723415E+00 0.13197455E+03</pdfrwt>
<pdfrwt beam="1">  1       -4 0.20211413E-02 0.13197455E+03</pdfrwt>
<totfact> 0.11940117E+03</totfact>
</mgrwt>
</event>
<event>
 6    4  0.5642870E-004  0.1281747E+03  0.7818608E-02  0.1230190E+00
          4   -1    0    0  502    0  0.00000000000E+00  0.00000000000E+00  0.38748052495E+02  0.38768859567E+02  0.12700000000E+01 0.  1.
         -4   -1    0    0    0  501 -0.00000000000E+00 -0.00000000000E+00 -0.16612868810E+03  0.16613354239E+03  0.12700000000E+01 0.  1.
         25    2    1    2    0    0 -0.63136486810E+01  0.27630300036E+02 -0.12007744919E+03  0.17563412269E+03  0.12500182242E+03 0.  0.
    9000005    1    3    3    0    0 -0.33242196622E+02  0.29930006570E+01 -0.13282701399E+03  0.13695991142E+03  0.10000000000E+01 0.  0.
    9000005    1    3    3    0    0  0.26928547941E+02  0.24637299379E+02  0.12749564803E+02  0.38674211272E+02  0.10000000000E+01 0.  0.
         21    1    1    2  502  501  0.63136486810E+01 -0.27630300036E+02 -0.73031864102E+01  0.29268279271E+02  0.00000000000E+00 0.  1.
<mgrwt>
<rscale>  1 0.12817469E+03</rscale>
<asrwt>0</asrwt>
<pdfrwt beam="1">  1        4 0.59632129E-02 0.12817469E+03</pdfrwt>
<pdfrwt beam="2">  1       -4 0.25560233E-01 0.12817469E+03</pdfrwt>
<totfact> 0.41587373E+03</totfact>
</mgrwt>
</event>
<event>
 6    4  0.5642870E-004  0.1282573E+03  0.7818608E-02  0.1230065E+00
         -4   -1    0    0    0  501 -0.00000000000E+00  0.00000000000E+00  0.13013379935E+04  0.13013386132E+04  0.12700000000E+01 0.  1.
          4   -1    0    0  502    0  0.00000000000E+00 -0.00000000000E+00 -0.49865379127E+01  0.51457225299E+01  0.12700000000E+01 0.  1.
         25    2    1    2    0    0  0.26921033114E+02 -0.99823235274E+01  0.11645640912E+04  0.11716055078E+04  0.12500221858E+03 0.  0.
    9000005    1    3    3    0    0  0.76443018161E+02 -0.69765636984E-01  0.61756625108E+03  0.62228017353E+03  0.10000000000E+01 0.  0.
    9000005    1    3    3    0    0 -0.49521985047E+02 -0.99125578904E+01  0.54699784007E+03  0.54932533425E+03  0.10000000000E+01 0.  0.
         21    1    1    2  502  501 -0.26921033114E+02  0.99823235274E+01  0.13178736446E+03  0.13487882799E+03  0.00000000000E+00 0.  1.
<mgrwt>
<rscale>  1 0.12825733E+03</rscale>
<asrwt>0</asrwt>
<pdfrwt beam="2">  1        4 0.77945158E-03 0.12825733E+03</pdfrwt>
<pdfrwt beam="1">  1       -4 0.20021833E+00 0.12825733E+03</pdfrwt>
<totfact> 0.10230927E+03</totfact>
</mgrwt>
</event>
<event>
 6    4  0.5642870E-004  0.1308778E+03  0.7818608E-02  0.1226159E+00
         -4   -1    0    0    0  501 -0.00000000000E+00  0.00000000000E+00  0.25633943279E+03  0.25634257879E+03  0.12700000000E+01 0.  1.
          4   -1    0    0  502    0  0.00000000000E+00 -0.00000000000E+00 -0.29507798603E+02  0.29535116022E+02  0.12700000000E+01 0.  1.
         25    2    1    2    0    0  0.79033427349E+01 -0.37979806152E+02  0.19881170427E+03  0.23802328045E+03  0.12499623907E+03 0.  0.
    9000005    1    3    3    0    0 -0.56981894893E+02 -0.32854614830E+02  0.99821528391E+02  0.11954789664E+03  0.10000000000E+01 0.  0.
    9000005    1    3    3    0    0  0.64885237628E+02 -0.51251913220E+01  0.98990175874E+02  0.11847538381E+03  0.10000000000E+01 0.  0.
         21    1    1    2  502  501 -0.79033427349E+01  0.37979806152E+02  0.28019929920E+02  0.47854414367E+02  0.00000000000E+00 0. -1.
<mgrwt>
<rscale>  1 0.13087776E+03</rscale>
<asrwt>0</asrwt>
<pdfrwt beam="2">  1        4 0.45420049E-02 0.13087776E+03</pdfrwt>
<pdfrwt beam="1">  1       -4 0.39439177E-01 0.13087776E+03</pdfrwt>
<totfact> 0.28378243E+03</totfact>
</mgrwt>
</event>
<event>
 6    4  0.5642870E-004  0.1268655E+03  0.7818608E-02  0.1232182E+00
          4   -1    0    0  502    0  0.00000000000E+00  0.00000000000E+00  0.14226603896E+03  0.14227170746E+03  0.12700000000E+01 0.  1.
         -4   -1    0    0    0  501 -0.00000000000E+00 -0.00000000000E+00 -0.46346462223E+02  0.46363859423E+02  0.12700000000E+01 0.  1.
         25    2    1    2    0    0  0.56795008384E+01  0.20933172108E+02  0.47298163275E+02  0.13539557935E+03  0.12499756892E+03 0.  0.
    9000005    1    3    3    0    0  0.51924919972E+02 -0.12841052680E+02 -0.99501098687E+01  0.54415940995E+02  0.10000000000E+01 0.  0.
    9000005    1    3    3    0    0 -0.46245419133E+02  0.33774224788E+02  0.57248273143E+02  0.80979638359E+02  0.10000000000E+01 0.  0.
         21    1    1    2  502  501 -0.56795008384E+01 -0.20933172108E+02  0.48621413466E+02  0.53239987526E+02  0.00000000000E+00 0. -1.
<mgrwt>
<rscale>  1 0.12686547E+03</rscale>
<asrwt>0</asrwt>
<pdfrwt beam="1">  1        4 0.21888857E-01 0.12686547E+03</pdfrwt>
<pdfrwt beam="2">  1       -4 0.71319993E-02 0.12686547E+03</pdfrwt>
<totfact> 0.41148215E+03</totfact>
</mgrwt>
</event>
<event>
 6    4  0.5642870E-004  0.1267019E+03  0.7818608E-02  0.1232433E+00
         -4   -1    0    0    0  501 -0.00000000000E+00  0.00000000000E+00  0.18402317605E+03  0.18402755833E+03  0.12700000000E+01 0. -1.
          4   -1    0    0  502    0  0.00000000000E+00 -0.00000000000E+00 -0.37485446826E+02  0.37506954338E+02  0.12700000000E+01 0. -1.
         25    2    1    2    0    0 -0.49088225613E+01  0.20078369009E+02  0.15412239212E+03  0.19951714333E+03  0.12500456508E+03 0.  0.
    9000005    1    3    3    0    0  0.56390057008E+02  0.11608772873E+02  0.41389993896E+02  0.70913565217E+02  0.10000000000E+01 0.  0.
    9000005    1    3    3    0    0 -0.61298879569E+02  0.84695961354E+01  0.11273239822E+03  0.12860357812E+03  0.10000000000E+01 0.  0.
         21    1    1    2  502  501  0.49088225613E+01 -0.20078369009E+02 -0.75846628961E+01  0.22017369330E+02  0.00000000000E+00 0.  1.
<mgrwt>
<rscale>  1 0.12670193E+03</rscale>
<asrwt>0</asrwt>
<pdfrwt beam="2">  1        4 0.57689832E-02 0.12670193E+03</pdfrwt>
<pdfrwt beam="1">  1       -4 0.28313250E-01 0.12670193E+03</pdfrwt>
<totfact> 0.36171440E+03</totfact>
</mgrwt>
</event>
<event>
 6    4  0.5642870E-004  0.1457615E+03  0.7818608E-02  0.1205780E+00
          4   -1    0    0  502    0  0.00000000000E+00  0.00000000000E+00  0.11915262955E+03  0.11915939757E+03  0.12700000000E+01 0. -1.
         -4   -1    0    0    0  501 -0.00000000000E+00 -0.00000000000E+00 -0.11213517634E+03  0.11214236787E+03  0.12700000000E+01 0. -1.
         25    2    1    2    0    0 -0.72104114879E+02 -0.20429899106E+02 -0.28252779265E+02  0.14847439401E+03  0.12502016629E+03 0.  0.
    9000005    1    3    3    0    0 -0.73732678492E+02 -0.54421895900E+02 -0.53471514656E+02  0.10610585993E+03  0.10000000000E+01 0.  0.
    9000005    1    3    3    0    0  0.16285636131E+01  0.33991996794E+02  0.25218735392E+02  0.42368534082E+02  0.10000000000E+01 0.  0.
         21    1    1    2  502  501  0.72104114879E+02  0.20429899106E+02  0.35270232482E+02  0.82827371438E+02  0.00000000000E+00 0. -1.
<mgrwt>
<rscale>  1 0.14576154E+03</rscale>
<asrwt>0</asrwt>
<pdfrwt beam="1">  1        4 0.18332248E-01 0.14576154E+03</pdfrwt>
<pdfrwt beam="2">  1       -4 0.17252639E-01 0.14576154E+03</pdfrwt>
<totfact> 0.12992219E+03</totfact>
</mgrwt>
</event>
<event>
 6    4  0.5642870E-004  0.1274516E+03  0.7818608E-02  0.1231287E+00
         -4   -1    0    0    0  501 -0.00000000000E+00  0.00000000000E+00  0.39748363111E+02  0.39768646822E+02  0.12700000000E+01 0.  1.
          4   -1    0    0  502    0  0.00000000000E+00 -0.00000000000E+00 -0.14706034423E+03  0.14706582794E+03  0.12700000000E+01 0.  1.
         25    2    1    2    0    0  0.53448443418E+01  0.24296687085E+02 -0.83300847133E+02  0.15225947049E+03  0.12500007543E+03 0.  0.
    9000005    1    3    3    0    0 -0.21556000827E+02  0.28575845251E+02  0.22974115973E+02  0.42544683666E+02  0.10000000000E+01 0.  0.
    9000005    1    3    3    0    0  0.26900845169E+02 -0.42791581666E+01 -0.10627496311E+03  0.10971478683E+03  0.10000000000E+01 0.  0.
         21    1    1    2  502  501 -0.53448443418E+01 -0.24296687085E+02 -0.24011133990E+02  0.34575004263E+02  0.00000000000E+00 0. -1.
<mgrwt>
<rscale>  1 0.12745162E+03</rscale>
<asrwt>0</asrwt>
<pdfrwt beam="2">  1        4 0.22626650E-01 0.12745162E+03</pdfrwt>
<pdfrwt beam="1">  1       -4 0.61171150E-02 0.12745162E+03</pdfrwt>
<totfact> 0.49836280E+03</totfact>
</mgrwt>
</event>
<event>
 6    4  0.5642870E-004  0.1279187E+03  0.7818608E-02  0.1230577E+00
          4   -1    0    0  502    0  0.00000000000E+00  0.00000000000E+00  0.91426685031E+02  0.91435505334E+02  0.12700000000E+01 0. -1.
         -4   -1    0    0    0  501 -0.00000000000E+00 -0.00000000000E+00 -0.68312455210E+02  0.68324259504E+02  0.12700000000E+01 0. -1.
         25    2    1    2    0    0 -0.26780191042E+02 -0.51472755943E+01  0.70571249879E+01  0.12811322168E+03  0.12497808399E+03 0.  0.
    9000005    1    3    3    0    0 -0.58009938921E+02  0.40754037014E+02  0.13626274150E+02  0.72199168235E+02  0.10000000000E+01 0.  0.
    9000005    1    3    3    0    0  0.31229747879E+02 -0.45901312609E+02 -0.65691491619E+01  0.55914053444E+02  0.10000000000E+01 0.  0.
         21    1    1    2  502  501  0.26780191042E+02  0.51472755943E+01  0.16057104833E+02  0.31646543159E+02  0.00000000000E+00 0. -1.
<mgrwt>
<rscale>  1 0.12791870E+03</rscale>
<asrwt>0</asrwt>
<pdfrwt beam="1">  1        4 0.14067230E-01 0.12791870E+03</pdfrwt>
<pdfrwt beam="2">  1       -4 0.10511195E-01 0.12791870E+03</pdfrwt>
<totfact> 0.47333644E+03</totfact>
</mgrwt>
</event>
<event>
 6    4  0.5642870E-004  0.1285572E+03  0.7818608E-02  0.1229612E+00
         -4   -1    0    0    0  501 -0.00000000000E+00  0.00000000000E+00  0.85486234732E+02  0.85495667894E+02  0.12700000000E+01 0.  1.
          4   -1    0    0  502    0  0.00000000000E+00 -0.00000000000E+00 -0.11824917367E+03  0.11825599340E+03  0.12700000000E+01 0.  1.
         25    2    1    2    0    0 -0.34902649924E+01  0.29830956818E+02  0.31898317187E+02  0.13245547641E+03  0.12499953063E+03 0.  0.
    9000005    1    3    3    0    0 -0.71258804501E+01  0.26804032458E+02  0.79708250325E+02  0.84401655778E+02  0.10000000000E+01 0.  0.
    9000005    1    3    3    0    0  0.36356154576E+01  0.30269243599E+01 -0.47809933138E+02  0.48053820634E+02  0.10000000000E+01 0.  0.
         21    1    1    2  502  501  0.34902649924E+01 -0.29830956818E+02 -0.64661256128E+02  0.71296184880E+02  0.00000000000E+00 0.  1.
<mgrwt>
<rscale>  1 0.12855719E+03</rscale>
<asrwt>0</asrwt>
<pdfrwt beam="2">  1        4 0.18193431E-01 0.12855719E+03</pdfrwt>
<pdfrwt beam="1">  1       -4 0.13152979E-01 0.12855719E+03</pdfrwt>
<totfact> 0.20585066E+03</totfact>
</mgrwt>
</event>
<event>
 6    4  0.5642870E-004  0.1349466E+03  0.7818608E-02  0.1220295E+00
          4   -1    0    0  502    0  0.00000000000E+00  0.00000000000E+00  0.23929069143E+04  0.23929072513E+04  0.12700000000E+01 0. -1.
         -4   -1    0    0    0  501 -0.00000000000E+00 -0.00000000000E+00 -0.37497672557E+01  0.39589966496E+01  0.12700000000E+01 0. -1.
         25    2    1    2    0    0  0.29986835567E+02 -0.41052236561E+02  0.14268566394E+04  0.14332238021E+04  0.12500440438E+03 0.  0.
    9000005    1    3    3    0    0  0.36403036048E+02 -0.98815108798E+01  0.11604835205E+03  0.12202887078E+03  0.10000000000E+01 0.  0.
    9000005    1    3    3    0    0 -0.64162004808E+01 -0.31170725681E+02  0.13108082873E+04  0.13111949313E+04  0.10000000000E+01 0.  0.
         21    1    1    2  502  501 -0.29986835567E+02  0.41052236561E+02  0.96230050766E+03  0.96364244587E+03  0.00000000000E+00 0.  1.
<mgrwt>
<rscale>  1 0.13494665E+03</rscale>
<asrwt>0</asrwt>
<pdfrwt beam="1">  1        4 0.36815435E+00 0.13494665E+03</pdfrwt>
<pdfrwt beam="2">  1       -4 0.59300985E-03 0.13494665E+03</pdfrwt>
<totfact> 0.15858933E+02</totfact>
</mgrwt>
</event>
<event>
 6    4  0.5642870E-004  0.1276857E+03  0.7818608E-02  0.1230931E+00
         -4   -1    0    0    0  501 -0.00000000000E+00  0.00000000000E+00  0.15754414583E+02  0.15805520518E+02  0.12700000000E+01 0. -1.
          4   -1    0    0  502    0  0.00000000000E+00 -0.00000000000E+00 -0.39368022328E+03  0.39368227177E+03  0.12700000000E+01 0. -1.
         25    2    1    2    0    0 -0.16633520662E+02 -0.20036944716E+02 -0.34244998190E+03  0.36547998105E+03  0.12500189309E+03 0.  0.
    9000005    1    3    3    0    0 -0.63028847493E+02 -0.36031808465E+01 -0.27390375119E+03  0.28108696776E+03  0.10000000000E+01 0.  0.
    9000005    1    3    3    0    0  0.46395326831E+02 -0.16433763869E+02 -0.68546230716E+02  0.84393013289E+02  0.10000000000E+01 0.  0.
         21    1    1    2  502  501  0.16633520662E+02  0.20036944716E+02 -0.35475826793E+02  0.44007811236E+02  0.00000000000E+00 0.  1.
<mgrwt>
<rscale>  1 0.12768565E+03</rscale>
<asrwt>0</asrwt>
<pdfrwt beam="2">  1        4 0.60570270E-01 0.12768565E+03</pdfrwt>
<pdfrwt beam="1">  1       -4 0.24278452E-02 0.12768565E+03</pdfrwt>
<totfact> 0.31639409E+03</totfact>
</mgrwt>
</event>
<event>
 6    4  0.5642870E-004  0.1268909E+03  0.7818608E-02  0.1232143E+00
          4   -1    0    0  502    0  0.00000000000E+00  0.00000000000E+00  0.52799504527E+02  0.52814776136E+02  0.12700000000E+01 0.  1.
         -4   -1    0    0    0  501 -0.00000000000E+00 -0.00000000000E+00 -0.12195122941E+03  0.12195784212E+03  0.12700000000E+01 0.  1.
         25    2    1    2    0    0 -0.14551074488E+02  0.16243287292E+02 -0.80416942757E+02  0.15022708334E+03  0.12500285491E+03 0.  0.
    9000005    1    3    3    0    0  0.14807137500E+01  0.24881662110E+02 -0.11146290108E+03  0.11422026063E+03  0.10000000000E+01 0.  0.
    9000005    1    3    3    0    0 -0.16031788238E+02 -0.86383748177E+01  0.31045958319E+02  0.36006822709E+02  0.10000000000E+01 0.  0.
         21    1    1    2  502  501  0.14551074488E+02 -0.16243287292E+02  0.11265217870E+02  0.24545534919E+02  0.00000000000E+00 0.  1.
<mgrwt>
<rscale>  1 0.12689087E+03</rscale>
<asrwt>0</asrwt>
<pdfrwt beam="1">  1        4 0.81246841E-02 0.12689087E+03</pdfrwt>
<pdfrwt beam="2">  1       -4 0.18763411E-01 0.12689087E+03</pdfrwt>
<totfact> 0.43798408E+03</totfact>
</mgrwt>
</event>
<event>
 6    4  0.5642870E-004  0.1303179E+03  0.7818608E-02  0.1226985E+00
          4   -1    0    0  502    0  0.00000000000E+00  0.00000000000E+00  0.20725552259E+02  0.20764426706E+02  0.12700000000E+01 0. -1.
         -4   -1    0    0    0  501 -0.00000000000E+00 -0.00000000000E+00 -0.35122351930E+03  0.35122581541E+03  0.12700000000E+01 0. -1.
         25    2    1    2    0    0 -0.36778844884E+02 -0.22263314159E+01 -0.28546596402E+03  0.31380500964E+03  0.12500050990E+03 0.  0.
    9000005    1    3    3    0    0  0.19658801369E+02  0.27780400720E+02 -0.21883230236E+03  0.22146511168E+03  0.10000000000E+01 0.  0.
    9000005    1    3    3    0    0 -0.56437646253E+02 -0.30006732136E+02 -0.66633661662E+02  0.92339897956E+02  0.10000000000E+01 0.  0.
         21    1    1    2  502  501  0.36778844884E+02  0.22263314159E+01 -0.45032003019E+02  0.58185232478E+02  0.00000000000E+00 0. -1.
<mgrwt>
<rscale>  1 0.13031795E+03</rscale>
<asrwt>0</asrwt>
<pdfrwt beam="1">  1        4 0.31917137E-02 0.13031795E+03</pdfrwt>
<pdfrwt beam="2">  1       -4 0.54037550E-01 0.13031795E+03</pdfrwt>
<totfact> 0.26313747E+03</totfact>
</mgrwt>
</event>
<event>
 6    4  0.5642870E-004  0.1298091E+03  0.7818608E-02  0.1227739E+00
         -4   -1    0    0    0  501 -0.00000000000E+00  0.00000000000E+00  0.18208015297E+02  0.18252252492E+02  0.12700000000E+01 0.  1.
          4   -1    0    0  502    0  0.00000000000E+00 -0.00000000000E+00 -0.38367628892E+03  0.38367839081E+03  0.12700000000E+01 0.  1.
         25    2    1    2    0    0  0.34557674539E+02  0.55650576171E+01 -0.25646383261E+03  0.28744408997E+03  0.12500081873E+03 0.  0.
    9000005    1    3    3    0    0  0.79604116070E+02 -0.13098961112E+02 -0.14932674360E+03  0.16972882617E+03  0.10000000000E+01 0.  0.
    9000005    1    3    3    0    0 -0.45046441531E+02  0.18664018729E+02 -0.10713708901E+03  0.11771526380E+03  0.10000000000E+01 0.  0.
         21    1    1    2  502  501 -0.34557674539E+02 -0.55650576171E+01 -0.10900444101E+03  0.11448655334E+03  0.00000000000E+00 0. -1.
<mgrwt>
<rscale>  1 0.12980912E+03</rscale>
<asrwt>0</asrwt>
<pdfrwt beam="2">  1        4 0.59030680E-01 0.12980912E+03</pdfrwt>
<pdfrwt beam="1">  1       -4 0.28047980E-02 0.12980912E+03</pdfrwt>
<totfact> 0.26785906E+03</totfact>
</mgrwt>
</event>
<event>
 6    4  0.5642870E-004  0.1269517E+03  0.7818608E-02  0.1232050E+00
          4   -1    0    0  502    0  0.00000000000E+00  0.00000000000E+00  0.39196379402E+03  0.39196585147E+03  0.12700000000E+01 0. -1.
         -4   -1    0    0    0  501 -0.00000000000E+00 -0.00000000000E+00 -0.14488216007E+02  0.14543771968E+02  0.12700000000E+01 0. -1.
         25    2    1    2    0    0 -0.20783455241E+02  0.78008543862E+01  0.29625719668E+03  0.32231205336E+03  0.12499571120E+03 0.  0.
    9000005    1    3    3    0    0 -0.35349109222E+02  0.50589968771E+02  0.25047637484E+03  0.25796960832E+03  0.10000000000E+01 0.  0.
    9000005    1    3    3    0    0  0.14565653981E+02 -0.42789114384E+02  0.45780821832E+02  0.64342445037E+02  0.10000000000E+01 0.  0.
         21    1    1    2  502  501  0.20783455241E+02 -0.78008543862E+01  0.81218381333E+02  0.84197570080E+02  0.00000000000E+00 0. -1.
<mgrwt>
<rscale>  1 0.12695170E+03</rscale>
<asrwt>0</asrwt>
<pdfrwt beam="1">  1        4 0.60306548E-01 0.12695170E+03</pdfrwt>
<pdfrwt beam="2">  1       -4 0.22333883E-02 0.12695170E+03</pdfrwt>
<totfact> 0.36283512E+03</totfact>
</mgrwt>
</event>
<event>
 6    4  0.5642870E-004  0.1311129E+03  0.7818608E-02  0.1225814E+00
          4   -1    0    0  502    0  0.00000000000E+00  0.00000000000E+00  0.38673348078E+03  0.38673556606E+03  0.12700000000E+01 0.  1.
         -4   -1    0    0    0  501 -0.00000000000E+00 -0.00000000000E+00 -0.20300359811E+02  0.20340046914E+02  0.12700000000E+01 0.  1.
         25    2    1    2    0    0  0.33835030631E+02 -0.20500022910E+02  0.22705541846E+03  0.26219219710E+03  0.12500209972E+03 0.  0.
    9000005    1    3    3    0    0  0.54468539642E+02  0.29760988034E+01  0.29201247273E+02  0.61882079935E+02  0.10000000000E+01 0.  0.
    9000005    1    3    3    0    0 -0.20633509011E+02 -0.23476121714E+02  0.19785417118E+03  0.20031011717E+03  0.10000000000E+01 0.  0.
         21    1    1    2  502  501 -0.33835030631E+02  0.20500022910E+02  0.13937770252E+03  0.14488341588E+03  0.00000000000E+00 0.  1.
<mgrwt>
<rscale>  1 0.13111287E+03</rscale>
<asrwt>0</asrwt>
<pdfrwt beam="1">  1        4 0.59500671E-01 0.13111287E+03</pdfrwt>
<pdfrwt beam="2">  1       -4 0.31263456E-02 0.13111287E+03</pdfrwt>
<totfact> 0.22283554E+03</totfact>
</mgrwt>
</event>
<event>
 6    4  0.5642870E-004  0.1286077E+03  0.7818608E-02  0.1229536E+00
          4   -1    0    0  502    0  0.00000000000E+00  0.00000000000E+00  0.85671482196E+02  0.85680894963E+02  0.12700000000E+01 0.  1.
         -4   -1    0    0    0  501 -0.00000000000E+00 -0.00000000000E+00 -0.84732949408E+02  0.84742466423E+02  0.12700000000E+01 0.  1.
         25    2    1    2    0    0 -0.10420666464E+02 -0.28526239357E+02 -0.24362851958E+02  0.13089493248E+03  0.12497038918E+03 0.  0.
    9000005    1    3    3    0    0  0.44730762130E+02  0.22385316521E+02  0.50285968483E+01  0.50281510148E+02  0.10000000000E+01 0.  0.
    9000005    1    3    3    0    0 -0.55151428594E+02 -0.50911555878E+02 -0.29391448806E+02  0.80613422336E+02  0.10000000000E+01 0.  0.
         21    1    1    2  502  501  0.10420666464E+02  0.28526239357E+02  0.25301384746E+02  0.39528428902E+02  0.00000000000E+00 0.  1.
<mgrwt>
<rscale>  1 0.12860768E+03</rscale>
<asrwt>0</asrwt>
<pdfrwt beam="1">  1        4 0.13181684E-01 0.12860768E+03</pdfrwt>
<pdfrwt beam="2">  1       -4 0.13037295E-01 0.12860768E+03</pdfrwt>
<totfact> 0.36734860E+03</totfact>
</mgrwt>
</event>
<event>
 6    4  0.5642870E-004  0.1266522E+03  0.7818608E-02  0.1232510E+00
          4   -1    0    0  502    0  0.00000000000E+00  0.00000000000E+00  0.17785317719E+03  0.17785771149E+03  0.12700000000E+01 0.  1.
         -4   -1    0    0    0  501 -0.00000000000E+00 -0.00000000000E+00 -0.30394019338E+02  0.30420540947E+02  0.12700000000E+01 0.  1.
         25    2    1    2    0    0  0.18618225359E+02 -0.82919261431E+01  0.12497121085E+03  0.17792858827E+03  0.12500153850E+03 0.  0.
    9000005    1    3    3    0    0 -0.45814976274E+02 -0.28232127445E+02  0.81532736314E+02  0.97696735677E+02  0.10000000000E+01 0.  0.
    9000005    1    3    3    0    0  0.64433201633E+02  0.19940201302E+02  0.43438474538E+02  0.80231852596E+02  0.10000000000E+01 0.  0.
         21    1    1    2  502  501 -0.18618225359E+02  0.82919261431E+01  0.22487947002E+02  0.30349664167E+02  0.00000000000E+00 0. -1.
<mgrwt>
<rscale>  1 0.12665220E+03</rscale>
<asrwt>0</asrwt>
<pdfrwt beam="1">  1        4 0.27364417E-01 0.12665220E+03</pdfrwt>
<pdfrwt beam="2">  1       -4 0.46783917E-02 0.12665220E+03</pdfrwt>
<totfact> 0.54001694E+03</totfact>
</mgrwt>
</event>
<event>
 6    4  0.5642870E-004  0.1271898E+03  0.7818608E-02  0.1231686E+00
          4   -1    0    0  502    0  0.00000000000E+00  0.00000000000E+00  0.21226418231E+02  0.21264377040E+02  0.12700000000E+01 0. -1.
         -4   -1    0    0    0  501 -0.00000000000E+00 -0.00000000000E+00 -0.27262891698E+03  0.27263187502E+03  0.12700000000E+01 0. -1.
         25    2    1    2    0    0  0.63785155354E+01 -0.22615653632E+02 -0.22570338494E+03  0.25907387849E+03  0.12500041319E+03 0.  0.
    9000005    1    3    3    0    0 -0.45295865293E+02 -0.49775111202E+02 -0.14044095351E+03  0.15573676037E+03  0.10000000000E+01 0.  0.
    9000005    1    3    3    0    0  0.51674380828E+02  0.27159457570E+02 -0.85262431430E+02  0.10333711813E+03  0.10000000000E+01 0.  0.
         21    1    1    2  502  501 -0.63785155354E+01  0.22615653632E+02 -0.25699113815E+02  0.34822373563E+02  0.00000000000E+00 0. -1.
<mgrwt>
<rscale>  1 0.12718984E+03</rscale>
<asrwt>0</asrwt>
<pdfrwt beam="1">  1        4 0.32687504E-02 0.12718984E+03</pdfrwt>
<pdfrwt beam="2">  1       -4 0.41946055E-01 0.12718984E+03</pdfrwt>
<totfact> 0.42023204E+03</totfact>
</mgrwt>
</event>
<event>
 6    4  0.5642870E-004  0.1317662E+03  0.7818608E-02  0.1224858E+00
         -4   -1    0    0    0  501 -0.00000000000E+00  0.00000000000E+00  0.24074262896E+03  0.24074597878E+03  0.12700000000E+01 0.  1.
          4   -1    0    0  502    0  0.00000000000E+00 -0.00000000000E+00 -0.44451035230E+02  0.44469173964E+02  0.12700000000E+01 0.  1.
         25    2    1    2    0    0  0.93225273800E+01 -0.40628607093E+02  0.20397005828E+03  0.24282939984E+03  0.12499895808E+03 0.  0.
    9000005    1    3    3    0    0  0.57069413008E+02 -0.17710066416E+02  0.43709347835E+02  0.74041011890E+02  0.10000000000E+01 0.  0.
    9000005    1    3    3    0    0 -0.47746885628E+02 -0.22918540677E+02  0.16026071045E+03  0.16878838795E+03  0.10000000000E+01 0.  0.
         21    1    1    2  502  501 -0.93225273800E+01  0.40628607093E+02 -0.76784645545E+01  0.42385752901E+02  0.00000000000E+00 0.  1.
<mgrwt>
<rscale>  1 0.13176620E+03</rscale>
<asrwt>0</asrwt>
<pdfrwt beam="2">  1        4 0.68402737E-02 0.13176620E+03</pdfrwt>
<pdfrwt beam="1">  1       -4 0.37038981E-01 0.13176620E+03</pdfrwt>
<totfact> 0.16571173E+03</totfact>
</mgrwt>
</event>
<event>
 6    4  0.5642870E-004  0.1269828E+03  0.7818608E-02  0.1232003E+00
          4   -1    0    0  502    0  0.00000000000E+00  0.00000000000E+00  0.19240006710E+02  0.19281876418E+02  0.12700000000E+01 0. -1.
         -4   -1    0    0    0  501 -0.00000000000E+00 -0.00000000000E+00 -0.29057764585E+03  0.29058042117E+03  0.12700000000E+01 0. -1.
         25    2    1    2    0    0 -0.20156883582E+02 -0.96768513805E+01 -0.22341944906E+03  0.25698418918E+03  0.12499872744E+03 0.  0.
    9000005    1    3    3    0    0  0.14742452585E+02 -0.56929040023E+02 -0.63205542112E+02  0.86337686208E+02  0.10000000000E+01 0.  0.
    9000005    1    3    3    0    0 -0.34899336167E+02  0.47252188643E+02 -0.16021390695E+03  0.17064650297E+03  0.10000000000E+01 0.  0.
         21    1    1    2  502  501  0.20156883582E+02  0.96768513805E+01 -0.47918190079E+02  0.52878108409E+02  0.00000000000E+00 0. -1.
<mgrwt>
<rscale>  1 0.12698277E+03</rscale>
<asrwt>0</asrwt>
<pdfrwt beam="1">  1        4 0.29634355E-02 0.12698277E+03</pdfrwt>
<pdfrwt beam="2">  1       -4 0.44707684E-01 0.12698277E+03</pdfrwt>
<totfact> 0.43149672E+03</totfact>
</mgrwt>
</event>
<event>
 6    4  0.5642870E-004  0.1305598E+03  0.7818608E-02  0.1226627E+00
         -4   -1    0    0    0  501 -0.00000000000E+00  0.00000000000E+00  0.93372911706E+02  0.93381548180E+02  0.12700000000E+01 0.  1.
          4   -1    0    0  502    0  0.00000000000E+00 -0.00000000000E+00 -0.16763856137E+03  0.16764337195E+03  0.12700000000E+01 0.  1.
         25    2    1    2    0    0 -0.24794002601E+02  0.28399010167E+02  0.43307846658E+02  0.13755519355E+03  0.12499846138E+03 0.  0.
    9000005    1    3    3    0    0  0.24236675078E+02  0.57085790947E+02 -0.60161767898E+01  0.62316918490E+02  0.10000000000E+01 0.  0.
    9000005    1    3    3    0    0 -0.49030677680E+02 -0.28686780780E+02  0.49324023448E+02  0.75238275062E+02  0.10000000000E+01 0.  0.
         21    1    1    2  502  501  0.24794002601E+02 -0.28399010167E+02 -0.11757349632E+03  0.12346972657E+03  0.00000000000E+00 0.  1.
<mgrwt>
<rscale>  1 0.13055980E+03</rscale>
<asrwt>0</asrwt>
<pdfrwt beam="2">  1        4 0.25791582E-01 0.13055980E+03</pdfrwt>
<pdfrwt beam="1">  1       -4 0.14366098E-01 0.13055980E+03</pdfrwt>
<totfact> 0.94154277E+02</totfact>
</mgrwt>
</event>
<event>
 6    4  0.5642870E-004  0.1289515E+03  0.7818608E-02  0.1229020E+00
         -4   -1    0    0    0  501 -0.00000000000E+00  0.00000000000E+00  0.53065607272E+03  0.53065759244E+03  0.12700000000E+01 0.  1.
          4   -1    0    0  502    0  0.00000000000E+00 -0.00000000000E+00 -0.19980170291E+02  0.20020492123E+02  0.12700000000E+01 0.  1.
         25    2    1    2    0    0 -0.18667827452E+02  0.25594107179E+02  0.50133093394E+03  0.51764969465E+03  0.12499981978E+03 0.  0.
    9000005    1    3    3    0    0  0.15190747388E+01 -0.48811924292E+02  0.14283162193E+03  0.15095291903E+03  0.10000000000E+01 0.  0.
    9000005    1    3    3    0    0 -0.20186902190E+02  0.74406031470E+02  0.35849931201E+03  0.36669677562E+03  0.10000000000E+01 0.  0.
         21    1    1    2  502  501  0.18667827452E+02 -0.25594107179E+02  0.93449684890E+01  0.33028389911E+02  0.00000000000E+00 0.  1.
<mgrwt>
<rscale>  1 0.12895155E+03</rscale>
<asrwt>0</asrwt>
<pdfrwt beam="2">  1        4 0.30770913E-02 0.12895155E+03</pdfrwt>
<pdfrwt beam="1">  1       -4 0.81642605E-01 0.12895155E+03</pdfrwt>
<totfact> 0.11511366E+03</totfact>
</mgrwt>
</event>
<event>
 6    4  0.5642870E-004  0.1267162E+03  0.7818608E-02  0.1232411E+00
         -4   -1    0    0    0  501 -0.00000000000E+00  0.00000000000E+00  0.12627246643E+04  0.12627253030E+04  0.12700000000E+01 0.  1.
          4   -1    0    0  502    0  0.00000000000E+00 -0.00000000000E+00 -0.64482659305E+01  0.65721407099E+01  0.12700000000E+01 0.  1.
         25    2    1    2    0    0 -0.18873155204E+02  0.86980174035E+01  0.12262580682E+04  0.12327878335E+04  0.12500056359E+03 0.  0.
    9000005    1    3    3    0    0 -0.20152803860E+02  0.59252883882E+02  0.38905187040E+03  0.39405506927E+03  0.10000000000E+01 0.  0.
    9000005    1    3    3    0    0  0.12796486561E+01 -0.50554866479E+02  0.83720619784E+03  0.83873276419E+03  0.10000000000E+01 0.  0.
         21    1    1    2  502  501  0.18873155204E+02 -0.86980174035E+01  0.30018330130E+02  0.36509610213E+02  0.00000000000E+00 0. -1.
<mgrwt>
<rscale>  1 0.12671619E+03</rscale>
<asrwt>0</asrwt>
<pdfrwt beam="2">  1        4 0.10016195E-02 0.12671619E+03</pdfrwt>
<pdfrwt beam="1">  1       -4 0.19427478E+00 0.12671619E+03</pdfrwt>
<totfact> 0.76344490E+02</totfact>
</mgrwt>
</event>
<event>
 6    4  0.5642870E-004  0.1284487E+03  0.7818608E-02  0.1229776E+00
         -4   -1    0    0    0  501 -0.00000000000E+00  0.00000000000E+00  0.12913959935E+03  0.12914584399E+03  0.12700000000E+01 0. -1.
          4   -1    0    0  502    0  0.00000000000E+00 -0.00000000000E+00 -0.55305013294E+02  0.55319593233E+02  0.12700000000E+01 0. -1.
         25    2    1    2    0    0 -0.24570203295E+02  0.16473304895E+02  0.83664783944E+02  0.15329337514E+03  0.12499599244E+03 0.  0.
    9000005    1    3    3    0    0  0.44837255499E+02  0.31306423907E+02  0.52353533787E+02  0.75712377842E+02  0.10000000000E+01 0.  0.
    9000005    1    3    3    0    0 -0.69407458793E+02 -0.14833119012E+02  0.31311250157E+02  0.77580997301E+02  0.10000000000E+01 0.  0.
         21    1    1    2  502  501  0.24570203295E+02 -0.16473304895E+02 -0.98301978854E+01  0.31172062084E+02  0.00000000000E+00 0. -1.
<mgrwt>
<rscale>  1 0.12844868E+03</rscale>
<asrwt>0</asrwt>
<pdfrwt beam="2">  1        4 0.85100656E-02 0.12844868E+03</pdfrwt>
<pdfrwt beam="1">  1       -4 0.19869232E-01 0.12844868E+03</pdfrwt>
<totfact> 0.36717068E+03</totfact>
</mgrwt>
</event>
<event>
 6    4  0.5642870E-004  0.1302953E+03  0.7818608E-02  0.1227018E+00
          4   -1    0    0  502    0  0.00000000000E+00  0.00000000000E+00  0.95439320405E+03  0.95439404904E+03  0.12700000000E+01 0. -1.
         -4   -1    0    0    0  501 -0.00000000000E+00 -0.00000000000E+00 -0.12653377075E+02  0.12716951340E+02  0.12700000000E+01 0. -1.
         25    2    1    2    0    0  0.23642327785E+02 -0.28164354591E+02  0.33787462878E+03  0.36212722529E+03  0.12499868794E+03 0.  0.
    9000005    1    3    3    0    0  0.26119515543E+02  0.27111711963E+02  0.27821560400E+03  0.28075290974E+03  0.10000000000E+01 0.  0.
    9000005    1    3    3    0    0 -0.24771877582E+01 -0.55276066553E+02  0.59659024775E+02  0.81374315542E+02  0.10000000000E+01 0.  0.
         21    1    1    2  502  501 -0.23642327785E+02  0.28164354591E+02  0.60386519820E+03  0.60498377510E+03  0.00000000000E+00 0. -1.
<mgrwt>
<rscale>  1 0.13029529E+03</rscale>
<asrwt>0</asrwt>
<pdfrwt beam="1">  1        4 0.14683466E+00 0.13029529E+03</pdfrwt>
<pdfrwt beam="2">  1       -4 0.19516290E-02 0.13029529E+03</pdfrwt>
<totfact> 0.58579493E+02</totfact>
</mgrwt>
</event>
<event>
 6    4  0.5642870E-004  0.1280061E+03  0.7818608E-02  0.1230445E+00
         -4   -1    0    0    0  501 -0.00000000000E+00  0.00000000000E+00  0.20787326883E+02  0.20826086021E+02  0.12700000000E+01 0. -1.
          4   -1    0    0  502    0  0.00000000000E+00 -0.00000000000E+00 -0.45292579802E+03  0.45292757855E+03  0.12700000000E+01 0. -1.
         25    2    1    2    0    0  0.11381082216E+02  0.25108831786E+02 -0.18433458824E+03  0.22442106172E+03  0.12500236020E+03 0.  0.
    9000005    1    3    3    0    0  0.39706173686E+02 -0.27493221707E+02 -0.25296241590E+02  0.54528499954E+02  0.10000000000E+01 0.  0.
    9000005    1    3    3    0    0 -0.28325091470E+02  0.52602053494E+02 -0.15903834665E+03  0.16989256177E+03  0.10000000000E+01 0.  0.
         21    1    1    2  502  501 -0.11381082216E+02 -0.25108831786E+02 -0.24780388289E+03  0.24933260285E+03  0.00000000000E+00 0.  1.
<mgrwt>
<rscale>  1 0.12800614E+03</rscale>
<asrwt>0</asrwt>
<pdfrwt beam="2">  1        4 0.69684003E-01 0.12800614E+03</pdfrwt>
<pdfrwt beam="1">  1       -4 0.32011691E-02 0.12800614E+03</pdfrwt>
<totfact> 0.15267125E+03</totfact>
</mgrwt>
</event>
<event>
 6    4  0.5642870E-004  0.1272534E+03  0.7818608E-02  0.1231589E+00
         -4   -1    0    0    0  501 -0.00000000000E+00  0.00000000000E+00  0.12333007705E+03  0.12333661584E+03  0.12700000000E+01 0.  1.
          4   -1    0    0  502    0  0.00000000000E+00 -0.00000000000E+00 -0.46395696677E+02  0.46413075422E+02  0.12700000000E+01 0.  1.
         25    2    1    2    0    0  0.18883058485E+02 -0.14520702534E+02  0.68210887349E+02  0.14438199467E+03  0.12500405806E+03 0.  0.
    9000005    1    3    3    0    0  0.52099985122E+02  0.17988632163E+02  0.79309372926E+02  0.96586624181E+02  0.10000000000E+01 0.  0.
    9000005    1    3    3    0    0 -0.33216926637E+02 -0.32509334697E+02 -0.11098485577E+02  0.47795370484E+02  0.10000000000E+01 0.  0.
         21    1    1    2  502  501 -0.18883058485E+02  0.14520702534E+02  0.87234930278E+01  0.25367696593E+02  0.00000000000E+00 0. -1.
<mgrwt>
<rscale>  1 0.12725343E+03</rscale>
<asrwt>0</asrwt>
<pdfrwt beam="2">  1        4 0.71396394E-02 0.12725343E+03</pdfrwt>
<pdfrwt beam="1">  1       -4 0.18975698E-01 0.12725343E+03</pdfrwt>
<totfact> 0.53160520E+03</totfact>
</mgrwt>
</event>
<event>
 6    4  0.5642870E-004  0.1296226E+03  0.7818608E-02  0.1228017E+00
          4   -1    0    0  502    0  0.00000000000E+00  0.00000000000E+00  0.46290051920E+01  0.48000613608E+01  0.12700000000E+01 0.  1.
         -4   -1    0    0    0  501 -0.00000000000E+00 -0.00000000000E+00 -0.14308467802E+04  0.14308473438E+04  0.12700000000E+01 0.  1.
         25    2    1    2    0    0  0.33270190401E+02  0.83864370622E+01 -0.10883038645E+04  0.10959960415E+04  0.12499913489E+03 0.  0.
    9000005    1    3    3    0    0  0.70918724799E+02 -0.15988932229E+02 -0.42477429131E+03  0.43095163307E+03  0.10000000000E+01 0.  0.
    9000005    1    3    3    0    0 -0.37648534398E+02  0.24375369292E+02 -0.66352957316E+03  0.66504440847E+03  0.10000000000E+01 0.  0.
         21    1    1    2  502  501 -0.33270190401E+02 -0.83864370622E+01 -0.33791391051E+03  0.33965136362E+03  0.00000000000E+00 0.  1.
<mgrwt>
<rscale>  1 0.12962261E+03</rscale>
<asrwt>0</asrwt>
<pdfrwt beam="1">  1        4 0.72535731E-03 0.12962261E+03</pdfrwt>
<pdfrwt beam="2">  1       -4 0.22014313E+00 0.12962261E+03</pdfrwt>
<totfact> 0.86422027E+02</totfact>
</mgrwt>
</event>
<event>
 6    4  0.5642870E-004  0.1480273E+03  0.7818608E-02  0.1202918E+00
         -4   -1    0    0    0  501 -0.00000000000E+00  0.00000000000E+00  0.19657737509E+03  0.19658147751E+03  0.12700000000E+01 0.  1.
          4   -1    0    0  502    0  0.00000000000E+00 -0.00000000000E+00 -0.69132738156E+02  0.69144402413E+02  0.12700000000E+01 0.  1.
         25    2    1    2    0    0 -0.16540707867E+02 -0.77549206982E+02  0.53777666638E+02  0.15749327377E+03  0.12499847733E+03 0.  0.
    9000005    1    3    3    0    0 -0.29713183790E+02  0.28393527013E+02  0.11759590019E+02  0.42759251918E+02  0.10000000000E+01 0.  0.
    9000005    1    3    3    0    0  0.13172475923E+02 -0.10594273399E+03  0.42018076619E+02  0.11473402185E+03  0.10000000000E+01 0.  0.
         21    1    1    2  502  501  0.16540707867E+02  0.77549206982E+02  0.73666970299E+02  0.10823260615E+03  0.00000000000E+00 0.  1.
<mgrwt>
<rscale>  1 0.14802734E+03</rscale>
<asrwt>0</asrwt>
<pdfrwt beam="2">  1        4 0.10637019E-01 0.14802734E+03</pdfrwt>
<pdfrwt beam="1">  1       -4 0.30243885E-01 0.14802734E+03</pdfrwt>
<totfact> 0.12011428E+03</totfact>
</mgrwt>
</event>
<event>
 6    4  0.5642870E-004  0.1313084E+03  0.7818608E-02  0.1225527E+00
         -4   -1    0    0    0  501 -0.00000000000E+00  0.00000000000E+00  0.22398036870E+03  0.22398396921E+03  0.12700000000E+01 0. -1.
          4   -1    0    0  502    0  0.00000000000E+00 -0.00000000000E+00 -0.41167589414E+02  0.41187174195E+02  0.12700000000E+01 0. -1.
         25    2    1    2    0    0 -0.38244010961E+02  0.12459083636E+02  0.18264705551E+03  0.22494850546E+03  0.12499620026E+03 0.  0.
    9000005    1    3    3    0    0 -0.22815860406E+02 -0.55673219301E+02  0.69095859827E+02  0.91625917068E+02  0.10000000000E+01 0.  0.
    9000005    1    3    3    0    0 -0.15428150555E+02  0.68132302936E+02  0.11355119569E+03  0.13332258839E+03  0.10000000000E+01 0.  0.
         21    1    1    2  502  501  0.38244010961E+02 -0.12459083636E+02  0.16572377738E+00  0.40222637952E+02  0.00000000000E+00 0. -1.
<mgrwt>
<rscale>  1 0.13130835E+03</rscale>
<asrwt>0</asrwt>
<pdfrwt beam="2">  1        4 0.63352587E-02 0.13130835E+03</pdfrwt>
<pdfrwt beam="1">  1       -4 0.34460302E-01 0.13130835E+03</pdfrwt>
<totfact> 0.21580046E+03</totfact>
</mgrwt>
</event>
<event>
 6    4  0.5642870E-004  0.1285345E+03  0.7818608E-02  0.1229647E+00
         -4   -1    0    0    0  501 -0.00000000000E+00  0.00000000000E+00  0.41772702632E+03  0.41772895688E+03  0.12700000000E+01 0.  1.
          4   -1    0    0  502    0  0.00000000000E+00 -0.00000000000E+00 -0.15034771367E+02  0.15088315017E+02  0.12700000000E+01 0.  1.
         25    2    1    2    0    0  0.28383555939E+02  0.96945148786E+01  0.33295403247E+03  0.35690265183E+03  0.12498602031E+03 0.  0.
    9000005    1    3    3    0    0  0.25347852817E+02 -0.72791950265E+01  0.30728163583E+01  0.26569578902E+02  0.10000000000E+01 0.  0.
    9000005    1    3    3    0    0  0.30357031222E+01  0.16973709905E+02  0.32988121612E+03  0.33033307292E+03  0.10000000000E+01 0.  0.
         21    1    1    2  502  501 -0.28383555939E+02 -0.96945148786E+01  0.69738222478E+02  0.75914620073E+02  0.00000000000E+00 0.  1.
<mgrwt>
<rscale>  1 0.12853449E+03</rscale>
<asrwt>0</asrwt>
<pdfrwt beam="2">  1        4 0.23173092E-02 0.12853449E+03</pdfrwt>
<pdfrwt beam="1">  1       -4 0.64269959E-01 0.12853449E+03</pdfrwt>
<totfact> 0.30053844E+03</totfact>
</mgrwt>
</event>
<event>
 6    4  0.5642870E-004  0.1277545E+03  0.7818608E-02  0.1230826E+00
          4   -1    0    0  502    0  0.00000000000E+00  0.00000000000E+00  0.65606313539E+03  0.65606436461E+03  0.12700000000E+01 0.  1.
         -4   -1    0    0    0  501 -0.00000000000E+00 -0.00000000000E+00 -0.10650759434E+02  0.10726209793E+02  0.12700000000E+01 0.  1.
         25    2    1    2    0    0 -0.17425566316E+02  0.19793311563E+02  0.39858558319E+03  0.41855904706E+03  0.12500313277E+03 0.  0.
    9000005    1    3    3    0    0 -0.14462092059E+01 -0.11262742022E+02  0.37765985887E+03  0.37783185398E+03  0.10000000000E+01 0.  0.
    9000005    1    3    3    0    0 -0.15979357110E+02  0.31056053584E+02  0.20925724324E+02  0.40727193082E+02  0.10000000000E+01 0.  0.
         21    1    1    2  502  501  0.17425566316E+02 -0.19793311563E+02  0.24682679276E+03  0.24823152734E+03  0.00000000000E+00 0. -1.
<mgrwt>
<rscale>  1 0.12775449E+03</rscale>
<asrwt>0</asrwt>
<pdfrwt beam="1">  1        4 0.10093874E+00 0.12775449E+03</pdfrwt>
<pdfrwt beam="2">  1       -4 0.16444759E-02 0.12775449E+03</pdfrwt>
<totfact> 0.18729970E+03</totfact>
</mgrwt>
</event>
<event>
 6    4  0.5642870E-004  0.1305313E+03  0.7818608E-02  0.1226669E+00
          4   -1    0    0  502    0  0.00000000000E+00  0.00000000000E+00  0.15014662430E+04  0.15014667801E+04  0.12700000000E+01 0.  1.
         -4   -1    0    0    0  501 -0.00000000000E+00 -0.00000000000E+00 -0.72729498086E+01  0.73830006717E+01  0.12700000000E+01 0.  1.
         25    2    1    2    0    0 -0.14534488279E+01  0.37565508913E+02  0.60774610314E+03  0.62160578913E+03  0.12500060488E+03 0.  0.
    9000005    1    3    3    0    0  0.27570942364E+02  0.31878475686E+02  0.57838157921E+03  0.57991606741E+03  0.10000000000E+01 0.  0.
    9000005    1    3    3    0    0 -0.29024391192E+02  0.56870332268E+01  0.29364523932E+02  0.41689721715E+02  0.10000000000E+01 0.  0.
         21    1    1    2  502  501  0.14534488279E+01 -0.37565508913E+02  0.88644719001E+03  0.88724399161E+03  0.00000000000E+00 0.  1.
<mgrwt>
<rscale>  1 0.13053134E+03</rscale>
<asrwt>0</asrwt>
<pdfrwt beam="1">  1        4 0.23100331E+00 0.13053134E+03</pdfrwt>
<pdfrwt beam="2">  1       -4 0.11274221E-02 0.13053134E+03</pdfrwt>
<totfact> 0.38524212E+02</totfact>
</mgrwt>
</event>
<event>
 6    4  0.5642870E-004  0.1371126E+03  0.7818608E-02  0.1217268E+00
         -4   -1    0    0    0  501 -0.00000000000E+00  0.00000000000E+00  0.25774159864E+02  0.25805429985E+02  0.12700000000E+01 0. -1.
          4   -1    0    0  502    0  0.00000000000E+00 -0.00000000000E+00 -0.40150548324E+03  0.40150749180E+03  0.12700000000E+01 0. -1.
         25    2    1    2    0    0 -0.22689496103E+02 -0.51584745872E+02 -0.19783759453E+03  0.24070644279E+03  0.12499631415E+03 0.  0.
    9000005    1    3    3    0    0  0.18851071370E+02  0.34124478932E+02 -0.81499564422E+02  0.90349443580E+02  0.10000000000E+01 0.  0.
    9000005    1    3    3    0    0 -0.41540567473E+02 -0.85709224804E+02 -0.11633803011E+03  0.15035699921E+03  0.10000000000E+01 0.  0.
         21    1    1    2  502  501  0.22689496103E+02  0.51584745872E+02 -0.17789372885E+03  0.18660647900E+03  0.00000000000E+00 0. -1.
<mgrwt>
<rscale>  1 0.13711265E+03</rscale>
<asrwt>0</asrwt>
<pdfrwt beam="2">  1        4 0.61772630E-01 0.13711265E+03</pdfrwt>
<pdfrwt beam="1">  1       -4 0.39678155E-02 0.13711265E+03</pdfrwt>
<totfact> 0.14279282E+03</totfact>
</mgrwt>
</event>
<event>
 6    4  0.5642870E-004  0.1275147E+03  0.7818608E-02  0.1231191E+00
         -4   -1    0    0    0  501 -0.00000000000E+00  0.00000000000E+00  0.53721824091E+02  0.53736833585E+02  0.12700000000E+01 0. -1.
          4   -1    0    0  502    0  0.00000000000E+00 -0.00000000000E+00 -0.10966658177E+03  0.10967393518E+03  0.12700000000E+01 0. -1.
         25    2    1    2    0    0 -0.16199164715E+02 -0.19296402545E+02 -0.40200474890E+02  0.13370140106E+03  0.12500088950E+03 0.  0.
    9000005    1    3    3    0    0  0.44148119965E+02 -0.37677118389E+02 -0.40199693879E+02  0.70609044283E+02  0.10000000000E+01 0.  0.
    9000005    1    3    3    0    0 -0.60347284681E+02  0.18380715844E+02 -0.78101077767E-03  0.63092356779E+02  0.10000000000E+01 0.  0.
         21    1    1    2  502  501  0.16199164715E+02  0.19296402545E+02 -0.15744282792E+02  0.29709367703E+02  0.00000000000E+00 0. -1.
<mgrwt>
<rscale>  1 0.12751465E+03</rscale>
<asrwt>0</asrwt>
<pdfrwt beam="2">  1        4 0.16873502E-01 0.12751465E+03</pdfrwt>
<pdfrwt beam="1">  1       -4 0.82666162E-02 0.12751465E+03</pdfrwt>
<totfact> 0.51440744E+03</totfact>
</mgrwt>
</event>
<event>
 6    4  0.5642870E-004  0.1295790E+03  0.7818608E-02  0.1228082E+00
          4   -1    0    0  502    0  0.00000000000E+00  0.00000000000E+00  0.37812606915E+02  0.37833928446E+02  0.12700000000E+01 0.  1.
         -4   -1    0    0    0  501 -0.00000000000E+00 -0.00000000000E+00 -0.17809351021E+03  0.17809803839E+03  0.12700000000E+01 0.  1.
         25    2    1    2    0    0  0.25209316299E+02  0.23012001685E+02 -0.11728265413E+03  0.17477396258E+03  0.12500262072E+03 0.  0.
    9000005    1    3    3    0    0 -0.12429735684E+02 -0.37188890368E+02 -0.90941173530E+02  0.99039431233E+02  0.10000000000E+01 0.  0.
    9000005    1    3    3    0    0  0.37639051983E+02  0.60200892053E+02 -0.26341480603E+02  0.75734531348E+02  0.10000000000E+01 0.  0.
         21    1    1    2  502  501 -0.25209316299E+02 -0.23012001685E+02 -0.22998249161E+02  0.41158004255E+02  0.00000000000E+00 0.  1.
<mgrwt>
<rscale>  1 0.12957900E+03</rscale>
<asrwt>0</asrwt>
<pdfrwt beam="1">  1        4 0.58193127E-02 0.12957900E+03</pdfrwt>
<pdfrwt beam="2">  1       -4 0.27400990E-01 0.12957900E+03</pdfrwt>
<totfact> 0.38127837E+03</totfact>
</mgrwt>
</event>
<event>
 6    4  0.5642870E-004  0.1289103E+03  0.7818608E-02  0.1229082E+00
         -4   -1    0    0    0  501 -0.00000000000E+00  0.00000000000E+00  0.16285695479E+04  0.16285700430E+04  0.12700000000E+01 0. -1.
          4   -1    0    0  502    0  0.00000000000E+00 -0.00000000000E+00 -0.38643289730E+01  0.40676698995E+01  0.12700000000E+01 0. -1.
         25    2    1    2    0    0  0.21420909519E+02 -0.23110555446E+02  0.13447502614E+04  0.13509149212E+04  0.12499962319E+03 0.  0.
    9000005    1    3    3    0    0  0.69005510232E+02  0.79147402495E+01  0.60190251619E+03  0.60589771625E+03  0.10000000000E+01 0.  0.
    9000005    1    3    3    0    0 -0.47584600713E+02 -0.31025295695E+02  0.74284774520E+03  0.74501720500E+03  0.10000000000E+01 0.  0.
         21    1    1    2  502  501 -0.21420909519E+02  0.23110555446E+02  0.27995495749E+03  0.28172279169E+03  0.00000000000E+00 0. -1.
<mgrwt>
<rscale>  1 0.12891027E+03</rscale>
<asrwt>0</asrwt>
<pdfrwt beam="2">  1        4 0.61019040E-03 0.12891027E+03</pdfrwt>
<pdfrwt beam="1">  1       -4 0.25056544E+00 0.12891027E+03</pdfrwt>
<totfact> 0.74183738E+02</totfact>
</mgrwt>
</event>
<event>
 6    4  0.5642870E-004  0.1268034E+03  0.7818608E-02  0.1232278E+00
          4   -1    0    0  502    0  0.00000000000E+00  0.00000000000E+00  0.12984075257E+04  0.12984081468E+04  0.12700000000E+01 0.  1.
         -4   -1    0    0    0  501 -0.00000000000E+00 -0.00000000000E+00 -0.43326746685E+01  0.45149717367E+01  0.12700000000E+01 0.  1.
         25    2    1    2    0    0 -0.18763698892E+02 -0.10065427265E+02  0.98720699512E+03  0.99531741278E+03  0.12500284701E+03 0.  0.
    9000005    1    3    3    0    0 -0.62579916863E+02 -0.38009460168E+02  0.65295663435E+03  0.65704971760E+03  0.10000000000E+01 0.  0.
    9000005    1    3    3    0    0  0.43816217971E+02  0.27944032903E+02  0.33425036076E+03  0.33826769518E+03  0.10000000000E+01 0.  0.
         21    1    1    2  502  501  0.18763698892E+02  0.10065427265E+02  0.30686785590E+03  0.30760570574E+03  0.00000000000E+00 0.  1.
<mgrwt>
<rscale>  1 0.12680339E+03</rscale>
<asrwt>0</asrwt>
<pdfrwt beam="1">  1        4 0.19976903E+00 0.12680339E+03</pdfrwt>
<pdfrwt beam="2">  1       -4 0.68063612E-03 0.12680339E+03</pdfrwt>
<totfact> 0.12574311E+03</totfact>
</mgrwt>
</event>
<event>
 6    4  0.5642870E-004  0.1274031E+03  0.7818608E-02  0.1231361E+00
          4   -1    0    0  502    0  0.00000000000E+00  0.00000000000E+00  0.32086340621E+02  0.32111464533E+02  0.12700000000E+01 0.  1.
         -4   -1    0    0    0  501 -0.00000000000E+00 -0.00000000000E+00 -0.18352551323E+03  0.18352990739E+03  0.12700000000E+01 0.  1.
         25    2    1    2    0    0 -0.24438558633E+02  0.30599498464E+01 -0.11481045415E+03  0.17150216648E+03  0.12499978514E+03 0.  0.
    9000005    1    3    3    0    0 -0.96520199228E+01 -0.60531362562E+02 -0.65228582985E+02  0.89515224294E+02  0.10000000000E+01 0.  0.
    9000005    1    3    3    0    0 -0.14786538711E+02  0.63591312408E+02 -0.49581871169E+02  0.81986942189E+02  0.10000000000E+01 0.  0.
         21    1    1    2  502  501  0.24438558633E+02 -0.30599498464E+01 -0.36628718457E+02  0.44139205441E+02  0.00000000000E+00 0.  1.
<mgrwt>
<rscale>  1 0.12740311E+03</rscale>
<asrwt>0</asrwt>
<pdfrwt beam="1">  1        4 0.49386309E-02 0.12740311E+03</pdfrwt>
<pdfrwt beam="2">  1       -4 0.28236964E-01 0.12740311E+03</pdfrwt>
<totfact> 0.46765022E+03</totfact>
</mgrwt>
</event>
<event>
 6    4  0.5642870E-004  0.1290165E+03  0.7818608E-02  0.1228922E+00
         -4   -1    0    0    0  501 -0.00000000000E+00  0.00000000000E+00  0.72862602288E+02  0.72873669540E+02  0.12700000000E+01 0. -1.
          4   -1    0    0  502    0  0.00000000000E+00 -0.00000000000E+00 -0.90098046211E+02  0.90106996571E+02  0.12700000000E+01 0. -1.
         25    2    1    2    0    0 -0.28901646489E+02 -0.13617121798E+02 -0.21338975876E+02  0.13076933037E+03  0.12499813878E+03 0.  0.
    9000005    1    3    3    0    0  0.26757913257E+02  0.38231148961E+02  0.11244951849E+02  0.48010994729E+02  0.10000000000E+01 0.  0.
    9000005    1    3    3    0    0 -0.55659559746E+02 -0.51848270760E+02 -0.32583927726E+02  0.82758335640E+02  0.10000000000E+01 0.  0.
         21    1    1    2  502  501  0.28901646489E+02  0.13617121798E+02  0.41035319532E+01  0.32211335742E+02  0.00000000000E+00 0. -1.
<mgrwt>
<rscale>  1 0.12901653E+03</rscale>
<asrwt>0</asrwt>
<pdfrwt beam="2">  1        4 0.13862778E-01 0.12901653E+03</pdfrwt>
<pdfrwt beam="1">  1       -4 0.11211171E-01 0.12901653E+03</pdfrwt>
<totfact> 0.43619270E+03</totfact>
</mgrwt>
</event>
<event>
 6    4  0.5642870E-004  0.1265913E+03  0.7818608E-02  0.1232603E+00
          4   -1    0    0  502    0  0.00000000000E+00  0.00000000000E+00  0.41712897746E+01  0.43603392510E+01  0.12700000000E+01 0.  1.
         -4   -1    0    0    0  501 -0.00000000000E+00 -0.00000000000E+00 -0.13030294561E+04  0.13030300750E+04  0.12700000000E+01 0.  1.
         25    2    1    2    0    0  0.16214826434E+02  0.11800104512E+02 -0.11887030070E+04  0.11954246955E+04  0.12499280205E+03 0.  0.
    9000005    1    3    3    0    0  0.97453544262E+01 -0.89079545870E+01 -0.10180984061E+02  0.16702575378E+02  0.10000000000E+01 0.  0.
    9000005    1    3    3    0    0  0.64694720082E+01  0.20708059099E+02 -0.11785220230E+04  0.11787221201E+04  0.10000000000E+01 0.  0.
         21    1    1    2  502  501 -0.16214826434E+02 -0.11800104512E+02 -0.11015515932E+03  0.11196571881E+03  0.00000000000E+00 0. -1.
<mgrwt>
<rscale>  1 0.12659133E+03</rscale>
<asrwt>0</asrwt>
<pdfrwt beam="1">  1        4 0.65632780E-03 0.12659133E+03</pdfrwt>
<pdfrwt beam="2">  1       -4 0.20048034E+00 0.12659133E+03</pdfrwt>
<totfact> 0.13134821E+03</totfact>
</mgrwt>
</event>
<event>
 6    4  0.5642870E-004  0.1299626E+03  0.7818608E-02  0.1227511E+00
          4   -1    0    0  502    0  0.00000000000E+00  0.00000000000E+00  0.59291309736E+02  0.59304909663E+02  0.12700000000E+01 0.  1.
         -4   -1    0    0    0  501 -0.00000000000E+00 -0.00000000000E+00 -0.11575771047E+03  0.11576467697E+03  0.12700000000E+01 0.  1.
         25    2    1    2    0    0  0.26693044442E+02  0.23515405458E+02 -0.40973169230E+02  0.13626838642E+03  0.12499911850E+03 0.  0.
    9000005    1    3    3    0    0 -0.13340244594E+02  0.61315799132E+02 -0.50284333325E+02  0.80418303432E+02  0.10000000000E+01 0.  0.
    9000005    1    3    3    0    0  0.40033289036E+02 -0.37800393674E+02  0.93111640949E+01  0.55850082988E+02  0.10000000000E+01 0.  0.
         21    1    1    2  502  501 -0.26693044442E+02 -0.23515405458E+02 -0.15493231509E+02  0.38801200214E+02  0.00000000000E+00 0.  1.
<mgrwt>
<rscale>  1 0.12996258E+03</rscale>
<asrwt>0</asrwt>
<pdfrwt beam="1">  1        4 0.91233220E-02 0.12996258E+03</pdfrwt>
<pdfrwt beam="2">  1       -4 0.17810460E-01 0.12996258E+03</pdfrwt>
<totfact> 0.39861411E+03</totfact>
</mgrwt>
</event>
<event>
 6    4  0.5642870E-004  0.1312744E+03  0.7818608E-02  0.1225577E+00
          4   -1    0    0  502    0  0.00000000000E+00  0.00000000000E+00  0.63025250303E+02  0.63038044669E+02  0.12700000000E+01 0. -1.
         -4   -1    0    0    0  501 -0.00000000000E+00 -0.00000000000E+00 -0.12765345181E+03  0.12765976915E+03  0.12700000000E+01 0. -1.
         25    2    1    2    0    0 -0.22746578174E+02  0.33032796582E+02 -0.72294254472E+02  0.14986472875E+03  0.12499762087E+03 0.  0.
    9000005    1    3    3    0    0  0.16256129077E+02  0.71823028680E+02 -0.55894055863E+02  0.92455149463E+02  0.10000000000E+01 0.  0.
    9000005    1    3    3    0    0 -0.39002707251E+02 -0.38790232098E+02 -0.16400198608E+02  0.57409579284E+02  0.10000000000E+01 0.  0.
         21    1    1    2  502  501  0.22746578174E+02 -0.33032796582E+02  0.76660529616E+01  0.40833085074E+02  0.00000000000E+00 0.  1.
<mgrwt>
<rscale>  1 0.13127444E+03</rscale>
<asrwt>0</asrwt>
<pdfrwt beam="1">  1        4 0.96976625E-02 0.13127444E+03</pdfrwt>
<pdfrwt beam="2">  1       -4 0.19640463E-01 0.13127444E+03</pdfrwt>
<totfact> 0.30296883E+03</totfact>
</mgrwt>
</event>
<event>
 6    4  0.5642870E-004  0.1317129E+03  0.7818608E-02  0.1224936E+00
         -4   -1    0    0    0  501 -0.00000000000E+00  0.00000000000E+00  0.14999591525E+03  0.15000129163E+03  0.12700000000E+01 0. -1.
          4   -1    0    0  502    0  0.00000000000E+00 -0.00000000000E+00 -0.53345152360E+02  0.53360267806E+02  0.12700000000E+01 0. -1.
         25    2    1    2    0    0  0.32199220036E+02 -0.26201619030E+02  0.93900400069E+02  0.16175772420E+03  0.12499984638E+03 0.  0.
    9000005    1    3    3    0    0  0.63004575872E+02  0.93619719780E+01  0.85266890936E+01  0.64272292063E+02  0.10000000000E+01 0.  0.
    9000005    1    3    3    0    0 -0.30805355836E+02 -0.35563591008E+02  0.85373710975E+02  0.97485432139E+02  0.10000000000E+01 0.  0.
         21    1    1    2  502  501 -0.32199220036E+02  0.26201619030E+02  0.27503628201E+01  0.41603835236E+02  0.00000000000E+00 0. -1.
<mgrwt>
<rscale>  1 0.13171286E+03</rscale>
<asrwt>0</asrwt>
<pdfrwt beam="2">  1        4 0.82085229E-02 0.13171286E+03</pdfrwt>
<pdfrwt beam="1">  1       -4 0.23077871E-01 0.13171286E+03</pdfrwt>
<totfact> 0.29906470E+03</totfact>
</mgrwt>
</event>
<event>
 6    4  0.5642870E-004  0.1344151E+03  0.7818608E-02  0.1221048E+00
         -4   -1    0    0    0  501 -0.00000000000E+00  0.00000000000E+00  0.15288747700E+03  0.15289275170E+03  0.12700000000E+01 0.  1.
          4   -1    0    0  502    0  0.00000000000E+00 -0.00000000000E+00 -0.26640401700E+03  0.26640704415E+03  0.12700000000E+01 0.  1.
         25    2    1    2    0    0  0.43311443674E+02 -0.23795352392E+02  0.12025801804E+03  0.18035912553E+03  0.12500129323E+03 0.  0.
    9000005    1    3    3    0    0 -0.24454581382E+02 -0.51205437568E+02  0.76165364786E+02  0.94985189268E+02  0.10000000000E+01 0.  0.
    9000005    1    3    3    0    0  0.67766025056E+02  0.27410085176E+02  0.44092653259E+02  0.85373936261E+02  0.10000000000E+01 0.  0.
         21    1    1    2  502  501 -0.43311443674E+02  0.23795352392E+02 -0.23377455804E+03  0.23894067032E+03  0.00000000000E+00 0.  1.
<mgrwt>
<rscale>  1 0.13441512E+03</rscale>
<asrwt>0</asrwt>
<pdfrwt beam="2">  1        4 0.40985872E-01 0.13441512E+03</pdfrwt>
<pdfrwt beam="1">  1       -4 0.23521789E-01 0.13441512E+03</pdfrwt>
<totfact> 0.16225788E+02</totfact>
</mgrwt>
</event>
<event>
 6    4  0.5642870E-004  0.1279628E+03  0.7818608E-02  0.1230510E+00
          4   -1    0    0  502    0  0.00000000000E+00  0.00000000000E+00  0.42961499905E+02  0.42980267264E+02  0.12700000000E+01 0. -1.
         -4   -1    0    0    0  501 -0.00000000000E+00 -0.00000000000E+00 -0.14564603659E+03  0.14565157354E+03  0.12700000000E+01 0. -1.
         25    2    1    2    0    0 -0.24660169845E+02  0.11850489559E+02 -0.97284151886E+02  0.16074416905E+03  0.12500369433E+03 0.  0.
    9000005    1    3    3    0    0 -0.42999511657E+02  0.56297365002E+02 -0.85855488883E+02  0.11131269595E+03  0.10000000000E+01 0.  0.
    9000005    1    3    3    0    0  0.18339341812E+02 -0.44446875443E+02 -0.11428663002E+02  0.49431473099E+02  0.10000000000E+01 0.  0.
         21    1    1    2  502  501  0.24660169845E+02 -0.11850489559E+02 -0.54003847978E+01  0.27887671749E+02  0.00000000000E+00 0. -1.
<mgrwt>
<rscale>  1 0.12796281E+03</rscale>
<asrwt>0</asrwt>
<pdfrwt beam="1">  1        4 0.66113312E-02 0.12796281E+03</pdfrwt>
<pdfrwt beam="2">  1       -4 0.22408952E-01 0.12796281E+03</pdfrwt>
<totfact> 0.44735467E+03</totfact>
</mgrwt>
</event>
<event>
 6    4  0.5642870E-004  0.1309339E+03  0.7818608E-02  0.1226077E+00
          4   -1    0    0  502    0  0.00000000000E+00  0.00000000000E+00  0.80346388641E+02  0.80356425179E+02  0.12700000000E+01 0. -1.
         -4   -1    0    0    0  501 -0.00000000000E+00 -0.00000000000E+00 -0.13987790295E+03  0.13988366822E+03  0.12700000000E+01 0. -1.
         25    2    1    2    0    0 -0.38540534178E+02 -0.57483842987E+01 -0.99476898192E+02  0.16443641619E+03  0.12500105999E+03 0.  0.
    9000005    1    3    3    0    0  0.12594597530E+02 -0.39072093344E+02  0.70445811654E+01  0.41663875108E+02  0.10000000000E+01 0.  0.
    9000005    1    3    3    0    0 -0.51135131708E+02  0.33323709045E+02 -0.10652147936E+03  0.12277254108E+03  0.10000000000E+01 0.  0.
         21    1    1    2  502  501  0.38540534178E+02  0.57483842987E+01  0.39945383880E+02  0.55803677209E+02  0.00000000000E+00 0.  1.
<mgrwt>
<rscale>  1 0.13093388E+03</rscale>
<asrwt>0</asrwt>
<pdfrwt beam="1">  1        4 0.12362198E-01 0.13093388E+03</pdfrwt>
<pdfrwt beam="2">  1       -4 0.21520893E-01 0.13093388E+03</pdfrwt>
<totfact> 0.17009686E+03</totfact>
</mgrwt>
</event>
<event>
 6    4  0.5642870E-004  0.1267808E+03  0.7818608E-02  0.1232312E+00
         -4   -1    0    0    0  501 -0.00000000000E+00  0.00000000000E+00  0.15100013891E+02  0.15153327012E+02  0.12700000000E+01 0. -1.
          4   -1    0    0  502    0  0.00000000000E+00 -0.00000000000E+00 -0.38248735444E+03  0.38248946287E+03  0.12700000000E+01 0. -1.
         25    2    1    2    0    0  0.20047688261E+02  0.68166331979E+01 -0.34102821485E+03  0.36383184786E+03  0.12499997560E+03 0.  0.
    9000005    1    3    3    0    0  0.54487194009E+02 -0.27820532624E+02 -0.27482418020E+03  0.28155313241E+03  0.10000000000E+01 0.  0.
    9000005    1    3    3    0    0 -0.34439505749E+02  0.34637165822E+02 -0.66204034653E+02  0.82278715454E+02  0.10000000000E+01 0.  0.
         21    1    1    2  502  501 -0.20047688261E+02 -0.68166331979E+01 -0.26359125694E+02  0.33810942018E+02  0.00000000000E+00 0. -1.
<mgrwt>
<rscale>  1 0.12678080E+03</rscale>
<asrwt>0</asrwt>
<pdfrwt beam="2">  1        4 0.58848464E-01 0.12678080E+03</pdfrwt>
<pdfrwt beam="1">  1       -4 0.23273426E-02 0.12678080E+03</pdfrwt>
<totfact> 0.35822484E+03</totfact>
</mgrwt>
</event>
<event>
 6    4  0.5642870E-004  0.1290864E+03  0.7818608E-02  0.1228818E+00
          4   -1    0    0  502    0  0.00000000000E+00  0.00000000000E+00  0.77490847668E+01  0.78524655187E+01  0.12700000000E+01 0. -1.
         -4   -1    0    0    0  501 -0.00000000000E+00 -0.00000000000E+00 -0.92986900974E+03  0.92986987701E+03  0.12700000000E+01 0. -1.
         25    2    1    2    0    0  0.26177421796E+02 -0.18782868585E+02 -0.83330555583E+03  0.84324458996E+03  0.12500094223E+03 0.  0.
    9000005    1    3    3    0    0  0.11563845764E+01 -0.47206628213E+02 -0.12039165618E+03  0.12932499314E+03  0.10000000000E+01 0.  0.
    9000005    1    3    3    0    0  0.25021037220E+02  0.28423759627E+02 -0.71291389965E+03  0.71391959682E+03  0.10000000000E+01 0.  0.
         21    1    1    2  502  501 -0.26177421796E+02  0.18782868585E+02 -0.88814369146E+02  0.94477752571E+02  0.00000000000E+00 0. -1.
<mgrwt>
<rscale>  1 0.12908636E+03</rscale>
<asrwt>0</asrwt>
<pdfrwt beam="1">  1        4 0.12001867E-02 0.12908636E+03</pdfrwt>
<pdfrwt beam="2">  1       -4 0.14306470E+00 0.12908636E+03</pdfrwt>
<totfact> 0.13100506E+03</totfact>
</mgrwt>
</event>
<event>
 6    4  0.5642870E-004  0.1314850E+03  0.7818608E-02  0.1225269E+00
         -4   -1    0    0    0  501 -0.00000000000E+00  0.00000000000E+00  0.61373316631E+02  0.61386455300E+02  0.12700000000E+01 0. -1.
          4   -1    0    0  502    0  0.00000000000E+00 -0.00000000000E+00 -0.16441709235E+03  0.16442199718E+03  0.12700000000E+01 0. -1.
         25    2    1    2    0    0  0.40034142727E+02  0.77284510547E+01 -0.19602666150E+02  0.13293821879E+03  0.12500337578E+03 0.  0.
    9000005    1    3    3    0    0  0.54304248800E+02  0.55637066481E+02 -0.27185029628E+02  0.82367836200E+02  0.10000000000E+01 0.  0.
    9000005    1    3    3    0    0 -0.14270106074E+02 -0.47908615426E+02  0.75823634774E+01  0.50570382590E+02  0.10000000000E+01 0.  0.
         21    1    1    2  502  501 -0.40034142727E+02 -0.77284510547E+01 -0.83441109564E+02  0.92870233685E+02  0.00000000000E+00 0. -1.
<mgrwt>
<rscale>  1 0.13148500E+03</rscale>
<asrwt>0</asrwt>
<pdfrwt beam="2">  1        4 0.25296325E-01 0.13148500E+03</pdfrwt>
<pdfrwt beam="1">  1       -4 0.94434368E-02 0.13148500E+03</pdfrwt>
<totfact> 0.19992450E+03</totfact>
</mgrwt>
</event>
<event>
 6    4  0.5642870E-004  0.1320416E+03  0.7818608E-02  0.1224457E+00
         -4   -1    0    0    0  501 -0.00000000000E+00  0.00000000000E+00  0.11928290090E+03  0.11928966152E+03  0.12700000000E+01 0. -1.
          4   -1    0    0  502    0  0.00000000000E+00 -0.00000000000E+00 -0.68548577939E+02  0.68560341580E+02  0.12700000000E+01 0. -1.
         25    2    1    2    0    0 -0.41807476074E+02  0.79099561288E+01  0.58801593656E+02  0.14454280603E+03  0.12499825158E+03 0.  0.
    9000005    1    3    3    0    0 -0.22993304662E+00  0.62595290729E+02  0.35653773079E+02  0.72044533626E+02  0.10000000000E+01 0.  0.
    9000005    1    3    3    0    0 -0.41577543028E+02 -0.54685334600E+02  0.23147820577E+02  0.72498272407E+02  0.10000000000E+01 0.  0.
         21    1    1    2  502  501  0.41807476074E+02 -0.79099561288E+01 -0.80672706971E+01  0.43307197071E+02  0.00000000000E+00 0. -1.
<mgrwt>
<rscale>  1 0.13204164E+03</rscale>
<asrwt>0</asrwt>
<pdfrwt beam="2">  1        4 0.10547360E-01 0.13204164E+03</pdfrwt>
<pdfrwt beam="1">  1       -4 0.18352640E-01 0.13204164E+03</pdfrwt>
<totfact> 0.29728832E+03</totfact>
</mgrwt>
</event>
<event>
 6    4  0.5642870E-004  0.1268905E+03  0.7818608E-02  0.1232144E+00
          4   -1    0    0  502    0  0.00000000000E+00  0.00000000000E+00  0.24687924346E+02  0.24720568531E+02  0.12700000000E+01 0. -1.
         -4   -1    0    0    0  501 -0.00000000000E+00 -0.00000000000E+00 -0.29334705390E+03  0.29334980302E+03  0.12700000000E+01 0. -1.
         25    2    1    2    0    0  0.21579557825E+02 -0.32714643957E+01 -0.26766794074E+03  0.29622175031E+03  0.12499927623E+03 0.  0.
    9000005    1    3    3    0    0 -0.74944838237E+01  0.71617651631E+01  0.11403985316E+02  0.15443738185E+02  0.10000000000E+01 0.  0.
    9000005    1    3    3    0    0  0.29074041649E+02 -0.10433229559E+02 -0.27907192606E+03  0.28077801212E+03  0.10000000000E+01 0.  0.
         21    1    1    2  502  501 -0.21579557825E+02  0.32714643957E+01 -0.99118881523E+00  0.21848621249E+02  0.00000000000E+00 0. -1.
<mgrwt>
<rscale>  1 0.12689050E+03</rscale>
<asrwt>0</asrwt>
<pdfrwt beam="1">  1        4 0.38008650E-02 0.12689050E+03</pdfrwt>
<pdfrwt beam="2">  1       -4 0.45133036E-01 0.12689050E+03</pdfrwt>
<totfact> 0.28622216E+03</totfact>
</mgrwt>
</event>
<event>
 6    4  0.5642870E-004  0.1311410E+03  0.7818608E-02  0.1225772E+00
          4   -1    0    0  502    0  0.00000000000E+00  0.00000000000E+00  0.68459265842E+03  0.68459383642E+03  0.12700000000E+01 0. -1.
         -4   -1    0    0    0  501 -0.00000000000E+00 -0.00000000000E+00 -0.11353605348E+02  0.11424414839E+02  0.12700000000E+01 0. -1.
         25    2    1    2    0    0 -0.38455630239E+02 -0.97157789553E+01  0.42956062370E+03  0.44913283492E+03  0.12499896845E+03 0.  0.
    9000005    1    3    3    0    0  0.41528385606E+02 -0.62563907908E+01  0.23528244144E+03  0.23900329806E+03  0.10000000000E+01 0.  0.
    9000005    1    3    3    0    0 -0.79984015845E+02 -0.34593881645E+01  0.19427818226E+03  0.21012953685E+03  0.10000000000E+01 0.  0.
         21    1    1    2  502  501  0.38455630239E+02  0.97157789553E+01  0.24367842938E+03  0.24688541634E+03  0.00000000000E+00 0. -1.
<mgrwt>
<rscale>  1 0.13114105E+03</rscale>
<asrwt>0</asrwt>
<pdfrwt beam="1">  1        4 0.10532751E+00 0.13114105E+03</pdfrwt>
<pdfrwt beam="2">  1       -4 0.17522457E-02 0.13114105E+03</pdfrwt>
<totfact> 0.15483831E+03</totfact>
</mgrwt>
</event>
<event>
 6    4  0.5642870E-004  0.1306201E+03  0.7818608E-02  0.1226538E+00
         -4   -1    0    0    0  501 -0.00000000000E+00  0.00000000000E+00  0.58449019791E+02  0.58462815657E+02  0.12700000000E+01 0.  1.
          4   -1    0    0  502    0  0.00000000000E+00 -0.00000000000E+00 -0.13527942027E+03  0.13528538151E+03  0.12700000000E+01 0.  1.
         25    2    1    2    0    0 -0.25969802051E+02 -0.27587318721E+02 -0.30932860468E+02  0.13423286341E+03  0.12500451588E+03 0.  0.
    9000005    1    3    3    0    0 -0.34686274873E+02 -0.48988193370E+02 -0.67895549760E+02  0.90629942246E+02  0.10000000000E+01 0.  0.
    9000005    1    3    3    0    0  0.87164728226E+01  0.21400874648E+02  0.36962689292E+02  0.43602921162E+02  0.10000000000E+01 0.  0.
         21    1    1    2  502  501  0.25969802051E+02  0.27587318721E+02 -0.45897540013E+02  0.59515333756E+02  0.00000000000E+00 0. -1.
<mgrwt>
<rscale>  1 0.13062014E+03</rscale>
<asrwt>0</asrwt>
<pdfrwt beam="2">  1        4 0.20813738E-01 0.13062014E+03</pdfrwt>
<pdfrwt beam="1">  1       -4 0.89936767E-02 0.13062014E+03</pdfrwt>
<totfact> 0.30926923E+03</totfact>
</mgrwt>
</event>
<event>
 6    4  0.5642870E-004  0.1423877E+03  0.7818608E-02  0.1210152E+00
          4   -1    0    0  502    0  0.00000000000E+00  0.00000000000E+00  0.12526738925E+03  0.12527382691E+03  0.12700000000E+01 0.  1.
         -4   -1    0    0    0  501 -0.00000000000E+00 -0.00000000000E+00 -0.88481105456E+02  0.88490219362E+02  0.12700000000E+01 0.  1.
         25    2    1    2    0    0 -0.67721819109E+02  0.79537409027E+01  0.24835196944E+02  0.14453735161E+03  0.12499900890E+03 0.  0.
    9000005    1    3    3    0    0 -0.78848040639E+02 -0.29731909004E+02  0.49881340816E+02  0.97929301474E+02  0.10000000000E+01 0.  0.
    9000005    1    3    3    0    0  0.11126221530E+02  0.37685649907E+02 -0.25046143872E+02  0.46608050134E+02  0.10000000000E+01 0.  0.
         21    1    1    2  502  501  0.67721819109E+02 -0.79537409027E+01  0.11951086852E+02  0.69226694668E+02  0.00000000000E+00 0.  1.
<mgrwt>
<rscale>  1 0.14238771E+03</rscale>
<asrwt>0</asrwt>
<pdfrwt beam="1">  1        4 0.19273102E-01 0.14238771E+03</pdfrwt>
<pdfrwt beam="2">  1       -4 0.13613674E-01 0.14238771E+03</pdfrwt>
<totfact> 0.17901514E+03</totfact>
</mgrwt>
</event>
<event>
 6    4  0.5642870E-004  0.1354984E+03  0.7818608E-02  0.1219518E+00
          4   -1    0    0  502    0  0.00000000000E+00  0.00000000000E+00  0.27260108651E+02  0.27289676137E+02  0.12700000000E+01 0. -1.
         -4   -1    0    0    0  501 -0.00000000000E+00 -0.00000000000E+00 -0.32384067183E+03  0.32384316209E+03  0.12700000000E+01 0. -1.
         25    2    1    2    0    0 -0.49844812071E+02  0.15708750691E+02 -0.22139148201E+03  0.25956500508E+03  0.12501413288E+03 0.  0.
    9000005    1    3    3    0    0 -0.13994366838E+02  0.29926799863E+01  0.14633467603E+02  0.20492359815E+02  0.10000000000E+01 0.  0.
    9000005    1    3    3    0    0 -0.35850445233E+02  0.12716070705E+02 -0.23602494961E+03  0.23907264527E+03  0.10000000000E+01 0.  0.
         21    1    1    2  502  501  0.49844812071E+02 -0.15708750691E+02 -0.75189081176E+02  0.91567833145E+02  0.00000000000E+00 0. -1.
<mgrwt>
<rscale>  1 0.13549835E+03</rscale>
<asrwt>0</asrwt>
<pdfrwt beam="1">  1        4 0.41963291E-02 0.13549835E+03</pdfrwt>
<pdfrwt beam="2">  1       -4 0.49824105E-01 0.13549835E+03</pdfrwt>
<totfact> 0.20343365E+03</totfact>
</mgrwt>
</event>
<event>
 6    4  0.5642870E-004  0.1306388E+03  0.7818608E-02  0.1226511E+00
          4   -1    0    0  502    0  0.00000000000E+00  0.00000000000E+00  0.89508774746E+02  0.89517784024E+02  0.12700000000E+01 0. -1.
         -4   -1    0    0    0  501 -0.00000000000E+00 -0.00000000000E+00 -0.16055510202E+03  0.16056012483E+03  0.12700000000E+01 0. -1.
         25    2    1    2    0    0 -0.36502445713E+02  0.10372599232E+02 -0.12717939762E+03  0.18232142618E+03  0.12500593548E+03 0.  0.
    9000005    1    3    3    0    0 -0.83784731922E+01 -0.48518264043E+02 -0.13213216704E+02  0.50988330572E+02  0.10000000000E+01 0.  0.
    9000005    1    3    3    0    0 -0.28123972521E+02  0.58890863275E+02 -0.11396618092E+03  0.13133309560E+03  0.10000000000E+01 0.  0.
         21    1    1    2  502  501  0.36502445713E+02 -0.10372599232E+02  0.56133070349E+02  0.67756482676E+02  0.00000000000E+00 0. -1.
<mgrwt>
<rscale>  1 0.13063883E+03</rscale>
<asrwt>0</asrwt>
<pdfrwt beam="1">  1        4 0.13771660E-01 0.13063883E+03</pdfrwt>
<pdfrwt beam="2">  1       -4 0.24701864E-01 0.13063883E+03</pdfrwt>
<totfact> 0.10973512E+03</totfact>
</mgrwt>
</event>
<event>
 6    4  0.5642870E-004  0.1624125E+03  0.7818608E-02  0.1186000E+00
          4   -1    0    0  502    0  0.00000000000E+00  0.00000000000E+00  0.43568121190E+02  0.43586627353E+02  0.12700000000E+01 0. -1.
         -4   -1    0    0    0  501 -0.00000000000E+00 -0.00000000000E+00 -0.40919286074E+03  0.40919483156E+03  0.12700000000E+01 0. -1.
         25    2    1    2    0    0  0.12351206727E+02 -0.10295795754E+03 -0.20407727346E+03  0.26081667796E+03  0.12499965052E+03 0.  0.
    9000005    1    3    3    0    0  0.39621100848E+02 -0.12079785681E+03 -0.14127850209E+03  0.19005938281E+03  0.10000000000E+01 0.  0.
    9000005    1    3    3    0    0 -0.27269894121E+02  0.17839899264E+02 -0.62798771374E+02  0.70757295152E+02  0.10000000000E+01 0.  0.
         21    1    1    2  502  501 -0.12351206727E+02  0.10295795754E+03 -0.16154746609E+03  0.19196478096E+03  0.00000000000E+00 0. -1.
<mgrwt>
<rscale>  1 0.16241246E+03</rscale>
<asrwt>0</asrwt>
<pdfrwt beam="1">  1        4 0.67043633E-02 0.16241246E+03</pdfrwt>
<pdfrwt beam="2">  1       -4 0.62954320E-01 0.16241246E+03</pdfrwt>
<totfact> 0.60853163E+02</totfact>
</mgrwt>
</event>
<event>
 6    4  0.5642870E-004  0.1280653E+03  0.7818608E-02  0.1230355E+00
          4   -1    0    0  502    0  0.00000000000E+00  0.00000000000E+00  0.14113503486E+03  0.14114074878E+03  0.12700000000E+01 0.  1.
         -4   -1    0    0    0  501 -0.00000000000E+00 -0.00000000000E+00 -0.49561383899E+02  0.49577652970E+02  0.12700000000E+01 0.  1.
         25    2    1    2    0    0  0.22423602419E+02  0.16526095831E+02  0.43673136676E+02  0.13530731028E+03  0.12499918223E+03 0.  0.
    9000005    1    3    3    0    0 -0.17751509196E+02 -0.39260697071E+02 -0.14262625253E+02  0.45397586856E+02  0.10000000000E+01 0.  0.
    9000005    1    3    3    0    0  0.40175111615E+02  0.55786792902E+02  0.57935761928E+02  0.89909723422E+02  0.10000000000E+01 0.  0.
         21    1    1    2  502  501 -0.22423602419E+02 -0.16526095831E+02  0.47900514285E+02  0.55411091468E+02  0.00000000000E+00 0. -1.
<mgrwt>
<rscale>  1 0.12806532E+03</rscale>
<asrwt>0</asrwt>
<pdfrwt beam="1">  1        4 0.21714773E-01 0.12806532E+03</pdfrwt>
<pdfrwt beam="2">  1       -4 0.76265194E-02 0.12806532E+03</pdfrwt>
<totfact> 0.37476037E+03</totfact>
</mgrwt>
</event>
<event>
 6    4  0.5642870E-004  0.1423861E+03  0.7818608E-02  0.1210154E+00
         -4   -1    0    0    0  501 -0.00000000000E+00  0.00000000000E+00  0.11491369084E+03  0.11492070850E+03  0.12700000000E+01 0. -1.
          4   -1    0    0  502    0  0.00000000000E+00 -0.00000000000E+00 -0.11678279200E+03  0.11678969735E+03  0.12700000000E+01 0. -1.
         25    2    1    2    0    0 -0.68063412614E+02 -0.39656042396E+01  0.44592612441E+02  0.14920558791E+03  0.12500180889E+03 0.  0.
    9000005    1    3    3    0    0 -0.95182299740E+01  0.51362090769E+02 -0.82056226772E+01  0.52886608074E+02  0.10000000000E+01 0.  0.
    9000005    1    3    3    0    0 -0.58545182640E+02 -0.55327695009E+02  0.52798235118E+02  0.96318979837E+02  0.10000000000E+01 0.  0.
         21    1    1    2  502  501  0.68063412614E+02  0.39656042396E+01 -0.46461713603E+02  0.82504817948E+02  0.00000000000E+00 0. -1.
<mgrwt>
<rscale>  1 0.14238612E+03</rscale>
<asrwt>0</asrwt>
<pdfrwt beam="2">  1        4 0.17967654E-01 0.14238612E+03</pdfrwt>
<pdfrwt beam="1">  1       -4 0.17680100E-01 0.14238612E+03</pdfrwt>
<totfact> 0.12830261E+03</totfact>
</mgrwt>
</event>
<event>
 6    4  0.5642870E-004  0.1303016E+03  0.7818608E-02  0.1227009E+00
          4   -1    0    0  502    0  0.00000000000E+00  0.00000000000E+00  0.52456582611E+01  0.53972058134E+01  0.12700000000E+01 0.  1.
         -4   -1    0    0    0  501 -0.00000000000E+00 -0.00000000000E+00 -0.13119107778E+04  0.13119113926E+04  0.12700000000E+01 0.  1.
         25    2    1    2    0    0  0.36680489796E+02 -0.30152750370E+01 -0.10124049976E+04  0.10207557875E+04  0.12499579369E+03 0.  0.
    9000005    1    3    3    0    0  0.41206810919E+02  0.23457735670E+02 -0.96574727144E+03  0.96691109153E+03  0.10000000000E+01 0.  0.
    9000005    1    3    3    0    0 -0.45263211235E+01 -0.26473010707E+02 -0.46657726116E+02  0.53844695979E+02  0.10000000000E+01 0.  0.
         21    1    1    2  502  501 -0.36680489796E+02  0.30152750370E+01 -0.29426012203E+03  0.29655281087E+03  0.00000000000E+00 0. -1.
<mgrwt>
<rscale>  1 0.13030157E+03</rscale>
<asrwt>0</asrwt>
<pdfrwt beam="1">  1        4 0.81873018E-03 0.13030157E+03</pdfrwt>
<pdfrwt beam="2">  1       -4 0.20184387E+00 0.13030157E+03</pdfrwt>
<totfact> 0.93171820E+02</totfact>
</mgrwt>
</event>
<event>
 6    4  0.5642870E-004  0.1304945E+03  0.7818608E-02  0.1226724E+00
          4   -1    0    0  502    0  0.00000000000E+00  0.00000000000E+00  0.73089575801E+02  0.73100608690E+02  0.12700000000E+01 0.  1.
         -4   -1    0    0    0  501 -0.00000000000E+00 -0.00000000000E+00 -0.15724712551E+03  0.15725225398E+03  0.12700000000E+01 0.  1.
         25    2    1    2    0    0 -0.37397695379E+02  0.22937639558E+01 -0.12088805001E+03  0.17788402787E+03  0.12499983105E+03 0.  0.
    9000005    1    3    3    0    0 -0.52552034843E+02 -0.52106812435E+02 -0.68957845268E+02  0.10115839408E+03  0.10000000000E+01 0.  0.
    9000005    1    3    3    0    0  0.15154339463E+02  0.54400576391E+02 -0.51930204743E+02  0.76725633792E+02  0.10000000000E+01 0.  0.
         21    1    1    2  502  501  0.37397695379E+02 -0.22937639558E+01  0.36730500302E+02  0.52468834799E+02  0.00000000000E+00 0.  1.
<mgrwt>
<rscale>  1 0.13049447E+03</rscale>
<asrwt>0</asrwt>
<pdfrwt beam="1">  1        4 0.11245793E-01 0.13049447E+03</pdfrwt>
<pdfrwt beam="2">  1       -4 0.24193109E-01 0.13049447E+03</pdfrwt>
<totfact> 0.16134492E+03</totfact>
</mgrwt>
</event>
<event>
 6    4  0.5642870E-004  0.1298596E+03  0.7818608E-02  0.1227664E+00
         -4   -1    0    0    0  501 -0.00000000000E+00  0.00000000000E+00  0.14897798484E+02  0.14951832652E+02  0.12700000000E+01 0. -1.
          4   -1    0    0  502    0  0.00000000000E+00 -0.00000000000E+00 -0.73247656972E+03  0.73247767071E+03  0.12700000000E+01 0. -1.
         25    2    1    2    0    0 -0.30229622123E+02 -0.18023969538E+02 -0.28236509038E+03  0.31079505495E+03  0.12499931355E+03 0.  0.
    9000005    1    3    3    0    0  0.31612661779E+02  0.12911767209E+02 -0.20255752836E+02  0.39716113105E+02  0.10000000000E+01 0.  0.
    9000005    1    3    3    0    0 -0.61842283903E+02 -0.30935736747E+02 -0.26210933754E+03  0.27107894185E+03  0.10000000000E+01 0.  0.
         21    1    1    2  502  501  0.30229622123E+02  0.18023969538E+02 -0.43521368086E+03  0.43663444841E+03  0.00000000000E+00 0. -1.
<mgrwt>
<rscale>  1 0.12985962E+03</rscale>
<asrwt>0</asrwt>
<pdfrwt beam="2">  1        4 0.11269292E+00 0.12985962E+03</pdfrwt>
<pdfrwt beam="1">  1       -4 0.22962107E-02 0.12985962E+03</pdfrwt>
<totfact> 0.86936188E+02</totfact>
</mgrwt>
</event>
<event>
 6    4  0.5642870E-004  0.1290219E+03  0.7818608E-02  0.1228914E+00
          4   -1    0    0  502    0  0.00000000000E+00  0.00000000000E+00  0.22268743577E+02  0.22304928614E+02  0.12700000000E+01 0. -1.
         -4   -1    0    0    0  501 -0.00000000000E+00 -0.00000000000E+00 -0.32829451678E+03  0.32829697326E+03  0.12700000000E+01 0. -1.
         25    2    1    2    0    0 -0.29548151435E+02 -0.12136607481E+02 -0.28360826876E+03  0.31157710207E+03  0.12500499961E+03 0.  0.
    9000005    1    3    3    0    0 -0.19453684861E+02  0.11625305590E+02  0.38078814755E+01  0.23002033520E+02  0.10000000000E+01 0.  0.
    9000005    1    3    3    0    0 -0.10094466575E+02 -0.23761913070E+02 -0.28741615024E+03  0.28857506855E+03  0.10000000000E+01 0.  0.
         21    1    1    2  502  501  0.29548151435E+02  0.12136607481E+02 -0.22417504442E+02  0.39024799805E+02  0.00000000000E+00 0. -1.
<mgrwt>
<rscale>  1 0.12902186E+03</rscale>
<asrwt>0</asrwt>
<pdfrwt beam="1">  1        4 0.34289332E-02 0.12902186E+03</pdfrwt>
<pdfrwt beam="2">  1       -4 0.50509818E-01 0.12902186E+03</pdfrwt>
<totfact> 0.26933785E+03</totfact>
</mgrwt>
</event>
<event>
 6    4  0.5642870E-004  0.1295400E+03  0.7818608E-02  0.1228140E+00
          4   -1    0    0  502    0  0.00000000000E+00  0.00000000000E+00  0.22794233358E+02  0.22829585507E+02  0.12700000000E+01 0. -1.
         -4   -1    0    0    0  501 -0.00000000000E+00 -0.00000000000E+00 -0.29929770591E+03  0.29930040037E+03  0.12700000000E+01 0. -1.
         25    2    1    2    0    0 -0.25567230419E+02 -0.22293869437E+02 -0.23673383284E+03  0.26985834798E+03  0.12501968036E+03 0.  0.
    9000005    1    3    3    0    0  0.32541668576E+01  0.36327070133E+01  0.14664521810E+02  0.15486586522E+02  0.10000000000E+01 0.  0.
    9000005    1    3    3    0    0 -0.28821397277E+02 -0.25926576450E+02 -0.25139835465E+03  0.25437176146E+03  0.10000000000E+01 0.  0.
         21    1    1    2  502  501  0.25567230419E+02  0.22293869437E+02 -0.39769639717E+02  0.52271637902E+02  0.00000000000E+00 0.  1.
<mgrwt>
<rscale>  1 0.12954003E+03</rscale>
<asrwt>0</asrwt>
<pdfrwt beam="1">  1        4 0.35097320E-02 0.12954003E+03</pdfrwt>
<pdfrwt beam="2">  1       -4 0.46048725E-01 0.12954003E+03</pdfrwt>
<totfact> 0.31334894E+03</totfact>
</mgrwt>
</event>
<event>
 6    4  0.5642870E-004  0.1269155E+03  0.7818608E-02  0.1232106E+00
         -4   -1    0    0    0  501 -0.00000000000E+00  0.00000000000E+00  0.11233070056E+04  0.11233077236E+04  0.12700000000E+01 0. -1.
          4   -1    0    0  502    0  0.00000000000E+00 -0.00000000000E+00 -0.50506179269E+01  0.52078442222E+01  0.12700000000E+01 0. -1.
         25    2    1    2    0    0 -0.20980242716E+02  0.65128059659E+01  0.10179852864E+04  0.10258662571E+04  0.12499978761E+03 0.  0.
    9000005    1    3    3    0    0  0.11015359912E+02  0.47563794989E+02  0.80980776059E+03  0.81127878184E+03  0.10000000000E+01 0.  0.
    9000005    1    3    3    0    0 -0.31995602628E+02 -0.41050989023E+02  0.20817752583E+03  0.21458747528E+03  0.10000000000E+01 0.  0.
         21    1    1    2  502  501  0.20980242716E+02 -0.65128059659E+01  0.10027110129E+03  0.10264931067E+03  0.00000000000E+00 0. -1.
<mgrwt>
<rscale>  1 0.12691546E+03</rscale>
<asrwt>0</asrwt>
<pdfrwt beam="2">  1        4 0.78916761E-03 0.12691546E+03</pdfrwt>
<pdfrwt beam="1">  1       -4 0.17282863E+00 0.12691546E+03</pdfrwt>
<totfact> 0.15038057E+03</totfact>
</mgrwt>
</event>
<event>
 6    4  0.5642870E-004  0.1298572E+03  0.7818608E-02  0.1227668E+00
          4   -1    0    0  502    0  0.00000000000E+00  0.00000000000E+00  0.21039154845E+03  0.21039538151E+03  0.12700000000E+01 0.  1.
         -4   -1    0    0    0  501 -0.00000000000E+00 -0.00000000000E+00 -0.20120299975E+03  0.20120700785E+03  0.12700000000E+01 0.  1.
         25    2    1    2    0    0  0.27347084875E+02 -0.22108915444E+02 -0.17844979453E+03  0.22069713787E+03  0.12500492111E+03 0.  0.
    9000005    1    3    3    0    0 -0.31681325638E+02 -0.42327564879E+02 -0.13407127993E+03  0.14412299347E+03  0.10000000000E+01 0.  0.
    9000005    1    3    3    0    0  0.59028410514E+02  0.20218649435E+02 -0.44378514603E+02  0.76574144403E+02  0.10000000000E+01 0.  0.
         21    1    1    2  502  501 -0.27347084875E+02  0.22108915444E+02  0.18763834324E+03  0.19090525149E+03  0.00000000000E+00 0.  1.
<mgrwt>
<rscale>  1 0.12985722E+03</rscale>
<asrwt>0</asrwt>
<pdfrwt beam="1">  1        4 0.32368534E-01 0.12985722E+03</pdfrwt>
<pdfrwt beam="2">  1       -4 0.30954911E-01 0.12985722E+03</pdfrwt>
<totfact> 0.15285757E+02</totfact>
</mgrwt>
</event>
<event>
 6    4  0.5642870E-004  0.1267951E+03  0.7818608E-02  0.1232290E+00
         -4   -1    0    0    0  501 -0.00000000000E+00  0.00000000000E+00  0.52752630105E+01  0.54259837661E+01  0.12700000000E+01 0.  1.
          4   -1    0    0  502    0  0.00000000000E+00 -0.00000000000E+00 -0.14233176785E+04  0.14233182451E+04  0.12700000000E+01 0.  1.
         25    2    1    2    0    0 -0.21139182680E+02 -0.17310397646E+01 -0.77117564280E+03  0.78152982609E+03  0.12500854165E+03 0.  0.
    9000005    1    3    3    0    0 -0.60596415836E+02 -0.39017474507E+02 -0.40802264818E+03  0.41434016262E+03  0.10000000000E+01 0.  0.
    9000005    1    3    3    0    0  0.39457233156E+02  0.37286434742E+02 -0.36315299462E+03  0.36718966348E+03  0.10000000000E+01 0.  0.
         21    1    1    2  502  501  0.21139182680E+02  0.17310397646E+01 -0.64686677271E+03  0.64721440279E+03  0.00000000000E+00 0. -1.
<mgrwt>
<rscale>  1 0.12679510E+03</rscale>
<asrwt>0</asrwt>
<pdfrwt beam="2">  1        4 0.21898329E+00 0.12679510E+03</pdfrwt>
<pdfrwt beam="1">  1       -4 0.82321755E-03 0.12679510E+03</pdfrwt>
<totfact> 0.72390852E+02</totfact>
</mgrwt>
</event>
<event>
 6    4  0.5642870E-004  0.1548029E+03  0.7818608E-02  0.1194692E+00
          4   -1    0    0  502    0  0.00000000000E+00  0.00000000000E+00  0.13382558685E+03  0.13383161284E+03  0.12700000000E+01 0.  1.
         -4   -1    0    0    0  501 -0.00000000000E+00 -0.00000000000E+00 -0.11405108760E+03  0.11405815833E+03  0.12700000000E+01 0.  1.
         25    2    1    2    0    0  0.23035740983E+02  0.88368190353E+02  0.17838128107E+01  0.15481320469E+03  0.12499745570E+03 0.  0.
    9000005    1    3    3    0    0 -0.90330062224E+01  0.44430924929E+02 -0.58232023001E+02  0.73808338244E+02  0.10000000000E+01 0.  0.
    9000005    1    3    3    0    0  0.32068747206E+02  0.43937265424E+02  0.60015835812E+02  0.81004866449E+02  0.10000000000E+01 0.  0.
         21    1    1    2  502  501 -0.23035740983E+02 -0.88368190353E+02  0.17990686447E+02  0.93076566480E+02  0.00000000000E+00 0.  1.
<mgrwt>
<rscale>  1 0.15480293E+03</rscale>
<asrwt>0</asrwt>
<pdfrwt beam="1">  1        4 0.20589559E-01 0.15480293E+03</pdfrwt>
<pdfrwt beam="2">  1       -4 0.17547329E-01 0.15480293E+03</pdfrwt>
<totfact> 0.10360352E+03</totfact>
</mgrwt>
</event>
<event>
 6    4  0.5642870E-004  0.1285359E+03  0.7818608E-02  0.1229644E+00
         -4   -1    0    0    0  501 -0.00000000000E+00  0.00000000000E+00  0.98595603386E+02  0.98603782418E+02  0.12700000000E+01 0.  1.
          4   -1    0    0  502    0  0.00000000000E+00 -0.00000000000E+00 -0.64077074408E+02  0.64089658797E+02  0.12700000000E+01 0.  1.
         25    2    1    2    0    0 -0.13382128325E+02 -0.26673487428E+02  0.33519108575E+02  0.13283452075E+03  0.12502368965E+03 0.  0.
    9000005    1    3    3    0    0  0.55287549835E+02 -0.15963619262E+02  0.25205568332E+02  0.62832085607E+02  0.10000000000E+01 0.  0.
    9000005    1    3    3    0    0 -0.68669678161E+02 -0.10709868167E+02  0.83135402425E+01  0.70002435145E+02  0.10000000000E+01 0.  0.
         21    1    1    2  502  501  0.13382128325E+02  0.26673487428E+02  0.99942040324E+00  0.29858920463E+02  0.00000000000E+00 0.  1.
<mgrwt>
<rscale>  1 0.12853591E+03</rscale>
<asrwt>0</asrwt>
<pdfrwt beam="2">  1        4 0.98596086E-02 0.12853591E+03</pdfrwt>
<pdfrwt beam="1">  1       -4 0.15170152E-01 0.12853591E+03</pdfrwt>
<totfact> 0.46292163E+03</totfact>
</mgrwt>
</event>
<event>
 6    4  0.5642870E-004  0.1298294E+03  0.7818608E-02  0.1227709E+00
          4   -1    0    0  502    0  0.00000000000E+00  0.00000000000E+00  0.29561965085E+02  0.29589232496E+02  0.12700000000E+01 0. -1.
         -4   -1    0    0    0  501 -0.00000000000E+00 -0.00000000000E+00 -0.33204399340E+03  0.33204642214E+03  0.12700000000E+01 0. -1.
         25    2    1    2    0    0 -0.12754025002E+02 -0.32681376307E+02 -0.29949784866E+03  0.32642709262E+03  0.12499979172E+03 0.  0.
    9000005    1    3    3    0    0 -0.14314827011E+02  0.43538060168E+02 -0.62789227677E+02  0.77742935806E+02  0.10000000000E+01 0.  0.
    9000005    1    3    3    0    0  0.15608020096E+01 -0.76219436474E+02 -0.23670862099E+03  0.24868415681E+03  0.10000000000E+01 0.  0.
         21    1    1    2  502  501  0.12754025002E+02  0.32681376307E+02 -0.29841796534E+01  0.35208562016E+02  0.00000000000E+00 0. -1.
<mgrwt>
<rscale>  1 0.12982945E+03</rscale>
<asrwt>0</asrwt>
<pdfrwt beam="1">  1        4 0.45502792E-02 0.12982945E+03</pdfrwt>
<pdfrwt beam="2">  1       -4 0.51085973E-01 0.12982945E+03</pdfrwt>
<totfact> 0.16827249E+03</totfact>
</mgrwt>
</event>
<event>
 6    4  0.5642870E-004  0.1281384E+03  0.7818608E-02  0.1230244E+00
          4   -1    0    0  502    0  0.00000000000E+00  0.00000000000E+00  0.13843789801E+03  0.13844372325E+03  0.12700000000E+01 0.  1.
         -4   -1    0    0    0  501 -0.00000000000E+00 -0.00000000000E+00 -0.46066023584E+02  0.46083526653E+02  0.12700000000E+01 0.  1.
         25    2    1    2    0    0  0.25134950827E+02  0.12758962278E+02  0.59660993819E+02  0.14134671514E+03  0.12499961131E+03 0.  0.
    9000005    1    3    3    0    0 -0.45993787378E+02  0.18438047423E+02  0.48079536212E+02  0.69050936797E+02  0.10000000000E+01 0.  0.
    9000005    1    3    3    0    0  0.71128738204E+02 -0.56790851455E+01  0.11581457607E+02  0.72295778348E+02  0.10000000000E+01 0.  0.
         21    1    1    2  502  501 -0.25134950827E+02 -0.12758962278E+02  0.32710880611E+02  0.43180534756E+02  0.00000000000E+00 0.  1.
<mgrwt>
<rscale>  1 0.12813844E+03</rscale>
<asrwt>0</asrwt>
<pdfrwt beam="1">  1        4 0.21299933E-01 0.12813844E+03</pdfrwt>
<pdfrwt beam="2">  1       -4 0.70888751E-02 0.12813844E+03</pdfrwt>
<totfact> 0.43774079E+03</totfact>
</mgrwt>
</event>
<event>
 6    4  0.5642870E-004  0.1298023E+03  0.7818608E-02  0.1227749E+00
          4   -1    0    0  502    0  0.00000000000E+00  0.00000000000E+00  0.69762744088E+03  0.69762859686E+03  0.12700000000E+01 0. -1.
         -4   -1    0    0    0  501 -0.00000000000E+00 -0.00000000000E+00 -0.12352668769E+02  0.12417782641E+02  0.12700000000E+01 0. -1.
         25    2    1    2    0    0  0.34157611998E+02 -0.75301569160E+01  0.35612019154E+03  0.37903854934E+03  0.12500074138E+03 0.  0.
    9000005    1    3    3    0    0  0.58199362884E+02 -0.48327066610E+02  0.15583170360E+03  0.17322583830E+03  0.10000000000E+01 0.  0.
    9000005    1    3    3    0    0 -0.24041750886E+02  0.40796909694E+02  0.20028848794E+03  0.20581271104E+03  0.10000000000E+01 0.  0.
         21    1    1    2  502  501 -0.34157611998E+02  0.75301569160E+01  0.32915458057E+03  0.33100783016E+03  0.00000000000E+00 0. -1.
<mgrwt>
<rscale>  1 0.12980228E+03</rscale>
<asrwt>0</asrwt>
<pdfrwt beam="1">  1        4 0.10733243E+00 0.12980228E+03</pdfrwt>
<pdfrwt beam="2">  1       -4 0.19055076E-02 0.12980228E+03</pdfrwt>
<totfact> 0.12997409E+03</totfact>
</mgrwt>
</event>
<event>
 6    4  0.5642870E-004  0.1281805E+03  0.7818608E-02  0.1230181E+00
         -4   -1    0    0    0  501 -0.00000000000E+00  0.00000000000E+00  0.22107738080E+04  0.22107741728E+04  0.12700000000E+01 0.  1.
          4   -1    0    0  502    0  0.00000000000E+00 -0.00000000000E+00 -0.30873194167E+01  0.33383291002E+01  0.12700000000E+01 0.  1.
         25    2    1    2    0    0  0.12133803491E+02 -0.25631470943E+02  0.20418002673E+04  0.20458197810E+04  0.12500417313E+03 0.  0.
    9000005    1    3    3    0    0 -0.15757472207E+02 -0.68933558225E+02  0.14711725138E+04  0.14728712431E+04  0.10000000000E+01 0.  0.
    9000005    1    3    3    0    0  0.27891275698E+02  0.43302087281E+02  0.57062775351E+03  0.57294853792E+03  0.10000000000E+01 0.  0.
         21    1    1    2  502  501 -0.12133803491E+02  0.25631470943E+02  0.16588622132E+03  0.16829272092E+03  0.00000000000E+00 0.  1.
<mgrwt>
<rscale>  1 0.12818052E+03</rscale>
<asrwt>0</asrwt>
<pdfrwt beam="2">  1        4 0.49431037E-03 0.12818052E+03</pdfrwt>
<pdfrwt beam="1">  1       -4 0.34013725E+00 0.12818052E+03</pdfrwt>
<totfact> 0.30626895E+02</totfact>
</mgrwt>
</event>
<event>
 6    4  0.5642870E-004  0.1283876E+03  0.7818608E-02  0.1229868E+00
          4   -1    0    0  502    0  0.00000000000E+00  0.00000000000E+00  0.25545368672E+04  0.25545371829E+04  0.12700000000E+01 0. -1.
         -4   -1    0    0    0  501 -0.00000000000E+00 -0.00000000000E+00 -0.26519173942E+01  0.29403343119E+01  0.12700000000E+01 0. -1.
         25    2    1    2    0    0  0.29065994454E+02 -0.34098744371E+01  0.15999981548E+04  0.16051409539E+04  0.12500770891E+03 0.  0.
    9000005    1    3    3    0    0  0.27851809023E+02  0.15633232825E+02  0.15645039077E+04  0.15648302139E+04  0.10000000000E+01 0.  0.
    9000005    1    3    3    0    0  0.12141854304E+01 -0.19043107262E+02  0.35494247108E+02  0.40310739986E+02  0.10000000000E+01 0.  0.
         21    1    1    2  502  501 -0.29065994454E+02  0.34098744371E+01  0.95188679502E+03  0.95233656331E+03  0.00000000000E+00 0.  1.
<mgrwt>
<rscale>  1 0.12838764E+03</rscale>
<asrwt>0</asrwt>
<pdfrwt beam="1">  1        4 0.39302730E+00 0.12838764E+03</pdfrwt>
<pdfrwt beam="2">  1       -4 0.43019812E-03 0.12838764E+03</pdfrwt>
<totfact> 0.17611779E+02</totfact>
</mgrwt>
</event>
<event>
 6    4  0.5642870E-004  0.1302272E+03  0.7818608E-02  0.1227119E+00
          4   -1    0    0  502    0  0.00000000000E+00  0.00000000000E+00  0.73025207432E+03  0.73025317866E+03  0.12700000000E+01 0.  1.
         -4   -1    0    0    0  501 -0.00000000000E+00 -0.00000000000E+00 -0.28539945248E+02  0.28568188160E+02  0.12700000000E+01 0.  1.
         25    2    1    2    0    0  0.36143205431E+02 -0.52019836993E+01  0.12355782006E+03  0.17951506014E+03  0.12500291991E+03 0.  0.
    9000005    1    3    3    0    0  0.72108017228E+02 -0.18722109378E+02  0.11955712578E+03  0.14087224657E+03  0.10000000000E+01 0.  0.
    9000005    1    3    3    0    0 -0.35964811797E+02  0.13520125679E+02  0.40006942774E+01  0.38642813571E+02  0.10000000000E+01 0.  0.
         21    1    1    2  502  501 -0.36143205431E+02  0.52019836993E+01  0.57815430902E+03  0.57930630669E+03  0.00000000000E+00 0.  1.
<mgrwt>
<rscale>  1 0.13022719E+03</rscale>
<asrwt>0</asrwt>
<pdfrwt beam="1">  1        4 0.11234873E+00 0.13022719E+03</pdfrwt>
<pdfrwt beam="2">  1       -4 0.43930181E-02 0.13022719E+03</pdfrwt>
<totfact> 0.31644650E+02</totfact>
</mgrwt>
</event>
<event>
 6    4  0.5642870E-004  0.1286529E+03  0.7818608E-02  0.1229468E+00
          4   -1    0    0  502    0  0.00000000000E+00  0.00000000000E+00  0.56414218842E+02  0.56428512186E+02  0.12700000000E+01 0. -1.
         -4   -1    0    0    0  501 -0.00000000000E+00 -0.00000000000E+00 -0.11251228270E+03  0.11251945013E+03  0.12700000000E+01 0. -1.
         25    2    1    2    0    0  0.82375654418E+01 -0.29281165419E+02 -0.41284158561E+02  0.13511460714E+03  0.12500532461E+03 0.  0.
    9000005    1    3    3    0    0 -0.40755627971E+02  0.25610744540E+02 -0.38214356877E+02  0.61467621711E+02  0.10000000000E+01 0.  0.
    9000005    1    3    3    0    0  0.48993193413E+02 -0.54891909959E+02 -0.30698016842E+01  0.73646985425E+02  0.10000000000E+01 0.  0.
         21    1    1    2  502  501 -0.82375654418E+01  0.29281165419E+02 -0.14813905294E+02  0.33833355180E+02  0.00000000000E+00 0. -1.
<mgrwt>
<rscale>  1 0.12865293E+03</rscale>
<asrwt>0</asrwt>
<pdfrwt beam="1">  1        4 0.86807614E-02 0.12865293E+03</pdfrwt>
<pdfrwt beam="2">  1       -4 0.17311233E-01 0.12865293E+03</pdfrwt>
<totfact> 0.45431551E+03</totfact>
</mgrwt>
</event>
<event>
 6    4  0.5642870E-004  0.1266977E+03  0.7818608E-02  0.1232440E+00
         -4   -1    0    0    0  501 -0.00000000000E+00  0.00000000000E+00  0.46810936524E+03  0.46811108802E+03  0.12700000000E+01 0.  1.
          4   -1    0    0  502    0  0.00000000000E+00 -0.00000000000E+00 -0.14812617716E+02  0.14866961479E+02  0.12700000000E+01 0.  1.
         25    2    1    2    0    0  0.11709942346E+02 -0.16992483370E+02  0.44125710430E+03  0.45908620466E+03  0.12500577575E+03 0.  0.
    9000005    1    3    3    0    0  0.42601861423E+02  0.87056296597E+01  0.39670144658E+03  0.39907861920E+03  0.10000000000E+01 0.  0.
    9000005    1    3    3    0    0 -0.30891919076E+02 -0.25698113030E+02  0.44555657721E+02  0.60007585458E+02  0.10000000000E+01 0.  0.
         21    1    1    2  502  501 -0.11709942346E+02  0.16992483370E+02  0.12039643222E+02  0.23891844838E+02  0.00000000000E+00 0.  1.
<mgrwt>
<rscale>  1 0.12669772E+03</rscale>
<asrwt>0</asrwt>
<pdfrwt beam="2">  1        4 0.22831772E-02 0.12669772E+03</pdfrwt>
<pdfrwt beam="1">  1       -4 0.72021133E-01 0.12669772E+03</pdfrwt>
<totfact> 0.24008498E+03</totfact>
</mgrwt>
</event>
<event>
 6    4  0.5642870E-004  0.1307208E+03  0.7818608E-02  0.1226390E+00
         -4   -1    0    0    0  501 -0.00000000000E+00  0.00000000000E+00  0.13470037896E+02  0.13529775346E+02  0.12700000000E+01 0.  1.
          4   -1    0    0  502    0  0.00000000000E+00 -0.00000000000E+00 -0.63562939971E+03  0.63563066845E+03  0.12700000000E+01 0.  1.
         25    2    1    2    0    0  0.83062314050E+00 -0.38226738945E+02 -0.33727059660E+03  0.36171726324E+03  0.12500379870E+03 0.  0.
    9000005    1    3    3    0    0  0.35725057803E+02 -0.64526400646E+02 -0.28069638888E+03  0.29022646135E+03  0.10000000000E+01 0.  0.
    9000005    1    3    3    0    0 -0.34894434663E+02  0.26299661701E+02 -0.56574207724E+02  0.71490801895E+02  0.10000000000E+01 0.  0.
         21    1    1    2  502  501 -0.83062314050E+00  0.38226738945E+02 -0.28488876521E+03  0.28744318056E+03  0.00000000000E+00 0.  1.
<mgrwt>
<rscale>  1 0.13072078E+03</rscale>
<asrwt>0</asrwt>
<pdfrwt beam="2">  1        4 0.97793808E-01 0.13072078E+03</pdfrwt>
<pdfrwt beam="1">  1       -4 0.20770068E-02 0.13072078E+03</pdfrwt>
<totfact> 0.14153773E+03</totfact>
</mgrwt>
</event>
<event>
 6    4  0.5642870E-004  0.1272830E+03  0.7818608E-02  0.1231544E+00
          4   -1    0    0  502    0  0.00000000000E+00  0.00000000000E+00  0.47783103614E+02  0.47799977939E+02  0.12700000000E+01 0.  1.
         -4   -1    0    0    0  501 -0.00000000000E+00 -0.00000000000E+00 -0.12415673625E+03  0.12416323149E+03  0.12700000000E+01 0.  1.
         25    2    1    2    0    0 -0.12103337666E+02  0.20719276147E+02 -0.51226631421E+02  0.13720474490E+03  0.12500078028E+03 0.  0.
    9000005    1    3    3    0    0 -0.54209685844E+02 -0.18157296468E+02  0.43799336909E+01  0.57345978704E+02  0.10000000000E+01 0.  0.
    9000005    1    3    3    0    0  0.42106348178E+02  0.38876572615E+02 -0.55606565112E+02  0.79858766198E+02  0.10000000000E+01 0.  0.
         21    1    1    2  502  501  0.12103337666E+02 -0.20719276147E+02 -0.25147001211E+02  0.34758464532E+02  0.00000000000E+00 0.  1.
<mgrwt>
<rscale>  1 0.12728305E+03</rscale>
<asrwt>0</asrwt>
<pdfrwt beam="1">  1        4 0.73530444E-02 0.12728305E+03</pdfrwt>
<pdfrwt beam="2">  1       -4 0.19102834E-01 0.12728305E+03</pdfrwt>
<totfact> 0.50051320E+03</totfact>
</mgrwt>
</event>
<event>
 6    4  0.5642870E-004  0.1378828E+03  0.7818608E-02  0.1216207E+00
         -4   -1    0    0    0  501 -0.00000000000E+00  0.00000000000E+00  0.42801807160E+02  0.42820644509E+02  0.12700000000E+01 0. -1.
          4   -1    0    0  502    0  0.00000000000E+00 -0.00000000000E+00 -0.22624001671E+03  0.22624358126E+03  0.12700000000E+01 0. -1.
         25    2    1    2    0    0 -0.54557794933E+02  0.20264275864E+02 -0.11792253552E+03  0.18143148412E+03  0.12499786072E+03 0.  0.
    9000005    1    3    3    0    0 -0.14121577057E+02  0.34146842933E+02  0.16418974999E+02  0.40447602659E+02  0.10000000000E+01 0.  0.
    9000005    1    3    3    0    0 -0.40436217876E+02 -0.13882567070E+02 -0.13434151052E+03  0.14098388147E+03  0.10000000000E+01 0.  0.
         21    1    1    2  502  501  0.54557794933E+02 -0.20264275864E+02 -0.65515674029E+02  0.87632741642E+02  0.00000000000E+00 0. -1.
<mgrwt>
<rscale>  1 0.13788277E+03</rscale>
<asrwt>0</asrwt>
<pdfrwt beam="2">  1        4 0.34807879E-01 0.13788277E+03</pdfrwt>
<pdfrwt beam="1">  1       -4 0.65866168E-02 0.13788277E+03</pdfrwt>
<totfact> 0.20081933E+03</totfact>
</mgrwt>
</event>
<event>
 6    4  0.5642870E-004  0.1281948E+03  0.7818608E-02  0.1230159E+00
         -4   -1    0    0    0  501 -0.00000000000E+00  0.00000000000E+00  0.57794280071E+02  0.57808232190E+02  0.12700000000E+01 0. -1.
          4   -1    0    0  502    0  0.00000000000E+00 -0.00000000000E+00 -0.10870952609E+03  0.10871694423E+03  0.12700000000E+01 0. -1.
         25    2    1    2    0    0 -0.21601950137E+02 -0.18501559998E+02 -0.31256182865E+02  0.13195017481E+03  0.12499979077E+03 0.  0.
    9000005    1    3    3    0    0 -0.60156657540E+02 -0.27685609930E+02  0.18085228459E+02  0.68654147231E+02  0.10000000000E+01 0.  0.
    9000005    1    3    3    0    0  0.38554707403E+02  0.91840499325E+01 -0.49341411324E+02  0.63296027581E+02  0.10000000000E+01 0.  0.
         21    1    1    2  502  501  0.21601950137E+02  0.18501559998E+02 -0.19659063152E+02  0.34575001607E+02  0.00000000000E+00 0. -1.
<mgrwt>
<rscale>  1 0.12819477E+03</rscale>
<asrwt>0</asrwt>
<pdfrwt beam="2">  1        4 0.16726186E-01 0.12819477E+03</pdfrwt>
<pdfrwt beam="1">  1       -4 0.88930716E-02 0.12819477E+03</pdfrwt>
<totfact> 0.46329086E+03</totfact>
</mgrwt>
</event>
<event>
 6    4  0.5642870E-004  0.1289656E+03  0.7818608E-02  0.1228999E+00
         -4   -1    0    0    0  501 -0.00000000000E+00  0.00000000000E+00  0.23162733581E+02  0.23197524155E+02  0.12700000000E+01 0.  1.
          4   -1    0    0  502    0  0.00000000000E+00 -0.00000000000E+00 -0.27886605790E+03  0.27886894977E+03  0.12700000000E+01 0.  1.
         25    2    1    2    0    0 -0.10708260375E+01  0.31707696579E+02 -0.20047809220E+03  0.23837698537E+03  0.12500238802E+03 0.  0.
    9000005    1    3    3    0    0 -0.46816388560E+02  0.12318193643E+02 -0.22135344115E+02  0.53239887223E+02  0.10000000000E+01 0.  0.
    9000005    1    3    3    0    0  0.45745562523E+02  0.19389502936E+02 -0.17834274809E+03  0.18513709814E+03  0.10000000000E+01 0.  0.
         21    1    1    2  502  501  0.10708260375E+01 -0.31707696579E+02 -0.55225232115E+02  0.63689488559E+02  0.00000000000E+00 0.  1.
<mgrwt>
<rscale>  1 0.12896558E+03</rscale>
<asrwt>0</asrwt>
<pdfrwt beam="2">  1        4 0.42905367E-01 0.12896558E+03</pdfrwt>
<pdfrwt beam="1">  1       -4 0.35663963E-02 0.12896558E+03</pdfrwt>
<totfact> 0.35150004E+03</totfact>
</mgrwt>
</event>
<event>
 6    4  0.5642870E-004  0.1283729E+03  0.7818608E-02  0.1229890E+00
          4   -1    0    0  502    0  0.00000000000E+00  0.00000000000E+00  0.18388950822E+02  0.18432753792E+02  0.12700000000E+01 0.  1.
         -4   -1    0    0    0  501 -0.00000000000E+00 -0.00000000000E+00 -0.33727156898E+03  0.33727396007E+03  0.12700000000E+01 0.  1.
         25    2    1    2    0    0 -0.41039022355E+01 -0.28941826243E+02 -0.25848028683E+03  0.28860296620E+03  0.12500056841E+03 0.  0.
    9000005    1    3    3    0    0 -0.63184389327E+02 -0.20847676839E+02 -0.10956898074E+03  0.12819225493E+03  0.10000000000E+01 0.  0.
    9000005    1    3    3    0    0  0.59080487092E+02 -0.80941494040E+01 -0.14891130609E+03  0.16041071127E+03  0.10000000000E+01 0.  0.
         21    1    1    2  502  501  0.41039022355E+01  0.28941826243E+02 -0.60402331325E+02  0.67103747655E+02  0.00000000000E+00 0.  1.
<mgrwt>
<rscale>  1 0.12837295E+03</rscale>
<asrwt>0</asrwt>
<pdfrwt beam="1">  1        4 0.28326230E-02 0.12837295E+03</pdfrwt>
<pdfrwt beam="2">  1       -4 0.51891483E-01 0.12837295E+03</pdfrwt>
<totfact> 0.34347198E+03</totfact>
</mgrwt>
</event>
<event>
 6    4  0.5642870E-004  0.1301616E+03  0.7818608E-02  0.1227216E+00
          4   -1    0    0  502    0  0.00000000000E+00  0.00000000000E+00  0.71462257069E+03  0.71462369919E+03  0.12700000000E+01 0.  1.
         -4   -1    0    0    0  501 -0.00000000000E+00 -0.00000000000E+00 -0.19277466620E+02  0.19319255143E+02  0.12700000000E+01 0.  1.
         25    2    1    2    0    0 -0.18491432246E+02  0.31230885216E+02  0.20881163611E+03  0.24605760233E+03  0.12499897211E+03 0.  0.
    9000005    1    3    3    0    0 -0.27943807864E+01 -0.44846921341E+02  0.39749995638E+02  0.60000975583E+02  0.10000000000E+01 0.  0.
    9000005    1    3    3    0    0 -0.15697051460E+02  0.76077806557E+02  0.16906164047E+03  0.18605662674E+03  0.10000000000E+01 0.  0.
         21    1    1    2  502  501  0.18491432246E+02 -0.31230885216E+02  0.48653346796E+03  0.48788535200E+03  0.00000000000E+00 0.  1.
<mgrwt>
<rscale>  1 0.13016161E+03</rscale>
<asrwt>0</asrwt>
<pdfrwt beam="1">  1        4 0.10994522E+00 0.13016161E+03</pdfrwt>
<pdfrwt beam="2">  1       -4 0.29690658E-02 0.13016161E+03</pdfrwt>
<totfact> 0.61811314E+02</totfact>
</mgrwt>
</event>
<event>
 6    4  0.5642870E-004  0.1272049E+03  0.7818608E-02  0.1231663E+00
         -4   -1    0    0    0  501 -0.00000000000E+00  0.00000000000E+00  0.24151335223E+03  0.24151669135E+03  0.12700000000E+01 0. -1.
          4   -1    0    0  502    0  0.00000000000E+00 -0.00000000000E+00 -0.23751034783E+02  0.23784964858E+02  0.12700000000E+01 0. -1.
         25    2    1    2    0    0  0.12373794639E+02 -0.20052103169E+02  0.17320511890E+03  0.21489787086E+03  0.12500353617E+03 0.  0.
    9000005    1    3    3    0    0 -0.43434423560E+02 -0.96612404619E+01  0.15247791505E+02  0.47046613725E+02  0.10000000000E+01 0.  0.
    9000005    1    3    3    0    0  0.55808218199E+02 -0.10390862707E+02  0.15795732739E+03  0.16785125714E+03  0.10000000000E+01 0.  0.
         21    1    1    2  502  501 -0.12373794639E+02  0.20052103169E+02  0.44557198545E+02  0.50403785348E+02  0.00000000000E+00 0. -1.
<mgrwt>
<rscale>  1 0.12720488E+03</rscale>
<asrwt>0</asrwt>
<pdfrwt beam="2">  1        4 0.36568721E-02 0.12720488E+03</pdfrwt>
<pdfrwt beam="1">  1       -4 0.37158768E-01 0.12720488E+03</pdfrwt>
<totfact> 0.44667329E+03</totfact>
</mgrwt>
</event>
<event>
 6    4  0.5642870E-004  0.1362825E+03  0.7818608E-02  0.1218421E+00
         -4   -1    0    0    0  501 -0.00000000000E+00  0.00000000000E+00  0.16221334790E+03  0.16221831936E+03  0.12700000000E+01 0. -1.
          4   -1    0    0  502    0  0.00000000000E+00 -0.00000000000E+00 -0.28447645943E+03  0.28447929427E+03  0.12700000000E+01 0. -1.
         25    2    1    2    0    0 -0.54300156393E+02 -0.23451043429E+00  0.13018818744E+03  0.18847247866E+03  0.12499739631E+03 0.  0.
    9000005    1    3    3    0    0 -0.59066976312E+02  0.35541716571E+02  0.18918805291E+02  0.71491555453E+02  0.10000000000E+01 0.  0.
    9000005    1    3    3    0    0  0.47668199190E+01 -0.35776227006E+02  0.11126938215E+03  0.11698092321E+03  0.10000000000E+01 0.  0.
         21    1    1    2  502  501  0.54300156393E+02  0.23451043429E+00 -0.25245129897E+03  0.25822513497E+03  0.00000000000E+00 0. -1.
<mgrwt>
<rscale>  1 0.13628247E+03</rscale>
<asrwt>0</asrwt>
<pdfrwt beam="2">  1        4 0.43766210E-01 0.13628247E+03</pdfrwt>
<pdfrwt beam="1">  1       -4 0.24956500E-01 0.13628247E+03</pdfrwt>
<totfact> 0.12803555E+02</totfact>
</mgrwt>
</event>
<event>
 6    4  0.5642870E-004  0.1269684E+03  0.7818608E-02  0.1232025E+00
          4   -1    0    0  502    0  0.00000000000E+00  0.00000000000E+00  0.20582763556E+03  0.20583155361E+03  0.12700000000E+01 0.  1.
         -4   -1    0    0    0  501 -0.00000000000E+00 -0.00000000000E+00 -0.31573210614E+02  0.31598742514E+02  0.12700000000E+01 0.  1.
         25    2    1    2    0    0 -0.19160251149E+02  0.11370194082E+02  0.10525509168E+03  0.16492302387E+03  0.12499829175E+03 0.  0.
    9000005    1    3    3    0    0  0.26205322874E+02  0.55884224477E+02  0.65213566221E+02  0.89797409270E+02  0.10000000000E+01 0.  0.
    9000005    1    3    3    0    0 -0.45365574023E+02 -0.44514030395E+02  0.40041525456E+02  0.75125614602E+02  0.10000000000E+01 0.  0.
         21    1    1    2  502  501  0.19160251149E+02 -0.11370194082E+02  0.68999333269E+02  0.72507272250E+02  0.00000000000E+00 0. -1.
<mgrwt>
<rscale>  1 0.12696838E+03</rscale>
<asrwt>0</asrwt>
<pdfrwt beam="1">  1        4 0.31668056E-01 0.12696838E+03</pdfrwt>
<pdfrwt beam="2">  1       -4 0.48596823E-02 0.12696838E+03</pdfrwt>
<totfact> 0.38620456E+03</totfact>
</mgrwt>
</event>
<event>
 6    4  0.5642870E-004  0.1294961E+03  0.7818608E-02  0.1228205E+00
         -4   -1    0    0    0  501 -0.00000000000E+00  0.00000000000E+00  0.11217789449E+02  0.11289450833E+02  0.12700000000E+01 0. -1.
          4   -1    0    0  502    0  0.00000000000E+00 -0.00000000000E+00 -0.65784147864E+03  0.65784270454E+03  0.12700000000E+01 0. -1.
         25    2    1    2    0    0  0.17070059501E+02  0.29223523586E+02 -0.58144269394E+03  0.59568854841E+03  0.12499535635E+03 0.  0.
    9000005    1    3    3    0    0 -0.46558606436E+02 -0.12076386494E+02 -0.31512551491E+03  0.31877677628E+03  0.10000000000E+01 0.  0.
    9000005    1    3    3    0    0  0.63628665936E+02  0.41299910079E+02 -0.26631717902E+03  0.27691177213E+03  0.10000000000E+01 0.  0.
         21    1    1    2  502  501 -0.17070059501E+02 -0.29223523586E+02 -0.65180995257E+02  0.73443606970E+02  0.00000000000E+00 0. -1.
<mgrwt>
<rscale>  1 0.12949610E+03</rscale>
<asrwt>0</asrwt>
<pdfrwt beam="2">  1        4 0.10121196E+00 0.12949610E+03</pdfrwt>
<pdfrwt beam="1">  1       -4 0.17314210E-02 0.12949610E+03</pdfrwt>
<totfact> 0.17255655E+03</totfact>
</mgrwt>
</event>
<event>
 6    4  0.5642870E-004  0.1274617E+03  0.7818608E-02  0.1231272E+00
          4   -1    0    0  502    0  0.00000000000E+00  0.00000000000E+00  0.91302392778E+03  0.91302481105E+03  0.12700000000E+01 0.  1.
         -4   -1    0    0    0  501 -0.00000000000E+00 -0.00000000000E+00 -0.62958174382E+01  0.64226331995E+01  0.12700000000E+01 0.  1.
         25    2    1    2    0    0  0.82753052580E+01 -0.23531274621E+02  0.75718891568E+03  0.76784212673E+03  0.12499710390E+03 0.  0.
    9000005    1    3    3    0    0  0.22815494033E+02 -0.46335115637E+01  0.73463932324E+03  0.73500881045E+03  0.10000000000E+01 0.  0.
    9000005    1    3    3    0    0 -0.14540188775E+02 -0.18897763057E+02  0.22549592445E+02  0.32833316275E+02  0.10000000000E+01 0.  0.
         21    1    1    2  502  501 -0.82753052580E+01  0.23531274621E+02  0.14953919466E+03  0.15160531752E+03  0.00000000000E+00 0.  1.
<mgrwt>
<rscale>  1 0.12746167E+03</rscale>
<asrwt>0</asrwt>
<pdfrwt beam="1">  1        4 0.14047501E+00 0.12746167E+03</pdfrwt>
<pdfrwt beam="2">  1       -4 0.97841056E-03 0.12746167E+03</pdfrwt>
<totfact> 0.18609034E+03</totfact>
</mgrwt>
</event>
<event>
 6    4  0.5642870E-004  0.1543923E+03  0.7818608E-02  0.1195177E+00
          4   -1    0    0  502    0  0.00000000000E+00  0.00000000000E+00  0.23843823329E+03  0.23844161548E+03  0.12700000000E+01 0. -1.
         -4   -1    0    0    0  501 -0.00000000000E+00 -0.00000000000E+00 -0.62932766181E+02  0.62945579346E+02  0.12700000000E+01 0. -1.
         25    2    1    2    0    0  0.76281310592E+02  0.48922584444E+02  0.11025814031E+03  0.18972040806E+03  0.12499887245E+03 0.  0.
    9000005    1    3    3    0    0  0.19579674038E+01  0.72212830692E+02  0.75263800018E+02  0.10432720712E+03  0.10000000000E+01 0.  0.
    9000005    1    3    3    0    0  0.74323343188E+02 -0.23290246248E+02  0.34994340293E+02  0.85393200932E+02  0.10000000000E+01 0.  0.
         21    1    1    2  502  501 -0.76281310592E+02 -0.48922584444E+02  0.65247326797E+02  0.11166678677E+03  0.00000000000E+00 0. -1.
<mgrwt>
<rscale>  1 0.15439228E+03</rscale>
<asrwt>0</asrwt>
<pdfrwt beam="1">  1        4 0.36684051E-01 0.15439228E+03</pdfrwt>
<pdfrwt beam="2">  1       -4 0.96832097E-02 0.15439228E+03</pdfrwt>
<totfact> 0.98002460E+02</totfact>
</mgrwt>
</event>
<event>
 6    4  0.5642870E-004  0.1276794E+03  0.7818608E-02  0.1230940E+00
         -4   -1    0    0    0  501 -0.00000000000E+00  0.00000000000E+00  0.92935295603E+01  0.93799036076E+01  0.12700000000E+01 0.  1.
          4   -1    0    0  502    0  0.00000000000E+00 -0.00000000000E+00 -0.67769514382E+03  0.67769633381E+03  0.12700000000E+01 0.  1.
         25    2    1    2    0    0  0.82226008541E+01  0.24727780525E+02 -0.47241888178E+03  0.48936861054E+03  0.12499185104E+03 0.  0.
    9000005    1    3    3    0    0  0.13059159140E+01  0.71959656278E+02 -0.36171833346E+03  0.36881031752E+03  0.10000000000E+01 0.  0.
    9000005    1    3    3    0    0  0.69166849401E+01 -0.47231875753E+02 -0.11070054832E+03  0.12055829302E+03  0.10000000000E+01 0.  0.
         21    1    1    2  502  501 -0.82226008541E+01 -0.24727780525E+02 -0.19598273249E+03  0.19770762688E+03  0.00000000000E+00 0.  1.
<mgrwt>
<rscale>  1 0.12767943E+03</rscale>
<asrwt>0</asrwt>
<pdfrwt beam="2">  1        4 0.10426749E+00 0.12767943E+03</pdfrwt>
<pdfrwt beam="1">  1       -4 0.14365100E-02 0.12767943E+03</pdfrwt>
<totfact> 0.21340254E+03</totfact>
</mgrwt>
</event>
<event>
 6    4  0.5642870E-004  0.1284282E+03  0.7818608E-02  0.1229807E+00
          4   -1    0    0  502    0  0.00000000000E+00  0.00000000000E+00  0.31629607333E+03  0.31629862299E+03  0.12700000000E+01 0. -1.
         -4   -1    0    0    0  501 -0.00000000000E+00 -0.00000000000E+00 -0.24926307251E+02  0.24958639650E+02  0.12700000000E+01 0. -1.
         25    2    1    2    0    0  0.93454934630E+01  0.27957273652E+02  0.15287960041E+03  0.19966463082E+03  0.12499938072E+03 0.  0.
    9000005    1    3    3    0    0  0.45860487425E+02 -0.32920877357E+02  0.55688625296E+02  0.79304422702E+02  0.10000000000E+01 0.  0.
    9000005    1    3    3    0    0 -0.36514993962E+02  0.60878151009E+02  0.97190975110E+02  0.12036020811E+03  0.10000000000E+01 0.  0.
         21    1    1    2  502  501 -0.93454934630E+01 -0.27957273652E+02  0.13849016568E+03  0.14159263183E+03  0.00000000000E+00 0. -1.
<mgrwt>
<rscale>  1 0.12842816E+03</rscale>
<asrwt>0</asrwt>
<pdfrwt beam="1">  1        4 0.48663620E-01 0.12842816E+03</pdfrwt>
<pdfrwt beam="2">  1       -4 0.38374995E-02 0.12842816E+03</pdfrwt>
<totfact> 0.24293839E+03</totfact>
</mgrwt>
</event>
<event>
 6    4  0.5642870E-004  0.1308610E+03  0.7818608E-02  0.1226184E+00
         -4   -1    0    0    0  501 -0.00000000000E+00  0.00000000000E+00  0.43195419594E+02  0.43214085365E+02  0.12700000000E+01 0.  1.
          4   -1    0    0  502    0  0.00000000000E+00 -0.00000000000E+00 -0.19399342898E+03  0.19399758603E+03  0.12700000000E+01 0.  1.
         25    2    1    2    0    0 -0.36624921817E+02  0.12605676959E+02 -0.71885195054E+02  0.14930535618E+03  0.12499728048E+03 0.  0.
    9000005    1    3    3    0    0 -0.20847317800E+02 -0.55002806034E+02 -0.47844526735E+02  0.75828873587E+02  0.10000000000E+01 0.  0.
    9000005    1    3    3    0    0 -0.15777604017E+02  0.67608482992E+02 -0.24040668319E+02  0.73476482593E+02  0.10000000000E+01 0.  0.
         21    1    1    2  502  501  0.36624921817E+02 -0.12605676959E+02 -0.78912814326E+02  0.87906315215E+02  0.00000000000E+00 0. -1.
<mgrwt>
<rscale>  1 0.13086103E+03</rscale>
<asrwt>0</asrwt>
<pdfrwt beam="2">  1        4 0.29846898E-01 0.13086103E+03</pdfrwt>
<pdfrwt beam="1">  1       -4 0.66472049E-02 0.13086103E+03</pdfrwt>
<totfact> 0.26216578E+03</totfact>
</mgrwt>
</event>
<event>
 6    4  0.5642870E-004  0.1286929E+03  0.7818608E-02  0.1229408E+00
         -4   -1    0    0    0  501 -0.00000000000E+00  0.00000000000E+00  0.23947447700E+03  0.23947784456E+03  0.12700000000E+01 0. -1.
          4   -1    0    0  502    0  0.00000000000E+00 -0.00000000000E+00 -0.33854064022E+02  0.33877877011E+02  0.12700000000E+01 0. -1.
         25    2    1    2    0    0 -0.22561410408E+01 -0.30534049729E+02  0.20581495717E+03  0.24273781484E+03  0.12499772715E+03 0.  0.
    9000005    1    3    3    0    0  0.59406563091E+01  0.16355010923E+02 -0.11097099989E+02  0.20662124960E+02  0.10000000000E+01 0.  0.
    9000005    1    3    3    0    0 -0.81967973499E+01 -0.46889060652E+02  0.21691205716E+03  0.22207568988E+03  0.10000000000E+01 0.  0.
         21    1    1    2  502  501  0.22561410408E+01  0.30534049729E+02 -0.19454418807E+00  0.30617906732E+02  0.00000000000E+00 0. -1.
<mgrwt>
<rscale>  1 0.12869285E+03</rscale>
<asrwt>0</asrwt>
<pdfrwt beam="2">  1        4 0.52104084E-02 0.12869285E+03</pdfrwt>
<pdfrwt beam="1">  1       -4 0.36844318E-01 0.12869285E+03</pdfrwt>
<totfact> 0.25900709E+03</totfact>
</mgrwt>
</event>
<event>
 6    4  0.5642870E-004  0.1564038E+03  0.7818608E-02  0.1192818E+00
         -4   -1    0    0    0  501 -0.00000000000E+00  0.00000000000E+00  0.60928780217E+03  0.60928912576E+03  0.12700000000E+01 0. -1.
          4   -1    0    0  502    0  0.00000000000E+00 -0.00000000000E+00 -0.25751700645E+02  0.25782998005E+02  0.12700000000E+01 0. -1.
         25    2    1    2    0    0  0.93997951099E+02  0.15077830378E+01  0.35238736067E+03  0.38553729931E+03  0.12499707587E+03 0.  0.
    9000005    1    3    3    0    0  0.10954829568E+03 -0.32993017574E+02  0.22176419819E+03  0.24953903080E+03  0.10000000000E+01 0.  0.
    9000005    1    3    3    0    0 -0.15550344582E+02  0.34500800612E+02  0.13062316248E+03  0.13599826850E+03  0.10000000000E+01 0.  0.
         21    1    1    2  502  501 -0.93997951099E+02 -0.15077830378E+01  0.23114874085E+03  0.24953482446E+03  0.00000000000E+00 0. -1.
<mgrwt>
<rscale>  1 0.15640383E+03</rscale>
<asrwt>0</asrwt>
<pdfrwt beam="2">  1        4 0.39643093E-02 0.15640383E+03</pdfrwt>
<pdfrwt beam="1">  1       -4 0.93739096E-01 0.15640383E+03</pdfrwt>
<totfact> 0.58773164E+02</totfact>
</mgrwt>
</event>
<event>
 6    4  0.5642870E-004  0.1338571E+03  0.7818608E-02  0.1221842E+00
          4   -1    0    0  502    0  0.00000000000E+00  0.00000000000E+00  0.40767159776E+03  0.40767357595E+03  0.12700000000E+01 0.  1.
         -4   -1    0    0    0  501 -0.00000000000E+00 -0.00000000000E+00 -0.20368676458E+02  0.20408230709E+02  0.12700000000E+01 0.  1.
         25    2    1    2    0    0  0.77722539972E+01 -0.47237956642E+02  0.30017073944E+03  0.32866425490E+03  0.12500354856E+03 0.  0.
    9000005    1    3    3    0    0 -0.13191805972E+02  0.15666298822E+02  0.23430013482E+03  0.23519568415E+03  0.10000000000E+01 0.  0.
    9000005    1    3    3    0    0  0.20964059970E+02 -0.62904255464E+02  0.65870604618E+02  0.93468570753E+02  0.10000000000E+01 0.  0.
         21    1    1    2  502  501 -0.77722539972E+01  0.47237956642E+02  0.87132181866E+02  0.99417551753E+02  0.00000000000E+00 0.  1.
<mgrwt>
<rscale>  1 0.13385709E+03</rscale>
<asrwt>0</asrwt>
<pdfrwt beam="1">  1        4 0.62721903E-01 0.13385709E+03</pdfrwt>
<pdfrwt beam="2">  1       -4 0.31368373E-02 0.13385709E+03</pdfrwt>
<totfact> 0.19931554E+03</totfact>
</mgrwt>
</event>
<event>
 6    4  0.5642870E-004  0.1969977E+03  0.7818608E-02  0.1152297E+00
          4   -1    0    0  502    0  0.00000000000E+00  0.00000000000E+00  0.10481489403E+03  0.10482258779E+03  0.12700000000E+01 0. -1.
         -4   -1    0    0    0  501 -0.00000000000E+00 -0.00000000000E+00 -0.39807595272E+03  0.39807797859E+03  0.12700000000E+01 0. -1.
         25    2    1    2    0    0  0.10177607340E+03  0.11324534988E+03 -0.29002965007E+03  0.35060703274E+03  0.12500086039E+03 0.  0.
    9000005    1    3    3    0    0  0.31413143746E+02  0.20117619013E+02  0.69754119186E+00  0.37322791408E+02  0.10000000000E+01 0.  0.
    9000005    1    3    3    0    0  0.70362929649E+02  0.93127730869E+02 -0.29072719126E+03  0.31328424133E+03  0.10000000000E+01 0.  0.
         21    1    1    2  502  501 -0.10177607340E+03 -0.11324534988E+03 -0.32314086231E+01  0.15229353364E+03  0.00000000000E+00 0. -1.
<mgrwt>
<rscale>  1 0.19699770E+03</rscale>
<asrwt>0</asrwt>
<pdfrwt beam="1">  1        4 0.16126116E-01 0.19699770E+03</pdfrwt>
<pdfrwt beam="2">  1       -4 0.61243201E-01 0.19699770E+03</pdfrwt>
<totfact> 0.14948957E+02</totfact>
</mgrwt>
</event>
<event>
 6    4  0.5642870E-004  0.1279696E+03  0.7818608E-02  0.1230500E+00
          4   -1    0    0  502    0  0.00000000000E+00  0.00000000000E+00  0.23567532755E+02  0.23601726635E+02  0.12700000000E+01 0.  1.
         -4   -1    0    0    0  501 -0.00000000000E+00 -0.00000000000E+00 -0.25951739648E+03  0.25952050396E+03  0.12700000000E+01 0.  1.
         25    2    1    2    0    0  0.27230475546E+02 -0.31062614728E+01 -0.18040373676E+03  0.22118258352E+03  0.12500031743E+03 0.  0.
    9000005    1    3    3    0    0  0.56456043770E+02 -0.31195080767E+00 -0.22850384619E+02  0.60914056413E+02  0.10000000000E+01 0.  0.
    9000005    1    3    3    0    0 -0.29225568224E+02 -0.27943106651E+01 -0.15755335214E+03  0.16026852711E+03  0.10000000000E+01 0.  0.
         21    1    1    2  502  501 -0.27230475546E+02  0.31062614728E+01 -0.55546126960E+02  0.61939647069E+02  0.00000000000E+00 0. -1.
<mgrwt>
<rscale>  1 0.12796963E+03</rscale>
<asrwt>0</asrwt>
<pdfrwt beam="1">  1        4 0.36286438E-02 0.12796963E+03</pdfrwt>
<pdfrwt beam="2">  1       -4 0.39928621E-01 0.12796963E+03</pdfrwt>
<totfact> 0.39349026E+03</totfact>
</mgrwt>
</event>
<event>
 6    4  0.5642870E-004  0.1283805E+03  0.7818608E-02  0.1229879E+00
         -4   -1    0    0    0  501 -0.00000000000E+00  0.00000000000E+00  0.50732673255E+03  0.50732832216E+03  0.12700000000E+01 0.  1.
          4   -1    0    0  502    0  0.00000000000E+00 -0.00000000000E+00 -0.16559897500E+02  0.16608525076E+02  0.12700000000E+01 0.  1.
         25    2    1    2    0    0  0.12722487029E+02  0.26540504236E+02  0.47172366453E+03  0.48888114321E+03  0.12496117982E+03 0.  0.
    9000005    1    3    3    0    0  0.54506465069E+02  0.51822278355E+02  0.22116408366E+03  0.23360448448E+03  0.10000000000E+01 0.  0.
    9000005    1    3    3    0    0 -0.41783978039E+02 -0.25281774118E+02  0.25055958087E+03  0.25527665873E+03  0.10000000000E+01 0.  0.
         21    1    1    2  502  501 -0.12722487029E+02 -0.26540504236E+02  0.19043170521E+02  0.35055704027E+02  0.00000000000E+00 0.  1.
<mgrwt>
<rscale>  1 0.12838051E+03</rscale>
<asrwt>0</asrwt>
<pdfrwt beam="2">  1        4 0.25515397E-02 0.12838051E+03</pdfrwt>
<pdfrwt beam="1">  1       -4 0.78054120E-01 0.12838051E+03</pdfrwt>
<totfact> 0.17008764E+03</totfact>
</mgrwt>
</event>
<event>
 6    4  0.5642870E-004  0.1268749E+03  0.7818608E-02  0.1232168E+00
          4   -1    0    0  502    0  0.00000000000E+00  0.00000000000E+00  0.10869001849E+02  0.10942947555E+02  0.12700000000E+01 0. -1.
         -4   -1    0    0    0  501 -0.00000000000E+00 -0.00000000000E+00 -0.63447397912E+03  0.63447525018E+03  0.12700000000E+01 0. -1.
         25    2    1    2    0    0 -0.21523986769E+02 -0.30165928276E+01 -0.60025966967E+03  0.61352172103E+03  0.12499939722E+03 0.  0.
    9000005    1    3    3    0    0  0.48280040924E+02 -0.21883046459E+02 -0.20790700566E+03  0.21456037163E+03  0.10000000000E+01 0.  0.
    9000005    1    3    3    0    0 -0.69804027694E+02  0.18866453631E+02 -0.39235266401E+03  0.39896134940E+03  0.10000000000E+01 0.  0.
         21    1    1    2  502  501  0.21523986769E+02  0.30165928276E+01 -0.23345307603E+02  0.31896476699E+02  0.00000000000E+00 0.  1.
<mgrwt>
<rscale>  1 0.12687486E+03</rscale>
<asrwt>0</asrwt>
<pdfrwt beam="1">  1        4 0.16779405E-02 0.12687486E+03</pdfrwt>
<pdfrwt beam="2">  1       -4 0.97617138E-01 0.12687486E+03</pdfrwt>
<totfact> 0.19586946E+03</totfact>
</mgrwt>
</event>
<event>
 6    4  0.5642870E-004  0.1275601E+03  0.7818608E-02  0.1231122E+00
          4   -1    0    0  502    0  0.00000000000E+00  0.00000000000E+00  0.42190772444E+01  0.44060768031E+01  0.12700000000E+01 0.  1.
         -4   -1    0    0    0  501 -0.00000000000E+00 -0.00000000000E+00 -0.16061613971E+04  0.16061618992E+04  0.12700000000E+01 0.  1.
         25    2    1    2    0    0 -0.56291061870E+01 -0.24799134832E+02 -0.15032361293E+04  0.15086386084E+04  0.12499962563E+03 0.  0.
    9000005    1    3    3    0    0 -0.50951949221E+02  0.25634088890E+02 -0.84336894344E+03  0.84529603241E+03  0.10000000000E+01 0.  0.
    9000005    1    3    3    0    0  0.45322843034E+02 -0.50433223722E+02 -0.65986718589E+03  0.66334257603E+03  0.10000000000E+01 0.  0.
         21    1    1    2  502  501  0.56291061870E+01  0.24799134832E+02 -0.98706190560E+02  0.10192936760E+03  0.00000000000E+00 0.  1.
<mgrwt>
<rscale>  1 0.12756014E+03</rscale>
<asrwt>0</asrwt>
<pdfrwt beam="1">  1        4 0.66351329E-03 0.12756014E+03</pdfrwt>
<pdfrwt beam="2">  1       -4 0.24711570E+00 0.12756014E+03</pdfrwt>
<totfact> 0.68446323E+02</totfact>
</mgrwt>
</event>
<event>
 6    4  0.5642870E-004  0.1273476E+03  0.7818608E-02  0.1231445E+00
         -4   -1    0    0    0  501 -0.00000000000E+00  0.00000000000E+00  0.13426503936E+03  0.13427104563E+03  0.12700000000E+01 0.  1.
          4   -1    0    0  502    0  0.00000000000E+00 -0.00000000000E+00 -0.43575451951E+02  0.43593955002E+02  0.12700000000E+01 0.  1.
         25    2    1    2    0    0  0.19257400805E+02 -0.14895411474E+02  0.67006782101E+02  0.14390037144E+03  0.12499874913E+03 0.  0.
    9000005    1    3    3    0    0  0.57850126295E+02  0.32376953302E+02  0.35899692071E+02  0.75396897205E+02  0.10000000000E+01 0.  0.
    9000005    1    3    3    0    0 -0.38592725490E+02 -0.47272364776E+02  0.31107090030E+02  0.68503474236E+02  0.10000000000E+01 0.  0.
         21    1    1    2  502  501 -0.19257400805E+02  0.14895411474E+02  0.23682805309E+02  0.33964629190E+02  0.00000000000E+00 0.  1.
<mgrwt>
<rscale>  1 0.12734759E+03</rscale>
<asrwt>0</asrwt>
<pdfrwt beam="2">  1        4 0.67058010E-02 0.12734759E+03</pdfrwt>
<pdfrwt beam="1">  1       -4 0.20658045E-01 0.12734759E+03</pdfrwt>
<totfact> 0.50589690E+03</totfact>
</mgrwt>
</event>
<event>
 6    4  0.5642870E-004  0.1299997E+03  0.7818608E-02  0.1227456E+00
          4   -1    0    0  502    0  0.00000000000E+00  0.00000000000E+00  0.38063427739E+02  0.38084608850E+02  0.12700000000E+01 0. -1.
         -4   -1    0    0    0  501 -0.00000000000E+00 -0.00000000000E+00 -0.23582405315E+03  0.23582747283E+03  0.12700000000E+01 0. -1.
         25    2    1    2    0    0  0.74827162560E+01 -0.34909944991E+02 -0.19955506684E+03  0.23816414018E+03  0.12500095065E+03 0.  0.
    9000005    1    3    3    0    0 -0.48065165242E+02 -0.31524442370E+02 -0.42372438472E+02  0.71417603702E+02  0.10000000000E+01 0.  0.
    9000005    1    3    3    0    0  0.55547881498E+02 -0.33855026209E+01 -0.15718262837E+03  0.16674653648E+03  0.10000000000E+01 0.  0.
         21    1    1    2  502  501 -0.74827162560E+01  0.34909944991E+02  0.17944414284E+01  0.35747941505E+02  0.00000000000E+00 0. -1.
<mgrwt>
<rscale>  1 0.12999974E+03</rscale>
<asrwt>0</asrwt>
<pdfrwt beam="1">  1        4 0.58578045E-02 0.12999974E+03</pdfrwt>
<pdfrwt beam="2">  1       -4 0.36282515E-01 0.12999974E+03</pdfrwt>
<totfact> 0.22137609E+03</totfact>
</mgrwt>
</event>
<event>
 6    4  0.5642870E-004  0.1271105E+03  0.7818608E-02  0.1231807E+00
          4   -1    0    0  502    0  0.00000000000E+00  0.00000000000E+00  0.53053221131E+03  0.53053373139E+03  0.12700000000E+01 0.  1.
         -4   -1    0    0    0  501 -0.00000000000E+00 -0.00000000000E+00 -0.10954799917E+02  0.11028170348E+02  0.12700000000E+01 0.  1.
         25    2    1    2    0    0 -0.17673999460E+02 -0.14854550607E+02  0.39777570320E+03  0.41759140505E+03  0.12499617426E+03 0.  0.
    9000005    1    3    3    0    0 -0.30092401788E+02 -0.28883042479E+02  0.39660422624E+03  0.39879279715E+03  0.10000000000E+01 0.  0.
    9000005    1    3    3    0    0  0.12418402328E+02  0.14028491872E+02  0.11714769645E+01  0.18798607897E+02  0.10000000000E+01 0.  0.
         21    1    1    2  502  501  0.17673999460E+02  0.14854550607E+02  0.12180170819E+03  0.12397049669E+03  0.00000000000E+00 0.  1.
<mgrwt>
<rscale>  1 0.12711047E+03</rscale>
<asrwt>0</asrwt>
<pdfrwt beam="1">  1        4 0.81626109E-01 0.12711047E+03</pdfrwt>
<pdfrwt beam="2">  1       -4 0.16911145E-02 0.12711047E+03</pdfrwt>
<totfact> 0.28975497E+03</totfact>
</mgrwt>
</event>
<event>
 6    4  0.5642870E-004  0.1280330E+03  0.7818608E-02  0.1230404E+00
         -4   -1    0    0    0  501 -0.00000000000E+00  0.00000000000E+00  0.54025924277E+01  0.55498562990E+01  0.12700000000E+01 0. -1.
          4   -1    0    0  502    0  0.00000000000E+00 -0.00000000000E+00 -0.17919582620E+04  0.17919587120E+04  0.12700000000E+01 0. -1.
         25    2    1    2    0    0 -0.13592170014E+02  0.24140809830E+02 -0.76972776102E+03  0.78030331796E+03  0.12499966460E+03 0.  0.
    9000005    1    3    3    0    0  0.97497316351E+01  0.52922968709E+00 -0.72248612073E+03  0.72255278838E+03  0.10000000000E+01 0.  0.
    9000005    1    3    3    0    0 -0.23341901649E+02  0.23611580142E+02 -0.47241640299E+02  0.57750529587E+02  0.10000000000E+01 0.  0.
         21    1    1    2  502  501  0.13592170014E+02 -0.24140809830E+02 -0.10168279085E+04  0.10172052503E+04  0.00000000000E+00 0. -1.
<mgrwt>
<rscale>  1 0.12803297E+03</rscale>
<asrwt>0</asrwt>
<pdfrwt beam="2">  1        4 0.27569678E+00 0.12803297E+03</pdfrwt>
<pdfrwt beam="1">  1       -4 0.84253211E-03 0.12803297E+03</pdfrwt>
<totfact> 0.32879623E+02</totfact>
</mgrwt>
</event>
<event>
 6    4  0.5642870E-004  0.1378011E+03  0.7818608E-02  0.1216319E+00
          4   -1    0    0  502    0  0.00000000000E+00  0.00000000000E+00  0.22291812323E+03  0.22292174089E+03  0.12700000000E+01 0.  1.
         -4   -1    0    0    0  501 -0.00000000000E+00 -0.00000000000E+00 -0.92389302118E+02  0.92398030530E+02  0.12700000000E+01 0.  1.
         25    2    1    2    0    0 -0.41000341277E+01  0.57856017533E+02 -0.33095375295E+02  0.14171963694E+03  0.12500009033E+03 0.  0.
    9000005    1    3    3    0    0 -0.15968904827E+02  0.18032896481E+02 -0.77341404476E+02  0.81011629555E+02  0.10000000000E+01 0.  0.
    9000005    1    3    3    0    0  0.11868870699E+02  0.39823121052E+02  0.44246029181E+02  0.60708007382E+02  0.10000000000E+01 0.  0.
         21    1    1    2  502  501  0.41000341277E+01 -0.57856017533E+02  0.16362419640E+03  0.17360013449E+03  0.00000000000E+00 0.  1.
<mgrwt>
<rscale>  1 0.13780113E+03</rscale>
<asrwt>0</asrwt>
<pdfrwt beam="1">  1        4 0.34296045E-01 0.13780113E+03</pdfrwt>
<pdfrwt beam="2">  1       -4 0.14214689E-01 0.13780113E+03</pdfrwt>
<totfact> 0.56617398E+02</totfact>
</mgrwt>
</event>
<event>
 6    4  0.5642870E-004  0.1270809E+03  0.7818608E-02  0.1231853E+00
          4   -1    0    0  502    0  0.00000000000E+00  0.00000000000E+00  0.86557814219E+02  0.86567130612E+02  0.12700000000E+01 0.  1.
         -4   -1    0    0    0  501 -0.00000000000E+00 -0.00000000000E+00 -0.65053510244E+02  0.65065905781E+02  0.12700000000E+01 0.  1.
         25    2    1    2    0    0  0.18749559420E+02  0.13027915753E+02  0.15480502107E+02  0.12802035429E+03  0.12501316970E+03 0.  0.
    9000005    1    3    3    0    0  0.52914493023E+02 -0.21413814849E+02  0.43692060664E+02  0.71892219352E+02  0.10000000000E+01 0.  0.
    9000005    1    3    3    0    0 -0.34164933603E+02  0.34441730602E+02 -0.28211558557E+02  0.56128134934E+02  0.10000000000E+01 0.  0.
         21    1    1    2  502  501 -0.18749559420E+02 -0.13027915753E+02  0.60238018679E+01  0.23612682107E+02  0.00000000000E+00 0. -1.
<mgrwt>
<rscale>  1 0.12708094E+03</rscale>
<asrwt>0</asrwt>
<pdfrwt beam="1">  1        4 0.13318257E-01 0.12708094E+03</pdfrwt>
<pdfrwt beam="2">  1       -4 0.10009903E-01 0.12708094E+03</pdfrwt>
<totfact> 0.56403975E+03</totfact>
</mgrwt>
</event>
<event>
 6    4  0.5642870E-004  0.1296181E+03  0.7818608E-02  0.1228024E+00
         -4   -1    0    0    0  501 -0.00000000000E+00  0.00000000000E+00  0.29312071378E+03  0.29312346502E+03  0.12700000000E+01 0. -1.
          4   -1    0    0  502    0  0.00000000000E+00 -0.00000000000E+00 -0.34004785406E+02  0.34028492922E+02  0.12700000000E+01 0. -1.
         25    2    1    2    0    0  0.32273806131E+02 -0.11659692552E+02  0.26241176756E+03  0.29267864147E+03  0.12499321752E+03 0.  0.
    9000005    1    3    3    0    0 -0.26630399608E+02 -0.50775257431E+02  0.14033688160E+03  0.15160061111E+03  0.10000000000E+01 0.  0.
    9000005    1    3    3    0    0  0.58904205739E+02  0.39115564879E+02  0.12207488596E+03  0.14107803037E+03  0.10000000000E+01 0.  0.
         21    1    1    2  502  501 -0.32273806131E+02  0.11659692552E+02 -0.32958391886E+01  0.34473316471E+02  0.00000000000E+00 0. -1.
<mgrwt>
<rscale>  1 0.12961810E+03</rscale>
<asrwt>0</asrwt>
<pdfrwt beam="2">  1        4 0.52335407E-02 0.12961810E+03</pdfrwt>
<pdfrwt beam="1">  1       -4 0.45097530E-01 0.12961810E+03</pdfrwt>
<totfact> 0.17293330E+03</totfact>
</mgrwt>
</event>
<event>
 6    4  0.5642870E-004  0.1303724E+03  0.7818608E-02  0.1226904E+00
         -4   -1    0    0    0  501 -0.00000000000E+00  0.00000000000E+00  0.31830597352E+02  0.31855922962E+02  0.12700000000E+01 0. -1.
          4   -1    0    0  502    0  0.00000000000E+00 -0.00000000000E+00 -0.27962979134E+03  0.27963267532E+03  0.12700000000E+01 0. -1.
         25    2    1    2    0    0 -0.35975681104E+02 -0.88976447459E+01 -0.11576375381E+03  0.17435080197E+03  0.12499415082E+03 0.  0.
    9000005    1    3    3    0    0 -0.45630556880E+02  0.50714957815E+02 -0.75505759823E+02  0.10176578223E+03  0.10000000000E+01 0.  0.
    9000005    1    3    3    0    0  0.96548757767E+01 -0.59612602561E+02 -0.40257993986E+02  0.72585019736E+02  0.10000000000E+01 0.  0.
         21    1    1    2  502  501  0.35975681104E+02  0.88976447459E+01 -0.13203544018E+03  0.13713779631E+03  0.00000000000E+00 0. -1.
<mgrwt>
<rscale>  1 0.13037237E+03</rscale>
<asrwt>0</asrwt>
<pdfrwt beam="2">  1        4 0.43022136E-01 0.13037237E+03</pdfrwt>
<pdfrwt beam="1">  1       -4 0.48991851E-02 0.13037237E+03</pdfrwt>
<totfact> 0.21152672E+03</totfact>
</mgrwt>
</event>
<event>
 6    4  0.5642870E-004  0.1416642E+03  0.7818608E-02  0.1211107E+00
         -4   -1    0    0    0  501 -0.00000000000E+00  0.00000000000E+00  0.58666961705E+02  0.58680706333E+02  0.12700000000E+01 0.  1.
          4   -1    0    0  502    0  0.00000000000E+00 -0.00000000000E+00 -0.28886370604E+03  0.28886649783E+03  0.12700000000E+01 0.  1.
         25    2    1    2    0    0 -0.43805248018E+02 -0.50245467546E+02 -0.41795792762E+02  0.14770120016E+03  0.12500099788E+03 0.  0.
    9000005    1    3    3    0    0 -0.88115986752E+02 -0.32585609923E+02 -0.27643680206E+02  0.97935806275E+02  0.10000000000E+01 0.  0.
    9000005    1    3    3    0    0  0.44310738734E+02 -0.17659857623E+02 -0.14152112555E+02  0.49765393882E+02  0.10000000000E+01 0.  0.
         21    1    1    2  502  501  0.43805248018E+02  0.50245467546E+02 -0.18840095157E+03  0.19984600401E+03  0.00000000000E+00 0.  1.
<mgrwt>
<rscale>  1 0.14166424E+03</rscale>
<asrwt>0</asrwt>
<pdfrwt beam="2">  1        4 0.44441841E-01 0.14166424E+03</pdfrwt>
<pdfrwt beam="1">  1       -4 0.90269586E-02 0.14166424E+03</pdfrwt>
<totfact> 0.74209026E+02</totfact>
</mgrwt>
</event>
<event>
 6    4  0.5642870E-004  0.1271977E+03  0.7818608E-02  0.1231674E+00
          4   -1    0    0  502    0  0.00000000000E+00  0.00000000000E+00  0.89361370973E+02  0.89370395110E+02  0.12700000000E+01 0.  1.
         -4   -1    0    0    0  501 -0.00000000000E+00 -0.00000000000E+00 -0.73356425079E+02  0.73367417839E+02  0.12700000000E+01 0.  1.
         25    2    1    2    0    0  0.35836381446E+01 -0.23289979347E+02 -0.10066549290E+02  0.12759541034E+03  0.12499595083E+03 0.  0.
    9000005    1    3    3    0    0  0.31396010784E+02  0.18738901485E+02  0.41613030767E+02  0.55403070778E+02  0.10000000000E+01 0.  0.
    9000005    1    3    3    0    0 -0.27812372640E+02 -0.42028880832E+02 -0.51679580057E+02  0.72192339557E+02  0.10000000000E+01 0.  0.
         21    1    1    2  502  501 -0.35836381446E+01  0.23289979347E+02  0.26071495184E+02  0.35142402614E+02  0.00000000000E+00 0.  1.
<mgrwt>
<rscale>  1 0.12719769E+03</rscale>
<asrwt>0</asrwt>
<pdfrwt beam="1">  1        4 0.13749443E-01 0.12719769E+03</pdfrwt>
<pdfrwt beam="2">  1       -4 0.11287144E-01 0.12719769E+03</pdfrwt>
<totfact> 0.43584045E+03</totfact>
</mgrwt>
</event>
<event>
 6    4  0.5642870E-004  0.1409091E+03  0.7818608E-02  0.1212111E+00
          4   -1    0    0  502    0  0.00000000000E+00  0.00000000000E+00  0.34162683901E+03  0.34162919962E+03  0.12700000000E+01 0. -1.
         -4   -1    0    0    0  501 -0.00000000000E+00 -0.00000000000E+00 -0.31470061502E+02  0.31495677020E+02  0.12700000000E+01 0. -1.
         25    2    1    2    0    0 -0.51246141293E+02  0.40066548335E+02  0.23199702073E+03  0.27143690846E+03  0.12499552933E+03 0.  0.
    9000005    1    3    3    0    0 -0.12569574674E+02 -0.85219157232E+01  0.20180308795E+03  0.20237614375E+03  0.10000000000E+01 0.  0.
    9000005    1    3    3    0    0 -0.38676566619E+02  0.48588464059E+02  0.30193932786E+02  0.69060764708E+02  0.10000000000E+01 0.  0.
         21    1    1    2  502  501  0.51246141293E+02 -0.40066548335E+02  0.78159756774E+02  0.10168796818E+03  0.00000000000E+00 0. -1.
<mgrwt>
<rscale>  1 0.14090911E+03</rscale>
<asrwt>0</asrwt>
<pdfrwt beam="1">  1        4 0.52560127E-01 0.14090911E+03</pdfrwt>
<pdfrwt beam="2">  1       -4 0.48436999E-02 0.14090911E+03</pdfrwt>
<totfact> 0.14620970E+03</totfact>
</mgrwt>
</event>
<event>
 6    4  0.5642870E-004  0.1310317E+03  0.7818608E-02  0.1225933E+00
          4   -1    0    0  502    0  0.00000000000E+00  0.00000000000E+00  0.13034700930E+03  0.13035319610E+03  0.12700000000E+01 0.  1.
         -4   -1    0    0    0  501 -0.00000000000E+00 -0.00000000000E+00 -0.69698823520E+02  0.69710393056E+02  0.12700000000E+01 0.  1.
         25    2    1    2    0    0  0.24367982278E+02  0.30758631333E+02  0.39261279025E+01  0.13109052331E+03  0.12501767419E+03 0.  0.
    9000005    1    3    3    0    0 -0.68250540764E+01  0.56643109441E+02 -0.41232757171E+02  0.70400024675E+02  0.10000000000E+01 0.  0.
    9000005    1    3    3    0    0  0.31193036354E+02 -0.25884478108E+02  0.45158885074E+02  0.60690498639E+02  0.10000000000E+01 0.  0.
         21    1    1    2  502  501 -0.24367982278E+02 -0.30758631333E+02  0.56722057873E+02  0.68973065838E+02  0.00000000000E+00 0.  1.
<mgrwt>
<rscale>  1 0.13103172E+03</rscale>
<asrwt>0</asrwt>
<pdfrwt beam="1">  1        4 0.20054752E-01 0.13103172E+03</pdfrwt>
<pdfrwt beam="2">  1       -4 0.10724262E-01 0.13103172E+03</pdfrwt>
<totfact> 0.24616561E+03</totfact>
</mgrwt>
</event>
<event>
 6    4  0.5642870E-004  0.1285239E+03  0.7818608E-02  0.1229663E+00
          4   -1    0    0  502    0  0.00000000000E+00  0.00000000000E+00  0.33872018627E+03  0.33872256713E+03  0.12700000000E+01 0.  1.
         -4   -1    0    0    0  501 -0.00000000000E+00 -0.00000000000E+00 -0.18872955384E+02  0.18915637576E+02  0.12700000000E+01 0.  1.
         25    2    1    2    0    0 -0.20260163965E+02  0.21962763481E+02  0.23763617889E+03  0.27016538440E+03  0.12500217672E+03 0.  0.
    9000005    1    3    3    0    0 -0.51688179314E+02 -0.31737736642E+02  0.77886115345E+02  0.98722838146E+02  0.10000000000E+01 0.  0.
    9000005    1    3    3    0    0  0.31428015349E+02  0.53700500123E+02  0.15975006355E+03  0.17144254625E+03  0.10000000000E+01 0.  0.
         21    1    1    2  502  501  0.20260163965E+02 -0.21962763481E+02  0.82211051992E+02  0.87472820311E+02  0.00000000000E+00 0.  1.
<mgrwt>
<rscale>  1 0.12852386E+03</rscale>
<asrwt>0</asrwt>
<pdfrwt beam="1">  1        4 0.52114269E-01 0.12852386E+03</pdfrwt>
<pdfrwt beam="2">  1       -4 0.29069977E-02 0.12852386E+03</pdfrwt>
<totfact> 0.32706241E+03</totfact>
</mgrwt>
</event>
<event>
 6    4  0.5642870E-004  0.1271719E+03  0.7818608E-02  0.1231714E+00
          4   -1    0    0  502    0  0.00000000000E+00  0.00000000000E+00  0.44838135589E+02  0.44856117789E+02  0.12700000000E+01 0. -1.
         -4   -1    0    0    0  501 -0.00000000000E+00 -0.00000000000E+00 -0.14182136139E+03  0.14182704765E+03  0.12700000000E+01 0. -1.
         25    2    1    2    0    0  0.18334540118E+02  0.14552863577E+02 -0.10166163215E+03  0.16281208072E+03  0.12499897991E+03 0.  0.
    9000005    1    3    3    0    0  0.40053350371E+02 -0.44431989865E+02 -0.28252048247E+02  0.66163818130E+02  0.10000000000E+01 0.  0.
    9000005    1    3    3    0    0 -0.21718810253E+02  0.58984853442E+02 -0.73409583898E+02  0.96648262595E+02  0.10000000000E+01 0.  0.
         21    1    1    2  502  501 -0.18334540118E+02 -0.14552863577E+02  0.46784063475E+01  0.23871084717E+02  0.00000000000E+00 0.  1.
<mgrwt>
<rscale>  1 0.12717188E+03</rscale>
<asrwt>0</asrwt>
<pdfrwt beam="1">  1        4 0.68999954E-02 0.12717188E+03</pdfrwt>
<pdfrwt beam="2">  1       -4 0.21820491E-01 0.12717188E+03</pdfrwt>
<totfact> 0.43714374E+03</totfact>
</mgrwt>
</event>
<event>
 6    4  0.5642870E-004  0.1563676E+03  0.7818608E-02  0.1192860E+00
         -4   -1    0    0    0  501 -0.00000000000E+00  0.00000000000E+00  0.72243167872E+03  0.72243279502E+03  0.12700000000E+01 0.  1.
          4   -1    0    0  502    0  0.00000000000E+00 -0.00000000000E+00 -0.22631611306E+02  0.22667217084E+02  0.12700000000E+01 0.  1.
         25    2    1    2    0    0  0.71669302018E+02 -0.60738591511E+02  0.50812007350E+03  0.53163599777E+03  0.12500063870E+03 0.  0.
    9000005    1    3    3    0    0  0.65792379209E+02 -0.87175922026E+02  0.48119020236E+03  0.49343012615E+03  0.10000000000E+01 0.  0.
    9000005    1    3    3    0    0  0.58769228085E+01  0.26437330515E+02  0.26929871144E+02  0.38205871621E+02  0.10000000000E+01 0.  0.
         21    1    1    2  502  501 -0.71669302018E+02  0.60738591511E+02  0.19167999391E+03  0.21346401433E+03  0.00000000000E+00 0.  1.
<mgrwt>
<rscale>  1 0.15636760E+03</rscale>
<asrwt>0</asrwt>
<pdfrwt beam="2">  1        4 0.34846119E-02 0.15636760E+03</pdfrwt>
<pdfrwt beam="1">  1       -4 0.11114614E+00 0.15636760E+03</pdfrwt>
<totfact> 0.48490518E+02</totfact>
</mgrwt>
</event>
<event>
 6    4  0.5642870E-004  0.1266669E+03  0.7818608E-02  0.1232487E+00
         -4   -1    0    0    0  501 -0.00000000000E+00  0.00000000000E+00  0.17302430187E+02  0.17348976638E+02  0.12700000000E+01 0.  1.
          4   -1    0    0  502    0  0.00000000000E+00 -0.00000000000E+00 -0.87187359215E+03  0.87187451711E+03  0.12700000000E+01 0.  1.
         25    2    1    2    0    0 -0.19802067582E+02 -0.52154292037E+01 -0.21656100910E+03  0.25088480799E+03  0.12500077454E+03 0.  0.
    9000005    1    3    3    0    0  0.15591104514E+02 -0.47481501389E+02 -0.17455100896E+03  0.18156715078E+03  0.10000000000E+01 0.  0.
    9000005    1    3    3    0    0 -0.35393172096E+02  0.42266072185E+02 -0.42010000141E+02  0.69317657208E+02  0.10000000000E+01 0.  0.
         21    1    1    2  502  501  0.19802067582E+02  0.52154292037E+01 -0.63801015287E+03  0.63833868576E+03  0.00000000000E+00 0.  1.
<mgrwt>
<rscale>  1 0.12666695E+03</rscale>
<asrwt>0</asrwt>
<pdfrwt beam="2">  1        4 0.13413802E+00 0.12666695E+03</pdfrwt>
<pdfrwt beam="1">  1       -4 0.26655647E-02 0.12666695E+03</pdfrwt>
<totfact> 0.45080146E+02</totfact>
</mgrwt>
</event>
<event>
 6    4  0.5642870E-004  0.1282322E+03  0.7818608E-02  0.1230103E+00
         -4   -1    0    0    0  501 -0.00000000000E+00  0.00000000000E+00  0.14190824061E+03  0.14191392339E+03  0.12700000000E+01 0.  1.
          4   -1    0    0  502    0  0.00000000000E+00 -0.00000000000E+00 -0.66311075697E+02  0.66323236200E+02  0.12700000000E+01 0.  1.
         25    2    1    2    0    0 -0.10703727963E+02 -0.26514922490E+02  0.10609444640E+03  0.16643171634E+03  0.12500349492E+03 0.  0.
    9000005    1    3    3    0    0 -0.93607473283E+01  0.18270920072E+02 -0.22367215839E+02  0.30376676172E+02  0.10000000000E+01 0.  0.
    9000005    1    3    3    0    0 -0.13429806343E+01 -0.44785842562E+02  0.12846166224E+03  0.13605504017E+03  0.10000000000E+01 0.  0.
         21    1    1    2  502  501  0.10703727963E+02  0.26514922490E+02 -0.30497281489E+02  0.41805443248E+02  0.00000000000E+00 0.  1.
<mgrwt>
<rscale>  1 0.12823215E+03</rscale>
<asrwt>0</asrwt>
<pdfrwt beam="2">  1        4 0.10203077E-01 0.12823215E+03</pdfrwt>
<pdfrwt beam="1">  1       -4 0.21833409E-01 0.12823215E+03</pdfrwt>
<totfact> 0.22850902E+03</totfact>
</mgrwt>
</event>
<event>
 6    4  0.5642870E-004  0.1392830E+03  0.7818608E-02  0.1214297E+00
         -4   -1    0    0    0  501 -0.00000000000E+00  0.00000000000E+00  0.25758451015E+02  0.25789740183E+02  0.12700000000E+01 0. -1.
          4   -1    0    0  502    0  0.00000000000E+00 -0.00000000000E+00 -0.77102138639E+03  0.77102243234E+03  0.12700000000E+01 0. -1.
         25    2    1    2    0    0  0.60658877066E+02  0.97606595484E+01 -0.17696574106E+03  0.22520350315E+03  0.12499989791E+03 0.  0.
    9000005    1    3    3    0    0  0.61400874810E+02  0.50078101412E+02 -0.16514351815E+03  0.18317004464E+03  0.10000000000E+01 0.  0.
    9000005    1    3    3    0    0 -0.74199774369E+00 -0.40317441864E+02 -0.11822222913E+02  0.42033458503E+02  0.10000000000E+01 0.  0.
         21    1    1    2  502  501 -0.60658877066E+02 -0.97606595484E+01 -0.56829719431E+03  0.57160866938E+03  0.00000000000E+00 0. -1.
<mgrwt>
<rscale>  1 0.13928296E+03</rscale>
<asrwt>0</asrwt>
<pdfrwt beam="2">  1        4 0.11862114E+00 0.13928296E+03</pdfrwt>
<pdfrwt beam="1">  1       -4 0.39653265E-02 0.13928296E+03</pdfrwt>
<totfact> 0.33142344E+02</totfact>
</mgrwt>
</event>
<event>
 6    4  0.5642870E-004  0.1331066E+03  0.7818608E-02  0.1222918E+00
         -4   -1    0    0    0  501 -0.00000000000E+00  0.00000000000E+00  0.11664480720E+03  0.11665172072E+03  0.12700000000E+01 0.  1.
          4   -1    0    0  502    0  0.00000000000E+00 -0.00000000000E+00 -0.79049085570E+02  0.79059286801E+02  0.12700000000E+01 0.  1.
         25    2    1    2    0    0 -0.42475099489E+02 -0.16975616472E+02  0.58529571884E+02  0.14540661688E+03  0.12500027127E+03 0.  0.
    9000005    1    3    3    0    0  0.36495424037E+02  0.37434575816E+01 -0.10839676452E+02  0.38267845979E+02  0.10000000000E+01 0.  0.
    9000005    1    3    3    0    0 -0.78970523525E+02 -0.20719074054E+02  0.69369248336E+02  0.10713877090E+03  0.10000000000E+01 0.  0.
         21    1    1    2  502  501  0.42475099489E+02  0.16975616472E+02 -0.20933850254E+02  0.50304390640E+02  0.00000000000E+00 0. -1.
<mgrwt>
<rscale>  1 0.13310662E+03</rscale>
<asrwt>0</asrwt>
<pdfrwt beam="2">  1        4 0.12162714E-01 0.13310662E+03</pdfrwt>
<pdfrwt beam="1">  1       -4 0.17946671E-01 0.13310662E+03</pdfrwt>
<totfact> 0.24321088E+03</totfact>
</mgrwt>
</event>
<event>
 6    4  0.5642870E-004  0.1291813E+03  0.7818608E-02  0.1228676E+00
          4   -1    0    0  502    0  0.00000000000E+00  0.00000000000E+00  0.29777606611E+02  0.29804676738E+02  0.12700000000E+01 0. -1.
         -4   -1    0    0    0  501 -0.00000000000E+00 -0.00000000000E+00 -0.32848542435E+03  0.32848787940E+03  0.12700000000E+01 0. -1.
         25    2    1    2    0    0  0.83547017313E+00  0.32576758467E+02 -0.29899031112E+03  0.32570386170E+03  0.12500342469E+03 0.  0.
    9000005    1    3    3    0    0  0.17943499919E+02 -0.45478264710E+02 -0.12561096604E+03  0.13479375557E+03  0.10000000000E+01 0.  0.
    9000005    1    3    3    0    0 -0.17108029746E+02  0.78055023177E+02 -0.17337934507E+03  0.19091010613E+03  0.10000000000E+01 0.  0.
         21    1    1    2  502  501 -0.83547017313E+00 -0.32576758467E+02  0.28249337379E+00  0.32588694437E+02  0.00000000000E+00 0. -1.
<mgrwt>
<rscale>  1 0.12918127E+03</rscale>
<asrwt>0</asrwt>
<pdfrwt beam="1">  1        4 0.45834416E-02 0.12918127E+03</pdfrwt>
<pdfrwt beam="2">  1       -4 0.50538488E-01 0.12918127E+03</pdfrwt>
<totfact> 0.16983379E+03</totfact>
</mgrwt>
</event>
<event>
 6    4  0.5642870E-004  0.1277281E+03  0.7818608E-02  0.1230866E+00
         -4   -1    0    0    0  501 -0.00000000000E+00  0.00000000000E+00  0.75854441272E+02  0.75865072073E+02  0.12700000000E+01 0.  1.
          4   -1    0    0  502    0  0.00000000000E+00 -0.00000000000E+00 -0.81264678467E+02  0.81274601607E+02  0.12700000000E+01 0.  1.
         25    2    1    2    0    0 -0.52535649119E+01 -0.25717735404E+02  0.73786664897E+01  0.12794107926E+03  0.12500189272E+03 0.  0.
    9000005    1    3    3    0    0  0.58278784185E+02 -0.26672293457E+02  0.59775075175E+01  0.64378245708E+02  0.10000000000E+01 0.  0.
    9000005    1    3    3    0    0 -0.63532349097E+02  0.95455805291E+00  0.14011589721E+01  0.63562833553E+02  0.10000000000E+01 0.  0.
         21    1    1    2  502  501  0.52535649119E+01  0.25717735404E+02 -0.12788903685E+02  0.29198594419E+02  0.00000000000E+00 0.  1.
<mgrwt>
<rscale>  1 0.12772813E+03</rscale>
<asrwt>0</asrwt>
<pdfrwt beam="2">  1        4 0.12503839E-01 0.12772813E+03</pdfrwt>
<pdfrwt beam="1">  1       -4 0.11671495E-01 0.12772813E+03</pdfrwt>
<totfact> 0.48534119E+03</totfact>
</mgrwt>
</event>
<event>
 6    4  0.5642870E-004  0.1313673E+03  0.7818608E-02  0.1225441E+00
          4   -1    0    0  502    0  0.00000000000E+00  0.00000000000E+00  0.10789742244E+02  0.10864227432E+02  0.12700000000E+01 0. -1.
         -4   -1    0    0    0  501 -0.00000000000E+00 -0.00000000000E+00 -0.80928494730E+03  0.80928594379E+03  0.12700000000E+01 0. -1.
         25    2    1    2    0    0  0.31615898846E+02 -0.25148581241E+02 -0.71982123609E+03  0.73171030697E+03  0.12500138076E+03 0.  0.
    9000005    1    3    3    0    0  0.69024389841E+02  0.59736624786E+01 -0.25161942014E+03  0.26098540884E+03  0.10000000000E+01 0.  0.
    9000005    1    3    3    0    0 -0.37408490995E+02 -0.31122243720E+02 -0.46820181595E+03  0.47072489813E+03  0.10000000000E+01 0.  0.
         21    1    1    2  502  501 -0.31615898846E+02  0.25148581241E+02 -0.78673968958E+02  0.88439864258E+02  0.00000000000E+00 0. -1.
<mgrwt>
<rscale>  1 0.13136728E+03</rscale>
<asrwt>0</asrwt>
<pdfrwt beam="1">  1        4 0.16657673E-02 0.13136728E+03</pdfrwt>
<pdfrwt beam="2">  1       -4 0.12451114E+00 0.13136728E+03</pdfrwt>
<totfact> 0.11246969E+03</totfact>
</mgrwt>
</event>
<event>
 6    4  0.5642870E-004  0.1288828E+03  0.7818608E-02  0.1229123E+00
         -4   -1    0    0    0  501 -0.00000000000E+00  0.00000000000E+00  0.11882724510E+03  0.11883403165E+03  0.12700000000E+01 0.  1.
          4   -1    0    0  502    0  0.00000000000E+00 -0.00000000000E+00 -0.55409776484E+02  0.55424328864E+02  0.12700000000E+01 0.  1.
         25    2    1    2    0    0 -0.96813014395E+01 -0.29864449877E+02  0.61503292063E+02  0.14280558582E+03  0.12500066977E+03 0.  0.
    9000005    1    3    3    0    0 -0.13899287401E+01  0.49031385885E+02  0.29570035692E+02  0.57283468074E+02  0.10000000000E+01 0.  0.
    9000005    1    3    3    0    0 -0.82913726994E+01 -0.78895835762E+02  0.31933256371E+02  0.85522117749E+02  0.10000000000E+01 0.  0.
         21    1    1    2  502  501  0.96813014395E+01  0.29864449877E+02  0.19141765550E+01  0.31452774693E+02  0.00000000000E+00 0.  1.
<mgrwt>
<rscale>  1 0.12888282E+03</rscale>
<asrwt>0</asrwt>
<pdfrwt beam="2">  1        4 0.85262225E-02 0.12888282E+03</pdfrwt>
<pdfrwt beam="1">  1       -4 0.18282756E-01 0.12888282E+03</pdfrwt>
<totfact> 0.42506769E+03</totfact>
</mgrwt>
</event>
<event>
 6    4  0.5642870E-004  0.1277525E+03  0.7818608E-02  0.1230829E+00
         -4   -1    0    0    0  501 -0.00000000000E+00  0.00000000000E+00  0.36598337617E+02  0.36620366142E+02  0.12700000000E+01 0.  1.
          4   -1    0    0  502    0  0.00000000000E+00 -0.00000000000E+00 -0.16256789803E+03  0.16257285865E+03  0.12700000000E+01 0.  1.
         25    2    1    2    0    0 -0.19793029968E+02 -0.17340928641E+02 -0.10017490767E+03  0.16234439914E+03  0.12501287920E+03 0.  0.
    9000005    1    3    3    0    0 -0.69477469658E+02 -0.17595176173E+02 -0.83228210166E+02  0.10983917326E+03  0.10000000000E+01 0.  0.
    9000005    1    3    3    0    0  0.49684439690E+02  0.25424753223E+00 -0.16946697499E+02  0.52505225885E+02  0.10000000000E+01 0.  0.
         21    1    1    2  502  501  0.19793029968E+02  0.17340928641E+02 -0.25794652748E+02  0.36848825651E+02  0.00000000000E+00 0.  1.
<mgrwt>
<rscale>  1 0.12775246E+03</rscale>
<asrwt>0</asrwt>
<pdfrwt beam="2">  1        4 0.25012521E-01 0.12775246E+03</pdfrwt>
<pdfrwt beam="1">  1       -4 0.56325897E-02 0.12775246E+03</pdfrwt>
<totfact> 0.47434511E+03</totfact>
</mgrwt>
</event>
<event>
 6    4  0.5642870E-004  0.1295028E+03  0.7818608E-02  0.1228195E+00
          4   -1    0    0  502    0  0.00000000000E+00  0.00000000000E+00  0.26182886764E+02  0.26213669322E+02  0.12700000000E+01 0. -1.
         -4   -1    0    0    0  501 -0.00000000000E+00 -0.00000000000E+00 -0.53380177990E+03  0.53380329066E+03  0.12700000000E+01 0. -1.
         25    2    1    2    0    0 -0.33166313138E+02 -0.66834372519E+01 -0.50991809241E+03  0.52610591491E+03  0.12500520021E+03 0.  0.
    9000005    1    3    3    0    0 -0.56525628507E+01 -0.41091039130E+02 -0.54175894161E+02  0.68238203901E+02  0.10000000000E+01 0.  0.
    9000005    1    3    3    0    0 -0.27513750287E+02  0.34407601878E+02 -0.45574219825E+03  0.45786771101E+03  0.10000000000E+01 0.  0.
         21    1    1    2  502  501  0.33166313138E+02  0.66834372519E+01  0.22991992751E+01  0.33911045073E+02  0.00000000000E+00 0. -1.
<mgrwt>
<rscale>  1 0.12950279E+03</rscale>
<asrwt>0</asrwt>
<pdfrwt beam="1">  1        4 0.40306209E-02 0.12950279E+03</pdfrwt>
<pdfrwt beam="2">  1       -4 0.82125826E-01 0.12950279E+03</pdfrwt>
<totfact> 0.74300997E+02</totfact>
</mgrwt>
</event>
<event>
 6    4  0.5642870E-004  0.1308380E+03  0.7818608E-02  0.1226218E+00
          4   -1    0    0  502    0  0.00000000000E+00  0.00000000000E+00  0.25482927531E+03  0.25483243995E+03  0.12700000000E+01 0. -1.
         -4   -1    0    0    0  501 -0.00000000000E+00 -0.00000000000E+00 -0.34721774328E+02  0.34744992625E+02  0.12700000000E+01 0. -1.
         25    2    1    2    0    0 -0.32657056701E+02  0.20665383557E+02  0.10378378219E+03  0.16700194978E+03  0.12500014542E+03 0.  0.
    9000005    1    3    3    0    0 -0.34739310806E+02  0.42045973153E+02 -0.62314510646E+01  0.54904595035E+02  0.10000000000E+01 0.  0.
    9000005    1    3    3    0    0  0.20822541051E+01 -0.21380589596E+02  0.11001523326E+03  0.11209735475E+03  0.10000000000E+01 0.  0.
         21    1    1    2  502  501  0.32657056701E+02 -0.20665383557E+02  0.11632371879E+03  0.12257548279E+03  0.00000000000E+00 0. -1.
<mgrwt>
<rscale>  1 0.13083798E+03</rscale>
<asrwt>0</asrwt>
<pdfrwt beam="1">  1        4 0.39206533E-01 0.13083798E+03</pdfrwt>
<pdfrwt beam="2">  1       -4 0.53438409E-02 0.13083798E+03</pdfrwt>
<totfact> 0.22113510E+03</totfact>
</mgrwt>
</event>
<event>
 6    4  0.5642870E-004  0.1339502E+03  0.7818608E-02  0.1221709E+00
          4   -1    0    0  502    0  0.00000000000E+00  0.00000000000E+00  0.89303618619E+02  0.89312648591E+02  0.12700000000E+01 0. -1.
         -4   -1    0    0    0  501 -0.00000000000E+00 -0.00000000000E+00 -0.12068078957E+03  0.12068747189E+03  0.12700000000E+01 0. -1.
         25    2    1    2    0    0 -0.23602707135E+02 -0.41962597759E+02 -0.67322625144E+02  0.14991665294E+03  0.12499887831E+03 0.  0.
    9000005    1    3    3    0    0  0.34926657258E+02 -0.44265636955E+02 -0.71641262832E+02  0.91174495022E+02  0.10000000000E+01 0.  0.
    9000005    1    3    3    0    0 -0.58529364393E+02  0.23030391962E+01  0.43186376880E+01  0.58742157922E+02  0.10000000000E+01 0.  0.
         21    1    1    2  502  501  0.23602707135E+02  0.41962597759E+02  0.35945454190E+02  0.60083467541E+02  0.00000000000E+00 0. -1.
<mgrwt>
<rscale>  1 0.13395024E+03</rscale>
<asrwt>0</asrwt>
<pdfrwt beam="1">  1        4 0.13740227E-01 0.13395024E+03</pdfrwt>
<pdfrwt beam="2">  1       -4 0.18567484E-01 0.13395024E+03</pdfrwt>
<totfact> 0.18583667E+03</totfact>
</mgrwt>
</event>
<event>
 6    4  0.5642870E-004  0.1921692E+03  0.7818608E-02  0.1156519E+00
         -4   -1    0    0    0  501 -0.00000000000E+00  0.00000000000E+00  0.21313409678E+02  0.21351213832E+02  0.12700000000E+01 0. -1.
          4   -1    0    0  502    0  0.00000000000E+00 -0.00000000000E+00 -0.15720447640E+04  0.15720452770E+04  0.12700000000E+01 0. -1.
         25    2    1    2    0    0 -0.14501515060E+03  0.16802218691E+02 -0.56202387750E+03  0.59396956344E+03  0.12496917603E+03 0.  0.
    9000005    1    3    3    0    0 -0.82434685544E+02 -0.35437680762E+01 -0.11176347344E+03  0.13892483460E+03  0.10000000000E+01 0.  0.
    9000005    1    3    3    0    0 -0.62580465056E+02  0.20345986767E+02 -0.45026040406E+03  0.45504472884E+03  0.10000000000E+01 0.  0.
         21    1    1    2  502  501  0.14501515060E+03 -0.16802218691E+02 -0.98870747680E+03  0.99942692736E+03  0.00000000000E+00 0. -1.
<mgrwt>
<rscale>  1 0.19216921E+03</rscale>
<asrwt>0</asrwt>
<pdfrwt beam="2">  1        4 0.24185590E+00 0.19216921E+03</pdfrwt>
<pdfrwt beam="1">  1       -4 0.32819348E-02 0.19216921E+03</pdfrwt>
<totfact> 0.67219278E+01</totfact>
</mgrwt>
</event>
<event>
 6    4  0.5642870E-004  0.1299333E+03  0.7818608E-02  0.1227555E+00
         -4   -1    0    0    0  501 -0.00000000000E+00  0.00000000000E+00  0.25563325362E+03  0.25563640831E+03  0.12700000000E+01 0. -1.
          4   -1    0    0  502    0  0.00000000000E+00 -0.00000000000E+00 -0.28661071304E+02  0.28689194975E+02  0.12700000000E+01 0. -1.
         25    2    1    2    0    0 -0.27405802784E+02 -0.22456165054E+02  0.20476439675E+03  0.24251001869E+03  0.12500917413E+03 0.  0.
    9000005    1    3    3    0    0  0.18773819728E+02  0.43449341720E+02  0.55648899500E+02  0.73062313258E+02  0.10000000000E+01 0.  0.
    9000005    1    3    3    0    0 -0.46179622512E+02 -0.65905506773E+02  0.14911549725E+03  0.16944770544E+03  0.10000000000E+01 0.  0.
         21    1    1    2  502  501  0.27405802784E+02  0.22456165054E+02  0.22207785567E+02  0.41815584594E+02  0.00000000000E+00 0. -1.
<mgrwt>
<rscale>  1 0.12993326E+03</rscale>
<asrwt>0</asrwt>
<pdfrwt beam="2">  1        4 0.44118017E-02 0.12993326E+03</pdfrwt>
<pdfrwt beam="1">  1       -4 0.39330598E-01 0.12993326E+03</pdfrwt>
<totfact> 0.29836465E+03</totfact>
</mgrwt>
</event>
<event>
 6    4  0.5642870E-004  0.1268213E+03  0.7818608E-02  0.1232250E+00
          4   -1    0    0  502    0  0.00000000000E+00  0.00000000000E+00  0.32315778546E+03  0.32316028099E+03  0.12700000000E+01 0. -1.
         -4   -1    0    0    0  501 -0.00000000000E+00 -0.00000000000E+00 -0.19585933988E+02  0.19627065756E+02  0.12700000000E+01 0. -1.
         25    2    1    2    0    0  0.20816194252E+02 -0.50394197310E+01  0.19849670684E+03  0.23555164507E+03  0.12499970068E+03 0.  0.
    9000005    1    3    3    0    0 -0.46862012430E+02  0.34104748050E+01  0.35624392144E+02  0.58972678954E+02  0.10000000000E+01 0.  0.
    9000005    1    3    3    0    0  0.67678206682E+02 -0.84498945360E+01  0.16287231470E+03  0.17657896611E+03  0.10000000000E+01 0.  0.
         21    1    1    2  502  501 -0.20816194252E+02  0.50394197310E+01  0.10507514463E+03  0.10723570168E+03  0.00000000000E+00 0. -1.
<mgrwt>
<rscale>  1 0.12682127E+03</rscale>
<asrwt>0</asrwt>
<pdfrwt beam="1">  1        4 0.49719934E-01 0.12682127E+03</pdfrwt>
<pdfrwt beam="2">  1       -4 0.30165768E-02 0.12682127E+03</pdfrwt>
<totfact> 0.33866432E+03</totfact>
</mgrwt>
</event>
<event>
 6    4  0.5642870E-004  0.1310165E+03  0.7818608E-02  0.1225955E+00
          4   -1    0    0  502    0  0.00000000000E+00  0.00000000000E+00  0.84571768367E+02  0.84581303517E+02  0.12700000000E+01 0. -1.
         -4   -1    0    0    0  501 -0.00000000000E+00 -0.00000000000E+00 -0.86942253600E+02  0.86951528802E+02  0.12700000000E+01 0. -1.
         25    2    1    2    0    0  0.36495389965E+02  0.14442654406E+02  0.69195752810E+01  0.13119911219E+03  0.12499929105E+03 0.  0.
    9000005    1    3    3    0    0  0.93378025109E+01  0.44401685582E+01 -0.58627230150E+02  0.59540421292E+02  0.10000000000E+01 0.  0.
    9000005    1    3    3    0    0  0.27157587454E+02  0.10002485848E+02  0.65546805431E+02  0.71658690901E+02  0.10000000000E+01 0.  0.
         21    1    1    2  502  501 -0.36495389965E+02 -0.14442654406E+02 -0.92900605142E+01  0.40333720128E+02  0.00000000000E+00 0. -1.
<mgrwt>
<rscale>  1 0.13101651E+03</rscale>
<asrwt>0</asrwt>
<pdfrwt beam="1">  1        4 0.13012488E-01 0.13101651E+03</pdfrwt>
<pdfrwt beam="2">  1       -4 0.13377178E-01 0.13101651E+03</pdfrwt>
<totfact> 0.36095164E+03</totfact>
</mgrwt>
</event>
<event>
 6    4  0.5642870E-004  0.1309765E+03  0.7818608E-02  0.1226014E+00
         -4   -1    0    0    0  501 -0.00000000000E+00  0.00000000000E+00  0.12416887963E+03  0.12417537424E+03  0.12700000000E+01 0.  1.
          4   -1    0    0  502    0  0.00000000000E+00 -0.00000000000E+00 -0.59379773718E+02  0.59393353389E+02  0.12700000000E+01 0.  1.
         25    2    1    2    0    0  0.37171313411E+02 -0.12192224478E+02  0.60305234106E+02  0.14419282149E+03  0.12499796650E+03 0.  0.
    9000005    1    3    3    0    0  0.35152687665E+02  0.52821643861E+02  0.15868174948E+02  0.65411287148E+02  0.10000000000E+01 0.  0.
    9000005    1    3    3    0    0  0.20186257464E+01 -0.65013868338E+02  0.44437059159E+02  0.78781534340E+02  0.10000000000E+01 0.  0.
         21    1    1    2  502  501 -0.37171313411E+02  0.12192224478E+02  0.44838718068E+01  0.39375906146E+02  0.00000000000E+00 0.  1.
<mgrwt>
<rscale>  1 0.13097652E+03</rscale>
<asrwt>0</asrwt>
<pdfrwt beam="2">  1        4 0.91368942E-02 0.13097652E+03</pdfrwt>
<pdfrwt beam="1">  1       -4 0.19104448E-01 0.13097652E+03</pdfrwt>
<totfact> 0.35159161E+03</totfact>
</mgrwt>
</event>
<event>
 6    4  0.5642870E-004  0.1330345E+03  0.7818608E-02  0.1223021E+00
          4   -1    0    0  502    0  0.00000000000E+00  0.00000000000E+00  0.73161373195E+03  0.73161483424E+03  0.12700000000E+01 0. -1.
         -4   -1    0    0    0  501 -0.00000000000E+00 -0.00000000000E+00 -0.32793144097E+02  0.32817726914E+02  0.12700000000E+01 0. -1.
         25    2    1    2    0    0 -0.43924908764E+02 -0.11972691874E+02  0.10662816482E+03  0.17049265775E+03  0.12500175140E+03 0.  0.
    9000005    1    3    3    0    0 -0.26059029569E+02 -0.29727465045E+02 -0.17922515022E+02  0.43416721949E+02  0.10000000000E+01 0.  0.
    9000005    1    3    3    0    0 -0.17865879195E+02  0.17754773172E+02  0.12455067984E+03  0.12707593580E+03  0.10000000000E+01 0.  0.
         21    1    1    2  502  501  0.43924908764E+02  0.11972691874E+02  0.59219242304E+03  0.59393990341E+03  0.00000000000E+00 0. -1.
<mgrwt>
<rscale>  1 0.13303451E+03</rscale>
<asrwt>0</asrwt>
<pdfrwt beam="1">  1        4 0.11255793E+00 0.13303451E+03</pdfrwt>
<pdfrwt beam="2">  1       -4 0.50470752E-02 0.13303451E+03</pdfrwt>
<totfact> 0.25326956E+02</totfact>
</mgrwt>
</event>
<event>
 6    4  0.5642870E-004  0.1355813E+03  0.7818608E-02  0.1219401E+00
         -4   -1    0    0    0  501 -0.00000000000E+00  0.00000000000E+00  0.13949154463E+03  0.13949732586E+03  0.12700000000E+01 0. -1.
          4   -1    0    0  502    0  0.00000000000E+00 -0.00000000000E+00 -0.85938176115E+02  0.85947559674E+02  0.12700000000E+01 0. -1.
         25    2    1    2    0    0  0.17937486859E+02 -0.49356021932E+02  0.88913326419E+02  0.16213535261E+03  0.12499809045E+03 0.  0.
    9000005    1    3    3    0    0 -0.32552849802E+02  0.25300706910E+02  0.47614043857E+02  0.62991356334E+02  0.10000000000E+01 0.  0.
    9000005    1    3    3    0    0  0.50490336660E+02 -0.74656728842E+02  0.41299282562E+02  0.99143996276E+02  0.10000000000E+01 0.  0.
         21    1    1    2  502  501 -0.17937486859E+02  0.49356021932E+02 -0.35359957908E+02  0.63309532924E+02  0.00000000000E+00 0. -1.
<mgrwt>
<rscale>  1 0.13558131E+03</rscale>
<asrwt>0</asrwt>
<pdfrwt beam="2">  1        4 0.13222425E-01 0.13558131E+03</pdfrwt>
<pdfrwt beam="1">  1       -4 0.21461404E-01 0.13558131E+03</pdfrwt>
<totfact> 0.15345209E+03</totfact>
</mgrwt>
</event>
<event>
 6    4  0.5642870E-004  0.1267850E+03  0.7818608E-02  0.1232306E+00
         -4   -1    0    0    0  501 -0.00000000000E+00  0.00000000000E+00  0.23163566361E+02  0.23198355687E+02  0.12700000000E+01 0.  1.
          4   -1    0    0  502    0  0.00000000000E+00 -0.00000000000E+00 -0.26064804211E+03  0.26065113611E+03  0.12700000000E+01 0.  1.
         25    2    1    2    0    0  0.18801486762E+02 -0.97122437515E+01 -0.16349854651E+03  0.20689664060E+03  0.12500648621E+03 0.  0.
    9000005    1    3    3    0    0  0.72409297004E+02 -0.90872006405E+01 -0.99664432609E+02  0.12353008798E+03  0.10000000000E+01 0.  0.
    9000005    1    3    3    0    0 -0.53607810241E+02 -0.62504311099E+00 -0.63834113903E+02  0.83366552619E+02  0.10000000000E+01 0.  0.
         21    1    1    2  502  501 -0.18801486762E+02  0.97122437515E+01 -0.73985929232E+02  0.76952851197E+02  0.00000000000E+00 0.  1.
<mgrwt>
<rscale>  1 0.12678504E+03</rscale>
<asrwt>0</asrwt>
<pdfrwt beam="2">  1        4 0.40102611E-01 0.12678504E+03</pdfrwt>
<pdfrwt beam="1">  1       -4 0.35665399E-02 0.12678504E+03</pdfrwt>
<totfact> 0.39999399E+03</totfact>
</mgrwt>
</event>
<event>
 6    4  0.5642870E-004  0.1296147E+03  0.7818608E-02  0.1228029E+00
         -4   -1    0    0    0  501 -0.00000000000E+00  0.00000000000E+00  0.49789585385E+03  0.49789747357E+03  0.12700000000E+01 0.  1.
          4   -1    0    0  502    0  0.00000000000E+00 -0.00000000000E+00 -0.13738635032E+02  0.13797209593E+02  0.12700000000E+01 0.  1.
         25    2    1    2    0    0  0.15868733051E+02 -0.30389503523E+02  0.40991891925E+03  0.42992266021E+03  0.12499853917E+03 0.  0.
    9000005    1    3    3    0    0 -0.42650560368E+02 -0.42671154811E+02  0.12508128866E+03  0.13887485923E+03  0.10000000000E+01 0.  0.
    9000005    1    3    3    0    0  0.58519293418E+02  0.12281651289E+02  0.28483763059E+03  0.29104780099E+03  0.10000000000E+01 0.  0.
         21    1    1    2  502  501 -0.15868733051E+02  0.30389503523E+02  0.74238299572E+02  0.81772022944E+02  0.00000000000E+00 0.  1.
<mgrwt>
<rscale>  1 0.12961471E+03</rscale>
<asrwt>0</asrwt>
<pdfrwt beam="2">  1        4 0.21182668E-02 0.12961471E+03</pdfrwt>
<pdfrwt beam="1">  1       -4 0.76603981E-01 0.12961471E+03</pdfrwt>
<totfact> 0.23692774E+03</totfact>
</mgrwt>
</event>
<event>
 6    4  0.5642870E-004  0.1276403E+03  0.7818608E-02  0.1231000E+00
         -4   -1    0    0    0  501 -0.00000000000E+00  0.00000000000E+00  0.13799237747E+03  0.13799822151E+03  0.12700000000E+01 0.  1.
          4   -1    0    0  502    0  0.00000000000E+00 -0.00000000000E+00 -0.81356691699E+02  0.81366603618E+02  0.12700000000E+01 0.  1.
         25    2    1    2    0    0 -0.18941223182E+02  0.17586211504E+02  0.10450415576E+03  0.16496413405E+03  0.12499600867E+03 0.  0.
    9000005    1    3    3    0    0 -0.51538493523E+01  0.12530684737E+02 -0.28276042825E+02  0.31370604409E+02  0.10000000000E+01 0.  0.
    9000005    1    3    3    0    0 -0.13787373830E+02  0.50555267666E+01  0.13278019858E+03  0.13359352965E+03  0.10000000000E+01 0.  0.
         21    1    1    2  502  501  0.18941223182E+02 -0.17586211504E+02 -0.47868469985E+02  0.54400691074E+02  0.00000000000E+00 0.  1.
<mgrwt>
<rscale>  1 0.12764030E+03</rscale>
<asrwt>0</asrwt>
<pdfrwt beam="2">  1        4 0.12517626E-01 0.12764030E+03</pdfrwt>
<pdfrwt beam="1">  1       -4 0.21230808E-01 0.12764030E+03</pdfrwt>
<totfact> 0.16964302E+03</totfact>
</mgrwt>
</event>
<event>
 6    4  0.5642870E-004  0.1363339E+03  0.7818608E-02  0.1218349E+00
          4   -1    0    0  502    0  0.00000000000E+00  0.00000000000E+00  0.17731317999E+02  0.17776741489E+02  0.12700000000E+01 0.  1.
         -4   -1    0    0    0  501 -0.00000000000E+00 -0.00000000000E+00 -0.51428122445E+03  0.51428279256E+03  0.12700000000E+01 0.  1.
         25    2    1    2    0    0 -0.46875263114E+02  0.27681740796E+02 -0.34005695038E+03  0.36636821151E+03  0.12499347117E+03 0.  0.
    9000005    1    3    3    0    0 -0.17342146611E+02  0.54588321970E+02 -0.31277906034E+03  0.31798172201E+03  0.10000000000E+01 0.  0.
    9000005    1    3    3    0    0 -0.29533116503E+02 -0.26906581175E+02 -0.27277890041E+02  0.48386489498E+02  0.10000000000E+01 0.  0.
         21    1    1    2  502  501  0.46875263114E+02 -0.27681740796E+02 -0.15649295607E+03  0.16569132254E+03  0.00000000000E+00 0.  1.
<mgrwt>
<rscale>  1 0.13633392E+03</rscale>
<asrwt>0</asrwt>
<pdfrwt beam="1">  1        4 0.27315102E-02 0.13633392E+03</pdfrwt>
<pdfrwt beam="2">  1       -4 0.79123792E-01 0.13633392E+03</pdfrwt>
<totfact> 0.15043302E+03</totfact>
</mgrwt>
</event>
<event>
 6    4  0.5642870E-004  0.1338999E+03  0.7818608E-02  0.1221781E+00
          4   -1    0    0  502    0  0.00000000000E+00  0.00000000000E+00  0.18046602785E+02  0.18091234675E+02  0.12700000000E+01 0. -1.
         -4   -1    0    0    0  501 -0.00000000000E+00 -0.00000000000E+00 -0.46295614413E+03  0.46295788609E+03  0.12700000000E+01 0. -1.
         25    2    1    2    0    0 -0.46997519383E+02 -0.97023271636E+01 -0.34897085602E+03  0.37377781368E+03  0.12500517457E+03 0.  0.
    9000005    1    3    3    0    0 -0.33313008943E+02  0.55820801078E+02 -0.20371934019E+03  0.21384173579E+03  0.10000000000E+01 0.  0.
    9000005    1    3    3    0    0 -0.13684510440E+02 -0.65523128242E+02 -0.14525151583E+03  0.15993607789E+03  0.10000000000E+01 0.  0.
         21    1    1    2  502  501  0.46997519383E+02  0.97023271636E+01 -0.95938685326E+02  0.10727130708E+03  0.00000000000E+00 0. -1.
<mgrwt>
<rscale>  1 0.13389995E+03</rscale>
<asrwt>0</asrwt>
<pdfrwt beam="1">  1        4 0.27799680E-02 0.13389995E+03</pdfrwt>
<pdfrwt beam="2">  1       -4 0.71227581E-01 0.13389995E+03</pdfrwt>
<totfact> 0.18344351E+03</totfact>
</mgrwt>
</event>
<event>
 6    4  0.5642870E-004  0.1289629E+03  0.7818608E-02  0.1229003E+00
         -4   -1    0    0    0  501 -0.00000000000E+00  0.00000000000E+00  0.74817513007E+01  0.75887747710E+01  0.12700000000E+01 0. -1.
          4   -1    0    0  502    0  0.00000000000E+00 -0.00000000000E+00 -0.98757461426E+03  0.98757543086E+03  0.12700000000E+01 0. -1.
         25    2    1    2    0    0  0.11649160671E+02  0.29497606215E+02 -0.59749797939E+03  0.61125711185E+03  0.12500243877E+03 0.  0.
    9000005    1    3    3    0    0  0.22003687955E+01  0.28947401204E+02 -0.60055777668E+03  0.60125987459E+03  0.10000000000E+01 0.  0.
    9000005    1    3    3    0    0  0.94487918759E+01  0.55020501037E+00  0.30597972899E+01  0.99972372645E+01  0.10000000000E+01 0.  0.
         21    1    1    2  502  501 -0.11649160671E+02 -0.29497606215E+02 -0.38259488357E+03  0.38390709378E+03  0.00000000000E+00 0. -1.
<mgrwt>
<rscale>  1 0.12896287E+03</rscale>
<asrwt>0</asrwt>
<pdfrwt beam="2">  1        4 0.15194275E+00 0.12896287E+03</pdfrwt>
<pdfrwt beam="1">  1       -4 0.11593348E-02 0.12896287E+03</pdfrwt>
<totfact> 0.11851397E+03</totfact>
</mgrwt>
</event>
<event>
 6    4  0.5642870E-004  0.1266254E+03  0.7818608E-02  0.1232551E+00
          4   -1    0    0  502    0  0.00000000000E+00  0.00000000000E+00  0.50065445605E+02  0.50081550930E+02  0.12700000000E+01 0. -1.
         -4   -1    0    0    0  501 -0.00000000000E+00 -0.00000000000E+00 -0.12765697329E+03  0.12766329045E+03  0.12700000000E+01 0. -1.
         25    2    1    2    0    0 -0.67935674124E+01 -0.19033298745E+02 -0.88777611170E+02  0.15464619460E+03  0.12500224894E+03 0.  0.
    9000005    1    3    3    0    0  0.20048292699E+02  0.41079504203E+02 -0.20630671212E+01  0.45768066943E+02  0.10000000000E+01 0.  0.
    9000005    1    3    3    0    0 -0.26841860111E+02 -0.60112802948E+02 -0.86714544049E+02  0.10887812766E+03  0.10000000000E+01 0.  0.
         21    1    1    2  502  501  0.67935674124E+01  0.19033298745E+02  0.11186083488E+02  0.23098646781E+02  0.00000000000E+00 0. -1.
<mgrwt>
<rscale>  1 0.12662536E+03</rscale>
<asrwt>0</asrwt>
<pdfrwt beam="1">  1        4 0.77041011E-02 0.12662536E+03</pdfrwt>
<pdfrwt beam="2">  1       -4 0.19641259E-01 0.12662536E+03</pdfrwt>
<totfact> 0.44042776E+03</totfact>
</mgrwt>
</event>
<event>
 6    4  0.5642870E-004  0.1307374E+03  0.7818608E-02  0.1226366E+00
         -4   -1    0    0    0  501 -0.00000000000E+00  0.00000000000E+00  0.32616286136E+03  0.32616533389E+03  0.12700000000E+01 0.  1.
          4   -1    0    0  502    0  0.00000000000E+00 -0.00000000000E+00 -0.21995525565E+02  0.22032159333E+02  0.12700000000E+01 0.  1.
         25    2    1    2    0    0 -0.28513054108E+02  0.25588290118E+02  0.22439667253E+03  0.25970391400E+03  0.12499800582E+03 0.  0.
    9000005    1    3    3    0    0 -0.45064434353E+02 -0.12511160433E+02  0.21088459303E+03  0.21601074963E+03  0.10000000000E+01 0.  0.
    9000005    1    3    3    0    0  0.16551380245E+02  0.38099450551E+02  0.13512079502E+02  0.43693164371E+02  0.10000000000E+01 0.  0.
         21    1    1    2  502  501  0.28513054108E+02 -0.25588290118E+02  0.79770663267E+02  0.88493579224E+02  0.00000000000E+00 0.  1.
<mgrwt>
<rscale>  1 0.13073736E+03</rscale>
<asrwt>0</asrwt>
<pdfrwt beam="2">  1        4 0.33869354E-02 0.13073736E+03</pdfrwt>
<pdfrwt beam="1">  1       -4 0.50181907E-01 0.13073736E+03</pdfrwt>
<totfact> 0.27916077E+03</totfact>
</mgrwt>
</event>
<event>
 6    4  0.5642870E-004  0.1301982E+03  0.7818608E-02  0.1227162E+00
          4   -1    0    0  502    0  0.00000000000E+00  0.00000000000E+00  0.66021887181E+02  0.66034100940E+02  0.12700000000E+01 0.  1.
         -4   -1    0    0    0  501 -0.00000000000E+00 -0.00000000000E+00 -0.16956576174E+03  0.16957051765E+03  0.12700000000E+01 0.  1.
         25    2    1    2    0    0 -0.32336031681E+02 -0.16758141606E+02 -0.13494624253E+03  0.18751550371E+03  0.12500048602E+03 0.  0.
    9000005    1    3    3    0    0  0.41389166533E+02 -0.40685219614E+01 -0.92674526216E+02  0.10158338342E+03  0.10000000000E+01 0.  0.
    9000005    1    3    3    0    0 -0.73725198214E+02 -0.12689619645E+02 -0.42271716314E+02  0.85932120296E+02  0.10000000000E+01 0.  0.
         21    1    1    2  502  501  0.32336031681E+02  0.16758141606E+02  0.31402367971E+02  0.48089114872E+02  0.00000000000E+00 0.  1.
<mgrwt>
<rscale>  1 0.13019822E+03</rscale>
<asrwt>0</asrwt>
<pdfrwt beam="1">  1        4 0.10158519E-01 0.13019822E+03</pdfrwt>
<pdfrwt beam="2">  1       -4 0.26088345E-01 0.13019822E+03</pdfrwt>
<totfact> 0.16665453E+03</totfact>
</mgrwt>
</event>
<event>
 6    4  0.5642870E-004  0.1399844E+03  0.7818608E-02  0.1213350E+00
          4   -1    0    0  502    0  0.00000000000E+00  0.00000000000E+00  0.21921705906E+02  0.21958462829E+02  0.12700000000E+01 0. -1.
         -4   -1    0    0    0  501 -0.00000000000E+00 -0.00000000000E+00 -0.62763623491E+03  0.62763751981E+03  0.12700000000E+01 0. -1.
         25    2    1    2    0    0 -0.55111700617E+02 -0.30594930551E+02 -0.54271036311E+03  0.56047317837E+03  0.12498918404E+03 0.  0.
    9000005    1    3    3    0    0 -0.94775914529E+02 -0.19697194735E+02 -0.33403183672E+03  0.34777682700E+03  0.10000000000E+01 0.  0.
    9000005    1    3    3    0    0  0.39664213911E+02 -0.10897735816E+02 -0.20867852639E+03  0.21269635137E+03  0.10000000000E+01 0.  0.
         21    1    1    2  502  501  0.55111700617E+02  0.30594930551E+02 -0.63004165895E+02  0.89122804267E+02  0.00000000000E+00 0. -1.
<mgrwt>
<rscale>  1 0.13998445E+03</rscale>
<asrwt>0</asrwt>
<pdfrwt beam="1">  1        4 0.33754969E-02 0.13998445E+03</pdfrwt>
<pdfrwt beam="2">  1       -4 0.96562333E-01 0.13998445E+03</pdfrwt>
<totfact> 0.69345734E+02</totfact>
</mgrwt>
</event>
<event>
 6    4  0.5642870E-004  0.1433782E+03  0.7818608E-02  0.1208854E+00
          4   -1    0    0  502    0  0.00000000000E+00  0.00000000000E+00  0.37146646933E+03  0.37146864031E+03  0.12700000000E+01 0.  1.
         -4   -1    0    0    0  501 -0.00000000000E+00 -0.00000000000E+00 -0.38041006764E+02  0.38062200351E+02  0.12700000000E+01 0.  1.
         25    2    1    2    0    0 -0.69105970015E+02  0.12524845148E+02  0.12718237414E+03  0.19165767031E+03  0.12499919783E+03 0.  0.
    9000005    1    3    3    0    0 -0.10520643421E+03  0.79045616955E+00  0.97743372513E+02  0.14360983772E+03  0.10000000000E+01 0.  0.
    9000005    1    3    3    0    0  0.36100464192E+02  0.11734388979E+02  0.29439001625E+02  0.48047832587E+02  0.10000000000E+01 0.  0.
         21    1    1    2  502  501  0.69105970015E+02 -0.12524845148E+02  0.20624308843E+03  0.21787317036E+03  0.00000000000E+00 0.  1.
<mgrwt>
<rscale>  1 0.14337819E+03</rscale>
<asrwt>0</asrwt>
<pdfrwt beam="1">  1        4 0.57150486E-01 0.14337819E+03</pdfrwt>
<pdfrwt beam="2">  1       -4 0.58542597E-02 0.14337819E+03</pdfrwt>
<totfact> 0.90855361E+02</totfact>
</mgrwt>
</event>
<event>
 6    4  0.5642870E-004  0.1267008E+03  0.7818608E-02  0.1232435E+00
         -4   -1    0    0    0  501 -0.00000000000E+00  0.00000000000E+00  0.64774105462E+03  0.64774229964E+03  0.12700000000E+01 0. -1.
          4   -1    0    0  502    0  0.00000000000E+00 -0.00000000000E+00 -0.11199494077E+02  0.11271271782E+02  0.12700000000E+01 0. -1.
         25    2    1    2    0    0  0.17091112650E+02  0.11651289751E+02  0.61917431360E+03  0.63200468490E+03  0.12500092973E+03 0.  0.
    9000005    1    3    3    0    0  0.71149760683E+02  0.49689534142E+01  0.38755874971E+03  0.39406822178E+03  0.10000000000E+01 0.  0.
    9000005    1    3    3    0    0 -0.54058648033E+02  0.66823363366E+01  0.23161556389E+03  0.23793646312E+03  0.10000000000E+01 0.  0.
         21    1    1    2  502  501 -0.17091112650E+02 -0.11651289751E+02  0.17367246945E+02  0.27008886518E+02  0.00000000000E+00 0. -1.
<mgrwt>
<rscale>  1 0.12670079E+03</rscale>
<asrwt>0</asrwt>
<pdfrwt beam="2">  1        4 0.17286162E-02 0.12670079E+03</pdfrwt>
<pdfrwt beam="1">  1       -4 0.99658088E-01 0.12670079E+03</pdfrwt>
<totfact> 0.17840813E+03</totfact>
</mgrwt>
</event>
<event>
 6    4  0.5642870E-004  0.1278188E+03  0.7818608E-02  0.1230729E+00
         -4   -1    0    0    0  501 -0.00000000000E+00  0.00000000000E+00  0.12843185960E+02  0.12905825258E+02  0.12700000000E+01 0.  1.
          4   -1    0    0  502    0  0.00000000000E+00 -0.00000000000E+00 -0.47058885959E+03  0.47059057329E+03  0.12700000000E+01 0.  1.
         25    2    1    2    0    0 -0.21884481682E+02  0.15285959224E+02 -0.35391378937E+03  0.37628795076E+03  0.12500024198E+03 0.  0.
    9000005    1    3    3    0    0  0.16818434672E+02  0.18382351016E+02 -0.52683462764E+01  0.25485800874E+02  0.10000000000E+01 0.  0.
    9000005    1    3    3    0    0 -0.38702916354E+02 -0.30963917921E+01 -0.34864544309E+03  0.35080214989E+03  0.10000000000E+01 0.  0.
         21    1    1    2  502  501  0.21884481682E+02 -0.15285959224E+02 -0.10383188426E+03  0.10720844778E+03  0.00000000000E+00 0. -1.
<mgrwt>
<rscale>  1 0.12781882E+03</rscale>
<asrwt>0</asrwt>
<pdfrwt beam="2">  1        4 0.72403223E-01 0.12781882E+03</pdfrwt>
<pdfrwt beam="1">  1       -4 0.19808254E-02 0.12781882E+03</pdfrwt>
<totfact> 0.29609732E+03</totfact>
</mgrwt>
</event>
<event>
 6    4  0.5642870E-004  0.1484615E+03  0.7818608E-02  0.1202376E+00
         -4   -1    0    0    0  501 -0.00000000000E+00  0.00000000000E+00  0.53641831075E+02  0.53656862945E+02  0.12700000000E+01 0. -1.
          4   -1    0    0  502    0  0.00000000000E+00 -0.00000000000E+00 -0.24824941002E+03  0.24825265854E+03  0.12700000000E+01 0. -1.
         25    2    1    2    0    0  0.55083837834E+02 -0.58151540531E+02 -0.10572154783E+03  0.18225770419E+03  0.12499997681E+03 0.  0.
    9000005    1    3    3    0    0  0.55929721545E+01 -0.24755573627E+02  0.26788182876E+02  0.36915125693E+02  0.10000000000E+01 0.  0.
    9000005    1    3    3    0    0  0.49490865680E+02 -0.33395966904E+02 -0.13250973071E+03  0.14534257850E+03  0.10000000000E+01 0.  0.
         21    1    1    2  502  501 -0.55083837834E+02  0.58151540531E+02 -0.88886031109E+02  0.11965181730E+03  0.00000000000E+00 0. -1.
<mgrwt>
<rscale>  1 0.14846153E+03</rscale>
<asrwt>0</asrwt>
<pdfrwt beam="2">  1        4 0.38193622E-01 0.14846153E+03</pdfrwt>
<pdfrwt beam="1">  1       -4 0.82539957E-02 0.14846153E+03</pdfrwt>
<totfact> 0.11740152E+03</totfact>
</mgrwt>
</event>
<event>
 6    4  0.5642870E-004  0.1268693E+03  0.7818608E-02  0.1232176E+00
         -4   -1    0    0    0  501 -0.00000000000E+00  0.00000000000E+00  0.18141505660E+02  0.18185904641E+02  0.12700000000E+01 0. -1.
          4   -1    0    0  502    0  0.00000000000E+00 -0.00000000000E+00 -0.41209316742E+03  0.41209512438E+03  0.12700000000E+01 0. -1.
         25    2    1    2    0    0  0.12530045716E+02  0.17671150321E+02 -0.21213364112E+03  0.24717705793E+03  0.12500617853E+03 0.  0.
    9000005    1    3    3    0    0  0.75041988121E+01 -0.53288753036E+02 -0.11291653180E+03  0.12508855804E+03  0.10000000000E+01 0.  0.
    9000005    1    3    3    0    0  0.50258469038E+01  0.70959903357E+02 -0.99217109319E+02  0.12208849988E+03  0.10000000000E+01 0.  0.
         21    1    1    2  502  501 -0.12530045716E+02 -0.17671150321E+02 -0.18181802064E+03  0.18310397109E+03  0.00000000000E+00 0. -1.
<mgrwt>
<rscale>  1 0.12686929E+03</rscale>
<asrwt>0</asrwt>
<pdfrwt beam="2">  1        4 0.63402508E-01 0.12686929E+03</pdfrwt>
<pdfrwt beam="1">  1       -4 0.27945670E-02 0.12686929E+03</pdfrwt>
<totfact> 0.23053212E+03</totfact>
</mgrwt>
</event>
<event>
 6    4  0.5642870E-004  0.1290429E+03  0.7818608E-02  0.1228883E+00
         -4   -1    0    0    0  501 -0.00000000000E+00  0.00000000000E+00  0.79201076881E+03  0.79201178704E+03  0.12700000000E+01 0.  1.
          4   -1    0    0  502    0  0.00000000000E+00 -0.00000000000E+00 -0.81412890533E+01  0.82397504482E+01  0.12700000000E+01 0.  1.
         25    2    1    2    0    0  0.11634874193E+02 -0.29864317572E+02  0.62758678888E+03  0.64071618959E+03  0.12499924106E+03 0.  0.
    9000005    1    3    3    0    0 -0.26095028155E+02  0.38027369357E+02  0.15261470626E+03  0.15943424940E+03  0.10000000000E+01 0.  0.
    9000005    1    3    3    0    0  0.37729902348E+02 -0.67891686929E+02  0.47497208262E+03  0.48128194019E+03  0.10000000000E+01 0.  0.
         21    1    1    2  502  501 -0.11634874193E+02  0.29864317572E+02  0.15628269088E+03  0.15953534790E+03  0.00000000000E+00 0. -1.
<mgrwt>
<rscale>  1 0.12904285E+03</rscale>
<asrwt>0</asrwt>
<pdfrwt beam="2">  1        4 0.12601589E-02 0.12904285E+03</pdfrwt>
<pdfrwt beam="1">  1       -4 0.12185540E+00 0.12904285E+03</pdfrwt>
<totfact> 0.18047390E+03</totfact>
</mgrwt>
</event>
<event>
 6    4  0.5642870E-004  0.1276492E+03  0.7818608E-02  0.1230986E+00
         -4   -1    0    0    0  501 -0.00000000000E+00  0.00000000000E+00  0.99928050048E+03  0.99928130751E+03  0.12700000000E+01 0.  1.
          4   -1    0    0  502    0  0.00000000000E+00 -0.00000000000E+00 -0.61423735388E+01  0.62722924589E+01  0.12700000000E+01 0.  1.
         25    2    1    2    0    0 -0.25748938754E+02 -0.24773045780E+01  0.89527615689E+03  0.90433052914E+03  0.12500065585E+03 0.  0.
    9000005    1    3    3    0    0  0.35670673597E+02  0.39450592454E+02  0.38930060247E+03  0.39291819159E+03  0.10000000000E+01 0.  0.
    9000005    1    3    3    0    0 -0.61419612351E+02 -0.41927897032E+02  0.50597555443E+03  0.51141233756E+03  0.10000000000E+01 0.  0.
         21    1    1    2  502  501  0.25748938754E+02  0.24773045780E+01  0.97861970052E+02  0.10122307083E+03  0.00000000000E+00 0. -1.
<mgrwt>
<rscale>  1 0.12764916E+03</rscale>
<asrwt>0</asrwt>
<pdfrwt beam="2">  1        4 0.95503643E-03 0.12764916E+03</pdfrwt>
<pdfrwt beam="1">  1       -4 0.15374551E+00 0.12764916E+03</pdfrwt>
<totfact> 0.15365584E+03</totfact>
</mgrwt>
</event>
<event>
 6    4  0.5642870E-004  0.1309240E+03  0.7818608E-02  0.1226091E+00
          4   -1    0    0  502    0  0.00000000000E+00  0.00000000000E+00  0.14103803757E+04  0.14103809475E+04  0.12700000000E+01 0. -1.
         -4   -1    0    0    0  501 -0.00000000000E+00 -0.00000000000E+00 -0.52948875814E+01  0.54450651511E+01  0.12700000000E+01 0. -1.
         25    2    1    2    0    0 -0.38694980330E+02  0.42460435853E+01  0.93346310522E+03  0.94259984849E+03  0.12500310069E+03 0.  0.
    9000005    1    3    3    0    0  0.40276661199E+02  0.23998259618E+02  0.25567424002E+03  0.25993930620E+03  0.10000000000E+01 0.  0.
    9000005    1    3    3    0    0 -0.78971641529E+02 -0.19752216032E+02  0.67778886520E+03  0.68266054229E+03  0.10000000000E+01 0.  0.
         21    1    1    2  502  501  0.38694980330E+02 -0.42460435853E+01  0.47162238288E+03  0.47322616414E+03  0.00000000000E+00 0. -1.
<mgrwt>
<rscale>  1 0.13092405E+03</rscale>
<asrwt>0</asrwt>
<pdfrwt beam="1">  1        4 0.21699340E+00 0.13092405E+03</pdfrwt>
<pdfrwt beam="2">  1       -4 0.82619342E-03 0.13092405E+03</pdfrwt>
<totfact> 0.74435677E+02</totfact>
</mgrwt>
</event>
<event>
 6    4  0.5642870E-004  0.1293050E+03  0.7818608E-02  0.1228491E+00
         -4   -1    0    0    0  501 -0.00000000000E+00  0.00000000000E+00  0.42740824405E+03  0.42741013088E+03  0.12700000000E+01 0. -1.
          4   -1    0    0  502    0  0.00000000000E+00 -0.00000000000E+00 -0.15476734340E+02  0.15528754162E+02  0.12700000000E+01 0. -1.
         25    2    1    2    0    0 -0.28588456529E+02 -0.16686907123E+02  0.33993710093E+03  0.36369907427E+03  0.12499612522E+03 0.  0.
    9000005    1    3    3    0    0 -0.20010007616E+02 -0.58817590869E+02  0.29509932060E+03  0.30157008873E+03  0.10000000000E+01 0.  0.
    9000005    1    3    3    0    0 -0.85784489133E+01  0.42130683746E+02  0.44837780324E+02  0.62128985530E+02  0.10000000000E+01 0.  0.
         21    1    1    2  502  501  0.28588456529E+02  0.16686907123E+02  0.71994408783E+02  0.79239810778E+02  0.00000000000E+00 0. -1.
<mgrwt>
<rscale>  1 0.12930500E+03</rscale>
<asrwt>0</asrwt>
<pdfrwt beam="2">  1        4 0.23851826E-02 0.12930500E+03</pdfrwt>
<pdfrwt beam="1">  1       -4 0.65759265E-01 0.12930500E+03</pdfrwt>
<totfact> 0.27412193E+03</totfact>
</mgrwt>
</event>
<event>
 6    4  0.5642870E-004  0.1280914E+03  0.7818608E-02  0.1230316E+00
         -4   -1    0    0    0  501 -0.00000000000E+00  0.00000000000E+00  0.70874440018E+03  0.70874553803E+03  0.12700000000E+01 0.  1.
          4   -1    0    0  502    0  0.00000000000E+00 -0.00000000000E+00 -0.14190500463E+02  0.14247217391E+02  0.12700000000E+01 0.  1.
         25    2    1    2    0    0 -0.13459894506E+02 -0.24543699038E+02  0.67898619267E+03  0.69096284089E+03  0.12499534283E+03 0.  0.
    9000005    1    3    3    0    0 -0.34429966785E+02  0.23720397922E+02  0.55089093830E+03  0.55247615857E+03  0.10000000000E+01 0.  0.
    9000005    1    3    3    0    0  0.20970072279E+02 -0.48264096960E+02  0.12809525437E+03  0.13848668232E+03  0.10000000000E+01 0.  0.
         21    1    1    2  502  501  0.13459894506E+02  0.24543699038E+02  0.15567707044E+02  0.32029914536E+02  0.00000000000E+00 0. -1.
<mgrwt>
<rscale>  1 0.12809136E+03</rscale>
<asrwt>0</asrwt>
<pdfrwt beam="2">  1        4 0.21876045E-02 0.12809136E+03</pdfrwt>
<pdfrwt beam="1">  1       -4 0.10904204E+00 0.12809136E+03</pdfrwt>
<totfact> 0.10096205E+03</totfact>
</mgrwt>
</event>
<event>
 6    4  0.5642870E-004  0.1291943E+03  0.7818608E-02  0.1228656E+00
          4   -1    0    0  502    0  0.00000000000E+00  0.00000000000E+00  0.21496047304E+02  0.21533530823E+02  0.12700000000E+01 0.  1.
         -4   -1    0    0    0  501 -0.00000000000E+00 -0.00000000000E+00 -0.31709156634E+03  0.31709410961E+03  0.12700000000E+01 0.  1.
         25    2    1    2    0    0 -0.89098216902E+01 -0.31394305372E+02 -0.26004505832E+03  0.29036976450E+03  0.12500472168E+03 0.  0.
    9000005    1    3    3    0    0  0.31538603900E+02 -0.50963563586E+02 -0.58079643969E+02  0.83463844825E+02  0.10000000000E+01 0.  0.
    9000005    1    3    3    0    0 -0.40448425591E+02  0.19569258214E+02 -0.20196541435E+03  0.20690591967E+03  0.10000000000E+01 0.  0.
         21    1    1    2  502  501  0.89098216902E+01  0.31394305372E+02 -0.35550460717E+02  0.48257875933E+02  0.00000000000E+00 0.  1.
<mgrwt>
<rscale>  1 0.12919430E+03</rscale>
<asrwt>0</asrwt>
<pdfrwt beam="1">  1        4 0.33101634E-02 0.12919430E+03</pdfrwt>
<pdfrwt beam="2">  1       -4 0.48786394E-01 0.12919430E+03</pdfrwt>
<totfact> 0.30560977E+03</totfact>
</mgrwt>
</event>
<event>
 6    4  0.5642870E-004  0.1602575E+03  0.7818608E-02  0.1188406E+00
         -4   -1    0    0    0  501 -0.00000000000E+00  0.00000000000E+00  0.41162160140E+02  0.41181747503E+02  0.12700000000E+01 0. -1.
          4   -1    0    0  502    0  0.00000000000E+00 -0.00000000000E+00 -0.60045214203E+03  0.60045348510E+03  0.12700000000E+01 0. -1.
         25    2    1    2    0    0 -0.95185803222E+02  0.31566862887E+02 -0.14748052930E+03  0.21779112304E+03  0.12500265111E+03 0.  0.
    9000005    1    3    3    0    0 -0.99361966605E+02 -0.40968406532E+01 -0.15194016217E+03  0.18159404559E+03  0.10000000000E+01 0.  0.
    9000005    1    3    3    0    0  0.41761633824E+01  0.35663703540E+02  0.44596328764E+01  0.36197077453E+02  0.10000000000E+01 0.  0.
         21    1    1    2  502  501  0.95185803222E+02 -0.31566862887E+02 -0.41180945259E+03  0.42384410956E+03  0.00000000000E+00 0. -1.
<mgrwt>
<rscale>  1 0.16025750E+03</rscale>
<asrwt>0</asrwt>
<pdfrwt beam="2">  1        4 0.92378856E-01 0.16025750E+03</pdfrwt>
<pdfrwt beam="1">  1       -4 0.63342505E-02 0.16025750E+03</pdfrwt>
<totfact> 0.28655477E+02</totfact>
</mgrwt>
</event>
<event>
 6    4  0.5642870E-004  0.1382988E+03  0.7818608E-02  0.1215637E+00
         -4   -1    0    0    0  501 -0.00000000000E+00  0.00000000000E+00  0.13038546482E+03  0.13039164979E+03  0.12700000000E+01 0. -1.
          4   -1    0    0  502    0  0.00000000000E+00 -0.00000000000E+00 -0.99197555240E+02  0.99205684643E+02  0.12700000000E+01 0. -1.
         25    2    1    2    0    0  0.15663563435E+02  0.57058851346E+02  0.73726852369E+02  0.15672332405E+03  0.12500196720E+03 0.  0.
    9000005    1    3    3    0    0 -0.11463130059E+02  0.11896288216E+02  0.97515255059E+02  0.98909807367E+02  0.10000000000E+01 0.  0.
    9000005    1    3    3    0    0  0.27126693494E+02  0.45162563130E+02 -0.23788402690E+02  0.57813516680E+02  0.10000000000E+01 0.  0.
         21    1    1    2  502  501 -0.15663563435E+02 -0.57058851346E+02 -0.42538942791E+02  0.72874010389E+02  0.00000000000E+00 0. -1.
<mgrwt>
<rscale>  1 0.13829878E+03</rscale>
<asrwt>0</asrwt>
<pdfrwt beam="2">  1        4 0.15262263E-01 0.13829878E+03</pdfrwt>
<pdfrwt beam="1">  1       -4 0.20060403E-01 0.13829878E+03</pdfrwt>
<totfact> 0.13568172E+03</totfact>
</mgrwt>
</event>
<event>
 6    4  0.5642870E-004  0.1288776E+03  0.7818608E-02  0.1229131E+00
          4   -1    0    0  502    0  0.00000000000E+00  0.00000000000E+00  0.39969947830E+03  0.39970149593E+03  0.12700000000E+01 0. -1.
         -4   -1    0    0    0  501 -0.00000000000E+00 -0.00000000000E+00 -0.16510129321E+02  0.16558903049E+02  0.12700000000E+01 0. -1.
         25    2    1    2    0    0 -0.15414259224E+02 -0.27386929924E+02  0.33269734401E+03  0.35678699414E+03  0.12498717197E+03 0.  0.
    9000005    1    3    3    0    0  0.27432619412E+02  0.37228477113E+01  0.95096023624E+01  0.29288918382E+02  0.10000000000E+01 0.  0.
    9000005    1    3    3    0    0 -0.42846878636E+02 -0.31109777635E+02  0.32318774164E+03  0.32749807575E+03  0.10000000000E+01 0.  0.
         21    1    1    2  502  501  0.15414259224E+02  0.27386929924E+02  0.50492004969E+02  0.59473404845E+02  0.00000000000E+00 0. -1.
<mgrwt>
<rscale>  1 0.12887760E+03</rscale>
<asrwt>0</asrwt>
<pdfrwt beam="1">  1        4 0.61496129E-01 0.12887760E+03</pdfrwt>
<pdfrwt beam="2">  1       -4 0.25439272E-02 0.12887760E+03</pdfrwt>
<totfact> 0.28566846E+03</totfact>
</mgrwt>
</event>
<event>
 6    4  0.5642870E-004  0.1302188E+03  0.7818608E-02  0.1227131E+00
         -4   -1    0    0    0  501 -0.00000000000E+00  0.00000000000E+00  0.58419925658E+03  0.58420063702E+03  0.12700000000E+01 0.  1.
          4   -1    0    0  502    0  0.00000000000E+00 -0.00000000000E+00 -0.34925559827E+02  0.34948642738E+02  0.12700000000E+01 0.  1.
         25    2    1    2    0    0 -0.32164175710E+02 -0.17192910762E+02  0.56472225762E+03  0.57954134605E+03  0.12500725238E+03 0.  0.
    9000005    1    3    3    0    0  0.28134431876E+02  0.38004929879E+02  0.24566888868E+03  0.25018018270E+03  0.10000000000E+01 0.  0.
    9000005    1    3    3    0    0 -0.60298607586E+02 -0.55197840641E+02  0.31905336895E+03  0.32936116335E+03  0.10000000000E+01 0.  0.
         21    1    1    2  502  501  0.32164175710E+02  0.17192910762E+02 -0.15448560867E+02  0.39607933706E+02  0.00000000000E+00 0.  1.
<mgrwt>
<rscale>  1 0.13021883E+03</rscale>
<asrwt>0</asrwt>
<pdfrwt beam="2">  1        4 0.53750448E-02 0.13021883E+03</pdfrwt>
<pdfrwt beam="1">  1       -4 0.89878691E-01 0.13021883E+03</pdfrwt>
<totfact> 0.38354599E+02</totfact>
</mgrwt>
</event>
<event>
 6    4  0.5642870E-004  0.1308534E+03  0.7818608E-02  0.1226195E+00
          4   -1    0    0  502    0  0.00000000000E+00  0.00000000000E+00  0.97852888944E+02  0.97861130050E+02  0.12700000000E+01 0.  1.
         -4   -1    0    0    0  501 -0.00000000000E+00 -0.00000000000E+00 -0.81750436202E+02  0.81760300386E+02  0.12700000000E+01 0.  1.
         25    2    1    2    0    0 -0.37984049963E+02 -0.80546935748E+01 -0.12421701352E+02  0.13144162650E+03  0.12495973901E+03 0.  0.
    9000005    1    3    3    0    0 -0.64624163867E+02  0.23209354493E+01  0.36873792492E+02  0.74446933245E+02  0.10000000000E+01 0.  0.
    9000005    1    3    3    0    0  0.26640113903E+02 -0.10375629024E+02 -0.49295493844E+02  0.56994693259E+02  0.10000000000E+01 0.  0.
         21    1    1    2  502  501  0.37984049963E+02  0.80546935748E+01  0.28524154093E+02  0.48179803932E+02  0.00000000000E+00 0.  1.
<mgrwt>
<rscale>  1 0.13085336E+03</rscale>
<asrwt>0</asrwt>
<pdfrwt beam="1">  1        4 0.15055683E-01 0.13085336E+03</pdfrwt>
<pdfrwt beam="2">  1       -4 0.12578383E-01 0.13085336E+03</pdfrwt>
<totfact> 0.31156207E+03</totfact>
</mgrwt>
</event>
<event>
 6    4  0.5642870E-004  0.1280302E+03  0.7818608E-02  0.1230408E+00
          4   -1    0    0  502    0  0.00000000000E+00  0.00000000000E+00  0.89660478735E+02  0.89669472771E+02  0.12700000000E+01 0. -1.
         -4   -1    0    0    0  501 -0.00000000000E+00 -0.00000000000E+00 -0.67744666795E+02  0.67756570008E+02  0.12700000000E+01 0. -1.
         25    2    1    2    0    0 -0.26881119528E+02  0.70267226090E+01  0.19913789895E+02  0.12956966990E+03  0.12497908190E+03 0.  0.
    9000005    1    3    3    0    0 -0.24461453090E+02 -0.30006763137E+02  0.62217242853E+02  0.73285427129E+02  0.10000000000E+01 0.  0.
    9000005    1    3    3    0    0 -0.24196664374E+01  0.37033485746E+02 -0.42303452957E+02  0.56284242771E+02  0.10000000000E+01 0.  0.
         21    1    1    2  502  501  0.26881119528E+02 -0.70267226090E+01  0.20020220445E+01  0.27856372879E+02  0.00000000000E+00 0.  1.
<mgrwt>
<rscale>  1 0.12803023E+03</rscale>
<asrwt>0</asrwt>
<pdfrwt beam="1">  1        4 0.13795527E-01 0.12803023E+03</pdfrwt>
<pdfrwt beam="2">  1       -4 0.10423864E-01 0.12803023E+03</pdfrwt>
<totfact> 0.49665333E+03</totfact>
</mgrwt>
</event>
<event>
 6    4  0.5642870E-004  0.1396550E+03  0.7818608E-02  0.1213794E+00
          4   -1    0    0  502    0  0.00000000000E+00  0.00000000000E+00  0.61123872928E+02  0.61137065204E+02  0.12700000000E+01 0.  1.
         -4   -1    0    0    0  501 -0.00000000000E+00 -0.00000000000E+00 -0.30542881188E+03  0.30543145225E+03  0.12700000000E+01 0.  1.
         25    2    1    2    0    0 -0.21859918000E+02 -0.58283455157E+02 -0.26617762120E+03  0.30058949511E+03  0.12501480466E+03 0.  0.
    9000005    1    3    3    0    0 -0.64304996067E+02  0.10983777003E+01 -0.15227019369E+03  0.16529836913E+03  0.10000000000E+01 0.  0.
    9000005    1    3    3    0    0  0.42445078067E+02 -0.59381832857E+02 -0.11390742752E+03  0.13529112598E+03  0.10000000000E+01 0.  0.
         21    1    1    2  502  501  0.21859918000E+02  0.58283455157E+02  0.21872682256E+02  0.65979022341E+02  0.00000000000E+00 0.  1.
<mgrwt>
<rscale>  1 0.13965500E+03</rscale>
<asrwt>0</asrwt>
<pdfrwt beam="1">  1        4 0.94048908E-02 0.13965500E+03</pdfrwt>
<pdfrwt beam="2">  1       -4 0.46990265E-01 0.13965500E+03</pdfrwt>
<totfact> 0.61762605E+02</totfact>
</mgrwt>
</event>
<event>
 6    4  0.5642870E-004  0.1396815E+03  0.7818608E-02  0.1213758E+00
          4   -1    0    0  502    0  0.00000000000E+00  0.00000000000E+00  0.76701665059E+02  0.76712178451E+02  0.12700000000E+01 0.  1.
         -4   -1    0    0    0  501 -0.00000000000E+00 -0.00000000000E+00 -0.26941053626E+03  0.26941352963E+03  0.12700000000E+01 0.  1.
         25    2    1    2    0    0  0.18942612078E+02  0.59386854114E+02 -0.23317244344E+03  0.27180934601E+03  0.12500124480E+03 0.  0.
    9000005    1    3    3    0    0 -0.48583200495E+02  0.40285026701E+02 -0.15150787417E+03  0.16413057814E+03  0.10000000000E+01 0.  0.
    9000005    1    3    3    0    0  0.67525812573E+02  0.19101827413E+02 -0.81664569272E+02  0.10767876786E+03  0.10000000000E+01 0.  0.
         21    1    1    2  502  501 -0.18942612078E+02 -0.59386854114E+02  0.40463572238E+02  0.74316362076E+02  0.00000000000E+00 0.  1.
<mgrwt>
<rscale>  1 0.13968154E+03</rscale>
<asrwt>0</asrwt>
<pdfrwt beam="1">  1        4 0.11801295E-01 0.13968154E+03</pdfrwt>
<pdfrwt beam="2">  1       -4 0.41448813E-01 0.13968154E+03</pdfrwt>
<totfact> 0.54044785E+02</totfact>
</mgrwt>
</event>
<event>
 6    4  0.5642870E-004  0.1285651E+03  0.7818608E-02  0.1229600E+00
          4   -1    0    0  502    0  0.00000000000E+00  0.00000000000E+00  0.42131563180E+03  0.42131754592E+03  0.12700000000E+01 0.  1.
         -4   -1    0    0    0  501 -0.00000000000E+00 -0.00000000000E+00 -0.28530510889E+02  0.28558763132E+02  0.12700000000E+01 0.  1.
         25    2    1    2    0    0  0.24575288031E+02  0.17340587017E+02  0.12138401866E+03  0.17681368062E+03  0.12499742769E+03 0.  0.
    9000005    1    3    3    0    0  0.41946938163E+02  0.63052120427E+02  0.51791264139E+02  0.91752114704E+02  0.10000000000E+01 0.  0.
    9000005    1    3    3    0    0 -0.17371650133E+02 -0.45711533410E+02  0.69592754521E+02  0.85061565920E+02  0.10000000000E+01 0.  0.
         21    1    1    2  502  501 -0.24575288031E+02 -0.17340587017E+02  0.27140110225E+03  0.27306262842E+03  0.00000000000E+00 0.  1.
<mgrwt>
<rscale>  1 0.12856515E+03</rscale>
<asrwt>0</asrwt>
<pdfrwt beam="1">  1        4 0.64820114E-01 0.12856515E+03</pdfrwt>
<pdfrwt beam="2">  1       -4 0.43916296E-02 0.12856515E+03</pdfrwt>
<totfact> 0.10820544E+03</totfact>
</mgrwt>
</event>
<event>
 6    4  0.5642870E-004  0.1278794E+03  0.7818608E-02  0.1230637E+00
          4   -1    0    0  502    0  0.00000000000E+00  0.00000000000E+00  0.14251974570E+02  0.14308447824E+02  0.12700000000E+01 0. -1.
         -4   -1    0    0    0  501 -0.00000000000E+00 -0.00000000000E+00 -0.42114005176E+03  0.42114196668E+03  0.12700000000E+01 0. -1.
         25    2    1    2    0    0 -0.26693656329E+02 -0.39519130862E+01 -0.34488123045E+03  0.36782632155E+03  0.12499988320E+03 0.  0.
    9000005    1    3    3    0    0  0.45237558766E+02 -0.16013613439E+02 -0.82021374217E+02  0.95033564423E+02  0.10000000000E+01 0.  0.
    9000005    1    3    3    0    0 -0.71931215096E+02  0.12061700353E+02 -0.26285985623E+03  0.27279275713E+03  0.10000000000E+01 0.  0.
         21    1    1    2  502  501  0.26693656329E+02  0.39519130862E+01 -0.62006846743E+02  0.67624092957E+02  0.00000000000E+00 0.  1.
<mgrwt>
<rscale>  1 0.12787940E+03</rscale>
<asrwt>0</asrwt>
<pdfrwt beam="1">  1        4 0.21971032E-02 0.12787940E+03</pdfrwt>
<pdfrwt beam="2">  1       -4 0.64795259E-01 0.12787940E+03</pdfrwt>
<totfact> 0.32034556E+03</totfact>
</mgrwt>
</event>
<event>
 6    4  0.5642870E-004  0.1281987E+03  0.7818608E-02  0.1230153E+00
         -4   -1    0    0    0  501 -0.00000000000E+00  0.00000000000E+00  0.29425679522E+03  0.29425953584E+03  0.12700000000E+01 0.  1.
          4   -1    0    0  502    0  0.00000000000E+00 -0.00000000000E+00 -0.22347463173E+02  0.22383520953E+02  0.12700000000E+01 0.  1.
         25    2    1    2    0    0 -0.12526513421E+02  0.25571371501E+02  0.18414735918E+03  0.22437728600E+03  0.12499643195E+03 0.  0.
    9000005    1    3    3    0    0  0.42097185146E+02  0.24232250847E+02  0.22120656643E+02  0.53382566711E+02  0.10000000000E+01 0.  0.
    9000005    1    3    3    0    0 -0.54623698567E+02  0.13391206540E+01  0.16202670253E+03  0.17099471928E+03  0.10000000000E+01 0.  0.
         21    1    1    2  502  501  0.12526513421E+02 -0.25571371501E+02  0.87761972873E+02  0.92265770800E+02  0.00000000000E+00 0.  1.
<mgrwt>
<rscale>  1 0.12819874E+03</rscale>
<asrwt>0</asrwt>
<pdfrwt beam="2">  1        4 0.34410557E-02 0.12819874E+03</pdfrwt>
<pdfrwt beam="1">  1       -4 0.45273261E-01 0.12819874E+03</pdfrwt>
<totfact> 0.33361699E+03</totfact>
</mgrwt>
</event>
<event>
 6    4  0.5642870E-004  0.1284874E+03  0.7818608E-02  0.1229718E+00
         -4   -1    0    0    0  501 -0.00000000000E+00  0.00000000000E+00  0.21973617092E+02  0.22010287325E+02  0.12700000000E+01 0.  1.
          4   -1    0    0  502    0  0.00000000000E+00 -0.00000000000E+00 -0.30850055018E+03  0.30850316427E+03  0.12700000000E+01 0.  1.
         25    2    1    2    0    0  0.25396166356E+02 -0.15470168201E+02 -0.26258824282E+03  0.29233816821E+03  0.12499891181E+03 0.  0.
    9000005    1    3    3    0    0  0.93545236271E+00 -0.17385345183E+01  0.14078402769E+02  0.14251280571E+02  0.10000000000E+01 0.  0.
    9000005    1    3    3    0    0  0.24460713993E+02 -0.13731633682E+02 -0.27666664559E+03  0.27808688764E+03  0.10000000000E+01 0.  0.
         21    1    1    2  502  501 -0.25396166356E+02  0.15470168201E+02 -0.23938690269E+02  0.38175283385E+02  0.00000000000E+00 0.  1.
<mgrwt>
<rscale>  1 0.12848743E+03</rscale>
<asrwt>0</asrwt>
<pdfrwt beam="2">  1        4 0.47464642E-01 0.12848743E+03</pdfrwt>
<pdfrwt beam="1">  1       -4 0.33835786E-02 0.12848743E+03</pdfrwt>
<totfact> 0.31169675E+03</totfact>
</mgrwt>
</event>
<event>
 6    4  0.5642870E-004  0.1282767E+03  0.7818608E-02  0.1230035E+00
          4   -1    0    0  502    0  0.00000000000E+00  0.00000000000E+00  0.54404298404E+02  0.54419119663E+02  0.12700000000E+01 0. -1.
         -4   -1    0    0    0  501 -0.00000000000E+00 -0.00000000000E+00 -0.12742356737E+03  0.12742989611E+03  0.12700000000E+01 0. -1.
         25    2    1    2    0    0 -0.22416720415E+02  0.17955346669E+02 -0.81407566385E+02  0.15192799704E+03  0.12502008075E+03 0.  0.
    9000005    1    3    3    0    0 -0.26889374650E+02 -0.15279693837E+02 -0.10593949629E+03  0.11036613786E+03  0.10000000000E+01 0.  0.
    9000005    1    3    3    0    0  0.44726542343E+01  0.33235040506E+02  0.24531929905E+02  0.41561859176E+02  0.10000000000E+01 0.  0.
         21    1    1    2  502  501  0.22416720415E+02 -0.17955346669E+02  0.83882974184E+01  0.29921018729E+02  0.00000000000E+00 0. -1.
<mgrwt>
<rscale>  1 0.12827675E+03</rscale>
<asrwt>0</asrwt>
<pdfrwt beam="1">  1        4 0.83715190E-02 0.12827675E+03</pdfrwt>
<pdfrwt beam="2">  1       -4 0.19605253E-01 0.12827675E+03</pdfrwt>
<totfact> 0.38635647E+03</totfact>
</mgrwt>
</event>
<event>
 6    4  0.5642870E-004  0.1294032E+03  0.7818608E-02  0.1228344E+00
          4   -1    0    0  502    0  0.00000000000E+00  0.00000000000E+00  0.72018912167E+02  0.72030109050E+02  0.12700000000E+01 0. -1.
         -4   -1    0    0    0  501 -0.00000000000E+00 -0.00000000000E+00 -0.96294476314E+02  0.96302850781E+02  0.12700000000E+01 0. -1.
         25    2    1    2    0    0  0.27481437814E+02  0.19163460392E+02 -0.33332222240E+02  0.13362718662E+03  0.12499088097E+03 0.  0.
    9000005    1    3    3    0    0  0.17306743174E+02  0.10751685373E+02 -0.81323650462E+02  0.83843057090E+02  0.10000000000E+01 0.  0.
    9000005    1    3    3    0    0  0.10174694640E+02  0.84117750196E+01  0.47991428223E+02  0.49784129528E+02  0.10000000000E+01 0.  0.
         21    1    1    2  502  501 -0.27481437814E+02 -0.19163460392E+02  0.90566580924E+01  0.34705773213E+02  0.00000000000E+00 0. -1.
<mgrwt>
<rscale>  1 0.12940320E+03</rscale>
<asrwt>0</asrwt>
<pdfrwt beam="1">  1        4 0.11081338E-01 0.12940320E+03</pdfrwt>
<pdfrwt beam="2">  1       -4 0.14816040E-01 0.12940320E+03</pdfrwt>
<totfact> 0.39667138E+03</totfact>
</mgrwt>
</event>
<event>
 6    4  0.5642870E-004  0.1299002E+03  0.7818608E-02  0.1227604E+00
          4   -1    0    0  502    0  0.00000000000E+00  0.00000000000E+00  0.21119996355E+03  0.21120378194E+03  0.12700000000E+01 0.  1.
         -4   -1    0    0    0  501 -0.00000000000E+00 -0.00000000000E+00 -0.33214626467E+02  0.33238897565E+02  0.12700000000E+01 0.  1.
         25    2    1    2    0    0  0.55866021134E+01  0.34902848080E+02  0.12184752033E+03  0.17810360054E+03  0.12499862155E+03 0.  0.
    9000005    1    3    3    0    0  0.27535961331E+02 -0.36184755477E+02  0.14979889124E+02  0.47884890869E+02  0.10000000000E+01 0.  0.
    9000005    1    3    3    0    0 -0.21949359217E+02  0.71087603557E+02  0.10686763121E+03  0.13021870967E+03  0.10000000000E+01 0.  0.
         21    1    1    2  502  501 -0.55866021134E+01 -0.34902848080E+02  0.56137816757E+02  0.66339078962E+02  0.00000000000E+00 0. -1.
<mgrwt>
<rscale>  1 0.12990025E+03</rscale>
<asrwt>0</asrwt>
<pdfrwt beam="1">  1        4 0.32494462E-01 0.12990025E+03</pdfrwt>
<pdfrwt beam="2">  1       -4 0.51121034E-02 0.12990025E+03</pdfrwt>
<totfact> 0.34090131E+03</totfact>
</mgrwt>
</event>
<event>
 6    4  0.5642870E-004  0.1396141E+03  0.7818608E-02  0.1213849E+00
          4   -1    0    0  502    0  0.00000000000E+00  0.00000000000E+00  0.15697650674E+03  0.15698164405E+03  0.12700000000E+01 0. -1.
         -4   -1    0    0    0  501 -0.00000000000E+00 -0.00000000000E+00 -0.74904334842E+02  0.74915100467E+02  0.12700000000E+01 0. -1.
         25    2    1    2    0    0 -0.48374682980E+02  0.39082486189E+02  0.14980695287E+02  0.14041550647E+03  0.12499817017E+03 0.  0.
    9000005    1    3    3    0    0 -0.12543917530E+02  0.13153752556E+02 -0.54827084838E+02  0.57770064091E+02  0.10000000000E+01 0.  0.
    9000005    1    3    3    0    0 -0.35830765450E+02  0.25928733632E+02  0.69807780125E+02  0.82645442381E+02  0.10000000000E+01 0.  0.
         21    1    1    2  502  501  0.48374682980E+02 -0.39082486189E+02  0.67091476611E+02  0.91481238043E+02  0.00000000000E+00 0. -1.
<mgrwt>
<rscale>  1 0.13961409E+03</rscale>
<asrwt>0</asrwt>
<pdfrwt beam="1">  1        4 0.24151455E-01 0.13961409E+03</pdfrwt>
<pdfrwt beam="2">  1       -4 0.11524967E-01 0.13961409E+03</pdfrwt>
<totfact> 0.15754120E+03</totfact>
</mgrwt>
</event>
<event>
 6    4  0.5642870E-004  0.1270074E+03  0.7818608E-02  0.1231965E+00
          4   -1    0    0  502    0  0.00000000000E+00  0.00000000000E+00  0.68973530418E+02  0.68985221594E+02  0.12700000000E+01 0.  1.
         -4   -1    0    0    0  501 -0.00000000000E+00 -0.00000000000E+00 -0.94635232170E+02  0.94643753454E+02  0.12700000000E+01 0.  1.
         25    2    1    2    0    0  0.21526821371E+02  0.65755744538E+01 -0.44189833091E+02  0.13447534974E+03  0.12499694445E+03 0.  0.
    9000005    1    3    3    0    0  0.16312837405E+02  0.51928778792E+02  0.17985040022E+02  0.57333832906E+02  0.10000000000E+01 0.  0.
    9000005    1    3    3    0    0  0.52139839659E+01 -0.45353204339E+02 -0.62174873113E+02  0.77141516833E+02  0.10000000000E+01 0.  0.
         21    1    1    2  502  501 -0.21526821371E+02 -0.65755744538E+01  0.18528131340E+02  0.29153625309E+02  0.00000000000E+00 0.  1.
<mgrwt>
<rscale>  1 0.12700739E+03</rscale>
<asrwt>0</asrwt>
<pdfrwt beam="1">  1        4 0.10612867E-01 0.12700739E+03</pdfrwt>
<pdfrwt beam="2">  1       -4 0.14560821E-01 0.12700739E+03</pdfrwt>
<totfact> 0.43785180E+03</totfact>
</mgrwt>
</event>
<event>
 6    4  0.5642870E-004  0.1266833E+03  0.7818608E-02  0.1232462E+00
         -4   -1    0    0    0  501 -0.00000000000E+00  0.00000000000E+00  0.17887303550E+03  0.17887754394E+03  0.12700000000E+01 0. -1.
          4   -1    0    0  502    0  0.00000000000E+00 -0.00000000000E+00 -0.32397990752E+02  0.32422873172E+02  0.12700000000E+01 0. -1.
         25    2    1    2    0    0 -0.10621392570E+02  0.17646670895E+02  0.10328876476E+03  0.16345406143E+03  0.12499776917E+03 0.  0.
    9000005    1    3    3    0    0  0.23259200780E+02 -0.11549939808E+02  0.11443599875E+03  0.11734985872E+03  0.10000000000E+01 0.  0.
    9000005    1    3    3    0    0 -0.33880593350E+02  0.29196610703E+02 -0.11147233989E+02  0.46104202714E+02  0.10000000000E+01 0.  0.
         21    1    1    2  502  501  0.10621392570E+02 -0.17646670895E+02  0.43186279981E+02  0.47846355686E+02  0.00000000000E+00 0. -1.
<mgrwt>
<rscale>  1 0.12668331E+03</rscale>
<asrwt>0</asrwt>
<pdfrwt beam="2">  1        4 0.49865671E-02 0.12668331E+03</pdfrwt>
<pdfrwt beam="1">  1       -4 0.27521189E-01 0.12668331E+03</pdfrwt>
<totfact> 0.48240870E+03</totfact>
</mgrwt>
</event>
<event>
 6    4  0.5642870E-004  0.1420574E+03  0.7818608E-02  0.1210587E+00
          4   -1    0    0  502    0  0.00000000000E+00  0.00000000000E+00  0.20657683315E+03  0.20658073698E+03  0.12700000000E+01 0.  1.
         -4   -1    0    0    0  501 -0.00000000000E+00 -0.00000000000E+00 -0.64534808761E+02  0.64547303908E+02  0.12700000000E+01 0.  1.
         25    2    1    2    0    0 -0.22136164720E+02  0.63755962303E+02  0.37893965080E+02  0.14702465345E+03  0.12500185445E+03 0.  0.
    9000005    1    3    3    0    0  0.17661164312E+02  0.91318015817E+02  0.31392256777E+02  0.98170110131E+02  0.10000000000E+01 0.  0.
    9000005    1    3    3    0    0 -0.39797329031E+02 -0.27562053514E+02  0.65017083027E+01  0.48854543318E+02  0.10000000000E+01 0.  0.
         21    1    1    2  502  501  0.22136164720E+02 -0.63755962303E+02  0.10414805931E+03  0.12410338744E+03  0.00000000000E+00 0.  1.
<mgrwt>
<rscale>  1 0.14205737E+03</rscale>
<asrwt>0</asrwt>
<pdfrwt beam="1">  1        4 0.31782312E-01 0.14205737E+03</pdfrwt>
<pdfrwt beam="2">  1       -4 0.99296937E-02 0.14205737E+03</pdfrwt>
<totfact> 0.12174600E+03</totfact>
</mgrwt>
</event>
<event>
 6    4  0.5642870E-004  0.1342600E+03  0.7818608E-02  0.1221268E+00
         -4   -1    0    0    0  501 -0.00000000000E+00  0.00000000000E+00  0.20962523564E+04  0.20962527411E+04  0.12700000000E+01 0.  1.
          4   -1    0    0  502    0  0.00000000000E+00 -0.00000000000E+00 -0.93667506204E+01  0.94524556166E+01  0.12700000000E+01 0.  1.
         25    2    1    2    0    0 -0.48845398485E+02  0.38149527481E+01  0.20103674645E+04  0.20148456746E+04  0.12500129305E+03 0.  0.
    9000005    1    3    3    0    0 -0.84066090084E+02 -0.22457546978E+02  0.11098349524E+04  0.11132412454E+04  0.10000000000E+01 0.  0.
    9000005    1    3    3    0    0  0.35220691599E+02  0.26272499726E+02  0.90053251214E+03  0.90160442921E+03  0.10000000000E+01 0.  0.
         21    1    1    2  502  501  0.48845398485E+02 -0.38149527481E+01  0.76518141245E+02  0.90859522105E+02  0.00000000000E+00 0.  1.
<mgrwt>
<rscale>  1 0.13426001E+03</rscale>
<asrwt>0</asrwt>
<pdfrwt beam="2">  1        4 0.14476614E-02 0.13426001E+03</pdfrwt>
<pdfrwt beam="1">  1       -4 0.32250686E+00 0.13426001E+03</pdfrwt>
<totfact> 0.78339341E+01</totfact>
</mgrwt>
</event>
<event>
 6    4  0.5642870E-004  0.1266532E+03  0.7818608E-02  0.1232508E+00
          4   -1    0    0  502    0  0.00000000000E+00  0.00000000000E+00  0.15794477034E+02  0.15845453757E+02  0.12700000000E+01 0.  1.
         -4   -1    0    0    0  501 -0.00000000000E+00 -0.00000000000E+00 -0.34935175714E+03  0.34935406555E+03  0.12700000000E+01 0.  1.
         25    2    1    2    0    0 -0.15149996225E+02 -0.13674693152E+02 -0.30351672948E+03  0.32888210888E+03  0.12499806737E+03 0.  0.
    9000005    1    3    3    0    0  0.10983685476E+02 -0.66659350649E+02 -0.16201625765E+03  0.17554024644E+03  0.10000000000E+01 0.  0.
    9000005    1    3    3    0    0 -0.26133681701E+02  0.52984657497E+02 -0.14150047183E+03  0.15334186244E+03  0.10000000000E+01 0.  0.
         21    1    1    2  502  501  0.15149996225E+02  0.13674693152E+02 -0.30040550627E+02  0.36317410431E+02  0.00000000000E+00 0.  1.
<mgrwt>
<rscale>  1 0.12665321E+03</rscale>
<asrwt>0</asrwt>
<pdfrwt beam="1">  1        4 0.24340187E-02 0.12665321E+03</pdfrwt>
<pdfrwt beam="2">  1       -4 0.53750517E-01 0.12665321E+03</pdfrwt>
<totfact> 0.40319494E+03</totfact>
</mgrwt>
</event>
<event>
 6    4  0.5642870E-004  0.1270799E+03  0.7818608E-02  0.1231854E+00
         -4   -1    0    0    0  501 -0.00000000000E+00  0.00000000000E+00  0.17788429151E+03  0.17788882502E+03  0.12700000000E+01 0.  1.
          4   -1    0    0  502    0  0.00000000000E+00 -0.00000000000E+00 -0.48121190901E+02  0.48137946713E+02  0.12700000000E+01 0.  1.
         25    2    1    2    0    0  0.12609498198E+02 -0.19115194375E+02  0.14920416772E+03  0.19598771064E+03  0.12499963583E+03 0.  0.
    9000005    1    3    3    0    0 -0.28596449885E+02 -0.91202417254E+00 -0.10158601520E+02  0.30377391576E+02  0.10000000000E+01 0.  0.
    9000005    1    3    3    0    0  0.41205948082E+02 -0.18203170202E+02  0.15936276924E+03  0.16561031907E+03  0.10000000000E+01 0.  0.
         21    1    1    2  502  501 -0.12609498198E+02  0.19115194375E+02 -0.19441067107E+02  0.30039061088E+02  0.00000000000E+00 0.  1.
<mgrwt>
<rscale>  1 0.12707989E+03</rscale>
<asrwt>0</asrwt>
<pdfrwt beam="2">  1        4 0.74048977E-02 0.12707989E+03</pdfrwt>
<pdfrwt beam="1">  1       -4 0.27368452E-01 0.12707989E+03</pdfrwt>
<totfact> 0.25661934E+03</totfact>
</mgrwt>
</event>
<event>
 6    4  0.5642870E-004  0.1285171E+03  0.7818608E-02  0.1229673E+00
          4   -1    0    0  502    0  0.00000000000E+00  0.00000000000E+00  0.14159194835E+03  0.14159764382E+03  0.12700000000E+01 0. -1.
         -4   -1    0    0    0  501 -0.00000000000E+00 -0.00000000000E+00 -0.44852571850E+02  0.44870548264E+02  0.12700000000E+01 0. -1.
         25    2    1    2    0    0 -0.20465933914E+02  0.21742170105E+02  0.86441075518E+02  0.15488288831E+03  0.12500029257E+03 0.  0.
    9000005    1    3    3    0    0 -0.23896420280E+02  0.53164239168E+02 -0.46272571786E+01  0.58479797687E+02  0.10000000000E+01 0.  0.
    9000005    1    3    3    0    0  0.34304863665E+01 -0.31422069063E+02  0.91068332697E+02  0.96403090620E+02  0.10000000000E+01 0.  0.
         21    1    1    2  502  501  0.20465933914E+02 -0.21742170105E+02  0.10298300978E+02  0.31585303780E+02  0.00000000000E+00 0.  1.
<mgrwt>
<rscale>  1 0.12851712E+03</rscale>
<asrwt>0</asrwt>
<pdfrwt beam="1">  1        4 0.21785198E-01 0.12851712E+03</pdfrwt>
<pdfrwt beam="2">  1       -4 0.69022166E-02 0.12851712E+03</pdfrwt>
<totfact> 0.43934960E+03</totfact>
</mgrwt>
</event>
<event>
 6    4  0.5642870E-004  0.1266749E+03  0.7818608E-02  0.1232475E+00
          4   -1    0    0  502    0  0.00000000000E+00  0.00000000000E+00  0.55039185141E+02  0.55053835479E+02  0.12700000000E+01 0. -1.
         -4   -1    0    0    0  501 -0.00000000000E+00 -0.00000000000E+00 -0.10823368829E+03  0.10824113904E+03  0.12700000000E+01 0. -1.
         25    2    1    2    0    0 -0.13027945746E+02 -0.15793978594E+02 -0.61968965093E+02  0.14102013866E+03  0.12500939861E+03 0.  0.
    9000005    1    3    3    0    0 -0.55718805526E+02 -0.46713811666E+02 -0.45532087047E+02  0.85795899904E+02  0.10000000000E+01 0.  0.
    9000005    1    3    3    0    0  0.42690859780E+02  0.30919833072E+02 -0.16436878046E+02  0.55224238753E+02  0.10000000000E+01 0.  0.
         21    1    1    2  502  501  0.13027945746E+02  0.15793978594E+02  0.87744619463E+01  0.22274835861E+02  0.00000000000E+00 0.  1.
<mgrwt>
<rscale>  1 0.12667489E+03</rscale>
<asrwt>0</asrwt>
<pdfrwt beam="1">  1        4 0.84692671E-02 0.12667489E+03</pdfrwt>
<pdfrwt beam="2">  1       -4 0.16653037E-01 0.12667489E+03</pdfrwt>
<totfact> 0.50488725E+03</totfact>
</mgrwt>
</event>
<event>
 6    4  0.5642870E-004  0.1348945E+03  0.7818608E-02  0.1220369E+00
         -4   -1    0    0    0  501 -0.00000000000E+00  0.00000000000E+00  0.26371332028E+02  0.26401894874E+02  0.12700000000E+01 0. -1.
          4   -1    0    0  502    0  0.00000000000E+00 -0.00000000000E+00 -0.36372337667E+03  0.36372559387E+03  0.12700000000E+01 0. -1.
         25    2    1    2    0    0 -0.16891982157E+02 -0.47807378181E+02 -0.18085463024E+03  0.22562118132E+03  0.12500254281E+03 0.  0.
    9000005    1    3    3    0    0  0.10755725079E+02 -0.81063506101E+02 -0.15492798733E+03  0.17518749642E+03  0.10000000000E+01 0.  0.
    9000005    1    3    3    0    0 -0.27647707236E+02  0.33256127919E+02 -0.25926642910E+02  0.50433684896E+02  0.10000000000E+01 0.  0.
         21    1    1    2  502  501  0.16891982157E+02  0.47807378181E+02 -0.15649741440E+03  0.16450630742E+03  0.00000000000E+00 0. -1.
<mgrwt>
<rscale>  1 0.13489448E+03</rscale>
<asrwt>0</asrwt>
<pdfrwt beam="2">  1        4 0.55959960E-01 0.13489448E+03</pdfrwt>
<pdfrwt beam="1">  1       -4 0.40596498E-02 0.13489448E+03</pdfrwt>
<totfact> 0.16873948E+03</totfact>
</mgrwt>
</event>
<event>
 6    4  0.5642870E-004  0.1429486E+03  0.7818608E-02  0.1209416E+00
          4   -1    0    0  502    0  0.00000000000E+00  0.00000000000E+00  0.22641362742E+03  0.22641718923E+03  0.12700000000E+01 0.  1.
         -4   -1    0    0    0  501 -0.00000000000E+00 -0.00000000000E+00 -0.61742108694E+02  0.61755168901E+02  0.12700000000E+01 0.  1.
         25    2    1    2    0    0  0.32401019734E+02  0.61314311395E+02  0.45009025179E+02  0.14986695975E+03  0.12500008966E+03 0.  0.
    9000005    1    3    3    0    0 -0.10400869341E+02  0.66863353557E+02  0.72111035579E+02  0.98893314154E+02  0.10000000000E+01 0.  0.
    9000005    1    3    3    0    0  0.42801889075E+02 -0.55490421628E+01 -0.27102010400E+02  0.50973645593E+02  0.10000000000E+01 0.  0.
         21    1    1    2  502  501 -0.32401019734E+02 -0.61314311395E+02  0.11966249354E+03  0.13830539839E+03  0.00000000000E+00 0.  1.
<mgrwt>
<rscale>  1 0.14294857E+03</rscale>
<asrwt>0</asrwt>
<pdfrwt beam="1">  1        4 0.34834144E-01 0.14294857E+03</pdfrwt>
<pdfrwt beam="2">  1       -4 0.95000648E-02 0.14294857E+03</pdfrwt>
<totfact> 0.11014151E+03</totfact>
</mgrwt>
</event>
<event>
 6    4  0.5642870E-004  0.1276893E+03  0.7818608E-02  0.1230925E+00
         -4   -1    0    0    0  501 -0.00000000000E+00  0.00000000000E+00  0.19043721510E+02  0.19086021821E+02  0.12700000000E+01 0.  1.
          4   -1    0    0  502    0  0.00000000000E+00 -0.00000000000E+00 -0.31094144524E+03  0.31094403880E+03  0.12700000000E+01 0.  1.
         25    2    1    2    0    0 -0.76919642627E+01 -0.24917180258E+02 -0.23530308570E+03  0.26771645666E+03  0.12499810733E+03 0.  0.
    9000005    1    3    3    0    0  0.56535624916E+01  0.20634138320E+02 -0.21502760180E+03  0.21609164716E+03  0.10000000000E+01 0.  0.
    9000005    1    3    3    0    0 -0.13345526754E+02 -0.45551318578E+02 -0.20275483898E+02  0.51624809500E+02  0.10000000000E+01 0.  0.
         21    1    1    2  502  501  0.76919642627E+01  0.24917180258E+02 -0.56594638023E+02  0.62313603966E+02  0.00000000000E+00 0.  1.
<mgrwt>
<rscale>  1 0.12768931E+03</rscale>
<asrwt>0</asrwt>
<pdfrwt beam="2">  1        4 0.47840595E-01 0.12768931E+03</pdfrwt>
<pdfrwt beam="1">  1       -4 0.29332569E-02 0.12768931E+03</pdfrwt>
<totfact> 0.38319871E+03</totfact>
</mgrwt>
</event>
<event>
 6    4  0.5642870E-004  0.1266325E+03  0.7818608E-02  0.1232540E+00
         -4   -1    0    0    0  501 -0.00000000000E+00  0.00000000000E+00  0.70458900757E+01  0.71594320276E+01  0.12700000000E+01 0. -1.
          4   -1    0    0  502    0  0.00000000000E+00 -0.00000000000E+00 -0.12880763950E+04  0.12880770211E+04  0.12700000000E+01 0. -1.
         25    2    1    2    0    0 -0.83705319446E+01 -0.18448426370E+02 -0.56913249920E+03  0.58305025499E+03  0.12500155184E+03 0.  0.
    9000005    1    3    3    0    0 -0.23453374857E+02 -0.54464330808E+02 -0.50113932167E+03  0.50463654629E+03  0.10000000000E+01 0.  0.
    9000005    1    3    3    0    0  0.15082842913E+02  0.36015904439E+02 -0.67993177526E+02  0.78413708705E+02  0.10000000000E+01 0.  0.
         21    1    1    2  502  501  0.83705319446E+01  0.18448426370E+02 -0.71189800573E+03  0.71218619813E+03  0.00000000000E+00 0. -1.
<mgrwt>
<rscale>  1 0.12663253E+03</rscale>
<asrwt>0</asrwt>
<pdfrwt beam="2">  1        4 0.19817420E+00 0.12663253E+03</pdfrwt>
<pdfrwt beam="1">  1       -4 0.10927663E-02 0.12663253E+03</pdfrwt>
<totfact> 0.63296874E+02</totfact>
</mgrwt>
</event>
<event>
 6    4  0.5642870E-004  0.1293408E+03  0.7818608E-02  0.1228437E+00
          4   -1    0    0  502    0  0.00000000000E+00  0.00000000000E+00  0.31635970900E+02  0.31661452190E+02  0.12700000000E+01 0.  1.
         -4   -1    0    0    0  501 -0.00000000000E+00 -0.00000000000E+00 -0.45866317480E+03  0.45866493306E+03  0.12700000000E+01 0.  1.
         25    2    1    2    0    0  0.32647543842E+02  0.62038529325E+01 -0.43691282453E+03  0.45565542615E+03  0.12499880489E+03 0.  0.
    9000005    1    3    3    0    0 -0.36671116131E+01 -0.33729560842E+02 -0.36050918020E+03  0.36210357633E+03  0.10000000000E+01 0.  0.
    9000005    1    3    3    0    0  0.36314655455E+02  0.39933413774E+02 -0.76403644338E+02  0.93551849819E+02  0.10000000000E+01 0.  0.
         21    1    1    2  502  501 -0.32647543842E+02 -0.62038529325E+01  0.98856206307E+01  0.34670959107E+02  0.00000000000E+00 0.  1.
<mgrwt>
<rscale>  1 0.12934083E+03</rscale>
<asrwt>0</asrwt>
<pdfrwt beam="1">  1        4 0.48691681E-02 0.12934083E+03</pdfrwt>
<pdfrwt beam="2">  1       -4 0.70565656E-01 0.12934083E+03</pdfrwt>
<totfact> 0.76581214E+02</totfact>
</mgrwt>
</event>
<event>
 6    4  0.5642870E-004  0.1296291E+03  0.7818608E-02  0.1228007E+00
          4   -1    0    0  502    0  0.00000000000E+00  0.00000000000E+00  0.51712574680E+03  0.51712730628E+03  0.12700000000E+01 0. -1.
         -4   -1    0    0    0  501 -0.00000000000E+00 -0.00000000000E+00 -0.14367219621E+02  0.14423241648E+02  0.12700000000E+01 0. -1.
         25    2    1    2    0    0  0.17879255691E+02  0.29335003190E+02  0.31423648059E+03  0.33992389987E+03  0.12499392695E+03 0.  0.
    9000005    1    3    3    0    0 -0.20926824706E+02  0.39330492866E+02  0.28930724016E+03  0.29271914674E+03  0.10000000000E+01 0.  0.
    9000005    1    3    3    0    0  0.38806080398E+02 -0.99954896763E+01  0.24929240433E+02  0.47204753132E+02  0.10000000000E+01 0.  0.
         21    1    1    2  502  501 -0.17879255691E+02 -0.29335003190E+02  0.18852204659E+03  0.19162664806E+03  0.00000000000E+00 0. -1.
<mgrwt>
<rscale>  1 0.12962906E+03</rscale>
<asrwt>0</asrwt>
<pdfrwt beam="1">  1        4 0.79562249E-01 0.12962906E+03</pdfrwt>
<pdfrwt beam="2">  1       -4 0.22147705E-02 0.12962906E+03</pdfrwt>
<totfact> 0.20350556E+03</totfact>
</mgrwt>
</event>
<event>
 6    4  0.5642870E-004  0.1270026E+03  0.7818608E-02  0.1231972E+00
         -4   -1    0    0    0  501 -0.00000000000E+00  0.00000000000E+00  0.13134208639E+02  0.13195466516E+02  0.12700000000E+01 0. -1.
          4   -1    0    0  502    0  0.00000000000E+00 -0.00000000000E+00 -0.61076033638E+03  0.61076165678E+03  0.12700000000E+01 0. -1.
         25    2    1    2    0    0 -0.10221594423E+02 -0.20002451756E+02 -0.30386100377E+03  0.32933443726E+03  0.12500033153E+03 0.  0.
    9000005    1    3    3    0    0 -0.61840312919E+02 -0.78824476326E+01 -0.93425944353E+02  0.11231991970E+03  0.10000000000E+01 0.  0.
    9000005    1    3    3    0    0  0.51618718495E+02 -0.12120004124E+02 -0.21043505942E+03  0.21701451756E+03  0.10000000000E+01 0.  0.
         21    1    1    2  502  501  0.10221594423E+02  0.20002451756E+02 -0.29376512397E+03  0.29462268604E+03  0.00000000000E+00 0. -1.
<mgrwt>
<rscale>  1 0.12700261E+03</rscale>
<asrwt>0</asrwt>
<pdfrwt beam="2">  1        4 0.93967921E-01 0.12700261E+03</pdfrwt>
<pdfrwt beam="1">  1       -4 0.20254617E-02 0.12700261E+03</pdfrwt>
<totfact> 0.16013867E+03</totfact>
</mgrwt>
</event>
<event>
 6    4  0.5642870E-004  0.1294201E+03  0.7818608E-02  0.1228319E+00
         -4   -1    0    0    0  501 -0.00000000000E+00  0.00000000000E+00  0.61867931477E+03  0.61868061827E+03  0.12700000000E+01 0. -1.
          4   -1    0    0  502    0  0.00000000000E+00 -0.00000000000E+00 -0.10693754608E+02  0.10768903733E+02  0.12700000000E+01 0. -1.
         25    2    1    2    0    0  0.11735508139E+02  0.31431747447E+02  0.48406570628E+03  0.50106803157E+03  0.12499554940E+03 0.  0.
    9000005    1    3    3    0    0 -0.43168759039E+02 -0.14931620865E+02  0.30017796226E+03  0.30363514962E+03  0.10000000000E+01 0.  0.
    9000005    1    3    3    0    0  0.54904267178E+02  0.46363368313E+02  0.18388774402E+03  0.19743288195E+03  0.10000000000E+01 0.  0.
         21    1    1    2  502  501 -0.11735508139E+02 -0.31431747447E+02  0.12391985388E+03  0.12838149043E+03  0.00000000000E+00 0. -1.
<mgrwt>
<rscale>  1 0.12942011E+03</rscale>
<asrwt>0</asrwt>
<pdfrwt beam="2">  1        4 0.16510741E-02 0.12942011E+03</pdfrwt>
<pdfrwt beam="1">  1       -4 0.95187306E-01 0.12942011E+03</pdfrwt>
<totfact> 0.21365621E+03</totfact>
</mgrwt>
</event>
<event>
 6    4  0.5642870E-004  0.1266357E+03  0.7818608E-02  0.1232535E+00
          4   -1    0    0  502    0  0.00000000000E+00  0.00000000000E+00  0.65220181176E+01  0.66445180658E+01  0.12700000000E+01 0.  1.
         -4   -1    0    0    0  501 -0.00000000000E+00 -0.00000000000E+00 -0.87379968624E+03  0.87380060916E+03  0.12700000000E+01 0.  1.
         25    2    1    2    0    0  0.13521146721E+02 -0.15128409156E+02 -0.80620587632E+03  0.81609099817E+03  0.12499964847E+03 0.  0.
    9000005    1    3    3    0    0 -0.23999429016E+02  0.95217321116E+01 -0.70377971980E+03  0.70425388176E+03  0.10000000000E+01 0.  0.
    9000005    1    3    3    0    0  0.37520575737E+02 -0.24650141268E+02 -0.10242615652E+03  0.11183711641E+03  0.10000000000E+01 0.  0.
         21    1    1    2  502  501 -0.13521146721E+02  0.15128409156E+02 -0.61071791801E+02  0.64354129051E+02  0.00000000000E+00 0. -1.
<mgrwt>
<rscale>  1 0.12663571E+03</rscale>
<asrwt>0</asrwt>
<pdfrwt beam="1">  1        4 0.10128822E-02 0.12663571E+03</pdfrwt>
<pdfrwt beam="2">  1       -4 0.13444012E+00 0.12663571E+03</pdfrwt>
<totfact> 0.19668998E+03</totfact>
</mgrwt>
</event>
<event>
 6    4  0.5642870E-004  0.1324818E+03  0.7818608E-02  0.1223819E+00
         -4   -1    0    0    0  501 -0.00000000000E+00  0.00000000000E+00  0.58679358451E+02  0.58693100176E+02  0.12700000000E+01 0.  1.
          4   -1    0    0  502    0  0.00000000000E+00 -0.00000000000E+00 -0.13608000033E+03  0.13608592649E+03  0.12700000000E+01 0.  1.
         25    2    1    2    0    0  0.25524730432E+02  0.35676689143E+02 -0.43842367802E+02  0.13954773327E+03  0.12500831426E+03 0.  0.
    9000005    1    3    3    0    0  0.61248161486E+02  0.24656887220E+02  0.16949968156E+02  0.68173314378E+02  0.10000000000E+01 0.  0.
    9000005    1    3    3    0    0 -0.35723431054E+02  0.11019801924E+02 -0.60792335958E+02  0.71374418890E+02  0.10000000000E+01 0.  0.
         21    1    1    2  502  501 -0.25524730432E+02 -0.35676689143E+02 -0.33558274077E+02  0.55231293402E+02  0.00000000000E+00 0.  1.
<mgrwt>
<rscale>  1 0.13248176E+03</rscale>
<asrwt>0</asrwt>
<pdfrwt beam="2">  1        4 0.20936897E-01 0.13248176E+03</pdfrwt>
<pdfrwt beam="1">  1       -4 0.90291066E-02 0.13248176E+03</pdfrwt>
<totfact> 0.30502523E+03</totfact>
</mgrwt>
</event>
<event>
 6    4  0.5642870E-004  0.1273139E+03  0.7818608E-02  0.1231497E+00
         -4   -1    0    0    0  501 -0.00000000000E+00  0.00000000000E+00  0.54243135901E+02  0.54258001183E+02  0.12700000000E+01 0. -1.
          4   -1    0    0  502    0  0.00000000000E+00 -0.00000000000E+00 -0.13051099618E+03  0.13051717520E+03  0.12700000000E+01 0. -1.
         25    2    1    2    0    0 -0.22408461375E+02  0.90071621653E+01 -0.27347285100E+02  0.13021795150E+03  0.12500229110E+03 0.  0.
    9000005    1    3    3    0    0  0.39385546263E+02  0.15934246916E+02  0.24671982248E+02  0.49140901368E+02  0.10000000000E+01 0.  0.
    9000005    1    3    3    0    0 -0.61794007638E+02 -0.69270847505E+01 -0.52019267348E+02  0.81077050135E+02  0.10000000000E+01 0.  0.
         21    1    1    2  502  501  0.22408461375E+02 -0.90071621653E+01 -0.48920575177E+02  0.54557224884E+02  0.00000000000E+00 0. -1.
<mgrwt>
<rscale>  1 0.12731395E+03</rscale>
<asrwt>0</asrwt>
<pdfrwt beam="2">  1        4 0.20080233E-01 0.12731395E+03</pdfrwt>
<pdfrwt beam="1">  1       -4 0.83467167E-02 0.12731395E+03</pdfrwt>
<totfact> 0.37124265E+03</totfact>
</mgrwt>
</event>
<event>
 6    4  0.5642870E-004  0.1277774E+03  0.7818608E-02  0.1230792E+00
         -4   -1    0    0    0  501 -0.00000000000E+00  0.00000000000E+00  0.11691747406E+04  0.11691754303E+04  0.12700000000E+01 0.  1.
          4   -1    0    0  502    0  0.00000000000E+00 -0.00000000000E+00 -0.93772789120E+01  0.94628885545E+01  0.12700000000E+01 0.  1.
         25    2    1    2    0    0 -0.75759063936E+01  0.25400561836E+02  0.11355438574E+04  0.11427103323E+04  0.12499787429E+03 0.  0.
    9000005    1    3    3    0    0 -0.66006187568E+02  0.76431966916E+01  0.55625812823E+03  0.56021365610E+03  0.10000000000E+01 0.  0.
    9000005    1    3    3    0    0  0.58430281174E+02  0.17757365145E+02  0.57928572921E+03  0.58249667625E+03  0.10000000000E+01 0.  0.
         21    1    1    2  502  501  0.75759063936E+01 -0.25400561836E+02  0.24253604217E+02  0.35927986540E+02  0.00000000000E+00 0.  1.
<mgrwt>
<rscale>  1 0.12777735E+03</rscale>
<asrwt>0</asrwt>
<pdfrwt beam="2">  1        4 0.14492965E-02 0.12777735E+03</pdfrwt>
<pdfrwt beam="1">  1       -4 0.17987971E+00 0.12777735E+03</pdfrwt>
<totfact> 0.54095469E+02</totfact>
</mgrwt>
</event>
<event>
 6    4  0.5642870E-004  0.1290656E+03  0.7818608E-02  0.1228849E+00
          4   -1    0    0  502    0  0.00000000000E+00  0.00000000000E+00  0.11039050714E+03  0.11039781233E+03  0.12700000000E+01 0. -1.
         -4   -1    0    0    0  501 -0.00000000000E+00 -0.00000000000E+00 -0.70135481891E+02  0.70146979408E+02  0.12700000000E+01 0. -1.
         25    2    1    2    0    0  0.12540576370E+02 -0.29594914407E+02  0.43343740466E-01  0.12906562756E+03  0.12499923729E+03 0.  0.
    9000005    1    3    3    0    0  0.67250526205E+02 -0.17820305522E+02  0.14899260681E+02  0.71156057595E+02  0.10000000000E+01 0.  0.
    9000005    1    3    3    0    0 -0.54709949834E+02 -0.11774608885E+02 -0.14855916940E+02  0.57909569964E+02  0.10000000000E+01 0.  0.
         21    1    1    2  502  501 -0.12540576370E+02  0.29594914407E+02  0.40211681508E+02  0.51479164175E+02  0.00000000000E+00 0.  1.
<mgrwt>
<rscale>  1 0.12906562E+03</rscale>
<asrwt>0</asrwt>
<pdfrwt beam="1">  1        4 0.16984601E-01 0.12906562E+03</pdfrwt>
<pdfrwt beam="2">  1       -4 0.10791521E-01 0.12906562E+03</pdfrwt>
<totfact> 0.32630561E+03</totfact>
</mgrwt>
</event>
<event>
 6    4  0.5642870E-004  0.1373242E+03  0.7818608E-02  0.1216975E+00
          4   -1    0    0  502    0  0.00000000000E+00  0.00000000000E+00  0.24461851017E+03  0.24462180691E+03  0.12700000000E+01 0.  1.
         -4   -1    0    0    0  501 -0.00000000000E+00 -0.00000000000E+00 -0.12303876703E+03  0.12304532130E+03  0.12700000000E+01 0.  1.
         25    2    1    2    0    0 -0.38351933020E+02  0.41984689368E+02 -0.79517148804E+02  0.15868496425E+03  0.12499742404E+03 0.  0.
    9000005    1    3    3    0    0  0.12555613197E+02  0.70277205999E+02 -0.17314750792E+02  0.73466520951E+02  0.10000000000E+01 0.  0.
    9000005    1    3    3    0    0 -0.50907546217E+02 -0.28292516630E+02 -0.62202398012E+02  0.85218443295E+02  0.10000000000E+01 0.  0.
         21    1    1    2  502  501  0.38351933020E+02 -0.41984689368E+02  0.20109689194E+03  0.20898216396E+03  0.00000000000E+00 0.  1.
<mgrwt>
<rscale>  1 0.13732422E+03</rscale>
<asrwt>0</asrwt>
<pdfrwt beam="1">  1        4 0.37634375E-01 0.13732422E+03</pdfrwt>
<pdfrwt beam="2">  1       -4 0.18929799E-01 0.13732422E+03</pdfrwt>
<totfact> 0.28527187E+02</totfact>
</mgrwt>
</event>
<event>
 6    4  0.5642870E-004  0.1615045E+03  0.7818608E-02  0.1187009E+00
          4   -1    0    0  502    0  0.00000000000E+00  0.00000000000E+00  0.12795241764E+04  0.12795248067E+04  0.12700000000E+01 0. -1.
         -4   -1    0    0    0  501 -0.00000000000E+00 -0.00000000000E+00 -0.15520888988E+02  0.15572761315E+02  0.12700000000E+01 0. -1.
         25    2    1    2    0    0  0.13458862303E+01  0.10226050241E+03  0.53169722956E+03  0.55568483877E+03  0.12499869742E+03 0.  0.
    9000005    1    3    3    0    0 -0.25338808285E+02  0.27346404900E+01  0.31179207923E+03  0.31283355660E+03  0.10000000000E+01 0.  0.
    9000005    1    3    3    0    0  0.26684694515E+02  0.99525861915E+02  0.21990515033E+03  0.24285128217E+03  0.10000000000E+01 0.  0.
         21    1    1    2  502  501 -0.13458862303E+01 -0.10226050241E+03  0.73230605789E+03  0.73941272925E+03  0.00000000000E+00 0. -1.
<mgrwt>
<rscale>  1 0.16150448E+03</rscale>
<asrwt>0</asrwt>
<pdfrwt beam="1">  1        4 0.19685397E+00 0.16150448E+03</pdfrwt>
<pdfrwt beam="2">  1       -4 0.23918671E-02 0.16150448E+03</pdfrwt>
<totfact> 0.20244777E+02</totfact>
</mgrwt>
</event>
<event>
 6    4  0.5642870E-004  0.1297769E+03  0.7818608E-02  0.1227787E+00
         -4   -1    0    0    0  501 -0.00000000000E+00  0.00000000000E+00  0.25088757927E+03  0.25089079364E+03  0.12700000000E+01 0.  1.
          4   -1    0    0  502    0  0.00000000000E+00 -0.00000000000E+00 -0.28975561606E+02  0.29003380327E+02  0.12700000000E+01 0.  1.
         25    2    1    2    0    0  0.26855326255E+02 -0.22270444114E+02  0.20088778830E+03  0.23916090195E+03  0.12499940920E+03 0.  0.
    9000005    1    3    3    0    0 -0.13132211231E+02  0.29521716851E+02  0.50998658847E+01  0.32726065600E+02  0.10000000000E+01 0.  0.
    9000005    1    3    3    0    0  0.39987537486E+02 -0.51792160964E+02  0.19578792242E+03  0.20643483635E+03  0.10000000000E+01 0.  0.
         21    1    1    2  502  501 -0.26855326255E+02  0.22270444114E+02  0.21024229361E+02  0.40733272021E+02  0.00000000000E+00 0.  1.
<mgrwt>
<rscale>  1 0.12977686E+03</rscale>
<asrwt>0</asrwt>
<pdfrwt beam="2">  1        4 0.44601658E-02 0.12977686E+03</pdfrwt>
<pdfrwt beam="1">  1       -4 0.38600477E-01 0.12977686E+03</pdfrwt>
<totfact> 0.30408918E+03</totfact>
</mgrwt>
</event>
<event>
 6    4  0.5642870E-004  0.1360746E+03  0.7818608E-02  0.1218711E+00
         -4   -1    0    0    0  501 -0.00000000000E+00  0.00000000000E+00  0.16782201473E+03  0.16782682005E+03  0.12700000000E+01 0. -1.
          4   -1    0    0  502    0  0.00000000000E+00 -0.00000000000E+00 -0.16691699420E+03  0.16692182557E+03  0.12700000000E+01 0. -1.
         25    2    1    2    0    0 -0.35618711057E+02  0.40291303275E+02  0.13413646252E+03  0.19107297325E+03  0.12499683528E+03 0.  0.
    9000005    1    3    3    0    0 -0.32685442234E+02  0.69626167845E+02  0.14115257515E+03  0.16075195444E+03  0.10000000000E+01 0.  0.
    9000005    1    3    3    0    0 -0.29332688231E+01 -0.29334864570E+02 -0.70161126308E+01  0.30321018812E+02  0.10000000000E+01 0.  0.
         21    1    1    2  502  501  0.35618711057E+02 -0.40291303275E+02 -0.13323144199E+03  0.14367567237E+03  0.00000000000E+00 0. -1.
<mgrwt>
<rscale>  1 0.13607458E+03</rscale>
<asrwt>0</asrwt>
<pdfrwt beam="2">  1        4 0.25680279E-01 0.13607458E+03</pdfrwt>
<pdfrwt beam="1">  1       -4 0.25819513E-01 0.13607458E+03</pdfrwt>
<totfact> 0.33460493E+02</totfact>
</mgrwt>
</event>
<event>
 6    4  0.5642870E-004  0.1271531E+03  0.7818608E-02  0.1231742E+00
          4   -1    0    0  502    0  0.00000000000E+00  0.00000000000E+00  0.91215905555E+01  0.92095773118E+01  0.12700000000E+01 0.  1.
         -4   -1    0    0    0  501 -0.00000000000E+00 -0.00000000000E+00 -0.62163738376E+03  0.62163868106E+03  0.12700000000E+01 0.  1.
         25    2    1    2    0    0 -0.18972428495E+02 -0.13338988656E+02 -0.53715525831E+03  0.55199972077E+03  0.12502015255E+03 0.  0.
    9000005    1    3    3    0    0 -0.62965856895E+01 -0.66355075337E+02 -0.20980243260E+03  0.22013791981E+03  0.10000000000E+01 0.  0.
    9000005    1    3    3    0    0 -0.12675842805E+02  0.53016086681E+02 -0.32735282571E+03  0.33186180096E+03  0.10000000000E+01 0.  0.
         21    1    1    2  502  501  0.18972428495E+02  0.13338988656E+02 -0.75360534894E+02  0.78848537595E+02  0.00000000000E+00 0.  1.
<mgrwt>
<rscale>  1 0.12715314E+03</rscale>
<asrwt>0</asrwt>
<pdfrwt beam="1">  1        4 0.14101901E-02 0.12715314E+03</pdfrwt>
<pdfrwt beam="2">  1       -4 0.95643356E-01 0.12715314E+03</pdfrwt>
<totfact> 0.26764423E+03</totfact>
</mgrwt>
</event>
<event>
 6    4  0.5642870E-004  0.1922084E+03  0.7818608E-02  0.1156484E+00
         -4   -1    0    0    0  501 -0.00000000000E+00  0.00000000000E+00  0.44753350751E+02  0.44771367005E+02  0.12700000000E+01 0.  1.
          4   -1    0    0  502    0  0.00000000000E+00 -0.00000000000E+00 -0.65151706966E+03  0.65151830746E+03  0.12700000000E+01 0.  1.
         25    2    1    2    0    0  0.14600419766E+03  0.42944472254E+00 -0.29591482412E+03  0.35285926587E+03  0.12500667271E+03 0.  0.
    9000005    1    3    3    0    0  0.15442118488E+03  0.26373810351E+02 -0.20543589541E+03  0.25835322204E+03  0.10000000000E+01 0.  0.
    9000005    1    3    3    0    0 -0.84169872207E+01 -0.25944365629E+02 -0.90478928705E+02  0.94506043835E+02  0.10000000000E+01 0.  0.
         21    1    1    2  502  501 -0.14600419766E+03 -0.42944472254E+00 -0.31084889479E+03  0.34343040860E+03  0.00000000000E+00 0.  1.
<mgrwt>
<rscale>  1 0.19220842E+03</rscale>
<asrwt>0</asrwt>
<pdfrwt beam="2">  1        4 0.10023487E+00 0.19220842E+03</pdfrwt>
<pdfrwt beam="1">  1       -4 0.68866124E-02 0.19220842E+03</pdfrwt>
<totfact> 0.21302334E+02</totfact>
</mgrwt>
</event>
<event>
 6    4  0.5642870E-004  0.1268684E+03  0.7818608E-02  0.1232178E+00
          4   -1    0    0  502    0  0.00000000000E+00  0.00000000000E+00  0.46364334771E+03  0.46364508709E+03  0.12700000000E+01 0. -1.
         -4   -1    0    0    0  501 -0.00000000000E+00 -0.00000000000E+00 -0.12043762530E+02  0.12110537390E+02  0.12700000000E+01 0. -1.
         25    2    1    2    0    0 -0.34962049172E+01 -0.21393490304E+02  0.36259711925E+03  0.38415134609E+03  0.12500272373E+03 0.  0.
    9000005    1    3    3    0    0 -0.50289804154E+02 -0.44585209007E+02  0.26571741296E+03  0.27408693660E+03  0.10000000000E+01 0.  0.
    9000005    1    3    3    0    0  0.46793599237E+02  0.23191718703E+02  0.96879706287E+02  0.11006440949E+03  0.10000000000E+01 0.  0.
         21    1    1    2  502  501  0.34962049172E+01  0.21393490304E+02  0.89002465935E+02  0.91604278386E+02  0.00000000000E+00 0. -1.
<mgrwt>
<rscale>  1 0.12686838E+03</rscale>
<asrwt>0</asrwt>
<pdfrwt beam="1">  1        4 0.71335021E-01 0.12686838E+03</pdfrwt>
<pdfrwt beam="2">  1       -4 0.18581567E-02 0.12686838E+03</pdfrwt>
<totfact> 0.33672033E+03</totfact>
</mgrwt>
</event>
<event>
 6    4  0.5642870E-004  0.1320844E+03  0.7818608E-02  0.1224395E+00
         -4   -1    0    0    0  501 -0.00000000000E+00  0.00000000000E+00  0.26055399444E+03  0.26055708956E+03  0.12700000000E+01 0. -1.
          4   -1    0    0  502    0  0.00000000000E+00 -0.00000000000E+00 -0.29658379075E+02  0.29685557926E+02  0.12700000000E+01 0. -1.
         25    2    1    2    0    0 -0.39066472781E+02 -0.17134271356E+02  0.18786123689E+03  0.22964784341E+03  0.12500606027E+03 0.  0.
    9000005    1    3    3    0    0 -0.60005246842E+02  0.24913877267E+02  0.44428794820E+02  0.78716254599E+02  0.10000000000E+01 0.  0.
    9000005    1    3    3    0    0  0.20938774061E+02 -0.42048148623E+02  0.14343244207E+03  0.15093158881E+03  0.10000000000E+01 0.  0.
         21    1    1    2  502  501  0.39066472781E+02  0.17134271356E+02  0.43034378476E+02  0.60594804079E+02  0.00000000000E+00 0. -1.
<mgrwt>
<rscale>  1 0.13208440E+03</rscale>
<asrwt>0</asrwt>
<pdfrwt beam="2">  1        4 0.45651563E-02 0.13208440E+03</pdfrwt>
<pdfrwt beam="1">  1       -4 0.40087559E-01 0.13208440E+03</pdfrwt>
<totfact> 0.27320774E+03</totfact>
</mgrwt>
</event>
<event>
 6    4  0.5642870E-004  0.1282905E+03  0.7818608E-02  0.1230015E+00
          4   -1    0    0  502    0  0.00000000000E+00  0.00000000000E+00  0.13791213672E+04  0.13791219520E+04  0.12700000000E+01 0.  1.
         -4   -1    0    0    0  501 -0.00000000000E+00 -0.00000000000E+00 -0.69990260493E+01  0.71133160789E+01  0.12700000000E+01 0.  1.
         25    2    1    2    0    0  0.10218167205E+02 -0.26982123559E+02  0.59944259364E+03  0.61301703354E+03  0.12500405760E+03 0.  0.
    9000005    1    3    3    0    0  0.35216440230E+02 -0.28284128780E+02  0.72140474346E+02  0.85120136526E+02  0.10000000000E+01 0.  0.
    9000005    1    3    3    0    0 -0.24998273025E+02  0.13020052217E+01  0.52730211929E+03  0.52789689702E+03  0.10000000000E+01 0.  0.
         21    1    1    2  502  501 -0.10218167205E+02  0.26982123559E+02  0.77267974754E+03  0.77321823452E+03  0.00000000000E+00 0.  1.
<mgrwt>
<rscale>  1 0.12829053E+03</rscale>
<asrwt>0</asrwt>
<pdfrwt beam="1">  1        4 0.21218134E+00 0.12829053E+03</pdfrwt>
<pdfrwt beam="2">  1       -4 0.10856098E-02 0.12829053E+03</pdfrwt>
<totfact> 0.52600244E+02</totfact>
</mgrwt>
</event>
<event>
 6    4  0.5642870E-004  0.1324156E+03  0.7818608E-02  0.1223915E+00
          4   -1    0    0  502    0  0.00000000000E+00  0.00000000000E+00  0.87746918231E+02  0.87756108386E+02  0.12700000000E+01 0.  1.
         -4   -1    0    0    0  501 -0.00000000000E+00 -0.00000000000E+00 -0.89266344256E+02  0.89275377998E+02  0.12700000000E+01 0.  1.
         25    2    1    2    0    0  0.12073847560E+01  0.43664926379E+02 -0.89699706044E+01  0.13271902552E+03  0.12500318311E+03 0.  0.
    9000005    1    3    3    0    0  0.11055781468E+02  0.25223215656E+02  0.57105761235E+02  0.63407482824E+02  0.10000000000E+01 0.  0.
    9000005    1    3    3    0    0 -0.98483967120E+01  0.18441710723E+02 -0.66075731839E+02  0.69311542692E+02  0.10000000000E+01 0.  0.
         21    1    1    2  502  501 -0.12073847560E+01 -0.43664926379E+02  0.74505445796E+01  0.44312460868E+02  0.00000000000E+00 0.  1.
<mgrwt>
<rscale>  1 0.13241556E+03</rscale>
<asrwt>0</asrwt>
<pdfrwt beam="1">  1        4 0.13500928E-01 0.13241556E+03</pdfrwt>
<pdfrwt beam="2">  1       -4 0.13734686E-01 0.13241556E+03</pdfrwt>
<totfact> 0.32446494E+03</totfact>
</mgrwt>
</event>
<event>
 6    4  0.5642870E-004  0.1266544E+03  0.7818608E-02  0.1232506E+00
          4   -1    0    0  502    0  0.00000000000E+00  0.00000000000E+00  0.26432041573E+02  0.26462534302E+02  0.12700000000E+01 0. -1.
         -4   -1    0    0    0  501 -0.00000000000E+00 -0.00000000000E+00 -0.21251999854E+03  0.21252379321E+03  0.12700000000E+01 0. -1.
         25    2    1    2    0    0 -0.10421051391E+02 -0.17534538103E+02 -0.17420338565E+03  0.21537909612E+03  0.12500110853E+03 0.  0.
    9000005    1    3    3    0    0  0.34475803061E+02 -0.14666172924E+02 -0.21524970147E+01  0.37540789394E+02  0.10000000000E+01 0.  0.
    9000005    1    3    3    0    0 -0.44896854452E+02 -0.28683651792E+01 -0.17205088864E+03  0.17783830673E+03  0.10000000000E+01 0.  0.
         21    1    1    2  502  501  0.10421051391E+02  0.17534538103E+02 -0.11884571320E+02  0.23607231393E+02  0.00000000000E+00 0.  1.
<mgrwt>
<rscale>  1 0.12665439E+03</rscale>
<asrwt>0</asrwt>
<pdfrwt beam="1">  1        4 0.40691056E-02 0.12665439E+03</pdfrwt>
<pdfrwt beam="2">  1       -4 0.32698021E-01 0.12665439E+03</pdfrwt>
<totfact> 0.48201891E+03</totfact>
</mgrwt>
</event>
<event>
 6    4  0.5642870E-004  0.1272235E+03  0.7818608E-02  0.1231635E+00
          4   -1    0    0  502    0  0.00000000000E+00  0.00000000000E+00  0.13827333117E+03  0.13827916334E+03  0.12700000000E+01 0.  1.
         -4   -1    0    0    0  501 -0.00000000000E+00 -0.00000000000E+00 -0.49246864360E+02  0.49263237301E+02  0.12700000000E+01 0.  1.
         25    2    1    2    0    0  0.14571858073E+02  0.18671514663E+02  0.40449377255E+02  0.13349891688E+03  0.12499937671E+03 0.  0.
    9000005    1    3    3    0    0  0.53494554840E+02 -0.29298185952E+02  0.26235922969E+01  0.61056812348E+02  0.10000000000E+01 0.  0.
    9000005    1    3    3    0    0 -0.38922696767E+02  0.47969700615E+02  0.37825784959E+02  0.72442104528E+02  0.10000000000E+01 0.  0.
         21    1    1    2  502  501 -0.14571858073E+02 -0.18671514663E+02  0.48577089559E+02  0.54043483765E+02  0.00000000000E+00 0. -1.
<mgrwt>
<rscale>  1 0.12722346E+03</rscale>
<asrwt>0</asrwt>
<pdfrwt beam="1">  1        4 0.21274528E-01 0.12722346E+03</pdfrwt>
<pdfrwt beam="2">  1       -4 0.75781490E-02 0.12722346E+03</pdfrwt>
<totfact> 0.39238709E+03</totfact>
</mgrwt>
</event>
<event>
 6    4  0.5642870E-004  0.1311937E+03  0.7818608E-02  0.1225695E+00
         -4   -1    0    0    0  501 -0.00000000000E+00  0.00000000000E+00  0.11088744908E+04  0.11088752181E+04  0.12700000000E+01 0.  1.
          4   -1    0    0  502    0  0.00000000000E+00 -0.00000000000E+00 -0.25548868618E+02  0.25580414142E+02  0.12700000000E+01 0.  1.
         25    2    1    2    0    0 -0.86473405877E+01  0.38919782876E+02  0.10865638540E+04  0.10944554804E+04  0.12498905516E+03 0.  0.
    9000005    1    3    3    0    0 -0.59907638942E+01 -0.20953675524E+02  0.35389863846E+02  0.41573888837E+02  0.10000000000E+01 0.  0.
    9000005    1    3    3    0    0 -0.26565766935E+01  0.59873458400E+02  0.10511739901E+04  0.10528815916E+04  0.10000000000E+01 0.  0.
         21    1    1    2  502  501  0.86473405877E+01 -0.38919782876E+02 -0.32382317689E+01  0.40000151792E+02  0.00000000000E+00 0.  1.
<mgrwt>
<rscale>  1 0.13119371E+03</rscale>
<asrwt>0</asrwt>
<pdfrwt beam="2">  1        4 0.39330769E-02 0.13119371E+03</pdfrwt>
<pdfrwt beam="1">  1       -4 0.17059859E+00 0.13119371E+03</pdfrwt>
<totfact> 0.13322350E+02</totfact>
</mgrwt>
</event>
<event>
 6    4  0.5642870E-004  0.1564050E+03  0.7818608E-02  0.1192816E+00
         -4   -1    0    0    0  501 -0.00000000000E+00  0.00000000000E+00  0.81220545123E+02  0.81230473654E+02  0.12700000000E+01 0. -1.
          4   -1    0    0  502    0  0.00000000000E+00 -0.00000000000E+00 -0.41769580941E+03  0.41769774012E+03  0.12700000000E+01 0. -1.
         25    2    1    2    0    0  0.25695316013E+02 -0.90439459012E+02 -0.72846405863E+01  0.15657457827E+03  0.12499194998E+03 0.  0.
    9000005    1    3    3    0    0 -0.24771672485E+02 -0.27871334318E+02 -0.52452442927E+02  0.64363854789E+02  0.10000000000E+01 0.  0.
    9000005    1    3    3    0    0  0.50466988498E+02 -0.62568124694E+02  0.45167802340E+02  0.92210723477E+02  0.10000000000E+01 0.  0.
         21    1    1    2  502  501 -0.25695316013E+02  0.90439459012E+02 -0.32919062370E+03  0.34235363551E+03  0.00000000000E+00 0. -1.
<mgrwt>
<rscale>  1 0.15640503E+03</rscale>
<asrwt>0</asrwt>
<pdfrwt beam="2">  1        4 0.64261805E-01 0.15640503E+03</pdfrwt>
<pdfrwt beam="1">  1       -4 0.12496381E-01 0.15640503E+03</pdfrwt>
<totfact> 0.20327336E+02</totfact>
</mgrwt>
</event>
<event>
 6    4  0.5642870E-004  0.1267017E+03  0.7818608E-02  0.1232434E+00
         -4   -1    0    0    0  501 -0.00000000000E+00  0.00000000000E+00  0.82986686993E+02  0.82996404247E+02  0.12700000000E+01 0.  1.
          4   -1    0    0  502    0  0.00000000000E+00 -0.00000000000E+00 -0.66089806708E+02  0.66102007918E+02  0.12700000000E+01 0.  1.
         25    2    1    2    0    0 -0.76056597642E+01  0.19259881887E+02  0.19623905860E+02  0.12821239341E+03  0.12499812412E+03 0.  0.
    9000005    1    3    3    0    0 -0.29747088553E+01 -0.52814570340E+02  0.18258022045E+02  0.55969483667E+02  0.10000000000E+01 0.  0.
    9000005    1    3    3    0    0 -0.46309509089E+01  0.72074452227E+02  0.13658838146E+01  0.72242909747E+02  0.10000000000E+01 0.  0.
         21    1    1    2  502  501  0.76056597642E+01 -0.19259881887E+02 -0.27270255752E+01  0.20886018751E+02  0.00000000000E+00 0. -1.
<mgrwt>
<rscale>  1 0.12670170E+03</rscale>
<asrwt>0</asrwt>
<pdfrwt beam="2">  1        4 0.10169349E-01 0.12670170E+03</pdfrwt>
<pdfrwt beam="1">  1       -4 0.12768869E-01 0.12670170E+03</pdfrwt>
<totfact> 0.59007278E+03</totfact>
</mgrwt>
</event>
<event>
 6    4  0.5642870E-004  0.1269873E+03  0.7818608E-02  0.1231996E+00
         -4   -1    0    0    0  501 -0.00000000000E+00  0.00000000000E+00  0.79747535826E+03  0.79747636951E+03  0.12700000000E+01 0. -1.
          4   -1    0    0  502    0  0.00000000000E+00 -0.00000000000E+00 -0.71557253239E+01  0.72675515073E+01  0.12700000000E+01 0. -1.
         25    2    1    2    0    0 -0.92189026118E+01  0.20400923048E+02  0.71415634008E+03  0.72535857599E+03  0.12499839944E+03 0.  0.
    9000005    1    3    3    0    0  0.43272731269E+02 -0.22794672808E+02  0.44772799636E+03  0.45039258998E+03  0.10000000000E+01 0.  0.
    9000005    1    3    3    0    0 -0.52491633881E+02  0.43195595856E+02  0.26642834372E+03  0.27496598602E+03  0.10000000000E+01 0.  0.
         21    1    1    2  502  501  0.92189026118E+01 -0.20400923048E+02  0.76163292849E+02  0.79385345022E+02  0.00000000000E+00 0. -1.
<mgrwt>
<rscale>  1 0.12698734E+03</rscale>
<asrwt>0</asrwt>
<pdfrwt beam="2">  1        4 0.11095611E-02 0.12698734E+03</pdfrwt>
<pdfrwt beam="1">  1       -4 0.12269714E+00 0.12698734E+03</pdfrwt>
<totfact> 0.21436559E+03</totfact>
</mgrwt>
</event>
<event>
 6    4  0.5642870E-004  0.1336081E+03  0.7818608E-02  0.1222198E+00
          4   -1    0    0  502    0  0.00000000000E+00  0.00000000000E+00  0.20291766594E+02  0.20331470471E+02  0.12700000000E+01 0. -1.
         -4   -1    0    0    0  501 -0.00000000000E+00 -0.00000000000E+00 -0.40898401342E+03  0.40898598525E+03  0.12700000000E+01 0. -1.
         25    2    1    2    0    0  0.46484613071E+02  0.80684491123E+01 -0.26146426969E+03  0.29362339804E+03  0.12500086572E+03 0.  0.
    9000005    1    3    3    0    0 -0.19205271565E+02 -0.30285014719E+02 -0.17419901514E+03  0.17785477629E+03  0.10000000000E+01 0.  0.
    9000005    1    3    3    0    0  0.65689884636E+02  0.38353463831E+02 -0.87265254544E+02  0.11576862175E+03  0.10000000000E+01 0.  0.
         21    1    1    2  502  501 -0.46484613071E+02 -0.80684491123E+01 -0.12722797713E+03  0.13569405768E+03  0.00000000000E+00 0.  1.
<mgrwt>
<rscale>  1 0.13360814E+03</rscale>
<asrwt>0</asrwt>
<pdfrwt beam="1">  1        4 0.31250164E-02 0.13360814E+03</pdfrwt>
<pdfrwt beam="2">  1       -4 0.62923817E-01 0.13360814E+03</pdfrwt>
<totfact> 0.19905912E+03</totfact>
</mgrwt>
</event>
<event>
 6    4  0.5642870E-004  0.1355013E+03  0.7818608E-02  0.1219514E+00
          4   -1    0    0  502    0  0.00000000000E+00  0.00000000000E+00  0.31241707020E+02  0.31267509615E+02  0.12700000000E+01 0. -1.
         -4   -1    0    0    0  501 -0.00000000000E+00 -0.00000000000E+00 -0.30083879577E+03  0.30084147643E+03  0.12700000000E+01 0. -1.
         25    2    1    2    0    0  0.10418937013E+01 -0.52304687107E+02 -0.22819485703E+03  0.26539309118E+03  0.12499493685E+03 0.  0.
    9000005    1    3    3    0    0  0.22528321805E+02  0.12268399233E+02  0.16090175757E+01  0.25722127452E+02  0.10000000000E+01 0.  0.
    9000005    1    3    3    0    0 -0.21486428104E+02 -0.64573086339E+02 -0.22980387461E+03  0.23967096373E+03  0.10000000000E+01 0.  0.
         21    1    1    2  502  501 -0.10418937013E+01  0.52304687107E+02 -0.41402231719E+02  0.66715894861E+02  0.00000000000E+00 0. -1.
<mgrwt>
<rscale>  1 0.13550129E+03</rscale>
<asrwt>0</asrwt>
<pdfrwt beam="1">  1        4 0.48086077E-02 0.13550129E+03</pdfrwt>
<pdfrwt beam="2">  1       -4 0.46285081E-01 0.13550129E+03</pdfrwt>
<totfact> 0.18995549E+03</totfact>
</mgrwt>
</event>
<event>
 6    4  0.5642870E-004  0.1283540E+03  0.7818608E-02  0.1229919E+00
          4   -1    0    0  502    0  0.00000000000E+00  0.00000000000E+00  0.59869766697E+03  0.59869901397E+03  0.12700000000E+01 0. -1.
         -4   -1    0    0    0  501 -0.00000000000E+00 -0.00000000000E+00 -0.10346956901E+02  0.10424606329E+02  0.12700000000E+01 0. -1.
         25    2    1    2    0    0 -0.15287688327E+02  0.24816356404E+02  0.49137439440E+03  0.50786172836E+03  0.12500069880E+03 0.  0.
    9000005    1    3    3    0    0 -0.63493232835E+02  0.10685370977E+02  0.15636024222E+03  0.16910083712E+03  0.10000000000E+01 0.  0.
    9000005    1    3    3    0    0  0.48205544508E+02  0.14130985427E+02  0.33501415219E+03  0.33876089124E+03  0.10000000000E+01 0.  0.
         21    1    1    2  502  501  0.15287688327E+02 -0.24816356404E+02  0.96976315661E+02  0.10126189194E+03  0.00000000000E+00 0.  1.
<mgrwt>
<rscale>  1 0.12835396E+03</rscale>
<asrwt>0</asrwt>
<pdfrwt beam="1">  1        4 0.92113414E-01 0.12835396E+03</pdfrwt>
<pdfrwt beam="2">  1       -4 0.15979161E-02 0.12835396E+03</pdfrwt>
<totfact> 0.24155712E+03</totfact>
</mgrwt>
</event>
<event>
 6    4  0.5642870E-004  0.1288730E+03  0.7818608E-02  0.1229138E+00
          4   -1    0    0  502    0  0.00000000000E+00  0.00000000000E+00  0.27212454451E+03  0.27212750803E+03  0.12700000000E+01 0. -1.
         -4   -1    0    0    0  501 -0.00000000000E+00 -0.00000000000E+00 -0.23637022012E+02  0.23671115512E+02  0.12700000000E+01 0. -1.
         25    2    1    2    0    0 -0.19281914138E+02 -0.24734717911E+02  0.19327414373E+03  0.23229968120E+03  0.12499859507E+03 0.  0.
    9000005    1    3    3    0    0 -0.42613395306E+02  0.40281545695E+02  0.73499152973E+02  0.94029941353E+02  0.10000000000E+01 0.  0.
    9000005    1    3    3    0    0  0.23331481168E+02 -0.65016263606E+02  0.11977499076E+03  0.13826973985E+03  0.10000000000E+01 0.  0.
         21    1    1    2  502  501  0.19281914138E+02  0.24734717911E+02  0.55213378766E+02  0.63498942335E+02  0.00000000000E+00 0. -1.
<mgrwt>
<rscale>  1 0.12887299E+03</rscale>
<asrwt>0</asrwt>
<pdfrwt beam="1">  1        4 0.41868167E-01 0.12887299E+03</pdfrwt>
<pdfrwt beam="2">  1       -4 0.36393153E-02 0.12887299E+03</pdfrwt>
<totfact> 0.35731311E+03</totfact>
</mgrwt>
</event>
<event>
 6    4  0.5642870E-004  0.1280906E+03  0.7818608E-02  0.1230317E+00
         -4   -1    0    0    0  501 -0.00000000000E+00  0.00000000000E+00  0.22681082397E+02  0.22716610634E+02  0.12700000000E+01 0. -1.
          4   -1    0    0  502    0  0.00000000000E+00 -0.00000000000E+00 -0.43207709958E+03  0.43207896603E+03  0.12700000000E+01 0. -1.
         25    2    1    2    0    0  0.13683949436E+02  0.24397788584E+02 -0.16539053352E+03  0.20919187429E+03  0.12499883652E+03 0.  0.
    9000005    1    3    3    0    0  0.31492599276E+02 -0.11578425555E+02 -0.16566908019E+03  0.16903575917E+03  0.10000000000E+01 0.  0.
    9000005    1    3    3    0    0 -0.17808649840E+02  0.35976214139E+02  0.27854667347E+00  0.40156115115E+02  0.10000000000E+01 0.  0.
         21    1    1    2  502  501 -0.13683949436E+02 -0.24397788584E+02 -0.24400548367E+03  0.24560370238E+03  0.00000000000E+00 0. -1.
<mgrwt>
<rscale>  1 0.12809064E+03</rscale>
<asrwt>0</asrwt>
<pdfrwt beam="2">  1        4 0.66476270E-01 0.12809064E+03</pdfrwt>
<pdfrwt beam="1">  1       -4 0.34922741E-02 0.12809064E+03</pdfrwt>
<totfact> 0.14732055E+03</totfact>
</mgrwt>
</event>
<event>
 6    4  0.5642870E-004  0.1267389E+03  0.7818608E-02  0.1232376E+00
          4   -1    0    0  502    0  0.00000000000E+00  0.00000000000E+00  0.57138938844E+03  0.57139079982E+03  0.12700000000E+01 0. -1.
         -4   -1    0    0    0  501 -0.00000000000E+00 -0.00000000000E+00 -0.12940244666E+02  0.13002416391E+02  0.12700000000E+01 0. -1.
         25    2    1    2    0    0  0.47734366116E+01  0.20396854832E+02  0.30782089933E+03  0.33289106057E+03  0.12499573894E+03 0.  0.
    9000005    1    3    3    0    0 -0.49035864357E+02  0.40298775657E+02  0.11092026154E+03  0.12779988941E+03  0.10000000000E+01 0.  0.
    9000005    1    3    3    0    0  0.53809300969E+02 -0.19901920825E+02  0.19690063780E+03  0.20509117116E+03  0.10000000000E+01 0.  0.
         21    1    1    2  502  501 -0.47734366116E+01 -0.20396854832E+02  0.25062824444E+03  0.25150215565E+03  0.00000000000E+00 0. -1.
<mgrwt>
<rscale>  1 0.12673891E+03</rscale>
<asrwt>0</asrwt>
<pdfrwt beam="1">  1        4 0.87910970E-01 0.12673891E+03</pdfrwt>
<pdfrwt beam="2">  1       -4 0.19956974E-02 0.12673891E+03</pdfrwt>
<totfact> 0.19036995E+03</totfact>
</mgrwt>
</event>
<event>
 6    4  0.5642870E-004  0.1335548E+03  0.7818608E-02  0.1222274E+00
         -4   -1    0    0    0  501 -0.00000000000E+00  0.00000000000E+00  0.83799443264E+02  0.83809066284E+02  0.12700000000E+01 0.  1.
          4   -1    0    0  502    0  0.00000000000E+00 -0.00000000000E+00 -0.11463320721E+03  0.11464024204E+03  0.12700000000E+01 0.  1.
         25    2    1    2    0    0  0.43206517649E+02  0.18592321091E+02  0.12958940957E+02  0.13418206493E+03  0.12499765929E+03 0.  0.
    9000005    1    3    3    0    0  0.67251458661E+02  0.56910617996E+02  0.50743955426E+01  0.88251496434E+02  0.10000000000E+01 0.  0.
    9000005    1    3    3    0    0 -0.24044941012E+02 -0.38318296905E+02  0.78845454144E+01  0.45930568496E+02  0.10000000000E+01 0.  0.
         21    1    1    2  502  501 -0.43206517649E+02 -0.18592321091E+02 -0.43792704904E+02  0.64267243396E+02  0.00000000000E+00 0.  1.
<mgrwt>
<rscale>  1 0.13355483E+03</rscale>
<asrwt>0</asrwt>
<pdfrwt beam="2">  1        4 0.17637159E-01 0.13355483E+03</pdfrwt>
<pdfrwt beam="1">  1       -4 0.12893503E-01 0.13355483E+03</pdfrwt>
<totfact> 0.22710989E+03</totfact>
</mgrwt>
</event>
<event>
 6    4  0.5642870E-004  0.1292573E+03  0.7818608E-02  0.1228562E+00
         -4   -1    0    0    0  501 -0.00000000000E+00  0.00000000000E+00  0.88228531683E+01  0.89137892072E+01  0.12700000000E+01 0. -1.
          4   -1    0    0  502    0  0.00000000000E+00 -0.00000000000E+00 -0.83725564465E+03  0.83725660785E+03  0.12700000000E+01 0. -1.
         25    2    1    2    0    0 -0.31233656680E+02 -0.10361084968E+02 -0.51331263788E+03  0.52933667948E+03  0.12499825057E+03 0.  0.
    9000005    1    3    3    0    0  0.62534920101E+01 -0.43885672631E+02 -0.67916997007E+02  0.81109659764E+02  0.10000000000E+01 0.  0.
    9000005    1    3    3    0    0 -0.37487148690E+02  0.33524587664E+02 -0.44539564087E+03  0.44822701971E+03  0.10000000000E+01 0.  0.
         21    1    1    2  502  501  0.31233656680E+02  0.10361084968E+02 -0.31512015360E+03  0.31683371758E+03  0.00000000000E+00 0.  1.
<mgrwt>
<rscale>  1 0.12925732E+03</rscale>
<asrwt>0</asrwt>
<pdfrwt beam="2">  1        4 0.12881557E+00 0.12925732E+03</pdfrwt>
<pdfrwt beam="1">  1       -4 0.13644319E-02 0.12925732E+03</pdfrwt>
<totfact> 0.13985400E+03</totfact>
</mgrwt>
</event>
<event>
 6    4  0.5642870E-004  0.1283150E+03  0.7818608E-02  0.1229978E+00
         -4   -1    0    0    0  501 -0.00000000000E+00  0.00000000000E+00  0.11503200386E+03  0.11503901431E+03  0.12700000000E+01 0. -1.
          4   -1    0    0  502    0  0.00000000000E+00 -0.00000000000E+00 -0.59925535505E+02  0.59938991530E+02  0.12700000000E+01 0. -1.
         25    2    1    2    0    0 -0.26874522274E+02  0.10777845184E+02  0.65686091500E+02  0.14415057779E+03  0.12500529815E+03 0.  0.
    9000005    1    3    3    0    0 -0.72330007711E+02 -0.11983695111E+02  0.20516921067E+02  0.76139234394E+02  0.10000000000E+01 0.  0.
    9000005    1    3    3    0    0  0.45455485437E+02  0.22761540295E+02  0.45169170432E+02  0.68011343396E+02  0.10000000000E+01 0.  0.
         21    1    1    2  502  501  0.26874522274E+02 -0.10777845184E+02 -0.10579623141E+02  0.30827428048E+02  0.00000000000E+00 0.  1.
<mgrwt>
<rscale>  1 0.12831495E+03</rscale>
<asrwt>0</asrwt>
<pdfrwt beam="2">  1        4 0.92208877E-02 0.12831495E+03</pdfrwt>
<pdfrwt beam="1">  1       -4 0.17698805E-01 0.12831495E+03</pdfrwt>
<totfact> 0.39473465E+03</totfact>
</mgrwt>
</event>
<event>
 6    4  0.5642870E-004  0.1271164E+03  0.7818608E-02  0.1231798E+00
          4   -1    0    0  502    0  0.00000000000E+00  0.00000000000E+00  0.12446824998E+04  0.12446831477E+04  0.12700000000E+01 0.  1.
         -4   -1    0    0    0  501 -0.00000000000E+00 -0.00000000000E+00 -0.44456407772E+01  0.46234859056E+01  0.12700000000E+01 0.  1.
         25    2    1    2    0    0  0.22726221321E+02 -0.41683084090E+01  0.10600592715E+04  0.10676536155E+04  0.12499891105E+03 0.  0.
    9000005    1    3    3    0    0 -0.70117508765E+01  0.13238834511E+02  0.12526089323E+02  0.19553370637E+02  0.10000000000E+01 0.  0.
    9000005    1    3    3    0    0  0.29737972197E+02 -0.17407142920E+02  0.10475331822E+04  0.10481002449E+04  0.10000000000E+01 0.  0.
         21    1    1    2  502  501 -0.22726221321E+02  0.41683084090E+01  0.18017758753E+03  0.18165301808E+03  0.00000000000E+00 0.  1.
<mgrwt>
<rscale>  1 0.12711642E+03</rscale>
<asrwt>0</asrwt>
<pdfrwt beam="1">  1        4 0.19150339E+00 0.12711642E+03</pdfrwt>
<pdfrwt beam="2">  1       -4 0.69767482E-03 0.12711642E+03</pdfrwt>
<totfact> 0.13661843E+03</totfact>
</mgrwt>
</event>
<event>
 6    4  0.5642870E-004  0.1282656E+03  0.7818608E-02  0.1230052E+00
          4   -1    0    0  502    0  0.00000000000E+00  0.00000000000E+00  0.59142410111E+02  0.59156044271E+02  0.12700000000E+01 0. -1.
         -4   -1    0    0    0  501 -0.00000000000E+00 -0.00000000000E+00 -0.10550344000E+03  0.10551108355E+03  0.12700000000E+01 0. -1.
         25    2    1    2    0    0  0.10863592413E+01 -0.28752045092E+02 -0.44756174671E+02  0.13584984423E+03  0.12499681889E+03 0.  0.
    9000005    1    3    3    0    0  0.20435137950E+02 -0.75202679899E+02 -0.27075635661E+02  0.82505320880E+02  0.10000000000E+01 0.  0.
    9000005    1    3    3    0    0 -0.19348778709E+02  0.46450634807E+02 -0.17680539010E+02  0.53344523347E+02  0.10000000000E+01 0.  0.
         21    1    1    2  502  501 -0.10863592413E+01  0.28752045092E+02 -0.16048552171E+01  0.28817283593E+02  0.00000000000E+00 0. -1.
<mgrwt>
<rscale>  1 0.12826560E+03</rscale>
<asrwt>0</asrwt>
<pdfrwt beam="1">  1        4 0.91004691E-02 0.12826560E+03</pdfrwt>
<pdfrwt beam="2">  1       -4 0.16232935E-01 0.12826560E+03</pdfrwt>
<totfact> 0.46998283E+03</totfact>
</mgrwt>
</event>
<event>
 6    4  0.5642870E-004  0.1269325E+03  0.7818608E-02  0.1232080E+00
         -4   -1    0    0    0  501 -0.00000000000E+00  0.00000000000E+00  0.44434441417E+01  0.46213738045E+01  0.12700000000E+01 0. -1.
          4   -1    0    0  502    0  0.00000000000E+00 -0.00000000000E+00 -0.12408044273E+04  0.12408050772E+04  0.12700000000E+01 0. -1.
         25    2    1    2    0    0 -0.22117031862E+02  0.89805975332E+00 -0.99794602133E+03  0.10059861377E+04  0.12498751233E+03 0.  0.
    9000005    1    3    3    0    0 -0.71883366447E+02 -0.16891807784E+02 -0.55184783715E+03  0.55676708497E+03  0.10000000000E+01 0.  0.
    9000005    1    3    3    0    0  0.49766334585E+02  0.17789867538E+02 -0.44609818418E+03  0.44921905277E+03  0.10000000000E+01 0.  0.
         21    1    1    2  502  501  0.22117031862E+02 -0.89805975332E+00 -0.23841496178E+03  0.23944031326E+03  0.00000000000E+00 0. -1.
<mgrwt>
<rscale>  1 0.12693245E+03</rscale>
<asrwt>0</asrwt>
<pdfrwt beam="2">  1        4 0.19090645E+00 0.12693245E+03</pdfrwt>
<pdfrwt beam="1">  1       -4 0.69734468E-03 0.12693245E+03</pdfrwt>
<totfact> 0.13786827E+03</totfact>
</mgrwt>
</event>
<event>
 6    4  0.5642870E-004  0.1266033E+03  0.7818608E-02  0.1232585E+00
          4   -1    0    0  502    0  0.00000000000E+00  0.00000000000E+00  0.23354680726E+03  0.23355026029E+03  0.12700000000E+01 0.  1.
         -4   -1    0    0    0  501 -0.00000000000E+00 -0.00000000000E+00 -0.23170750642E+02  0.23205529198E+02  0.12700000000E+01 0.  1.
         25    2    1    2    0    0 -0.32160441775E+01  0.19805402717E+02  0.17358645245E+03  0.21485027802E+03  0.12500315425E+03 0.  0.
    9000005    1    3    3    0    0  0.37698313103E+02  0.42189892122E+02  0.15434172941E+03  0.16438831846E+03  0.10000000000E+01 0.  0.
    9000005    1    3    3    0    0 -0.40914357281E+02 -0.22384489405E+02  0.19244723042E+02  0.50461959560E+02  0.10000000000E+01 0.  0.
         21    1    1    2  502  501  0.32160441775E+01 -0.19805402717E+02  0.36789604171E+02  0.41905511475E+02  0.00000000000E+00 0.  1.
<mgrwt>
<rscale>  1 0.12660326E+03</rscale>
<asrwt>0</asrwt>
<pdfrwt beam="1">  1        4 0.35933219E-01 0.12660326E+03</pdfrwt>
<pdfrwt beam="2">  1       -4 0.35676717E-02 0.12660326E+03</pdfrwt>
<totfact> 0.49503923E+03</totfact>
</mgrwt>
</event>
<event>
 6    4  0.5642870E-004  0.1323835E+03  0.7818608E-02  0.1223961E+00
         -4   -1    0    0    0  501 -0.00000000000E+00  0.00000000000E+00  0.16207821853E+03  0.16208319414E+03  0.12700000000E+01 0. -1.
          4   -1    0    0  502    0  0.00000000000E+00 -0.00000000000E+00 -0.54826721542E+02  0.54841428638E+02  0.12700000000E+01 0. -1.
         25    2    1    2    0    0  0.43401012155E+02 -0.40887394887E+01  0.11155676063E+03  0.17311936120E+03  0.12500014693E+03 0.  0.
    9000005    1    3    3    0    0  0.11994317466E+02 -0.55137596882E+02  0.13238396372E+02  0.57967865063E+02  0.10000000000E+01 0.  0.
    9000005    1    3    3    0    0  0.31406694689E+02  0.51048857393E+02  0.98318364262E+02  0.11515149614E+03  0.10000000000E+01 0.  0.
         21    1    1    2  502  501 -0.43401012155E+02  0.40887394887E+01 -0.43052636422E+01  0.43805261576E+02  0.00000000000E+00 0. -1.
<mgrwt>
<rscale>  1 0.13238354E+03</rscale>
<asrwt>0</asrwt>
<pdfrwt beam="2">  1        4 0.84363945E-02 0.13238354E+03</pdfrwt>
<pdfrwt beam="1">  1       -4 0.24936624E-01 0.13238354E+03</pdfrwt>
<totfact> 0.24818861E+03</totfact>
</mgrwt>
</event>
<event>
 6    4  0.5642870E-004  0.1284769E+03  0.7818608E-02  0.1229733E+00
         -4   -1    0    0    0  501 -0.00000000000E+00  0.00000000000E+00  0.38533384984E+02  0.38554307909E+02  0.12700000000E+01 0.  1.
          4   -1    0    0  502    0  0.00000000000E+00 -0.00000000000E+00 -0.17980790085E+03  0.17981238586E+03  0.12700000000E+01 0.  1.
         25    2    1    2    0    0  0.59455504299E+01  0.28970217950E+02 -0.82822592823E+02  0.15285905753E+03  0.12502674309E+03 0.  0.
    9000005    1    3    3    0    0  0.14321814772E+02 -0.32180394637E+02 -0.84028076927E+02  0.91117560818E+02  0.10000000000E+01 0.  0.
    9000005    1    3    3    0    0 -0.83762643422E+01  0.61150612588E+02  0.12054841041E+01  0.61741496711E+02  0.10000000000E+01 0.  0.
         21    1    1    2  502  501 -0.59455504299E+01 -0.28970217950E+02 -0.58451923042E+02  0.65507636236E+02  0.00000000000E+00 0.  1.
<mgrwt>
<rscale>  1 0.12847688E+03</rscale>
<asrwt>0</asrwt>
<pdfrwt beam="2">  1        4 0.27664708E-01 0.12847688E+03</pdfrwt>
<pdfrwt beam="1">  1       -4 0.59301676E-02 0.12847688E+03</pdfrwt>
<totfact> 0.36247579E+03</totfact>
</mgrwt>
</event>
<event>
 6    4  0.5642870E-004  0.1265974E+03  0.7818608E-02  0.1232594E+00
         -4   -1    0    0    0  501 -0.00000000000E+00  0.00000000000E+00  0.41089850009E+03  0.41090046273E+03  0.12700000000E+01 0. -1.
          4   -1    0    0  502    0  0.00000000000E+00 -0.00000000000E+00 -0.17300798441E+02  0.17347349270E+02  0.12700000000E+01 0. -1.
         25    2    1    2    0    0  0.19233156225E+02  0.56746430250E+01  0.38693253486E+03  0.40711631134E+03  0.12499915422E+03 0.  0.
    9000005    1    3    3    0    0  0.19559454303E+02  0.14273394453E+02  0.45771113037E+01  0.24662765249E+02  0.10000000000E+01 0.  0.
    9000005    1    3    3    0    0 -0.32629807821E+00 -0.85987514282E+01  0.38235542356E+03  0.38245354609E+03  0.10000000000E+01 0.  0.
         21    1    1    2  502  501 -0.19233156225E+02 -0.56746430250E+01  0.66651667852E+01  0.21131500659E+02  0.00000000000E+00 0. -1.
<mgrwt>
<rscale>  1 0.12659741E+03</rscale>
<asrwt>0</asrwt>
<pdfrwt beam="2">  1        4 0.26653931E-02 0.12659741E+03</pdfrwt>
<pdfrwt beam="1">  1       -4 0.63218885E-01 0.12659741E+03</pdfrwt>
<totfact> 0.24956892E+03</totfact>
</mgrwt>
</event>
<event>
 6    4  0.5642870E-004  0.1282365E+03  0.7818608E-02  0.1230096E+00
         -4   -1    0    0    0  501 -0.00000000000E+00  0.00000000000E+00  0.29584587537E+03  0.29584860127E+03  0.12700000000E+01 0. -1.
          4   -1    0    0  502    0  0.00000000000E+00 -0.00000000000E+00 -0.62690401603E+02  0.62703264294E+02  0.12700000000E+01 0. -1.
         25    2    1    2    0    0 -0.26908495242E+02  0.98448105725E+01  0.27753346286E+03  0.30572769185E+03  0.12499444445E+03 0.  0.
    9000005    1    3    3    0    0  0.41311738323E+02 -0.26380568222E+02  0.13467852295E+03  0.14332445237E+03  0.10000000000E+01 0.  0.
    9000005    1    3    3    0    0 -0.68220233565E+02  0.36225378794E+02  0.14285493991E+03  0.16240323948E+03  0.10000000000E+01 0.  0.
         21    1    1    2  502  501  0.26908495242E+02 -0.98448105725E+01 -0.44377989100E+02  0.52824173708E+02  0.00000000000E+00 0. -1.
<mgrwt>
<rscale>  1 0.12823649E+03</rscale>
<asrwt>0</asrwt>
<pdfrwt beam="2">  1        4 0.96458765E-02 0.12823649E+03</pdfrwt>
<pdfrwt beam="1">  1       -4 0.45515948E-01 0.12823649E+03</pdfrwt>
<totfact> 0.62047577E+02</totfact>
</mgrwt>
</event>
<event>
 6    4  0.5642870E-004  0.1277985E+03  0.7818608E-02  0.1230759E+00
         -4   -1    0    0    0  501 -0.00000000000E+00  0.00000000000E+00  0.12253923765E+02  0.12319559556E+02  0.12700000000E+01 0.  1.
          4   -1    0    0  502    0  0.00000000000E+00 -0.00000000000E+00 -0.99137814570E+03  0.99137895917E+03  0.12700000000E+01 0.  1.
         25    2    1    2    0    0  0.17121996378E+02 -0.20332868038E+02 -0.32778897295E+03  0.35182108019E+03  0.12500349356E+03 0.  0.
    9000005    1    3    3    0    0 -0.32235008013E+02  0.32232009569E+02 -0.65555584313E+02  0.79853195409E+02  0.10000000000E+01 0.  0.
    9000005    1    3    3    0    0  0.49357004391E+02 -0.52564877607E+02 -0.26223338863E+03  0.27196788478E+03  0.10000000000E+01 0.  0.
         21    1    1    2  502  501 -0.17121996378E+02  0.20332868038E+02 -0.65133524899E+03  0.65187743853E+03  0.00000000000E+00 0.  1.
<mgrwt>
<rscale>  1 0.12779852E+03</rscale>
<asrwt>0</asrwt>
<pdfrwt beam="2">  1        4 0.15252476E+00 0.12779852E+03</pdfrwt>
<pdfrwt beam="1">  1       -4 0.18903313E-02 0.12779852E+03</pdfrwt>
<totfact> 0.55648343E+02</totfact>
</mgrwt>
</event>
<event>
 6    4  0.5642870E-004  0.1340171E+03  0.7818608E-02  0.1221614E+00
         -4   -1    0    0    0  501 -0.00000000000E+00  0.00000000000E+00  0.39024575479E+02  0.39045235193E+02  0.12700000000E+01 0.  1.
          4   -1    0    0  502    0  0.00000000000E+00 -0.00000000000E+00 -0.27277846822E+03  0.27278142464E+03  0.12700000000E+01 0.  1.
         25    2    1    2    0    0  0.19717769543E+01 -0.48293006472E+02 -0.93317402772E+02  0.16330558357E+03  0.12499789432E+03 0.  0.
    9000005    1    3    3    0    0 -0.34139554043E+02  0.10304020614E+02  0.11868169903E+02  0.37597013816E+02  0.10000000000E+01 0.  0.
    9000005    1    3    3    0    0  0.36111330997E+02 -0.58597027086E+02 -0.10518557268E+03  0.12570856975E+03  0.10000000000E+01 0.  0.
         21    1    1    2  502  501 -0.19717769543E+01  0.48293006472E+02 -0.14043648997E+03  0.14852107626E+03  0.00000000000E+00 0.  1.
<mgrwt>
<rscale>  1 0.13401707E+03</rscale>
<asrwt>0</asrwt>
<pdfrwt beam="2">  1        4 0.41967734E-01 0.13401707E+03</pdfrwt>
<pdfrwt beam="1">  1       -4 0.60055976E-02 0.13401707E+03</pdfrwt>
<totfact> 0.16094894E+03</totfact>
</mgrwt>
</event>
<event>
 6    4  0.5642870E-004  0.1275131E+03  0.7818608E-02  0.1231193E+00
          4   -1    0    0  502    0  0.00000000000E+00  0.00000000000E+00  0.18135636270E+02  0.18180049585E+02  0.12700000000E+01 0.  1.
         -4   -1    0    0    0  501 -0.00000000000E+00 -0.00000000000E+00 -0.62676250559E+03  0.62676379228E+03  0.12700000000E+01 0.  1.
         25    2    1    2    0    0 -0.23889842247E+02 -0.79604079705E+01 -0.60640305400E+03  0.61966464069E+03  0.12500204144E+03 0.  0.
    9000005    1    3    3    0    0 -0.58492913790E+02 -0.29839777528E+02 -0.51905580782E+03  0.52319381200E+03  0.10000000000E+01 0.  0.
    9000005    1    3    3    0    0  0.34603071543E+02  0.21879369557E+02 -0.87347246179E+02  0.96470828687E+02  0.10000000000E+01 0.  0.
         21    1    1    2  502  501  0.23889842247E+02  0.79604079705E+01 -0.22238153238E+01  0.25279201179E+02  0.00000000000E+00 0.  1.
<mgrwt>
<rscale>  1 0.12751315E+03</rscale>
<asrwt>0</asrwt>
<pdfrwt beam="1">  1        4 0.27936137E-02 0.12751315E+03</pdfrwt>
<pdfrwt beam="2">  1       -4 0.96428500E-01 0.12751315E+03</pdfrwt>
<totfact> 0.91823608E+02</totfact>
</mgrwt>
</event>
<event>
 6    4  0.5642870E-004  0.1336021E+03  0.7818608E-02  0.1222207E+00
         -4   -1    0    0    0  501 -0.00000000000E+00  0.00000000000E+00  0.14055508207E+02  0.14112767658E+02  0.12700000000E+01 0.  1.
          4   -1    0    0  502    0  0.00000000000E+00 -0.00000000000E+00 -0.59699328355E+03  0.59699463441E+03  0.12700000000E+01 0.  1.
         25    2    1    2    0    0  0.45696876472E+02 -0.11675691906E+02 -0.38135913417E+03  0.40408451714E+03  0.12499992593E+03 0.  0.
    9000005    1    3    3    0    0  0.17469115309E+02  0.20943432092E+01 -0.37037918482E+03  0.37079818879E+03  0.10000000000E+01 0.  0.
    9000005    1    3    3    0    0  0.28227761163E+02 -0.13770035115E+02 -0.10979949343E+02  0.33286328348E+02  0.10000000000E+01 0.  0.
         21    1    1    2  502  501 -0.45696876472E+02  0.11675691906E+02 -0.20157864118E+03  0.20702288492E+03  0.00000000000E+00 0.  1.
<mgrwt>
<rscale>  1 0.13360205E+03</rscale>
<asrwt>0</asrwt>
<pdfrwt beam="2">  1        4 0.91849610E-01 0.13360205E+03</pdfrwt>
<pdfrwt beam="1">  1       -4 0.21668948E-02 0.13360205E+03</pdfrwt>
<totfact> 0.15370988E+03</totfact>
</mgrwt>
</event>
<event>
 6    4  0.5642870E-004  0.1335012E+03  0.7818608E-02  0.1222351E+00
          4   -1    0    0  502    0  0.00000000000E+00  0.00000000000E+00  0.84890341691E+03  0.84890436690E+03  0.12700000000E+01 0. -1.
         -4   -1    0    0    0  501 -0.00000000000E+00 -0.00000000000E+00 -0.95430825923E+01  0.96272179452E+01  0.12700000000E+01 0. -1.
         25    2    1    2    0    0  0.44639923424E+02 -0.14309179488E+02  0.61323427581E+03  0.62759767716E+03  0.12500036789E+03 0.  0.
    9000005    1    3    3    0    0 -0.60686276536E+01  0.24346569744E+02  0.23393412510E+02  0.34319607351E+02  0.10000000000E+01 0.  0.
    9000005    1    3    3    0    0  0.50708551078E+02 -0.38655749232E+02  0.58984086330E+03  0.59327806981E+03  0.10000000000E+01 0.  0.
         21    1    1    2  502  501 -0.44639923424E+02  0.14309179488E+02  0.22612605851E+03  0.23093390768E+03  0.00000000000E+00 0. -1.
<mgrwt>
<rscale>  1 0.13350119E+03</rscale>
<asrwt>0</asrwt>
<pdfrwt beam="1">  1        4 0.13060710E+00 0.13350119E+03</pdfrwt>
<pdfrwt beam="2">  1       -4 0.14747112E-02 0.13350119E+03</pdfrwt>
<totfact> 0.12097001E+03</totfact>
</mgrwt>
</event>
<event>
 6    4  0.5642870E-004  0.1276670E+03  0.7818608E-02  0.1230959E+00
          4   -1    0    0  502    0  0.00000000000E+00  0.00000000000E+00  0.79415705455E+02  0.79425859598E+02  0.12700000000E+01 0.  1.
         -4   -1    0    0    0  501 -0.00000000000E+00 -0.00000000000E+00 -0.82620230145E+02  0.82629990495E+02  0.12700000000E+01 0.  1.
         25    2    1    2    0    0 -0.16091431836E+02 -0.20338481063E+02 -0.22624715932E+02  0.12965628500E+03  0.12500514581E+03 0.  0.
    9000005    1    3    3    0    0 -0.53709580397E+02  0.12540418346E+02  0.25055794668E+02  0.60586912491E+02  0.10000000000E+01 0.  0.
    9000005    1    3    3    0    0  0.37618148562E+02 -0.32878899409E+02 -0.47680510600E+02  0.69069372508E+02  0.10000000000E+01 0.  0.
         21    1    1    2  502  501  0.16091431836E+02  0.20338481063E+02  0.19420191242E+02  0.32399565095E+02  0.00000000000E+00 0.  1.
<mgrwt>
<rscale>  1 0.12766705E+03</rscale>
<asrwt>0</asrwt>
<pdfrwt beam="1">  1        4 0.12219333E-01 0.12766705E+03</pdfrwt>
<pdfrwt beam="2">  1       -4 0.12712337E-01 0.12766705E+03</pdfrwt>
<totfact> 0.43617319E+03</totfact>
</mgrwt>
</event>
<event>
 6    4  0.5642870E-004  0.1290656E+03  0.7818608E-02  0.1228849E+00
          4   -1    0    0  502    0  0.00000000000E+00  0.00000000000E+00  0.38026912146E+02  0.38048113585E+02  0.12700000000E+01 0.  1.
         -4   -1    0    0    0  501 -0.00000000000E+00 -0.00000000000E+00 -0.17778025781E+03  0.17778479397E+03  0.12700000000E+01 0.  1.
         25    2    1    2    0    0 -0.30411625118E+02  0.10379415480E+02 -0.12755523641E+03  0.18146150843E+03  0.12500136599E+03 0.  0.
    9000005    1    3    3    0    0  0.69124830479E+01 -0.46196373159E+02 -0.95843200216E+02  0.10662460477E+03  0.10000000000E+01 0.  0.
    9000005    1    3    3    0    0 -0.37324108166E+02  0.56575788638E+02 -0.31712036191E+02  0.74836903663E+02  0.10000000000E+01 0.  0.
         21    1    1    2  502  501  0.30411625118E+02 -0.10379415480E+02 -0.12198109254E+02  0.34371399119E+02  0.00000000000E+00 0.  1.
<mgrwt>
<rscale>  1 0.12906564E+03</rscale>
<asrwt>0</asrwt>
<pdfrwt beam="1">  1        4 0.58522741E-02 0.12906564E+03</pdfrwt>
<pdfrwt beam="2">  1       -4 0.27352788E-01 0.12906564E+03</pdfrwt>
<totfact> 0.37867756E+03</totfact>
</mgrwt>
</event>
<event>
 6    4  0.5642870E-004  0.1278321E+03  0.7818608E-02  0.1230708E+00
          4   -1    0    0  502    0  0.00000000000E+00  0.00000000000E+00  0.67040908915E+01  0.68233228475E+01  0.12700000000E+01 0. -1.
         -4   -1    0    0    0  501 -0.00000000000E+00 -0.00000000000E+00 -0.96210493862E+03  0.96210577684E+03  0.12700000000E+01 0. -1.
         25    2    1    2    0    0  0.98350561399E+01 -0.24880353728E+02 -0.87259029587E+03  0.88190411574E+03  0.12500113832E+03 0.  0.
    9000005    1    3    3    0    0  0.24377327421E+02  0.46922999630E+02 -0.43793116477E+03  0.44111305474E+03  0.10000000000E+01 0.  0.
    9000005    1    3    3    0    0 -0.14542271281E+02 -0.71803353358E+02 -0.43465913111E+03  0.44079106100E+03  0.10000000000E+01 0.  0.
         21    1    1    2  502  501 -0.98350561399E+01  0.24880353728E+02 -0.82810551858E+02  0.87024983941E+02  0.00000000000E+00 0. -1.
<mgrwt>
<rscale>  1 0.12783210E+03</rscale>
<asrwt>0</asrwt>
<pdfrwt beam="1">  1        4 0.10406355E-02 0.12783210E+03</pdfrwt>
<pdfrwt beam="2">  1       -4 0.14802527E+00 0.12783210E+03</pdfrwt>
<totfact> 0.14877275E+03</totfact>
</mgrwt>
</event>
<event>
 6    4  0.5642870E-004  0.1418537E+03  0.7818608E-02  0.1210856E+00
         -4   -1    0    0    0  501 -0.00000000000E+00  0.00000000000E+00  0.82015873602E+02  0.82025705866E+02  0.12700000000E+01 0. -1.
          4   -1    0    0  502    0  0.00000000000E+00 -0.00000000000E+00 -0.13764543018E+03  0.13765128895E+03  0.12700000000E+01 0. -1.
         25    2    1    2    0    0  0.36298841277E+02  0.56398324831E+02 -0.56263059038E+02  0.15260406252E+03  0.12499636460E+03 0.  0.
    9000005    1    3    3    0    0 -0.17397487234E+02  0.20261529344E+02  0.32922047756E+02  0.42403577230E+02  0.10000000000E+01 0.  0.
    9000005    1    3    3    0    0  0.53696328511E+02  0.36136795487E+02 -0.89185106794E+02  0.11020048529E+03  0.10000000000E+01 0.  0.
         21    1    1    2  502  501 -0.36298841277E+02 -0.56398324831E+02  0.63350245927E+00  0.67072932299E+02  0.00000000000E+00 0. -1.
<mgrwt>
<rscale>  1 0.14185369E+03</rscale>
<asrwt>0</asrwt>
<pdfrwt beam="2">  1        4 0.21177427E-01 0.14185369E+03</pdfrwt>
<pdfrwt beam="1">  1       -4 0.12619034E-01 0.14185369E+03</pdfrwt>
<totfact> 0.17203870E+03</totfact>
</mgrwt>
</event>
<event>
 6    4  0.5642870E-004  0.1514695E+03  0.7818608E-02  0.1198679E+00
          4   -1    0    0  502    0  0.00000000000E+00  0.00000000000E+00  0.10434631203E+04  0.10434638932E+04  0.12700000000E+01 0. -1.
         -4   -1    0    0    0  501 -0.00000000000E+00 -0.00000000000E+00 -0.13934911476E+02  0.13992664430E+02  0.12700000000E+01 0. -1.
         25    2    1    2    0    0  0.56785045910E+02  0.63973732338E+02  0.55593961830E+03  0.57620471817E+03  0.12500335267E+03 0.  0.
    9000005    1    3    3    0    0 -0.55178708859E+01  0.69534503008E+02  0.14945327229E+03  0.16493263657E+03  0.10000000000E+01 0.  0.
    9000005    1    3    3    0    0  0.62302916796E+02 -0.55607706700E+01  0.40648634601E+03  0.41127208160E+03  0.10000000000E+01 0.  0.
         21    1    1    2  502  501 -0.56785045910E+02 -0.63973732338E+02  0.47358859052E+03  0.48125183941E+03  0.00000000000E+00 0. -1.
<mgrwt>
<rscale>  1 0.15146953E+03</rscale>
<asrwt>0</asrwt>
<pdfrwt beam="1">  1        4 0.16053733E+00 0.15146953E+03</pdfrwt>
<pdfrwt beam="2">  1       -4 0.21483339E-02 0.15146953E+03</pdfrwt>
<totfact> 0.41277800E+02</totfact>
</mgrwt>
</event>
<event>
 6    4  0.5642870E-004  0.1565184E+03  0.7818608E-02  0.1192684E+00
          4   -1    0    0  502    0  0.00000000000E+00  0.00000000000E+00  0.82701385709E+02  0.82711136482E+02  0.12700000000E+01 0.  1.
         -4   -1    0    0    0  501 -0.00000000000E+00 -0.00000000000E+00 -0.30345476143E+03  0.30345741898E+03  0.12700000000E+01 0.  1.
         25    2    1    2    0    0 -0.42072061028E+02  0.84279261220E+02 -0.24331270236E+03  0.28930795765E+03  0.12499988415E+03 0.  0.
    9000005    1    3    3    0    0 -0.34232163505E+02  0.77585419936E+02 -0.55819898848E+02  0.10152930371E+03  0.10000000000E+01 0.  0.
    9000005    1    3    3    0    0 -0.78398975222E+01  0.66938412845E+01 -0.18749280351E+03  0.18777865394E+03  0.10000000000E+01 0.  0.
         21    1    1    2  502  501  0.42072061028E+02 -0.84279261220E+02  0.22559326640E+02  0.96860597816E+02  0.00000000000E+00 0.  1.
<mgrwt>
<rscale>  1 0.15651844E+03</rscale>
<asrwt>0</asrwt>
<pdfrwt beam="1">  1        4 0.12724245E-01 0.15651844E+03</pdfrwt>
<pdfrwt beam="2">  1       -4 0.46686302E-01 0.15651844E+03</pdfrwt>
<totfact> 0.38238782E+02</totfact>
</mgrwt>
</event>
<event>
 6    4  0.5642870E-004  0.1273399E+03  0.7818608E-02  0.1231457E+00
         -4   -1    0    0    0  501 -0.00000000000E+00  0.00000000000E+00  0.12960722670E+02  0.13022796633E+02  0.12700000000E+01 0. -1.
          4   -1    0    0  502    0  0.00000000000E+00 -0.00000000000E+00 -0.49091576468E+03  0.49091740742E+03  0.12700000000E+01 0. -1.
         25    2    1    2    0    0  0.77584284712E+01  0.23036857386E+02 -0.32483878925E+03  0.34890641139E+03  0.12499821956E+03 0.  0.
    9000005    1    3    3    0    0  0.29221995830E+01  0.66417186592E+02 -0.27372232009E+03  0.28168189584E+03  0.10000000000E+01 0.  0.
    9000005    1    3    3    0    0  0.48362288882E+01 -0.43380329206E+02 -0.51116469162E+02  0.67224515554E+02  0.10000000000E+01 0.  0.
         21    1    1    2  502  501 -0.77584284712E+01 -0.23036857386E+02 -0.15311625276E+03  0.15503379267E+03  0.00000000000E+00 0. -1.
<mgrwt>
<rscale>  1 0.12733988E+03</rscale>
<asrwt>0</asrwt>
<pdfrwt beam="2">  1        4 0.75530389E-01 0.12733988E+03</pdfrwt>
<pdfrwt beam="1">  1       -4 0.19988590E-02 0.12733988E+03</pdfrwt>
<totfact> 0.26609002E+03</totfact>
</mgrwt>
</event>
<event>
 6    4  0.5642870E-004  0.1283918E+03  0.7818608E-02  0.1229862E+00
         -4   -1    0    0    0  501 -0.00000000000E+00  0.00000000000E+00  0.84720244843E+01  0.85666854070E+01  0.12700000000E+01 0. -1.
          4   -1    0    0  502    0  0.00000000000E+00 -0.00000000000E+00 -0.10817462161E+04  0.10817469616E+04  0.12700000000E+01 0. -1.
         25    2    1    2    0    0 -0.22170504886E+02  0.19314839860E+02 -0.49786555458E+03  0.51415421257E+03  0.12497939646E+03 0.  0.
    9000005    1    3    3    0    0  0.18232523807E+02 -0.41579219807E+02 -0.29604848006E+03  0.29951120011E+03  0.10000000000E+01 0.  0.
    9000005    1    3    3    0    0 -0.40403028693E+02  0.60894059667E+02 -0.20181707452E+03  0.21464301246E+03  0.10000000000E+01 0.  0.
         21    1    1    2  502  501  0.22170504886E+02 -0.19314839860E+02 -0.57540863700E+03  0.57615943441E+03  0.00000000000E+00 0. -1.
<mgrwt>
<rscale>  1 0.12839176E+03</rscale>
<asrwt>0</asrwt>
<pdfrwt beam="2">  1        4 0.16642973E+00 0.12839176E+03</pdfrwt>
<pdfrwt beam="1">  1       -4 0.13107282E-02 0.12839176E+03</pdfrwt>
<totfact> 0.77642765E+02</totfact>
</mgrwt>
</event>
<event>
 6    4  0.5642870E-004  0.1279903E+03  0.7818608E-02  0.1230469E+00
         -4   -1    0    0    0  501 -0.00000000000E+00  0.00000000000E+00  0.29892012507E+03  0.29892282293E+03  0.12700000000E+01 0.  1.
          4   -1    0    0  502    0  0.00000000000E+00 -0.00000000000E+00 -0.22532186410E+02  0.22567949052E+02  0.12700000000E+01 0.  1.
         25    2    1    2    0    0  0.24336444938E+02 -0.12870958196E+02  0.25908329675E+03  0.28897347277E+03  0.12499435663E+03 0.  0.
    9000005    1    3    3    0    0  0.30213213475E+02  0.11926305096E+02  0.26135604090E+03  0.26336866772E+03  0.10000000000E+01 0.  0.
    9000005    1    3    3    0    0 -0.58767685374E+01 -0.24797263292E+02 -0.22727441535E+01  0.25604805041E+02  0.10000000000E+01 0.  0.
         21    1    1    2  502  501 -0.24336444938E+02  0.12870958196E+02  0.17304641907E+02  0.32517299221E+02  0.00000000000E+00 0.  1.
<mgrwt>
<rscale>  1 0.12799029E+03</rscale>
<asrwt>0</asrwt>
<pdfrwt beam="2">  1        4 0.34694489E-02 0.12799029E+03</pdfrwt>
<pdfrwt beam="1">  1       -4 0.45990667E-01 0.12799029E+03</pdfrwt>
<totfact> 0.31898082E+03</totfact>
</mgrwt>
</event>
<event>
 6    4  0.5642870E-004  0.1275819E+03  0.7818608E-02  0.1231088E+00
         -4   -1    0    0    0  501 -0.00000000000E+00  0.00000000000E+00  0.39161406046E+02  0.39181993613E+02  0.12700000000E+01 0. -1.
          4   -1    0    0  502    0  0.00000000000E+00 -0.00000000000E+00 -0.14999846662E+03  0.15000384291E+03  0.12700000000E+01 0. -1.
         25    2    1    2    0    0 -0.58927944085E+01 -0.24852500684E+02 -0.88699943453E+02  0.15538607661E+03  0.12499912407E+03 0.  0.
    9000005    1    3    3    0    0 -0.60431053659E+02 -0.11089439807E+01 -0.18179679348E+02  0.63124026680E+02  0.10000000000E+01 0.  0.
    9000005    1    3    3    0    0  0.54538259251E+02 -0.23743556704E+02 -0.70520264104E+02  0.92262049925E+02  0.10000000000E+01 0.  0.
         21    1    1    2  502  501  0.58927944085E+01  0.24852500684E+02 -0.22137117122E+02  0.33799759921E+02  0.00000000000E+00 0. -1.
<mgrwt>
<rscale>  1 0.12758195E+03</rscale>
<asrwt>0</asrwt>
<pdfrwt beam="2">  1        4 0.23078684E-01 0.12758195E+03</pdfrwt>
<pdfrwt beam="1">  1       -4 0.60268290E-02 0.12758195E+03</pdfrwt>
<totfact> 0.49257862E+03</totfact>
</mgrwt>
</event>
<event>
 6    4  0.5642870E-004  0.1269529E+03  0.7818608E-02  0.1232048E+00
          4   -1    0    0  502    0  0.00000000000E+00  0.00000000000E+00  0.83665816259E+02  0.83675454646E+02  0.12700000000E+01 0. -1.
         -4   -1    0    0    0  501 -0.00000000000E+00 -0.00000000000E+00 -0.68467188746E+02  0.68478966367E+02  0.12700000000E+01 0. -1.
         25    2    1    2    0    0 -0.89321939612E+01  0.20300925691E+02  0.22236294356E+02  0.12888554851E+03  0.12500048062E+03 0.  0.
    9000005    1    3    3    0    0  0.35264847983E+01  0.71165335229E+02  0.27197678508E+02  0.76273552097E+02  0.10000000000E+01 0.  0.
    9000005    1    3    3    0    0 -0.12458678760E+02 -0.50864409538E+02 -0.49613841517E+01  0.52611996416E+02  0.10000000000E+01 0.  0.
         21    1    1    2  502  501  0.89321939612E+01 -0.20300925691E+02 -0.70376668430E+01  0.23268872501E+02  0.00000000000E+00 0. -1.
<mgrwt>
<rscale>  1 0.12695287E+03</rscale>
<asrwt>0</asrwt>
<pdfrwt beam="1">  1        4 0.12873311E-01 0.12695287E+03</pdfrwt>
<pdfrwt beam="2">  1       -4 0.10535061E-01 0.12695287E+03</pdfrwt>
<totfact> 0.54847930E+03</totfact>
</mgrwt>
</event>
<event>
 6    4  0.5642870E-004  0.1269255E+03  0.7818608E-02  0.1232090E+00
          4   -1    0    0  502    0  0.00000000000E+00  0.00000000000E+00  0.19943998099E+03  0.19944402453E+03  0.12700000000E+01 0.  1.
         -4   -1    0    0    0  501 -0.00000000000E+00 -0.00000000000E+00 -0.29822106174E+02  0.29849135945E+02  0.12700000000E+01 0.  1.
         25    2    1    2    0    0 -0.18417922636E+02 -0.11760727509E+02  0.11826469568E+03  0.17348381006E+03  0.12503023443E+03 0.  0.
    9000005    1    3    3    0    0 -0.27810583046E+02 -0.30456734551E+02 -0.10867993166E+02  0.42663268561E+02  0.10000000000E+01 0.  0.
    9000005    1    3    3    0    0  0.93926604101E+01  0.18696007043E+02  0.12913268885E+03  0.13082054150E+03  0.10000000000E+01 0.  0.
         21    1    1    2  502  501  0.18417922636E+02  0.11760727509E+02  0.51353179138E+02  0.55809350411E+02  0.00000000000E+00 0.  1.
<mgrwt>
<rscale>  1 0.12692555E+03</rscale>
<asrwt>0</asrwt>
<pdfrwt beam="1">  1        4 0.30685464E-01 0.12692555E+03</pdfrwt>
<pdfrwt beam="2">  1       -4 0.45904066E-02 0.12692555E+03</pdfrwt>
<totfact> 0.44912457E+03</totfact>
</mgrwt>
</event>
<event>
 6    4  0.5642870E-004  0.1333928E+03  0.7818608E-02  0.1222506E+00
          4   -1    0    0  502    0  0.00000000000E+00  0.00000000000E+00  0.10476811767E+04  0.10476819464E+04  0.12700000000E+01 0.  1.
         -4   -1    0    0    0  501 -0.00000000000E+00 -0.00000000000E+00 -0.51699094097E+02  0.51714690664E+02  0.12700000000E+01 0.  1.
         25    2    1    2    0    0  0.81626995046E+01 -0.45853470931E+02  0.35837401880E+02  0.13812301406E+03  0.12499790870E+03 0.  0.
    9000005    1    3    3    0    0  0.11290784178E+02  0.20618629934E+02 -0.34197049291E+02  0.41509611994E+02  0.10000000000E+01 0.  0.
    9000005    1    3    3    0    0 -0.31280846731E+01 -0.66472100866E+02  0.70034451171E+02  0.96613402062E+02  0.10000000000E+01 0.  0.
         21    1    1    2  502  501 -0.81626995046E+01  0.45853470931E+02  0.96014468069E+03  0.96127362302E+03  0.00000000000E+00 0.  1.
<mgrwt>
<rscale>  1 0.13339283E+03</rscale>
<asrwt>0</asrwt>
<pdfrwt beam="1">  1        4 0.16118297E+00 0.13339283E+03</pdfrwt>
<pdfrwt beam="2">  1       -4 0.79549661E-02 0.13339283E+03</pdfrwt>
<totfact> 0.49600733E+01</totfact>
</mgrwt>
</event>
<event>
 6    4  0.5642870E-004  0.1284233E+03  0.7818608E-02  0.1229814E+00
         -4   -1    0    0    0  501 -0.00000000000E+00  0.00000000000E+00  0.22599593999E+02  0.22635250141E+02  0.12700000000E+01 0.  1.
          4   -1    0    0  502    0  0.00000000000E+00 -0.00000000000E+00 -0.27899707935E+03  0.27899996987E+03  0.12700000000E+01 0.  1.
         25    2    1    2    0    0 -0.23376311003E+02 -0.17901917337E+02 -0.19422389792E+03  0.23284215688E+03  0.12500246772E+03 0.  0.
    9000005    1    3    3    0    0  0.40509951580E+02 -0.27745327175E+02 -0.33076261968E+02  0.59210627955E+02  0.10000000000E+01 0.  0.
    9000005    1    3    3    0    0 -0.63886262583E+02  0.98434098379E+01 -0.16114763595E+03  0.17363152892E+03  0.10000000000E+01 0.  0.
         21    1    1    2  502  501  0.23376311003E+02  0.17901917337E+02 -0.62173587438E+02  0.68793063134E+02  0.00000000000E+00 0.  1.
<mgrwt>
<rscale>  1 0.12842331E+03</rscale>
<asrwt>0</asrwt>
<pdfrwt beam="2">  1        4 0.42925590E-01 0.12842331E+03</pdfrwt>
<pdfrwt beam="1">  1       -4 0.34798260E-02 0.12842331E+03</pdfrwt>
<totfact> 0.36466671E+03</totfact>
</mgrwt>
</event>
<event>
 6    4  0.5642870E-004  0.1273621E+03  0.7818608E-02  0.1231423E+00
          4   -1    0    0  502    0  0.00000000000E+00  0.00000000000E+00  0.15770010836E+04  0.15770015950E+04  0.12700000000E+01 0.  1.
         -4   -1    0    0    0  501 -0.00000000000E+00 -0.00000000000E+00 -0.35785765242E+01  0.37972503130E+01  0.12700000000E+01 0.  1.
         25    2    1    2    0    0  0.69002983207E+01  0.23447564669E+02  0.13719979881E+04  0.13778968018E+04  0.12499485862E+03 0.  0.
    9000005    1    3    3    0    0 -0.32871952545E+02  0.38900385929E+02  0.25257705566E+03  0.25766252024E+03  0.10000000000E+01 0.  0.
    9000005    1    3    3    0    0  0.39772250866E+02 -0.15452821260E+02  0.11194209324E+04  0.11202342816E+04  0.10000000000E+01 0.  0.
         21    1    1    2  502  501 -0.69002983207E+01 -0.23447564669E+02  0.20142451899E+03  0.20290204350E+03  0.00000000000E+00 0. -1.
<mgrwt>
<rscale>  1 0.12736215E+03</rscale>
<asrwt>0</asrwt>
<pdfrwt beam="1">  1        4 0.24263228E+00 0.12736215E+03</pdfrwt>
<pdfrwt beam="2">  1       -4 0.56741094E-03 0.12736215E+03</pdfrwt>
<totfact> 0.91614731E+02</totfact>
</mgrwt>
</event>
<event>
 6    4  0.5642870E-004  0.1321827E+03  0.7818608E-02  0.1224253E+00
          4   -1    0    0  502    0  0.00000000000E+00  0.00000000000E+00  0.12843861598E+02  0.12906497618E+02  0.12700000000E+01 0. -1.
         -4   -1    0    0    0  501 -0.00000000000E+00 -0.00000000000E+00 -0.90283654714E+03  0.90283744038E+03  0.12700000000E+01 0. -1.
         25    2    1    2    0    0 -0.42890181707E+02 -0.12701913021E+01 -0.83786440440E+03  0.84822698629E+03  0.12502431379E+03 0.  0.
    9000005    1    3    3    0    0 -0.51961497136E+02 -0.17633078312E+02 -0.14390706304E+03  0.15401676996E+03  0.10000000000E+01 0.  0.
    9000005    1    3    3    0    0  0.90713154298E+01  0.16362887010E+02 -0.69395734136E+03  0.69421021633E+03  0.10000000000E+01 0.  0.
         21    1    1    2  502  501  0.42890181707E+02  0.12701913021E+01 -0.52128281138E+02  0.67516951703E+02  0.00000000000E+00 0. -1.
<mgrwt>
<rscale>  1 0.13218268E+03</rscale>
<asrwt>0</asrwt>
<pdfrwt beam="1">  1        4 0.19808663E-02 0.13218268E+03</pdfrwt>
<pdfrwt beam="2">  1       -4 0.13890277E+00 0.13218268E+03</pdfrwt>
<totfact> 0.66013371E+02</totfact>
</mgrwt>
</event>
<event>
 6    4  0.5642870E-004  0.1316720E+03  0.7818608E-02  0.1224996E+00
         -4   -1    0    0    0  501 -0.00000000000E+00  0.00000000000E+00  0.11833034198E+04  0.11833041013E+04  0.12700000000E+01 0.  1.
          4   -1    0    0  502    0  0.00000000000E+00 -0.00000000000E+00 -0.77463091342E+01  0.78497264412E+01  0.12700000000E+01 0.  1.
         25    2    1    2    0    0  0.39326247536E+02  0.12885852108E+02  0.10649358095E+04  0.10730451016E+04  0.12499965095E+03 0.  0.
    9000005    1    3    3    0    0  0.18247412597E+02 -0.50738815407E+02  0.69468295666E+03  0.69677313792E+03  0.10000000000E+01 0.  0.
    9000005    1    3    3    0    0  0.21078834939E+02  0.63624667515E+02  0.37025285284E+03  0.37627196366E+03  0.10000000000E+01 0.  0.
         21    1    1    2  502  501 -0.39326247536E+02 -0.12885852108E+02  0.11062130118E+03  0.11810872620E+03  0.00000000000E+00 0.  1.
<mgrwt>
<rscale>  1 0.13167199E+03</rscale>
<asrwt>0</asrwt>
<pdfrwt beam="2">  1        4 0.11997485E-02 0.13167199E+03</pdfrwt>
<pdfrwt beam="1">  1       -4 0.18205453E+00 0.13167199E+03</pdfrwt>
<totfact> 0.70130818E+02</totfact>
</mgrwt>
</event>
<event>
 6    4  0.5642870E-004  0.1284141E+03  0.7818608E-02  0.1229828E+00
         -4   -1    0    0    0  501 -0.00000000000E+00  0.00000000000E+00  0.10067046808E+03  0.10067847855E+03  0.12700000000E+01 0. -1.
          4   -1    0    0  502    0  0.00000000000E+00 -0.00000000000E+00 -0.66567346657E+02  0.66579460353E+02  0.12700000000E+01 0. -1.
         25    2    1    2    0    0  0.18994836844E+02  0.22492185271E+02  0.44696225133E+02  0.13597030442E+03  0.12499387553E+03 0.  0.
    9000005    1    3    3    0    0 -0.49324229298E+02 -0.11847142540E+02  0.88010874790E+01  0.51494597027E+02  0.10000000000E+01 0.  0.
    9000005    1    3    3    0    0  0.68319066142E+02  0.34339327812E+02  0.35895137654E+02  0.84475707397E+02  0.10000000000E+01 0.  0.
         21    1    1    2  502  501 -0.18994836844E+02 -0.22492185271E+02 -0.10593103712E+02  0.31287634478E+02  0.00000000000E+00 0. -1.
<mgrwt>
<rscale>  1 0.12841406E+03</rscale>
<asrwt>0</asrwt>
<pdfrwt beam="2">  1        4 0.10242678E-01 0.12841406E+03</pdfrwt>
<pdfrwt beam="1">  1       -4 0.15489312E-01 0.12841406E+03</pdfrwt>
<totfact> 0.41853447E+03</totfact>
</mgrwt>
</event>
<event>
 6    4  0.5642870E-004  0.1280100E+03  0.7818608E-02  0.1230439E+00
          4   -1    0    0  502    0  0.00000000000E+00  0.00000000000E+00  0.52967090319E+03  0.52967242573E+03  0.12700000000E+01 0. -1.
         -4   -1    0    0    0  501 -0.00000000000E+00 -0.00000000000E+00 -0.15543160450E+02  0.15594958697E+02  0.12700000000E+01 0. -1.
         25    2    1    2    0    0  0.13190869568E+02  0.24349334209E+02  0.26175557569E+03  0.29138040206E+03  0.12497867092E+03 0.  0.
    9000005    1    3    3    0    0 -0.87693836790E+01 -0.42996546758E+02  0.43024831582E+02  0.61463332612E+02  0.10000000000E+01 0.  0.
    9000005    1    3    3    0    0  0.21960253247E+02  0.67345880967E+02  0.21873074411E+03  0.22991706945E+03  0.10000000000E+01 0.  0.
         21    1    1    2  502  501 -0.13190869568E+02 -0.24349334209E+02  0.25237216705E+03  0.25388698237E+03  0.00000000000E+00 0.  1.
<mgrwt>
<rscale>  1 0.12800999E+03</rscale>
<asrwt>0</asrwt>
<pdfrwt beam="1">  1        4 0.81491927E-01 0.12800999E+03</pdfrwt>
<pdfrwt beam="2">  1       -4 0.23953572E-02 0.12800999E+03</pdfrwt>
<totfact> 0.17046667E+03</totfact>
</mgrwt>
</event>
<event>
 6    4  0.5642870E-004  0.1281466E+03  0.7818608E-02  0.1230232E+00
          4   -1    0    0  502    0  0.00000000000E+00  0.00000000000E+00  0.25853141746E+02  0.25884316451E+02  0.12700000000E+01 0. -1.
         -4   -1    0    0    0  501 -0.00000000000E+00 -0.00000000000E+00 -0.23816042152E+03  0.23816380766E+03  0.12700000000E+01 0. -1.
         25    2    1    2    0    0 -0.24402602338E+02 -0.14177450732E+02 -0.18252773007E+03  0.22301997901E+03  0.12500020672E+03 0.  0.
    9000005    1    3    3    0    0  0.38833983719E+02  0.18826792911E+02 -0.12217410767E+03  0.12957638291E+03  0.10000000000E+01 0.  0.
    9000005    1    3    3    0    0 -0.63236586057E+02 -0.33004243643E+02 -0.60353622400E+02  0.93443596096E+02  0.10000000000E+01 0.  0.
         21    1    1    2  502  501  0.24402602338E+02  0.14177450732E+02 -0.29779549701E+02  0.41028145102E+02  0.00000000000E+00 0. -1.
<mgrwt>
<rscale>  1 0.12814655E+03</rscale>
<asrwt>0</asrwt>
<pdfrwt beam="1">  1        4 0.39800651E-02 0.12814655E+03</pdfrwt>
<pdfrwt beam="2">  1       -4 0.36642722E-01 0.12814655E+03</pdfrwt>
<totfact> 0.40214229E+03</totfact>
</mgrwt>
</event>
<event>
 6    4  0.5642870E-004  0.1307518E+03  0.7818608E-02  0.1226345E+00
          4   -1    0    0  502    0  0.00000000000E+00  0.00000000000E+00  0.27805565142E+02  0.27834553219E+02  0.12700000000E+01 0.  1.
         -4   -1    0    0    0  501 -0.00000000000E+00 -0.00000000000E+00 -0.30852942663E+03  0.30853204047E+03  0.12700000000E+01 0.  1.
         25    2    1    2    0    0 -0.37265214711E+02  0.90575121295E+01 -0.26384576451E+03  0.29446665442E+03  0.12500115344E+03 0.  0.
    9000005    1    3    3    0    0  0.56006695303E+01  0.56864870634E+02 -0.70609027831E+02  0.90838404999E+02  0.10000000000E+01 0.  0.
    9000005    1    3    3    0    0 -0.42865884241E+02 -0.47807358504E+02 -0.19323673668E+03  0.20362824942E+03  0.10000000000E+01 0.  0.
         21    1    1    2  502  501  0.37265214711E+02 -0.90575121295E+01 -0.16878096978E+02  0.41899939272E+02  0.00000000000E+00 0.  1.
<mgrwt>
<rscale>  1 0.13075176E+03</rscale>
<asrwt>0</asrwt>
<pdfrwt beam="1">  1        4 0.42802104E-02 0.13075176E+03</pdfrwt>
<pdfrwt beam="2">  1       -4 0.47468494E-01 0.13075176E+03</pdfrwt>
<totfact> 0.21571242E+03</totfact>
</mgrwt>
</event>
<event>
 6    4  0.5642870E-004  0.1286430E+03  0.7818608E-02  0.1229483E+00
         -4   -1    0    0    0  501 -0.00000000000E+00  0.00000000000E+00  0.46615795632E+02  0.46633092353E+02  0.12700000000E+01 0. -1.
          4   -1    0    0  502    0  0.00000000000E+00 -0.00000000000E+00 -0.16629882677E+03  0.16630367610E+03  0.12700000000E+01 0. -1.
         25    2    1    2    0    0 -0.26875103638E+02  0.14219590391E+02 -0.52032221589E+02  0.13876736790E+03  0.12499824944E+03 0.  0.
    9000005    1    3    3    0    0  0.46740599261E+02 -0.64210237669E+01 -0.16879243038E+01  0.47220358469E+02  0.10000000000E+01 0.  0.
    9000005    1    3    3    0    0 -0.73615702899E+02  0.20640614158E+02 -0.50344297285E+02  0.91547009429E+02  0.10000000000E+01 0.  0.
         21    1    1    2  502  501  0.26875103638E+02 -0.14219590391E+02 -0.67650809545E+02  0.74169400554E+02  0.00000000000E+00 0. -1.
<mgrwt>
<rscale>  1 0.12864303E+03</rscale>
<asrwt>0</asrwt>
<pdfrwt beam="2">  1        4 0.25586138E-01 0.12864303E+03</pdfrwt>
<pdfrwt beam="1">  1       -4 0.71733645E-02 0.12864303E+03</pdfrwt>
<totfact> 0.30728883E+03</totfact>
</mgrwt>
</event>
<event>
 6    4  0.5642870E-004  0.1302485E+03  0.7818608E-02  0.1227087E+00
         -4   -1    0    0    0  501 -0.00000000000E+00  0.00000000000E+00  0.29168375108E+03  0.29168651588E+03  0.12700000000E+01 0.  1.
          4   -1    0    0  502    0  0.00000000000E+00 -0.00000000000E+00 -0.23839102691E+02  0.23872907597E+02  0.12700000000E+01 0.  1.
         25    2    1    2    0    0 -0.16097010661E+02  0.32843697130E+02  0.20710737961E+03  0.24465922592E+03  0.12500739158E+03 0.  0.
    9000005    1    3    3    0    0  0.12206783618E+02  0.11396090552E+01  0.20138927839E+03  0.20176457996E+03  0.10000000000E+01 0.  0.
    9000005    1    3    3    0    0 -0.28303794279E+02  0.31704088075E+02  0.57181012192E+01  0.42894645969E+02  0.10000000000E+01 0.  0.
         21    1    1    2  502  501  0.16097010661E+02 -0.32843697130E+02  0.60737268786E+02  0.70900197553E+02  0.00000000000E+00 0.  1.
<mgrwt>
<rscale>  1 0.13024849E+03</rscale>
<asrwt>0</asrwt>
<pdfrwt beam="2">  1        4 0.36703671E-02 0.13024849E+03</pdfrwt>
<pdfrwt beam="1">  1       -4 0.44877238E-01 0.13024849E+03</pdfrwt>
<totfact> 0.30786497E+03</totfact>
</mgrwt>
</event>
<event>
 6    4  0.5642870E-004  0.1268940E+03  0.7818608E-02  0.1232139E+00
         -4   -1    0    0    0  501 -0.00000000000E+00  0.00000000000E+00  0.22955416252E+03  0.22955767560E+03  0.12700000000E+01 0. -1.
          4   -1    0    0  502    0  0.00000000000E+00 -0.00000000000E+00 -0.28349025885E+02  0.28377458812E+02  0.12700000000E+01 0. -1.
         25    2    1    2    0    0 -0.20279537193E+02  0.80872072549E+01  0.19896822996E+03  0.23598823711E+03  0.12500171587E+03 0.  0.
    9000005    1    3    3    0    0 -0.16275095018E+02 -0.26231963839E+02  0.19903945041E+03  0.20142169065E+03  0.10000000000E+01 0.  0.
    9000005    1    3    3    0    0 -0.40044421756E+01  0.34319171094E+02 -0.71220454065E-01  0.34566546458E+02  0.10000000000E+01 0.  0.
         21    1    1    2  502  501  0.20279537193E+02 -0.80872072549E+01  0.22369066757E+01  0.21946897308E+02  0.00000000000E+00 0. -1.
<mgrwt>
<rscale>  1 0.12689402E+03</rscale>
<asrwt>0</asrwt>
<pdfrwt beam="2">  1        4 0.43638459E-02 0.12689402E+03</pdfrwt>
<pdfrwt beam="1">  1       -4 0.35318483E-01 0.12689402E+03</pdfrwt>
<totfact> 0.37214153E+03</totfact>
</mgrwt>
</event>
<event>
 6    4  0.5642870E-004  0.1278360E+03  0.7818608E-02  0.1230703E+00
          4   -1    0    0  502    0  0.00000000000E+00  0.00000000000E+00  0.38941713398E+03  0.38941920489E+03  0.12700000000E+01 0.  1.
         -4   -1    0    0    0  501 -0.00000000000E+00 -0.00000000000E+00 -0.20705927985E+02  0.20744839207E+02  0.12700000000E+01 0.  1.
         25    2    1    2    0    0 -0.11196865335E+02  0.24327153408E+02  0.18717942375E+03  0.22666753690E+03  0.12499942170E+03 0.  0.
    9000005    1    3    3    0    0 -0.96588177539E+01 -0.20176938927E+02 -0.99973358243E+01  0.24522405030E+02  0.10000000000E+01 0.  0.
    9000005    1    3    3    0    0 -0.15380475807E+01  0.44504092334E+02  0.19717675957E+03  0.20214513187E+03  0.10000000000E+01 0.  0.
         21    1    1    2  502  501  0.11196865335E+02 -0.24327153408E+02  0.18153178225E+03  0.18349650720E+03  0.00000000000E+00 0.  1.
<mgrwt>
<rscale>  1 0.12783597E+03</rscale>
<asrwt>0</asrwt>
<pdfrwt beam="1">  1        4 0.59913482E-01 0.12783597E+03</pdfrwt>
<pdfrwt beam="2">  1       -4 0.31886798E-02 0.12783597E+03</pdfrwt>
<totfact> 0.21167760E+03</totfact>
</mgrwt>
</event>
<event>
 6    4  0.5642870E-004  0.1433028E+03  0.7818608E-02  0.1208953E+00
         -4   -1    0    0    0  501 -0.00000000000E+00  0.00000000000E+00  0.84940566010E+03  0.84940660953E+03  0.12700000000E+01 0.  1.
          4   -1    0    0  502    0  0.00000000000E+00 -0.00000000000E+00 -0.13707302295E+02  0.13766010177E+02  0.12700000000E+01 0.  1.
         25    2    1    2    0    0 -0.30585249953E+02 -0.63060496742E+02  0.62118355952E+03  0.63749877885E+03  0.12499437848E+03 0.  0.
    9000005    1    3    3    0    0 -0.65383170562E+02 -0.20815069430E+02  0.17506897162E+03  0.18803821668E+03  0.10000000000E+01 0.  0.
    9000005    1    3    3    0    0  0.34797920609E+02 -0.42245427311E+02  0.44611458790E+03  0.44946056216E+03  0.10000000000E+01 0.  0.
         21    1    1    2  502  501  0.30585249953E+02  0.63060496742E+02  0.21451479829E+03  0.22567384086E+03  0.00000000000E+00 0. -1.
<mgrwt>
<rscale>  1 0.14330275E+03</rscale>
<asrwt>0</asrwt>
<pdfrwt beam="2">  1        4 0.21134044E-02 0.14330275E+03</pdfrwt>
<pdfrwt beam="1">  1       -4 0.13068240E+00 0.14330275E+03</pdfrwt>
<totfact> 0.70537833E+02</totfact>
</mgrwt>
</event>
<event>
 6    4  0.5642870E-004  0.1873894E+03  0.7818608E-02  0.1160837E+00
         -4   -1    0    0    0  501 -0.00000000000E+00  0.00000000000E+00  0.32187220725E+03  0.32187471274E+03  0.12700000000E+01 0.  1.
          4   -1    0    0  502    0  0.00000000000E+00 -0.00000000000E+00 -0.85701293311E+02  0.85710702804E+02  0.12700000000E+01 0.  1.
         25    2    1    2    0    0  0.25240859110E+02 -0.13730636910E+03  0.99288907016E+02  0.21206860352E+03  0.12499866231E+03 0.  0.
    9000005    1    3    3    0    0 -0.42252022557E+02 -0.76162616089E+02  0.15817438687E+02  0.88527785843E+02  0.10000000000E+01 0.  0.
    9000005    1    3    3    0    0  0.67492881667E+02 -0.61143753008E+02  0.83471468328E+02  0.12354081768E+03  0.10000000000E+01 0.  0.
         21    1    1    2  502  501 -0.25240859110E+02  0.13730636910E+03  0.13688200692E+03  0.19551681202E+03  0.00000000000E+00 0.  1.
<mgrwt>
<rscale>  1 0.18738945E+03</rscale>
<asrwt>0</asrwt>
<pdfrwt beam="2">  1        4 0.13185731E-01 0.18738945E+03</pdfrwt>
<pdfrwt beam="1">  1       -4 0.49519718E-01 0.18738945E+03</pdfrwt>
<totfact> 0.32884540E+02</totfact>
</mgrwt>
</event>
<event>
 6    4  0.5642870E-004  0.1268588E+03  0.7818608E-02  0.1232193E+00
         -4   -1    0    0    0  501 -0.00000000000E+00  0.00000000000E+00  0.63089829563E+02  0.63102610836E+02  0.12700000000E+01 0.  1.
          4   -1    0    0  502    0  0.00000000000E+00 -0.00000000000E+00 -0.87733646614E+02  0.87742838159E+02  0.12700000000E+01 0.  1.
         25    2    1    2    0    0 -0.14386787871E+02  0.16204504675E+02 -0.17682425086E+02  0.12808525095E+03  0.12499439074E+03 0.  0.
    9000005    1    3    3    0    0 -0.40527123204E+02  0.51031341156E+02  0.22376237293E+02  0.68908210619E+02  0.10000000000E+01 0.  0.
    9000005    1    3    3    0    0  0.26140335332E+02 -0.34826836481E+02 -0.40058662379E+02  0.59177040329E+02  0.10000000000E+01 0.  0.
         21    1    1    2  502  501  0.14386787871E+02 -0.16204504675E+02 -0.69613919651E+01  0.22760198046E+02  0.00000000000E+00 0.  1.
<mgrwt>
<rscale>  1 0.12685883E+03</rscale>
<asrwt>0</asrwt>
<pdfrwt beam="2">  1        4 0.13499174E-01 0.12685883E+03</pdfrwt>
<pdfrwt beam="1">  1       -4 0.97078179E-02 0.12685883E+03</pdfrwt>
<totfact> 0.57992542E+03</totfact>
</mgrwt>
</event>
<event>
 6    4  0.5642870E-004  0.1269311E+03  0.7818608E-02  0.1232082E+00
          4   -1    0    0  502    0  0.00000000000E+00  0.00000000000E+00  0.98365748067E+01  0.99182208046E+01  0.12700000000E+01 0. -1.
         -4   -1    0    0    0  501 -0.00000000000E+00 -0.00000000000E+00 -0.68571598743E+03  0.68571716350E+03  0.12700000000E+01 0. -1.
         25    2    1    2    0    0  0.21339220423E+02 -0.55787579981E+01 -0.64680197260E+03  0.65913905042E+03  0.12500004460E+03 0.  0.
    9000005    1    3    3    0    0  0.42076956155E+02  0.31508626554E+02 -0.56027563118E+03  0.56273710263E+03  0.10000000000E+01 0.  0.
    9000005    1    3    3    0    0 -0.20737735731E+02 -0.37087384552E+02 -0.86526341427E+02  0.96401947785E+02  0.10000000000E+01 0.  0.
         21    1    1    2  502  501 -0.21339220423E+02  0.55787579981E+01 -0.29077440017E+02  0.36496333885E+02  0.00000000000E+00 0. -1.
<mgrwt>
<rscale>  1 0.12693107E+03</rscale>
<asrwt>0</asrwt>
<pdfrwt beam="1">  1        4 0.15196907E-02 0.12693107E+03</pdfrwt>
<pdfrwt beam="2">  1       -4 0.10550110E+00 0.12693107E+03</pdfrwt>
<totfact> 0.19031690E+03</totfact>
</mgrwt>
</event>
<event>
 6    4  0.5642870E-004  0.1403340E+03  0.7818608E-02  0.1212880E+00
         -4   -1    0    0    0  501 -0.00000000000E+00  0.00000000000E+00  0.37514463626E+02  0.37535954513E+02  0.12700000000E+01 0. -1.
          4   -1    0    0  502    0  0.00000000000E+00 -0.00000000000E+00 -0.37657459653E+03  0.37657673806E+03  0.12700000000E+01 0. -1.
         25    2    1    2    0    0  0.20678678739E+02  0.60338337381E+02 -0.11587075086E+03  0.18198810756E+03  0.12500127070E+03 0.  0.
    9000005    1    3    3    0    0  0.72261590659E+02  0.44525078391E+02 -0.57671089466E+02  0.10262151164E+03  0.10000000000E+01 0.  0.
    9000005    1    3    3    0    0 -0.51582911920E+02  0.15813258990E+02 -0.58199661390E+02  0.79366595920E+02  0.10000000000E+01 0.  0.
         21    1    1    2  502  501 -0.20678678739E+02 -0.60338337381E+02 -0.22318938205E+03  0.23212458502E+03  0.00000000000E+00 0.  1.
<mgrwt>
<rscale>  1 0.14033403E+03</rscale>
<asrwt>0</asrwt>
<pdfrwt beam="2">  1        4 0.57936369E-01 0.14033403E+03</pdfrwt>
<pdfrwt beam="1">  1       -4 0.57732741E-02 0.14033403E+03</pdfrwt>
<totfact> 0.89930785E+02</totfact>
</mgrwt>
</event>
<event>
 6    4  0.5642870E-004  0.1322028E+03  0.7818608E-02  0.1224223E+00
         -4   -1    0    0    0  501 -0.00000000000E+00  0.00000000000E+00  0.16016594934E+02  0.16066866941E+02  0.12700000000E+01 0. -1.
          4   -1    0    0  502    0  0.00000000000E+00 -0.00000000000E+00 -0.55598116107E+03  0.55598261157E+03  0.12700000000E+01 0. -1.
         25    2    1    2    0    0  0.32076471664E+02 -0.28685931384E+02 -0.29410069001E+03  0.32244813981E+03  0.12500321720E+03 0.  0.
    9000005    1    3    3    0    0 -0.22753647466E+02 -0.16065034148E+02 -0.54954554464E+01  0.28407988766E+02  0.10000000000E+01 0.  0.
    9000005    1    3    3    0    0  0.54830119130E+02 -0.12620897237E+02 -0.28860523456E+03  0.29404015105E+03  0.10000000000E+01 0.  0.
         21    1    1    2  502  501 -0.32076471664E+02  0.28685931384E+02 -0.24586387613E+03  0.24960133870E+03  0.00000000000E+00 0. -1.
<mgrwt>
<rscale>  1 0.13220283E+03</rscale>
<asrwt>0</asrwt>
<pdfrwt beam="2">  1        4 0.85539527E-01 0.13220283E+03</pdfrwt>
<pdfrwt beam="1">  1       -4 0.24680706E-02 0.13220283E+03</pdfrwt>
<totfact> 0.14716288E+03</totfact>
</mgrwt>
</event>
<event>
 6    4  0.5642870E-004  0.1291324E+03  0.7818608E-02  0.1228749E+00
          4   -1    0    0  502    0  0.00000000000E+00  0.00000000000E+00  0.45285750301E+02  0.45303554831E+02  0.12700000000E+01 0. -1.
         -4   -1    0    0    0  501 -0.00000000000E+00 -0.00000000000E+00 -0.17272492960E+03  0.17272959852E+03  0.12700000000E+01 0. -1.
         25    2    1    2    0    0  0.63927271319E+01 -0.31774813038E+02 -0.13274194099E+03  0.18519072675E+03  0.12499870669E+03 0.  0.
    9000005    1    3    3    0    0  0.20266780664E+02 -0.52058315989E+02 -0.61258263123E+01  0.56207974613E+02  0.10000000000E+01 0.  0.
    9000005    1    3    3    0    0 -0.13874053532E+02  0.20283502951E+02 -0.12661611468E+03  0.12898275214E+03  0.10000000000E+01 0.  0.
         21    1    1    2  502  501 -0.63927271319E+01  0.31774813038E+02  0.53027616873E+01  0.32842426605E+02  0.00000000000E+00 0.  1.
<mgrwt>
<rscale>  1 0.12913242E+03</rscale>
<asrwt>0</asrwt>
<pdfrwt beam="1">  1        4 0.69687673E-02 0.12913242E+03</pdfrwt>
<pdfrwt beam="2">  1       -4 0.26574795E-01 0.12913242E+03</pdfrwt>
<totfact> 0.30063818E+03</totfact>
</mgrwt>
</event>
<event>
 6    4  0.5642870E-004  0.1429412E+03  0.7818608E-02  0.1209425E+00
          4   -1    0    0  502    0  0.00000000000E+00  0.00000000000E+00  0.21735610294E+03  0.21735981318E+03  0.12700000000E+01 0.  1.
         -4   -1    0    0    0  501 -0.00000000000E+00 -0.00000000000E+00 -0.53082559363E+02  0.53097749562E+02  0.12700000000E+01 0.  1.
         25    2    1    2    0    0  0.22736731372E+02  0.65501104613E+02  0.90324210214E+02  0.16908765812E+03  0.12499927807E+03 0.  0.
    9000005    1    3    3    0    0  0.36906194151E+02  0.38058585163E+02  0.11687907958E+03  0.12834423366E+03  0.10000000000E+01 0.  0.
    9000005    1    3    3    0    0 -0.14169462778E+02  0.27442519450E+02 -0.26554869364E+02  0.40743424453E+02  0.10000000000E+01 0.  0.
         21    1    1    2  502  501 -0.22736731372E+02 -0.65501104613E+02  0.73949333363E+02  0.10136990463E+03  0.00000000000E+00 0.  1.
<mgrwt>
<rscale>  1 0.14294115E+03</rscale>
<asrwt>0</asrwt>
<pdfrwt beam="1">  1        4 0.33440855E-01 0.14294115E+03</pdfrwt>
<pdfrwt beam="2">  1       -4 0.81680013E-02 0.14294115E+03</pdfrwt>
<totfact> 0.15334431E+03</totfact>
</mgrwt>
</event>
<event>
 6    4  0.5642870E-004  0.1289351E+03  0.7818608E-02  0.1229044E+00
          4   -1    0    0  502    0  0.00000000000E+00  0.00000000000E+00  0.88711873217E+03  0.88711964123E+03  0.12700000000E+01 0.  1.
         -4   -1    0    0    0  501 -0.00000000000E+00 -0.00000000000E+00 -0.84361117307E+01  0.85311711466E+01  0.12700000000E+01 0.  1.
         25    2    1    2    0    0 -0.34802097048E+01 -0.31521013041E+02  0.52708367753E+03  0.54262460545E+03  0.12497429017E+03 0.  0.
    9000005    1    3    3    0    0 -0.34180751496E+02 -0.20407879482E+02  0.47736574758E+02  0.62165793548E+02  0.10000000000E+01 0.  0.
    9000005    1    3    3    0    0  0.30700541791E+02 -0.11113133559E+02  0.47934710277E+03  0.48045881191E+03  0.10000000000E+01 0.  0.
         21    1    1    2  502  501  0.34802097048E+01  0.31521013041E+02  0.35159894291E+03  0.35302620693E+03  0.00000000000E+00 0.  1.
<mgrwt>
<rscale>  1 0.12893510E+03</rscale>
<asrwt>0</asrwt>
<pdfrwt beam="1">  1        4 0.13648721E+00 0.12893510E+03</pdfrwt>
<pdfrwt beam="2">  1       -4 0.13052453E-02 0.12893510E+03</pdfrwt>
<totfact> 0.12972597E+03</totfact>
</mgrwt>
</event>
<event>
 6    4  0.5642870E-004  0.1328846E+03  0.7818608E-02  0.1223237E+00
          4   -1    0    0  502    0  0.00000000000E+00  0.00000000000E+00  0.15685466346E+02  0.15736796196E+02  0.12700000000E+01 0. -1.
         -4   -1    0    0    0  501 -0.00000000000E+00 -0.00000000000E+00 -0.61465119344E+03  0.61465250549E+03  0.12700000000E+01 0. -1.
         25    2    1    2    0    0 -0.44969929897E+02  0.36790293400E+01 -0.54017575800E+03  0.55628066306E+03  0.12498998646E+03 0.  0.
    9000005    1    3    3    0    0 -0.83006560158E+02  0.25994223973E+02 -0.39908817624E+03  0.40845827342E+03  0.10000000000E+01 0.  0.
    9000005    1    3    3    0    0  0.38036630261E+02 -0.22315194633E+02 -0.14108758176E+03  0.14782238964E+03  0.10000000000E+01 0.  0.
         21    1    1    2  502  501  0.44969929897E+02 -0.36790293400E+01 -0.58789969101E+02  0.74108638624E+02  0.00000000000E+00 0. -1.
<mgrwt>
<rscale>  1 0.13288464E+03</rscale>
<asrwt>0</asrwt>
<pdfrwt beam="1">  1        4 0.24171985E-02 0.13288464E+03</pdfrwt>
<pdfrwt beam="2">  1       -4 0.94565753E-01 0.13288464E+03</pdfrwt>
<totfact> 0.12131842E+03</totfact>
</mgrwt>
</event>
<event>
 6    4  0.5642870E-004  0.1280509E+03  0.7818608E-02  0.1230377E+00
          4   -1    0    0  502    0  0.00000000000E+00  0.00000000000E+00  0.10240953247E+03  0.10241740692E+03  0.12700000000E+01 0.  1.
         -4   -1    0    0    0  501 -0.00000000000E+00 -0.00000000000E+00 -0.72845668371E+02  0.72856738195E+02  0.12700000000E+01 0.  1.
         25    2    1    2    0    0  0.20304903425E+02 -0.18977900293E+02 -0.82829415529E+01  0.12831852244E+03  0.12499834510E+03 0.  0.
    9000005    1    3    3    0    0  0.33767916891E+02  0.46580905270E+02 -0.18859764539E+02  0.60553642875E+02  0.10000000000E+01 0.  0.
    9000005    1    3    3    0    0 -0.13463013466E+02 -0.65558805563E+02  0.10576822986E+02  0.67764879568E+02  0.10000000000E+01 0.  0.
         21    1    1    2  502  501 -0.20304903425E+02  0.18977900293E+02  0.37846805650E+02  0.46955622673E+02  0.00000000000E+00 0.  1.
<mgrwt>
<rscale>  1 0.12805091E+03</rscale>
<asrwt>0</asrwt>
<pdfrwt beam="1">  1        4 0.15756770E-01 0.12805091E+03</pdfrwt>
<pdfrwt beam="2">  1       -4 0.11208483E-01 0.12805091E+03</pdfrwt>
<totfact> 0.34848711E+03</totfact>
</mgrwt>
</event>
<event>
 6    4  0.5642870E-004  0.1526679E+03  0.7818608E-02  0.1197232E+00
         -4   -1    0    0    0  501 -0.00000000000E+00  0.00000000000E+00  0.24553212468E+03  0.24553540916E+03  0.12700000000E+01 0.  1.
          4   -1    0    0  502    0  0.00000000000E+00 -0.00000000000E+00 -0.59762088723E+02  0.59775581541E+02  0.12700000000E+01 0.  1.
         25    2    1    2    0    0 -0.78387283583E+02  0.39216718032E+02  0.98884651234E+02  0.18189467379E+03  0.12499992361E+03 0.  0.
    9000005    1    3    3    0    0  0.17871154157E+02 -0.12230412598E+02 -0.13251725733E+02  0.25408057347E+02  0.10000000000E+01 0.  0.
    9000005    1    3    3    0    0 -0.96258437740E+02  0.51447130631E+02  0.11213637697E+03  0.15648661644E+03  0.10000000000E+01 0.  0.
         21    1    1    2  502  501  0.78387283583E+02 -0.39216718032E+02  0.86885384724E+02  0.12341631691E+03  0.00000000000E+00 0.  1.
<mgrwt>
<rscale>  1 0.15266793E+03</rscale>
<asrwt>0</asrwt>
<pdfrwt beam="2">  1        4 0.91954581E-02 0.15266793E+03</pdfrwt>
<pdfrwt beam="1">  1       -4 0.37775463E-01 0.15266793E+03</pdfrwt>
<totfact> 0.10072663E+03</totfact>
</mgrwt>
</event>
<event>
 6    4  0.5642870E-004  0.1347846E+03  0.7818608E-02  0.1220524E+00
          4   -1    0    0  502    0  0.00000000000E+00  0.00000000000E+00  0.73598217242E+02  0.73609173893E+02  0.12700000000E+01 0. -1.
         -4   -1    0    0    0  501 -0.00000000000E+00 -0.00000000000E+00 -0.14378687321E+03  0.14379248175E+03  0.12700000000E+01 0. -1.
         25    2    1    2    0    0 -0.39789001912E+02 -0.30964298573E+02 -0.91243184356E+02  0.16276425430E+03  0.12499972531E+03 0.  0.
    9000005    1    3    3    0    0  0.27219557652E+02 -0.39881468415E+02 -0.81114048054E+02  0.94402990595E+02  0.10000000000E+01 0.  0.
    9000005    1    3    3    0    0 -0.67008559564E+02  0.89171698412E+01 -0.10129136303E+02  0.68361263703E+02  0.10000000000E+01 0.  0.
         21    1    1    2  502  501  0.39789001912E+02  0.30964298573E+02  0.21054528392E+02  0.54637401339E+02  0.00000000000E+00 0. -1.
<mgrwt>
<rscale>  1 0.13478458E+03</rscale>
<asrwt>0</asrwt>
<pdfrwt beam="1">  1        4 0.11324077E-01 0.13478458E+03</pdfrwt>
<pdfrwt beam="2">  1       -4 0.22122332E-01 0.13478458E+03</pdfrwt>
<totfact> 0.18915287E+03</totfact>
</mgrwt>
</event>
<event>
 6    4  0.5642870E-004  0.1457766E+03  0.7818608E-02  0.1205761E+00
          4   -1    0    0  502    0  0.00000000000E+00  0.00000000000E+00  0.56257849636E+03  0.56257992985E+03  0.12700000000E+01 0. -1.
         -4   -1    0    0    0  501 -0.00000000000E+00 -0.00000000000E+00 -0.23138685956E+02  0.23173512634E+02  0.12700000000E+01 0. -1.
         25    2    1    2    0    0 -0.51503326662E+01 -0.74805327959E+02  0.27972669574E+03  0.31543277190E+03  0.12501378427E+03 0.  0.
    9000005    1    3    3    0    0 -0.37464035228E+02  0.20492400778E+02  0.58902802554E+02  0.72760102899E+02  0.10000000000E+01 0.  0.
    9000005    1    3    3    0    0  0.32313702562E+02 -0.95297728737E+02  0.22082389319E+03  0.24267266900E+03  0.10000000000E+01 0.  0.
         21    1    1    2  502  501  0.51503326662E+01  0.74805327959E+02  0.25971311466E+03  0.27032067058E+03  0.00000000000E+00 0. -1.
<mgrwt>
<rscale>  1 0.14577657E+03</rscale>
<asrwt>0</asrwt>
<pdfrwt beam="1">  1        4 0.86553329E-01 0.14577657E+03</pdfrwt>
<pdfrwt beam="2">  1       -4 0.35625870E-02 0.14577657E+03</pdfrwt>
<totfact> 0.82294415E+02</totfact>
</mgrwt>
</event>
<event>
 6    4  0.5642870E-004  0.1306560E+03  0.7818608E-02  0.1226486E+00
          4   -1    0    0  502    0  0.00000000000E+00  0.00000000000E+00  0.35265047740E+03  0.35265276422E+03  0.12700000000E+01 0.  1.
         -4   -1    0    0    0  501 -0.00000000000E+00 -0.00000000000E+00 -0.28368824698E+02  0.28397237801E+02  0.12700000000E+01 0.  1.
         25    2    1    2    0    0 -0.31693677240E+02  0.21025486317E+02  0.13457055933E+03  0.18756393224E+03  0.12499773192E+03 0.  0.
    9000005    1    3    3    0    0  0.19620198710E+02 -0.17888015048E+02 -0.10709632052E+02  0.28646631537E+02  0.10000000000E+01 0.  0.
    9000005    1    3    3    0    0 -0.51313875950E+02  0.38913501364E+02  0.14528019139E+03  0.15891730070E+03  0.10000000000E+01 0.  0.
         21    1    1    2  502  501  0.31693677240E+02 -0.21025486317E+02  0.18971109337E+03  0.19348606978E+03  0.00000000000E+00 0.  1.
<mgrwt>
<rscale>  1 0.13065601E+03</rscale>
<asrwt>0</asrwt>
<pdfrwt beam="1">  1        4 0.54256277E-01 0.13065601E+03</pdfrwt>
<pdfrwt beam="2">  1       -4 0.43667964E-02 0.13065601E+03</pdfrwt>
<totfact> 0.15903957E+03</totfact>
</mgrwt>
</event>
<event>
 6    4  0.5642870E-004  0.1272492E+03  0.7818608E-02  0.1231595E+00
         -4   -1    0    0    0  501 -0.00000000000E+00  0.00000000000E+00  0.23445892510E+02  0.23480263533E+02  0.12700000000E+01 0. -1.
          4   -1    0    0  502    0  0.00000000000E+00 -0.00000000000E+00 -0.25635137560E+03  0.25635452146E+03  0.12700000000E+01 0. -1.
         25    2    1    2    0    0 -0.14224578331E+02 -0.19112198518E+02 -0.16840517990E+03  0.21107503025E+03  0.12499899606E+03 0.  0.
    9000005    1    3    3    0    0  0.27574978657E+02 -0.60386000501E+02 -0.70086918605E+02  0.96540274829E+02  0.10000000000E+01 0.  0.
    9000005    1    3    3    0    0 -0.41799556988E+02  0.41273801983E+02 -0.98318261295E+02  0.11453475542E+03  0.10000000000E+01 0.  0.
         21    1    1    2  502  501  0.14224578331E+02  0.19112198518E+02 -0.64500303189E+02  0.68759754744E+02  0.00000000000E+00 0. -1.
<mgrwt>
<rscale>  1 0.12724922E+03</rscale>
<asrwt>0</asrwt>
<pdfrwt beam="2">  1        4 0.39441557E-01 0.12724922E+03</pdfrwt>
<pdfrwt beam="1">  1       -4 0.36099465E-02 0.12724922E+03</pdfrwt>
<totfact> 0.40581844E+03</totfact>
</mgrwt>
</event>
<event>
 6    4  0.5642870E-004  0.1547943E+03  0.7818608E-02  0.1194703E+00
         -4   -1    0    0    0  501 -0.00000000000E+00  0.00000000000E+00  0.62159676851E+02  0.62172649343E+02  0.12700000000E+01 0. -1.
          4   -1    0    0  502    0  0.00000000000E+00 -0.00000000000E+00 -0.24589659896E+03  0.24589987857E+03  0.12700000000E+01 0. -1.
         25    2    1    2    0    0 -0.53019599981E+02 -0.74332433156E+02 -0.10077989335E+03  0.18471022726E+03  0.12499957020E+03 0.  0.
    9000005    1    3    3    0    0 -0.72893069349E+02 -0.86136560333E+02 -0.11200567659E+03  0.15899427088E+03  0.10000000000E+01 0.  0.
    9000005    1    3    3    0    0  0.19873469368E+02  0.11804127177E+02  0.11225783242E+02  0.25715956380E+02  0.10000000000E+01 0.  0.
         21    1    1    2  502  501  0.53019599981E+02  0.74332433156E+02 -0.82957028763E+02  0.12336230065E+03  0.00000000000E+00 0. -1.
<mgrwt>
<rscale>  1 0.15479432E+03</rscale>
<asrwt>0</asrwt>
<pdfrwt beam="2">  1        4 0.37831496E-01 0.15479432E+03</pdfrwt>
<pdfrwt beam="1">  1       -4 0.95642775E-02 0.15479432E+03</pdfrwt>
<totfact> 0.94273264E+02</totfact>
</mgrwt>
</event>
<event>
 6    4  0.5642870E-004  0.1293066E+03  0.7818608E-02  0.1228488E+00
         -4   -1    0    0    0  501 -0.00000000000E+00  0.00000000000E+00  0.26045901880E+02  0.26076846142E+02  0.12700000000E+01 0. -1.
          4   -1    0    0  502    0  0.00000000000E+00 -0.00000000000E+00 -0.28287026341E+03  0.28287311435E+03  0.12700000000E+01 0. -1.
         25    2    1    2    0    0  0.29670498579E+02 -0.14725882472E+02 -0.15489641577E+03  0.20177488770E+03  0.12499206210E+03 0.  0.
    9000005    1    3    3    0    0  0.60518461969E+02  0.22807274512E+02 -0.37611167034E+02  0.74821493539E+02  0.10000000000E+01 0.  0.
    9000005    1    3    3    0    0 -0.30847963390E+02 -0.37533156984E+02 -0.11728524873E+03  0.12695339416E+03  0.10000000000E+01 0.  0.
         21    1    1    2  502  501 -0.29670498579E+02  0.14725882472E+02 -0.10192794576E+03  0.10717507279E+03  0.00000000000E+00 0. -1.
<mgrwt>
<rscale>  1 0.12930663E+03</rscale>
<asrwt>0</asrwt>
<pdfrwt beam="2">  1        4 0.43521100E-01 0.12930663E+03</pdfrwt>
<pdfrwt beam="1">  1       -4 0.40096617E-02 0.12930663E+03</pdfrwt>
<totfact> 0.28405434E+03</totfact>
</mgrwt>
</event>
<event>
 6    4  0.5642870E-004  0.1290301E+03  0.7818608E-02  0.1228902E+00
         -4   -1    0    0    0  501 -0.00000000000E+00  0.00000000000E+00  0.12870557885E+02  0.12933064612E+02  0.12700000000E+01 0.  1.
          4   -1    0    0  502    0  0.00000000000E+00 -0.00000000000E+00 -0.75107031943E+03  0.75107139316E+03  0.12700000000E+01 0.  1.
         25    2    1    2    0    0  0.74606186465E+01  0.31099805787E+02 -0.32660334269E+03  0.35116735822E+03  0.12500364505E+03 0.  0.
    9000005    1    3    3    0    0 -0.35348781644E+02  0.65063537823E+02 -0.20005227049E+03  0.21331833312E+03  0.10000000000E+01 0.  0.
    9000005    1    3    3    0    0  0.42809400290E+02 -0.33963732036E+02 -0.12655107220E+03  0.13784902510E+03  0.10000000000E+01 0.  0.
         21    1    1    2  502  501 -0.74606186465E+01 -0.31099805787E+02 -0.41159641886E+03  0.41283709955E+03  0.00000000000E+00 0.  1.
<mgrwt>
<rscale>  1 0.12903011E+03</rscale>
<asrwt>0</asrwt>
<pdfrwt beam="2">  1        4 0.11555414E+00 0.12903011E+03</pdfrwt>
<pdfrwt beam="1">  1       -4 0.19849772E-02 0.12903011E+03</pdfrwt>
<totfact> 0.10243254E+03</totfact>
</mgrwt>
</event>
<event>
 6    4  0.5642870E-004  0.1318047E+03  0.7818608E-02  0.1224802E+00
          4   -1    0    0  502    0  0.00000000000E+00  0.00000000000E+00  0.10435584453E+04  0.10435592181E+04  0.12700000000E+01 0.  1.
         -4   -1    0    0    0  501 -0.00000000000E+00 -0.00000000000E+00 -0.17240789681E+02  0.17287502099E+02  0.12700000000E+01 0.  1.
         25    2    1    2    0    0 -0.29264565144E+02  0.29875951202E+02  0.24325876203E+03  0.27667185572E+03  0.12499401270E+03 0.  0.
    9000005    1    3    3    0    0 -0.50143448877E+02 -0.17050172231E+02  0.38285993274E+02  0.65359705625E+02  0.10000000000E+01 0.  0.
    9000005    1    3    3    0    0  0.20878883733E+02  0.46926123433E+02  0.20497276876E+03  0.21131215010E+03  0.10000000000E+01 0.  0.
         21    1    1    2  502  501  0.29264565144E+02 -0.29875951202E+02  0.78305889357E+03  0.78417486445E+03  0.00000000000E+00 0.  1.
<mgrwt>
<rscale>  1 0.13180474E+03</rscale>
<asrwt>0</asrwt>
<pdfrwt beam="1">  1        4 0.16055111E+00 0.13180474E+03</pdfrwt>
<pdfrwt beam="2">  1       -4 0.26560819E-02 0.13180474E+03</pdfrwt>
<totfact> 0.28983062E+02</totfact>
</mgrwt>
</event>
<event>
 6    4  0.5642870E-004  0.1301616E+03  0.7818608E-02  0.1227216E+00
         -4   -1    0    0    0  501 -0.00000000000E+00  0.00000000000E+00  0.25476526880E+02  0.25508161868E+02  0.12700000000E+01 0. -1.
          4   -1    0    0  502    0  0.00000000000E+00 -0.00000000000E+00 -0.31738695203E+03  0.31738949293E+03  0.12700000000E+01 0. -1.
         25    2    1    2    0    0 -0.22994114387E+02  0.28085381343E+02 -0.16092290248E+03  0.20697396650E+03  0.12499809730E+03 0.  0.
    9000005    1    3    3    0    0  0.51852222260E+02  0.12924505332E+02 -0.58962549821E+02  0.79581895383E+02  0.10000000000E+01 0.  0.
    9000005    1    3    3    0    0 -0.74846336647E+02  0.15160876011E+02 -0.10196035266E+03  0.12739207112E+03  0.10000000000E+01 0.  0.
         21    1    1    2  502  501  0.22994114387E+02 -0.28085381343E+02 -0.13098752268E+03  0.13592368829E+03  0.00000000000E+00 0. -1.
<mgrwt>
<rscale>  1 0.13016160E+03</rscale>
<asrwt>0</asrwt>
<pdfrwt beam="2">  1        4 0.48831388E-01 0.13016160E+03</pdfrwt>
<pdfrwt beam="1">  1       -4 0.39220948E-02 0.13016160E+03</pdfrwt>
<totfact> 0.23379666E+03</totfact>
</mgrwt>
</event>
<event>
 6    4  0.5642870E-004  0.1291486E+03  0.7818608E-02  0.1228725E+00
          4   -1    0    0  502    0  0.00000000000E+00  0.00000000000E+00  0.39134223981E+03  0.39134430053E+03  0.12700000000E+01 0.  1.
         -4   -1    0    0    0  501 -0.00000000000E+00 -0.00000000000E+00 -0.18686959327E+02  0.18730065374E+02  0.12700000000E+01 0.  1.
         25    2    1    2    0    0 -0.18051488435E+01  0.32433347984E+02  0.34133568165E+03  0.36495122445E+03  0.12499667210E+03 0.  0.
    9000005    1    3    3    0    0 -0.50412249755E+02 -0.13403498556E+02  0.82361253622E+02  0.97495768098E+02  0.10000000000E+01 0.  0.
    9000005    1    3    3    0    0  0.48607100911E+02  0.45836846540E+02  0.25897442803E+03  0.26745545635E+03  0.10000000000E+01 0.  0.
         21    1    1    2  502  501  0.18051488435E+01 -0.32433347984E+02  0.31319598829E+02  0.45123141453E+02  0.00000000000E+00 0.  1.
<mgrwt>
<rscale>  1 0.12914855E+03</rscale>
<asrwt>0</asrwt>
<pdfrwt beam="1">  1        4 0.60209970E-01 0.12914855E+03</pdfrwt>
<pdfrwt beam="2">  1       -4 0.28783913E-02 0.12914855E+03</pdfrwt>
<totfact> 0.24650279E+03</totfact>
</mgrwt>
</event>
<event>
 6    4  0.5642870E-004  0.1369795E+03  0.7818608E-02  0.1217452E+00
          4   -1    0    0  502    0  0.00000000000E+00  0.00000000000E+00  0.36770166052E+03  0.36770385373E+03  0.12700000000E+01 0. -1.
         -4   -1    0    0    0  501 -0.00000000000E+00 -0.00000000000E+00 -0.25434206875E+02  0.25465894435E+02  0.12700000000E+01 0. -1.
         25    2    1    2    0    0  0.60794165484E+01  0.55692889565E+02  0.23000333613E+03  0.26770306201E+03  0.12499895010E+03 0.  0.
    9000005    1    3    3    0    0  0.34219485939E+02  0.43217926214E+02  0.25240294685E+02  0.60636909881E+02  0.10000000000E+01 0.  0.
    9000005    1    3    3    0    0 -0.28140069391E+02  0.12474963351E+02  0.20476304144E+03  0.20706615213E+03  0.10000000000E+01 0.  0.
         21    1    1    2  502  501 -0.60794165484E+01 -0.55692889565E+02  0.11226411752E+03  0.12546668616E+03  0.00000000000E+00 0. -1.
<mgrwt>
<rscale>  1 0.13697954E+03</rscale>
<asrwt>0</asrwt>
<pdfrwt beam="1">  1        4 0.56572093E-01 0.13697954E+03</pdfrwt>
<pdfrwt beam="2">  1       -4 0.39155611E-02 0.13697954E+03</pdfrwt>
<totfact> 0.17529596E+03</totfact>
</mgrwt>
</event>
<event>
 6    4  0.5642870E-004  0.2489258E+03  0.7818608E-02  0.1113986E+00
          4   -1    0    0  502    0  0.00000000000E+00  0.00000000000E+00  0.15022368757E+04  0.15022374125E+04  0.12700000000E+01 0. -1.
         -4   -1    0    0    0  501 -0.00000000000E+00 -0.00000000000E+00 -0.36380869664E+02  0.36403029785E+02  0.12700000000E+01 0. -1.
         25    2    1    2    0    0 -0.14536599809E+03 -0.15876926382E+03  0.87822868660E+03  0.91282511885E+03  0.12500047642E+03 0.  0.
    9000005    1    3    3    0    0 -0.27210351966E+02 -0.11967586419E+03  0.48984618564E+03  0.50498811997E+03  0.10000000000E+01 0.  0.
    9000005    1    3    3    0    0 -0.11815564613E+03 -0.39093399633E+02  0.38838250096E+03  0.40783699888E+03  0.10000000000E+01 0.  0.
         21    1    1    2  502  501  0.14536599809E+03  0.15876926382E+03  0.58762731944E+03  0.62581532347E+03  0.00000000000E+00 0. -1.
<mgrwt>
<rscale>  1 0.24892584E+03</rscale>
<asrwt>0</asrwt>
<pdfrwt beam="1">  1        4 0.23111508E+00 0.24892584E+03</pdfrwt>
<pdfrwt beam="2">  1       -4 0.55988037E-02 0.24892584E+03</pdfrwt>
<totfact> 0.33718650E+01</totfact>
</mgrwt>
</event>
<event>
 6    4  0.5642870E-004  0.1275117E+03  0.7818608E-02  0.1231195E+00
         -4   -1    0    0    0  501 -0.00000000000E+00  0.00000000000E+00  0.72976932038E+02  0.72987981954E+02  0.12700000000E+01 0. -1.
          4   -1    0    0  502    0  0.00000000000E+00 -0.00000000000E+00 -0.97970865626E+02  0.97979096809E+02  0.12700000000E+01 0. -1.
         25    2    1    2    0    0  0.40164579985E+01 -0.24872556543E+02  0.99366302986E+01  0.12789829311E+03  0.12499784301E+03 0.  0.
    9000005    1    3    3    0    0  0.28662174119E+02 -0.34966676402E+02  0.57634669734E+02  0.73259428330E+02  0.10000000000E+01 0.  0.
    9000005    1    3    3    0    0 -0.24645716121E+02  0.10094119860E+02 -0.47698039436E+02  0.54638864784E+02  0.10000000000E+01 0.  0.
         21    1    1    2  502  501 -0.40164579985E+01  0.24872556543E+02 -0.34930563887E+02  0.43068785649E+02  0.00000000000E+00 0. -1.
<mgrwt>
<rscale>  1 0.12751171E+03</rscale>
<asrwt>0</asrwt>
<pdfrwt beam="2">  1        4 0.15073924E-01 0.12751171E+03</pdfrwt>
<pdfrwt beam="1">  1       -4 0.11228703E-01 0.12751171E+03</pdfrwt>
<totfact> 0.37501438E+03</totfact>
</mgrwt>
</event>
<event>
 6    4  0.5642870E-004  0.1266195E+03  0.7818608E-02  0.1232560E+00
         -4   -1    0    0    0  501 -0.00000000000E+00  0.00000000000E+00  0.37563794024E+02  0.37585256703E+02  0.12700000000E+01 0. -1.
          4   -1    0    0  502    0  0.00000000000E+00 -0.00000000000E+00 -0.14391316467E+03  0.14391876828E+03  0.12700000000E+01 0. -1.
         25    2    1    2    0    0 -0.11825985373E+01  0.20156272694E+02 -0.95394545621E+02  0.15853269374E+03  0.12499928712E+03 0.  0.
    9000005    1    3    3    0    0  0.53739478904E+02  0.40509614970E+02 -0.59466153696E+02  0.89811936474E+02  0.10000000000E+01 0.  0.
    9000005    1    3    3    0    0 -0.54922077441E+02 -0.20353342276E+02 -0.35928391925E+02  0.68720757261E+02  0.10000000000E+01 0.  0.
         21    1    1    2  502  501  0.11825985373E+01 -0.20156272694E+02 -0.10954825022E+02  0.22971331252E+02  0.00000000000E+00 0.  1.
<mgrwt>
<rscale>  1 0.12661949E+03</rscale>
<asrwt>0</asrwt>
<pdfrwt beam="2">  1        4 0.22142569E-01 0.12661949E+03</pdfrwt>
<pdfrwt beam="1">  1       -4 0.57811273E-02 0.12661949E+03</pdfrwt>
<totfact> 0.56715925E+03</totfact>
</mgrwt>
</event>
<event>
 6    4  0.5642870E-004  0.1474086E+03  0.7818608E-02  0.1203694E+00
         -4   -1    0    0    0  501 -0.00000000000E+00  0.00000000000E+00  0.20859986978E+03  0.20860373576E+03  0.12700000000E+01 0.  1.
          4   -1    0    0  502    0  0.00000000000E+00 -0.00000000000E+00 -0.76226702680E+02  0.76237281572E+02  0.12700000000E+01 0.  1.
         25    2    1    2    0    0  0.76894545300E+02  0.13829071163E+02  0.14374090042E+03  0.20589014864E+03  0.12500117018E+03 0.  0.
    9000005    1    3    3    0    0 -0.25414776180E+02  0.34357584069E+02  0.35856604757E+02  0.55794717815E+02  0.10000000000E+01 0.  0.
    9000005    1    3    3    0    0  0.10230932148E+03 -0.20528512906E+02  0.10788429566E+03  0.15009543083E+03  0.10000000000E+01 0.  0.
         21    1    1    2  502  501 -0.76894545300E+02 -0.13829071163E+02 -0.11367733320E+02  0.78950868691E+02  0.00000000000E+00 0.  1.
<mgrwt>
<rscale>  1 0.14740864E+03</rscale>
<asrwt>0</asrwt>
<pdfrwt beam="2">  1        4 0.11728296E-01 0.14740864E+03</pdfrwt>
<pdfrwt beam="1">  1       -4 0.32093399E-01 0.14740864E+03</pdfrwt>
<totfact> 0.90768181E+02</totfact>
</mgrwt>
</event>
<event>
 6    4  0.5642870E-004  0.1292425E+03  0.7818608E-02  0.1228584E+00
         -4   -1    0    0    0  501 -0.00000000000E+00  0.00000000000E+00  0.37868188559E+02  0.37889478813E+02  0.12700000000E+01 0.  1.
          4   -1    0    0  502    0  0.00000000000E+00 -0.00000000000E+00 -0.20032695127E+03  0.20033097690E+03  0.12700000000E+01 0.  1.
         25    2    1    2    0    0  0.10241466780E+02  0.31200109755E+02 -0.86640398398E+02  0.15559625310E+03  0.12500120341E+03 0.  0.
    9000005    1    3    3    0    0 -0.67471607796E+01  0.68206532719E+02 -0.91768215001E+02  0.11454283290E+03  0.10000000000E+01 0.  0.
    9000005    1    3    3    0    0  0.16988627560E+02 -0.37006422963E+02  0.51278166024E+01  0.41053420199E+02  0.10000000000E+01 0.  0.
         21    1    1    2  502  501 -0.10241466780E+02 -0.31200109755E+02 -0.75818364317E+02  0.82624202618E+02  0.00000000000E+00 0.  1.
<mgrwt>
<rscale>  1 0.12924254E+03</rscale>
<asrwt>0</asrwt>
<pdfrwt beam="2">  1        4 0.30821478E-01 0.12924254E+03</pdfrwt>
<pdfrwt beam="1">  1       -4 0.58278226E-02 0.12924254E+03</pdfrwt>
<totfact> 0.30470789E+03</totfact>
</mgrwt>
</event>
<event>
 6    4  0.5642870E-004  0.1267675E+03  0.7818608E-02  0.1232333E+00
         -4   -1    0    0    0  501 -0.00000000000E+00  0.00000000000E+00  0.63385490792E+03  0.63385618022E+03  0.12700000000E+01 0. -1.
          4   -1    0    0  502    0  0.00000000000E+00 -0.00000000000E+00 -0.89502236166E+01  0.90398784719E+01  0.12700000000E+01 0. -1.
         25    2    1    2    0    0 -0.16822617874E+01 -0.21107809446E+02  0.57266371942E+03  0.58652684691E+03  0.12498654720E+03 0.  0.
    9000005    1    3    3    0    0 -0.17067428839E+02 -0.12157843712E+02  0.94125245192E+01  0.22993605822E+02  0.10000000000E+01 0.  0.
    9000005    1    3    3    0    0  0.15385167051E+02 -0.89499657338E+01  0.56325119491E+03  0.56353324109E+03  0.10000000000E+01 0.  0.
         21    1    1    2  502  501  0.16822617874E+01  0.21107809446E+02  0.52240964881E+02  0.56369211774E+02  0.00000000000E+00 0. -1.
<mgrwt>
<rscale>  1 0.12676753E+03</rscale>
<asrwt>0</asrwt>
<pdfrwt beam="2">  1        4 0.13839519E-02 0.12676753E+03</pdfrwt>
<pdfrwt beam="1">  1       -4 0.97523134E-01 0.12676753E+03</pdfrwt>
<totfact> 0.26320490E+03</totfact>
</mgrwt>
</event>
<event>
 6    4  0.5642870E-004  0.1301193E+03  0.7818608E-02  0.1227279E+00
         -4   -1    0    0    0  501 -0.00000000000E+00  0.00000000000E+00  0.54501102756E+02  0.54515897696E+02  0.12700000000E+01 0.  1.
          4   -1    0    0  502    0  0.00000000000E+00 -0.00000000000E+00 -0.13644992645E+03  0.13645583655E+03  0.12700000000E+01 0.  1.
         25    2    1    2    0    0 -0.19671761324E+02 -0.30314976052E+02 -0.41154112893E+02  0.13647233612E+03  0.12500024620E+03 0.  0.
    9000005    1    3    3    0    0  0.18220504343E+02  0.40344335775E+02  0.39802955361E+01  0.44457788521E+02  0.10000000000E+01 0.  0.
    9000005    1    3    3    0    0 -0.37892265667E+02 -0.70659311828E+02 -0.45134408429E+02  0.92014547598E+02  0.10000000000E+01 0.  0.
         21    1    1    2  502  501  0.19671761324E+02  0.30314976052E+02 -0.40794710797E+02  0.54499398122E+02  0.00000000000E+00 0. -1.
<mgrwt>
<rscale>  1 0.13011932E+03</rscale>
<asrwt>0</asrwt>
<pdfrwt beam="2">  1        4 0.20993889E-01 0.13011932E+03</pdfrwt>
<pdfrwt beam="1">  1       -4 0.83863778E-02 0.13011932E+03</pdfrwt>
<totfact> 0.34176615E+03</totfact>
</mgrwt>
</event>
<event>
 6    4  0.5642870E-004  0.1310679E+03  0.7818608E-02  0.1225880E+00
          4   -1    0    0  502    0  0.00000000000E+00  0.00000000000E+00  0.93914194680E+02  0.93922781381E+02  0.12700000000E+01 0. -1.
         -4   -1    0    0    0  501 -0.00000000000E+00 -0.00000000000E+00 -0.19798550461E+03  0.19798957785E+03  0.12700000000E+01 0. -1.
         25    2    1    2    0    0 -0.22123748313E+01 -0.39356560234E+02 -0.17026555932E+03  0.21487008455E+03  0.12499983644E+03 0.  0.
    9000005    1    3    3    0    0  0.35438025499E+02  0.18378384194E+02 -0.12782890680E+03  0.13392105164E+03  0.10000000000E+01 0.  0.
    9000005    1    3    3    0    0 -0.37650400330E+02 -0.57734944428E+02 -0.42436652518E+02  0.80949032916E+02  0.10000000000E+01 0.  0.
         21    1    1    2  502  501  0.22123748313E+01  0.39356560234E+02  0.66194249387E+02  0.77042274679E+02  0.00000000000E+00 0. -1.
<mgrwt>
<rscale>  1 0.13106789E+03</rscale>
<asrwt>0</asrwt>
<pdfrwt beam="1">  1        4 0.14449312E-01 0.13106789E+03</pdfrwt>
<pdfrwt beam="2">  1       -4 0.30460282E-01 0.13106789E+03</pdfrwt>
<totfact> 0.68326909E+02</totfact>
</mgrwt>
</event>
<event>
 6    4  0.5642870E-004  0.1403936E+03  0.7818608E-02  0.1212800E+00
          4   -1    0    0  502    0  0.00000000000E+00  0.00000000000E+00  0.30526378454E+03  0.30526642635E+03  0.12700000000E+01 0.  1.
         -4   -1    0    0    0  501 -0.00000000000E+00 -0.00000000000E+00 -0.35146906905E+02  0.35169844541E+02  0.12700000000E+01 0.  1.
         25    2    1    2    0    0 -0.60214457055E+02  0.21664468005E+02  0.15817453763E+03  0.21149358014E+03  0.12496087416E+03 0.  0.
    9000005    1    3    3    0    0 -0.94330000410E+00 -0.20289138280E+02  0.13312818852E+03  0.13467239333E+03  0.10000000000E+01 0.  0.
    9000005    1    3    3    0    0 -0.59271157050E+02  0.41953606284E+02  0.25046349117E+02  0.76821186807E+02  0.10000000000E+01 0.  0.
         21    1    1    2  502  501  0.60214457055E+02 -0.21664468005E+02  0.11194234000E+03  0.12894269075E+03  0.00000000000E+00 0.  1.
<mgrwt>
<rscale>  1 0.14039355E+03</rscale>
<asrwt>0</asrwt>
<pdfrwt beam="1">  1        4 0.46965625E-01 0.14039355E+03</pdfrwt>
<pdfrwt beam="2">  1       -4 0.54091843E-02 0.14039355E+03</pdfrwt>
<totfact> 0.15378643E+03</totfact>
</mgrwt>
</event>
<event>
 6    4  0.5642870E-004  0.1382574E+03  0.7818608E-02  0.1215693E+00
          4   -1    0    0  502    0  0.00000000000E+00  0.00000000000E+00  0.42665207179E+02  0.42684104813E+02  0.12700000000E+01 0. -1.
         -4   -1    0    0    0  501 -0.00000000000E+00 -0.00000000000E+00 -0.25535417828E+03  0.25535733642E+03  0.12700000000E+01 0. -1.
         25    2    1    2    0    0  0.56141835347E+02  0.18389418897E+02 -0.99421021488E+02  0.17029284119E+03  0.12500014338E+03 0.  0.
    9000005    1    3    3    0    0  0.36194488293E+02 -0.44503224070E+01 -0.12524529478E+03  0.13045010624E+03  0.10000000000E+01 0.  0.
    9000005    1    3    3    0    0  0.19947347054E+02  0.22839741304E+02  0.25824273296E+02  0.39842734953E+02  0.10000000000E+01 0.  0.
         21    1    1    2  502  501 -0.56141835347E+02 -0.18389418897E+02 -0.11326794961E+03  0.12774860004E+03  0.00000000000E+00 0. -1.
<mgrwt>
<rscale>  1 0.13825741E+03</rscale>
<asrwt>0</asrwt>
<pdfrwt beam="1">  1        4 0.65655748E-02 0.13825741E+03</pdfrwt>
<pdfrwt beam="2">  1       -4 0.39286954E-01 0.13825741E+03</pdfrwt>
<totfact> 0.15960075E+03</totfact>
</mgrwt>
</event>
<event>
 6    4  0.5642870E-004  0.1415504E+03  0.7818608E-02  0.1211258E+00
          4   -1    0    0  502    0  0.00000000000E+00  0.00000000000E+00  0.96838077784E+02  0.96846405245E+02  0.12700000000E+01 0. -1.
         -4   -1    0    0    0  501 -0.00000000000E+00 -0.00000000000E+00 -0.11262720881E+03  0.11263436893E+03  0.12700000000E+01 0. -1.
         25    2    1    2    0    0  0.95984242998E+01  0.65724206134E+02 -0.19849422177E+02  0.14293539879E+03  0.12499891058E+03 0.  0.
    9000005    1    3    3    0    0  0.27278147419E+02  0.11085563064E+02 -0.64023176155E+02  0.70476621088E+02  0.10000000000E+01 0.  0.
    9000005    1    3    3    0    0 -0.17679723119E+02  0.54638643070E+02  0.44173753978E+02  0.72458777706E+02  0.10000000000E+01 0.  0.
         21    1    1    2  502  501 -0.95984242998E+01 -0.65724206134E+02  0.40602911476E+01  0.66545375385E+02  0.00000000000E+00 0. -1.
<mgrwt>
<rscale>  1 0.14155045E+03</rscale>
<asrwt>0</asrwt>
<pdfrwt beam="1">  1        4 0.14899357E-01 0.14155045E+03</pdfrwt>
<pdfrwt beam="2">  1       -4 0.17328454E-01 0.14155045E+03</pdfrwt>
<totfact> 0.18472643E+03</totfact>
</mgrwt>
</event>
<event>
 6    4  0.5642870E-004  0.1614707E+03  0.7818608E-02  0.1187046E+00
          4   -1    0    0  502    0  0.00000000000E+00  0.00000000000E+00  0.99847286152E+02  0.99855362660E+02  0.12700000000E+01 0. -1.
         -4   -1    0    0    0  501 -0.00000000000E+00 -0.00000000000E+00 -0.23278768675E+03  0.23279115104E+03  0.12700000000E+01 0. -1.
         25    2    1    2    0    0 -0.36529543324E+02  0.95463875021E+02 -0.15957660567E+03  0.22701864621E+03  0.12500005473E+03 0.  0.
    9000005    1    3    3    0    0  0.24188968536E+02 -0.14714542969E+02 -0.60774387635E+02  0.67053338217E+02  0.10000000000E+01 0.  0.
    9000005    1    3    3    0    0 -0.60718511861E+02  0.11017841799E+03 -0.98802218030E+02  0.15996530799E+03  0.10000000000E+01 0.  0.
         21    1    1    2  502  501  0.36529543324E+02 -0.95463875021E+02  0.26636205070E+02  0.10562786749E+03  0.00000000000E+00 0. -1.
<mgrwt>
<rscale>  1 0.16147066E+03</rscale>
<asrwt>0</asrwt>
<pdfrwt beam="1">  1        4 0.15362009E-01 0.16147066E+03</pdfrwt>
<pdfrwt beam="2">  1       -4 0.35814378E-01 0.16147066E+03</pdfrwt>
<totfact> 0.46845152E+02</totfact>
</mgrwt>
</event>
<event>
 6    4  0.5642870E-004  0.1286888E+03  0.7818608E-02  0.1229414E+00
          4   -1    0    0  502    0  0.00000000000E+00  0.00000000000E+00  0.62900043544E+03  0.62900171756E+03  0.12700000000E+01 0.  1.
         -4   -1    0    0    0  501 -0.00000000000E+00 -0.00000000000E+00 -0.10195934150E+02  0.10274724969E+02  0.12700000000E+01 0.  1.
         25    2    1    2    0    0  0.50079254656E+01 -0.30178131708E+02  0.46616329179E+03  0.48360005450E+03  0.12499999658E+03 0.  0.
    9000005    1    3    3    0    0 -0.10018207704E+02 -0.73064708851E+02  0.36942161670E+03  0.37671228683E+03  0.10000000000E+01 0.  0.
    9000005    1    3    3    0    0  0.15026133170E+02  0.42886577143E+02  0.96741675099E+02  0.10688776767E+03  0.10000000000E+01 0.  0.
         21    1    1    2  502  501 -0.50079254656E+01  0.30178131708E+02  0.15264120950E+03  0.15567638803E+03  0.00000000000E+00 0.  1.
<mgrwt>
<rscale>  1 0.12868876E+03</rscale>
<asrwt>0</asrwt>
<pdfrwt beam="1">  1        4 0.96775505E-01 0.12868876E+03</pdfrwt>
<pdfrwt beam="2">  1       -4 0.15747639E-02 0.12868876E+03</pdfrwt>
<totfact> 0.22084907E+03</totfact>
</mgrwt>
</event>
<event>
 6    4  0.5642870E-004  0.1296687E+03  0.7818608E-02  0.1227948E+00
         -4   -1    0    0    0  501 -0.00000000000E+00  0.00000000000E+00  0.71967159661E+03  0.71967271719E+03  0.12700000000E+01 0. -1.
          4   -1    0    0  502    0  0.00000000000E+00 -0.00000000000E+00 -0.23904359941E+02  0.23938072692E+02  0.12700000000E+01 0. -1.
         25    2    1    2    0    0  0.14523689577E+02 -0.31280107903E+02  0.69713934247E+03  0.70909607731E+03  0.12499840527E+03 0.  0.
    9000005    1    3    3    0    0 -0.35450970077E+00  0.38723286467E+02  0.45376072172E+03  0.45541125498E+03  0.10000000000E+01 0.  0.
    9000005    1    3    3    0    0  0.14878199278E+02 -0.70003394369E+02  0.24337862076E+03  0.25368482233E+03  0.10000000000E+01 0.  0.
         21    1    1    2  502  501 -0.14523689577E+02  0.31280107903E+02 -0.13721058097E+01  0.34514712568E+02  0.00000000000E+00 0. -1.
<mgrwt>
<rscale>  1 0.12966875E+03</rscale>
<asrwt>0</asrwt>
<pdfrwt beam="2">  1        4 0.36802734E-02 0.12966875E+03</pdfrwt>
<pdfrwt beam="1">  1       -4 0.11072138E+00 0.12966875E+03</pdfrwt>
<totfact> 0.43343353E+02</totfact>
</mgrwt>
</event>
<event>
 6    4  0.5642870E-004  0.1351100E+03  0.7818608E-02  0.1220064E+00
          4   -1    0    0  502    0  0.00000000000E+00  0.00000000000E+00  0.13099915021E+02  0.13161332515E+02  0.12700000000E+01 0. -1.
         -4   -1    0    0    0  501 -0.00000000000E+00 -0.00000000000E+00 -0.67298385569E+03  0.67298505401E+03  0.12700000000E+01 0. -1.
         25    2    1    2    0    0 -0.51285699458E+02  0.58118023422E+00 -0.51596060420E+03  0.53335735707E+03  0.12499665804E+03 0.  0.
    9000005    1    3    3    0    0 -0.28900012303E+02 -0.59579495993E+02 -0.33133043162E+03  0.33788427304E+03  0.10000000000E+01 0.  0.
    9000005    1    3    3    0    0 -0.22385687155E+02  0.60160676227E+02 -0.18463017258E+03  0.19547308403E+03  0.10000000000E+01 0.  0.
         21    1    1    2  502  501  0.51285699458E+02 -0.58118023422E+00 -0.14392333648E+03  0.15278902945E+03  0.00000000000E+00 0. -1.
<mgrwt>
<rscale>  1 0.13511005E+03</rscale>
<asrwt>0</asrwt>
<pdfrwt beam="1">  1        4 0.20201887E-02 0.13511005E+03</pdfrwt>
<pdfrwt beam="2">  1       -4 0.10354077E+00 0.13511005E+03</pdfrwt>
<totfact> 0.13034113E+03</totfact>
</mgrwt>
</event>
<event>
 6    4  0.5642870E-004  0.1494593E+03  0.7818608E-02  0.1201139E+00
         -4   -1    0    0    0  501 -0.00000000000E+00  0.00000000000E+00  0.17342622460E+03  0.17343087465E+03  0.12700000000E+01 0.  1.
          4   -1    0    0  502    0  0.00000000000E+00 -0.00000000000E+00 -0.78306751958E+02  0.78317049882E+02  0.12700000000E+01 0.  1.
         25    2    1    2    0    0 -0.26987002740E+02 -0.77357972559E+02  0.75749627703E+02  0.16755917749E+03  0.12500207049E+03 0.  0.
    9000005    1    3    3    0    0 -0.39359498586E+02 -0.10776167174E+03  0.47252751224E+02  0.12407888831E+03  0.10000000000E+01 0.  0.
    9000005    1    3    3    0    0  0.12372495846E+02  0.30403699186E+02  0.28496876479E+02  0.43480289175E+02  0.10000000000E+01 0.  0.
         21    1    1    2  502  501  0.26987002740E+02  0.77357972559E+02  0.19369844942E+02  0.84188747041E+02  0.00000000000E+00 0.  1.
<mgrwt>
<rscale>  1 0.14945926E+03</rscale>
<asrwt>0</asrwt>
<pdfrwt beam="2">  1        4 0.12048342E-01 0.14945926E+03</pdfrwt>
<pdfrwt beam="1">  1       -4 0.26682108E-01 0.14945926E+03</pdfrwt>
<totfact> 0.12316868E+03</totfact>
</mgrwt>
</event>
<event>
 6    4  0.5642870E-004  0.1312487E+03  0.7818608E-02  0.1225615E+00
          4   -1    0    0  502    0  0.00000000000E+00  0.00000000000E+00  0.12408863342E+03  0.12409513223E+03  0.12700000000E+01 0.  1.
         -4   -1    0    0    0  501 -0.00000000000E+00 -0.00000000000E+00 -0.82384618680E+02  0.82394406941E+02  0.12700000000E+01 0.  1.
         25    2    1    2    0    0  0.28397425399E+02  0.28182926940E+02 -0.20187907820E+02  0.13279217682E+03  0.12500207783E+03 0.  0.
    9000005    1    3    3    0    0  0.74176960790E+02  0.35712193450E+02 -0.37189852494E+00  0.82332985987E+02  0.10000000000E+01 0.  0.
    9000005    1    3    3    0    0 -0.45779535391E+02 -0.75292665102E+01 -0.19816009295E+02  0.50459190830E+02  0.10000000000E+01 0.  0.
         21    1    1    2  502  501 -0.28397425399E+02 -0.28182926940E+02  0.61891922556E+02  0.73697362354E+02  0.00000000000E+00 0.  1.
<mgrwt>
<rscale>  1 0.13124866E+03</rscale>
<asrwt>0</asrwt>
<pdfrwt beam="1">  1        4 0.19091812E-01 0.13124866E+03</pdfrwt>
<pdfrwt beam="2">  1       -4 0.12675810E-01 0.13124866E+03</pdfrwt>
<totfact> 0.20226461E+03</totfact>
</mgrwt>
</event>
<event>
 6    4  0.5642870E-004  0.1354006E+03  0.7818608E-02  0.1219655E+00
         -4   -1    0    0    0  501 -0.00000000000E+00  0.00000000000E+00  0.22239376072E+03  0.22239738691E+03  0.12700000000E+01 0. -1.
          4   -1    0    0  502    0  0.00000000000E+00 -0.00000000000E+00 -0.66906981709E+02  0.66919033924E+02  0.12700000000E+01 0. -1.
         25    2    1    2    0    0 -0.50939789805E+02 -0.10129818882E+02  0.18524826489E+03  0.22945640532E+03  0.12504337999E+03 0.  0.
    9000005    1    3    3    0    0 -0.14500936083E+02  0.24481802777E+02  0.17607165646E+03  0.17835880697E+03  0.10000000000E+01 0.  0.
    9000005    1    3    3    0    0 -0.36438853721E+02 -0.34611621659E+02  0.91766084319E+01  0.51097598346E+02  0.10000000000E+01 0.  0.
         21    1    1    2  502  501  0.50939789805E+02  0.10129818882E+02 -0.29761485887E+02  0.59860015521E+02  0.00000000000E+00 0. -1.
<mgrwt>
<rscale>  1 0.13540060E+03</rscale>
<asrwt>0</asrwt>
<pdfrwt beam="2">  1        4 0.10294588E-01 0.13540060E+03</pdfrwt>
<pdfrwt beam="1">  1       -4 0.34215631E-01 0.13540060E+03</pdfrwt>
<totfact> 0.98478968E+02</totfact>
</mgrwt>
</event>
<event>
 6    4  0.5642870E-004  0.1281235E+03  0.7818608E-02  0.1230267E+00
         -4   -1    0    0    0  501 -0.00000000000E+00  0.00000000000E+00  0.11805865091E+03  0.11806548164E+03  0.12700000000E+01 0. -1.
          4   -1    0    0  502    0  0.00000000000E+00 -0.00000000000E+00 -0.53022765449E+02  0.53037972773E+02  0.12700000000E+01 0. -1.
         25    2    1    2    0    0  0.19370854320E+02 -0.20374757078E+02  0.63376271440E+02  0.14294115618E+03  0.12500104650E+03 0.  0.
    9000005    1    3    3    0    0  0.83506362228E+01 -0.23440842318E+02 -0.35519959523E+02  0.43380568674E+02  0.10000000000E+01 0.  0.
    9000005    1    3    3    0    0  0.11020218098E+02  0.30660852400E+01  0.98896230963E+02  0.99560587505E+02  0.10000000000E+01 0.  0.
         21    1    1    2  502  501 -0.19370854320E+02  0.20374757078E+02  0.16596140215E+01  0.28162298234E+02  0.00000000000E+00 0. -1.
<mgrwt>
<rscale>  1 0.12812347E+03</rscale>
<asrwt>0</asrwt>
<pdfrwt beam="2">  1        4 0.81590439E-02 0.12812347E+03</pdfrwt>
<pdfrwt beam="1">  1       -4 0.18164564E-01 0.12812347E+03</pdfrwt>
<totfact> 0.46190760E+03</totfact>
</mgrwt>
</event>
<event>
 6    4  0.5642870E-004  0.1327955E+03  0.7818608E-02  0.1223366E+00
          4   -1    0    0  502    0  0.00000000000E+00  0.00000000000E+00  0.20675203385E+03  0.20675593438E+03  0.12700000000E+01 0.  1.
         -4   -1    0    0    0  501 -0.00000000000E+00 -0.00000000000E+00 -0.39545594760E+02  0.39565982420E+02  0.12700000000E+01 0.  1.
         25    2    1    2    0    0  0.11233778507E+02 -0.43374035142E+02  0.10314850097E+03  0.16814951668E+03  0.12500856772E+03 0.  0.
    9000005    1    3    3    0    0 -0.56625502947E+02 -0.20853818668E+02  0.57214308078E+02  0.83161327466E+02  0.10000000000E+01 0.  0.
    9000005    1    3    3    0    0  0.67859281454E+02 -0.22520216474E+02  0.45934192892E+02  0.84988189215E+02  0.10000000000E+01 0.  0.
         21    1    1    2  502  501 -0.11233778507E+02  0.43374035142E+02  0.64057938120E+02  0.78172400118E+02  0.00000000000E+00 0.  1.
<mgrwt>
<rscale>  1 0.13279551E+03</rscale>
<asrwt>0</asrwt>
<pdfrwt beam="1">  1        4 0.31809874E-01 0.13279551E+03</pdfrwt>
<pdfrwt beam="2">  1       -4 0.60858059E-02 0.13279551E+03</pdfrwt>
<totfact> 0.26923143E+03</totfact>
</mgrwt>
</event>
<event>
 6    4  0.5642870E-004  0.1265848E+03  0.7818608E-02  0.1232613E+00
         -4   -1    0    0    0  501 -0.00000000000E+00  0.00000000000E+00  0.29822986899E+02  0.29850015872E+02  0.12700000000E+01 0. -1.
          4   -1    0    0  502    0  0.00000000000E+00 -0.00000000000E+00 -0.18366364460E+03  0.18366803545E+03  0.12700000000E+01 0. -1.
         25    2    1    2    0    0  0.19701149911E+02  0.37269642559E+01 -0.12145622380E+03  0.17542898295E+03  0.12498675206E+03 0.  0.
    9000005    1    3    3    0    0  0.61857484491E+02  0.26429382106E+02 -0.33210130297E+02  0.75025151652E+02  0.10000000000E+01 0.  0.
    9000005    1    3    3    0    0 -0.42156334580E+02 -0.22702417850E+02 -0.88246093501E+02  0.10040383130E+03  0.10000000000E+01 0.  0.
         21    1    1    2  502  501 -0.19701149911E+02 -0.37269642559E+01 -0.32384433902E+02  0.38089068373E+02  0.00000000000E+00 0. -1.
<mgrwt>
<rscale>  1 0.12658481E+03</rscale>
<asrwt>0</asrwt>
<pdfrwt beam="2">  1        4 0.28258362E-01 0.12658481E+03</pdfrwt>
<pdfrwt beam="1">  1       -4 0.45905688E-02 0.12658481E+03</pdfrwt>
<totfact> 0.52410505E+03</totfact>
</mgrwt>
</event>
<event>
 6    4  0.5642870E-004  0.1267173E+03  0.7818608E-02  0.1232410E+00
         -4   -1    0    0    0  501 -0.00000000000E+00  0.00000000000E+00  0.97881214556E+01  0.98701682675E+01  0.12700000000E+01 0. -1.
          4   -1    0    0  502    0  0.00000000000E+00 -0.00000000000E+00 -0.61922822750E+03  0.61922952985E+03  0.12700000000E+01 0. -1.
         25    2    1    2    0    0 -0.32632057959E+01  0.20491873878E+02 -0.42479404630E+03  0.44329137541E+03  0.12500678515E+03 0.  0.
    9000005    1    3    3    0    0  0.43304424597E+02 -0.32746903087E+02 -0.14956787882E+03  0.15912002773E+03  0.10000000000E+01 0.  0.
    9000005    1    3    3    0    0 -0.46567630393E+02  0.53238776966E+02 -0.27522616748E+03  0.28417134767E+03  0.10000000000E+01 0.  0.
         21    1    1    2  502  501  0.32632057959E+01 -0.20491873878E+02 -0.18464605975E+03  0.18580832271E+03  0.00000000000E+00 0. -1.
<mgrwt>
<rscale>  1 0.12671725E+03</rscale>
<asrwt>0</asrwt>
<pdfrwt beam="2">  1        4 0.95272262E-01 0.12671725E+03</pdfrwt>
<pdfrwt beam="1">  1       -4 0.15122768E-02 0.12671725E+03</pdfrwt>
<totfact> 0.24259467E+03</totfact>
</mgrwt>
</event>
<event>
 6    4  0.5642870E-004  0.1267833E+03  0.7818608E-02  0.1232308E+00
         -4   -1    0    0    0  501 -0.00000000000E+00  0.00000000000E+00  0.71671017844E+02  0.71682269069E+02  0.12700000000E+01 0. -1.
          4   -1    0    0  502    0  0.00000000000E+00 -0.00000000000E+00 -0.94718578142E+02  0.94727091929E+02  0.12700000000E+01 0. -1.
         25    2    1    2    0    0  0.15561053515E+02  0.14394575864E+02  0.99679018716E+01  0.12717454300E+03  0.12499862047E+03 0.  0.
    9000005    1    3    3    0    0 -0.28345959732E+01  0.43811040433E+02 -0.44543724478E+02  0.62550664173E+02  0.10000000000E+01 0.  0.
    9000005    1    3    3    0    0  0.18395649488E+02 -0.29416464568E+02  0.54511626349E+02  0.64623878830E+02  0.10000000000E+01 0.  0.
         21    1    1    2  502  501 -0.15561053515E+02 -0.14394575864E+02 -0.33015462170E+02  0.39234817995E+02  0.00000000000E+00 0. -1.
<mgrwt>
<rscale>  1 0.12678330E+03</rscale>
<asrwt>0</asrwt>
<pdfrwt beam="2">  1        4 0.14573609E-01 0.12678330E+03</pdfrwt>
<pdfrwt beam="1">  1       -4 0.11027831E-01 0.12678330E+03</pdfrwt>
<totfact> 0.40951436E+03</totfact>
</mgrwt>
</event>
<event>
 6    4  0.5642870E-004  0.1333504E+03  0.7818608E-02  0.1222567E+00
         -4   -1    0    0    0  501 -0.00000000000E+00  0.00000000000E+00  0.14232856550E+02  0.14289405361E+02  0.12700000000E+01 0. -1.
          4   -1    0    0  502    0  0.00000000000E+00 -0.00000000000E+00 -0.59208391719E+03  0.59208527924E+03  0.12700000000E+01 0. -1.
         25    2    1    2    0    0 -0.22024965570E+02  0.40883068211E+02 -0.36714886310E+03  0.39061569771E+03  0.12500324496E+03 0.  0.
    9000005    1    3    3    0    0 -0.53965581825E+02  0.70012558796E+02 -0.21563835965E+03  0.23305566837E+03  0.10000000000E+01 0.  0.
    9000005    1    3    3    0    0  0.31940616256E+02 -0.29129490584E+02 -0.15151050345E+03  0.15756002934E+03  0.10000000000E+01 0.  0.
         21    1    1    2  502  501  0.22024965570E+02 -0.40883068211E+02 -0.21070219754E+03  0.21575898689E+03  0.00000000000E+00 0. -1.
<mgrwt>
<rscale>  1 0.13335042E+03</rscale>
<asrwt>0</asrwt>
<pdfrwt beam="2">  1        4 0.91094269E-01 0.13335042E+03</pdfrwt>
<pdfrwt beam="1">  1       -4 0.21941254E-02 0.13335042E+03</pdfrwt>
<totfact> 0.15355837E+03</totfact>
</mgrwt>
</event>
<event>
 6    4  0.5642870E-004  0.1283854E+03  0.7818608E-02  0.1229871E+00
          4   -1    0    0  502    0  0.00000000000E+00  0.00000000000E+00  0.38013430246E+02  0.38034639199E+02  0.12700000000E+01 0. -1.
         -4   -1    0    0    0  501 -0.00000000000E+00 -0.00000000000E+00 -0.29812587954E+03  0.29812858459E+03  0.12700000000E+01 0. -1.
         25    2    1    2    0    0  0.22452709283E+02 -0.18829642353E+02 -0.27485435067E+03  0.30336073545E+03  0.12499656852E+03 0.  0.
    9000005    1    3    3    0    0 -0.15504828837E+02  0.48056510819E+02 -0.91187342077E+02  0.10423991224E+03  0.10000000000E+01 0.  0.
    9000005    1    3    3    0    0  0.37957538120E+02 -0.66886153172E+02 -0.18366700860E+03  0.19912082320E+03  0.10000000000E+01 0.  0.
         21    1    1    2  502  501 -0.22452709283E+02  0.18829642353E+02  0.14741901381E+02  0.32802488345E+02  0.00000000000E+00 0.  1.
<mgrwt>
<rscale>  1 0.12838544E+03</rscale>
<asrwt>0</asrwt>
<pdfrwt beam="1">  1        4 0.58500598E-02 0.12838544E+03</pdfrwt>
<pdfrwt beam="2">  1       -4 0.45867358E-01 0.12838544E+03</pdfrwt>
<totfact> 0.13933910E+03</totfact>
</mgrwt>
</event>
<event>
 6    4  0.5642870E-004  0.1297304E+03  0.7818608E-02  0.1227856E+00
          4   -1    0    0  502    0  0.00000000000E+00  0.00000000000E+00  0.48538561231E+03  0.48538727377E+03  0.12700000000E+01 0. -1.
         -4   -1    0    0    0  501 -0.00000000000E+00 -0.00000000000E+00 -0.13898337884E+02  0.13956242185E+02  0.12700000000E+01 0. -1.
         25    2    1    2    0    0  0.15803291022E+02 -0.30902482174E+02  0.36965673109E+03  0.39176021349E+03  0.12500103451E+03 0.  0.
    9000005    1    3    3    0    0  0.87502674441E+01 -0.77895862475E+02  0.18174885535E+03  0.19793427948E+03  0.10000000000E+01 0.  0.
    9000005    1    3    3    0    0  0.70530235780E+01  0.46993380301E+02  0.18790787574E+03  0.19382593402E+03  0.10000000000E+01 0.  0.
         21    1    1    2  502  501 -0.15803291022E+02  0.30902482174E+02  0.10183054334E+03  0.10758330246E+03  0.00000000000E+00 0. -1.
<mgrwt>
<rscale>  1 0.12973036E+03</rscale>
<asrwt>0</asrwt>
<pdfrwt beam="1">  1        4 0.74679304E-01 0.12973036E+03</pdfrwt>
<pdfrwt beam="2">  1       -4 0.21427875E-02 0.12973036E+03</pdfrwt>
<totfact> 0.24612305E+03</totfact>
</mgrwt>
</event>
<event>
 6    4  0.5642870E-004  0.1275228E+03  0.7818608E-02  0.1231178E+00
          4   -1    0    0  502    0  0.00000000000E+00  0.00000000000E+00  0.52386533946E+02  0.52401925908E+02  0.12700000000E+01 0.  1.
         -4   -1    0    0    0  501 -0.00000000000E+00 -0.00000000000E+00 -0.15461049250E+03  0.15461570842E+03  0.12700000000E+01 0.  1.
         25    2    1    2    0    0  0.25948808329E+01 -0.25107727507E+02 -0.12081755746E+03  0.17566714299E+03  0.12499972620E+03 0.  0.
    9000005    1    3    3    0    0 -0.40388095931E+02  0.15844731167E+02 -0.10589712497E+03  0.11444411245E+03  0.10000000000E+01 0.  0.
    9000005    1    3    3    0    0  0.42982976763E+02 -0.40952458674E+02 -0.14920432489E+02  0.61223030540E+02  0.10000000000E+01 0.  0.
         21    1    1    2  502  501 -0.25948808329E+01  0.25107727507E+02  0.18593598901E+02  0.31350491339E+02  0.00000000000E+00 0.  1.
<mgrwt>
<rscale>  1 0.12752279E+03</rscale>
<asrwt>0</asrwt>
<pdfrwt beam="1">  1        4 0.80610520E-02 0.12752279E+03</pdfrwt>
<pdfrwt beam="2">  1       -4 0.23787815E-01 0.12752279E+03</pdfrwt>
<totfact> 0.28930425E+03</totfact>
</mgrwt>
</event>
<event>
 6    4  0.5642870E-004  0.1269225E+03  0.7818608E-02  0.1232095E+00
          4   -1    0    0  502    0  0.00000000000E+00  0.00000000000E+00  0.25159004898E+02  0.25191038634E+02  0.12700000000E+01 0.  1.
         -4   -1    0    0    0  501 -0.00000000000E+00 -0.00000000000E+00 -0.22088963398E+03  0.22089328487E+03  0.12700000000E+01 0.  1.
         25    2    1    2    0    0  0.81270485306E+01  0.20438231552E+02 -0.16167445062E+03  0.20554306652E+03  0.12500221591E+03 0.  0.
    9000005    1    3    3    0    0  0.18876074483E+02  0.22656565674E+02  0.11756520900E+02  0.31762272269E+02  0.10000000000E+01 0.  0.
    9000005    1    3    3    0    0 -0.10749025952E+02 -0.22183341222E+01 -0.17343097152E+03  0.17378079425E+03  0.10000000000E+01 0.  0.
         21    1    1    2  502  501 -0.81270485306E+01 -0.20438231552E+02 -0.34056178459E+02  0.40541256986E+02  0.00000000000E+00 0.  1.
<mgrwt>
<rscale>  1 0.12692251E+03</rscale>
<asrwt>0</asrwt>
<pdfrwt beam="1">  1        4 0.38733613E-02 0.12692251E+03</pdfrwt>
<pdfrwt beam="2">  1       -4 0.33985764E-01 0.12692251E+03</pdfrwt>
<totfact> 0.48431321E+03</totfact>
</mgrwt>
</event>
<event>
 6    4  0.5642870E-004  0.1282619E+03  0.7818608E-02  0.1230058E+00
          4   -1    0    0  502    0  0.00000000000E+00  0.00000000000E+00  0.66943678793E+02  0.66955724403E+02  0.12700000000E+01 0.  1.
         -4   -1    0    0    0  501 -0.00000000000E+00 -0.00000000000E+00 -0.93213603446E+02  0.93222254679E+02  0.12700000000E+01 0.  1.
         25    2    1    2    0    0  0.76421434103E+01 -0.27711012544E+02 -0.28348801163E+02  0.13135742566E+03  0.12499926470E+03 0.  0.
    9000005    1    3    3    0    0 -0.16113324155E+02  0.21395644822E+02 -0.61798007126E+02  0.67360274031E+02  0.10000000000E+01 0.  0.
    9000005    1    3    3    0    0  0.23755467565E+02 -0.49106657366E+02  0.33449205963E+02  0.63997151628E+02  0.10000000000E+01 0.  0.
         21    1    1    2  502  501 -0.76421434103E+01  0.27711012544E+02  0.20788765103E+01  0.28820553424E+02  0.00000000000E+00 0.  1.
<mgrwt>
<rscale>  1 0.12826191E+03</rscale>
<asrwt>0</asrwt>
<pdfrwt beam="1">  1        4 0.10300620E-01 0.12826191E+03</pdfrwt>
<pdfrwt beam="2">  1       -4 0.14342146E-01 0.12826191E+03</pdfrwt>
<totfact> 0.47393222E+03</totfact>
</mgrwt>
</event>
<event>
 6    4  0.5642870E-004  0.1279077E+03  0.7818608E-02  0.1230594E+00
         -4   -1    0    0    0  501 -0.00000000000E+00  0.00000000000E+00  0.25043728502E+03  0.25044050517E+03  0.12700000000E+01 0.  1.
          4   -1    0    0  502    0  0.00000000000E+00 -0.00000000000E+00 -0.23990100682E+02  0.24023693112E+02  0.12700000000E+01 0.  1.
         25    2    1    2    0    0  0.17409981137E+02 -0.20780511618E+02  0.18992347619E+03  0.22897883401E+03  0.12500177002E+03 0.  0.
    9000005    1    3    3    0    0  0.50973633123E+02 -0.56778454257E+02  0.93251914834E+02  0.12049491177E+03  0.10000000000E+01 0.  0.
    9000005    1    3    3    0    0 -0.33563651986E+02  0.35997942639E+02  0.96671561358E+02  0.10848392224E+03  0.10000000000E+01 0.  0.
         21    1    1    2  502  501 -0.17409981137E+02  0.20780511618E+02  0.36523708145E+02  0.45485364272E+02  0.00000000000E+00 0.  1.
<mgrwt>
<rscale>  1 0.12790770E+03</rscale>
<asrwt>0</asrwt>
<pdfrwt beam="2">  1        4 0.36936164E-02 0.12790770E+03</pdfrwt>
<pdfrwt beam="1">  1       -4 0.38531646E-01 0.12790770E+03</pdfrwt>
<totfact> 0.41022057E+03</totfact>
</mgrwt>
</event>
<event>
 6    4  0.5642870E-004  0.1317238E+03  0.7818608E-02  0.1224920E+00
          4   -1    0    0  502    0  0.00000000000E+00  0.00000000000E+00  0.15757010136E+03  0.15757521931E+03  0.12700000000E+01 0.  1.
         -4   -1    0    0    0  501 -0.00000000000E+00 -0.00000000000E+00 -0.64078675716E+02  0.64091259790E+02  0.12700000000E+01 0.  1.
         25    2    1    2    0    0 -0.39458777541E+02  0.12905010193E+02  0.14615627096E+02  0.13253216467E+03  0.12501049438E+03 0.  0.
    9000005    1    3    3    0    0 -0.47331850570E+02  0.39557736623E+02  0.55568336999E+02  0.83029866205E+02  0.10000000000E+01 0.  0.
    9000005    1    3    3    0    0  0.78730730295E+01 -0.26652726430E+02 -0.40952709903E+02  0.49502298467E+02  0.10000000000E+01 0.  0.
         21    1    1    2  502  501  0.39458777541E+02 -0.12905010193E+02  0.78875798547E+02  0.89134314433E+02  0.00000000000E+00 0.  1.
<mgrwt>
<rscale>  1 0.13172379E+03</rscale>
<asrwt>0</asrwt>
<pdfrwt beam="1">  1        4 0.24242915E-01 0.13172379E+03</pdfrwt>
<pdfrwt beam="2">  1       -4 0.98596196E-02 0.13172379E+03</pdfrwt>
<totfact> 0.20120518E+03</totfact>
</mgrwt>
</event>
<event>
 6    4  0.5642870E-004  0.1302204E+03  0.7818608E-02  0.1227129E+00
          4   -1    0    0  502    0  0.00000000000E+00  0.00000000000E+00  0.38199271408E+03  0.38199482524E+03  0.12700000000E+01 0.  1.
         -4   -1    0    0    0  501 -0.00000000000E+00 -0.00000000000E+00 -0.22103102976E+02  0.22139558739E+02  0.12700000000E+01 0.  1.
         25    2    1    2    0    0 -0.84313822162E-01  0.36501986992E+02  0.18983105746E+03  0.23020246100E+03  0.12499976204E+03 0.  0.
    9000005    1    3    3    0    0 -0.55925871437E+02 -0.96477055381E+01  0.97765624747E+02  0.11304821405E+03  0.10000000000E+01 0.  0.
    9000005    1    3    3    0    0  0.55841557614E+02  0.46149692531E+02  0.92065432708E+02  0.11715424694E+03  0.10000000000E+01 0.  0.
         21    1    1    2  502  501  0.84313822162E-01 -0.36501986992E+02  0.17005855365E+03  0.17393192299E+03  0.00000000000E+00 0. -1.
<mgrwt>
<rscale>  1 0.13022036E+03</rscale>
<asrwt>0</asrwt>
<pdfrwt beam="1">  1        4 0.58771073E-01 0.13022036E+03</pdfrwt>
<pdfrwt beam="2">  1       -4 0.34034443E-02 0.13022036E+03</pdfrwt>
<totfact> 0.19978158E+03</totfact>
</mgrwt>
</event>
<event>
 6    4  0.5642870E-004  0.1272101E+03  0.7818608E-02  0.1231655E+00
         -4   -1    0    0    0  501 -0.00000000000E+00  0.00000000000E+00  0.77837040474E+02  0.77847400533E+02  0.12700000000E+01 0.  1.
          4   -1    0    0  502    0  0.00000000000E+00 -0.00000000000E+00 -0.75278398387E+02  0.75289110525E+02  0.12700000000E+01 0.  1.
         25    2    1    2    0    0  0.23161237831E+02  0.45512436130E+01 -0.76049523343E+01  0.12743718407E+03  0.12500097530E+03 0.  0.
    9000005    1    3    3    0    0 -0.46717320067E+02  0.10210387155E+01 -0.28083462644E+02  0.54527345327E+02  0.10000000000E+01 0.  0.
    9000005    1    3    3    0    0  0.69878557898E+02  0.35302048974E+01  0.20478510310E+02  0.72909838739E+02  0.10000000000E+01 0.  0.
         21    1    1    2  502  501 -0.23161237831E+02 -0.45512436130E+01  0.10163594422E+02  0.25699326992E+02  0.00000000000E+00 0.  1.
<mgrwt>
<rscale>  1 0.12721006E+03</rscale>
<asrwt>0</asrwt>
<pdfrwt beam="2">  1        4 0.11582913E-01 0.12721006E+03</pdfrwt>
<pdfrwt beam="1">  1       -4 0.11976550E-01 0.12721006E+03</pdfrwt>
<totfact> 0.52875439E+03</totfact>
</mgrwt>
</event>
<event>
 6    4  0.5642870E-004  0.1277429E+03  0.7818608E-02  0.1230844E+00
         -4   -1    0    0    0  501 -0.00000000000E+00  0.00000000000E+00  0.17900328882E+03  0.17900779399E+03  0.12700000000E+01 0. -1.
          4   -1    0    0  502    0  0.00000000000E+00 -0.00000000000E+00 -0.86663724277E+02  0.86673029285E+02  0.12700000000E+01 0. -1.
         25    2    1    2    0    0  0.67675686467E+01 -0.25424140371E+02  0.15314461147E+03  0.19942796952E+03  0.12500422436E+03 0.  0.
    9000005    1    3    3    0    0  0.12085362604E+02 -0.68588463464E+02  0.13575161349E+03  0.15257763228E+03  0.10000000000E+01 0.  0.
    9000005    1    3    3    0    0 -0.53177939578E+01  0.43164323093E+02  0.17392997979E+02  0.46850337238E+02  0.10000000000E+01 0.  0.
         21    1    1    2  502  501 -0.67675686467E+01  0.25424140371E+02 -0.60805046921E+02  0.66252853750E+02  0.00000000000E+00 0. -1.
<mgrwt>
<rscale>  1 0.12774288E+03</rscale>
<asrwt>0</asrwt>
<pdfrwt beam="2">  1        4 0.13333943E-01 0.12774288E+03</pdfrwt>
<pdfrwt beam="1">  1       -4 0.27540029E-01 0.12774288E+03</pdfrwt>
<totfact> 0.94382022E+02</totfact>
</mgrwt>
</event>
<event>
 6    4  0.5642870E-004  0.1271496E+03  0.7818608E-02  0.1231747E+00
          4   -1    0    0  502    0  0.00000000000E+00  0.00000000000E+00  0.25681521999E+03  0.25681836017E+03  0.12700000000E+01 0.  1.
         -4   -1    0    0    0  501 -0.00000000000E+00 -0.00000000000E+00 -0.22066867540E+02  0.22103383068E+02  0.12700000000E+01 0.  1.
         25    2    1    2    0    0  0.22290254456E+02 -0.66285486573E+01  0.19263723799E+03  0.23081624394E+03  0.12500495953E+03 0.  0.
    9000005    1    3    3    0    0 -0.41126893438E-01  0.22548538078E+02  0.19274318786E+03  0.19406023479E+03  0.10000000000E+01 0.  0.
    9000005    1    3    3    0    0  0.22331381350E+02 -0.29177086735E+02 -0.10594987130E+00  0.36756009151E+02  0.10000000000E+01 0.  0.
         21    1    1    2  502  501 -0.22290254456E+02  0.66285486573E+01  0.42111114463E+02  0.48105499294E+02  0.00000000000E+00 0.  1.
<mgrwt>
<rscale>  1 0.12714965E+03</rscale>
<asrwt>0</asrwt>
<pdfrwt beam="1">  1        4 0.39513085E-01 0.12714965E+03</pdfrwt>
<pdfrwt beam="2">  1       -4 0.33979531E-02 0.12714965E+03</pdfrwt>
<totfact> 0.44475298E+03</totfact>
</mgrwt>
</event>
<event>
 6    4  0.5642870E-004  0.1924341E+03  0.7818608E-02  0.1156284E+00
          4   -1    0    0  502    0  0.00000000000E+00  0.00000000000E+00  0.41690140897E+03  0.41690334336E+03  0.12700000000E+01 0. -1.
         -4   -1    0    0    0  501 -0.00000000000E+00 -0.00000000000E+00 -0.96088541734E+02  0.96096934148E+02  0.12700000000E+01 0. -1.
         25    2    1    2    0    0  0.13084047143E+03  0.65485623945E+02  0.40280111451E+02  0.19660460279E+03  0.12499314603E+03 0.  0.
    9000005    1    3    3    0    0 -0.18181566675E+02 -0.14436313405E+02  0.28886530457E+01  0.23416251363E+02  0.10000000000E+01 0.  0.
    9000005    1    3    3    0    0  0.14902203810E+03  0.79921937350E+02  0.37391458405E+02  0.17318835143E+03  0.10000000000E+01 0.  0.
         21    1    1    2  502  501 -0.13084047143E+03 -0.65485623945E+02  0.28053275579E+03  0.31639567471E+03  0.00000000000E+00 0. -1.
<mgrwt>
<rscale>  1 0.19243410E+03</rscale>
<asrwt>0</asrwt>
<pdfrwt beam="1">  1        4 0.64139471E-01 0.19243410E+03</pdfrwt>
<pdfrwt beam="2">  1       -4 0.14783647E-01 0.19243410E+03</pdfrwt>
<totfact> 0.15738600E+02</totfact>
</mgrwt>
</event>
<event>
 6    4  0.5642870E-004  0.1276718E+03  0.7818608E-02  0.1230952E+00
          4   -1    0    0  502    0  0.00000000000E+00  0.00000000000E+00  0.33254513123E+02  0.33278755131E+02  0.12700000000E+01 0.  1.
         -4   -1    0    0    0  501 -0.00000000000E+00 -0.00000000000E+00 -0.19890827868E+03  0.19891233302E+03  0.12700000000E+01 0.  1.
         25    2    1    2    0    0  0.96147580162E+01  0.24136536106E+02 -0.16151647525E+03  0.20588266520E+03  0.12500033643E+03 0.  0.
    9000005    1    3    3    0    0  0.13317375448E+02 -0.45720704328E+02 -0.10721680462E+03  0.11732083569E+03  0.10000000000E+01 0.  0.
    9000005    1    3    3    0    0 -0.37026174320E+01  0.69857240434E+02 -0.54299670630E+02  0.88561829517E+02  0.10000000000E+01 0.  0.
         21    1    1    2  502  501 -0.96147580162E+01 -0.24136536106E+02 -0.41372903059E+01  0.26308422947E+02  0.00000000000E+00 0.  1.
<mgrwt>
<rscale>  1 0.12767185E+03</rscale>
<asrwt>0</asrwt>
<pdfrwt beam="1">  1        4 0.51182557E-02 0.12767185E+03</pdfrwt>
<pdfrwt beam="2">  1       -4 0.30603450E-01 0.12767185E+03</pdfrwt>
<totfact> 0.37969457E+03</totfact>
</mgrwt>
</event>
<event>
 6    4  0.5642870E-004  0.1396145E+03  0.7818608E-02  0.1213849E+00
         -4   -1    0    0    0  501 -0.00000000000E+00  0.00000000000E+00  0.47309704233E+02  0.47326747349E+02  0.12700000000E+01 0.  1.
          4   -1    0    0  502    0  0.00000000000E+00 -0.00000000000E+00 -0.22018013436E+03  0.22018379701E+03  0.12700000000E+01 0.  1.
         25    2    1    2    0    0 -0.64800682428E+00  0.62192227137E+02 -0.13752702729E+03  0.19597419589E+03  0.12499563668E+03 0.  0.
    9000005    1    3    3    0    0  0.16130098393E+02  0.75132194474E+02 -0.15198064779E+03  0.17030603049E+03  0.10000000000E+01 0.  0.
    9000005    1    3    3    0    0 -0.16778105217E+02 -0.12939967337E+02  0.14453620494E+02  0.25668165395E+02  0.10000000000E+01 0.  0.
         21    1    1    2  502  501  0.64800682428E+00 -0.62192227137E+02 -0.35343402836E+02  0.71536348475E+02  0.00000000000E+00 0.  1.
<mgrwt>
<rscale>  1 0.13961448E+03</rscale>
<asrwt>0</asrwt>
<pdfrwt beam="2">  1        4 0.33875459E-01 0.13961448E+03</pdfrwt>
<pdfrwt beam="1">  1       -4 0.72800089E-02 0.13961448E+03</pdfrwt>
<totfact> 0.18003516E+03</totfact>
</mgrwt>
</event>
<event>
 6    4  0.5642870E-004  0.1282060E+03  0.7818608E-02  0.1230142E+00
          4   -1    0    0  502    0  0.00000000000E+00  0.00000000000E+00  0.90985928864E+02  0.90994791891E+02  0.12700000000E+01 0.  1.
         -4   -1    0    0    0  501 -0.00000000000E+00 -0.00000000000E+00 -0.10091808578E+03  0.10092607660E+03  0.12700000000E+01 0.  1.
         25    2    1    2    0    0 -0.14681831282E+02 -0.24415932670E+02 -0.54269400163E+02  0.13921901769E+03  0.12500029262E+03 0.  0.
    9000005    1    3    3    0    0  0.46007615475E+02 -0.31739889345E+01  0.11180309595E+02  0.47463398636E+02  0.10000000000E+01 0.  0.
    9000005    1    3    3    0    0 -0.60689446757E+02 -0.21241943736E+02 -0.65449709758E+02  0.91755619058E+02  0.10000000000E+01 0.  0.
         21    1    1    2  502  501  0.14681831282E+02  0.24415932670E+02  0.44337243249E+02  0.52701850792E+02  0.00000000000E+00 0.  1.
<mgrwt>
<rscale>  1 0.12820596E+03</rscale>
<asrwt>0</asrwt>
<pdfrwt beam="1">  1        4 0.13999132E-01 0.12820596E+03</pdfrwt>
<pdfrwt beam="2">  1       -4 0.15527156E-01 0.12820596E+03</pdfrwt>
<totfact> 0.24427402E+03</totfact>
</mgrwt>
</event>
<event>
 6    4  0.5642870E-004  0.1377491E+03  0.7818608E-02  0.1216390E+00
         -4   -1    0    0    0  501 -0.00000000000E+00  0.00000000000E+00  0.15503038787E+02  0.15554970640E+02  0.12700000000E+01 0.  1.
          4   -1    0    0  502    0  0.00000000000E+00 -0.00000000000E+00 -0.88602466962E+03  0.88602557981E+03  0.12700000000E+01 0.  1.
         25    2    1    2    0    0 -0.57804704277E+02  0.25117215545E+01 -0.32483485007E+03  0.35283493062E+03  0.12500846317E+03 0.  0.
    9000005    1    3    3    0    0 -0.72784734935E+01  0.18030392138E+02  0.39168586234E+01  0.19859833799E+02  0.10000000000E+01 0.  0.
    9000005    1    3    3    0    0 -0.50526230784E+02 -0.15518670584E+02 -0.32875170870E+03  0.33297509683E+03  0.10000000000E+01 0.  0.
         21    1    1    2  502  501  0.57804704277E+02 -0.25117215545E+01 -0.54568678076E+03  0.54874561983E+03  0.00000000000E+00 0.  1.
<mgrwt>
<rscale>  1 0.13774908E+03</rscale>
<asrwt>0</asrwt>
<pdfrwt beam="2">  1        4 0.13631551E+00 0.13774908E+03</pdfrwt>
<pdfrwt beam="1">  1       -4 0.23891483E-02 0.13774908E+03</pdfrwt>
<totfact> 0.52188285E+02</totfact>
</mgrwt>
</event>
<event>
 6    4  0.5642870E-004  0.1319518E+03  0.7818608E-02  0.1224588E+00
          4   -1    0    0  502    0  0.00000000000E+00  0.00000000000E+00  0.65805269580E+02  0.65817523536E+02  0.12700000000E+01 0.  1.
         -4   -1    0    0    0  501 -0.00000000000E+00 -0.00000000000E+00 -0.11578193689E+03  0.11578890193E+03  0.12700000000E+01 0.  1.
         25    2    1    2    0    0 -0.33592466664E+02  0.25664235970E+02 -0.32736836987E+02  0.13595208751E+03  0.12499665107E+03 0.  0.
    9000005    1    3    3    0    0  0.44928479640E+01  0.35977964761E+02  0.39505281772E+02  0.53630839254E+02  0.10000000000E+01 0.  0.
    9000005    1    3    3    0    0 -0.38085314628E+02 -0.10313728790E+02 -0.72242118759E+02  0.82321248258E+02  0.10000000000E+01 0.  0.
         21    1    1    2  502  501  0.33592466664E+02 -0.25664235970E+02 -0.17239830324E+02  0.45654337955E+02  0.00000000000E+00 0.  1.
<mgrwt>
<rscale>  1 0.13195177E+03</rscale>
<asrwt>0</asrwt>
<pdfrwt beam="1">  1        4 0.10125366E-01 0.13195177E+03</pdfrwt>
<pdfrwt beam="2">  1       -4 0.17814084E-01 0.13195177E+03</pdfrwt>
<totfact> 0.33577220E+03</totfact>
</mgrwt>
</event>
<event>
 6    4  0.5642870E-004  0.1300936E+03  0.7818608E-02  0.1227317E+00
         -4   -1    0    0    0  501 -0.00000000000E+00  0.00000000000E+00  0.17970942114E+02  0.18015761446E+02  0.12700000000E+01 0.  1.
          4   -1    0    0  502    0  0.00000000000E+00 -0.00000000000E+00 -0.38778546533E+03  0.38778754495E+03  0.12700000000E+01 0.  1.
         25    2    1    2    0    0 -0.26890626791E+02  0.23989024159E+02 -0.27061531555E+03  0.30026155214E+03  0.12500308635E+03 0.  0.
    9000005    1    3    3    0    0 -0.83860572799E+01 -0.13711485195E+02 -0.25490182340E+03  0.25541000441E+03  0.10000000000E+01 0.  0.
    9000005    1    3    3    0    0 -0.18504569511E+02  0.37700509354E+02 -0.15713492151E+02  0.44851547732E+02  0.10000000000E+01 0.  0.
         21    1    1    2  502  501  0.26890626791E+02 -0.23989024159E+02 -0.99199207663E+02  0.10554175425E+03  0.00000000000E+00 0.  1.
<mgrwt>
<rscale>  1 0.13009362E+03</rscale>
<asrwt>0</asrwt>
<pdfrwt beam="2">  1        4 0.59662904E-01 0.13009362E+03</pdfrwt>
<pdfrwt beam="1">  1       -4 0.27683682E-02 0.13009362E+03</pdfrwt>
<totfact> 0.26748555E+03</totfact>
</mgrwt>
</event>
<event>
 6    4  0.5642870E-004  0.1285301E+03  0.7818608E-02  0.1229653E+00
         -4   -1    0    0    0  501 -0.00000000000E+00  0.00000000000E+00  0.63751287202E+02  0.63763935888E+02  0.12700000000E+01 0. -1.
          4   -1    0    0  502    0  0.00000000000E+00 -0.00000000000E+00 -0.10153134186E+03  0.10153928442E+03  0.12700000000E+01 0. -1.
         25    2    1    2    0    0  0.17293254829E+02 -0.24455498628E+02 -0.18938731800E+02  0.12991786284E+03  0.12499138949E+03 0.  0.
    9000005    1    3    3    0    0  0.19653724052E+02  0.31453095477E+02  0.35853254013E+02  0.51594785662E+02  0.10000000000E+01 0.  0.
    9000005    1    3    3    0    0 -0.23604692232E+01 -0.55908594105E+02 -0.54791985813E+02  0.78323077181E+02  0.10000000000E+01 0.  0.
         21    1    1    2  502  501 -0.17293254829E+02  0.24455498628E+02 -0.18841322858E+02  0.35385357463E+02  0.00000000000E+00 0. -1.
<mgrwt>
<rscale>  1 0.12853006E+03</rscale>
<asrwt>0</asrwt>
<pdfrwt beam="2">  1        4 0.15621790E-01 0.12853006E+03</pdfrwt>
<pdfrwt beam="1">  1       -4 0.98094743E-02 0.12853006E+03</pdfrwt>
<totfact> 0.44355512E+03</totfact>
</mgrwt>
</event>
<event>
 6    4  0.5642870E-004  0.1273508E+03  0.7818608E-02  0.1231440E+00
          4   -1    0    0  502    0  0.00000000000E+00  0.00000000000E+00  0.80028666237E+03  0.80028767007E+03  0.12700000000E+01 0.  1.
         -4   -1    0    0    0  501 -0.00000000000E+00 -0.00000000000E+00 -0.11758557511E+02  0.11826942747E+02  0.12700000000E+01 0.  1.
         25    2    1    2    0    0  0.83844490260E+01 -0.22876552806E+02  0.34231210912E+03  0.36523392348E+03  0.12499841260E+03 0.  0.
    9000005    1    3    3    0    0 -0.31509846236E+01  0.32398695845E+01 -0.10391207705E+02  0.11375528849E+02  0.10000000000E+01 0.  0.
    9000005    1    3    3    0    0  0.11535433650E+02 -0.26116422390E+02  0.35270331683E+03  0.35385839463E+03  0.10000000000E+01 0.  0.
         21    1    1    2  502  501 -0.83844490260E+01  0.22876552806E+02  0.44621599573E+03  0.44688068934E+03  0.00000000000E+00 0. -1.
<mgrwt>
<rscale>  1 0.12735085E+03</rscale>
<asrwt>0</asrwt>
<pdfrwt beam="1">  1        4 0.12312641E+00 0.12735085E+03</pdfrwt>
<pdfrwt beam="2">  1       -4 0.18143460E-02 0.12735085E+03</pdfrwt>
<totfact> 0.10071890E+03</totfact>
</mgrwt>
</event>
<event>
 6    4  0.5642870E-004  0.1272389E+03  0.7818608E-02  0.1231611E+00
         -4   -1    0    0    0  501 -0.00000000000E+00  0.00000000000E+00  0.38298868613E+02  0.38319919585E+02  0.12700000000E+01 0. -1.
          4   -1    0    0  502    0  0.00000000000E+00 -0.00000000000E+00 -0.16232834513E+03  0.16233331307E+03  0.12700000000E+01 0. -1.
         25    2    1    2    0    0  0.35305550328E+01 -0.23496206413E+02 -0.12284564941E+03  0.17686378160E+03  0.12500082851E+03 0.  0.
    9000005    1    3    3    0    0  0.24566592434E+02  0.10155589266E+01  0.19185178156E+02  0.31202882633E+02  0.10000000000E+01 0.  0.
    9000005    1    3    3    0    0 -0.21036037401E+02 -0.24511765340E+02 -0.14203082757E+03  0.14566089897E+03  0.10000000000E+01 0.  0.
         21    1    1    2  502  501 -0.35305550328E+01  0.23496206413E+02 -0.11838271033E+01  0.23789451050E+02  0.00000000000E+00 0. -1.
<mgrwt>
<rscale>  1 0.12723892E+03</rscale>
<asrwt>0</asrwt>
<pdfrwt beam="2">  1        4 0.24975593E-01 0.12723892E+03</pdfrwt>
<pdfrwt beam="1">  1       -4 0.58941352E-02 0.12723892E+03</pdfrwt>
<totfact> 0.44149696E+03</totfact>
</mgrwt>
</event>
<event>
 6    4  0.5642870E-004  0.1358851E+03  0.7818608E-02  0.1218976E+00
          4   -1    0    0  502    0  0.00000000000E+00  0.00000000000E+00  0.36508526732E+02  0.36530609413E+02  0.12700000000E+01 0. -1.
         -4   -1    0    0    0  501 -0.00000000000E+00 -0.00000000000E+00 -0.32517905064E+03  0.32518153065E+03  0.12700000000E+01 0. -1.
         25    2    1    2    0    0  0.53275920700E+02  0.12504134517E+01 -0.27493127017E+03  0.30667892869E+03  0.12499949890E+03 0.  0.
    9000005    1    3    3    0    0  0.78290678369E+02  0.40475528529E+02 -0.15973150005E+03  0.18243588144E+03  0.10000000000E+01 0.  0.
    9000005    1    3    3    0    0 -0.25014757669E+02 -0.39225115077E+02 -0.11519977013E+03  0.12424304726E+03  0.10000000000E+01 0.  0.
         21    1    1    2  502  501 -0.53275920700E+02 -0.12504134517E+01 -0.13739253735E+02  0.55033211367E+02  0.00000000000E+00 0. -1.
<mgrwt>
<rscale>  1 0.13588511E+03</rscale>
<asrwt>0</asrwt>
<pdfrwt beam="1">  1        4 0.56185861E-02 0.13588511E+03</pdfrwt>
<pdfrwt beam="2">  1       -4 0.50029434E-01 0.13588511E+03</pdfrwt>
<totfact> 0.12635135E+03</totfact>
</mgrwt>
</event>
<event>
 6    4  0.5642870E-004  0.1265966E+03  0.7818608E-02  0.1232595E+00
         -4   -1    0    0    0  501 -0.00000000000E+00  0.00000000000E+00  0.80825565296E+03  0.80825665073E+03  0.12700000000E+01 0. -1.
          4   -1    0    0  502    0  0.00000000000E+00 -0.00000000000E+00 -0.69407896275E+01  0.70560230054E+01  0.12700000000E+01 0. -1.
         25    2    1    2    0    0 -0.11226206997E+02 -0.16611879688E+02  0.74143876832E+03  0.75216895651E+03  0.12499883880E+03 0.  0.
    9000005    1    3    3    0    0  0.58703718602E+01  0.30198500476E+02  0.62180961802E+03  0.62257096925E+03  0.10000000000E+01 0.  0.
    9000005    1    3    3    0    0 -0.17096578857E+02 -0.46810380164E+02  0.11962915031E+03  0.12959798726E+03  0.10000000000E+01 0.  0.
         21    1    1    2  502  501  0.11226206997E+02  0.16611879688E+02  0.59876095015E+02  0.63143717221E+02  0.00000000000E+00 0.  1.
<mgrwt>
<rscale>  1 0.12659657E+03</rscale>
<asrwt>0</asrwt>
<pdfrwt beam="2">  1        4 0.10767551E-02 0.12659657E+03</pdfrwt>
<pdfrwt beam="1">  1       -4 0.12435592E+00 0.12659657E+03</pdfrwt>
<totfact> 0.21696575E+03</totfact>
</mgrwt>
</event>
<event>
 6    4  0.5642870E-004  0.1296690E+03  0.7818608E-02  0.1227948E+00
         -4   -1    0    0    0  501 -0.00000000000E+00  0.00000000000E+00  0.22555640196E+03  0.22555997731E+03  0.12700000000E+01 0. -1.
          4   -1    0    0  502    0  0.00000000000E+00 -0.00000000000E+00 -0.30001883120E+02  0.30028751068E+02  0.12700000000E+01 0. -1.
         25    2    1    2    0    0 -0.23202079112E+02  0.25501816988E+02  0.14669067772E+03  0.19578610207E+03  0.12500145474E+03 0.  0.
    9000005    1    3    3    0    0  0.21022126247E+02 -0.37319391901E+02  0.91966123752E+02  0.10145656569E+03  0.10000000000E+01 0.  0.
    9000005    1    3    3    0    0 -0.44224205360E+02  0.62821208890E+02  0.54724553969E+02  0.94329536377E+02  0.10000000000E+01 0.  0.
         21    1    1    2  502  501  0.23202079112E+02 -0.25501816988E+02  0.48863841117E+02  0.59802626309E+02  0.00000000000E+00 0. -1.
<mgrwt>
<rscale>  1 0.12966897E+03</rscale>
<asrwt>0</asrwt>
<pdfrwt beam="2">  1        4 0.46180164E-02 0.12966897E+03</pdfrwt>
<pdfrwt beam="1">  1       -4 0.34703325E-01 0.12966897E+03</pdfrwt>
<totfact> 0.35356951E+03</totfact>
</mgrwt>
</event>
<event>
 6    4  0.5642870E-004  0.1424805E+03  0.7818608E-02  0.1210030E+00
         -4   -1    0    0    0  501 -0.00000000000E+00  0.00000000000E+00  0.64219521939E+03  0.64219647516E+03  0.12700000000E+01 0. -1.
          4   -1    0    0  502    0  0.00000000000E+00 -0.00000000000E+00 -0.19129504628E+02  0.19171615668E+02  0.12700000000E+01 0. -1.
         25    2    1    2    0    0 -0.30087320915E+02  0.61404305011E+02  0.50717125345E+03  0.52680486511E+03  0.12499980008E+03 0.  0.
    9000005    1    3    3    0    0  0.21070353877E+02  0.10082022034E+02  0.11852338913E+02  0.26212304716E+02  0.10000000000E+01 0.  0.
    9000005    1    3    3    0    0 -0.51157674792E+02  0.51322282977E+02  0.49531891454E+03  0.50059256039E+03  0.10000000000E+01 0.  0.
         21    1    1    2  502  501  0.30087320915E+02 -0.61404305011E+02  0.11589446131E+03  0.13456322572E+03  0.00000000000E+00 0. -1.
<mgrwt>
<rscale>  1 0.14248047E+03</rscale>
<asrwt>0</asrwt>
<pdfrwt beam="2">  1        4 0.29463369E-02 0.14248047E+03</pdfrwt>
<pdfrwt beam="1">  1       -4 0.98802591E-01 0.14248047E+03</pdfrwt>
<totfact> 0.81738785E+02</totfact>
</mgrwt>
</event>
<event>
 6    4  0.5642870E-004  0.1300996E+03  0.7818608E-02  0.1227308E+00
         -4   -1    0    0    0  501 -0.00000000000E+00  0.00000000000E+00  0.32171833415E+02  0.32196890615E+02  0.12700000000E+01 0. -1.
          4   -1    0    0  502    0  0.00000000000E+00 -0.00000000000E+00 -0.51321768893E+03  0.51321926028E+03  0.12700000000E+01 0. -1.
         25    2    1    2    0    0  0.28659840266E+02 -0.21895494334E+02 -0.10375711928E+03  0.16640745759E+03  0.12500041210E+03 0.  0.
    9000005    1    3    3    0    0 -0.42986169491E+02  0.15556486975E+02 -0.19732267091E+02  0.49801379691E+02  0.10000000000E+01 0.  0.
    9000005    1    3    3    0    0  0.71646009757E+02 -0.37451981309E+02 -0.84024852189E+02  0.11660607790E+03  0.10000000000E+01 0.  0.
         21    1    1    2  502  501 -0.28659840266E+02  0.21895494334E+02 -0.37728873623E+03  0.37900869331E+03  0.00000000000E+00 0. -1.
<mgrwt>
<rscale>  1 0.13009959E+03</rscale>
<asrwt>0</asrwt>
<pdfrwt beam="2">  1        4 0.78958610E-01 0.13009959E+03</pdfrwt>
<pdfrwt beam="1">  1       -4 0.49515615E-02 0.13009959E+03</pdfrwt>
<totfact> 0.58414736E+02</totfact>
</mgrwt>
</event>
<event>
 6    4  0.5642870E-004  0.1519823E+03  0.7818608E-02  0.1198058E+00
          4   -1    0    0  502    0  0.00000000000E+00  0.00000000000E+00  0.12249288570E+04  0.12249295154E+04  0.12700000000E+01 0.  1.
         -4   -1    0    0    0  501 -0.00000000000E+00 -0.00000000000E+00 -0.12659645966E+02  0.12723188908E+02  0.12700000000E+01 0.  1.
         25    2    1    2    0    0 -0.57978423144E+02  0.64128772312E+02  0.58351760881E+03  0.60298541010E+03  0.12499843206E+03 0.  0.
    9000005    1    3    3    0    0 -0.56759504702E+02  0.37371980180E+02  0.56792359856E+03  0.57197597858E+03  0.10000000000E+01 0.  0.
    9000005    1    3    3    0    0 -0.12189184424E+01  0.26756792132E+02  0.15594010246E+02  0.31009431515E+02  0.10000000000E+01 0.  0.
         21    1    1    2  502  501  0.57978423144E+02 -0.64128772312E+02  0.62875160222E+03  0.63466729417E+03  0.00000000000E+00 0.  1.
<mgrwt>
<rscale>  1 0.15198225E+03</rscale>
<asrwt>0</asrwt>
<pdfrwt beam="1">  1        4 0.18845554E+00 0.15198225E+03</pdfrwt>
<pdfrwt beam="2">  1       -4 0.19525763E-02 0.15198225E+03</pdfrwt>
<totfact> 0.31063353E+02</totfact>
</mgrwt>
</event>
<event>
 6    4  0.5642870E-004  0.1304932E+03  0.7818608E-02  0.1226726E+00
         -4   -1    0    0    0  501 -0.00000000000E+00  0.00000000000E+00  0.26130034341E+03  0.26130342969E+03  0.12700000000E+01 0.  1.
          4   -1    0    0  502    0  0.00000000000E+00 -0.00000000000E+00 -0.80791855489E+02  0.80801836696E+02  0.12700000000E+01 0.  1.
         25    2    1    2    0    0 -0.15247303857E+02  0.34218324919E+02  0.23919862817E+03  0.27247835638E+03  0.12500038777E+03 0.  0.
    9000005    1    3    3    0    0  0.18682809376E+02 -0.23844423121E+02  0.75099990619E+01  0.31225053500E+02  0.10000000000E+01 0.  0.
    9000005    1    3    3    0    0 -0.33930113233E+02  0.58062748040E+02  0.23168862910E+03  0.24125330288E+03  0.10000000000E+01 0.  0.
         21    1    1    2  502  501  0.15247303857E+02 -0.34218324919E+02 -0.58690140243E+02  0.69626910006E+02  0.00000000000E+00 0.  1.
<mgrwt>
<rscale>  1 0.13049318E+03</rscale>
<asrwt>0</asrwt>
<pdfrwt beam="2">  1        4 0.12430522E-01 0.13049318E+03</pdfrwt>
<pdfrwt beam="1">  1       -4 0.40201057E-01 0.13049318E+03</pdfrwt>
<totfact> 0.51830449E+02</totfact>
</mgrwt>
</event>
<event>
 6    4  0.5642870E-004  0.1270454E+03  0.7818608E-02  0.1231907E+00
          4   -1    0    0  502    0  0.00000000000E+00  0.00000000000E+00  0.56366246318E+02  0.56380551824E+02  0.12700000000E+01 0. -1.
         -4   -1    0    0    0  501 -0.00000000000E+00 -0.00000000000E+00 -0.99733712393E+02  0.99741798098E+02  0.12700000000E+01 0. -1.
         25    2    1    2    0    0  0.15005364990E+02  0.17099021259E+02 -0.33971290690E+02  0.13150882481E+03  0.12499193936E+03 0.  0.
    9000005    1    3    3    0    0  0.26750258773E+02 -0.49202876949E+02 -0.31185781708E+02  0.64109690572E+02  0.10000000000E+01 0.  0.
    9000005    1    3    3    0    0 -0.11744893783E+02  0.66301898208E+02 -0.27855089822E+01  0.67399134240E+02  0.10000000000E+01 0.  0.
         21    1    1    2  502  501 -0.15005364990E+02 -0.17099021259E+02 -0.93961753852E+01  0.24613525110E+02  0.00000000000E+00 0.  1.
<mgrwt>
<rscale>  1 0.12704536E+03</rscale>
<asrwt>0</asrwt>
<pdfrwt beam="1">  1        4 0.86734526E-02 0.12704536E+03</pdfrwt>
<pdfrwt beam="2">  1       -4 0.15345370E-01 0.12704536E+03</pdfrwt>
<totfact> 0.56056421E+03</totfact>
</mgrwt>
</event>
<event>
 6    4  0.5642870E-004  0.1288122E+03  0.7818608E-02  0.1229229E+00
         -4   -1    0    0    0  501 -0.00000000000E+00  0.00000000000E+00  0.34103391233E+03  0.34103627704E+03  0.12700000000E+01 0.  1.
          4   -1    0    0  502    0  0.00000000000E+00 -0.00000000000E+00 -0.19735710549E+02  0.19776530810E+02  0.12700000000E+01 0.  1.
         25    2    1    2    0    0  0.30906190446E+02 -0.32996355133E+01  0.28667377348E+03  0.31428398627E+03  0.12500596556E+03 0.  0.
    9000005    1    3    3    0    0  0.76388711988E+02 -0.11020014233E+02  0.13238961506E+03  0.15324714095E+03  0.10000000000E+01 0.  0.
    9000005    1    3    3    0    0 -0.45482521542E+02  0.77203787197E+01  0.15428415841E+03  0.16103684532E+03  0.10000000000E+01 0.  0.
         21    1    1    2  502  501 -0.30906190446E+02  0.32996355133E+01  0.34624428303E+02  0.46528821581E+02  0.00000000000E+00 0.  1.
<mgrwt>
<rscale>  1 0.12881216E+03</rscale>
<asrwt>0</asrwt>
<pdfrwt beam="2">  1        4 0.30395851E-02 0.12881216E+03</pdfrwt>
<pdfrwt beam="1">  1       -4 0.52470078E-01 0.12881216E+03</pdfrwt>
<totfact> 0.30096170E+03</totfact>
</mgrwt>
</event>
<event>
 6    4  0.5642870E-004  0.1266365E+03  0.7818608E-02  0.1232534E+00
         -4   -1    0    0    0  501 -0.00000000000E+00  0.00000000000E+00  0.11065355658E+04  0.11065362946E+04  0.12700000000E+01 0. -1.
          4   -1    0    0  502    0  0.00000000000E+00 -0.00000000000E+00 -0.53889921368E+01  0.55366177628E+01  0.12700000000E+01 0. -1.
         25    2    1    2    0    0 -0.33262402197E+01 -0.20023744421E+02  0.10391540138E+04  0.10468418485E+04  0.12499910865E+03 0.  0.
    9000005    1    3    3    0    0  0.39983886281E+02  0.28423574135E+02  0.23511913097E+03  0.24018454671E+03  0.10000000000E+01 0.  0.
    9000005    1    3    3    0    0 -0.43310126500E+02 -0.48447318556E+02  0.80403488279E+03  0.80665730176E+03  0.10000000000E+01 0.  0.
         21    1    1    2  502  501  0.33262402197E+01  0.20023744421E+02  0.61992559848E+02  0.65231063851E+02  0.00000000000E+00 0. -1.
<mgrwt>
<rscale>  1 0.12663645E+03</rscale>
<asrwt>0</asrwt>
<pdfrwt beam="2">  1        4 0.84048735E-03 0.12663645E+03</pdfrwt>
<pdfrwt beam="1">  1       -4 0.17024770E+00 0.12663645E+03</pdfrwt>
<totfact> 0.14238551E+03</totfact>
</mgrwt>
</event>
<event>
 6    4  0.5642870E-004  0.1301884E+03  0.7818608E-02  0.1227176E+00
          4   -1    0    0  502    0  0.00000000000E+00  0.00000000000E+00  0.14842186957E+02  0.14896422848E+02  0.12700000000E+01 0. -1.
         -4   -1    0    0    0  501 -0.00000000000E+00 -0.00000000000E+00 -0.77689621378E+03  0.77689725182E+03  0.12700000000E+01 0. -1.
         25    2    1    2    0    0 -0.28432644508E+02  0.22704896500E+02 -0.73502913373E+03  0.74646959227E+03  0.12500038861E+03 0.  0.
    9000005    1    3    3    0    0 -0.25044197092E+02  0.52755375190E+02 -0.68846614565E+03  0.69093919785E+03  0.10000000000E+01 0.  0.
    9000005    1    3    3    0    0 -0.33884474154E+01 -0.30050478690E+02 -0.46562988074E+02  0.55530394414E+02  0.10000000000E+01 0.  0.
         21    1    1    2  502  501  0.28432644508E+02 -0.22704896500E+02 -0.27024893098E+02  0.45324082403E+02  0.00000000000E+00 0. -1.
<mgrwt>
<rscale>  1 0.13018842E+03</rscale>
<asrwt>0</asrwt>
<pdfrwt beam="1">  1        4 0.22876658E-02 0.13018842E+03</pdfrwt>
<pdfrwt beam="2">  1       -4 0.11952671E+00 0.13018842E+03</pdfrwt>
<totfact> 0.76061900E+02</totfact>
</mgrwt>
</event>
<event>
 6    4  0.5642870E-004  0.1284507E+03  0.7818608E-02  0.1229773E+00
         -4   -1    0    0    0  501 -0.00000000000E+00  0.00000000000E+00  0.39685416098E+02  0.39705731965E+02  0.12700000000E+01 0.  1.
          4   -1    0    0  502    0  0.00000000000E+00 -0.00000000000E+00 -0.18198220218E+03  0.18198663360E+03  0.12700000000E+01 0.  1.
         25    2    1    2    0    0 -0.19293698045E+02 -0.22398387526E+02 -0.76364743832E+02  0.14943609426E+03  0.12500255045E+03 0.  0.
    9000005    1    3    3    0    0  0.42233175721E+02  0.15735575421E+02 -0.12257921406E+01  0.45097139950E+02  0.10000000000E+01 0.  0.
    9000005    1    3    3    0    0 -0.61526873766E+02 -0.38133962947E+02 -0.75138951691E+02  0.10433895431E+03  0.10000000000E+01 0.  0.
         21    1    1    2  502  501  0.19293698045E+02  0.22398387526E+02 -0.65932042247E+02  0.72256271305E+02  0.00000000000E+00 0.  1.
<mgrwt>
<rscale>  1 0.12845066E+03</rscale>
<asrwt>0</asrwt>
<pdfrwt beam="2">  1        4 0.27999165E-01 0.12845066E+03</pdfrwt>
<pdfrwt beam="1">  1       -4 0.61073524E-02 0.12845066E+03</pdfrwt>
<totfact> 0.33786521E+03</totfact>
</mgrwt>
</event>
<event>
 6    4  0.5642870E-004  0.1299868E+03  0.7818608E-02  0.1227475E+00
          4   -1    0    0  502    0  0.00000000000E+00  0.00000000000E+00  0.85360132581E+02  0.85369579677E+02  0.12700000000E+01 0.  1.
         -4   -1    0    0    0  501 -0.00000000000E+00 -0.00000000000E+00 -0.10414181799E+03  0.10414956147E+03  0.12700000000E+01 0.  1.
         25    2    1    2    0    0  0.34880315822E+02  0.74306649642E+01 -0.52736363967E+02  0.14027717317E+03  0.12499884006E+03 0.  0.
    9000005    1    3    3    0    0 -0.37989025567E+02 -0.33115578461E+00 -0.55118409058E+02  0.66950091447E+02  0.10000000000E+01 0.  0.
    9000005    1    3    3    0    0  0.72869341389E+02  0.77618207488E+01  0.23820450908E+01  0.73327081727E+02  0.10000000000E+01 0.  0.
         21    1    1    2  502  501 -0.34880315822E+02 -0.74306649642E+01  0.33954678560E+02  0.49241967972E+02  0.00000000000E+00 0.  1.
<mgrwt>
<rscale>  1 0.12998677E+03</rscale>
<asrwt>0</asrwt>
<pdfrwt beam="1">  1        4 0.13133650E-01 0.12998677E+03</pdfrwt>
<pdfrwt beam="2">  1       -4 0.16023141E-01 0.12998677E+03</pdfrwt>
<totfact> 0.25897035E+03</totfact>
</mgrwt>
</event>
<event>
 6    4  0.5642870E-004  0.1395389E+03  0.7818608E-02  0.1213951E+00
         -4   -1    0    0    0  501 -0.00000000000E+00  0.00000000000E+00  0.14781437066E+02  0.14835895043E+02  0.12700000000E+01 0.  1.
          4   -1    0    0  502    0  0.00000000000E+00 -0.00000000000E+00 -0.80918136050E+03  0.80918235712E+03  0.12700000000E+01 0.  1.
         25    2    1    2    0    0  0.13587159131E+02 -0.60504435110E+02 -0.37618529662E+03  0.40123122346E+03  0.12500287887E+03 0.  0.
    9000005    1    3    3    0    0  0.18453264667E+02  0.24008378037E+02 -0.23245787092E+03  0.23442394704E+03  0.10000000000E+01 0.  0.
    9000005    1    3    3    0    0 -0.48661055356E+01 -0.84512813146E+02 -0.14372742570E+03  0.16680727643E+03  0.10000000000E+01 0.  0.
         21    1    1    2  502  501 -0.13587159131E+02  0.60504435110E+02 -0.41821462681E+03  0.42278702870E+03  0.00000000000E+00 0.  1.
<mgrwt>
<rscale>  1 0.13953895E+03</rscale>
<asrwt>0</asrwt>
<pdfrwt beam="2">  1        4 0.12449367E+00 0.13953895E+03</pdfrwt>
<pdfrwt beam="1">  1       -4 0.22783336E-02 0.13953895E+03</pdfrwt>
<totfact> 0.70329135E+02</totfact>
</mgrwt>
</event>
<event>
 6    4  0.5642870E-004  0.1296540E+03  0.7818608E-02  0.1227970E+00
          4   -1    0    0  502    0  0.00000000000E+00  0.00000000000E+00  0.13603589348E+02  0.13662742885E+02  0.12700000000E+01 0. -1.
         -4   -1    0    0    0  501 -0.00000000000E+00 -0.00000000000E+00 -0.51324755940E+03  0.51324913067E+03  0.12700000000E+01 0. -1.
         25    2    1    2    0    0  0.69210241635E+01  0.33690666305E+02 -0.43183723080E+03  0.45088085712E+03  0.12500876706E+03 0.  0.
    9000005    1    3    3    0    0 -0.45984346947E+02  0.37499657915E+02 -0.33725112216E+03  0.34243262681E+03  0.10000000000E+01 0.  0.
    9000005    1    3    3    0    0  0.52905371110E+02 -0.38089916104E+01 -0.94586108644E+02  0.10844823031E+03  0.10000000000E+01 0.  0.
         21    1    1    2  502  501 -0.69210241635E+01 -0.33690666305E+02 -0.67806739251E+02  0.76031016430E+02  0.00000000000E+00 0.  1.
<mgrwt>
<rscale>  1 0.12965398E+03</rscale>
<asrwt>0</asrwt>
<pdfrwt beam="1">  1        4 0.20975314E-02 0.12965398E+03</pdfrwt>
<pdfrwt beam="2">  1       -4 0.78965819E-01 0.12965398E+03</pdfrwt>
<totfact> 0.22503970E+03</totfact>
</mgrwt>
</event>
<event>
 6    4  0.5642870E-004  0.1270698E+03  0.7818608E-02  0.1231870E+00
         -4   -1    0    0    0  501 -0.00000000000E+00  0.00000000000E+00  0.28192991225E+02  0.28221581355E+02  0.12700000000E+01 0.  1.
          4   -1    0    0  502    0  0.00000000000E+00 -0.00000000000E+00 -0.30327650573E+03  0.30327916484E+03  0.12700000000E+01 0.  1.
         25    2    1    2    0    0  0.28098542309E+01  0.22670529348E+02 -0.12010723043E+03  0.17484987066E+03  0.12499952914E+03 0.  0.
    9000005    1    3    3    0    0 -0.11818609407E+02  0.67530761215E+01  0.24814923178E+02  0.28320734061E+02  0.10000000000E+01 0.  0.
    9000005    1    3    3    0    0  0.14628463638E+02  0.15917453226E+02 -0.14492215361E+03  0.14652913660E+03  0.10000000000E+01 0.  0.
         21    1    1    2  502  501 -0.28098542309E+01 -0.22670529348E+02 -0.15497628407E+03  0.15665087554E+03  0.00000000000E+00 0.  1.
<mgrwt>
<rscale>  1 0.12706979E+03</rscale>
<asrwt>0</asrwt>
<pdfrwt beam="2">  1        4 0.46660326E-01 0.12706979E+03</pdfrwt>
<pdfrwt beam="1">  1       -4 0.43397873E-02 0.12706979E+03</pdfrwt>
<totfact> 0.21699007E+03</totfact>
</mgrwt>
</event>
<event>
 6    4  0.5642870E-004  0.1291405E+03  0.7818608E-02  0.1228737E+00
          4   -1    0    0  502    0  0.00000000000E+00  0.00000000000E+00  0.15938081125E+03  0.15938587106E+03  0.12700000000E+01 0. -1.
         -4   -1    0    0    0  501 -0.00000000000E+00 -0.00000000000E+00 -0.52909369555E+02  0.52924609462E+02  0.12700000000E+01 0. -1.
         25    2    1    2    0    0  0.22327260437E+02  0.23542736733E+02  0.34969951077E+02  0.13379150083E+03  0.12499800481E+03 0.  0.
    9000005    1    3    3    0    0 -0.14906418009E+02 -0.46765904025E+02  0.77704270388E+01  0.49705438470E+02  0.10000000000E+01 0.  0.
    9000005    1    3    3    0    0  0.37233678446E+02  0.70308640758E+02  0.27199524039E+02  0.84086062363E+02  0.10000000000E+01 0.  0.
         21    1    1    2  502  501 -0.22327260437E+02 -0.23542736733E+02  0.71501490618E+02  0.78518979693E+02  0.00000000000E+00 0. -1.
<mgrwt>
<rscale>  1 0.12914050E+03</rscale>
<asrwt>0</asrwt>
<pdfrwt beam="1">  1        4 0.24521686E-01 0.12914050E+03</pdfrwt>
<pdfrwt beam="2">  1       -4 0.81414647E-02 0.12914050E+03</pdfrwt>
<totfact> 0.26995805E+03</totfact>
</mgrwt>
</event>
<event>
 6    4  0.5642870E-004  0.1276896E+03  0.7818608E-02  0.1230925E+00
         -4   -1    0    0    0  501 -0.00000000000E+00  0.00000000000E+00  0.35812059171E+02  0.35834571046E+02  0.12700000000E+01 0.  1.
          4   -1    0    0  502    0  0.00000000000E+00 -0.00000000000E+00 -0.18816321576E+03  0.18816750161E+03  0.12700000000E+01 0.  1.
         25    2    1    2    0    0  0.20101465848E+01 -0.25982612561E+02 -0.89414121132E+02  0.15588300575E+03  0.12500195830E+03 0.  0.
    9000005    1    3    3    0    0  0.21116379307E+02 -0.45787800023E+02  0.11121691862E+02  0.51644129733E+02  0.10000000000E+01 0.  0.
    9000005    1    3    3    0    0 -0.19106232722E+02  0.19805187462E+02 -0.10053581299E+03  0.10423887602E+03  0.10000000000E+01 0.  0.
         21    1    1    2  502  501 -0.20101465848E+01  0.25982612561E+02 -0.62937035454E+02  0.68119066908E+02  0.00000000000E+00 0. -1.
<mgrwt>
<rscale>  1 0.12768957E+03</rscale>
<asrwt>0</asrwt>
<pdfrwt beam="2">  1        4 0.28950248E-01 0.12768957E+03</pdfrwt>
<pdfrwt beam="1">  1       -4 0.55116091E-02 0.12768957E+03</pdfrwt>
<totfact> 0.37420918E+03</totfact>
</mgrwt>
</event>
<event>
 6    4  0.5642870E-004  0.1279846E+03  0.7818608E-02  0.1230477E+00
         -4   -1    0    0    0  501 -0.00000000000E+00  0.00000000000E+00  0.74855627550E+02  0.74866400180E+02  0.12700000000E+01 0.  1.
          4   -1    0    0  502    0  0.00000000000E+00 -0.00000000000E+00 -0.87005535357E+02  0.87014803814E+02  0.12700000000E+01 0.  1.
         25    2    1    2    0    0 -0.25610826994E+02 -0.99476083816E+01  0.73408900826E+01  0.12819499652E+03  0.12500079637E+03 0.  0.
    9000005    1    3    3    0    0 -0.16093905880E+02  0.45153573789E+02  0.40858464171E+02  0.62994230901E+02  0.10000000000E+01 0.  0.
    9000005    1    3    3    0    0 -0.95169211139E+01 -0.55101182171E+02 -0.33517574088E+02  0.65200765615E+02  0.10000000000E+01 0.  0.
         21    1    1    2  502  501  0.25610826994E+02  0.99476083816E+01 -0.19490797890E+02  0.33686207478E+02  0.00000000000E+00 0.  1.
<mgrwt>
<rscale>  1 0.12798464E+03</rscale>
<asrwt>0</asrwt>
<pdfrwt beam="2">  1        4 0.13387009E-01 0.12798464E+03</pdfrwt>
<pdfrwt beam="1">  1       -4 0.11517792E-01 0.12798464E+03</pdfrwt>
<totfact> 0.44166703E+03</totfact>
</mgrwt>
</event>
<event>
 6    4  0.5642870E-004  0.1343546E+03  0.7818608E-02  0.1221134E+00
         -4   -1    0    0    0  501 -0.00000000000E+00  0.00000000000E+00  0.32930062639E+02  0.32954543320E+02  0.12700000000E+01 0. -1.
          4   -1    0    0  502    0  0.00000000000E+00 -0.00000000000E+00 -0.26805833388E+03  0.26806134235E+03  0.12700000000E+01 0. -1.
         25    2    1    2    0    0  0.47403682963E+02  0.13370897917E+02 -0.14088681769E+03  0.19467990100E+03  0.12500111353E+03 0.  0.
    9000005    1    3    3    0    0  0.57737680445E+02  0.44419476839E+02 -0.29531824626E+02  0.78612074973E+02  0.10000000000E+01 0.  0.
    9000005    1    3    3    0    0 -0.10333997482E+02 -0.31048578923E+02 -0.11135499307E+03  0.11606782603E+03  0.10000000000E+01 0.  0.
         21    1    1    2  502  501 -0.47403682963E+02 -0.13370897917E+02 -0.94241453551E+02  0.10633598468E+03  0.00000000000E+00 0. -1.
<mgrwt>
<rscale>  1 0.13435464E+03</rscale>
<asrwt>0</asrwt>
<pdfrwt beam="2">  1        4 0.41241857E-01 0.13435464E+03</pdfrwt>
<pdfrwt beam="1">  1       -4 0.50682782E-02 0.13435464E+03</pdfrwt>
<totfact> 0.21930771E+03</totfact>
</mgrwt>
</event>
<event>
 6    4  0.5642870E-004  0.1276654E+03  0.7818608E-02  0.1230962E+00
         -4   -1    0    0    0  501 -0.00000000000E+00  0.00000000000E+00  0.47480527390E+02  0.47497509211E+02  0.12700000000E+01 0.  1.
          4   -1    0    0  502    0  0.00000000000E+00 -0.00000000000E+00 -0.13473124627E+03  0.13473723175E+03  0.12700000000E+01 0.  1.
         25    2    1    2    0    0  0.10283207249E+02  0.23726989991E+02 -0.90043143563E+02  0.15622489589E+03  0.12501894251E+03 0.  0.
    9000005    1    3    3    0    0 -0.56886270525E+02  0.96834519506E+01 -0.30036657118E+02  0.65061646050E+02  0.10000000000E+01 0.  0.
    9000005    1    3    3    0    0  0.67169477774E+02  0.14043538041E+02 -0.60006486445E+02  0.91163249836E+02  0.10000000000E+01 0.  0.
         21    1    1    2  502  501 -0.10283207249E+02 -0.23726989991E+02  0.27924246869E+01  0.26009845079E+02  0.00000000000E+00 0.  1.
<mgrwt>
<rscale>  1 0.12766538E+03</rscale>
<asrwt>0</asrwt>
<pdfrwt beam="2">  1        4 0.20729651E-01 0.12766538E+03</pdfrwt>
<pdfrwt beam="1">  1       -4 0.73064633E-02 0.12766538E+03</pdfrwt>
<totfact> 0.43706338E+03</totfact>
</mgrwt>
</event>
<event>
 6    4  0.5642870E-004  0.1326220E+03  0.7818608E-02  0.1223616E+00
          4   -1    0    0  502    0  0.00000000000E+00  0.00000000000E+00  0.15622005091E+03  0.15622521310E+03  0.12700000000E+01 0. -1.
         -4   -1    0    0    0  501 -0.00000000000E+00 -0.00000000000E+00 -0.53436380852E+02  0.53451470499E+02  0.12700000000E+01 0. -1.
         25    2    1    2    0    0 -0.32684905709E+02  0.29923778386E+02  0.52453962694E+02  0.14261838793E+03  0.12499940319E+03 0.  0.
    9000005    1    3    3    0    0  0.13603303848E+02  0.69795283377E+02  0.33756329369E+02  0.78720526101E+02  0.10000000000E+01 0.  0.
    9000005    1    3    3    0    0 -0.46288209557E+02 -0.39871504990E+02  0.18697633325E+02  0.63897861827E+02  0.10000000000E+01 0.  0.
         21    1    1    2  502  501  0.32684905709E+02 -0.29923778386E+02  0.50329707366E+02  0.67058295666E+02  0.00000000000E+00 0. -1.
<mgrwt>
<rscale>  1 0.13262197E+03</rscale>
<asrwt>0</asrwt>
<pdfrwt beam="1">  1        4 0.24035412E-01 0.13262197E+03</pdfrwt>
<pdfrwt beam="2">  1       -4 0.82225395E-02 0.13262197E+03</pdfrwt>
<totfact> 0.27727114E+03</totfact>
</mgrwt>
</event>
<event>
 6    4  0.5642870E-004  0.1288067E+03  0.7818608E-02  0.1229237E+00
         -4   -1    0    0    0  501 -0.00000000000E+00  0.00000000000E+00  0.13521195628E+04  0.13521201592E+04  0.12700000000E+01 0. -1.
          4   -1    0    0  502    0  0.00000000000E+00 -0.00000000000E+00 -0.24356607515E+02  0.24389695152E+02  0.12700000000E+01 0. -1.
         25    2    1    2    0    0 -0.25469082252E+02 -0.17796673017E+02  0.13377012468E+04  0.13438883069E+04  0.12500304041E+03 0.  0.
    9000005    1    3    3    0    0 -0.73808907236E+02  0.49962470262E+01  0.87077948104E+03  0.87391682778E+03  0.10000000000E+01 0.  0.
    9000005    1    3    3    0    0  0.48339824984E+02 -0.22792920043E+02  0.46692176573E+03  0.46997147913E+03  0.10000000000E+01 0.  0.
         21    1    1    2  502  501  0.25469082252E+02  0.17796673017E+02 -0.99382914967E+01  0.32621547467E+02  0.00000000000E+00 0. -1.
<mgrwt>
<rscale>  1 0.12880666E+03</rscale>
<asrwt>0</asrwt>
<pdfrwt beam="2">  1        4 0.37497613E-02 0.12880666E+03</pdfrwt>
<pdfrwt beam="1">  1       -4 0.20802100E+00 0.12880666E+03</pdfrwt>
<totfact> 0.82588228E+01</totfact>
</mgrwt>
</event>
<event>
 6    4  0.5642870E-004  0.1269863E+03  0.7818608E-02  0.1231997E+00
         -4   -1    0    0    0  501 -0.00000000000E+00  0.00000000000E+00  0.37307093234E+03  0.37307309399E+03  0.12700000000E+01 0. -1.
          4   -1    0    0  502    0  0.00000000000E+00 -0.00000000000E+00 -0.15938916073E+02  0.15989432310E+02  0.12700000000E+01 0. -1.
         25    2    1    2    0    0  0.76069254100E+01 -0.21066100089E+02  0.33168578306E+03  0.35516331286E+03  0.12499549684E+03 0.  0.
    9000005    1    3    3    0    0 -0.45834581300E+02  0.28456651494E+02  0.13234594519E+03  0.14292319289E+03  0.10000000000E+01 0.  0.
    9000005    1    3    3    0    0  0.53441506710E+02 -0.49522751584E+02  0.19933983787E+03  0.21224011997E+03  0.10000000000E+01 0.  0.
         21    1    1    2  502  501 -0.76069254100E+01  0.21066100089E+02  0.25446233209E+02  0.33899213438E+02  0.00000000000E+00 0. -1.
<mgrwt>
<rscale>  1 0.12698630E+03</rscale>
<asrwt>0</asrwt>
<pdfrwt beam="2">  1        4 0.24561930E-02 0.12698630E+03</pdfrwt>
<pdfrwt beam="1">  1       -4 0.57399581E-01 0.12698630E+03</pdfrwt>
<totfact> 0.34725825E+03</totfact>
</mgrwt>
</event>
<event>
 6    4  0.5642870E-004  0.1270614E+03  0.7818608E-02  0.1231882E+00
         -4   -1    0    0    0  501 -0.00000000000E+00  0.00000000000E+00  0.18169203897E+02  0.18213535359E+02  0.12700000000E+01 0.  1.
          4   -1    0    0  502    0  0.00000000000E+00 -0.00000000000E+00 -0.47490412143E+03  0.47490581956E+03  0.12700000000E+01 0.  1.
         25    2    1    2    0    0  0.20595753176E+02 -0.97437092116E+01 -0.21080938520E+03  0.24614062634E+03  0.12500194449E+03 0.  0.
    9000005    1    3    3    0    0 -0.69224551033E+01 -0.45586290679E+02 -0.20382242604E+02  0.50422872747E+02  0.10000000000E+01 0.  0.
    9000005    1    3    3    0    0  0.27518208280E+02  0.35842581467E+02 -0.19042714260E+03  0.19571775359E+03  0.10000000000E+01 0.  0.
         21    1    1    2  502  501 -0.20595753176E+02  0.97437092116E+01 -0.24592553233E+03  0.24697872858E+03  0.00000000000E+00 0.  1.
<mgrwt>
<rscale>  1 0.12706145E+03</rscale>
<asrwt>0</asrwt>
<pdfrwt beam="2">  1        4 0.73065704E-01 0.12706145E+03</pdfrwt>
<pdfrwt beam="1">  1       -4 0.27988032E-02 0.12706145E+03</pdfrwt>
<totfact> 0.16974075E+03</totfact>
</mgrwt>
</event>
<event>
 6    4  0.5642870E-004  0.1299522E+03  0.7818608E-02  0.1227527E+00
          4   -1    0    0  502    0  0.00000000000E+00  0.00000000000E+00  0.76110435521E+02  0.76121030571E+02  0.12700000000E+01 0. -1.
         -4   -1    0    0    0  501 -0.00000000000E+00 -0.00000000000E+00 -0.95271651355E+02  0.95280115721E+02  0.12700000000E+01 0. -1.
         25    2    1    2    0    0 -0.33284434504E+02 -0.12359887477E+02 -0.31672311141E+02  0.13375612133E+03  0.12500777696E+03 0.  0.
    9000005    1    3    3    0    0  0.47613419539E+02 -0.93354216413E+01 -0.64460321318E+01  0.48956502609E+02  0.10000000000E+01 0.  0.
    9000005    1    3    3    0    0 -0.80897854044E+02 -0.30244658353E+01 -0.25226279009E+02  0.84799618720E+02  0.10000000000E+01 0.  0.
         21    1    1    2  502  501  0.33284434504E+02  0.12359887477E+02  0.12511095307E+02  0.37645024963E+02  0.00000000000E+00 0. -1.
<mgrwt>
<rscale>  1 0.12995216E+03</rscale>
<asrwt>0</asrwt>
<pdfrwt beam="1">  1        4 0.11710764E-01 0.12995216E+03</pdfrwt>
<pdfrwt beam="2">  1       -4 0.14658643E-01 0.12995216E+03</pdfrwt>
<totfact> 0.36824979E+03</totfact>
</mgrwt>
</event>
<event>
 6    4  0.5642870E-004  0.1293506E+03  0.7818608E-02  0.1228422E+00
          4   -1    0    0  502    0  0.00000000000E+00  0.00000000000E+00  0.16627532471E+03  0.16628017472E+03  0.12700000000E+01 0. -1.
         -4   -1    0    0    0  501 -0.00000000000E+00 -0.00000000000E+00 -0.46017578014E+02  0.46035099503E+02  0.12700000000E+01 0. -1.
         25    2    1    2    0    0 -0.27861230925E+02 -0.18203210055E+02  0.58081469620E+02  0.14179226752E+03  0.12499593981E+03 0.  0.
    9000005    1    3    3    0    0 -0.12595600161E+02 -0.52501453438E+02 -0.18020672800E+02  0.56927993155E+02  0.10000000000E+01 0.  0.
    9000005    1    3    3    0    0 -0.15265630764E+02  0.34298243383E+02  0.76102142420E+02  0.84864274361E+02  0.10000000000E+01 0.  0.
         21    1    1    2  502  501  0.27861230925E+02  0.18203210055E+02  0.62176277073E+02  0.70523006711E+02  0.00000000000E+00 0. -1.
<mgrwt>
<rscale>  1 0.12935065E+03</rscale>
<asrwt>0</asrwt>
<pdfrwt beam="1">  1        4 0.25582540E-01 0.12935065E+03</pdfrwt>
<pdfrwt beam="2">  1       -4 0.70813484E-02 0.12935065E+03</pdfrwt>
<totfact> 0.31436983E+03</totfact>
</mgrwt>
</event>
<event>
 6    4  0.5642870E-004  0.1269738E+03  0.7818608E-02  0.1232016E+00
         -4   -1    0    0    0  501 -0.00000000000E+00  0.00000000000E+00  0.13302276854E+03  0.13302883090E+03  0.12700000000E+01 0.  1.
          4   -1    0    0  502    0  0.00000000000E+00 -0.00000000000E+00 -0.62350734646E+02  0.62363667394E+02  0.12700000000E+01 0.  1.
         25    2    1    2    0    0  0.32051062736E+01 -0.22078349394E+02  0.97797722221E+02  0.16027086414E+03  0.12499851680E+03 0.  0.
    9000005    1    3    3    0    0 -0.21770004299E+02 -0.54972087423E+02  0.10286229595E+03  0.11864870590E+03  0.10000000000E+01 0.  0.
    9000005    1    3    3    0    0  0.24975110573E+02  0.32893738029E+02 -0.50645737333E+01  0.41622158242E+02  0.10000000000E+01 0.  0.
         21    1    1    2  502  501 -0.32051062736E+01  0.22078349394E+02 -0.27125688326E+02  0.35121634150E+02  0.00000000000E+00 0. -1.
<mgrwt>
<rscale>  1 0.12697384E+03</rscale>
<asrwt>0</asrwt>
<pdfrwt beam="2">  1        4 0.95938820E-02 0.12697384E+03</pdfrwt>
<pdfrwt beam="1">  1       -4 0.20466502E-01 0.12697384E+03</pdfrwt>
<totfact> 0.28418368E+03</totfact>
</mgrwt>
</event>
<event>
 6    4  0.5642870E-004  0.1402884E+03  0.7818608E-02  0.1212941E+00
         -4   -1    0    0    0  501 -0.00000000000E+00  0.00000000000E+00  0.10706315946E+03  0.10707069167E+03  0.12700000000E+01 0.  1.
          4   -1    0    0  502    0  0.00000000000E+00 -0.00000000000E+00 -0.10026483566E+03  0.10027287854E+03  0.12700000000E+01 0.  1.
         25    2    1    2    0    0 -0.20547319524E+02 -0.60281960683E+02  0.21645066775E+02  0.14194836472E+03  0.12499888883E+03 0.  0.
    9000005    1    3    3    0    0  0.17117601867E+02 -0.89942480699E+02  0.21244847028E+02  0.93994710773E+02  0.10000000000E+01 0.  0.
    9000005    1    3    3    0    0 -0.37664921391E+02  0.29660520017E+02  0.40021974712E+00  0.47953653947E+02  0.10000000000E+01 0.  0.
         21    1    1    2  502  501  0.20547319524E+02  0.60281960683E+02 -0.14846742971E+02  0.65395205483E+02  0.00000000000E+00 0.  1.
<mgrwt>
<rscale>  1 0.14028838E+03</rscale>
<asrwt>0</asrwt>
<pdfrwt beam="2">  1        4 0.15426558E-01 0.14028838E+03</pdfrwt>
<pdfrwt beam="1">  1       -4 0.16472453E-01 0.14028838E+03</pdfrwt>
<totfact> 0.18974327E+03</totfact>
</mgrwt>
</event>
<event>
 6    4  0.5642870E-004  0.1284007E+03  0.7818608E-02  0.1229848E+00
         -4   -1    0    0    0  501 -0.00000000000E+00  0.00000000000E+00  0.46303220229E+03  0.46303394396E+03  0.12700000000E+01 0.  1.
          4   -1    0    0  502    0  0.00000000000E+00 -0.00000000000E+00 -0.18595291037E+02  0.18638609089E+02  0.12700000000E+01 0.  1.
         25    2    1    2    0    0  0.29308139545E+02  0.20612794450E+01  0.43033624686E+03  0.44908352648E+03  0.12499404975E+03 0.  0.
    9000005    1    3    3    0    0  0.10925590696E+02 -0.61123541823E+02  0.18941923270E+03  0.19933916227E+03  0.10000000000E+01 0.  0.
    9000005    1    3    3    0    0  0.18382548848E+02  0.63184821268E+02  0.24091701416E+03  0.24974436421E+03  0.10000000000E+01 0.  0.
         21    1    1    2  502  501 -0.29308139545E+02 -0.20612794450E+01  0.14100664388E+02  0.32589026569E+02  0.00000000000E+00 0.  1.
<mgrwt>
<rscale>  1 0.12840066E+03</rscale>
<asrwt>0</asrwt>
<pdfrwt beam="2">  1        4 0.28642803E-02 0.12840066E+03</pdfrwt>
<pdfrwt beam="1">  1       -4 0.71239186E-01 0.12840066E+03</pdfrwt>
<totfact> 0.17337094E+03</totfact>
</mgrwt>
</event>
<event>
 6    4  0.5642870E-004  0.1270814E+03  0.7818608E-02  0.1231852E+00
          4   -1    0    0  502    0  0.00000000000E+00  0.00000000000E+00  0.41228990011E+02  0.41248545639E+02  0.12700000000E+01 0. -1.
         -4   -1    0    0    0  501 -0.00000000000E+00 -0.00000000000E+00 -0.14228435136E+03  0.14229001912E+03  0.12700000000E+01 0. -1.
         25    2    1    2    0    0 -0.22838227893E+02 -0.16441930953E+01 -0.97913430705E+02  0.16042666842E+03  0.12500155201E+03 0.  0.
    9000005    1    3    3    0    0 -0.10157245410E+02 -0.59688490093E+02 -0.22925099931E+02  0.64749097992E+02  0.10000000000E+01 0.  0.
    9000005    1    3    3    0    0 -0.12680982482E+02  0.58044296998E+02 -0.74988330774E+02  0.95677570428E+02  0.10000000000E+01 0.  0.
         21    1    1    2  502  501  0.22838227893E+02  0.16441930953E+01 -0.31419306418E+01  0.23111896339E+02  0.00000000000E+00 0.  1.
<mgrwt>
<rscale>  1 0.12708138E+03</rscale>
<asrwt>0</asrwt>
<pdfrwt beam="1">  1        4 0.63448619E-02 0.12708138E+03</pdfrwt>
<pdfrwt beam="2">  1       -4 0.21891840E-01 0.12708138E+03</pdfrwt>
<totfact> 0.49827523E+03</totfact>
</mgrwt>
</event>
<event>
 6    4  0.5642870E-004  0.1298639E+03  0.7818608E-02  0.1227658E+00
          4   -1    0    0  502    0  0.00000000000E+00  0.00000000000E+00  0.37992077650E+03  0.37992289917E+03  0.12700000000E+01 0. -1.
         -4   -1    0    0    0  501 -0.00000000000E+00 -0.00000000000E+00 -0.21029355178E+02  0.21067669050E+02  0.12700000000E+01 0. -1.
         25    2    1    2    0    0 -0.15763604898E+02  0.31472704871E+02  0.20158470841E+03  0.23979371863E+03  0.12500244173E+03 0.  0.
    9000005    1    3    3    0    0 -0.29442442758E+02  0.43879077142E+02  0.18829425325E+02  0.56105063091E+02  0.10000000000E+01 0.  0.
    9000005    1    3    3    0    0  0.13678837860E+02 -0.12406372271E+02  0.18275528308E+03  0.18368865554E+03  0.10000000000E+01 0.  0.
         21    1    1    2  502  501  0.15763604898E+02 -0.31472704871E+02  0.15730671291E+03  0.16119684959E+03  0.00000000000E+00 0. -1.
<mgrwt>
<rscale>  1 0.12986390E+03</rscale>
<asrwt>0</asrwt>
<pdfrwt beam="1">  1        4 0.58452458E-01 0.12986390E+03</pdfrwt>
<pdfrwt beam="2">  1       -4 0.32383961E-02 0.12986390E+03</pdfrwt>
<totfact> 0.21835304E+03</totfact>
</mgrwt>
</event>
<event>
 6    4  0.5642870E-004  0.1277920E+03  0.7818608E-02  0.1230769E+00
         -4   -1    0    0    0  501 -0.00000000000E+00  0.00000000000E+00  0.51414597782E+02  0.51430280624E+02  0.12700000000E+01 0.  1.
          4   -1    0    0  502    0  0.00000000000E+00 -0.00000000000E+00 -0.11594971516E+03  0.11595667012E+03  0.12700000000E+01 0.  1.
         25    2    1    2    0    0 -0.26279689375E+02  0.38694939178E+01 -0.51233100507E+02  0.13767939767E+03  0.12500076359E+03 0.  0.
    9000005    1    3    3    0    0  0.13110082048E+01 -0.55534746988E+02 -0.45699799618E+02  0.71939547890E+02  0.10000000000E+01 0.  0.
    9000005    1    3    3    0    0 -0.27590697580E+02  0.59404240906E+02 -0.55333008892E+01  0.65739849782E+02  0.10000000000E+01 0.  0.
         21    1    1    2  502  501  0.26279689375E+02 -0.38694939178E+01 -0.13302016872E+02  0.29707553075E+02  0.00000000000E+00 0. -1.
<mgrwt>
<rscale>  1 0.12779196E+03</rscale>
<asrwt>0</asrwt>
<pdfrwt beam="2">  1        4 0.17840159E-01 0.12779196E+03</pdfrwt>
<pdfrwt beam="1">  1       -4 0.79116795E-02 0.12779196E+03</pdfrwt>
<totfact> 0.50153442E+03</totfact>
</mgrwt>
</event>
<event>
 6    4  0.5642870E-004  0.1270994E+03  0.7818608E-02  0.1231824E+00
         -4   -1    0    0    0  501 -0.00000000000E+00  0.00000000000E+00  0.53723599524E+02  0.53738608522E+02  0.12700000000E+01 0. -1.
          4   -1    0    0  502    0  0.00000000000E+00 -0.00000000000E+00 -0.12914429802E+03  0.12915054243E+03  0.12700000000E+01 0. -1.
         25    2    1    2    0    0  0.21814867491E+02  0.74680359409E+01 -0.27981320154E+02  0.13014301724E+03  0.12499036225E+03 0.  0.
    9000005    1    3    3    0    0 -0.95414392631E+00  0.51330535531E+02 -0.53803555290E+02  0.74374436672E+02  0.10000000000E+01 0.  0.
    9000005    1    3    3    0    0  0.22769011418E+02 -0.43862499590E+02  0.25822235135E+02  0.55768580568E+02  0.10000000000E+01 0.  0.
         21    1    1    2  502  501 -0.21814867491E+02 -0.74680359409E+01 -0.47439378338E+02  0.52746133712E+02  0.00000000000E+00 0. -1.
<mgrwt>
<rscale>  1 0.12709937E+03</rscale>
<asrwt>0</asrwt>
<pdfrwt beam="2">  1        4 0.19869988E-01 0.12709937E+03</pdfrwt>
<pdfrwt beam="1">  1       -4 0.82668041E-02 0.12709937E+03</pdfrwt>
<totfact> 0.38425461E+03</totfact>
</mgrwt>
</event>
<event>
 6    4  0.5642870E-004  0.1294946E+03  0.7818608E-02  0.1228208E+00
          4   -1    0    0  502    0  0.00000000000E+00  0.00000000000E+00  0.55246156365E+02  0.55260751833E+02  0.12700000000E+01 0. -1.
         -4   -1    0    0    0  501 -0.00000000000E+00 -0.00000000000E+00 -0.12451172082E+03  0.12451819755E+03  0.12700000000E+01 0. -1.
         25    2    1    2    0    0 -0.27005049110E+02  0.20270432121E+02 -0.67341283075E+02  0.14595786196E+03  0.12501474299E+03 0.  0.
    9000005    1    3    3    0    0 -0.37118842165E+02  0.17728085980E+01 -0.10021743977E+03  0.10689006749E+03  0.10000000000E+01 0.  0.
    9000005    1    3    3    0    0  0.10113793055E+02  0.18497623523E+02  0.32876156694E+02  0.39067794472E+02  0.10000000000E+01 0.  0.
         21    1    1    2  502  501  0.27005049110E+02 -0.20270432121E+02 -0.19242813807E+01  0.33821087425E+02  0.00000000000E+00 0. -1.
<mgrwt>
<rscale>  1 0.12949459E+03</rscale>
<asrwt>0</asrwt>
<pdfrwt beam="1">  1        4 0.85010297E-02 0.12949459E+03</pdfrwt>
<pdfrwt beam="2">  1       -4 0.19157270E-01 0.12949459E+03</pdfrwt>
<totfact> 0.39346265E+03</totfact>
</mgrwt>
</event>
<event>
 6    4  0.5642870E-004  0.1313837E+03  0.7818608E-02  0.1225417E+00
          4   -1    0    0  502    0  0.00000000000E+00  0.00000000000E+00  0.12997965865E+02  0.13059862811E+02  0.12700000000E+01 0.  1.
         -4   -1    0    0    0  501 -0.00000000000E+00 -0.00000000000E+00 -0.65527870994E+03  0.65527994064E+03  0.12700000000E+01 0.  1.
         25    2    1    2    0    0  0.35071505597E+02 -0.20160965261E+02 -0.57512477301E+03  0.58994082721E+03  0.12500080022E+03 0.  0.
    9000005    1    3    3    0    0  0.44333297898E+02 -0.49504544109E+02 -0.15447063607E+03  0.16816158478E+03  0.10000000000E+01 0.  0.
    9000005    1    3    3    0    0 -0.92617923013E+01  0.29343578848E+02 -0.42065413694E+03  0.42177924243E+03  0.10000000000E+01 0.  0.
         21    1    1    2  502  501 -0.35071505597E+02  0.20160965261E+02 -0.67155971066E+02  0.78398976236E+02  0.00000000000E+00 0.  1.
<mgrwt>
<rscale>  1 0.13138369E+03</rscale>
<asrwt>0</asrwt>
<pdfrwt beam="1">  1        4 0.20045435E-02 0.13138369E+03</pdfrwt>
<pdfrwt beam="2">  1       -4 0.10081694E+00 0.13138369E+03</pdfrwt>
<totfact> 0.13951732E+03</totfact>
</mgrwt>
</event>
<event>
 6    4  0.5642870E-004  0.1467504E+03  0.7818608E-02  0.1204524E+00
         -4   -1    0    0    0  501 -0.00000000000E+00  0.00000000000E+00  0.19200232132E+03  0.19200652149E+03  0.12700000000E+01 0.  1.
          4   -1    0    0  502    0  0.00000000000E+00 -0.00000000000E+00 -0.82218437106E+02  0.82228245148E+02  0.12700000000E+01 0.  1.
         25    2    1    2    0    0 -0.11065935830E+02 -0.76082574270E+02  0.12855311805E+03  0.19509377105E+03  0.12499864919E+03 0.  0.
    9000005    1    3    3    0    0 -0.51844011660E+02  0.87763219323E+01  0.45244242878E+02  0.69374828903E+02  0.10000000000E+01 0.  0.
    9000005    1    3    3    0    0  0.40778075831E+02 -0.84858896202E+02  0.83308875169E+02  0.12571894215E+03  0.10000000000E+01 0.  0.
         21    1    1    2  502  501  0.11065935830E+02  0.76082574270E+02 -0.18769233830E+02  0.79140995583E+02  0.00000000000E+00 0.  1.
<mgrwt>
<rscale>  1 0.14675038E+03</rscale>
<asrwt>0</asrwt>
<pdfrwt beam="2">  1        4 0.12650068E-01 0.14675038E+03</pdfrwt>
<pdfrwt beam="1">  1       -4 0.29539896E-01 0.14675038E+03</pdfrwt>
<totfact> 0.93233856E+02</totfact>
</mgrwt>
</event>
<event>
 6    4  0.5642870E-004  0.1373771E+03  0.7818608E-02  0.1216902E+00
         -4   -1    0    0    0  501 -0.00000000000E+00  0.00000000000E+00  0.41175534776E+02  0.41195115779E+02  0.12700000000E+01 0. -1.
          4   -1    0    0  502    0  0.00000000000E+00 -0.00000000000E+00 -0.23053013116E+03  0.23053362938E+03  0.12700000000E+01 0. -1.
         25    2    1    2    0    0  0.56753797169E+02  0.52906964811E+01 -0.14258028076E+03  0.19799393950E+03  0.12499391448E+03 0.  0.
    9000005    1    3    3    0    0  0.46293677147E+02 -0.53424776052E+02 -0.10789283669E+03  0.12899292790E+03  0.10000000000E+01 0.  0.
    9000005    1    3    3    0    0  0.10460120022E+02  0.58715472533E+02 -0.34687444066E+02  0.69001011597E+02  0.10000000000E+01 0.  0.
         21    1    1    2  502  501 -0.56753797169E+02 -0.52906964811E+01 -0.46774315630E+02  0.73734805655E+02  0.00000000000E+00 0. -1.
<mgrwt>
<rscale>  1 0.13737709E+03</rscale>
<asrwt>0</asrwt>
<pdfrwt beam="2">  1        4 0.35467949E-01 0.13737709E+03</pdfrwt>
<pdfrwt beam="1">  1       -4 0.63364731E-02 0.13737709E+03</pdfrwt>
<totfact> 0.20613995E+03</totfact>
</mgrwt>
</event>
<event>
 6    4  0.5642870E-004  0.1268042E+03  0.7818608E-02  0.1232276E+00
         -4   -1    0    0    0  501 -0.00000000000E+00  0.00000000000E+00  0.45631069072E+02  0.45648738917E+02  0.12700000000E+01 0. -1.
          4   -1    0    0  502    0  0.00000000000E+00 -0.00000000000E+00 -0.12009051669E+03  0.12009723185E+03  0.12700000000E+01 0. -1.
         25    2    1    2    0    0  0.87130574323E+01  0.19372816684E+02 -0.62533201417E+02  0.14138496208E+03  0.12501233069E+03 0.  0.
    9000005    1    3    3    0    0 -0.33578983388E+02 -0.20669677296E+02 -0.72264324462E+02  0.82328101368E+02  0.10000000000E+01 0.  0.
    9000005    1    3    3    0    0  0.42292040820E+02  0.40042493980E+02  0.97311230447E+01  0.59056860708E+02  0.10000000000E+01 0.  0.
         21    1    1    2  502  501 -0.87130574323E+01 -0.19372816684E+02 -0.11926246198E+02  0.24361008692E+02  0.00000000000E+00 0.  1.
<mgrwt>
<rscale>  1 0.12680420E+03</rscale>
<asrwt>0</asrwt>
<pdfrwt beam="2">  1        4 0.18477340E-01 0.12680420E+03</pdfrwt>
<pdfrwt beam="1">  1       -4 0.70220403E-02 0.12680420E+03</pdfrwt>
<totfact> 0.57232727E+03</totfact>
</mgrwt>
</event>
<event>
 6    4  0.5642870E-004  0.1408309E+03  0.7818608E-02  0.1212215E+00
         -4   -1    0    0    0  501 -0.00000000000E+00  0.00000000000E+00  0.14418739315E+03  0.14419298611E+03  0.12700000000E+01 0.  1.
          4   -1    0    0  502    0  0.00000000000E+00 -0.00000000000E+00 -0.73357919597E+02  0.73368912133E+02  0.12700000000E+01 0.  1.
         25    2    1    2    0    0  0.47446580491E+02  0.44232773898E+02  0.47415766688E+02  0.14859873448E+03  0.12500245067E+03 0.  0.
    9000005    1    3    3    0    0  0.29367482803E+02 -0.38196258250E+02 -0.62375989341E+01  0.48593320847E+02  0.10000000000E+01 0.  0.
    9000005    1    3    3    0    0  0.18079097688E+02  0.82429032148E+02  0.53653365622E+02  0.10000541364E+03  0.10000000000E+01 0.  0.
         21    1    1    2  502  501 -0.47446580491E+02 -0.44232773898E+02  0.23413706870E+02  0.68963163765E+02  0.00000000000E+00 0.  1.
<mgrwt>
<rscale>  1 0.14083085E+03</rscale>
<asrwt>0</asrwt>
<pdfrwt beam="2">  1        4 0.11287110E-01 0.14083085E+03</pdfrwt>
<pdfrwt beam="1">  1       -4 0.22183951E-01 0.14083085E+03</pdfrwt>
<totfact> 0.19107216E+03</totfact>
</mgrwt>
</event>
<event>
 6    4  0.5642870E-004  0.1630274E+03  0.7818608E-02  0.1185321E+00
         -4   -1    0    0    0  501 -0.00000000000E+00  0.00000000000E+00  0.13487683671E+03  0.13488281574E+03  0.12700000000E+01 0.  1.
          4   -1    0    0  502    0  0.00000000000E+00 -0.00000000000E+00 -0.21536398644E+03  0.21536773100E+03  0.12700000000E+01 0.  1.
         25    2    1    2    0    0 -0.54990671385E+02 -0.89050700983E+02  0.61168211951E+02  0.17412490187E+03  0.12499571998E+03 0.  0.
    9000005    1    3    3    0    0 -0.61366802784E+02 -0.94250311805E+02  0.75200323158E-01  0.11247226953E+03  0.10000000000E+01 0.  0.
    9000005    1    3    3    0    0  0.63761313983E+01  0.51996108216E+01  0.61093011628E+02  0.61652632337E+02  0.10000000000E+01 0.  0.
         21    1    1    2  502  501  0.54990671385E+02  0.89050700983E+02 -0.14165536168E+03  0.17612564486E+03  0.00000000000E+00 0.  1.
<mgrwt>
<rscale>  1 0.16302739E+03</rscale>
<asrwt>0</asrwt>
<pdfrwt beam="2">  1        4 0.33133669E-01 0.16302739E+03</pdfrwt>
<pdfrwt beam="1">  1       -4 0.20751031E-01 0.16302739E+03</pdfrwt>
<totfact> 0.31895155E+02</totfact>
</mgrwt>
</event>
<event>
 6    4  0.5642870E-004  0.1285028E+03  0.7818608E-02  0.1229694E+00
          4   -1    0    0  502    0  0.00000000000E+00  0.00000000000E+00  0.69861874293E+02  0.69873416832E+02  0.12700000000E+01 0. -1.
         -4   -1    0    0    0  501 -0.00000000000E+00 -0.00000000000E+00 -0.10699994560E+03  0.10700748225E+03  0.12700000000E+01 0. -1.
         25    2    1    2    0    0 -0.17088396859E+02  0.24411560217E+02 -0.57509634050E+02  0.14078466454E+03  0.12500010473E+03 0.  0.
    9000005    1    3    3    0    0  0.11179719436E+02  0.83027382137E+01  0.37679925010E+02  0.40183309187E+02  0.10000000000E+01 0.  0.
    9000005    1    3    3    0    0 -0.28268116295E+02  0.16108822003E+02 -0.95189559059E+02  0.10060135535E+03  0.10000000000E+01 0.  0.
         21    1    1    2  502  501  0.17088396859E+02 -0.24411560217E+02  0.20371562745E+02  0.36096234542E+02  0.00000000000E+00 0.  1.
<mgrwt>
<rscale>  1 0.12850278E+03</rscale>
<asrwt>0</asrwt>
<pdfrwt beam="1">  1        4 0.10749448E-01 0.12850278E+03</pdfrwt>
<pdfrwt beam="2">  1       -4 0.16462998E-01 0.12850278E+03</pdfrwt>
<totfact> 0.34666888E+03</totfact>
</mgrwt>
</event>
<event>
 6    4  0.5642870E-004  0.1352248E+03  0.7818608E-02  0.1219903E+00
          4   -1    0    0  502    0  0.00000000000E+00  0.00000000000E+00  0.62283956371E+02  0.62296902983E+02  0.12700000000E+01 0.  1.
         -4   -1    0    0    0  501 -0.00000000000E+00 -0.00000000000E+00 -0.18335074877E+03  0.18335514711E+03  0.12700000000E+01 0.  1.
         25    2    1    2    0    0  0.11045122119E+02  0.50384571200E+02 -0.13616910574E+03  0.19190561202E+03  0.12500055531E+03 0.  0.
    9000005    1    3    3    0    0 -0.21480104550E+02  0.23035571793E+01 -0.13193302310E+03  0.13369376893E+03  0.10000000000E+01 0.  0.
    9000005    1    3    3    0    0  0.32525226669E+02  0.48081014020E+02 -0.42360826416E+01  0.58211843084E+02  0.10000000000E+01 0.  0.
         21    1    1    2  502  501 -0.11045122119E+02 -0.50384571200E+02  0.15102313348E+02  0.53746438078E+02  0.00000000000E+00 0.  1.
<mgrwt>
<rscale>  1 0.13522477E+03</rscale>
<asrwt>0</asrwt>
<pdfrwt beam="1">  1        4 0.95834814E-02 0.13522477E+03</pdfrwt>
<pdfrwt beam="2">  1       -4 0.28209141E-01 0.13522477E+03</pdfrwt>
<totfact> 0.16023515E+03</totfact>
</mgrwt>
</event>
<event>
 6    4  0.5642870E-004  0.1390256E+03  0.7818608E-02  0.1214646E+00
         -4   -1    0    0    0  501 -0.00000000000E+00  0.00000000000E+00  0.40173523926E+03  0.40173724667E+03  0.12700000000E+01 0. -1.
          4   -1    0    0  502    0  0.00000000000E+00 -0.00000000000E+00 -0.25727570262E+02  0.25758896940E+02  0.12700000000E+01 0. -1.
         25    2    1    2    0    0  0.25287543244E+02  0.55357895871E+02  0.29552416022E+03  0.32659246844E+03  0.12499661870E+03 0.  0.
    9000005    1    3    3    0    0 -0.49507281471E+02  0.93755436712E+01  0.12533610460E+03  0.13508889982E+03  0.10000000000E+01 0.  0.
    9000005    1    3    3    0    0  0.74794824715E+02  0.45982352199E+02  0.17018805562E+03  0.19150356862E+03  0.10000000000E+01 0.  0.
         21    1    1    2  502  501 -0.25287543244E+02 -0.55357895871E+02  0.80483508774E+02  0.10090367517E+03  0.00000000000E+00 0. -1.
<mgrwt>
<rscale>  1 0.13902558E+03</rscale>
<asrwt>0</asrwt>
<pdfrwt beam="2">  1        4 0.39606520E-02 0.13902558E+03</pdfrwt>
<pdfrwt beam="1">  1       -4 0.61807984E-01 0.13902558E+03</pdfrwt>
<totfact> 0.14345238E+03</totfact>
</mgrwt>
</event>
<event>
 6    4  0.5642870E-004  0.1611249E+03  0.7818608E-02  0.1187433E+00
          4   -1    0    0  502    0  0.00000000000E+00  0.00000000000E+00  0.92038300370E+02  0.92047062066E+02  0.12700000000E+01 0.  1.
         -4   -1    0    0    0  501 -0.00000000000E+00 -0.00000000000E+00 -0.19104939600E+03  0.19105361711E+03  0.12700000000E+01 0.  1.
         25    2    1    2    0    0 -0.49571987803E+02  0.88763670863E+02 -0.79130153884E+02  0.17950713168E+03  0.12499943131E+03 0.  0.
    9000005    1    3    3    0    0 -0.33456250063E+02  0.86064344846E+02 -0.11057062104E+03  0.14405989851E+03  0.10000000000E+01 0.  0.
    9000005    1    3    3    0    0 -0.16115737741E+02  0.26993260169E+01  0.31440467157E+02  0.35447233163E+02  0.10000000000E+01 0.  0.
         21    1    1    2  502  501  0.49571987803E+02 -0.88763670863E+02 -0.19880941748E+02  0.10359354750E+03  0.00000000000E+00 0.  1.
<mgrwt>
<rscale>  1 0.16112489E+03</rscale>
<asrwt>0</asrwt>
<pdfrwt beam="1">  1        4 0.14160737E-01 0.16112489E+03</pdfrwt>
<pdfrwt beam="2">  1       -4 0.29393213E-01 0.16112489E+03</pdfrwt>
<totfact> 0.78859842E+02</totfact>
</mgrwt>
</event>
<event>
 6    4  0.5642870E-004  0.1293470E+03  0.7818608E-02  0.1228428E+00
         -4   -1    0    0    0  501 -0.00000000000E+00  0.00000000000E+00  0.37977763961E+01  0.40044981652E+01  0.12700000000E+01 0. -1.
          4   -1    0    0  502    0  0.00000000000E+00 -0.00000000000E+00 -0.19454732758E+04  0.19454736904E+04  0.12700000000E+01 0. -1.
         25    2    1    2    0    0  0.31358402933E+02 -0.11034400578E+02 -0.11781046565E+04  0.11851840439E+04  0.12500211459E+03 0.  0.
    9000005    1    3    3    0    0  0.41285762007E+02  0.50337662597E+02 -0.49692183103E+03  0.50116933324E+03  0.10000000000E+01 0.  0.
    9000005    1    3    3    0    0 -0.99273590741E+01 -0.61372063175E+02 -0.68118282551E+03  0.68401471063E+03  0.10000000000E+01 0.  0.
         21    1    1    2  502  501 -0.31358402933E+02  0.11034400578E+02 -0.76357084291E+03  0.76429414467E+03  0.00000000000E+00 0. -1.
<mgrwt>
<rscale>  1 0.12934696E+03</rscale>
<asrwt>0</asrwt>
<pdfrwt beam="2">  1        4 0.29931874E+00 0.12934696E+03</pdfrwt>
<pdfrwt beam="1">  1       -4 0.60020841E-03 0.12934696E+03</pdfrwt>
<totfact> 0.39942706E+02</totfact>
</mgrwt>
</event>
<event>
 6    4  0.5642870E-004  0.1274770E+03  0.7818608E-02  0.1231248E+00
          4   -1    0    0  502    0  0.00000000000E+00  0.00000000000E+00  0.12078308259E+03  0.12078975925E+03  0.12700000000E+01 0. -1.
         -4   -1    0    0    0  501 -0.00000000000E+00 -0.00000000000E+00 -0.49904673302E+02  0.49920830495E+02  0.12700000000E+01 0. -1.
         25    2    1    2    0    0  0.25589897184E+01 -0.24889566691E+02  0.46265211981E+02  0.13561289124E+03  0.12499738987E+03 0.  0.
    9000005    1    3    3    0    0  0.39754790184E+02  0.36702404237E+02  0.99992511638E+01  0.55031762131E+02  0.10000000000E+01 0.  0.
    9000005    1    3    3    0    0 -0.37195800466E+02 -0.61591970928E+02  0.36265960817E+02  0.80581129113E+02  0.10000000000E+01 0.  0.
         21    1    1    2  502  501 -0.25589897184E+01  0.24889566691E+02  0.24613197307E+02  0.35097698502E+02  0.00000000000E+00 0. -1.
<mgrwt>
<rscale>  1 0.12747700E+03</rscale>
<asrwt>0</asrwt>
<pdfrwt beam="1">  1        4 0.18583769E-01 0.12747700E+03</pdfrwt>
<pdfrwt beam="2">  1       -4 0.76793986E-02 0.12747700E+03</pdfrwt>
<totfact> 0.48963148E+03</totfact>
</mgrwt>
</event>
<event>
 6    4  0.5642870E-004  0.1391914E+03  0.7818608E-02  0.1214421E+00
         -4   -1    0    0    0  501 -0.00000000000E+00  0.00000000000E+00  0.10433389078E+03  0.10434162001E+03  0.12700000000E+01 0. -1.
          4   -1    0    0  502    0  0.00000000000E+00 -0.00000000000E+00 -0.15492147118E+03  0.15492667664E+03  0.12700000000E+01 0. -1.
         25    2    1    2    0    0 -0.38240165745E+02 -0.47817283413E+02  0.44536343431E+02  0.14614286293E+03  0.12500179050E+03 0.  0.
    9000005    1    3    3    0    0  0.15710429087E+02  0.27741083007E+02 -0.15614648042E+02  0.35513412986E+02  0.10000000000E+01 0.  0.
    9000005    1    3    3    0    0 -0.53950594832E+02 -0.75558366419E+02  0.60150991473E+02  0.11062944994E+03  0.10000000000E+01 0.  0.
         21    1    1    2  502  501  0.38240165745E+02  0.47817283413E+02 -0.95123923830E+02  0.11312543372E+03  0.00000000000E+00 0. -1.
<mgrwt>
<rscale>  1 0.13919142E+03</rscale>
<asrwt>0</asrwt>
<pdfrwt beam="2">  1        4 0.23835068E-01 0.13919142E+03</pdfrwt>
<pdfrwt beam="1">  1       -4 0.16052363E-01 0.13919142E+03</pdfrwt>
<totfact> 0.90889199E+02</totfact>
</mgrwt>
</event>
<event>
 6    4  0.5642870E-004  0.1666404E+03  0.7818608E-02  0.1181397E+00
          4   -1    0    0  502    0  0.00000000000E+00  0.00000000000E+00  0.21381908765E+02  0.21419592023E+02  0.12700000000E+01 0. -1.
         -4   -1    0    0    0  501 -0.00000000000E+00 -0.00000000000E+00 -0.10174641664E+04  0.10174649590E+04  0.12700000000E+01 0. -1.
         25    2    1    2    0    0 -0.99866327093E+02  0.46542391169E+02 -0.76419525325E+03  0.78215305653E+03  0.12501816383E+03 0.  0.
    9000005    1    3    3    0    0 -0.71439097370E+02  0.69940970605E+02 -0.29436031202E+03  0.31087662712E+03  0.10000000000E+01 0.  0.
    9000005    1    3    3    0    0 -0.28427229724E+02 -0.23398579437E+02 -0.46983494124E+03  0.47127642941E+03  0.10000000000E+01 0.  0.
         21    1    1    2  502  501  0.99866327093E+02 -0.46542391169E+02 -0.23188700433E+03  0.25673149445E+03  0.00000000000E+00 0. -1.
<mgrwt>
<rscale>  1 0.16664039E+03</rscale>
<asrwt>0</asrwt>
<pdfrwt beam="1">  1        4 0.32924849E-02 0.16664039E+03</pdfrwt>
<pdfrwt beam="2">  1       -4 0.15653587E+00 0.16664039E+03</pdfrwt>
<totfact> 0.22972814E+02</totfact>
</mgrwt>
</event>
<event>
 6    4  0.5642870E-004  0.1295402E+03  0.7818608E-02  0.1228140E+00
         -4   -1    0    0    0  501 -0.00000000000E+00  0.00000000000E+00  0.69049521400E+02  0.69061199712E+02  0.12700000000E+01 0.  1.
          4   -1    0    0  502    0  0.00000000000E+00 -0.00000000000E+00 -0.10183316803E+03  0.10184108705E+03  0.12700000000E+01 0.  1.
         25    2    1    2    0    0  0.88551201016E+01  0.32946898161E+02 -0.10100114412E+02  0.12993334872E+03  0.12496700183E+03 0.  0.
    9000005    1    3    3    0    0  0.20705341645E+02  0.31595396806E+02 -0.64216062234E+02  0.74509616297E+02  0.10000000000E+01 0.  0.
    9000005    1    3    3    0    0 -0.11850221543E+02  0.13515013550E+01  0.54115947822E+02  0.55423732419E+02  0.10000000000E+01 0.  0.
         21    1    1    2  502  501 -0.88551201016E+01 -0.32946898161E+02 -0.22683532218E+02  0.40968938043E+02  0.00000000000E+00 0.  1.
<mgrwt>
<rscale>  1 0.12954020E+03</rscale>
<asrwt>0</asrwt>
<pdfrwt beam="2">  1        4 0.15668149E-01 0.12954020E+03</pdfrwt>
<pdfrwt beam="1">  1       -4 0.10624511E-01 0.12954020E+03</pdfrwt>
<totfact> 0.38645327E+03</totfact>
</mgrwt>
</event>
<event>
 6    4  0.5642870E-004  0.1273099E+03  0.7818608E-02  0.1231503E+00
          4   -1    0    0  502    0  0.00000000000E+00  0.00000000000E+00  0.60904774419E+01  0.62214801672E+01  0.12700000000E+01 0. -1.
         -4   -1    0    0    0  501 -0.00000000000E+00 -0.00000000000E+00 -0.11105534304E+04  0.11105541565E+04  0.12700000000E+01 0. -1.
         25    2    1    2    0    0  0.43539848630E-01  0.24171960233E+02 -0.10428264448E+04  0.10505688040E+04  0.12499412986E+03 0.  0.
    9000005    1    3    3    0    0 -0.25778423632E+02  0.86500984368E+01 -0.47162429668E+02  0.54448563802E+02  0.10000000000E+01 0.  0.
    9000005    1    3    3    0    0  0.25821963480E+02  0.15521861796E+02 -0.99566401511E+03  0.99612024022E+03  0.10000000000E+01 0.  0.
         21    1    1    2  502  501 -0.43539848630E-01 -0.24171960233E+02 -0.61636508159E+02  0.66206832693E+02  0.00000000000E+00 0. -1.
<mgrwt>
<rscale>  1 0.12730993E+03</rscale>
<asrwt>0</asrwt>
<pdfrwt beam="1">  1        4 0.94713041E-03 0.12730993E+03</pdfrwt>
<pdfrwt beam="2">  1       -4 0.17086435E+00 0.12730993E+03</pdfrwt>
<totfact> 0.11803959E+03</totfact>
</mgrwt>
</event>
<event>
 6    4  0.5642870E-004  0.1288448E+03  0.7818608E-02  0.1229180E+00
          4   -1    0    0  502    0  0.00000000000E+00  0.00000000000E+00  0.37218680095E+02  0.37240341674E+02  0.12700000000E+01 0.  1.
         -4   -1    0    0    0  501 -0.00000000000E+00 -0.00000000000E+00 -0.17203595681E+03  0.17204064443E+03  0.12700000000E+01 0.  1.
         25    2    1    2    0    0 -0.10249547443E+02  0.29407608220E+02 -0.10584701839E+03  0.16674704070E+03  0.12502449215E+03 0.  0.
    9000005    1    3    3    0    0 -0.64759390422E+02  0.26604383550E+02 -0.80100617288E+02  0.10638928876E+03  0.10000000000E+01 0.  0.
    9000005    1    3    3    0    0  0.54509842979E+02  0.28032246700E+01 -0.25746401097E+02  0.60357751943E+02  0.10000000000E+01 0.  0.
         21    1    1    2  502  501  0.10249547443E+02 -0.29407608220E+02 -0.28970258327E+02  0.42533945403E+02  0.00000000000E+00 0.  1.
<mgrwt>
<rscale>  1 0.12884481E+03</rscale>
<asrwt>0</asrwt>
<pdfrwt beam="1">  1        4 0.57279777E-02 0.12884481E+03</pdfrwt>
<pdfrwt beam="2">  1       -4 0.26469097E-01 0.12884481E+03</pdfrwt>
<totfact> 0.41661150E+03</totfact>
</mgrwt>
</event>
<event>
 6    4  0.5642870E-004  0.1286035E+03  0.7818608E-02  0.1229543E+00
          4   -1    0    0  502    0  0.00000000000E+00  0.00000000000E+00  0.29009550250E+03  0.29009828243E+03  0.12700000000E+01 0.  1.
         -4   -1    0    0    0  501 -0.00000000000E+00 -0.00000000000E+00 -0.25239307699E+02  0.25271239643E+02  0.12700000000E+01 0.  1.
         25    2    1    2    0    0  0.69741125664E+01  0.29397681794E+02  0.15484823436E+03  0.20128791400E+03  0.12500394673E+03 0.  0.
    9000005    1    3    3    0    0  0.46798773236E+02 -0.21030318576E+02  0.26512662802E+02  0.57760893039E+02  0.10000000000E+01 0.  0.
    9000005    1    3    3    0    0 -0.39824660669E+02  0.50428000370E+02  0.12833557156E+03  0.14352702096E+03  0.10000000000E+01 0.  0.
         21    1    1    2  502  501 -0.69741125664E+01 -0.29397681794E+02  0.11000796044E+03  0.11408160807E+03  0.00000000000E+00 0.  1.
<mgrwt>
<rscale>  1 0.12860346E+03</rscale>
<asrwt>0</asrwt>
<pdfrwt beam="1">  1        4 0.44632749E-01 0.12860346E+03</pdfrwt>
<pdfrwt beam="2">  1       -4 0.38856404E-02 0.12860346E+03</pdfrwt>
<totfact> 0.28354194E+03</totfact>
</mgrwt>
</event>
<event>
 6    4  0.5642870E-004  0.1283965E+03  0.7818608E-02  0.1229855E+00
         -4   -1    0    0    0  501 -0.00000000000E+00  0.00000000000E+00  0.20431195722E+03  0.20431590433E+03  0.12700000000E+01 0.  1.
          4   -1    0    0  502    0  0.00000000000E+00 -0.00000000000E+00 -0.28663412959E+03  0.28663694310E+03  0.12700000000E+01 0.  1.
         25    2    1    2    0    0 -0.27162210254E+02 -0.11127264305E+02  0.18325475630E+03  0.22375871066E+03  0.12499621278E+03 0.  0.
    9000005    1    3    3    0    0 -0.57487708678E+02 -0.47453262159E+02  0.14445404017E+03  0.16255650851E+03  0.10000000000E+01 0.  0.
    9000005    1    3    3    0    0  0.30325498424E+02  0.36325997854E+02  0.38800716135E+02  0.61202202144E+02  0.10000000000E+01 0.  0.
         21    1    1    2  502  501  0.27162210254E+02  0.11127264305E+02 -0.26557692868E+03  0.26719413677E+03  0.00000000000E+00 0.  1.
<mgrwt>
<rscale>  1 0.12839648E+03</rscale>
<asrwt>0</asrwt>
<pdfrwt beam="2">  1        4 0.44098078E-01 0.12839648E+03</pdfrwt>
<pdfrwt beam="1">  1       -4 0.31433129E-01 0.12839648E+03</pdfrwt>
<totfact> 0.81088034E+01</totfact>
</mgrwt>
</event>
<event>
 6    4  0.5642870E-004  0.1275706E+03  0.7818608E-02  0.1231106E+00
         -4   -1    0    0    0  501 -0.00000000000E+00  0.00000000000E+00  0.20745724574E+02  0.20784561292E+02  0.12700000000E+01 0.  1.
          4   -1    0    0  502    0  0.00000000000E+00 -0.00000000000E+00 -0.29904697203E+03  0.29904966875E+03  0.12700000000E+01 0.  1.
         25    2    1    2    0    0 -0.18843643244E+02 -0.17150514367E+02 -0.19756443286E+03  0.23517221811E+03  0.12500017602E+03 0.  0.
    9000005    1    3    3    0    0 -0.22589449598E+02  0.49900352751E+02 -0.55255860952E+02  0.77810915734E+02  0.10000000000E+01 0.  0.
    9000005    1    3    3    0    0  0.37458063541E+01 -0.67050867118E+02 -0.14230857191E+03  0.15736130238E+03  0.10000000000E+01 0.  0.
         21    1    1    2  502  501  0.18843643244E+02  0.17150514367E+02 -0.80736814591E+02  0.84662011930E+02  0.00000000000E+00 0. -1.
<mgrwt>
<rscale>  1 0.12757064E+03</rscale>
<asrwt>0</asrwt>
<pdfrwt beam="2">  1        4 0.46010418E-01 0.12757064E+03</pdfrwt>
<pdfrwt beam="1">  1       -4 0.31948450E-02 0.12757064E+03</pdfrwt>
<totfact> 0.36252735E+03</totfact>
</mgrwt>
</event>
<event>
 6    4  0.5642870E-004  0.1325312E+03  0.7818608E-02  0.1223748E+00
         -4   -1    0    0    0  501 -0.00000000000E+00  0.00000000000E+00  0.20874280282E+02  0.20912878264E+02  0.12700000000E+01 0.  1.
          4   -1    0    0  502    0  0.00000000000E+00 -0.00000000000E+00 -0.11360722579E+04  0.11360729678E+04  0.12700000000E+01 0.  1.
         25    2    1    2    0    0 -0.17889402107E+02 -0.40248963597E+02 -0.19523265474E+03  0.23596673380E+03  0.12499800081E+03 0.  0.
    9000005    1    3    3    0    0 -0.10953376624E+02 -0.85400572085E+02 -0.13902024224E+03  0.16352633404E+03  0.10000000000E+01 0.  0.
    9000005    1    3    3    0    0 -0.69360254829E+01  0.45151608488E+02 -0.56212412502E+02  0.72440399763E+02  0.10000000000E+01 0.  0.
         21    1    1    2  502  501  0.17889402107E+02  0.40248963597E+02 -0.91996532290E+03  0.92101911224E+03  0.00000000000E+00 0.  1.
<mgrwt>
<rscale>  1 0.13253117E+03</rscale>
<asrwt>0</asrwt>
<pdfrwt beam="2">  1        4 0.17478332E+00 0.13253117E+03</pdfrwt>
<pdfrwt beam="1">  1       -4 0.32144523E-02 0.13253117E+03</pdfrwt>
<totfact> 0.17196945E+02</totfact>
</mgrwt>
</event>
<event>
 6    4  0.5642870E-004  0.1295705E+03  0.7818608E-02  0.1228094E+00
         -4   -1    0    0    0  501 -0.00000000000E+00  0.00000000000E+00  0.10049221401E+03  0.10050023869E+03  0.12700000000E+01 0. -1.
          4   -1    0    0  502    0  0.00000000000E+00 -0.00000000000E+00 -0.67988028190E+02  0.67999888802E+02  0.12700000000E+01 0. -1.
         25    2    1    2    0    0  0.33785976691E+02  0.46090552594E+01  0.35282102139E+02  0.13428825192E+03  0.12500308900E+03 0.  0.
    9000005    1    3    3    0    0  0.62969022046E+02 -0.18612354895E+02 -0.19052930827E+02  0.68377859467E+02  0.10000000000E+01 0.  0.
    9000005    1    3    3    0    0 -0.29183045355E+02  0.23221410154E+02  0.54335032966E+02  0.65910392452E+02  0.10000000000E+01 0.  0.
         21    1    1    2  502  501 -0.33785976691E+02 -0.46090552594E+01 -0.27779163162E+01  0.34211875576E+02  0.00000000000E+00 0. -1.
<mgrwt>
<rscale>  1 0.12957047E+03</rscale>
<asrwt>0</asrwt>
<pdfrwt beam="2">  1        4 0.10461226E-01 0.12957047E+03</pdfrwt>
<pdfrwt beam="1">  1       -4 0.15461870E-01 0.12957047E+03</pdfrwt>
<totfact> 0.40603912E+03</totfact>
</mgrwt>
</event>
<event>
 6    4  0.5642870E-004  0.1277172E+03  0.7818608E-02  0.1230883E+00
         -4   -1    0    0    0  501 -0.00000000000E+00  0.00000000000E+00  0.18397035323E+02  0.18440819089E+02  0.12700000000E+01 0.  1.
          4   -1    0    0  502    0  0.00000000000E+00 -0.00000000000E+00 -0.35674769847E+03  0.35674995903E+03  0.12700000000E+01 0.  1.
         25    2    1    2    0    0 -0.60527590779E+01 -0.25521529302E+02 -0.22382658244E+03  0.25770141940E+03  0.12499479270E+03 0.  0.
    9000005    1    3    3    0    0 -0.31827871479E+02  0.38937132640E+02 -0.14055036451E+03  0.14928000088E+03  0.10000000000E+01 0.  0.
    9000005    1    3    3    0    0  0.25775112401E+02 -0.64458661942E+02 -0.83276217935E+02  0.10842141851E+03  0.10000000000E+01 0.  0.
         21    1    1    2  502  501  0.60527590779E+01  0.25521529302E+02 -0.11452408071E+03  0.11748935872E+03  0.00000000000E+00 0. -1.
<mgrwt>
<rscale>  1 0.12771720E+03</rscale>
<asrwt>0</asrwt>
<pdfrwt beam="2">  1        4 0.54887798E-01 0.12771720E+03</pdfrwt>
<pdfrwt beam="1">  1       -4 0.28338553E-02 0.12771720E+03</pdfrwt>
<totfact> 0.30544025E+03</totfact>
</mgrwt>
</event>
<event>
 6    4  0.5642870E-004  0.1287824E+03  0.7818608E-02  0.1229274E+00
         -4   -1    0    0    0  501 -0.00000000000E+00  0.00000000000E+00  0.51652752452E+01  0.53191134937E+01  0.12700000000E+01 0. -1.
          4   -1    0    0  502    0  0.00000000000E+00 -0.00000000000E+00 -0.12816599340E+04  0.12816605632E+04  0.12700000000E+01 0. -1.
         25    2    1    2    0    0 -0.30346958824E+02 -0.62372885052E+01 -0.11251797811E+04  0.11325256905E+04  0.12500023210E+03 0.  0.
    9000005    1    3    3    0    0 -0.65777031654E+02 -0.39470203885E+02 -0.55460018221E+03  0.55988112755E+03  0.10000000000E+01 0.  0.
    9000005    1    3    3    0    0  0.35430072829E+02  0.33232915379E+02 -0.57057959891E+03  0.57264456290E+03  0.10000000000E+01 0.  0.
         21    1    1    2  502  501  0.30346958824E+02  0.62372885052E+01 -0.15131487760E+03  0.15445398623E+03  0.00000000000E+00 0. -1.
<mgrwt>
<rscale>  1 0.12878237E+03</rscale>
<asrwt>0</asrwt>
<pdfrwt beam="2">  1        4 0.19719008E+00 0.12878237E+03</pdfrwt>
<pdfrwt beam="1">  1       -4 0.80654086E-03 0.12878237E+03</pdfrwt>
<totfact> 0.10160651E+03</totfact>
</mgrwt>
</event>
<event>
 6    4  0.5642870E-004  0.1270312E+03  0.7818608E-02  0.1231929E+00
          4   -1    0    0  502    0  0.00000000000E+00  0.00000000000E+00  0.85983078626E+02  0.85992457286E+02  0.12700000000E+01 0.  1.
         -4   -1    0    0    0  501 -0.00000000000E+00 -0.00000000000E+00 -0.68944135209E+02  0.68955831368E+02  0.12700000000E+01 0.  1.
         25    2    1    2    0    0 -0.19041348854E+02  0.12224855323E+02  0.69154795303E+00  0.12703310654E+03  0.12499964746E+03 0.  0.
    9000005    1    3    3    0    0 -0.67720858870E+02 -0.13104453827E+02 -0.13614788045E+02  0.70315033170E+02  0.10000000000E+01 0.  0.
    9000005    1    3    3    0    0  0.48679510016E+02  0.25329309151E+02  0.14306335998E+02  0.56718073373E+02  0.10000000000E+01 0.  0.
         21    1    1    2  502  501  0.19041348854E+02 -0.12224855323E+02  0.16347395464E+02  0.27915182111E+02  0.00000000000E+00 0. -1.
<mgrwt>
<rscale>  1 0.12703122E+03</rscale>
<asrwt>0</asrwt>
<pdfrwt beam="1">  1        4 0.13229787E-01 0.12703122E+03</pdfrwt>
<pdfrwt beam="2">  1       -4 0.10608411E-01 0.12703122E+03</pdfrwt>
<totfact> 0.51727203E+03</totfact>
</mgrwt>
</event>
<event>
 6    4  0.5642870E-004  0.1361157E+03  0.7818608E-02  0.1218653E+00
          4   -1    0    0  502    0  0.00000000000E+00  0.00000000000E+00  0.75667486745E+02  0.75678143809E+02  0.12700000000E+01 0.  1.
         -4   -1    0    0    0  501 -0.00000000000E+00 -0.00000000000E+00 -0.21223203069E+03  0.21223583050E+03  0.12700000000E+01 0.  1.
         25    2    1    2    0    0 -0.42860764656E+02  0.32643611596E+02 -0.17502138765E+03  0.22172047499E+03  0.12499932947E+03 0.  0.
    9000005    1    3    3    0    0 -0.69108271964E+02  0.29883049854E+02 -0.42239286229E+02  0.86337171737E+02  0.10000000000E+01 0.  0.
    9000005    1    3    3    0    0  0.26247507308E+02  0.27605617422E+01 -0.13278210142E+03  0.13538330325E+03  0.10000000000E+01 0.  0.
         21    1    1    2  502  501  0.42860764656E+02 -0.32643611596E+02  0.38456843709E+02  0.66193499326E+02  0.00000000000E+00 0.  1.
<mgrwt>
<rscale>  1 0.13611570E+03</rscale>
<asrwt>0</asrwt>
<pdfrwt beam="1">  1        4 0.11642264E-01 0.13611570E+03</pdfrwt>
<pdfrwt beam="2">  1       -4 0.32652193E-01 0.13611570E+03</pdfrwt>
<totfact> 0.87513882E+02</totfact>
</mgrwt>
</event>
<event>
 6    4  0.5642870E-004  0.1275974E+03  0.7818608E-02  0.1231065E+00
          4   -1    0    0  502    0  0.00000000000E+00  0.00000000000E+00  0.32068443280E+02  0.32093581203E+02  0.12700000000E+01 0.  1.
         -4   -1    0    0    0  501 -0.00000000000E+00 -0.00000000000E+00 -0.18321406833E+03  0.18321846996E+03  0.12700000000E+01 0.  1.
         25    2    1    2    0    0  0.65746246310E+01 -0.24746072095E+02 -0.12233692852E+03  0.17676941543E+03  0.12500203350E+03 0.  0.
    9000005    1    3    3    0    0 -0.49108006582E+02 -0.40743843460E+02 -0.37458440747E+02  0.73998593727E+02  0.10000000000E+01 0.  0.
    9000005    1    3    3    0    0  0.55682631213E+02  0.15997771365E+02 -0.84878487775E+02  0.10277082171E+03  0.10000000000E+01 0.  0.
         21    1    1    2  502  501 -0.65746246310E+01  0.24746072095E+02 -0.28808696526E+02  0.38542635726E+02  0.00000000000E+00 0.  1.
<mgrwt>
<rscale>  1 0.12759742E+03</rscale>
<asrwt>0</asrwt>
<pdfrwt beam="1">  1        4 0.49358791E-02 0.12759742E+03</pdfrwt>
<pdfrwt beam="2">  1       -4 0.28189051E-01 0.12759742E+03</pdfrwt>
<totfact> 0.46973882E+03</totfact>
</mgrwt>
</event>
<event>
 6    4  0.5642870E-004  0.1300203E+03  0.7818608E-02  0.1227426E+00
          4   -1    0    0  502    0  0.00000000000E+00  0.00000000000E+00  0.67641325656E+03  0.67641444880E+03  0.12700000000E+01 0. -1.
         -4   -1    0    0    0  501 -0.00000000000E+00 -0.00000000000E+00 -0.10620604179E+02  0.10696267252E+02  0.12700000000E+01 0. -1.
         25    2    1    2    0    0  0.17445042935E+01  0.35729829139E+02  0.57517776309E+03  0.58969037861E+03  0.12500247796E+03 0.  0.
    9000005    1    3    3    0    0  0.39368234125E+02  0.65850118821E+02  0.42788726019E+03  0.43471209258E+03  0.10000000000E+01 0.  0.
    9000005    1    3    3    0    0 -0.37623729831E+02 -0.30120289682E+02  0.14729050290E+03  0.15497828603E+03  0.10000000000E+01 0.  0.
         21    1    1    2  502  501 -0.17445042935E+01 -0.35729829139E+02  0.90614889293E+02  0.97420337441E+02  0.00000000000E+00 0. -1.
<mgrwt>
<rscale>  1 0.13002032E+03</rscale>
<asrwt>0</asrwt>
<pdfrwt beam="1">  1        4 0.10406948E+00 0.13002032E+03</pdfrwt>
<pdfrwt beam="2">  1       -4 0.16398511E-02 0.13002032E+03</pdfrwt>
<totfact> 0.17590558E+03</totfact>
</mgrwt>
</event>
<event>
 6    4  0.5642870E-004  0.1481360E+03  0.7818608E-02  0.1202782E+00
         -4   -1    0    0    0  501 -0.00000000000E+00  0.00000000000E+00  0.19552421312E+04  0.19552425436E+04  0.12700000000E+01 0. -1.
          4   -1    0    0  502    0  0.00000000000E+00 -0.00000000000E+00 -0.77756975058E+01  0.78787290664E+01  0.12700000000E+01 0. -1.
         25    2    1    2    0    0  0.49625061242E+02 -0.62101869387E+02  0.15918665070E+04  0.15987442746E+04  0.12499996248E+03 0.  0.
    9000005    1    3    3    0    0 -0.25497422167E+02 -0.54631977483E+02  0.10387711767E+04  0.10405197399E+04  0.10000000000E+01 0.  0.
    9000005    1    3    3    0    0  0.75122483409E+02 -0.74698919041E+01  0.55309533023E+03  0.55822453468E+03  0.10000000000E+01 0.  0.
         21    1    1    2  502  501 -0.49625061242E+02  0.62101869387E+02  0.35559992669E+03  0.36437699810E+03  0.00000000000E+00 0. -1.
<mgrwt>
<rscale>  1 0.14813602E+03</rscale>
<asrwt>0</asrwt>
<pdfrwt beam="2">  1        4 0.12042200E-02 0.14813602E+03</pdfrwt>
<pdfrwt beam="1">  1       -4 0.30081403E+00 0.14813602E+03</pdfrwt>
<totfact> 0.14024243E+02</totfact>
</mgrwt>
</event>
<event>
 6    4  0.5642870E-004  0.1272495E+03  0.7818608E-02  0.1231595E+00
          4   -1    0    0  502    0  0.00000000000E+00  0.00000000000E+00  0.22166609954E+03  0.22166973764E+03  0.12700000000E+01 0. -1.
         -4   -1    0    0    0  501 -0.00000000000E+00 -0.00000000000E+00 -0.28227464186E+02  0.28256019436E+02  0.12700000000E+01 0. -1.
         25    2    1    2    0    0  0.22519946467E+02 -0.77780387772E+01  0.12889558506E+03  0.18112567555E+03  0.12499917048E+03 0.  0.
    9000005    1    3    3    0    0 -0.23554891097E+02 -0.41959195020E+02  0.11105884596E+03  0.12103914328E+03  0.10000000000E+01 0.  0.
    9000005    1    3    3    0    0  0.46074837565E+02  0.34181156243E+02  0.17836739105E+02  0.60086532273E+02  0.10000000000E+01 0.  0.
         21    1    1    2  502  501 -0.22519946467E+02  0.77780387772E+01  0.64543050291E+02  0.68800081518E+02  0.00000000000E+00 0. -1.
<mgrwt>
<rscale>  1 0.12724951E+03</rscale>
<asrwt>0</asrwt>
<pdfrwt beam="1">  1        4 0.34104952E-01 0.12724951E+03</pdfrwt>
<pdfrwt beam="2">  1       -4 0.43451634E-02 0.12724951E+03</pdfrwt>
<totfact> 0.40105875E+03</totfact>
</mgrwt>
</event>
<event>
 6    4  0.5642870E-004  0.1331344E+03  0.7818608E-02  0.1222878E+00
          4   -1    0    0  502    0  0.00000000000E+00  0.00000000000E+00  0.51863349310E+02  0.51878896496E+02  0.12700000000E+01 0. -1.
         -4   -1    0    0    0  501 -0.00000000000E+00 -0.00000000000E+00 -0.16379390579E+03  0.16379882929E+03  0.12700000000E+01 0. -1.
         25    2    1    2    0    0 -0.37378258323E+02  0.26518090360E+02 -0.10450294926E+03  0.16925022681E+03  0.12499771822E+03 0.  0.
    9000005    1    3    3    0    0 -0.14887480027E+02  0.19955954894E+02 -0.13129890824E+03  0.13364236044E+03  0.10000000000E+01 0.  0.
    9000005    1    3    3    0    0 -0.22490778296E+02  0.65621354665E+01  0.26795958979E+02  0.35607866376E+02  0.10000000000E+01 0.  0.
         21    1    1    2  502  501  0.37378258323E+02 -0.26518090360E+02 -0.74276072203E+01  0.46427498970E+02  0.00000000000E+00 0.  1.
<mgrwt>
<rscale>  1 0.13313442E+03</rscale>
<asrwt>0</asrwt>
<pdfrwt beam="1">  1        4 0.79805515E-02 0.13313442E+03</pdfrwt>
<pdfrwt beam="2">  1       -4 0.25200637E-01 0.13313442E+03</pdfrwt>
<totfact> 0.26725068E+03</totfact>
</mgrwt>
</event>
<event>
 6    4  0.5642870E-004  0.1278924E+03  0.7818608E-02  0.1230617E+00
         -4   -1    0    0    0  501 -0.00000000000E+00  0.00000000000E+00  0.26604938741E+03  0.26605241859E+03  0.12700000000E+01 0.  1.
          4   -1    0    0  502    0  0.00000000000E+00 -0.00000000000E+00 -0.24647450469E+02  0.24680148189E+02  0.12700000000E+01 0.  1.
         25    2    1    2    0    0  0.26977676198E+02 -0.18706896118E+01  0.22582308218E+03  0.25952367049E+03  0.12500070641E+03 0.  0.
    9000005    1    3    3    0    0 -0.24211436917E+02  0.11875279328E+02 -0.58535956723E+00  0.26991824365E+02  0.10000000000E+01 0.  0.
    9000005    1    3    3    0    0  0.51189113115E+02 -0.13745968940E+02  0.22640844175E+03  0.23253184612E+03  0.10000000000E+01 0.  0.
         21    1    1    2  502  501 -0.26977676198E+02  0.18706896118E+01  0.15578854751E+02  0.31208896296E+02  0.00000000000E+00 0.  1.
<mgrwt>
<rscale>  1 0.12789242E+03</rscale>
<asrwt>0</asrwt>
<pdfrwt beam="2">  1        4 0.37946637E-02 0.12789242E+03</pdfrwt>
<pdfrwt beam="1">  1       -4 0.40933425E-01 0.12789242E+03</pdfrwt>
<totfact> 0.34907497E+03</totfact>
</mgrwt>
</event>
<event>
 6    4  0.5642870E-004  0.1319731E+03  0.7818608E-02  0.1224557E+00
         -4   -1    0    0    0  501 -0.00000000000E+00  0.00000000000E+00  0.16065144811E+02  0.16115265365E+02  0.12700000000E+01 0.  1.
          4   -1    0    0  502    0  0.00000000000E+00 -0.00000000000E+00 -0.48722310353E+03  0.48722475872E+03  0.12700000000E+01 0.  1.
         25    2    1    2    0    0 -0.17607193558E+02 -0.38502567625E+02 -0.39125958480E+03  0.41291762015E+03  0.12499774940E+03 0.  0.
    9000005    1    3    3    0    0 -0.10752423549E+01 -0.48959494173E+02 -0.46295112650E+02  0.67397519769E+02  0.10000000000E+01 0.  0.
    9000005    1    3    3    0    0 -0.16531951203E+02  0.10456926548E+02 -0.34496447215E+03  0.34552010038E+03  0.10000000000E+01 0.  0.
         21    1    1    2  502  501  0.17607193558E+02  0.38502567625E+02 -0.79898373917E+02  0.90422403935E+02  0.00000000000E+00 0.  1.
<mgrwt>
<rscale>  1 0.13197310E+03</rscale>
<asrwt>0</asrwt>
<pdfrwt beam="2">  1        4 0.74961372E-01 0.13197310E+03</pdfrwt>
<pdfrwt beam="1">  1       -4 0.24755439E-02 0.13197310E+03</pdfrwt>
<totfact> 0.19600870E+03</totfact>
</mgrwt>
</event>
<event>
 6    4  0.5642870E-004  0.1351121E+03  0.7818608E-02  0.1220062E+00
          4   -1    0    0  502    0  0.00000000000E+00  0.00000000000E+00  0.19247172929E+03  0.19247591921E+03  0.12700000000E+01 0. -1.
         -4   -1    0    0    0  501 -0.00000000000E+00 -0.00000000000E+00 -0.45208384005E+02  0.45226218992E+02  0.12700000000E+01 0. -1.
         25    2    1    2    0    0  0.50576900077E+02 -0.85407372919E+01  0.11140168132E+03  0.17511598991E+03  0.12499723321E+03 0.  0.
    9000005    1    3    3    0    0  0.57414691111E+02 -0.29771234284E+02  0.13055481795E+03  0.14569946341E+03  0.10000000000E+01 0.  0.
    9000005    1    3    3    0    0 -0.68377910340E+01  0.21230496992E+02 -0.19153136637E+02  0.29416526508E+02  0.10000000000E+01 0.  0.
         21    1    1    2  502  501 -0.50576900077E+02  0.85407372919E+01  0.35861663970E+02  0.62586148289E+02  0.00000000000E+00 0. -1.
<mgrwt>
<rscale>  1 0.13511208E+03</rscale>
<asrwt>0</asrwt>
<pdfrwt beam="1">  1        4 0.29612729E-01 0.13511208E+03</pdfrwt>
<pdfrwt beam="2">  1       -4 0.69568303E-02 0.13511208E+03</pdfrwt>
<totfact> 0.24879737E+03</totfact>
</mgrwt>
</event>
<event>
 6    4  0.5642870E-004  0.1416174E+03  0.7818608E-02  0.1211169E+00
         -4   -1    0    0    0  501 -0.00000000000E+00  0.00000000000E+00  0.61719212829E+02  0.61732277879E+02  0.12700000000E+01 0. -1.
          4   -1    0    0  502    0  0.00000000000E+00 -0.00000000000E+00 -0.21020836174E+03  0.21021219814E+03  0.12700000000E+01 0. -1.
         25    2    1    2    0    0  0.66124222201E+02  0.75925419891E+01 -0.44436798614E+02  0.14842544486E+03  0.12500169661E+03 0.  0.
    9000005    1    3    3    0    0 -0.31082477694E+01 -0.47641599458E+01 -0.72478170393E+02  0.72707933595E+02  0.10000000000E+01 0.  0.
    9000005    1    3    3    0    0  0.69232469970E+02  0.12356701935E+02  0.28041371778E+02  0.75717511265E+02  0.10000000000E+01 0.  0.
         21    1    1    2  502  501 -0.66124222201E+02 -0.75925419891E+01 -0.10405235030E+03  0.12351903116E+03  0.00000000000E+00 0. -1.
<mgrwt>
<rscale>  1 0.14161738E+03</rscale>
<asrwt>0</asrwt>
<pdfrwt beam="2">  1        4 0.32341048E-01 0.14161738E+03</pdfrwt>
<pdfrwt beam="1">  1       -4 0.94965637E-02 0.14161738E+03</pdfrwt>
<totfact> 0.12685872E+03</totfact>
</mgrwt>
</event>
<event>
 6    4  0.5642870E-004  0.1339382E+03  0.7818608E-02  0.1221726E+00
          4   -1    0    0  502    0  0.00000000000E+00  0.00000000000E+00  0.38292600193E+03  0.38292810795E+03  0.12700000000E+01 0.  1.
         -4   -1    0    0    0  501 -0.00000000000E+00 -0.00000000000E+00 -0.30483560378E+02  0.30510004151E+02  0.12700000000E+01 0.  1.
         25    2    1    2    0    0 -0.44791075435E+02 -0.17575558188E+02  0.13289879363E+03  0.18868368160E+03  0.12499720665E+03 0.  0.
    9000005    1    3    3    0    0 -0.75583455491E+02 -0.47722531255E+02  0.10211204380E+03  0.13571355210E+03  0.10000000000E+01 0.  0.
    9000005    1    3    3    0    0  0.30792380055E+02  0.30146973067E+02  0.30786749823E+02  0.52970129500E+02  0.10000000000E+01 0.  0.
         21    1    1    2  502  501  0.44791075435E+02  0.17575558188E+02  0.21954364793E+03  0.22475443050E+03  0.00000000000E+00 0. -1.
<mgrwt>
<rscale>  1 0.13393820E+03</rscale>
<asrwt>0</asrwt>
<pdfrwt beam="1">  1        4 0.58913888E-01 0.13393820E+03</pdfrwt>
<pdfrwt beam="2">  1       -4 0.46919747E-02 0.13393820E+03</pdfrwt>
<totfact> 0.12014558E+03</totfact>
</mgrwt>
</event>
<event>
 6    4  0.5642870E-004  0.1323698E+03  0.7818608E-02  0.1223981E+00
         -4   -1    0    0    0  501 -0.00000000000E+00  0.00000000000E+00  0.21860762956E+03  0.21861131856E+03  0.12700000000E+01 0. -1.
          4   -1    0    0  502    0  0.00000000000E+00 -0.00000000000E+00 -0.17915780886E+03  0.17916231015E+03  0.12700000000E+01 0. -1.
         25    2    1    2    0    0 -0.69216911970E+00  0.43540804582E+02  0.19531240206E+03  0.23594215762E+03  0.12500194632E+03 0.  0.
    9000005    1    3    3    0    0 -0.47882068753E+02 -0.15566197557E+02  0.11539300564E+03  0.12590291801E+03  0.10000000000E+01 0.  0.
    9000005    1    3    3    0    0  0.47189899633E+02  0.59107002139E+02  0.79919396423E+02  0.11003923961E+03  0.10000000000E+01 0.  0.
         21    1    1    2  502  501  0.69216911970E+00 -0.43540804582E+02 -0.15586258137E+03  0.16183147108E+03  0.00000000000E+00 0. -1.
<mgrwt>
<rscale>  1 0.13236981E+03</rscale>
<asrwt>0</asrwt>
<pdfrwt beam="2">  1        4 0.27563370E-01 0.13236981E+03</pdfrwt>
<pdfrwt beam="1">  1       -4 0.33632573E-01 0.13236981E+03</pdfrwt>
<totfact> 0.17733626E+02</totfact>
</mgrwt>
</event>
<event>
 6    4  0.5642870E-004  0.1272251E+03  0.7818608E-02  0.1231632E+00
         -4   -1    0    0    0  501 -0.00000000000E+00  0.00000000000E+00  0.73086928026E+02  0.73097961314E+02  0.12700000000E+01 0.  1.
          4   -1    0    0  502    0  0.00000000000E+00 -0.00000000000E+00 -0.78338746246E+02  0.78349039965E+02  0.12700000000E+01 0.  1.
         25    2    1    2    0    0 -0.20012089001E+02  0.12766056867E+02 -0.43422813581E+00  0.12722583103E+03  0.12499107013E+03 0.  0.
    9000005    1    3    3    0    0 -0.58691476907E+02 -0.27398903819E+02 -0.20515291834E+02  0.67950471603E+02  0.10000000000E+01 0.  0.
    9000005    1    3    3    0    0  0.38679387907E+02  0.40164960686E+02  0.20081063698E+02  0.59275359425E+02  0.10000000000E+01 0.  0.
         21    1    1    2  502  501  0.20012089001E+02 -0.12766056867E+02 -0.48175900844E+01  0.24221170251E+02  0.00000000000E+00 0. -1.
<mgrwt>
<rscale>  1 0.12722509E+03</rscale>
<asrwt>0</asrwt>
<pdfrwt beam="2">  1        4 0.12053755E-01 0.12722509E+03</pdfrwt>
<pdfrwt beam="1">  1       -4 0.11245783E-01 0.12722509E+03</pdfrwt>
<totfact> 0.54994340E+03</totfact>
</mgrwt>
</event>
<event>
 6    4  0.5642870E-004  0.1267040E+03  0.7818608E-02  0.1232430E+00
         -4   -1    0    0    0  501 -0.00000000000E+00  0.00000000000E+00  0.31778796835E+01  0.34222535386E+01  0.12700000000E+01 0.  1.
          4   -1    0    0  502    0  0.00000000000E+00 -0.00000000000E+00 -0.16609264229E+04  0.16609269085E+04  0.12700000000E+01 0.  1.
         25    2    1    2    0    0  0.50608287581E+01 -0.20089796056E+02 -0.14742675616E+04  0.14797022490E+04  0.12499876134E+03 0.  0.
    9000005    1    3    3    0    0 -0.22635876654E+02  0.69602674153E+01 -0.13333297701E+04  0.13335404396E+04  0.10000000000E+01 0.  0.
    9000005    1    3    3    0    0  0.27696705413E+02 -0.27050063471E+02 -0.14093779152E+03  0.14616180932E+03  0.10000000000E+01 0.  0.
         21    1    1    2  502  501 -0.50608287581E+01  0.20089796056E+02 -0.18348098161E+03  0.18464691307E+03  0.00000000000E+00 0.  1.
<mgrwt>
<rscale>  1 0.12670399E+03</rscale>
<asrwt>0</asrwt>
<pdfrwt beam="2">  1        4 0.25554531E+00 0.12670399E+03</pdfrwt>
<pdfrwt beam="1">  1       -4 0.50774123E-03 0.12670399E+03</pdfrwt>
<totfact> 0.90897686E+02</totfact>
</mgrwt>
</event>
<event>
 6    4  0.5642870E-004  0.1307609E+03  0.7818608E-02  0.1226331E+00
         -4   -1    0    0    0  501 -0.00000000000E+00  0.00000000000E+00  0.24900840939E+03  0.24901164801E+03  0.12700000000E+01 0.  1.
          4   -1    0    0  502    0  0.00000000000E+00 -0.00000000000E+00 -0.30949519101E+02  0.30975565089E+02  0.12700000000E+01 0.  1.
         25    2    1    2    0    0 -0.10608364464E+02 -0.36884065763E+02  0.19631287463E+03  0.23587529974E+03  0.12500176229E+03 0.  0.
    9000005    1    3    3    0    0 -0.18113439993E+02 -0.36091333695E+02  0.21338925052E+03  0.21717885098E+03  0.10000000000E+01 0.  0.
    9000005    1    3    3    0    0  0.75050755287E+01 -0.79273206852E+00 -0.17076375886E+02  0.18696448760E+02  0.10000000000E+01 0.  0.
         21    1    1    2  502  501  0.10608364464E+02  0.36884065763E+02  0.21746015659E+02  0.44111913367E+02  0.00000000000E+00 0.  1.
<mgrwt>
<rscale>  1 0.13076090E+03</rscale>
<asrwt>0</asrwt>
<pdfrwt beam="2">  1        4 0.47637172E-02 0.13076090E+03</pdfrwt>
<pdfrwt beam="1">  1       -4 0.38311239E-01 0.13076090E+03</pdfrwt>
<totfact> 0.27825672E+03</totfact>
</mgrwt>
</event>
<event>
 6    4  0.5642870E-004  0.1347117E+03  0.7818608E-02  0.1220627E+00
         -4   -1    0    0    0  501 -0.00000000000E+00  0.00000000000E+00  0.18415578661E+03  0.18416016573E+03  0.12700000000E+01 0.  1.
          4   -1    0    0  502    0  0.00000000000E+00 -0.00000000000E+00 -0.48631206424E+02  0.48647786571E+02  0.12700000000E+01 0.  1.
         25    2    1    2    0    0 -0.26804485484E+02  0.42443468083E+02  0.11960285956E+03  0.18014459110E+03  0.12500920472E+03 0.  0.
    9000005    1    3    3    0    0  0.34647657062E+02  0.97789177812E+01  0.10225769002E+03  0.10841458639E+03  0.10000000000E+01 0.  0.
    9000005    1    3    3    0    0 -0.61452142546E+02  0.32664550302E+02  0.17345169535E+02  0.71730004713E+02  0.10000000000E+01 0.  0.
         21    1    1    2  502  501  0.26804485484E+02 -0.42443468083E+02  0.15921720626E+02  0.52663361198E+02  0.00000000000E+00 0.  1.
<mgrwt>
<rscale>  1 0.13471165E+03</rscale>
<asrwt>0</asrwt>
<pdfrwt beam="2">  1        4 0.74833363E-02 0.13471165E+03</pdfrwt>
<pdfrwt beam="1">  1       -4 0.28333272E-01 0.13471165E+03</pdfrwt>
<totfact> 0.23962202E+03</totfact>
</mgrwt>
</event>
<event>
 6    4  0.5642870E-004  0.1275450E+03  0.7818608E-02  0.1231145E+00
         -4   -1    0    0    0  501 -0.00000000000E+00  0.00000000000E+00  0.17065157440E+03  0.17065630005E+03  0.12700000000E+01 0.  1.
          4   -1    0    0  502    0  0.00000000000E+00 -0.00000000000E+00 -0.34503954948E+02  0.34527319720E+02  0.12700000000E+01 0.  1.
         25    2    1    2    0    0  0.23680317128E+02  0.90272419078E+01  0.12007887625E+03  0.17517607032E+03  0.12500188229E+03 0.  0.
    9000005    1    3    3    0    0 -0.33965309098E+02 -0.12511720194E+02  0.10603566649E+03  0.11204797157E+03  0.10000000000E+01 0.  0.
    9000005    1    3    3    0    0  0.57645626226E+02  0.21538962102E+02  0.14043209755E+02  0.63128098749E+02  0.10000000000E+01 0.  0.
         21    1    1    2  502  501 -0.23680317128E+02 -0.90272419078E+01  0.16068743211E+02  0.30007549452E+02  0.00000000000E+00 0.  1.
<mgrwt>
<rscale>  1 0.12754497E+03</rscale>
<asrwt>0</asrwt>
<pdfrwt beam="2">  1        4 0.53104615E-02 0.12754497E+03</pdfrwt>
<pdfrwt beam="1">  1       -4 0.26256249E-01 0.12754497E+03</pdfrwt>
<totfact> 0.47667216E+03</totfact>
</mgrwt>
</event>
<event>
 6    4  0.5642870E-004  0.1268311E+03  0.7818608E-02  0.1232235E+00
          4   -1    0    0  502    0  0.00000000000E+00  0.00000000000E+00  0.65698557856E+02  0.65710831713E+02  0.12700000000E+01 0.  1.
         -4   -1    0    0    0  501 -0.00000000000E+00 -0.00000000000E+00 -0.96385377361E+02  0.96393743931E+02  0.12700000000E+01 0.  1.
         25    2    1    2    0    0 -0.17500178496E+02 -0.12357285408E+02 -0.46913693584E+02  0.13522949067E+03  0.12500864670E+03 0.  0.
    9000005    1    3    3    0    0 -0.93171462099E+01  0.37536908426E+01  0.42663984322E+02  0.43841931602E+02  0.10000000000E+01 0.  0.
    9000005    1    3    3    0    0 -0.81830322857E+01 -0.16110976251E+02 -0.89577677906E+02  0.91387559066E+02  0.10000000000E+01 0.  0.
         21    1    1    2  502  501  0.17500178496E+02  0.12357285408E+02  0.16226874079E+02  0.26875084975E+02  0.00000000000E+00 0.  1.
<mgrwt>
<rscale>  1 0.12683107E+03</rscale>
<asrwt>0</asrwt>
<pdfrwt beam="1">  1        4 0.10109058E-01 0.12683107E+03</pdfrwt>
<pdfrwt beam="2">  1       -4 0.14830107E-01 0.12683107E+03</pdfrwt>
<totfact> 0.46022041E+03</totfact>
</mgrwt>
</event>
<event>
 6    4  0.5642870E-004  0.1272017E+03  0.7818608E-02  0.1231668E+00
         -4   -1    0    0    0  501 -0.00000000000E+00  0.00000000000E+00  0.31672902318E+02  0.31698353920E+02  0.12700000000E+01 0.  1.
          4   -1    0    0  502    0  0.00000000000E+00 -0.00000000000E+00 -0.20747133511E+03  0.20747522212E+03  0.12700000000E+01 0.  1.
         25    2    1    2    0    0 -0.14746720962E+02  0.18279356771E+02 -0.10615918903E+03  0.16568054960E+03  0.12501468089E+03 0.  0.
    9000005    1    3    3    0    0 -0.55533510699E+00  0.67133799617E+02 -0.90012281603E+02  0.11229633248E+03  0.10000000000E+01 0.  0.
    9000005    1    3    3    0    0 -0.14191385855E+02 -0.48854442847E+02 -0.16146907425E+02  0.53384217122E+02  0.10000000000E+01 0.  0.
         21    1    1    2  502  501  0.14746720962E+02 -0.18279356771E+02 -0.69639243763E+02  0.73493026438E+02  0.00000000000E+00 0.  1.
<mgrwt>
<rscale>  1 0.12720169E+03</rscale>
<asrwt>0</asrwt>
<pdfrwt beam="2">  1        4 0.31920923E-01 0.12720169E+03</pdfrwt>
<pdfrwt beam="1">  1       -4 0.48750112E-02 0.12720169E+03</pdfrwt>
<totfact> 0.37866220E+03</totfact>
</mgrwt>
</event>
<event>
 6    4  0.5642870E-004  0.1272874E+03  0.7818608E-02  0.1231537E+00
         -4   -1    0    0    0  501 -0.00000000000E+00  0.00000000000E+00  0.98947287605E+03  0.98947369108E+03  0.12700000000E+01 0. -1.
          4   -1    0    0  502    0  0.00000000000E+00 -0.00000000000E+00 -0.57228168375E+01  0.58620416712E+01  0.12700000000E+01 0. -1.
         25    2    1    2    0    0  0.17367988350E+02  0.16613559088E+02  0.84037525322E+03  0.84996038286E+03  0.12499771529E+03 0.  0.
    9000005    1    3    3    0    0  0.31103395422E+02  0.64656989063E+02  0.61126609213E+03  0.61546338870E+03  0.10000000000E+01 0.  0.
    9000005    1    3    3    0    0 -0.13735407073E+02 -0.48043429974E+02  0.22910916110E+03  0.23449699416E+03  0.10000000000E+01 0.  0.
         21    1    1    2  502  501 -0.17367988350E+02 -0.16613559088E+02  0.14337480599E+03  0.14537534990E+03  0.00000000000E+00 0.  1.
<mgrwt>
<rscale>  1 0.12728742E+03</rscale>
<asrwt>0</asrwt>
<pdfrwt beam="2">  1        4 0.89120561E-03 0.12728742E+03</pdfrwt>
<pdfrwt beam="1">  1       -4 0.15223738E+00 0.12728742E+03</pdfrwt>
<totfact> 0.17469626E+03</totfact>
</mgrwt>
</event>
<event>
 6    4  0.5642870E-004  0.1411122E+03  0.7818608E-02  0.1211840E+00
         -4   -1    0    0    0  501 -0.00000000000E+00  0.00000000000E+00  0.11174983658E+03  0.11175705291E+03  0.12700000000E+01 0. -1.
          4   -1    0    0  502    0  0.00000000000E+00 -0.00000000000E+00 -0.97335109161E+02  0.97343394102E+02  0.12700000000E+01 0. -1.
         25    2    1    2    0    0 -0.13933201636E+02 -0.63980451300E+02 -0.37009098476E+01  0.14116070481E+03  0.12500006237E+03 0.  0.
    9000005    1    3    3    0    0  0.33720029354E+02  0.10884623493E+02  0.29788678980E+02  0.46302060468E+02  0.10000000000E+01 0.  0.
    9000005    1    3    3    0    0 -0.47653230990E+02 -0.74865074792E+02 -0.33489588828E+02  0.94858644347E+02  0.10000000000E+01 0.  0.
         21    1    1    2  502  501  0.13933201636E+02  0.63980451300E+02  0.18115637264E+02  0.67939742197E+02  0.00000000000E+00 0. -1.
<mgrwt>
<rscale>  1 0.14111218E+03</rscale>
<asrwt>0</asrwt>
<pdfrwt beam="2">  1        4 0.14975825E-01 0.14111218E+03</pdfrwt>
<pdfrwt beam="1">  1       -4 0.17193475E-01 0.14111218E+03</pdfrwt>
<totfact> 0.18551149E+03</totfact>
</mgrwt>
</event>
<event>
 6    4  0.5642870E-004  0.1271298E+03  0.7818608E-02  0.1231778E+00
         -4   -1    0    0    0  501 -0.00000000000E+00  0.00000000000E+00  0.19106431549E+03  0.19106853628E+03  0.12700000000E+01 0.  1.
          4   -1    0    0  502    0  0.00000000000E+00 -0.00000000000E+00 -0.31797209985E+02  0.31822562166E+02  0.12700000000E+01 0.  1.
         25    2    1    2    0    0  0.20645548691E+02  0.10485881058E+02  0.15295579359E+03  0.19889057677E+03  0.12500317738E+03 0.  0.
    9000005    1    3    3    0    0  0.28809660916E+02 -0.35617839727E+02  0.79453654484E+01  0.46505439478E+02  0.10000000000E+01 0.  0.
    9000005    1    3    3    0    0 -0.81641122247E+01  0.46103720785E+02  0.14501042814E+03  0.15238513730E+03  0.10000000000E+01 0.  0.
         21    1    1    2  502  501 -0.20645548691E+02 -0.10485881058E+02  0.63113119197E+01  0.24000521671E+02  0.00000000000E+00 0. -1.
<mgrwt>
<rscale>  1 0.12712980E+03</rscale>
<asrwt>0</asrwt>
<pdfrwt beam="2">  1        4 0.48941532E-02 0.12712980E+03</pdfrwt>
<pdfrwt beam="1">  1       -4 0.29396785E-01 0.12712980E+03</pdfrwt>
<totfact> 0.43971375E+03</totfact>
</mgrwt>
</event>
<event>
 6    4  0.5642870E-004  0.1310089E+03  0.7818608E-02  0.1225966E+00
          4   -1    0    0  502    0  0.00000000000E+00  0.00000000000E+00  0.17602826216E+03  0.17603284347E+03  0.12700000000E+01 0. -1.
         -4   -1    0    0    0  501 -0.00000000000E+00 -0.00000000000E+00 -0.44727955296E+02  0.44745981775E+02  0.12700000000E+01 0. -1.
         25    2    1    2    0    0  0.28170682363E+02 -0.27297528123E+02  0.12495064174E+03  0.18104142934E+03  0.12499837550E+03 0.  0.
    9000005    1    3    3    0    0 -0.42928085270E+02  0.89155658122E+01  0.75058969742E+02  0.86931908741E+02  0.10000000000E+01 0.  0.
    9000005    1    3    3    0    0  0.71098767633E+02 -0.36213093935E+02  0.49891672003E+02  0.94109520594E+02  0.10000000000E+01 0.  0.
         21    1    1    2  502  501 -0.28170682363E+02  0.27297528123E+02  0.63496651215E+01  0.39737395908E+02  0.00000000000E+00 0. -1.
<mgrwt>
<rscale>  1 0.13100892E+03</rscale>
<asrwt>0</asrwt>
<pdfrwt beam="1">  1        4 0.27083011E-01 0.13100892E+03</pdfrwt>
<pdfrwt beam="2">  1       -4 0.68829628E-02 0.13100892E+03</pdfrwt>
<totfact> 0.29720930E+03</totfact>
</mgrwt>
</event>
<event>
 6    4  0.5642870E-004  0.1278926E+03  0.7818608E-02  0.1230617E+00
         -4   -1    0    0    0  501 -0.00000000000E+00  0.00000000000E+00  0.63327227647E+03  0.63327354994E+03  0.12700000000E+01 0.  1.
          4   -1    0    0  502    0  0.00000000000E+00 -0.00000000000E+00 -0.10743397030E+03  0.10744147651E+03  0.12700000000E+01 0.  1.
         25    2    1    2    0    0  0.27042691506E+02  0.25979073803E+00  0.62499004912E+03  0.63794128085E+03  0.12500056665E+03 0.  0.
    9000005    1    3    3    0    0  0.45840687233E+02 -0.31773983310E+02  0.56235361581E+03  0.56511374416E+03  0.10000000000E+01 0.  0.
    9000005    1    3    3    0    0 -0.18797995727E+02  0.32033774048E+02  0.62636433303E+02  0.72827536688E+02  0.10000000000E+01 0.  0.
         21    1    1    2  502  501 -0.27042691506E+02 -0.25979073803E+00 -0.99151742941E+02  0.10277374559E+03  0.00000000000E+00 0.  1.
<mgrwt>
<rscale>  1 0.12789260E+03</rscale>
<asrwt>0</asrwt>
<pdfrwt beam="2">  1        4 0.16528978E-01 0.12789260E+03</pdfrwt>
<pdfrwt beam="1">  1       -4 0.97427181E-01 0.12789260E+03</pdfrwt>
<totfact> 0.48263141E+01</totfact>
</mgrwt>
</event>
<event>
 6    4  0.5642870E-004  0.1267479E+03  0.7818608E-02  0.1232363E+00
         -4   -1    0    0    0  501 -0.00000000000E+00  0.00000000000E+00  0.55816406620E+01  0.57243001738E+01  0.12700000000E+01 0. -1.
          4   -1    0    0  502    0  0.00000000000E+00 -0.00000000000E+00 -0.11269825750E+04  0.11269832905E+04  0.12700000000E+01 0. -1.
         25    2    1    2    0    0  0.96681486824E+01  0.18617450776E+02 -0.74361418316E+03  0.75433883949E+03  0.12499979516E+03 0.  0.
    9000005    1    3    3    0    0  0.18624556242E+01 -0.50247323170E+02 -0.19573760373E+03  0.20209520465E+03  0.10000000000E+01 0.  0.
    9000005    1    3    3    0    0  0.78056930582E+01  0.68864773946E+02 -0.54787657943E+03  0.55224363484E+03  0.10000000000E+01 0.  0.
         21    1    1    2  502  501 -0.96681486824E+01 -0.18617450776E+02 -0.37778675114E+03  0.37836875123E+03  0.00000000000E+00 0. -1.
<mgrwt>
<rscale>  1 0.12674790E+03</rscale>
<asrwt>0</asrwt>
<pdfrwt beam="2">  1        4 0.17339278E+00 0.12674790E+03</pdfrwt>
<pdfrwt beam="1">  1       -4 0.86974370E-03 0.12674790E+03</pdfrwt>
<totfact> 0.12886776E+03</totfact>
</mgrwt>
</event>
<event>
 6    4  0.5642870E-004  0.1446956E+03  0.7818608E-02  0.1207147E+00
          4   -1    0    0  502    0  0.00000000000E+00  0.00000000000E+00  0.18706524930E+03  0.18706956031E+03  0.12700000000E+01 0. -1.
         -4   -1    0    0    0  501 -0.00000000000E+00 -0.00000000000E+00 -0.76476709235E+02  0.76487253549E+02  0.12700000000E+01 0. -1.
         25    2    1    2    0    0 -0.72864844029E+02 -0.18513866282E+00  0.18114527076E+02  0.14582507281E+03  0.12500998359E+03 0.  0.
    9000005    1    3    3    0    0  0.12099126194E+02  0.21188837011E+02  0.47501592668E+02  0.53411206451E+02  0.10000000000E+01 0.  0.
    9000005    1    3    3    0    0 -0.84963970223E+02 -0.21373975674E+02 -0.29387065592E+02  0.92413866363E+02  0.10000000000E+01 0.  0.
         21    1    1    2  502  501  0.72864844029E+02  0.18513866282E+00  0.92474012985E+02  0.11773174104E+03  0.00000000000E+00 0. -1.
<mgrwt>
<rscale>  1 0.14469560E+03</rscale>
<asrwt>0</asrwt>
<pdfrwt beam="1">  1        4 0.28780411E-01 0.14469560E+03</pdfrwt>
<pdfrwt beam="2">  1       -4 0.11766791E-01 0.14469560E+03</pdfrwt>
<totfact> 0.11055528E+03</totfact>
</mgrwt>
</event>
<event>
 6    4  0.5642870E-004  0.1266198E+03  0.7818608E-02  0.1232559E+00
         -4   -1    0    0    0  501 -0.00000000000E+00  0.00000000000E+00  0.83117246254E+01  0.84081904266E+01  0.12700000000E+01 0. -1.
          4   -1    0    0  502    0  0.00000000000E+00 -0.00000000000E+00 -0.10041185771E+04  0.10041193802E+04  0.12700000000E+01 0. -1.
         25    2    1    2    0    0  0.40506778473E+01  0.19706788162E+02 -0.48284003426E+03  0.49916637026E+03  0.12501120361E+03 0.  0.
    9000005    1    3    3    0    0  0.24107529103E+02  0.42227862119E+02 -0.45658754827E+03  0.45917050704E+03  0.10000000000E+01 0.  0.
    9000005    1    3    3    0    0 -0.20056851256E+02 -0.22521073957E+02 -0.26252485986E+02  0.39995863222E+02  0.10000000000E+01 0.  0.
         21    1    1    2  502  501 -0.40506778473E+01 -0.19706788162E+02 -0.51296681818E+03  0.51336120037E+03  0.00000000000E+00 0. -1.
<mgrwt>
<rscale>  1 0.12661977E+03</rscale>
<asrwt>0</asrwt>
<pdfrwt beam="2">  1        4 0.15448717E+00 0.12661977E+03</pdfrwt>
<pdfrwt beam="1">  1       -4 0.12862099E-02 0.12661977E+03</pdfrwt>
<totfact> 0.96704926E+02</totfact>
</mgrwt>
</event>
<event>
 6    4  0.5642870E-004  0.1442998E+03  0.7818608E-02  0.1207658E+00
          4   -1    0    0  502    0  0.00000000000E+00  0.00000000000E+00  0.57579220085E+03  0.57579360144E+03  0.12700000000E+01 0. -1.
         -4   -1    0    0    0  501 -0.00000000000E+00 -0.00000000000E+00 -0.23912902909E+02  0.23946603632E+02  0.12700000000E+01 0. -1.
         25    2    1    2    0    0 -0.58091111477E+02  0.42639692449E+02  0.46494694109E+03  0.48682450523E+03  0.12501887958E+03 0.  0.
    9000005    1    3    3    0    0 -0.62305942470E+02 -0.55199408811E+01  0.40501735007E+03  0.40982014845E+03  0.10000000000E+01 0.  0.
    9000005    1    3    3    0    0  0.42148309926E+01  0.48159633330E+02  0.59929591022E+02  0.77004356778E+02  0.10000000000E+01 0.  0.
         21    1    1    2  502  501  0.58091111477E+02 -0.42639692449E+02  0.86932356846E+02  0.11291569985E+03  0.00000000000E+00 0. -1.
<mgrwt>
<rscale>  1 0.14429983E+03</rscale>
<asrwt>0</asrwt>
<pdfrwt beam="1">  1        4 0.88586112E-01 0.14429983E+03</pdfrwt>
<pdfrwt beam="2">  1       -4 0.36816084E-02 0.14429983E+03</pdfrwt>
<totfact> 0.73997014E+02</totfact>
</mgrwt>
</event>
<event>
 6    4  0.5642870E-004  0.1279273E+03  0.7818608E-02  0.1230564E+00
          4   -1    0    0  502    0  0.00000000000E+00  0.00000000000E+00  0.17139394824E+03  0.17139865342E+03  0.12700000000E+01 0.  1.
         -4   -1    0    0    0  501 -0.00000000000E+00 -0.00000000000E+00 -0.36007603744E+02  0.36029993441E+02  0.12700000000E+01 0.  1.
         25    2    1    2    0    0 -0.22307811878E+02  0.15604139379E+02  0.12318805931E+03  0.17759702273E+03  0.12499710753E+03 0.  0.
    9000005    1    3    3    0    0  0.30049199670E+02 -0.26262998915E+02  0.98272348248E+02  0.10607145678E+03  0.10000000000E+01 0.  0.
    9000005    1    3    3    0    0 -0.52357011548E+02  0.41867138293E+02  0.24915711059E+02  0.71525565952E+02  0.10000000000E+01 0.  0.
         21    1    1    2  502  501  0.22307811878E+02 -0.15604139379E+02  0.12198285188E+02  0.29831624127E+02  0.00000000000E+00 0.  1.
<mgrwt>
<rscale>  1 0.12792734E+03</rscale>
<asrwt>0</asrwt>
<pdfrwt beam="1">  1        4 0.26370384E-01 0.12792734E+03</pdfrwt>
<pdfrwt beam="2">  1       -4 0.55417155E-02 0.12792734E+03</pdfrwt>
<totfact> 0.44176048E+03</totfact>
</mgrwt>
</event>
<event>
 6    4  0.5642870E-004  0.1438050E+03  0.7818608E-02  0.1208299E+00
          4   -1    0    0  502    0  0.00000000000E+00  0.00000000000E+00  0.77086849944E+02  0.77097310811E+02  0.12700000000E+01 0. -1.
         -4   -1    0    0    0  501 -0.00000000000E+00 -0.00000000000E+00 -0.15256087551E+03  0.15256616150E+03  0.12700000000E+01 0. -1.
         25    2    1    2    0    0  0.67639691460E+02 -0.21905583090E+02 -0.64943229464E+02  0.15778941512E+03  0.12499957616E+03 0.  0.
    9000005    1    3    3    0    0  0.49622505780E+02 -0.69534331498E+02 -0.64177567953E+02  0.10685118888E+03  0.10000000000E+01 0.  0.
    9000005    1    3    3    0    0  0.18017185680E+02  0.47628748409E+02 -0.76566151074E+00  0.50938226239E+02  0.10000000000E+01 0.  0.
         21    1    1    2  502  501 -0.67639691460E+02  0.21905583090E+02 -0.10530796102E+02  0.71874057196E+02  0.00000000000E+00 0. -1.
<mgrwt>
<rscale>  1 0.14380499E+03</rscale>
<asrwt>0</asrwt>
<pdfrwt beam="1">  1        4 0.11860727E-01 0.14380499E+03</pdfrwt>
<pdfrwt beam="2">  1       -4 0.23472115E-01 0.14380499E+03</pdfrwt>
<totfact> 0.15907474E+03</totfact>
</mgrwt>
</event>
<event>
 6    4  0.5642870E-004  0.1278191E+03  0.7818608E-02  0.1230728E+00
          4   -1    0    0  502    0  0.00000000000E+00  0.00000000000E+00  0.12640437393E+03  0.12641075369E+03  0.12700000000E+01 0. -1.
         -4   -1    0    0    0  501 -0.00000000000E+00 -0.00000000000E+00 -0.47587825791E+02  0.47604769335E+02  0.12700000000E+01 0. -1.
         25    2    1    2    0    0 -0.57733908912E+01  0.26134651540E+02  0.59385071796E+02  0.14094084500E+03  0.12498553110E+03 0.  0.
    9000005    1    3    3    0    0 -0.19957891110E+02 -0.48158387097E+02  0.25919779651E+02  0.58226992387E+02  0.10000000000E+01 0.  0.
    9000005    1    3    3    0    0  0.14184500218E+02  0.74293038636E+02  0.33465292146E+02  0.82713852616E+02  0.10000000000E+01 0.  0.
         21    1    1    2  502  501  0.57733908912E+01 -0.26134651540E+02  0.19431476344E+02  0.33074678024E+02  0.00000000000E+00 0.  1.
<mgrwt>
<rscale>  1 0.12781915E+03</rscale>
<asrwt>0</asrwt>
<pdfrwt beam="1">  1        4 0.19448621E-01 0.12781915E+03</pdfrwt>
<pdfrwt beam="2">  1       -4 0.73229981E-02 0.12781915E+03</pdfrwt>
<totfact> 0.48849327E+03</totfact>
</mgrwt>
</event>
<event>
 6    4  0.5642870E-004  0.1267498E+03  0.7818608E-02  0.1232360E+00
          4   -1    0    0  502    0  0.00000000000E+00  0.00000000000E+00  0.89700756414E+03  0.89700846318E+03  0.12700000000E+01 0. -1.
         -4   -1    0    0    0  501 -0.00000000000E+00 -0.00000000000E+00 -0.66907103794E+01  0.68101766042E+01  0.12700000000E+01 0. -1.
         25    2    1    2    0    0  0.80128188548E+01 -0.19348488786E+02  0.62777030775E+03  0.64043819612E+03  0.12500781765E+03 0.  0.
    9000005    1    3    3    0    0 -0.22806356008E+02 -0.66128100735E+02  0.31327499290E+03  0.32099108517E+03  0.10000000000E+01 0.  0.
    9000005    1    3    3    0    0  0.30819174863E+02  0.46779611950E+02  0.31449531485E+03  0.31944711095E+03  0.10000000000E+01 0.  0.
         21    1    1    2  502  501 -0.80128188548E+01  0.19348488786E+02  0.26254654601E+03  0.26338044367E+03  0.00000000000E+00 0. -1.
<mgrwt>
<rscale>  1 0.12674985E+03</rscale>
<asrwt>0</asrwt>
<pdfrwt beam="1">  1        4 0.13801040E+00 0.12674985E+03</pdfrwt>
<pdfrwt beam="2">  1       -4 0.10385991E-02 0.12674985E+03</pdfrwt>
<totfact> 0.17756522E+03</totfact>
</mgrwt>
</event>
<event>
 6    4  0.5642870E-004  0.1286841E+03  0.7818608E-02  0.1229421E+00
         -4   -1    0    0    0  501 -0.00000000000E+00  0.00000000000E+00  0.41762538241E+02  0.41781844147E+02  0.12700000000E+01 0. -1.
          4   -1    0    0  502    0  0.00000000000E+00 -0.00000000000E+00 -0.17154779479E+03  0.17155249574E+03  0.12700000000E+01 0. -1.
         25    2    1    2    0    0  0.55230265303E+01 -0.30046057555E+02 -0.70719938655E+02  0.14683636117E+03  0.12500535125E+03 0.  0.
    9000005    1    3    3    0    0 -0.55270261804E+02 -0.40739819138E+01 -0.85564455385E+01  0.56085755132E+02  0.10000000000E+01 0.  0.
    9000005    1    3    3    0    0  0.60793288334E+02 -0.25972075641E+02 -0.62163493116E+02  0.90750606036E+02  0.10000000000E+01 0.  0.
         21    1    1    2  502  501 -0.55230265303E+01  0.30046057555E+02 -0.59065317891E+02  0.66497978722E+02  0.00000000000E+00 0. -1.
<mgrwt>
<rscale>  1 0.12868414E+03</rscale>
<asrwt>0</asrwt>
<pdfrwt beam="2">  1        4 0.26393815E-01 0.12868414E+03</pdfrwt>
<pdfrwt beam="1">  1       -4 0.64268527E-02 0.12868414E+03</pdfrwt>
<totfact> 0.34727346E+03</totfact>
</mgrwt>
</event>
<event>
 6    4  0.5642870E-004  0.1356209E+03  0.7818608E-02  0.1219346E+00
          4   -1    0    0  502    0  0.00000000000E+00  0.00000000000E+00  0.12639812220E+03  0.12640450227E+03  0.12700000000E+01 0.  1.
         -4   -1    0    0    0  501 -0.00000000000E+00 -0.00000000000E+00 -0.72912056251E+02  0.72923115997E+02  0.12700000000E+01 0.  1.
         25    2    1    2    0    0  0.11920171667E+02 -0.51203496192E+02  0.20234973089E+02  0.13712212260E+03  0.12501653433E+03 0.  0.
    9000005    1    3    3    0    0  0.10968861433E+02  0.40892898501E+01 -0.47924985916E+02  0.49344123132E+02  0.10000000000E+01 0.  0.
    9000005    1    3    3    0    0  0.95131023326E+00 -0.55292786042E+02  0.68159959005E+02  0.87777999471E+02  0.10000000000E+01 0.  0.
         21    1    1    2  502  501 -0.11920171667E+02  0.51203496192E+02  0.33251092857E+02  0.62205495666E+02  0.00000000000E+00 0.  1.
<mgrwt>
<rscale>  1 0.13562088E+03</rscale>
<asrwt>0</asrwt>
<pdfrwt beam="1">  1        4 0.19447206E-01 0.13562088E+03</pdfrwt>
<pdfrwt beam="2">  1       -4 0.11218581E-01 0.13562088E+03</pdfrwt>
<totfact> 0.24290004E+03</totfact>
</mgrwt>
</event>
<event>
 6    4  0.5642870E-004  0.1286921E+03  0.7818608E-02  0.1229409E+00
          4   -1    0    0  502    0  0.00000000000E+00  0.00000000000E+00  0.33429952702E+03  0.33430193937E+03  0.12700000000E+01 0. -1.
         -4   -1    0    0    0  501 -0.00000000000E+00 -0.00000000000E+00 -0.32630830033E+02  0.32655535038E+02  0.12700000000E+01 0. -1.
         25    2    1    2    0    0  0.26287656080E+02  0.15702010422E+02  0.10000002798E+03  0.16297746055E+03  0.12499621217E+03 0.  0.
    9000005    1    3    3    0    0  0.69670808056E+02  0.35325258696E+02  0.78418772777E+02  0.11069055660E+03  0.10000000000E+01 0.  0.
    9000005    1    3    3    0    0 -0.43383151976E+02 -0.19623248275E+02  0.21581255201E+02  0.52286903946E+02  0.10000000000E+01 0.  0.
         21    1    1    2  502  501 -0.26287656080E+02 -0.15702010422E+02  0.20166866901E+03  0.20398001386E+03  0.00000000000E+00 0. -1.
<mgrwt>
<rscale>  1 0.12869206E+03</rscale>
<asrwt>0</asrwt>
<pdfrwt beam="1">  1        4 0.51432780E-01 0.12869206E+03</pdfrwt>
<pdfrwt beam="2">  1       -4 0.50222139E-02 0.12869206E+03</pdfrwt>
<totfact> 0.14141146E+03</totfact>
</mgrwt>
</event>
<event>
 6    4  0.5642870E-004  0.1282314E+03  0.7818608E-02  0.1230104E+00
         -4   -1    0    0    0  501 -0.00000000000E+00  0.00000000000E+00  0.19202366852E+03  0.19202786822E+03  0.12700000000E+01 0.  1.
          4   -1    0    0  502    0  0.00000000000E+00 -0.00000000000E+00 -0.48418872426E+02  0.48435525258E+02  0.12700000000E+01 0.  1.
         25    2    1    2    0    0  0.14606855802E+02  0.24592152305E+02  0.16188421253E+03  0.20651827223E+03  0.12500065722E+03 0.  0.
    9000005    1    3    3    0    0 -0.54010753404E+02 -0.17174646356E+01  0.58167902225E+02  0.79401612184E+02  0.10000000000E+01 0.  0.
    9000005    1    3    3    0    0  0.68617609207E+02  0.26309616940E+02  0.10371631031E+03  0.12711666004E+03  0.10000000000E+01 0.  0.
         21    1    1    2  502  501 -0.14606855802E+02 -0.24592152305E+02 -0.18279416437E+02  0.33945121250E+02  0.00000000000E+00 0.  1.
<mgrwt>
<rscale>  1 0.12823143E+03</rscale>
<asrwt>0</asrwt>
<pdfrwt beam="2">  1        4 0.74506615E-02 0.12823143E+03</pdfrwt>
<pdfrwt beam="1">  1       -4 0.29543706E-01 0.12823143E+03</pdfrwt>
<totfact> 0.22057482E+03</totfact>
</mgrwt>
</event>
<event>
 6    4  0.5642870E-004  0.1268457E+03  0.7818608E-02  0.1232213E+00
         -4   -1    0    0    0  501 -0.00000000000E+00  0.00000000000E+00  0.29138630951E+02  0.29166294138E+02  0.12700000000E+01 0. -1.
          4   -1    0    0  502    0  0.00000000000E+00 -0.00000000000E+00 -0.19989405449E+03  0.19989808884E+03  0.12700000000E+01 0. -1.
         25    2    1    2    0    0  0.17660707915E+02 -0.12395614725E+02 -0.12312890086E+03  0.17677827076E+03  0.12499711563E+03 0.  0.
    9000005    1    3    3    0    0 -0.13389621464E+01 -0.51316449131E+01  0.25853279619E+02  0.26410578680E+02  0.10000000000E+01 0.  0.
    9000005    1    3    3    0    0  0.18999670061E+02 -0.72639698122E+01 -0.14898218048E+03  0.15036769208E+03  0.10000000000E+01 0.  0.
         21    1    1    2  502  501 -0.17660707915E+02  0.12395614725E+02 -0.47626522683E+02  0.52286112222E+02  0.00000000000E+00 0.  1.
<mgrwt>
<rscale>  1 0.12684570E+03</rscale>
<asrwt>0</asrwt>
<pdfrwt beam="2">  1        4 0.30755369E-01 0.12684570E+03</pdfrwt>
<pdfrwt beam="1">  1       -4 0.44853047E-02 0.12684570E+03</pdfrwt>
<totfact> 0.46397069E+03</totfact>
</mgrwt>
</event>
<event>
 6    4  0.5642870E-004  0.1275506E+03  0.7818608E-02  0.1231136E+00
          4   -1    0    0  502    0  0.00000000000E+00  0.00000000000E+00  0.22875167553E+03  0.22875520094E+03  0.12700000000E+01 0.  1.
         -4   -1    0    0    0  501 -0.00000000000E+00 -0.00000000000E+00 -0.28195726935E+02  0.28224314294E+02  0.12700000000E+01 0.  1.
         25    2    1    2    0    0  0.76135942752E+01  0.24195186515E+02  0.13053645562E+03  0.18250735087E+03  0.12500317199E+03 0.  0.
    9000005    1    3    3    0    0  0.60431027994E+02  0.39081660549E+02  0.64557829886E+02  0.96685049182E+02  0.10000000000E+01 0.  0.
    9000005    1    3    3    0    0 -0.52817433719E+02 -0.14886474034E+02  0.65978625732E+02  0.85822301690E+02  0.10000000000E+01 0.  0.
         21    1    1    2  502  501 -0.76135942752E+01 -0.24195186515E+02  0.70019492973E+02  0.74472164360E+02  0.00000000000E+00 0. -1.
<mgrwt>
<rscale>  1 0.12755064E+03</rscale>
<asrwt>0</asrwt>
<pdfrwt beam="1">  1        4 0.35195036E-01 0.12755064E+03</pdfrwt>
<pdfrwt beam="2">  1       -4 0.43402744E-02 0.12755064E+03</pdfrwt>
<totfact> 0.37839172E+03</totfact>
</mgrwt>
</event>
<event>
 6    4  0.5642870E-004  0.1316131E+03  0.7818608E-02  0.1225082E+00
          4   -1    0    0  502    0  0.00000000000E+00  0.00000000000E+00  0.14831631170E+03  0.14832174897E+03  0.12700000000E+01 0. -1.
         -4   -1    0    0    0  501 -0.00000000000E+00 -0.00000000000E+00 -0.56992933813E+02  0.57007082057E+02  0.12700000000E+01 0. -1.
         25    2    1    2    0    0 -0.15533799156E+02 -0.38171100264E+02  0.36194725859E+02  0.13649933091E+03  0.12499470928E+03 0.  0.
    9000005    1    3    3    0    0  0.20939759995E+01 -0.80977971768E+02  0.60293614515E+01  0.81235274645E+02  0.10000000000E+01 0.  0.
    9000005    1    3    3    0    0 -0.17627775156E+02  0.42806871504E+02  0.30165364408E+02  0.55264056264E+02  0.10000000000E+01 0.  0.
         21    1    1    2  502  501  0.15533799156E+02  0.38171100264E+02  0.55128652029E+02  0.68829500115E+02  0.00000000000E+00 0. -1.
<mgrwt>
<rscale>  1 0.13161310E+03</rscale>
<asrwt>0</asrwt>
<pdfrwt beam="1">  1        4 0.22819400E-01 0.13161310E+03</pdfrwt>
<pdfrwt beam="2">  1       -4 0.87696504E-02 0.13161310E+03</pdfrwt>
<totfact> 0.27344843E+03</totfact>
</mgrwt>
</event>
<event>
 6    4  0.5642870E-004  0.1290317E+03  0.7818608E-02  0.1228900E+00
         -4   -1    0    0    0  501 -0.00000000000E+00  0.00000000000E+00  0.41263291828E+02  0.41282831207E+02  0.12700000000E+01 0.  1.
          4   -1    0    0  502    0  0.00000000000E+00 -0.00000000000E+00 -0.21645714138E+03  0.21646086702E+03  0.12700000000E+01 0.  1.
         25    2    1    2    0    0  0.27849173363E+02  0.15705608031E+02 -0.67939230320E+02  0.14582499592E+03  0.12500779111E+03 0.  0.
    9000005    1    3    3    0    0  0.24821466636E+02 -0.38746936901E+02 -0.77799949998E+02  0.90395036063E+02  0.10000000000E+01 0.  0.
    9000005    1    3    3    0    0  0.30277067274E+01  0.54452544931E+02  0.98607196776E+01  0.55429959860E+02  0.10000000000E+01 0.  0.
         21    1    1    2  502  501 -0.27849173363E+02 -0.15705608031E+02 -0.10725461923E+03  0.11191870231E+03  0.00000000000E+00 0.  1.
<mgrwt>
<rscale>  1 0.12903174E+03</rscale>
<asrwt>0</asrwt>
<pdfrwt beam="2">  1        4 0.33302888E-01 0.12903174E+03</pdfrwt>
<pdfrwt beam="1">  1       -4 0.63499885E-02 0.12903174E+03</pdfrwt>
<totfact> 0.22861797E+03</totfact>
</mgrwt>
</event>
<event>
 6    4  0.5642870E-004  0.1324141E+03  0.7818608E-02  0.1223917E+00
         -4   -1    0    0    0  501 -0.00000000000E+00  0.00000000000E+00  0.24135521243E+03  0.24135855374E+03  0.12700000000E+01 0. -1.
          4   -1    0    0  502    0  0.00000000000E+00 -0.00000000000E+00 -0.40120968890E+02  0.40141064319E+02  0.12700000000E+01 0. -1.
         25    2    1    2    0    0 -0.43641906875E+02 -0.22244815898E+01  0.19731283420E+03  0.23762545932E+03  0.12499576003E+03 0.  0.
    9000005    1    3    3    0    0 -0.28878928475E+02 -0.60090594710E+02  0.13893548095E+03  0.15410691078E+03  0.10000000000E+01 0.  0.
    9000005    1    3    3    0    0 -0.14762978400E+02  0.57866113121E+02  0.58377353243E+02  0.83518548542E+02  0.10000000000E+01 0.  0.
         21    1    1    2  502  501  0.43641906875E+02  0.22244815898E+01  0.39214093414E+01  0.43874158742E+02  0.00000000000E+00 0. -1.
<mgrwt>
<rscale>  1 0.13241414E+03</rscale>
<asrwt>0</asrwt>
<pdfrwt beam="2">  1        4 0.61742595E-02 0.13241414E+03</pdfrwt>
<pdfrwt beam="1">  1       -4 0.37133374E-01 0.13241414E+03</pdfrwt>
<totfact> 0.19513255E+03</totfact>
</mgrwt>
</event>
<event>
 6    4  0.5642870E-004  0.1272011E+03  0.7818608E-02  0.1231669E+00
          4   -1    0    0  502    0  0.00000000000E+00  0.00000000000E+00  0.10215770582E+03  0.10216559968E+03  0.12700000000E+01 0.  1.
         -4   -1    0    0    0  501 -0.00000000000E+00 -0.00000000000E+00 -0.62130117550E+02  0.62143096211E+02  0.12700000000E+01 0.  1.
         25    2    1    2    0    0  0.19896408866E+02 -0.12616652602E+02  0.12106338530E+02  0.12777592710E+03  0.12500030842E+03 0.  0.
    9000005    1    3    3    0    0 -0.52479042763E+02 -0.12698216813E+02  0.12333214708E+02  0.55393165865E+02  0.10000000000E+01 0.  0.
    9000005    1    3    3    0    0  0.72375451628E+02  0.81564210710E-01 -0.22687617735E+00  0.72382761234E+02  0.10000000000E+01 0.  0.
         21    1    1    2  502  501 -0.19896408866E+02  0.12616652602E+02  0.27921249737E+02  0.36532768790E+02  0.00000000000E+00 0. -1.
<mgrwt>
<rscale>  1 0.12720112E+03</rscale>
<asrwt>0</asrwt>
<pdfrwt beam="1">  1        4 0.15718176E-01 0.12720112E+03</pdfrwt>
<pdfrwt beam="2">  1       -4 0.95600852E-02 0.12720112E+03</pdfrwt>
<totfact> 0.45699846E+03</totfact>
</mgrwt>
</event>
<event>
 6    4  0.5642870E-004  0.1309755E+03  0.7818608E-02  0.1226015E+00
         -4   -1    0    0    0  501 -0.00000000000E+00  0.00000000000E+00  0.22759326317E+02  0.22794732602E+02  0.12700000000E+01 0. -1.
          4   -1    0    0  502    0  0.00000000000E+00 -0.00000000000E+00 -0.36672915136E+03  0.36673135039E+03  0.12700000000E+01 0. -1.
         25    2    1    2    0    0 -0.31242966178E+02  0.23695859109E+02 -0.19088378351E+03  0.23149775393E+03  0.12496789424E+03 0.  0.
    9000005    1    3    3    0    0  0.14408597865E+02 -0.38539325645E+02 -0.24040657506E+02  0.47663828286E+02  0.10000000000E+01 0.  0.
    9000005    1    3    3    0    0 -0.45651564044E+02  0.62235184754E+02 -0.16684312601E+03  0.18383392564E+03  0.10000000000E+01 0.  0.
         21    1    1    2  502  501  0.31242966178E+02 -0.23695859109E+02 -0.15308604153E+03  0.15802832906E+03  0.00000000000E+00 0. -1.
<mgrwt>
<rscale>  1 0.13097554E+03</rscale>
<asrwt>0</asrwt>
<pdfrwt beam="2">  1        4 0.56422758E-01 0.13097554E+03</pdfrwt>
<pdfrwt beam="1">  1       -4 0.35043278E-02 0.13097554E+03</pdfrwt>
<totfact> 0.20799245E+03</totfact>
</mgrwt>
</event>
<event>
 6    4  0.5642870E-004  0.1280021E+03  0.7818608E-02  0.1230451E+00
          4   -1    0    0  502    0  0.00000000000E+00  0.00000000000E+00  0.96091684356E+01  0.96927301636E+01  0.12700000000E+01 0.  1.
         -4   -1    0    0    0  501 -0.00000000000E+00 -0.00000000000E+00 -0.94041780721E+03  0.94041866476E+03  0.12700000000E+01 0.  1.
         25    2    1    2    0    0 -0.59900293725E+01 -0.26955816280E+02 -0.89866629825E+03  0.90773656114E+03  0.12498820880E+03 0.  0.
    9000005    1    3    3    0    0 -0.55822223766E+02  0.19551390094E+02 -0.37137168391E+03  0.37605359343E+03  0.10000000000E+01 0.  0.
    9000005    1    3    3    0    0  0.49832194394E+02 -0.46507206374E+02 -0.52729461434E+03  0.53168296771E+03  0.10000000000E+01 0.  0.
         21    1    1    2  502  501  0.59900293725E+01  0.26955816280E+02 -0.32142340524E+02  0.42374833776E+02  0.00000000000E+00 0. -1.
<mgrwt>
<rscale>  1 0.12800214E+03</rscale>
<asrwt>0</asrwt>
<pdfrwt beam="1">  1        4 0.14848281E-02 0.12800214E+03</pdfrwt>
<pdfrwt beam="2">  1       -4 0.14468608E+00 0.12800214E+03</pdfrwt>
<totfact> 0.92038824E+02</totfact>
</mgrwt>
</event>
<event>
 6    4  0.5642870E-004  0.1398758E+03  0.7818608E-02  0.1213496E+00
          4   -1    0    0  502    0  0.00000000000E+00  0.00000000000E+00  0.43253476849E+02  0.43272117576E+02  0.12700000000E+01 0. -1.
         -4   -1    0    0    0  501 -0.00000000000E+00 -0.00000000000E+00 -0.31159083275E+03  0.31159342091E+03  0.12700000000E+01 0. -1.
         25    2    1    2    0    0 -0.60464173296E+02  0.16890516519E+02 -0.25476218609E+03  0.29063555300E+03  0.12499618955E+03 0.  0.
    9000005    1    3    3    0    0 -0.61227564868E+02 -0.24556720940E+02 -0.52918986471E+02  0.84576984884E+02  0.10000000000E+01 0.  0.
    9000005    1    3    3    0    0  0.76339157199E+00  0.41447237459E+02 -0.20184319962E+03  0.20605856811E+03  0.10000000000E+01 0.  0.
         21    1    1    2  502  501  0.60464173296E+02 -0.16890516519E+02 -0.13575169812E+02  0.64229985490E+02  0.00000000000E+00 0. -1.
<mgrwt>
<rscale>  1 0.13987585E+03</rscale>
<asrwt>0</asrwt>
<pdfrwt beam="1">  1        4 0.66560142E-02 0.13987585E+03</pdfrwt>
<pdfrwt beam="2">  1       -4 0.47938683E-01 0.13987585E+03</pdfrwt>
<totfact> 0.10521236E+03</totfact>
</mgrwt>
</event>
<event>
 6    4  0.5642870E-004  0.1281324E+03  0.7818608E-02  0.1230254E+00
          4   -1    0    0  502    0  0.00000000000E+00  0.00000000000E+00  0.60410550049E+02  0.60423898064E+02  0.12700000000E+01 0. -1.
         -4   -1    0    0    0  501 -0.00000000000E+00 -0.00000000000E+00 -0.17655749585E+03  0.17656206342E+03  0.12700000000E+01 0. -1.
         25    2    1    2    0    0  0.21563234601E+02 -0.18085963115E+02 -0.14714729861E+03  0.19511596002E+03  0.12500334083E+03 0.  0.
    9000005    1    3    3    0    0  0.55618101124E+01 -0.18824120999E+02 -0.16780734183E+03  0.16895438804E+03  0.10000000000E+01 0.  0.
    9000005    1    3    3    0    0  0.16001424489E+02  0.73815788434E+00  0.20660043226E+02  0.26161571987E+02  0.10000000000E+01 0.  0.
         21    1    1    2  502  501 -0.21563234601E+02  0.18085963115E+02  0.31000352810E+02  0.41870001464E+02  0.00000000000E+00 0. -1.
<mgrwt>
<rscale>  1 0.12813239E+03</rscale>
<asrwt>0</asrwt>
<pdfrwt beam="1">  1        4 0.92953090E-02 0.12813239E+03</pdfrwt>
<pdfrwt beam="2">  1       -4 0.27164070E-01 0.12813239E+03</pdfrwt>
<totfact> 0.17880549E+03</totfact>
</mgrwt>
</event>
<event>
 6    4  0.5642870E-004  0.1271405E+03  0.7818608E-02  0.1231762E+00
         -4   -1    0    0    0  501 -0.00000000000E+00  0.00000000000E+00  0.20251592911E+02  0.20291375395E+02  0.12700000000E+01 0.  1.
          4   -1    0    0  502    0  0.00000000000E+00 -0.00000000000E+00 -0.36987876818E+03  0.36988094849E+03  0.12700000000E+01 0.  1.
         25    2    1    2    0    0 -0.28238115314E+01 -0.23064716499E+02 -0.18844662238E+03  0.22732538443E+03  0.12499898344E+03 0.  0.
    9000005    1    3    3    0    0 -0.49862748193E+02  0.27370134258E+02 -0.69358347325E+02  0.89705062568E+02  0.10000000000E+01 0.  0.
    9000005    1    3    3    0    0  0.47038936661E+02 -0.50434850757E+02 -0.11908827505E+03  0.13762032186E+03  0.10000000000E+01 0.  0.
         21    1    1    2  502  501  0.28238115314E+01  0.23064716499E+02 -0.16118055290E+03  0.16284693946E+03  0.00000000000E+00 0.  1.
<mgrwt>
<rscale>  1 0.12714048E+03</rscale>
<asrwt>0</asrwt>
<pdfrwt beam="2">  1        4 0.56907649E-01 0.12714048E+03</pdfrwt>
<pdfrwt beam="1">  1       -4 0.31188579E-02 0.12714048E+03</pdfrwt>
<totfact> 0.24370018E+03</totfact>
</mgrwt>
</event>
<event>
 6    4  0.5642870E-004  0.1368947E+03  0.7818608E-02  0.1217569E+00
         -4   -1    0    0    0  501 -0.00000000000E+00  0.00000000000E+00  0.47871489271E+03  0.47871657732E+03  0.12700000000E+01 0. -1.
          4   -1    0    0  502    0  0.00000000000E+00 -0.00000000000E+00 -0.24466603306E+02  0.24499542390E+02  0.12700000000E+01 0. -1.
         25    2    1    2    0    0 -0.44852596704E+02  0.33230650784E+02  0.40917953715E+03  0.43147196307E+03  0.12499651879E+03 0.  0.
    9000005    1    3    3    0    0 -0.67821868403E+02 -0.17729423330E+02  0.30795948487E+03  0.31583885544E+03  0.10000000000E+01 0.  0.
    9000005    1    3    3    0    0  0.22969271700E+02  0.50960074114E+02  0.10122005228E+03  0.11563310763E+03  0.10000000000E+01 0.  0.
         21    1    1    2  502  501  0.44852596704E+02 -0.33230650784E+02  0.45068752258E+02  0.71744156645E+02  0.00000000000E+00 0. -1.
<mgrwt>
<rscale>  1 0.13689471E+03</rscale>
<asrwt>0</asrwt>
<pdfrwt beam="2">  1        4 0.37667560E-02 0.13689471E+03</pdfrwt>
<pdfrwt beam="1">  1       -4 0.73651111E-01 0.13689471E+03</pdfrwt>
<totfact> 0.10631871E+03</totfact>
</mgrwt>
</event>
<event>
 6    4  0.5642870E-004  0.1272198E+03  0.7818608E-02  0.1231640E+00
          4   -1    0    0  502    0  0.00000000000E+00  0.00000000000E+00  0.26475493554E+02  0.26505936296E+02  0.12700000000E+01 0.  1.
         -4   -1    0    0    0  501 -0.00000000000E+00 -0.00000000000E+00 -0.22734297797E+03  0.22734652523E+03  0.12700000000E+01 0.  1.
         25    2    1    2    0    0 -0.68132649344E+00  0.23654766826E+02 -0.18775808347E+03  0.22679939159E+03  0.12499941568E+03 0.  0.
    9000005    1    3    3    0    0  0.52908228724E+02  0.25805194803E+02 -0.44417065372E+02  0.73750013165E+02  0.10000000000E+01 0.  0.
    9000005    1    3    3    0    0 -0.53589555218E+02 -0.21504279774E+01 -0.14334101810E+03  0.15304937843E+03  0.10000000000E+01 0.  0.
         21    1    1    2  502  501  0.68132649344E+00 -0.23654766826E+02 -0.13109400951E+02  0.27053069931E+02  0.00000000000E+00 0.  1.
<mgrwt>
<rscale>  1 0.12721976E+03</rscale>
<asrwt>0</asrwt>
<pdfrwt beam="1">  1        4 0.40757676E-02 0.12721976E+03</pdfrwt>
<pdfrwt beam="2">  1       -4 0.34978456E-01 0.12721976E+03</pdfrwt>
<totfact> 0.42292169E+03</totfact>
</mgrwt>
</event>
<event>
 6    4  0.5642870E-004  0.1302055E+03  0.7818608E-02  0.1227151E+00
         -4   -1    0    0    0  501 -0.00000000000E+00  0.00000000000E+00  0.32010770984E+02  0.32035954161E+02  0.12700000000E+01 0.  1.
          4   -1    0    0  502    0  0.00000000000E+00 -0.00000000000E+00 -0.22709377114E+03  0.22709732229E+03  0.12700000000E+01 0.  1.
         25    2    1    2    0    0 -0.35881699074E+02  0.64360363388E+01 -0.12689606299E+03  0.18181330947E+03  0.12499819922E+03 0.  0.
    9000005    1    3    3    0    0  0.42414929258E+02  0.16081767753E+02 -0.74083289450E+02  0.86873374826E+02  0.10000000000E+01 0.  0.
    9000005    1    3    3    0    0 -0.78296628331E+02 -0.96457314138E+01 -0.52812773535E+02  0.94939934648E+02  0.10000000000E+01 0.  0.
         21    1    1    2  502  501  0.35881699074E+02 -0.64360363388E+01 -0.68186937170E+02  0.77319966974E+02  0.00000000000E+00 0.  1.
<mgrwt>
<rscale>  1 0.13020549E+03</rscale>
<asrwt>0</asrwt>
<pdfrwt beam="2">  1        4 0.34939713E-01 0.13020549E+03</pdfrwt>
<pdfrwt beam="1">  1       -4 0.49269445E-02 0.13020549E+03</pdfrwt>
<totfact> 0.31490316E+03</totfact>
</mgrwt>
</event>
<event>
 6    4  0.5642870E-004  0.1296890E+03  0.7818608E-02  0.1227918E+00
         -4   -1    0    0    0  501 -0.00000000000E+00  0.00000000000E+00  0.23498104143E+02  0.23532398907E+02  0.12700000000E+01 0. -1.
          4   -1    0    0  502    0  0.00000000000E+00 -0.00000000000E+00 -0.35024567864E+03  0.35024798116E+03  0.12700000000E+01 0. -1.
         25    2    1    2    0    0  0.30359231991E+02 -0.16497098912E+02 -0.17308672979E+03  0.21628278506E+03  0.12500155935E+03 0.  0.
    9000005    1    3    3    0    0 -0.38057334244E+02 -0.39134364980E+02 -0.52162758957E+02  0.75510347861E+02  0.10000000000E+01 0.  0.
    9000005    1    3    3    0    0  0.68416566235E+02  0.22637266068E+02 -0.12092397084E+03  0.14077243719E+03  0.10000000000E+01 0.  0.
         21    1    1    2  502  501 -0.30359231991E+02  0.16497098912E+02 -0.15366084470E+03  0.15749759501E+03  0.00000000000E+00 0. -1.
<mgrwt>
<rscale>  1 0.12968896E+03</rscale>
<asrwt>0</asrwt>
<pdfrwt beam="2">  1        4 0.53886762E-01 0.12968896E+03</pdfrwt>
<pdfrwt beam="1">  1       -4 0.36179084E-02 0.12968896E+03</pdfrwt>
<totfact> 0.21701998E+03</totfact>
</mgrwt>
</event>
<event>
 6    4  0.5642870E-004  0.1280237E+03  0.7818608E-02  0.1230418E+00
          4   -1    0    0  502    0  0.00000000000E+00  0.00000000000E+00  0.71996795785E+02  0.72007996107E+02  0.12700000000E+01 0. -1.
         -4   -1    0    0    0  501 -0.00000000000E+00 -0.00000000000E+00 -0.46281721459E+03  0.46281895707E+03  0.12700000000E+01 0. -1.
         25    2    1    2    0    0 -0.27265812144E+02  0.47274466750E+01 -0.45087757802E+03  0.46870104571E+03  0.12499722648E+03 0.  0.
    9000005    1    3    3    0    0 -0.75749705312E+02  0.11246354854E+02 -0.31824433824E+03  0.32733004319E+03  0.10000000000E+01 0.  0.
    9000005    1    3    3    0    0  0.48483893167E+02 -0.65189081789E+01 -0.13263323978E+03  0.14137100253E+03  0.10000000000E+01 0.  0.
         21    1    1    2  502  501  0.27265812144E+02 -0.47274466750E+01  0.60057159217E+02  0.66125907458E+02  0.00000000000E+00 0. -1.
<mgrwt>
<rscale>  1 0.12802375E+03</rscale>
<asrwt>0</asrwt>
<pdfrwt beam="1">  1        4 0.11077426E-01 0.12802375E+03</pdfrwt>
<pdfrwt beam="2">  1       -4 0.71203642E-01 0.12802375E+03</pdfrwt>
<totfact> 0.19361768E+02</totfact>
</mgrwt>
</event>
<event>
 6    4  0.5642870E-004  0.1282189E+03  0.7818608E-02  0.1230123E+00
         -4   -1    0    0    0  501 -0.00000000000E+00  0.00000000000E+00  0.45483453639E+03  0.45483630945E+03  0.12700000000E+01 0. -1.
          4   -1    0    0  502    0  0.00000000000E+00 -0.00000000000E+00 -0.16254113589E+02  0.16303653228E+02  0.12700000000E+01 0. -1.
         25    2    1    2    0    0  0.26939631490E+01 -0.28418676443E+02  0.41422578893E+03  0.43361627950E+03  0.12500078010E+03 0.  0.
    9000005    1    3    3    0    0  0.62108377066E+02 -0.27290134434E+02  0.24672982726E+03  0.25588827561E+03  0.10000000000E+01 0.  0.
    9000005    1    3    3    0    0 -0.59414413917E+02 -0.11285420090E+01  0.16749596167E+03  0.17772800388E+03  0.10000000000E+01 0.  0.
         21    1    1    2  502  501 -0.26939631490E+01  0.28418676443E+02  0.24354633877E+02  0.37523683182E+02  0.00000000000E+00 0. -1.
<mgrwt>
<rscale>  1 0.12821885E+03</rscale>
<asrwt>0</asrwt>
<pdfrwt beam="2">  1        4 0.25045799E-02 0.12821885E+03</pdfrwt>
<pdfrwt beam="1">  1       -4 0.69978493E-01 0.12821885E+03</pdfrwt>
<totfact> 0.22197253E+03</totfact>
</mgrwt>
</event>
<event>
 6    4  0.5642870E-004  0.1355072E+03  0.7818608E-02  0.1219505E+00
          4   -1    0    0  502    0  0.00000000000E+00  0.00000000000E+00  0.48730060050E+03  0.48730225543E+03  0.12700000000E+01 0.  1.
         -4   -1    0    0    0  501 -0.00000000000E+00 -0.00000000000E+00 -0.15093820244E+03  0.15094354526E+03  0.12700000000E+01 0.  1.
         25    2    1    2    0    0 -0.49239155577E+02  0.17461037336E+02 -0.11873039780E+03  0.18016411025E+03  0.12503126407E+03 0.  0.
    9000005    1    3    3    0    0  0.27376700329E+02  0.12985264292E+02 -0.95161406893E+02  0.99873891340E+02  0.10000000000E+01 0.  0.
    9000005    1    3    3    0    0 -0.76615855906E+02  0.44757730440E+01 -0.23568990910E+02  0.80290218913E+02  0.10000000000E+01 0.  0.
         21    1    1    2  502  501  0.49239155577E+02 -0.17461037336E+02  0.45509279586E+03  0.45808169044E+03  0.00000000000E+00 0.  1.
<mgrwt>
<rscale>  1 0.13550719E+03</rscale>
<asrwt>0</asrwt>
<pdfrwt beam="1">  1        4 0.74969861E-01 0.13550719E+03</pdfrwt>
<pdfrwt beam="2">  1       -4 0.23221800E-01 0.13550719E+03</pdfrwt>
<totfact> 0.47530449E+01</totfact>
</mgrwt>
</event>
<event>
 6    4  0.5642870E-004  0.1485378E+03  0.7818608E-02  0.1202281E+00
          4   -1    0    0  502    0  0.00000000000E+00  0.00000000000E+00  0.77918002793E+03  0.77918106293E+03  0.12700000000E+01 0.  1.
         -4   -1    0    0    0  501 -0.00000000000E+00 -0.00000000000E+00 -0.18564903717E+02  0.18608292506E+02  0.12700000000E+01 0.  1.
         25    2    1    2    0    0  0.64427350272E+02 -0.47828125963E+02  0.36402925082E+03  0.39316759617E+03  0.12500020051E+03 0.  0.
    9000005    1    3    3    0    0  0.47186004033E+02 -0.68846461897E+02  0.35473024474E+03  0.36441857915E+03  0.10000000000E+01 0.  0.
    9000005    1    3    3    0    0  0.17241346239E+02  0.21018335933E+02  0.92990060742E+01  0.28749017018E+02  0.10000000000E+01 0.  0.
         21    1    1    2  502  501 -0.64427350272E+02  0.47828125963E+02  0.39658587340E+03  0.40462175927E+03  0.00000000000E+00 0.  1.
<mgrwt>
<rscale>  1 0.14853775E+03</rscale>
<asrwt>0</asrwt>
<pdfrwt beam="1">  1        4 0.11987726E+00 0.14853775E+03</pdfrwt>
<pdfrwt beam="2">  1       -4 0.28595564E-02 0.14853775E+03</pdfrwt>
<totfact> 0.54745969E+02</totfact>
</mgrwt>
</event>
<event>
 6    4  0.5642870E-004  0.1290567E+03  0.7818608E-02  0.1228862E+00
         -4   -1    0    0    0  501 -0.00000000000E+00  0.00000000000E+00  0.14676099707E+03  0.14676649195E+03  0.12700000000E+01 0. -1.
          4   -1    0    0  502    0  0.00000000000E+00 -0.00000000000E+00 -0.45155277998E+02  0.45173133952E+02  0.12700000000E+01 0. -1.
         25    2    1    2    0    0 -0.15487765580E+02 -0.28131321286E+02  0.91755288675E+02  0.15834984920E+03  0.12499759847E+03 0.  0.
    9000005    1    3    3    0    0 -0.32867307197E+02  0.19149341465E+02 -0.14526416596E+02  0.40730503803E+02  0.10000000000E+01 0.  0.
    9000005    1    3    3    0    0  0.17379541618E+02 -0.47280662751E+02  0.10628170527E+03  0.11761934540E+03  0.10000000000E+01 0.  0.
         21    1    1    2  502  501  0.15487765580E+02  0.28131321286E+02  0.98504303939E+01  0.33589776702E+02  0.00000000000E+00 0. -1.
<mgrwt>
<rscale>  1 0.12905674E+03</rscale>
<asrwt>0</asrwt>
<pdfrwt beam="2">  1        4 0.69487619E-02 0.12905674E+03</pdfrwt>
<pdfrwt beam="1">  1       -4 0.22580412E-01 0.12905674E+03</pdfrwt>
<totfact> 0.40754013E+03</totfact>
</mgrwt>
</event>
<event>
 6    4  0.5642870E-004  0.1277879E+03  0.7818608E-02  0.1230776E+00
         -4   -1    0    0    0  501 -0.00000000000E+00  0.00000000000E+00  0.21009569145E+02  0.21047919034E+02  0.12700000000E+01 0. -1.
          4   -1    0    0  502    0  0.00000000000E+00 -0.00000000000E+00 -0.46110795850E+03  0.46110970744E+03  0.12700000000E+01 0. -1.
         25    2    1    2    0    0  0.25280836732E+02 -0.80544960938E+01 -0.18021605698E+03  0.22092435468E+03  0.12500299069E+03 0.  0.
    9000005    1    3    3    0    0 -0.30093172831E+02  0.39203463304E+02 -0.10600211734E+03  0.11696135886E+03  0.10000000000E+01 0.  0.
    9000005    1    3    3    0    0  0.55374009564E+02 -0.47257959398E+02 -0.74213939645E+02  0.10396299582E+03  0.10000000000E+01 0.  0.
         21    1    1    2  502  501 -0.25280836732E+02  0.80544960938E+01 -0.25988233237E+03  0.26123327180E+03  0.00000000000E+00 0. -1.
<mgrwt>
<rscale>  1 0.12778788E+03</rscale>
<asrwt>0</asrwt>
<pdfrwt beam="2">  1        4 0.70942763E-01 0.12778788E+03</pdfrwt>
<pdfrwt beam="1">  1       -4 0.32353263E-02 0.12778788E+03</pdfrwt>
<totfact> 0.14440693E+03</totfact>
</mgrwt>
</event>
<event>
 6    4  0.5642870E-004  0.1283833E+03  0.7818608E-02  0.1229875E+00
         -4   -1    0    0    0  501 -0.00000000000E+00  0.00000000000E+00  0.32739536974E+03  0.32739783296E+03  0.12700000000E+01 0. -1.
          4   -1    0    0  502    0  0.00000000000E+00 -0.00000000000E+00 -0.19008307272E+02  0.19050686217E+02  0.12700000000E+01 0. -1.
         25    2    1    2    0    0 -0.26580650180E+02 -0.12261239982E+02  0.24378188684E+03  0.27552110778E+03  0.12500161403E+03 0.  0.
    9000005    1    3    3    0    0 -0.48494715108E+02 -0.57127135266E+02  0.11364357069E+03  0.13612901284E+03  0.10000000000E+01 0.  0.
    9000005    1    3    3    0    0  0.21914064929E+02  0.44865895284E+02  0.13013831615E+03  0.13939209494E+03  0.10000000000E+01 0.  0.
         21    1    1    2  502  501  0.26580650180E+02  0.12261239982E+02  0.64605175622E+02  0.70927411394E+02  0.00000000000E+00 0. -1.
<mgrwt>
<rscale>  1 0.12838330E+03</rscale>
<asrwt>0</asrwt>
<pdfrwt beam="2">  1        4 0.29278045E-02 0.12838330E+03</pdfrwt>
<pdfrwt beam="1">  1       -4 0.50371965E-01 0.12838330E+03</pdfrwt>
<totfact> 0.34660973E+03</totfact>
</mgrwt>
</event>
<event>
 6    4  0.5642870E-004  0.1266266E+03  0.7818608E-02  0.1232549E+00
          4   -1    0    0  502    0  0.00000000000E+00  0.00000000000E+00  0.14081481343E+02  0.14138635607E+02  0.12700000000E+01 0.  1.
         -4   -1    0    0    0  501 -0.00000000000E+00 -0.00000000000E+00 -0.40775558264E+03  0.40775756041E+03  0.12700000000E+01 0.  1.
         25    2    1    2    0    0  0.45657094720E+01 -0.19672339483E+02 -0.36833836309E+03  0.38949640784E+03  0.12500582127E+03 0.  0.
    9000005    1    3    3    0    0  0.53980972222E+02 -0.42724573630E+02 -0.24794372157E+03  0.25732552074E+03  0.10000000000E+01 0.  0.
    9000005    1    3    3    0    0 -0.49415262750E+02  0.23052234147E+02 -0.12039464152E+03  0.13217088710E+03  0.10000000000E+01 0.  0.
         21    1    1    2  502  501 -0.45657094720E+01  0.19672339483E+02 -0.25335738205E+02  0.32399788180E+02  0.00000000000E+00 0.  1.
<mgrwt>
<rscale>  1 0.12662662E+03</rscale>
<asrwt>0</asrwt>
<pdfrwt beam="1">  1        4 0.21709307E-02 0.12662662E+03</pdfrwt>
<pdfrwt beam="2">  1       -4 0.62736168E-01 0.12662662E+03</pdfrwt>
<totfact> 0.34860674E+03</totfact>
</mgrwt>
</event>
<event>
 6    4  0.5642870E-004  0.1273854E+03  0.7818608E-02  0.1231388E+00
          4   -1    0    0  502    0  0.00000000000E+00  0.00000000000E+00  0.14677783458E+03  0.14678332883E+03  0.12700000000E+01 0. -1.
         -4   -1    0    0    0  501 -0.00000000000E+00 -0.00000000000E+00 -0.13138603905E+03  0.13139217693E+03  0.12700000000E+01 0. -1.
         25    2    1    2    0    0  0.48177786835E+01  0.24070746334E+02 -0.98904028189E+02  0.16127320835E+03  0.12499771646E+03 0.  0.
    9000005    1    3    3    0    0  0.63074009188E+02  0.22459056554E+02 -0.67438726084E+02  0.95035370427E+02  0.10000000000E+01 0.  0.
    9000005    1    3    3    0    0 -0.58256230505E+02  0.16116897800E+01 -0.31465302105E+02  0.66237837926E+02  0.10000000000E+01 0.  0.
         21    1    1    2  502  501 -0.48177786835E+01 -0.24070746334E+02  0.11429582371E+03  0.11690229741E+03  0.00000000000E+00 0. -1.
<mgrwt>
<rscale>  1 0.12738540E+03</rscale>
<asrwt>0</asrwt>
<pdfrwt beam="1">  1        4 0.22582100E-01 0.12738540E+03</pdfrwt>
<pdfrwt beam="2">  1       -4 0.20214132E-01 0.12738540E+03</pdfrwt>
<totfact> 0.65387187E+02</totfact>
</mgrwt>
</event>
<event>
 6    4  0.5642870E-004  0.1266838E+03  0.7818608E-02  0.1232461E+00
         -4   -1    0    0    0  501 -0.00000000000E+00  0.00000000000E+00  0.78739422985E+01  0.79757048165E+01  0.12700000000E+01 0. -1.
          4   -1    0    0  502    0  0.00000000000E+00 -0.00000000000E+00 -0.94533692407E+03  0.94533777715E+03  0.12700000000E+01 0. -1.
         25    2    1    2    0    0 -0.27920524940E+01 -0.20394400689E+02 -0.51511568608E+03  0.53046485029E+03  0.12500024083E+03 0.  0.
    9000005    1    3    3    0    0 -0.21616461311E+02 -0.35609373552E+02 -0.51633301071E+02  0.66349805304E+02  0.10000000000E+01 0.  0.
    9000005    1    3    3    0    0  0.18824408816E+02  0.15214972863E+02 -0.46348238501E+03  0.46411504499E+03  0.10000000000E+01 0.  0.
         21    1    1    2  502  501  0.27920524940E+01  0.20394400689E+02 -0.42234729569E+03  0.42284863168E+03  0.00000000000E+00 0. -1.
<mgrwt>
<rscale>  1 0.12668381E+03</rscale>
<asrwt>0</asrwt>
<pdfrwt beam="2">  1        4 0.14544425E+00 0.12668381E+03</pdfrwt>
<pdfrwt beam="1">  1       -4 0.12192700E-02 0.12668381E+03</pdfrwt>
<totfact> 0.12222440E+03</totfact>
</mgrwt>
</event>
<event>
 6    4  0.5642870E-004  0.1389481E+03  0.7818608E-02  0.1214751E+00
          4   -1    0    0  502    0  0.00000000000E+00  0.00000000000E+00  0.41395748609E+02  0.41415225496E+02  0.12700000000E+01 0. -1.
         -4   -1    0    0    0  501 -0.00000000000E+00 -0.00000000000E+00 -0.32093648983E+03  0.32093900263E+03  0.12700000000E+01 0. -1.
         25    2    1    2    0    0  0.49863895981E+02 -0.34569642549E+02 -0.26612286170E+03  0.30021319660E+03  0.12500047033E+03 0.  0.
    9000005    1    3    3    0    0 -0.25374670447E+02  0.29703438893E+02 -0.91572667091E+02  0.99562651333E+02  0.10000000000E+01 0.  0.
    9000005    1    3    3    0    0  0.75238566428E+02 -0.64273081443E+02 -0.17455019461E+03  0.20065054526E+03  0.10000000000E+01 0.  0.
         21    1    1    2  502  501 -0.49863895981E+02  0.34569642549E+02 -0.13417879527E+02  0.62141031528E+02  0.00000000000E+00 0.  1.
<mgrwt>
<rscale>  1 0.13894814E+03</rscale>
<asrwt>0</asrwt>
<pdfrwt beam="1">  1        4 0.63702684E-02 0.13894814E+03</pdfrwt>
<pdfrwt beam="2">  1       -4 0.49376535E-01 0.13894814E+03</pdfrwt>
<totfact> 0.10631142E+03</totfact>
</mgrwt>
</event>
<event>
 6    4  0.5642870E-004  0.1273969E+03  0.7818608E-02  0.1231370E+00
          4   -1    0    0  502    0  0.00000000000E+00  0.00000000000E+00  0.10347610227E+04  0.10347618020E+04  0.12700000000E+01 0. -1.
         -4   -1    0    0    0  501 -0.00000000000E+00 -0.00000000000E+00 -0.55277861266E+01  0.56718003722E+01  0.12700000000E+01 0. -1.
         25    2    1    2    0    0  0.19118704584E+02  0.15438567720E+02  0.83815611468E+03  0.84778277645E+03  0.12500435688E+03 0.  0.
    9000005    1    3    3    0    0 -0.54666256919E+01  0.27079804902E+02  0.80224420114E+03  0.80272034863E+03  0.10000000000E+01 0.  0.
    9000005    1    3    3    0    0  0.24585330276E+02 -0.11641237182E+02  0.35911913535E+02  0.45062427827E+02  0.10000000000E+01 0.  0.
         21    1    1    2  502  501 -0.19118704584E+02 -0.15438567720E+02  0.19107712188E+03  0.19265082596E+03  0.00000000000E+00 0. -1.
<mgrwt>
<rscale>  1 0.12739687E+03</rscale>
<asrwt>0</asrwt>
<pdfrwt beam="1">  1        4 0.15920513E+00 0.12739687E+03</pdfrwt>
<pdfrwt beam="2">  1       -4 0.86156665E-03 0.12739687E+03</pdfrwt>
<totfact> 0.16381157E+03</totfact>
</mgrwt>
</event>
<event>
 6    4  0.5642870E-004  0.1291322E+03  0.7818608E-02  0.1228749E+00
         -4   -1    0    0    0  501 -0.00000000000E+00  0.00000000000E+00  0.86860391679E+02  0.86869675622E+02  0.12700000000E+01 0. -1.
          4   -1    0    0  502    0  0.00000000000E+00 -0.00000000000E+00 -0.12078975683E+03  0.12079643312E+03  0.12700000000E+01 0. -1.
         25    2    1    2    0    0  0.28596853741E+02  0.15263875336E+02  0.33015610713E+02  0.13328603260E+03  0.12499747998E+03 0.  0.
    9000005    1    3    3    0    0 -0.17207310920E+02 -0.41239604846E+02  0.40295164557E+02  0.60178873732E+02  0.10000000000E+01 0.  0.
    9000005    1    3    3    0    0  0.45804164661E+02  0.56503480182E+02 -0.72795538439E+01  0.73107158864E+02  0.10000000000E+01 0.  0.
         21    1    1    2  502  501 -0.28596853741E+02 -0.15263875336E+02 -0.66944975860E+02  0.74380076143E+02  0.00000000000E+00 0. -1.
<mgrwt>
<rscale>  1 0.12913224E+03</rscale>
<asrwt>0</asrwt>
<pdfrwt beam="2">  1        4 0.18584267E-01 0.12913224E+03</pdfrwt>
<pdfrwt beam="1">  1       -4 0.13364365E-01 0.12913224E+03</pdfrwt>
<totfact> 0.19303280E+03</totfact>
</mgrwt>
</event>
<event>
 6    4  0.5642870E-004  0.1270034E+03  0.7818608E-02  0.1231971E+00
          4   -1    0    0  502    0  0.00000000000E+00  0.00000000000E+00  0.29855067667E+02  0.29882067622E+02  0.12700000000E+01 0.  1.
         -4   -1    0    0    0  501 -0.00000000000E+00 -0.00000000000E+00 -0.33596073735E+03  0.33596313777E+03  0.12700000000E+01 0.  1.
         25    2    1    2    0    0  0.20416472086E+02  0.93645409430E+01 -0.31654754195E+03  0.34107506902E+03  0.12500131773E+03 0.  0.
    9000005    1    3    3    0    0 -0.38163085679E+02  0.31444955327E+02 -0.22361232125E+03  0.22901676039E+03  0.10000000000E+01 0.  0.
    9000005    1    3    3    0    0  0.58579557765E+02 -0.22080414384E+02 -0.92935220699E+02  0.11205830863E+03  0.10000000000E+01 0.  0.
         21    1    1    2  502  501 -0.20416472086E+02 -0.93645409430E+01  0.10441872265E+02  0.24770136372E+02  0.00000000000E+00 0.  1.
<mgrwt>
<rscale>  1 0.12700337E+03</rscale>
<asrwt>0</asrwt>
<pdfrwt beam="1">  1        4 0.45953491E-02 0.12700337E+03</pdfrwt>
<pdfrwt beam="2">  1       -4 0.51688526E-01 0.12700337E+03</pdfrwt>
<totfact> 0.16091087E+03</totfact>
</mgrwt>
</event>
<event>
 6    4  0.5642870E-004  0.1498286E+03  0.7818608E-02  0.1200684E+00
          4   -1    0    0  502    0  0.00000000000E+00  0.00000000000E+00  0.16862157304E+03  0.16862635558E+03  0.12700000000E+01 0. -1.
         -4   -1    0    0    0  501 -0.00000000000E+00 -0.00000000000E+00 -0.80420272200E+02  0.80430299519E+02  0.12700000000E+01 0. -1.
         25    2    1    2    0    0  0.82235575443E+02  0.77972443283E+01  0.49130337856E+02  0.15767817275E+03  0.12500051670E+03 0.  0.
    9000005    1    3    3    0    0  0.10531536514E+03  0.26654166596E+02  0.10889928549E+02  0.10918498649E+03  0.10000000000E+01 0.  0.
    9000005    1    3    3    0    0 -0.23079789694E+02 -0.18856922268E+02  0.38240409307E+02  0.48493186260E+02  0.10000000000E+01 0.  0.
         21    1    1    2  502  501 -0.82235575443E+02 -0.77972443283E+01  0.39070962989E+02  0.91378482349E+02  0.00000000000E+00 0. -1.
<mgrwt>
<rscale>  1 0.14982862E+03</rscale>
<asrwt>0</asrwt>
<pdfrwt beam="1">  1        4 0.25942919E-01 0.14982862E+03</pdfrwt>
<pdfrwt beam="2">  1       -4 0.12373489E-01 0.14982862E+03</pdfrwt>
<totfact> 0.12404662E+03</totfact>
</mgrwt>
</event>
<event>
 6    4  0.5642870E-004  0.1266681E+03  0.7818608E-02  0.1232485E+00
         -4   -1    0    0    0  501 -0.00000000000E+00  0.00000000000E+00  0.99205790441E+01  0.10001539310E+02  0.12700000000E+01 0.  1.
          4   -1    0    0  502    0  0.00000000000E+00 -0.00000000000E+00 -0.78030137552E+03  0.78030240903E+03  0.12700000000E+01 0.  1.
         25    2    1    2    0    0  0.19845951560E+02 -0.50837416933E+01 -0.40493366579E+03  0.42428303152E+03  0.12500044369E+03 0.  0.
    9000005    1    3    3    0    0 -0.74177153260E+01 -0.55615599478E+02 -0.10655811621E+03  0.12043151388E+03  0.10000000000E+01 0.  0.
    9000005    1    3    3    0    0  0.27263666886E+02  0.50531857785E+02 -0.29837554959E+03  0.30385151764E+03  0.10000000000E+01 0.  0.
         21    1    1    2  502  501 -0.19845951560E+02  0.50837416933E+01 -0.36544713069E+03  0.36602091682E+03  0.00000000000E+00 0.  1.
<mgrwt>
<rscale>  1 0.12666814E+03</rscale>
<asrwt>0</asrwt>
<pdfrwt beam="2">  1        4 0.12005262E+00 0.12666814E+03</pdfrwt>
<pdfrwt beam="1">  1       -4 0.15325508E-02 0.12666814E+03</pdfrwt>
<totfact> 0.13839254E+03</totfact>
</mgrwt>
</event>
<event>
 6    4  0.5642870E-004  0.1298778E+03  0.7818608E-02  0.1227637E+00
          4   -1    0    0  502    0  0.00000000000E+00  0.00000000000E+00  0.29590489455E+02  0.29617730605E+02  0.12700000000E+01 0. -1.
         -4   -1    0    0    0  501 -0.00000000000E+00 -0.00000000000E+00 -0.26191338478E+03  0.26191646383E+03  0.12700000000E+01 0. -1.
         25    2    1    2    0    0 -0.32062008826E+02  0.14654221777E+02 -0.21742662244E+03  0.25326387210E+03  0.12500213654E+03 0.  0.
    9000005    1    3    3    0    0  0.26351701503E+02  0.45809019991E+02 -0.48154078623E+02  0.71503103238E+02  0.10000000000E+01 0.  0.
    9000005    1    3    3    0    0 -0.58413710329E+02 -0.31154798214E+02 -0.16927254382E+03  0.18176076886E+03  0.10000000000E+01 0.  0.
         21    1    1    2  502  501  0.32062008826E+02 -0.14654221777E+02 -0.14896272878E+02  0.38270322334E+02  0.00000000000E+00 0. -1.
<mgrwt>
<rscale>  1 0.12987784E+03</rscale>
<asrwt>0</asrwt>
<pdfrwt beam="1">  1        4 0.45547155E-02 0.12987784E+03</pdfrwt>
<pdfrwt beam="2">  1       -4 0.40296698E-01 0.12987784E+03</pdfrwt>
<totfact> 0.27032919E+03</totfact>
</mgrwt>
</event>
<event>
 6    4  0.5642870E-004  0.1403009E+03  0.7818608E-02  0.1212925E+00
         -4   -1    0    0    0  501 -0.00000000000E+00  0.00000000000E+00  0.20020756867E+03  0.20021159670E+03  0.12700000000E+01 0.  1.
          4   -1    0    0  502    0  0.00000000000E+00 -0.00000000000E+00 -0.10675350652E+03  0.10676106057E+03  0.12700000000E+01 0.  1.
         25    2    1    2    0    0  0.46379499211E+02  0.43682335931E+02  0.16138154575E+03  0.21384184901E+03  0.12500051464E+03 0.  0.
    9000005    1    3    3    0    0  0.85775230809E+02  0.48573577109E+02  0.97687474173E+02  0.13878265462E+03  0.10000000000E+01 0.  0.
    9000005    1    3    3    0    0 -0.39395731597E+02 -0.48912411784E+01  0.63694071579E+02  0.75059194391E+02  0.10000000000E+01 0.  0.
         21    1    1    2  502  501 -0.46379499211E+02 -0.43682335931E+02 -0.67927483602E+02  0.93130808264E+02  0.00000000000E+00 0.  1.
<mgrwt>
<rscale>  1 0.14030087E+03</rscale>
<asrwt>0</asrwt>
<pdfrwt beam="2">  1        4 0.16424507E-01 0.14030087E+03</pdfrwt>
<pdfrwt beam="1">  1       -4 0.30802055E-01 0.14030087E+03</pdfrwt>
<totfact> 0.54177088E+02</totfact>
</mgrwt>
</event>
<event>
 6    4  0.5642870E-004  0.1284429E+03  0.7818608E-02  0.1229785E+00
         -4   -1    0    0    0  501 -0.00000000000E+00  0.00000000000E+00  0.24302698831E+03  0.24303030664E+03  0.12700000000E+01 0.  1.
          4   -1    0    0  502    0  0.00000000000E+00 -0.00000000000E+00 -0.25748605771E+02  0.25779906887E+02  0.12700000000E+01 0.  1.
         25    2    1    2    0    0  0.20806879155E+02 -0.20947282000E+02  0.18287849821E+03  0.22347736799E+03  0.12500349615E+03 0.  0.
    9000005    1    3    3    0    0  0.93940963564E+01  0.44744867391E+02  0.25056325757E+02  0.52145677335E+02  0.10000000000E+01 0.  0.
    9000005    1    3    3    0    0  0.11412782799E+02 -0.65692149392E+02  0.15782217246E+03  0.17133169065E+03  0.10000000000E+01 0.  0.
         21    1    1    2  502  501 -0.20806879155E+02  0.20947282000E+02  0.34399884322E+02  0.45332845540E+02  0.00000000000E+00 0. -1.
<mgrwt>
<rscale>  1 0.12844294E+03</rscale>
<asrwt>0</asrwt>
<pdfrwt beam="2">  1        4 0.39639869E-02 0.12844294E+03</pdfrwt>
<pdfrwt beam="1">  1       -4 0.37391431E-01 0.12844294E+03</pdfrwt>
<totfact> 0.38935542E+03</totfact>
</mgrwt>
</event>
<event>
 6    4  0.5642870E-004  0.1292275E+03  0.7818608E-02  0.1228606E+00
          4   -1    0    0  502    0  0.00000000000E+00  0.00000000000E+00  0.14303125145E+04  0.14303130783E+04  0.12700000000E+01 0. -1.
         -4   -1    0    0    0  501 -0.00000000000E+00 -0.00000000000E+00 -0.68365662426E+01  0.69535270180E+01  0.12700000000E+01 0. -1.
         25    2    1    2    0    0  0.81956300458E+01 -0.31827313885E+02  0.63035374967E+03  0.64346375315E+03  0.12497842068E+03 0.  0.
    9000005    1    3    3    0    0  0.75312542993E+01 -0.79744400025E+02  0.43511115491E+03  0.44242355979E+03  0.10000000000E+01 0.  0.
    9000005    1    3    3    0    0  0.66437574649E+00  0.47917086141E+02  0.19524259476E+03  0.20104019336E+03  0.10000000000E+01 0.  0.
         21    1    1    2  502  501 -0.81956300458E+01  0.31827313885E+02  0.79312219857E+03  0.79380285218E+03  0.00000000000E+00 0. -1.
<mgrwt>
<rscale>  1 0.12922752E+03</rscale>
<asrwt>0</asrwt>
<pdfrwt beam="1">  1        4 0.22005726E+00 0.12922752E+03</pdfrwt>
<pdfrwt beam="2">  1       -4 0.10608191E-02 0.12922752E+03</pdfrwt>
<totfact> 0.48918588E+02</totfact>
</mgrwt>
</event>
<event>
 6    4  0.5642870E-004  0.1281632E+03  0.7818608E-02  0.1230207E+00
          4   -1    0    0  502    0  0.00000000000E+00  0.00000000000E+00  0.27760475537E+03  0.27760766038E+03  0.12700000000E+01 0. -1.
         -4   -1    0    0    0  501 -0.00000000000E+00 -0.00000000000E+00 -0.26792673089E+02  0.26822755847E+02  0.12700000000E+01 0. -1.
         25    2    1    2    0    0  0.27176758337E+02  0.81137050841E+01  0.13896156008E+03  0.18904000190E+03  0.12498559410E+03 0.  0.
    9000005    1    3    3    0    0  0.61606762202E+02  0.11197333076E+02  0.14111926111E+03  0.15439047663E+03  0.10000000000E+01 0.  0.
    9000005    1    3    3    0    0 -0.34430003865E+02 -0.30836279916E+01 -0.21577010284E+01  0.34649525270E+02  0.10000000000E+01 0.  0.
         21    1    1    2  502  501 -0.27176758337E+02 -0.81137050841E+01  0.11185052220E+03  0.11539041433E+03  0.00000000000E+00 0. -1.
<mgrwt>
<rscale>  1 0.12816321E+03</rscale>
<asrwt>0</asrwt>
<pdfrwt beam="1">  1        4 0.42710963E-01 0.12816321E+03</pdfrwt>
<pdfrwt beam="2">  1       -4 0.41244870E-02 0.12816321E+03</pdfrwt>
<totfact> 0.28133921E+03</totfact>
</mgrwt>
</event>
<event>
 6    4  0.5642870E-004  0.1267206E+03  0.7818608E-02  0.1232405E+00
          4   -1    0    0  502    0  0.00000000000E+00  0.00000000000E+00  0.71302223251E+02  0.71313532660E+02  0.12700000000E+01 0.  1.
         -4   -1    0    0    0  501 -0.00000000000E+00 -0.00000000000E+00 -0.10650583221E+03  0.10651340383E+03  0.12700000000E+01 0.  1.
         25    2    1    2    0    0 -0.87644045905E+01  0.18870562290E+02 -0.64265255747E+02  0.14208491329E+03  0.12500074631E+03 0.  0.
    9000005    1    3    3    0    0  0.69600918791E+00  0.49754416992E+02  0.18607734575E+02  0.53134115453E+02  0.10000000000E+01 0.  0.
    9000005    1    3    3    0    0 -0.94604137784E+01 -0.30883854702E+02 -0.82872990323E+02  0.88950797833E+02  0.10000000000E+01 0.  0.
         21    1    1    2  502  501  0.87644045905E+01 -0.18870562290E+02  0.29061646784E+02  0.35742023205E+02  0.00000000000E+00 0.  1.
<mgrwt>
<rscale>  1 0.12672056E+03</rscale>
<asrwt>0</asrwt>
<pdfrwt beam="1">  1        4 0.10971025E-01 0.12672056E+03</pdfrwt>
<pdfrwt beam="2">  1       -4 0.16386965E-01 0.12672056E+03</pdfrwt>
<totfact> 0.33648155E+03</totfact>
</mgrwt>
</event>
<event>
 6    4  0.5642870E-004  0.1308660E+03  0.7818608E-02  0.1226176E+00
         -4   -1    0    0    0  501 -0.00000000000E+00  0.00000000000E+00  0.38480590976E+03  0.38480800548E+03  0.12700000000E+01 0. -1.
          4   -1    0    0  502    0  0.00000000000E+00 -0.00000000000E+00 -0.22031721108E+02  0.22068294791E+02  0.12700000000E+01 0. -1.
         25    2    1    2    0    0  0.38568197463E+02 -0.36855652933E+01  0.33367997091E+03  0.35842464651E+03  0.12499925995E+03 0.  0.
    9000005    1    3    3    0    0  0.34464965631E+02 -0.54272235435E+02  0.26693120091E+03  0.27456615854E+03  0.10000000000E+01 0.  0.
    9000005    1    3    3    0    0  0.41032318321E+01  0.50586670141E+02  0.66748770000E+02  0.83858487966E+02  0.10000000000E+01 0.  0.
         21    1    1    2  502  501 -0.38568197463E+02  0.36855652933E+01  0.29094217736E+02  0.48451653767E+02  0.00000000000E+00 0. -1.
<mgrwt>
<rscale>  1 0.13086598E+03</rscale>
<asrwt>0</asrwt>
<pdfrwt beam="2">  1        4 0.33924703E-02 0.13086598E+03</pdfrwt>
<pdfrwt beam="1">  1       -4 0.59203881E-01 0.13086598E+03</pdfrwt>
<totfact> 0.19796759E+03</totfact>
</mgrwt>
</event>
<event>
 6    4  0.5642870E-004  0.1268131E+03  0.7818608E-02  0.1232263E+00
         -4   -1    0    0    0  501 -0.00000000000E+00  0.00000000000E+00  0.41108172881E+02  0.41127785956E+02  0.12700000000E+01 0. -1.
          4   -1    0    0  502    0  0.00000000000E+00 -0.00000000000E+00 -0.15140529285E+03  0.15141061919E+03  0.12700000000E+01 0. -1.
         25    2    1    2    0    0 -0.12126819823E+02  0.17647546388E+02 -0.65147127673E+02  0.14256823948E+03  0.12499223580E+03 0.  0.
    9000005    1    3    3    0    0  0.39139844828E+02  0.32674316994E+02 -0.72492950401E+02  0.88632760885E+02  0.10000000000E+01 0.  0.
    9000005    1    3    3    0    0 -0.51266664651E+02 -0.15026770606E+02  0.73458227286E+01  0.53935478591E+02  0.10000000000E+01 0.  0.
         21    1    1    2  502  501  0.12126819823E+02 -0.17647546388E+02 -0.45149992296E+02  0.49970165668E+02  0.00000000000E+00 0. -1.
<mgrwt>
<rscale>  1 0.12681307E+03</rscale>
<asrwt>0</asrwt>
<pdfrwt beam="2">  1        4 0.23295040E-01 0.12681307E+03</pdfrwt>
<pdfrwt beam="1">  1       -4 0.63262528E-02 0.12681307E+03</pdfrwt>
<totfact> 0.44686201E+03</totfact>
</mgrwt>
</event>
<event>
 6    4  0.5642870E-004  0.1276937E+03  0.7818608E-02  0.1230918E+00
         -4   -1    0    0    0  501 -0.00000000000E+00  0.00000000000E+00  0.15251974315E+03  0.15252503057E+03  0.12700000000E+01 0.  1.
          4   -1    0    0  502    0  0.00000000000E+00 -0.00000000000E+00 -0.65653657521E+02  0.65665939770E+02  0.12700000000E+01 0.  1.
         25    2    1    2    0    0 -0.24714909012E+02 -0.83761888914E+01  0.12053219124E+03  0.17559526709E+03  0.12499880572E+03 0.  0.
    9000005    1    3    3    0    0  0.35543871835E+02  0.37306572182E+02  0.41086242260E+02  0.65910746135E+02  0.10000000000E+01 0.  0.
    9000005    1    3    3    0    0 -0.60258780847E+02 -0.45682761073E+02  0.79445948977E+02  0.10968452096E+03  0.10000000000E+01 0.  0.
         21    1    1    2  502  501  0.24714909012E+02  0.83761888914E+01 -0.33666105613E+02  0.42595703245E+02  0.00000000000E+00 0.  1.
<mgrwt>
<rscale>  1 0.12769373E+03</rscale>
<asrwt>0</asrwt>
<pdfrwt beam="2">  1        4 0.10101914E-01 0.12769373E+03</pdfrwt>
<pdfrwt beam="1">  1       -4 0.23465927E-01 0.12769373E+03</pdfrwt>
<totfact> 0.20356484E+03</totfact>
</mgrwt>
</event>
<event>
 6    4  0.5642870E-004  0.1341250E+03  0.7818608E-02  0.1221460E+00
         -4   -1    0    0    0  501 -0.00000000000E+00  0.00000000000E+00  0.23613799382E+02  0.23647926363E+02  0.12700000000E+01 0.  1.
          4   -1    0    0  502    0  0.00000000000E+00 -0.00000000000E+00 -0.35352803375E+03  0.35353031489E+03  0.12700000000E+01 0.  1.
         25    2    1    2    0    0  0.38158938240E+02 -0.30133068747E+02 -0.23765815225E+03  0.27289357753E+03  0.12500160370E+03 0.  0.
    9000005    1    3    3    0    0  0.76921983597E+02 -0.11836709818E+01 -0.94974156684E+02  0.12222717814E+03  0.10000000000E+01 0.  0.
    9000005    1    3    3    0    0 -0.38763045357E+02 -0.28949397765E+02 -0.14268399556E+03  0.15066639939E+03  0.10000000000E+01 0.  0.
         21    1    1    2  502  501 -0.38158938240E+02  0.30133068747E+02 -0.92256082120E+02  0.10428466372E+03  0.00000000000E+00 0.  1.
<mgrwt>
<rscale>  1 0.13412497E+03</rscale>
<asrwt>0</asrwt>
<pdfrwt beam="2">  1        4 0.54391725E-01 0.13412497E+03</pdfrwt>
<pdfrwt beam="1">  1       -4 0.36356931E-02 0.13412497E+03</pdfrwt>
<totfact> 0.21287810E+03</totfact>
</mgrwt>
</event>
<event>
 6    4  0.5642870E-004  0.1267645E+03  0.7818608E-02  0.1232337E+00
          4   -1    0    0  502    0  0.00000000000E+00  0.00000000000E+00  0.14611844903E+02  0.14666932586E+02  0.12700000000E+01 0. -1.
         -4   -1    0    0    0  501 -0.00000000000E+00 -0.00000000000E+00 -0.37521512699E+03  0.37521727628E+03  0.12700000000E+01 0. -1.
         25    2    1    2    0    0  0.20529243381E+02 -0.42991334989E+01 -0.31975042186E+03  0.34396157206E+03  0.12501719239E+03 0.  0.
    9000005    1    3    3    0    0  0.51909346314E+02  0.31614454055E+02 -0.26248108682E+03  0.26942786581E+03  0.10000000000E+01 0.  0.
    9000005    1    3    3    0    0 -0.31380102933E+02 -0.35913587553E+02 -0.57269335047E+02  0.74533706253E+02  0.10000000000E+01 0.  0.
         21    1    1    2  502  501 -0.20529243381E+02  0.42991334989E+01 -0.40852860220E+02  0.45922636801E+02  0.00000000000E+00 0.  1.
<mgrwt>
<rscale>  1 0.12676447E+03</rscale>
<asrwt>0</asrwt>
<pdfrwt beam="1">  1        4 0.22523793E-02 0.12676447E+03</pdfrwt>
<pdfrwt beam="2">  1       -4 0.57729800E-01 0.12676447E+03</pdfrwt>
<totfact> 0.39221201E+03</totfact>
</mgrwt>
</event>
<event>
 6    4  0.5642870E-004  0.1487450E+03  0.7818608E-02  0.1202024E+00
         -4   -1    0    0    0  501 -0.00000000000E+00  0.00000000000E+00  0.65089650137E+02  0.65102038793E+02  0.12700000000E+01 0.  1.
          4   -1    0    0  502    0  0.00000000000E+00 -0.00000000000E+00 -0.51027870468E+03  0.51028028509E+03  0.12700000000E+01 0.  1.
         25    2    1    2    0    0 -0.54462073588E+02 -0.59435481537E+02 -0.29111131146E+02  0.15156687789E+03  0.12500546624E+03 0.  0.
    9000005    1    3    3    0    0 -0.59611322563E+02  0.36756386809E+01 -0.56820435076E+02  0.82441384872E+02  0.10000000000E+01 0.  0.
    9000005    1    3    3    0    0  0.51492489753E+01 -0.63111120218E+02  0.27709303930E+02  0.69125493015E+02  0.10000000000E+01 0.  0.
         21    1    1    2  502  501  0.54462073588E+02  0.59435481537E+02 -0.41607792340E+03  0.42381544600E+03  0.00000000000E+00 0.  1.
<mgrwt>
<rscale>  1 0.14874495E+03</rscale>
<asrwt>0</asrwt>
<pdfrwt beam="2">  1        4 0.78505488E-01 0.14874495E+03</pdfrwt>
<pdfrwt beam="1">  1       -4 0.10014867E-01 0.14874495E+03</pdfrwt>
<totfact> 0.19041030E+02</totfact>
</mgrwt>
</event>
<event>
 6    4  0.5642870E-004  0.1334631E+03  0.7818608E-02  0.1222406E+00
          4   -1    0    0  502    0  0.00000000000E+00  0.00000000000E+00  0.23954494242E+03  0.23954830898E+03  0.12700000000E+01 0.  1.
         -4   -1    0    0    0  501 -0.00000000000E+00 -0.00000000000E+00 -0.35086734709E+02  0.35109711656E+02  0.12700000000E+01 0.  1.
         25    2    1    2    0    0  0.31783973012E+02 -0.34353372928E+02  0.12744399924E+03  0.18453830316E+03  0.12498814832E+03 0.  0.
    9000005    1    3    3    0    0  0.32598941479E+02 -0.80318171620E+02  0.92605116133E+02  0.12684796889E+03  0.10000000000E+01 0.  0.
    9000005    1    3    3    0    0 -0.81496846741E+00  0.45964798693E+02  0.34838883106E+02  0.57690334273E+02  0.10000000000E+01 0.  0.
         21    1    1    2  502  501 -0.31783973012E+02  0.34353372928E+02  0.77014208468E+02  0.90119717476E+02  0.00000000000E+00 0.  1.
<mgrwt>
<rscale>  1 0.13346315E+03</rscale>
<asrwt>0</asrwt>
<pdfrwt beam="1">  1        4 0.36855093E-01 0.13346315E+03</pdfrwt>
<pdfrwt beam="2">  1       -4 0.53999858E-02 0.13346315E+03</pdfrwt>
<totfact> 0.24646623E+03</totfact>
</mgrwt>
</event>
<event>
 6    4  0.5642870E-004  0.1323294E+03  0.7818608E-02  0.1224040E+00
         -4   -1    0    0    0  501 -0.00000000000E+00  0.00000000000E+00  0.28481832256E+04  0.28481835088E+04  0.12700000000E+01 0. -1.
          4   -1    0    0  502    0  0.00000000000E+00 -0.00000000000E+00 -0.25254441951E+02  0.25286354784E+02  0.12700000000E+01 0. -1.
         25    2    1    2    0    0  0.30811917695E+02 -0.30599090010E+02  0.28267794124E+04  0.28298750712E+04  0.12500157310E+03 0.  0.
    9000005    1    3    3    0    0  0.39509914186E+02  0.39896593978E+02  0.87282391487E+03  0.87462869716E+03  0.10000000000E+01 0.  0.
    9000005    1    3    3    0    0 -0.86979964914E+01 -0.70495683989E+02  0.19539554975E+04  0.19552463740E+04  0.10000000000E+01 0.  0.
         21    1    1    2  502  501 -0.30811917695E+02  0.30599090010E+02 -0.38506287582E+01  0.43594792388E+02  0.00000000000E+00 0. -1.
<mgrwt>
<rscale>  1 0.13232941E+03</rscale>
<asrwt>0</asrwt>
<pdfrwt beam="2">  1        4 0.38877761E-02 0.13232941E+03</pdfrwt>
<pdfrwt beam="1">  1       -4 0.43818443E+00 0.13232941E+03</pdfrwt>
<totfact> 0.30829282E+00</totfact>
</mgrwt>
</event>
<event>
 6    4  0.5642870E-004  0.1400121E+03  0.7818608E-02  0.1213313E+00
         -4   -1    0    0    0  501 -0.00000000000E+00  0.00000000000E+00  0.85790844982E+01  0.86725769427E+01  0.12700000000E+01 0. -1.
          4   -1    0    0  502    0  0.00000000000E+00 -0.00000000000E+00 -0.13692300714E+04  0.13692306604E+04  0.12700000000E+01 0. -1.
         25    2    1    2    0    0  0.33104757807E+02 -0.53633772826E+02 -0.67539966816E+03  0.68975944682E+03  0.12502350237E+03 0.  0.
    9000005    1    3    3    0    0  0.40881102951E+02 -0.31483851236E+02 -0.65920579783E+03  0.66122294376E+03  0.10000000000E+01 0.  0.
    9000005    1    3    3    0    0 -0.77763451448E+01 -0.22149921589E+02 -0.16193870333E+02  0.28536503055E+02  0.10000000000E+01 0.  0.
         21    1    1    2  502  501 -0.33104757807E+02  0.53633772826E+02 -0.68525131875E+03  0.68814379052E+03  0.00000000000E+00 0. -1.
<mgrwt>
<rscale>  1 0.14001208E+03</rscale>
<asrwt>0</asrwt>
<pdfrwt beam="2">  1        4 0.21065784E+00 0.14001208E+03</pdfrwt>
<pdfrwt beam="1">  1       -4 0.13270973E-02 0.14001208E+03</pdfrwt>
<totfact> 0.40242329E+02</totfact>
</mgrwt>
</event>
<event>
 6    4  0.5642870E-004  0.1266732E+03  0.7818608E-02  0.1232477E+00
         -4   -1    0    0    0  501 -0.00000000000E+00  0.00000000000E+00  0.21862186856E+03  0.21862555731E+03  0.12700000000E+01 0.  1.
          4   -1    0    0  502    0  0.00000000000E+00 -0.00000000000E+00 -0.34848413004E+02  0.34871546981E+02  0.12700000000E+01 0.  1.
         25    2    1    2    0    0 -0.37602703727E+01 -0.20202352201E+02  0.19309153694E+03  0.23093383085E+03  0.12499527160E+03 0.  0.
    9000005    1    3    3    0    0 -0.60023743575E+02  0.29477548769E+01  0.13031142354E+03  0.14350472520E+03  0.10000000000E+01 0.  0.
    9000005    1    3    3    0    0  0.56263473202E+02 -0.23150107078E+02  0.62780113407E+02  0.87429105645E+02  0.10000000000E+01 0.  0.
         21    1    1    2  502  501  0.37602703727E+01  0.20202352201E+02 -0.93180813928E+01  0.22563273446E+02  0.00000000000E+00 0.  1.
<mgrwt>
<rscale>  1 0.12667317E+03</rscale>
<asrwt>0</asrwt>
<pdfrwt beam="2">  1        4 0.53633576E-02 0.12667317E+03</pdfrwt>
<pdfrwt beam="1">  1       -4 0.33636197E-01 0.12667317E+03</pdfrwt>
<totfact> 0.29359675E+03</totfact>
</mgrwt>
</event>
<event>
 6    4  0.5642870E-004  0.1277601E+03  0.7818608E-02  0.1230818E+00
         -4   -1    0    0    0  501 -0.00000000000E+00  0.00000000000E+00  0.96259635182E+02  0.96268012680E+02  0.12700000000E+01 0.  1.
          4   -1    0    0  502    0  0.00000000000E+00 -0.00000000000E+00 -0.19468156196E+03  0.19468570433E+03  0.12700000000E+01 0.  1.
         25    2    1    2    0    0 -0.15519897381E+02  0.21364132656E+02  0.52216103475E+02  0.13801873233E+03  0.12500142252E+03 0.  0.
    9000005    1    3    3    0    0  0.46574060374E+02  0.15811122631E+02 -0.97076828713E+01  0.50143532039E+02  0.10000000000E+01 0.  0.
    9000005    1    3    3    0    0 -0.62093957756E+02  0.55530100248E+01  0.61923786347E+02  0.87875200288E+02  0.10000000000E+01 0.  0.
         21    1    1    2  502  501  0.15519897381E+02 -0.21364132656E+02 -0.15063803026E+03  0.15293498468E+03  0.00000000000E+00 0.  1.
<mgrwt>
<rscale>  1 0.12776012E+03</rscale>
<asrwt>0</asrwt>
<pdfrwt beam="2">  1        4 0.29951973E-01 0.12776012E+03</pdfrwt>
<pdfrwt beam="1">  1       -4 0.14810138E-01 0.12776012E+03</pdfrwt>
<totfact> 0.67211058E+02</totfact>
</mgrwt>
</event>
<event>
 6    4  0.5642870E-004  0.1268194E+03  0.7818608E-02  0.1232253E+00
          4   -1    0    0  502    0  0.00000000000E+00  0.00000000000E+00  0.14121266826E+02  0.14178260710E+02  0.12700000000E+01 0. -1.
         -4   -1    0    0    0  501 -0.00000000000E+00 -0.00000000000E+00 -0.41029164939E+03  0.41029361494E+03  0.12700000000E+01 0. -1.
         25    2    1    2    0    0  0.25288947814E+01  0.21277027964E+02 -0.36688298161E+03  0.38818332260E+03  0.12499625003E+03 0.  0.
    9000005    1    3    3    0    0  0.56138331536E+02  0.13396339388E+02 -0.27919425418E+03  0.28509894027E+03  0.10000000000E+01 0.  0.
    9000005    1    3    3    0    0 -0.53609436755E+02  0.78806885757E+01 -0.87688727434E+02  0.10308438233E+03  0.10000000000E+01 0.  0.
         21    1    1    2  502  501 -0.25288947814E+01 -0.21277027964E+02 -0.29287400950E+02  0.36288553047E+02  0.00000000000E+00 0.  1.
<mgrwt>
<rscale>  1 0.12681944E+03</rscale>
<asrwt>0</asrwt>
<pdfrwt beam="1">  1        4 0.21770382E-02 0.12681944E+03</pdfrwt>
<pdfrwt beam="2">  1       -4 0.63126318E-01 0.12681944E+03</pdfrwt>
<totfact> 0.34270600E+03</totfact>
</mgrwt>
</event>
<event>
 6    4  0.5642870E-004  0.1266690E+03  0.7818608E-02  0.1232484E+00
         -4   -1    0    0    0  501 -0.00000000000E+00  0.00000000000E+00  0.62849638314E+03  0.62849766628E+03  0.12700000000E+01 0. -1.
          4   -1    0    0  502    0  0.00000000000E+00 -0.00000000000E+00 -0.24342526358E+02  0.24375633109E+02  0.12700000000E+01 0. -1.
         25    2    1    2    0    0 -0.21811146776E+01  0.20418485208E+02  0.61618754553E+03  0.62907242830E+03  0.12499342777E+03 0.  0.
    9000005    1    3    3    0    0  0.45743925737E+02  0.45302364300E+02  0.44311162950E+03  0.44776525898E+03  0.10000000000E+01 0.  0.
    9000005    1    3    3    0    0 -0.47925040415E+02 -0.24883879092E+02  0.17307591603E+03  0.18130716932E+03  0.10000000000E+01 0.  0.
         21    1    1    2  502  501  0.21811146776E+01 -0.20418485208E+02 -0.12033688751E+02  0.23800871084E+02  0.00000000000E+00 0. -1.
<mgrwt>
<rscale>  1 0.12666897E+03</rscale>
<asrwt>0</asrwt>
<pdfrwt beam="2">  1        4 0.37476499E-02 0.12666897E+03</pdfrwt>
<pdfrwt beam="1">  1       -4 0.96694385E-01 0.12666897E+03</pdfrwt>
<totfact> 0.57452063E+02</totfact>
</mgrwt>
</event>
<event>
 6    4  0.5642870E-004  0.1274925E+03  0.7818608E-02  0.1231225E+00
          4   -1    0    0  502    0  0.00000000000E+00  0.00000000000E+00  0.35478140492E+02  0.35500864113E+02  0.12700000000E+01 0.  1.
         -4   -1    0    0    0  501 -0.00000000000E+00 -0.00000000000E+00 -0.17603660570E+03  0.17604118679E+03  0.12700000000E+01 0.  1.
         25    2    1    2    0    0 -0.95494339692E+01  0.23206682395E+02 -0.13529620501E+03  0.18590159110E+03  0.12499838673E+03 0.  0.
    9000005    1    3    3    0    0 -0.32563523447E+02 -0.34127000429E+02 -0.10895683663E+03  0.11873343028E+03  0.10000000000E+01 0.  0.
    9000005    1    3    3    0    0  0.23014089478E+02  0.57333682824E+02 -0.26339368381E+02  0.67168160816E+02  0.10000000000E+01 0.  0.
         21    1    1    2  502  501  0.95494339692E+01 -0.23206682395E+02 -0.52622602015E+01  0.25640459812E+02  0.00000000000E+00 0. -1.
<mgrwt>
<rscale>  1 0.12749250E+03</rscale>
<asrwt>0</asrwt>
<pdfrwt beam="1">  1        4 0.54602759E-02 0.12749250E+03</pdfrwt>
<pdfrwt beam="2">  1       -4 0.27084655E-01 0.12749250E+03</pdfrwt>
<totfact> 0.43015169E+03</totfact>
</mgrwt>
</event>
<event>
 6    4  0.5642870E-004  0.1580900E+03  0.7818608E-02  0.1190870E+00
          4   -1    0    0  502    0  0.00000000000E+00  0.00000000000E+00  0.39947018103E+02  0.39967200995E+02  0.12700000000E+01 0.  1.
         -4   -1    0    0    0  501 -0.00000000000E+00 -0.00000000000E+00 -0.53240595109E+03  0.53240746582E+03  0.12700000000E+01 0.  1.
         25    2    1    2    0    0  0.92131406362E+02  0.29641231990E+02 -0.15533493318E+03  0.22163346604E+03  0.12500261249E+03 0.  0.
    9000005    1    3    3    0    0  0.10569135655E+03  0.41054094032E+01 -0.16052501030E+03  0.19224150480E+03  0.10000000000E+01 0.  0.
    9000005    1    3    3    0    0 -0.13559950192E+02  0.25535822587E+02  0.51900771277E+01  0.29391961231E+02  0.10000000000E+01 0.  0.
         21    1    1    2  502  501 -0.92131406362E+02 -0.29641231990E+02 -0.33712399982E+03  0.35074120078E+03  0.00000000000E+00 0.  1.
<mgrwt>
<rscale>  1 0.15809001E+03</rscale>
<asrwt>0</asrwt>
<pdfrwt beam="1">  1        4 0.61473645E-02 0.15809001E+03</pdfrwt>
<pdfrwt beam="2">  1       -4 0.81910272E-01 0.15809001E+03</pdfrwt>
<totfact> 0.39366946E+02</totfact>
</mgrwt>
</event>
<event>
 6    4  0.5642870E-004  0.1276155E+03  0.7818608E-02  0.1231037E+00
         -4   -1    0    0    0  501 -0.00000000000E+00  0.00000000000E+00  0.66599951504E+02  0.66612059271E+02  0.12700000000E+01 0.  1.
          4   -1    0    0  502    0  0.00000000000E+00 -0.00000000000E+00 -0.91980093585E+02  0.91988860825E+02  0.12700000000E+01 0.  1.
         25    2    1    2    0    0  0.43538300506E+01 -0.25320763513E+02 -0.85805947478E+01  0.12790366140E+03  0.12500249234E+03 0.  0.
    9000005    1    3    3    0    0  0.40096725187E+02  0.25603825550E+02 -0.36235464543E+02  0.59810635710E+02  0.10000000000E+01 0.  0.
    9000005    1    3    3    0    0 -0.35742895136E+02 -0.50924589062E+02  0.27654869795E+02  0.68093025687E+02  0.10000000000E+01 0.  0.
         21    1    1    2  502  501 -0.43538300506E+01  0.25320763513E+02 -0.16799547334E+02  0.30697258698E+02  0.00000000000E+00 0.  1.
<mgrwt>
<rscale>  1 0.12761552E+03</rscale>
<asrwt>0</asrwt>
<pdfrwt beam="2">  1        4 0.14152389E-01 0.12761552E+03</pdfrwt>
<pdfrwt beam="1">  1       -4 0.10247752E-01 0.12761552E+03</pdfrwt>
<totfact> 0.48862032E+03</totfact>
</mgrwt>
</event>
<event>
 6    4  0.5642870E-004  0.1278030E+03  0.7818608E-02  0.1230753E+00
          4   -1    0    0  502    0  0.00000000000E+00  0.00000000000E+00  0.13430586233E+04  0.13430592237E+04  0.12700000000E+01 0. -1.
         -4   -1    0    0    0  501 -0.00000000000E+00 -0.00000000000E+00 -0.78001281346E+01  0.79028411927E+01  0.12700000000E+01 0. -1.
         25    2    1    2    0    0  0.22899267446E+02  0.13554314367E+02  0.52735327506E+03  0.54261873408E+03  0.12500207187E+03 0.  0.
    9000005    1    3    3    0    0 -0.14071030747E+02  0.12373807487E+02  0.56383737213E+01  0.19593271198E+02  0.10000000000E+01 0.  0.
    9000005    1    3    3    0    0  0.36970298193E+02  0.11805068800E+01  0.52171490134E+03  0.52302546288E+03  0.10000000000E+01 0.  0.
         21    1    1    2  502  501 -0.22899267446E+02 -0.13554314367E+02  0.80790522008E+03  0.80834333084E+03  0.00000000000E+00 0. -1.
<mgrwt>
<rscale>  1 0.12780303E+03</rscale>
<asrwt>0</asrwt>
<pdfrwt beam="1">  1        4 0.20663233E+00 0.12780303E+03</pdfrwt>
<pdfrwt beam="2">  1       -4 0.12079670E-02 0.12780303E+03</pdfrwt>
<totfact> 0.48340285E+02</totfact>
</mgrwt>
</event>
<event>
 6    4  0.5642870E-004  0.1298874E+03  0.7818608E-02  0.1227623E+00
         -4   -1    0    0    0  501 -0.00000000000E+00  0.00000000000E+00  0.44630968361E+03  0.44631149053E+03  0.12700000000E+01 0. -1.
          4   -1    0    0  502    0  0.00000000000E+00 -0.00000000000E+00 -0.16761083625E+02  0.16809129195E+02  0.12700000000E+01 0. -1.
         25    2    1    2    0    0 -0.34842079455E+02 -0.56279253584E+01  0.38479032670E+03  0.40612108401E+03  0.12500038125E+03 0.  0.
    9000005    1    3    3    0    0 -0.30590752579E+02 -0.64199278371E+02  0.20629331287E+03  0.21820924000E+03  0.10000000000E+01 0.  0.
    9000005    1    3    3    0    0 -0.42513268757E+01  0.58571353013E+02  0.17849701382E+03  0.18791184401E+03  0.10000000000E+01 0.  0.
         21    1    1    2  502  501  0.34842079455E+02  0.56279253584E+01  0.44758273287E+02  0.56999535719E+02  0.00000000000E+00 0. -1.
<mgrwt>
<rscale>  1 0.12988741E+03</rscale>
<asrwt>0</asrwt>
<pdfrwt beam="2">  1        4 0.25824636E-02 0.12988741E+03</pdfrwt>
<pdfrwt beam="1">  1       -4 0.68666848E-01 0.12988741E+03</pdfrwt>
<totfact> 0.22112047E+03</totfact>
</mgrwt>
</event>
<event>
 6    4  0.5642870E-004  0.1353891E+03  0.7818608E-02  0.1219671E+00
          4   -1    0    0  502    0  0.00000000000E+00  0.00000000000E+00  0.78155614565E+02  0.78165932401E+02  0.12700000000E+01 0.  1.
         -4   -1    0    0    0  501 -0.00000000000E+00 -0.00000000000E+00 -0.11836749725E+03  0.11837431016E+03  0.12700000000E+01 0.  1.
         25    2    1    2    0    0  0.23192290626E+02 -0.46557444991E+02 -0.85752622763E+01  0.13566041191E+03  0.12499893683E+03 0.  0.
    9000005    1    3    3    0    0 -0.14312542452E+02 -0.82294615449E+02 -0.37188483611E+01  0.83618672774E+02  0.10000000000E+01 0.  0.
    9000005    1    3    3    0    0  0.37504833078E+02  0.35737170458E+02 -0.48564139152E+01  0.52041739140E+02  0.10000000000E+01 0.  0.
         21    1    1    2  502  501 -0.23192290626E+02  0.46557444991E+02 -0.31636620410E+02  0.60879830646E+02  0.00000000000E+00 0.  1.
<mgrwt>
<rscale>  1 0.13538911E+03</rscale>
<asrwt>0</asrwt>
<pdfrwt beam="1">  1        4 0.12025258E-01 0.13538911E+03</pdfrwt>
<pdfrwt beam="2">  1       -4 0.18211702E-01 0.13538911E+03</pdfrwt>
<totfact> 0.24252907E+03</totfact>
</mgrwt>
</event>
<event>
 6    4  0.5642870E-004  0.1286206E+03  0.7818608E-02  0.1229517E+00
         -4   -1    0    0    0  501 -0.00000000000E+00  0.00000000000E+00  0.18466575703E+03  0.18467012406E+03  0.12700000000E+01 0. -1.
          4   -1    0    0  502    0  0.00000000000E+00 -0.00000000000E+00 -0.11474332218E+03  0.11475035026E+03  0.12700000000E+01 0. -1.
         25    2    1    2    0    0  0.22909677035E+02  0.19839702534E+02  0.15947468847E+03  0.20487909065E+03  0.12499919370E+03 0.  0.
    9000005    1    3    3    0    0  0.69047075866E+02  0.21803120602E+02  0.55929098242E+02  0.91498299349E+02  0.10000000000E+01 0.  0.
    9000005    1    3    3    0    0 -0.46137398831E+02 -0.19634180673E+01  0.10354559022E+03  0.11338079130E+03  0.10000000000E+01 0.  0.
         21    1    1    2  502  501 -0.22909677035E+02 -0.19839702534E+02 -0.89552253613E+02  0.94541383667E+02  0.00000000000E+00 0. -1.
<mgrwt>
<rscale>  1 0.12862063E+03</rscale>
<asrwt>0</asrwt>
<pdfrwt beam="2">  1        4 0.17653696E-01 0.12862063E+03</pdfrwt>
<pdfrwt beam="1">  1       -4 0.28410993E-01 0.12862063E+03</pdfrwt>
<totfact> 0.54598144E+02</totfact>
</mgrwt>
</event>
<event>
 6    4  0.5642870E-004  0.1270810E+03  0.7818608E-02  0.1231852E+00
         -4   -1    0    0    0  501 -0.00000000000E+00  0.00000000000E+00  0.36205245225E+02  0.36227512774E+02  0.12700000000E+01 0. -1.
          4   -1    0    0  502    0  0.00000000000E+00 -0.00000000000E+00 -0.16450266585E+03  0.16450756813E+03  0.12700000000E+01 0. -1.
         25    2    1    2    0    0 -0.17378187033E+01  0.22823813352E+02 -0.88622612164E+02  0.15493074818E+03  0.12500249148E+03 0.  0.
    9000005    1    3    3    0    0  0.27091720823E+02  0.35784508492E+02 -0.10860754266E+03  0.11752059695E+03  0.10000000000E+01 0.  0.
    9000005    1    3    3    0    0 -0.28829539526E+02 -0.12960695140E+02  0.19984930498E+02  0.37410151227E+02  0.10000000000E+01 0.  0.
         21    1    1    2  502  501  0.17378187033E+01 -0.22823813352E+02 -0.39674808464E+02  0.45804332726E+02  0.00000000000E+00 0.  1.
<mgrwt>
<rscale>  1 0.12708096E+03</rscale>
<asrwt>0</asrwt>
<pdfrwt beam="2">  1        4 0.25310192E-01 0.12708096E+03</pdfrwt>
<pdfrwt beam="1">  1       -4 0.55721278E-02 0.12708096E+03</pdfrwt>
<totfact> 0.47164448E+03</totfact>
</mgrwt>
</event>
<event>
 6    4  0.5642870E-004  0.1385396E+03  0.7818608E-02  0.1215308E+00
         -4   -1    0    0    0  501 -0.00000000000E+00  0.00000000000E+00  0.67539690072E+03  0.67539809475E+03  0.12700000000E+01 0.  1.
          4   -1    0    0  502    0  0.00000000000E+00 -0.00000000000E+00 -0.15660988689E+02  0.15712398503E+02  0.12700000000E+01 0.  1.
         25    2    1    2    0    0 -0.59683078543E+02  0.25621551095E+01  0.36558185735E+03  0.39095179792E+03  0.12499831747E+03 0.  0.
    9000005    1    3    3    0    0  0.35776019530E+02  0.13568911610E+02  0.15203548337E+03  0.15677954949E+03  0.10000000000E+01 0.  0.
    9000005    1    3    3    0    0 -0.95459098074E+02 -0.11006756500E+02  0.21354637398E+03  0.23417224843E+03  0.10000000000E+01 0.  0.
         21    1    1    2  502  501  0.59683078543E+02 -0.25621551095E+01  0.29415405468E+03  0.30015869534E+03  0.00000000000E+00 0.  1.
<mgrwt>
<rscale>  1 0.13853958E+03</rscale>
<asrwt>0</asrwt>
<pdfrwt beam="2">  1        4 0.24134297E-02 0.13853958E+03</pdfrwt>
<pdfrwt beam="1">  1       -4 0.10391124E+00 0.13853958E+03</pdfrwt>
<totfact> 0.98680279E+02</totfact>
</mgrwt>
</event>
<event>
 6    4  0.5642870E-004  0.1269427E+03  0.7818608E-02  0.1232064E+00
         -4   -1    0    0    0  501 -0.00000000000E+00  0.00000000000E+00  0.41038591785E+02  0.41058238098E+02  0.12700000000E+01 0. -1.
          4   -1    0    0  502    0  0.00000000000E+00 -0.00000000000E+00 -0.18622447123E+03  0.18622880171E+03  0.12700000000E+01 0. -1.
         25    2    1    2    0    0  0.26991041349E+01  0.21967494377E+02 -0.62127564882E+02  0.14133042522E+03  0.12499839520E+03 0.  0.
    9000005    1    3    3    0    0  0.39557197139E+02  0.53615920529E+02 -0.57233720044E+01  0.66881953969E+02  0.10000000000E+01 0.  0.
    9000005    1    3    3    0    0 -0.36858093004E+02 -0.31648426152E+02 -0.56404192878E+02  0.74448471254E+02  0.10000000000E+01 0.  0.
         21    1    1    2  502  501 -0.26991041349E+01 -0.21967494377E+02 -0.83058314564E+02  0.85956614583E+02  0.00000000000E+00 0. -1.
<mgrwt>
<rscale>  1 0.12694272E+03</rscale>
<asrwt>0</asrwt>
<pdfrwt beam="2">  1        4 0.28651762E-01 0.12694272E+03</pdfrwt>
<pdfrwt beam="1">  1       -4 0.63154740E-02 0.12694272E+03</pdfrwt>
<totfact> 0.30554741E+03</totfact>
</mgrwt>
</event>
<event>
 6    4  0.5642870E-004  0.1278715E+03  0.7818608E-02  0.1230649E+00
          4   -1    0    0  502    0  0.00000000000E+00  0.00000000000E+00  0.22837072144E+03  0.22837425273E+03  0.12700000000E+01 0. -1.
         -4   -1    0    0    0  501 -0.00000000000E+00 -0.00000000000E+00 -0.31491124786E+02  0.31516723185E+02  0.12700000000E+01 0. -1.
         25    2    1    2    0    0 -0.14624311601E+02  0.22600610334E+02  0.10914117643E+03  0.16811576979E+03  0.12500583019E+03 0.  0.
    9000005    1    3    3    0    0  0.20964607192E+02  0.38005126507E+02  0.12018122031E+03  0.12778274575E+03  0.10000000000E+01 0.  0.
    9000005    1    3    3    0    0 -0.35588918793E+02 -0.15404516173E+02 -0.11040043877E+02  0.40333024040E+02  0.10000000000E+01 0.  0.
         21    1    1    2  502  501  0.14624311601E+02 -0.22600610334E+02  0.87738420218E+02  0.91775206127E+02  0.00000000000E+00 0. -1.
<mgrwt>
<rscale>  1 0.12787148E+03</rscale>
<asrwt>0</asrwt>
<pdfrwt beam="1">  1        4 0.35136197E-01 0.12787148E+03</pdfrwt>
<pdfrwt beam="2">  1       -4 0.48470292E-02 0.12787148E+03</pdfrwt>
<totfact> 0.31839851E+03</totfact>
</mgrwt>
</event>
<event>
 6    4  0.5642870E-004  0.1286900E+03  0.7818608E-02  0.1229413E+00
         -4   -1    0    0    0  501 -0.00000000000E+00  0.00000000000E+00  0.30699124353E+02  0.30725382602E+02  0.12700000000E+01 0.  1.
          4   -1    0    0  502    0  0.00000000000E+00 -0.00000000000E+00 -0.21082499683E+03  0.21082882200E+03  0.12700000000E+01 0.  1.
         25    2    1    2    0    0 -0.28726340992E+02 -0.10526741037E+02 -0.15810706205E+03  0.20386013404E+03  0.12500038494E+03 0.  0.
    9000005    1    3    3    0    0 -0.21524325677E+02 -0.62612431446E+02 -0.12573335102E+03  0.14210379561E+03  0.10000000000E+01 0.  0.
    9000005    1    3    3    0    0 -0.72020153152E+01  0.52085690410E+02 -0.32373711034E+02  0.61756338429E+02  0.10000000000E+01 0.  0.
         21    1    1    2  502  501  0.28726340992E+02  0.10526741037E+02 -0.22018810420E+02  0.37694070568E+02  0.00000000000E+00 0.  1.
<mgrwt>
<rscale>  1 0.12868998E+03</rscale>
<asrwt>0</asrwt>
<pdfrwt beam="2">  1        4 0.32436928E-01 0.12868998E+03</pdfrwt>
<pdfrwt beam="1">  1       -4 0.47252565E-02 0.12868998E+03</pdfrwt>
<totfact> 0.38719990E+03</totfact>
</mgrwt>
</event>
<event>
 6    4  0.5642870E-004  0.1440054E+03  0.7818608E-02  0.1208039E+00
         -4   -1    0    0    0  501 -0.00000000000E+00  0.00000000000E+00  0.94678989749E+01  0.95526965302E+01  0.12700000000E+01 0. -1.
          4   -1    0    0  502    0  0.00000000000E+00 -0.00000000000E+00 -0.12212780430E+04  0.12212787033E+04  0.12700000000E+01 0. -1.
         25    2    1    2    0    0 -0.16773992781E+02  0.69497269633E+02 -0.82246160247E+03  0.83497344032E+03  0.12500528463E+03 0.  0.
    9000005    1    3    3    0    0 -0.58630495465E+02 -0.44905816606E+01 -0.35713032655E+03  0.36194028577E+03  0.10000000000E+01 0.  0.
    9000005    1    3    3    0    0  0.41856502683E+02  0.73987851293E+02 -0.46533127592E+03  0.47303315456E+03  0.10000000000E+01 0.  0.
         21    1    1    2  502  501  0.16773992781E+02 -0.69497269633E+02 -0.38934854153E+03  0.39585795952E+03  0.00000000000E+00 0. -1.
<mgrwt>
<rscale>  1 0.14400541E+03</rscale>
<asrwt>0</asrwt>
<pdfrwt beam="2">  1        4 0.18789538E+00 0.14400541E+03</pdfrwt>
<pdfrwt beam="1">  1       -4 0.14631745E-02 0.14400541E+03</pdfrwt>
<totfact> 0.48321275E+02</totfact>
</mgrwt>
</event>
<event>
 6    4  0.5642870E-004  0.1314149E+03  0.7818608E-02  0.1225371E+00
         -4   -1    0    0    0  501 -0.00000000000E+00  0.00000000000E+00  0.39750720909E+01  0.41730202645E+01  0.12700000000E+01 0. -1.
          4   -1    0    0  502    0  0.00000000000E+00 -0.00000000000E+00 -0.19729967864E+04  0.19729971951E+04  0.12700000000E+01 0. -1.
         25    2    1    2    0    0  0.16377844393E+02 -0.37107347625E+02 -0.12214786970E+04  0.12285276092E+04  0.12499876167E+03 0.  0.
    9000005    1    3    3    0    0  0.19853262293E+02 -0.69656979764E+02 -0.11093916122E+04  0.11117540178E+04  0.10000000000E+01 0.  0.
    9000005    1    3    3    0    0 -0.34754179001E+01  0.32549632139E+02 -0.11208708476E+03  0.11677359141E+03  0.10000000000E+01 0.  0.
         21    1    1    2  502  501 -0.16377844393E+02  0.37107347625E+02 -0.74754301732E+03  0.74864260618E+03  0.00000000000E+00 0.  1.
<mgrwt>
<rscale>  1 0.13141491E+03</rscale>
<asrwt>0</asrwt>
<pdfrwt beam="2">  1        4 0.30355246E+00 0.13141491E+03</pdfrwt>
<pdfrwt beam="1">  1       -4 0.62680935E-03 0.13141491E+03</pdfrwt>
<totfact> 0.35480326E+02</totfact>
</mgrwt>
</event>
<event>
 6    4  0.5642870E-004  0.1401918E+03  0.7818608E-02  0.1213071E+00
          4   -1    0    0  502    0  0.00000000000E+00  0.00000000000E+00  0.25272936572E+02  0.25304826081E+02  0.12700000000E+01 0. -1.
         -4   -1    0    0    0  501 -0.00000000000E+00 -0.00000000000E+00 -0.42509846158E+03  0.42510035866E+03  0.12700000000E+01 0. -1.
         25    2    1    2    0    0 -0.63003845877E+02 -0.77121516346E+01 -0.31194112768E+03  0.34199564102E+03  0.12499915783E+03 0.  0.
    9000005    1    3    3    0    0 -0.16482174292E+02  0.33682222592E+02 -0.25456879802E+03  0.25731775515E+03  0.10000000000E+01 0.  0.
    9000005    1    3    3    0    0 -0.46521671586E+02 -0.41394374227E+02 -0.57372329660E+02  0.84677885870E+02  0.10000000000E+01 0.  0.
         21    1    1    2  502  501  0.63003845877E+02  0.77121516346E+01 -0.87884397326E+02  0.10840954373E+03  0.00000000000E+00 0.  1.
<mgrwt>
<rscale>  1 0.14019184E+03</rscale>
<asrwt>0</asrwt>
<pdfrwt beam="1">  1        4 0.38907434E-02 0.14019184E+03</pdfrwt>
<pdfrwt beam="2">  1       -4 0.65402357E-01 0.14019184E+03</pdfrwt>
<totfact> 0.13111463E+03</totfact>
</mgrwt>
</event>
<event>
 6    4  0.5642870E-004  0.1304181E+03  0.7818608E-02  0.1226837E+00
         -4   -1    0    0    0  501 -0.00000000000E+00  0.00000000000E+00  0.27859934712E+03  0.27860224177E+03  0.12700000000E+01 0. -1.
          4   -1    0    0  502    0  0.00000000000E+00 -0.00000000000E+00 -0.26704959579E+02  0.26735141034E+02  0.12700000000E+01 0. -1.
         25    2    1    2    0    0  0.53132708600E+01  0.36803852736E+02  0.22263088283E+03  0.25801817812E+03  0.12500446323E+03 0.  0.
    9000005    1    3    3    0    0 -0.43844372388E+02  0.40014883557E+02  0.47332930708E+02  0.75927111268E+02  0.10000000000E+01 0.  0.
    9000005    1    3    3    0    0  0.49157643248E+02 -0.32110308205E+01  0.17529795212E+03  0.18209106685E+03  0.10000000000E+01 0.  0.
         21    1    1    2  502  501 -0.53132708600E+01 -0.36803852736E+02  0.29263504713E+02  0.47319204680E+02  0.00000000000E+00 0. -1.
<mgrwt>
<rscale>  1 0.13041806E+03</rscale>
<asrwt>0</asrwt>
<pdfrwt beam="2">  1        4 0.41109997E-02 0.13041806E+03</pdfrwt>
<pdfrwt beam="1">  1       -4 0.42863982E-01 0.13041806E+03</pdfrwt>
<totfact> 0.28198063E+03</totfact>
</mgrwt>
</event>
<event>
 6    4  0.5642870E-004  0.1331194E+03  0.7818608E-02  0.1222899E+00
          4   -1    0    0  502    0  0.00000000000E+00  0.00000000000E+00  0.41869567037E+02  0.41888823615E+02  0.12700000000E+01 0.  1.
         -4   -1    0    0    0  501 -0.00000000000E+00 -0.00000000000E+00 -0.19958704326E+03  0.19959108381E+03  0.12700000000E+01 0.  1.
         25    2    1    2    0    0 -0.45687541316E+02  0.34549495539E+01 -0.13755625605E+03  0.19142231153E+03  0.12498595787E+03 0.  0.
    9000005    1    3    3    0    0  0.27477488052E+02 -0.39265589922E+02 -0.42241485138E+02  0.63891642397E+02  0.10000000000E+01 0.  0.
    9000005    1    3    3    0    0 -0.73165029368E+02  0.42720539476E+02 -0.95314770912E+02  0.12753066913E+03  0.10000000000E+01 0.  0.
         21    1    1    2  502  501  0.45687541316E+02 -0.34549495539E+01 -0.20161220170E+02  0.50057595894E+02  0.00000000000E+00 0.  1.
<mgrwt>
<rscale>  1 0.13311941E+03</rscale>
<asrwt>0</asrwt>
<pdfrwt beam="1">  1        4 0.64432640E-02 0.13311941E+03</pdfrwt>
<pdfrwt beam="2">  1       -4 0.30707491E-01 0.13311941E+03</pdfrwt>
<totfact> 0.26247042E+03</totfact>
</mgrwt>
</event>
<event>
 6    4  0.5642870E-004  0.1534047E+03  0.7818608E-02  0.1196351E+00
         -4   -1    0    0    0  501 -0.00000000000E+00  0.00000000000E+00  0.25696209552E+03  0.25696523391E+03  0.12700000000E+01 0. -1.
          4   -1    0    0  502    0  0.00000000000E+00 -0.00000000000E+00 -0.57122767003E+02  0.57136883097E+02  0.12700000000E+01 0. -1.
         25    2    1    2    0    0  0.88450505741E+02 -0.91880709180E+01  0.12657184036E+03  0.19888042879E+03  0.12500032628E+03 0.  0.
    9000005    1    3    3    0    0  0.10647793703E+03 -0.36190108953E+02  0.66676431992E+02  0.13074410749E+03  0.10000000000E+01 0.  0.
    9000005    1    3    3    0    0 -0.18027431288E+02  0.27002038035E+02  0.59895408371E+02  0.68136321304E+02  0.10000000000E+01 0.  0.
         21    1    1    2  502  501 -0.88450505741E+02  0.91880709180E+01  0.73267488158E+02  0.11522168821E+03  0.00000000000E+00 0. -1.
<mgrwt>
<rscale>  1 0.15340467E+03</rscale>
<asrwt>0</asrwt>
<pdfrwt beam="2">  1        4 0.87894453E-02 0.15340467E+03</pdfrwt>
<pdfrwt beam="1">  1       -4 0.39533957E-01 0.15340467E+03</pdfrwt>
<totfact> 0.99458695E+02</totfact>
</mgrwt>
</event>
<event>
 6    4  0.5642870E-004  0.1269483E+03  0.7818608E-02  0.1232055E+00
         -4   -1    0    0    0  501 -0.00000000000E+00  0.00000000000E+00  0.70936532367E+03  0.70936646054E+03  0.12700000000E+01 0. -1.
          4   -1    0    0  502    0  0.00000000000E+00 -0.00000000000E+00 -0.90568828419E+01  0.91454921580E+01  0.12700000000E+01 0. -1.
         25    2    1    2    0    0 -0.16734743685E+02 -0.14520930625E+02  0.66361196732E+03  0.67564541282E+03  0.12499988649E+03 0.  0.
    9000005    1    3    3    0    0 -0.30433681859E+02 -0.62481667749E+02  0.26662302786E+03  0.27553403925E+03  0.10000000000E+01 0.  0.
    9000005    1    3    3    0    0  0.13698938173E+02  0.47960737124E+02  0.39698893945E+03  0.40011137357E+03  0.10000000000E+01 0.  0.
         21    1    1    2  502  501  0.16734743685E+02  0.14520930625E+02  0.36696473515E+02  0.42866539875E+02  0.00000000000E+00 0. -1.
<mgrwt>
<rscale>  1 0.12694834E+03</rscale>
<asrwt>0</asrwt>
<pdfrwt beam="2">  1        4 0.14002703E-02 0.12694834E+03</pdfrwt>
<pdfrwt beam="1">  1       -4 0.10914001E+00 0.12694834E+03</pdfrwt>
<totfact> 0.19909224E+03</totfact>
</mgrwt>
</event>
<event>
 6    4  0.5642870E-004  0.1666769E+03  0.7818608E-02  0.1181358E+00
          4   -1    0    0  502    0  0.00000000000E+00  0.00000000000E+00  0.12816528144E+03  0.12817157356E+03  0.12700000000E+01 0. -1.
         -4   -1    0    0    0  501 -0.00000000000E+00 -0.00000000000E+00 -0.19438891867E+03  0.19439306727E+03  0.12700000000E+01 0. -1.
         25    2    1    2    0    0 -0.16870491865E+02 -0.10894198079E+03 -0.11450065453E+03  0.20221664926E+03  0.12501281806E+03 0.  0.
    9000005    1    3    3    0    0 -0.11752186088E+02  0.21115381144E+02 -0.52997844525E+02  0.58255855697E+02  0.10000000000E+01 0.  0.
    9000005    1    3    3    0    0 -0.51183057777E+01 -0.13005736193E+03 -0.61502810005E+02  0.14396079357E+03  0.10000000000E+01 0.  0.
         21    1    1    2  502  501  0.16870491865E+02  0.10894198079E+03  0.48277017302E+02  0.12034799156E+03  0.00000000000E+00 0. -1.
<mgrwt>
<rscale>  1 0.16667685E+03</rscale>
<asrwt>0</asrwt>
<pdfrwt beam="1">  1        4 0.19718539E-01 0.16667685E+03</pdfrwt>
<pdfrwt beam="2">  1       -4 0.29906791E-01 0.16667685E+03</pdfrwt>
<totfact> 0.42700804E+02</totfact>
</mgrwt>
</event>
<event>
 6    4  0.5642870E-004  0.1299216E+03  0.7818608E-02  0.1227572E+00
         -4   -1    0    0    0  501 -0.00000000000E+00  0.00000000000E+00  0.39431427477E+02  0.39451874137E+02  0.12700000000E+01 0. -1.
          4   -1    0    0  502    0  0.00000000000E+00 -0.00000000000E+00 -0.27766614473E+03  0.27766904910E+03  0.12700000000E+01 0. -1.
         25    2    1    2    0    0 -0.34431714537E+02 -0.83114359852E+01 -0.74849217558E+02  0.14994004980E+03  0.12499996092E+03 0.  0.
    9000005    1    3    3    0    0 -0.72463822756E+02  0.21306751562E+02 -0.67237568273E+02  0.10112800729E+03  0.10000000000E+01 0.  0.
    9000005    1    3    3    0    0  0.38032108220E+02 -0.29618187547E+02 -0.76116492847E+01  0.48812042510E+02  0.10000000000E+01 0.  0.
         21    1    1    2  502  501  0.34431714537E+02  0.83114359852E+01 -0.16338549969E+03  0.16718087344E+03  0.00000000000E+00 0.  1.
<mgrwt>
<rscale>  1 0.12992157E+03</rscale>
<asrwt>0</asrwt>
<pdfrwt beam="2">  1        4 0.42719664E-01 0.12992157E+03</pdfrwt>
<pdfrwt beam="1">  1       -4 0.60681699E-02 0.12992157E+03</pdfrwt>
<totfact> 0.15173134E+03</totfact>
</mgrwt>
</event>
<event>
 6    4  0.5642870E-004  0.1370250E+03  0.7818608E-02  0.1217389E+00
         -4   -1    0    0    0  501 -0.00000000000E+00  0.00000000000E+00  0.66853079439E+03  0.66853200069E+03  0.12700000000E+01 0.  1.
          4   -1    0    0  502    0  0.00000000000E+00 -0.00000000000E+00 -0.24691032153E+02  0.24723672235E+02  0.12700000000E+01 0.  1.
         25    2    1    2    0    0 -0.50404541999E+01  0.55914157783E+02  0.61511622796E+03  0.63019347632E+03  0.12499617787E+03 0.  0.
    9000005    1    3    3    0    0 -0.31498194123E+02  0.78783139289E+02  0.26313414263E+03  0.27647693626E+03  0.10000000000E+01 0.  0.
    9000005    1    3    3    0    0  0.26457739923E+02 -0.22868981506E+02  0.35198208533E+03  0.35371654006E+03  0.10000000000E+01 0.  0.
         21    1    1    2  502  501  0.50404541999E+01 -0.55914157783E+02  0.28723534281E+02  0.63062196606E+02  0.00000000000E+00 0.  1.
<mgrwt>
<rscale>  1 0.13702497E+03</rscale>
<asrwt>0</asrwt>
<pdfrwt beam="2">  1        4 0.38012243E-02 0.13702497E+03</pdfrwt>
<pdfrwt beam="1">  1       -4 0.10285348E+00 0.13702497E+03</pdfrwt>
<totfact> 0.49468882E+02</totfact>
</mgrwt>
</event>
<event>
 6    4  0.5642870E-004  0.1298492E+03  0.7818608E-02  0.1227680E+00
         -4   -1    0    0    0  501 -0.00000000000E+00  0.00000000000E+00  0.15662356403E+03  0.15662871291E+03  0.12700000000E+01 0. -1.
          4   -1    0    0  502    0  0.00000000000E+00 -0.00000000000E+00 -0.76657545219E+02  0.76668064662E+02  0.12700000000E+01 0. -1.
         25    2    1    2    0    0 -0.29350401919E+02  0.19329495397E+02  0.12223133746E+03  0.17832921764E+03  0.12500293805E+03 0.  0.
    9000005    1    3    3    0    0 -0.51686316569E+02 -0.86750620119E+01  0.15520209450E+01  0.52441784775E+02  0.10000000000E+01 0.  0.
    9000005    1    3    3    0    0  0.22335914650E+02  0.28004557409E+02  0.12067931651E+03  0.12588743286E+03  0.10000000000E+01 0.  0.
         21    1    1    2  502  501  0.29350401919E+02 -0.19329495397E+02 -0.42265318648E+02  0.54967559938E+02  0.00000000000E+00 0. -1.
<mgrwt>
<rscale>  1 0.12984918E+03</rscale>
<asrwt>0</asrwt>
<pdfrwt beam="2">  1        4 0.11794674E-01 0.12984918E+03</pdfrwt>
<pdfrwt beam="1">  1       -4 0.24097138E-01 0.12984918E+03</pdfrwt>
<totfact> 0.14969051E+03</totfact>
</mgrwt>
</event>
<event>
 6    4  0.5642870E-004  0.1559026E+03  0.7818608E-02  0.1193402E+00
         -4   -1    0    0    0  501 -0.00000000000E+00  0.00000000000E+00  0.27709325242E+03  0.27709616279E+03  0.12700000000E+01 0.  1.
          4   -1    0    0  502    0  0.00000000000E+00 -0.00000000000E+00 -0.94431877127E+02  0.94440416760E+02  0.12700000000E+01 0.  1.
         25    2    1    2    0    0  0.74911565807E+02  0.55395914274E+02  0.22127651011E+03  0.27068233499E+03  0.12500073015E+03 0.  0.
    9000005    1    3    3    0    0  0.85036961432E+02  0.84083058718E+02  0.14133826737E+03  0.18514521705E+03  0.10000000000E+01 0.  0.
    9000005    1    3    3    0    0 -0.10125395625E+02 -0.28687144444E+02  0.79938242742E+02  0.85537117941E+02  0.10000000000E+01 0.  0.
         21    1    1    2  502  501 -0.74911565807E+02 -0.55395914274E+02 -0.38615134818E+02  0.10085424457E+03  0.00000000000E+00 0.  1.
<mgrwt>
<rscale>  1 0.15590264E+03</rscale>
<asrwt>0</asrwt>
<pdfrwt beam="2">  1        4 0.14528862E-01 0.15590264E+03</pdfrwt>
<pdfrwt beam="1">  1       -4 0.42630612E-01 0.15590264E+03</pdfrwt>
<totfact> 0.36428933E+02</totfact>
</mgrwt>
</event>
<event>
 6    4  0.5642870E-004  0.1275962E+03  0.7818608E-02  0.1231067E+00
          4   -1    0    0  502    0  0.00000000000E+00  0.00000000000E+00  0.42815192465E+03  0.42815380821E+03  0.12700000000E+01 0.  1.
         -4   -1    0    0    0  501 -0.00000000000E+00 -0.00000000000E+00 -0.98627539064E+02  0.98635715447E+02  0.12700000000E+01 0.  1.
         25    2    1    2    0    0 -0.19804185432E+02 -0.16189006731E+02 -0.56765595372E+02  0.13965357972E+03  0.12500599910E+03 0.  0.
    9000005    1    3    3    0    0  0.40082579632E+01 -0.39477529207E+02 -0.86386312236E+02  0.95069113732E+02  0.10000000000E+01 0.  0.
    9000005    1    3    3    0    0 -0.23812443395E+02  0.23288522476E+02  0.29620716864E+02  0.44584465984E+02  0.10000000000E+01 0.  0.
         21    1    1    2  502  501  0.19804185432E+02  0.16189006731E+02  0.38628998096E+03  0.38713594394E+03  0.00000000000E+00 0.  1.
<mgrwt>
<rscale>  1 0.12759620E+03</rscale>
<asrwt>0</asrwt>
<pdfrwt beam="1">  1        4 0.65870301E-01 0.12759620E+03</pdfrwt>
<pdfrwt beam="2">  1       -4 0.15174241E-01 0.12759620E+03</pdfrwt>
<totfact> 0.13308238E+02</totfact>
</mgrwt>
</event>
<event>
 6    4  0.5642870E-004  0.1404640E+03  0.7818608E-02  0.1212706E+00
         -4   -1    0    0    0  501 -0.00000000000E+00  0.00000000000E+00  0.24254023490E+02  0.24287250883E+02  0.12700000000E+01 0. -1.
          4   -1    0    0  502    0  0.00000000000E+00 -0.00000000000E+00 -0.49036691371E+03  0.49036855830E+03  0.12700000000E+01 0. -1.
         25    2    1    2    0    0  0.46867190337E+02 -0.43678915906E+02 -0.22558307193E+03  0.26574021161E+03  0.12500302596E+03 0.  0.
    9000005    1    3    3    0    0  0.29585398603E+02 -0.56318407420E+02 -0.32450583182E+02  0.71421979626E+02  0.10000000000E+01 0.  0.
    9000005    1    3    3    0    0  0.17281791734E+02  0.12639491514E+02 -0.19313248875E+03  0.19431823199E+03  0.10000000000E+01 0.  0.
         21    1    1    2  502  501 -0.46867190337E+02  0.43678915906E+02 -0.24052981829E+03  0.24891559757E+03  0.00000000000E+00 0. -1.
<mgrwt>
<rscale>  1 0.14046401E+03</rscale>
<asrwt>0</asrwt>
<pdfrwt beam="2">  1        4 0.75443739E-01 0.14046401E+03</pdfrwt>
<pdfrwt beam="1">  1       -4 0.37340711E-02 0.14046401E+03</pdfrwt>
<totfact> 0.10282531E+03</totfact>
</mgrwt>
</event>
<event>
 6    4  0.5642870E-004  0.1370522E+03  0.7818608E-02  0.1217351E+00
         -4   -1    0    0    0  501 -0.00000000000E+00  0.00000000000E+00  0.25962868290E+03  0.25963178905E+03  0.12700000000E+01 0.  1.
          4   -1    0    0  502    0  0.00000000000E+00 -0.00000000000E+00 -0.13500139928E+03  0.13500737279E+03  0.12700000000E+01 0.  1.
         25    2    1    2    0    0  0.46610514599E+00  0.56194128506E+02  0.23428118322E+03  0.27142400437E+03  0.12500128001E+03 0.  0.
    9000005    1    3    3    0    0 -0.13979801435E+02  0.80519471769E+02  0.79299825258E+02  0.11387836699E+03  0.10000000000E+01 0.  0.
    9000005    1    3    3    0    0  0.14445906581E+02 -0.24325343263E+02  0.15498135796E+03  0.15754563738E+03  0.10000000000E+01 0.  0.
         21    1    1    2  502  501 -0.46610514599E+00 -0.56194128506E+02 -0.10965389960E+03  0.12321515747E+03  0.00000000000E+00 0.  1.
<mgrwt>
<rscale>  1 0.13705224E+03</rscale>
<asrwt>0</asrwt>
<pdfrwt beam="2">  1        4 0.20770145E-01 0.13705224E+03</pdfrwt>
<pdfrwt beam="1">  1       -4 0.39943572E-01 0.13705224E+03</pdfrwt>
<totfact> 0.21478422E+02</totfact>
</mgrwt>
</event>
<event>
 6    4  0.5642870E-004  0.1355262E+03  0.7818608E-02  0.1219479E+00
         -4   -1    0    0    0  501 -0.00000000000E+00  0.00000000000E+00  0.16219815864E+03  0.16220313057E+03  0.12700000000E+01 0.  1.
          4   -1    0    0  502    0  0.00000000000E+00 -0.00000000000E+00 -0.76483096262E+02  0.76493639696E+02  0.12700000000E+01 0.  1.
         25    2    1    2    0    0  0.52335919497E+02 -0.25660905170E+01  0.11581255046E+03  0.17826919313E+03  0.12498689965E+03 0.  0.
    9000005    1    3    3    0    0 -0.10035959740E+02  0.14249473688E+02  0.11221247810E+03  0.11356235392E+03  0.10000000000E+01 0.  0.
    9000005    1    3    3    0    0  0.62371879237E+02 -0.16815564205E+02  0.36000723625E+01  0.64706839206E+02  0.10000000000E+01 0.  0.
         21    1    1    2  502  501 -0.52335919497E+02  0.25660905170E+01 -0.30097488077E+02  0.60427577138E+02  0.00000000000E+00 0.  1.
<mgrwt>
<rscale>  1 0.13552623E+03</rscale>
<asrwt>0</asrwt>
<pdfrwt beam="2">  1        4 0.11767824E-01 0.13552623E+03</pdfrwt>
<pdfrwt beam="1">  1       -4 0.24954756E-01 0.13552623E+03</pdfrwt>
<totfact> 0.14223248E+03</totfact>
</mgrwt>
</event>
<event>
 6    4  0.5642870E-004  0.1284497E+03  0.7818608E-02  0.1229774E+00
         -4   -1    0    0    0  501 -0.00000000000E+00  0.00000000000E+00  0.27549456098E+02  0.27578713372E+02  0.12700000000E+01 0.  1.
          4   -1    0    0  502    0  0.00000000000E+00 -0.00000000000E+00 -0.22837220128E+03  0.22837573255E+03  0.12700000000E+01 0.  1.
         25    2    1    2    0    0 -0.65034929143E+01 -0.28845453961E+02 -0.15351024357E+03  0.20016171841E+03  0.12499985201E+03 0.  0.
    9000005    1    3    3    0    0 -0.41821909441E+02  0.11819063247E+02 -0.13713116031E+03  0.14385658655E+03  0.10000000000E+01 0.  0.
    9000005    1    3    3    0    0  0.35318416527E+02 -0.40664517209E+02 -0.16379083263E+02  0.56305131865E+02  0.10000000000E+01 0.  0.
         21    1    1    2  502  501  0.65034929143E+01  0.28845453961E+02 -0.47312501614E+02  0.55792727512E+02  0.00000000000E+00 0. -1.
<mgrwt>
<rscale>  1 0.12844967E+03</rscale>
<asrwt>0</asrwt>
<pdfrwt beam="2">  1        4 0.35136706E-01 0.12844967E+03</pdfrwt>
<pdfrwt beam="1">  1       -4 0.42409002E-02 0.12844967E+03</pdfrwt>
<totfact> 0.39454900E+03</totfact>
</mgrwt>
</event>
<event>
 6    4  0.5642870E-004  0.1305243E+03  0.7818608E-02  0.1226680E+00
          4   -1    0    0  502    0  0.00000000000E+00  0.00000000000E+00  0.29148611224E+03  0.29148887892E+03  0.12700000000E+01 0. -1.
         -4   -1    0    0    0  501 -0.00000000000E+00 -0.00000000000E+00 -0.32280206252E+02  0.32305179394E+02  0.12700000000E+01 0. -1.
         25    2    1    2    0    0  0.22289682074E+02  0.30222364581E+02  0.11236711692E+03  0.17222938161E+03  0.12500547858E+03 0.  0.
    9000005    1    3    3    0    0 -0.17195410786E+02 -0.82012267954E+01  0.11547271908E+03  0.11703799010E+03  0.10000000000E+01 0.  0.
    9000005    1    3    3    0    0  0.39485092861E+02  0.38423591376E+02 -0.31056021600E+01  0.55191391514E+02  0.10000000000E+01 0.  0.
         21    1    1    2  502  501 -0.22289682074E+02 -0.30222364581E+02  0.14683878907E+03  0.15156467670E+03  0.00000000000E+00 0. -1.
<mgrwt>
<rscale>  1 0.13052429E+03</rscale>
<asrwt>0</asrwt>
<pdfrwt beam="1">  1        4 0.44846151E-01 0.13052429E+03</pdfrwt>
<pdfrwt beam="2">  1       -4 0.49683195E-02 0.13052429E+03</pdfrwt>
<totfact> 0.19043739E+03</totfact>
</mgrwt>
</event>
<event>
 6    4  0.5642870E-004  0.1271234E+03  0.7818608E-02  0.1231788E+00
         -4   -1    0    0    0  501 -0.00000000000E+00  0.00000000000E+00  0.20354003597E+03  0.20354399806E+03  0.12700000000E+01 0. -1.
          4   -1    0    0  502    0  0.00000000000E+00 -0.00000000000E+00 -0.27784218077E+02  0.27813228402E+02  0.12700000000E+01 0. -1.
         25    2    1    2    0    0  0.11805617454E+02 -0.19890583025E+02  0.15283959904E+03  0.19879711308E+03  0.12500136494E+03 0.  0.
    9000005    1    3    3    0    0  0.73984230747E+01  0.45714053930E+02  0.19763484543E+02  0.50359772756E+02  0.10000000000E+01 0.  0.
    9000005    1    3    3    0    0  0.44071943796E+01 -0.65604636955E+02  0.13307611450E+03  0.14843734032E+03  0.10000000000E+01 0.  0.
         21    1    1    2  502  501 -0.11805617454E+02  0.19890583025E+02  0.22916218855E+02  0.32560113377E+02  0.00000000000E+00 0. -1.
<mgrwt>
<rscale>  1 0.12712336E+03</rscale>
<asrwt>0</asrwt>
<pdfrwt beam="2">  1        4 0.42770315E-02 0.12712336E+03</pdfrwt>
<pdfrwt beam="1">  1       -4 0.31316387E-01 0.12712336E+03</pdfrwt>
<totfact> 0.48390289E+03</totfact>
</mgrwt>
</event>
<event>
 6    4  0.5642870E-004  0.1401322E+03  0.7818608E-02  0.1213151E+00
         -4   -1    0    0    0  501 -0.00000000000E+00  0.00000000000E+00  0.10323508377E+02  0.10401332857E+02  0.12700000000E+01 0. -1.
          4   -1    0    0  502    0  0.00000000000E+00 -0.00000000000E+00 -0.99875430678E+03  0.99875511424E+03  0.12700000000E+01 0. -1.
         25    2    1    2    0    0  0.47075445365E+02  0.42373119430E+02 -0.67788118570E+03  0.69221380124E+03  0.12500186359E+03 0.  0.
    9000005    1    3    3    0    0  0.19350856085E+02  0.95359045148E+01 -0.11537155881E+02  0.24484588458E+02  0.10000000000E+01 0.  0.
    9000005    1    3    3    0    0  0.27724589280E+02  0.32837214915E+02 -0.66634402982E+03  0.66772921278E+03  0.10000000000E+01 0.  0.
         21    1    1    2  502  501 -0.47075445365E+02 -0.42373119430E+02 -0.31054961271E+03  0.31694264585E+03  0.00000000000E+00 0. -1.
<mgrwt>
<rscale>  1 0.14013224E+03</rscale>
<asrwt>0</asrwt>
<pdfrwt beam="2">  1        4 0.15366048E+00 0.14013224E+03</pdfrwt>
<pdfrwt beam="1">  1       -4 0.15942815E-02 0.14013224E+03</pdfrwt>
<totfact> 0.72143047E+02</totfact>
</mgrwt>
</event>
<event>
 6    4  0.5642870E-004  0.1273022E+03  0.7818608E-02  0.1231515E+00
         -4   -1    0    0    0  501 -0.00000000000E+00  0.00000000000E+00  0.32027821271E+03  0.32028073067E+03  0.12700000000E+01 0. -1.
          4   -1    0    0  502    0  0.00000000000E+00 -0.00000000000E+00 -0.18746198544E+02  0.18789168684E+02  0.12700000000E+01 0. -1.
         25    2    1    2    0    0  0.16797596869E+02 -0.17245389831E+02  0.27618761047E+03  0.30411419124E+03  0.12500512951E+03 0.  0.
    9000005    1    3    3    0    0 -0.54108821146E+02 -0.99683010277E+01  0.13934643562E+03  0.14981842567E+03  0.10000000000E+01 0.  0.
    9000005    1    3    3    0    0  0.70906418015E+02 -0.72770888030E+01  0.13684117485E+03  0.15429576557E+03  0.10000000000E+01 0.  0.
         21    1    1    2  502  501 -0.16797596869E+02  0.17245389831E+02  0.25344403697E+02  0.34955708114E+02  0.00000000000E+00 0.  1.
<mgrwt>
<rscale>  1 0.12730218E+03</rscale>
<asrwt>0</asrwt>
<pdfrwt beam="2">  1        4 0.28875299E-02 0.12730218E+03</pdfrwt>
<pdfrwt beam="1">  1       -4 0.49277065E-01 0.12730218E+03</pdfrwt>
<totfact> 0.36961149E+03</totfact>
</mgrwt>
</event>
<event>
 6    4  0.5642870E-004  0.1283301E+03  0.7818608E-02  0.1229955E+00
         -4   -1    0    0    0  501 -0.00000000000E+00  0.00000000000E+00  0.43083621175E+03  0.43083808357E+03  0.12700000000E+01 0.  1.
          4   -1    0    0  502    0  0.00000000000E+00 -0.00000000000E+00 -0.21769181470E+02  0.21806195493E+02  0.12700000000E+01 0.  1.
         25    2    1    2    0    0  0.26682445162E+02  0.11480485656E+02  0.40304105021E+03  0.42297835810E+03  0.12499939534E+03 0.  0.
    9000005    1    3    3    0    0  0.54893250861E+00 -0.11440749675E+02 -0.56498068556E+01  0.12810636110E+02  0.10000000000E+01 0.  0.
    9000005    1    3    3    0    0  0.26133512653E+02  0.22921235331E+02  0.40869085707E+03  0.41016772199E+03  0.10000000000E+01 0.  0.
         21    1    1    2  502  501 -0.26682445162E+02 -0.11480485656E+02  0.60259800646E+01  0.29665920961E+02  0.00000000000E+00 0.  1.
<mgrwt>
<rscale>  1 0.12833006E+03</rscale>
<asrwt>0</asrwt>
<pdfrwt beam="2">  1        4 0.33520962E-02 0.12833006E+03</pdfrwt>
<pdfrwt beam="1">  1       -4 0.66285483E-01 0.12833006E+03</pdfrwt>
<totfact> 0.15816834E+03</totfact>
</mgrwt>
</event>
<event>
 6    4  0.5642870E-004  0.1267887E+03  0.7818608E-02  0.1232300E+00
          4   -1    0    0  502    0  0.00000000000E+00  0.00000000000E+00  0.10403562779E+03  0.10404337917E+03  0.12700000000E+01 0. -1.
         -4   -1    0    0    0  501 -0.00000000000E+00 -0.00000000000E+00 -0.54440534597E+02  0.54455345993E+02  0.12700000000E+01 0. -1.
         25    2    1    2    0    0  0.20202836377E+02 -0.64824935213E+01  0.31573819442E+02  0.13066091585E+03  0.12500076614E+03 0.  0.
    9000005    1    3    3    0    0 -0.23520183331E+02 -0.30967257334E+02  0.61142062175E+02  0.72467384510E+02  0.10000000000E+01 0.  0.
    9000005    1    3    3    0    0  0.43723019708E+02  0.24484763813E+02 -0.29568242733E+02  0.58193531339E+02  0.10000000000E+01 0.  0.
         21    1    1    2  502  501 -0.20202836377E+02  0.64824935213E+01  0.18021273750E+02  0.27837809316E+02  0.00000000000E+00 0. -1.
<mgrwt>
<rscale>  1 0.12678868E+03</rscale>
<asrwt>0</asrwt>
<pdfrwt beam="1">  1        4 0.16007217E-01 0.12678868E+03</pdfrwt>
<pdfrwt beam="2">  1       -4 0.83772025E-02 0.12678868E+03</pdfrwt>
<totfact> 0.55128091E+03</totfact>
</mgrwt>
</event>
<event>
 6    4  0.5642870E-004  0.1313883E+03  0.7818608E-02  0.1225410E+00
         -4   -1    0    0    0  501 -0.00000000000E+00  0.00000000000E+00  0.11779124194E+03  0.11779808817E+03  0.12700000000E+01 0.  1.
          4   -1    0    0  502    0  0.00000000000E+00 -0.00000000000E+00 -0.62752763781E+02  0.62765613693E+02  0.12700000000E+01 0.  1.
         25    2    1    2    0    0 -0.21590947185E+02  0.34233938885E+02  0.44784227869E+02  0.13881108254E+03  0.12499903198E+03 0.  0.
    9000005    1    3    3    0    0 -0.50311067121E+01  0.43414435401E+02  0.84311554070E+02  0.94971381929E+02  0.10000000000E+01 0.  0.
    9000005    1    3    3    0    0 -0.16559840473E+02 -0.91804965155E+01 -0.39527326201E+02  0.43839700607E+02  0.10000000000E+01 0.  0.
         21    1    1    2  502  501  0.21590947185E+02 -0.34233938885E+02  0.10254250288E+02  0.41752619330E+02  0.00000000000E+00 0. -1.
<mgrwt>
<rscale>  1 0.13138832E+03</rscale>
<asrwt>0</asrwt>
<pdfrwt beam="2">  1        4 0.96557865E-02 0.13138832E+03</pdfrwt>
<pdfrwt beam="1">  1       -4 0.18123245E-01 0.13138832E+03</pdfrwt>
<totfact> 0.35238083E+03</totfact>
</mgrwt>
</event>
<event>
 6    4  0.5642870E-004  0.1287108E+03  0.7818608E-02  0.1229381E+00
         -4   -1    0    0    0  501 -0.00000000000E+00  0.00000000000E+00  0.17274758141E+02  0.17321378953E+02  0.12700000000E+01 0.  1.
          4   -1    0    0  502    0  0.00000000000E+00 -0.00000000000E+00 -0.43460091134E+03  0.43460276694E+03  0.12700000000E+01 0.  1.
         25    2    1    2    0    0 -0.26256624889E+02  0.15858663490E+02 -0.24362264348E+03  0.27553305529E+03  0.12500225831E+03 0.  0.
    9000005    1    3    3    0    0  0.90158578091E+01 -0.49906946636E+02 -0.13046503176E+03  0.13997897530E+03  0.10000000000E+01 0.  0.
    9000005    1    3    3    0    0 -0.35272482698E+02  0.65765610126E+02 -0.11315761172E+03  0.13555407999E+03  0.10000000000E+01 0.  0.
         21    1    1    2  502  501  0.26256624889E+02 -0.15858663490E+02 -0.17370350971E+03  0.17639109061E+03  0.00000000000E+00 0.  1.
<mgrwt>
<rscale>  1 0.12871081E+03</rscale>
<asrwt>0</asrwt>
<pdfrwt beam="2">  1        4 0.66865399E-01 0.12871081E+03</pdfrwt>
<pdfrwt beam="1">  1       -4 0.26613844E-02 0.12871081E+03</pdfrwt>
<totfact> 0.22289939E+03</totfact>
</mgrwt>
</event>
<event>
 6    4  0.5642870E-004  0.1298885E+03  0.7818608E-02  0.1227621E+00
         -4   -1    0    0    0  501 -0.00000000000E+00  0.00000000000E+00  0.12122325612E+03  0.12122990854E+03  0.12700000000E+01 0.  1.
          4   -1    0    0  502    0  0.00000000000E+00 -0.00000000000E+00 -0.57747337188E+02  0.57761300646E+02  0.12700000000E+01 0.  1.
         25    2    1    2    0    0 -0.23809785539E+02  0.26049091774E+02  0.37571317785E+02  0.13521325320E+03  0.12500223539E+03 0.  0.
    9000005    1    3    3    0    0  0.60299753545E+01  0.68354025753E+02 -0.40984839327E+01  0.68749043702E+02  0.10000000000E+01 0.  0.
    9000005    1    3    3    0    0 -0.29839760893E+02 -0.42304933979E+02  0.41669801718E+02  0.66464209499E+02  0.10000000000E+01 0.  0.
         21    1    1    2  502  501  0.23809785539E+02 -0.26049091774E+02  0.25904601152E+02  0.43777955988E+02  0.00000000000E+00 0.  1.
<mgrwt>
<rscale>  1 0.12988849E+03</rscale>
<asrwt>0</asrwt>
<pdfrwt beam="2">  1        4 0.88857916E-02 0.12988849E+03</pdfrwt>
<pdfrwt beam="1">  1       -4 0.18651318E-01 0.12988849E+03</pdfrwt>
<totfact> 0.38369269E+03</totfact>
</mgrwt>
</event>
<event>
 6    4  0.5642870E-004  0.1268499E+03  0.7818608E-02  0.1232206E+00
         -4   -1    0    0    0  501 -0.00000000000E+00  0.00000000000E+00  0.41740468494E+02  0.41759784603E+02  0.12700000000E+01 0. -1.
          4   -1    0    0  502    0  0.00000000000E+00 -0.00000000000E+00 -0.14417031034E+03  0.14417590396E+03  0.12700000000E+01 0. -1.
         25    2    1    2    0    0 -0.12717271032E+01 -0.21547647475E+02 -0.64529882701E+02  0.14232003421E+03  0.12499987190E+03 0.  0.
    9000005    1    3    3    0    0  0.15140121211E+02 -0.67009048688E+02 -0.99721435031E+01  0.69425352159E+02  0.10000000000E+01 0.  0.
    9000005    1    3    3    0    0 -0.16411848314E+02  0.45461401212E+02 -0.54557739198E+02  0.72894682053E+02  0.10000000000E+01 0.  0.
         21    1    1    2  502  501  0.12717271032E+01  0.21547647475E+02 -0.37899959147E+02  0.43615654356E+02  0.00000000000E+00 0.  1.
<mgrwt>
<rscale>  1 0.12684986E+03</rscale>
<asrwt>0</asrwt>
<pdfrwt beam="2">  1        4 0.22181964E-01 0.12684986E+03</pdfrwt>
<pdfrwt beam="1">  1       -4 0.64235267E-02 0.12684986E+03</pdfrwt>
<totfact> 0.47661229E+03</totfact>
</mgrwt>
</event>
<event>
 6    4  0.5642870E-004  0.1306926E+03  0.7818608E-02  0.1226432E+00
         -4   -1    0    0    0  501 -0.00000000000E+00  0.00000000000E+00  0.25076503863E+03  0.25076825457E+03  0.12700000000E+01 0.  1.
          4   -1    0    0  502    0  0.00000000000E+00 -0.00000000000E+00 -0.29090491986E+02  0.29118200905E+02  0.12700000000E+01 0.  1.
         25    2    1    2    0    0 -0.22754276914E+02  0.30620480740E+02  0.18822869069E+03  0.22915188896E+03  0.12500070903E+03 0.  0.
    9000005    1    3    3    0    0  0.16434883085E+02  0.35100018297E+02  0.18560141568E+03  0.18960749502E+03  0.10000000000E+01 0.  0.
    9000005    1    3    3    0    0 -0.39189160000E+02 -0.44795375572E+01  0.26272750120E+01  0.39544393941E+02  0.10000000000E+01 0.  0.
         21    1    1    2  502  501  0.22754276914E+02 -0.30620480740E+02  0.33445855958E+02  0.50734566514E+02  0.00000000000E+00 0.  1.
<mgrwt>
<rscale>  1 0.13069257E+03</rscale>
<asrwt>0</asrwt>
<pdfrwt beam="2">  1        4 0.44778390E-02 0.13069257E+03</pdfrwt>
<pdfrwt beam="1">  1       -4 0.38581617E-01 0.13069257E+03</pdfrwt>
<totfact> 0.30297676E+03</totfact>
</mgrwt>
</event>
<event>
 6    4  0.5642870E-004  0.1533672E+03  0.7818608E-02  0.1196395E+00
         -4   -1    0    0    0  501 -0.00000000000E+00  0.00000000000E+00  0.23528814023E+02  0.23563064090E+02  0.12700000000E+01 0.  1.
          4   -1    0    0  502    0  0.00000000000E+00 -0.00000000000E+00 -0.65985630224E+03  0.65985752440E+03  0.12700000000E+01 0.  1.
         25    2    1    2    0    0 -0.73501194193E+02 -0.49949390544E+02 -0.47617962394E+03  0.50026845065E+03  0.12499648513E+03 0.  0.
    9000005    1    3    3    0    0 -0.44362641372E+02 -0.51725241743E+02 -0.89531689450E+02  0.11251874510E+03  0.10000000000E+01 0.  0.
    9000005    1    3    3    0    0 -0.29138552821E+02  0.17758511991E+01 -0.38664793449E+03  0.38774970555E+03  0.10000000000E+01 0.  0.
         21    1    1    2  502  501  0.73501194193E+02  0.49949390544E+02 -0.16014786428E+03  0.18315213785E+03  0.00000000000E+00 0.  1.
<mgrwt>
<rscale>  1 0.15336717E+03</rscale>
<asrwt>0</asrwt>
<pdfrwt beam="2">  1        4 0.10151907E+00 0.15336717E+03</pdfrwt>
<pdfrwt beam="1">  1       -4 0.36225467E-02 0.15336717E+03</pdfrwt>
<totfact> 0.56221777E+02</totfact>
</mgrwt>
</event>
<event>
 6    4  0.5642870E-004  0.1271552E+03  0.7818608E-02  0.1231739E+00
         -4   -1    0    0    0  501 -0.00000000000E+00  0.00000000000E+00  0.16272360294E+02  0.16321844551E+02  0.12700000000E+01 0. -1.
          4   -1    0    0  502    0  0.00000000000E+00 -0.00000000000E+00 -0.34701620438E+03  0.34701852832E+03  0.12700000000E+01 0. -1.
         25    2    1    2    0    0 -0.21899233863E+02 -0.75904963200E+01 -0.28397643254E+03  0.31114475178E+03  0.12502499850E+03 0.  0.
    9000005    1    3    3    0    0  0.43375971776E+01  0.60288920304E+01 -0.28135061928E+03  0.28145040994E+03  0.10000000000E+01 0.  0.
    9000005    1    3    3    0    0 -0.26236831041E+02 -0.13619388350E+02 -0.26258132554E+01  0.29694341841E+02  0.10000000000E+01 0.  0.
         21    1    1    2  502  501  0.21899233863E+02  0.75904963200E+01 -0.46767411547E+02  0.52195621090E+02  0.00000000000E+00 0.  1.
<mgrwt>
<rscale>  1 0.12715519E+03</rscale>
<asrwt>0</asrwt>
<pdfrwt beam="2">  1        4 0.53391088E-01 0.12715519E+03</pdfrwt>
<pdfrwt beam="1">  1       -4 0.25074256E-02 0.12715519E+03</pdfrwt>
<totfact> 0.39076617E+03</totfact>
</mgrwt>
</event>
<event>
 6    4  0.5642870E-004  0.1267864E+03  0.7818608E-02  0.1232303E+00
         -4   -1    0    0    0  501 -0.00000000000E+00  0.00000000000E+00  0.23446680690E+03  0.23447024638E+03  0.12700000000E+01 0. -1.
          4   -1    0    0  502    0  0.00000000000E+00 -0.00000000000E+00 -0.25390974201E+02  0.25422715647E+02  0.12700000000E+01 0. -1.
         25    2    1    2    0    0 -0.17420442025E+02  0.12106531709E+02  0.20003926821E+03  0.23683435391E+03  0.12499904982E+03 0.  0.
    9000005    1    3    3    0    0 -0.63135200736E+02 -0.11083140622E+02  0.60397413216E+02  0.88078017128E+02  0.10000000000E+01 0.  0.
    9000005    1    3    3    0    0  0.45714758712E+02  0.23189672331E+02  0.13964185500E+03  0.14875633678E+03  0.10000000000E+01 0.  0.
         21    1    1    2  502  501  0.17420442025E+02 -0.12106531709E+02  0.90365644819E+01  0.23058608110E+02  0.00000000000E+00 0. -1.
<mgrwt>
<rscale>  1 0.12678644E+03</rscale>
<asrwt>0</asrwt>
<pdfrwt beam="2">  1        4 0.39090099E-02 0.12678644E+03</pdfrwt>
<pdfrwt beam="1">  1       -4 0.36074523E-01 0.12678644E+03</pdfrwt>
<totfact> 0.42538528E+03</totfact>
</mgrwt>
</event>
<event>
 6    4  0.5642870E-004  0.1387405E+03  0.7818608E-02  0.1215034E+00
         -4   -1    0    0    0  501 -0.00000000000E+00  0.00000000000E+00  0.19227825144E+04  0.19227829339E+04  0.12700000000E+01 0. -1.
          4   -1    0    0  502    0  0.00000000000E+00 -0.00000000000E+00 -0.50684115647E+01  0.52251024669E+01  0.12700000000E+01 0. -1.
         25    2    1    2    0    0 -0.53420466941E+02 -0.27763648626E+02  0.13503148103E+04  0.13574236659E+04  0.12499742221E+03 0.  0.
    9000005    1    3    3    0    0  0.22788455943E+02 -0.72564533014E+01  0.58606660097E+02  0.63306480288E+02  0.10000000000E+01 0.  0.
    9000005    1    3    3    0    0 -0.76208922885E+02 -0.20507195324E+02  0.12917081502E+04  0.12941171856E+04  0.10000000000E+01 0.  0.
         21    1    1    2  502  501  0.53420466941E+02  0.27763648626E+02  0.56739929261E+03  0.57058437039E+03  0.00000000000E+00 0. -1.
<mgrwt>
<rscale>  1 0.13874048E+03</rscale>
<asrwt>0</asrwt>
<pdfrwt beam="2">  1        4 0.79184097E-03 0.13874048E+03</pdfrwt>
<pdfrwt beam="1">  1       -4 0.29582480E+00 0.13874048E+03</pdfrwt>
<totfact> 0.27958989E+02</totfact>
</mgrwt>
</event>
<event>
 6    4  0.5642870E-004  0.1266890E+03  0.7818608E-02  0.1232453E+00
          4   -1    0    0  502    0  0.00000000000E+00  0.00000000000E+00  0.45600007348E+01  0.47335511723E+01  0.12700000000E+01 0. -1.
         -4   -1    0    0    0  501 -0.00000000000E+00 -0.00000000000E+00 -0.18148651872E+04  0.18148656316E+04  0.12700000000E+01 0. -1.
         25    2    1    2    0    0  0.27434289945E+01 -0.20411569181E+02 -0.17681417054E+04  0.17726745869E+04  0.12500376823E+03 0.  0.
    9000005    1    3    3    0    0 -0.95990508654E+01  0.21372851390E+02 -0.67193242155E+02  0.71167916545E+02  0.10000000000E+01 0.  0.
    9000005    1    3    3    0    0  0.12342479860E+02 -0.41784420571E+02 -0.17009484633E+04  0.17015066704E+04  0.10000000000E+01 0.  0.
         21    1    1    2  502  501 -0.27434289945E+01  0.20411569181E+02 -0.42163481044E+02  0.46924595819E+02  0.00000000000E+00 0. -1.
<mgrwt>
<rscale>  1 0.12668899E+03</rscale>
<asrwt>0</asrwt>
<pdfrwt beam="1">  1        4 0.71492423E-03 0.12668899E+03</pdfrwt>
<pdfrwt beam="2">  1       -4 0.27922285E+00 0.12668899E+03</pdfrwt>
<totfact> 0.40046455E+02</totfact>
</mgrwt>
</event>
<event>
 6    4  0.5642870E-004  0.1308595E+03  0.7818608E-02  0.1226186E+00
         -4   -1    0    0    0  501 -0.00000000000E+00  0.00000000000E+00  0.27527167309E+03  0.27527460272E+03  0.12700000000E+01 0. -1.
          4   -1    0    0  502    0  0.00000000000E+00 -0.00000000000E+00 -0.26145773137E+02  0.26176599338E+02  0.12700000000E+01 0. -1.
         25    2    1    2    0    0 -0.22809060200E+02 -0.31288732959E+02  0.19749461342E+03  0.23691417559E+03  0.12499986491E+03 0.  0.
    9000005    1    3    3    0    0 -0.48281061201E+02  0.71809313336E+01  0.18735011102E+02  0.52293663923E+02  0.10000000000E+01 0.  0.
    9000005    1    3    3    0    0  0.25472001000E+02 -0.38469664292E+02  0.17875960232E+03  0.18462051167E+03  0.10000000000E+01 0.  0.
         21    1    1    2  502  501  0.22809060200E+02  0.31288732959E+02  0.51631286526E+02  0.64537026471E+02  0.00000000000E+00 0.  1.
<mgrwt>
<rscale>  1 0.13085948E+03</rscale>
<asrwt>0</asrwt>
<pdfrwt beam="2">  1        4 0.40250232E-02 0.13085948E+03</pdfrwt>
<pdfrwt beam="1">  1       -4 0.42352085E-01 0.13085948E+03</pdfrwt>
<totfact> 0.29888692E+03</totfact>
</mgrwt>
</event>
<event>
 6    4  0.5642870E-004  0.1308121E+03  0.7818608E-02  0.1226256E+00
          4   -1    0    0  502    0  0.00000000000E+00  0.00000000000E+00  0.40011604684E+02  0.40031755013E+02  0.12700000000E+01 0. -1.
         -4   -1    0    0    0  501 -0.00000000000E+00 -0.00000000000E+00 -0.18753347579E+03  0.18753777604E+03  0.12700000000E+01 0. -1.
         25    2    1    2    0    0 -0.35013951696E+02 -0.16043968255E+02 -0.13260126929E+03  0.18626565606E+03  0.12501364837E+03 0.  0.
    9000005    1    3    3    0    0  0.11077214004E+01 -0.63402553106E+02 -0.36427418837E+02  0.73137320365E+02  0.10000000000E+01 0.  0.
    9000005    1    3    3    0    0 -0.36121673097E+02  0.47358584851E+02 -0.96173850454E+02  0.11312833570E+03  0.10000000000E+01 0.  0.
         21    1    1    2  502  501  0.35013951696E+02  0.16043968255E+02 -0.14920601815E+02  0.41303874991E+02  0.00000000000E+00 0. -1.
<mgrwt>
<rscale>  1 0.13081207E+03</rscale>
<asrwt>0</asrwt>
<pdfrwt beam="1">  1        4 0.61575124E-02 0.13081207E+03</pdfrwt>
<pdfrwt beam="2">  1       -4 0.28853184E-01 0.13081207E+03</pdfrwt>
<totfact> 0.31653627E+03</totfact>
</mgrwt>
</event>
<event>
 6    4  0.5642870E-004  0.1275424E+03  0.7818608E-02  0.1231149E+00
         -4   -1    0    0    0  501 -0.00000000000E+00  0.00000000000E+00  0.71318733662E+01  0.72440677600E+01  0.12700000000E+01 0.  1.
          4   -1    0    0  502    0  0.00000000000E+00 -0.00000000000E+00 -0.15886732145E+04  0.15886737221E+04  0.12700000000E+01 0.  1.
         25    2    1    2    0    0 -0.15175939857E+01  0.25221364041E+02 -0.57143688834E+03  0.58549736954E+03  0.12501452750E+03 0.  0.
    9000005    1    3    3    0    0 -0.42339162478E+02 -0.27656642025E+02 -0.36578205394E+03  0.36926278652E+03  0.10000000000E+01 0.  0.
    9000005    1    3    3    0    0  0.40821568492E+02  0.52878006067E+02 -0.20565483440E+03  0.21623458302E+03  0.10000000000E+01 0.  0.
         21    1    1    2  502  501  0.15175939857E+01 -0.25221364041E+02 -0.10101044528E+04  0.10104204203E+04  0.00000000000E+00 0.  1.
<mgrwt>
<rscale>  1 0.12754236E+03</rscale>
<asrwt>0</asrwt>
<pdfrwt beam="2">  1        4 0.24441965E+00 0.12754236E+03</pdfrwt>
<pdfrwt beam="1">  1       -4 0.11058819E-02 0.12754236E+03</pdfrwt>
<totfact> 0.33013149E+02</totfact>
</mgrwt>
</event>
<event>
 6    4  0.5642870E-004  0.1293724E+03  0.7818608E-02  0.1228390E+00
         -4   -1    0    0    0  501 -0.00000000000E+00  0.00000000000E+00  0.14027581144E+02  0.14084954127E+02  0.12700000000E+01 0. -1.
          4   -1    0    0  502    0  0.00000000000E+00 -0.00000000000E+00 -0.47367656018E+03  0.47367826271E+03  0.12700000000E+01 0. -1.
         25    2    1    2    0    0  0.23686072905E+02  0.23489835665E+02 -0.34962492865E+03  0.37279324644E+03  0.12499764570E+03 0.  0.
    9000005    1    3    3    0    0  0.39908675092E+02 -0.23534929347E+02 -0.29614123953E+03  0.29974527352E+03  0.10000000000E+01 0.  0.
    9000005    1    3    3    0    0 -0.16222602186E+02  0.47024765012E+02 -0.53483689118E+02  0.73047972920E+02  0.10000000000E+01 0.  0.
         21    1    1    2  502  501 -0.23686072905E+02 -0.23489835665E+02 -0.11002405039E+03  0.11496997040E+03  0.00000000000E+00 0. -1.
<mgrwt>
<rscale>  1 0.12937238E+03</rscale>
<asrwt>0</asrwt>
<pdfrwt beam="2">  1        4 0.72877849E-01 0.12937238E+03</pdfrwt>
<pdfrwt beam="1">  1       -4 0.21626340E-02 0.12937238E+03</pdfrwt>
<totfact> 0.25572028E+03</totfact>
</mgrwt>
</event>
<event>
 6    4  0.5642870E-004  0.1275058E+03  0.7818608E-02  0.1231204E+00
          4   -1    0    0  502    0  0.00000000000E+00  0.00000000000E+00  0.35131273038E+03  0.35131502591E+03  0.12700000000E+01 0. -1.
         -4   -1    0    0    0  501 -0.00000000000E+00 -0.00000000000E+00 -0.20764800659E+02  0.20803601766E+02  0.12700000000E+01 0. -1.
         25    2    1    2    0    0 -0.18578664520E+02 -0.16974160455E+02  0.18669627671E+03  0.22608237542E+03  0.12499780734E+03 0.  0.
    9000005    1    3    3    0    0 -0.10402720026E+01 -0.22793292347E+02 -0.12494904845E+02  0.26033420615E+02  0.10000000000E+01 0.  0.
    9000005    1    3    3    0    0 -0.17538392517E+02  0.58191318917E+01  0.19919118156E+03  0.20004895481E+03  0.10000000000E+01 0.  0.
         21    1    1    2  502  501  0.18578664520E+02  0.16974160455E+02  0.14385165301E+03  0.14603625225E+03  0.00000000000E+00 0. -1.
<mgrwt>
<rscale>  1 0.12750585E+03</rscale>
<asrwt>0</asrwt>
<pdfrwt beam="1">  1        4 0.54051273E-01 0.12750585E+03</pdfrwt>
<pdfrwt beam="2">  1       -4 0.31977460E-02 0.12750585E+03</pdfrwt>
<totfact> 0.26086537E+03</totfact>
</mgrwt>
</event>
<event>
 6    4  0.5642870E-004  0.1272580E+03  0.7818608E-02  0.1231582E+00
         -4   -1    0    0    0  501 -0.00000000000E+00  0.00000000000E+00  0.24233822013E+03  0.24234154789E+03  0.12700000000E+01 0. -1.
          4   -1    0    0  502    0  0.00000000000E+00 -0.00000000000E+00 -0.27152301917E+02  0.27181986671E+02  0.12700000000E+01 0. -1.
         25    2    1    2    0    0  0.19679942698E+02 -0.13487955554E+02  0.20929767974E+03  0.24494923006E+03  0.12500152588E+03 0.  0.
    9000005    1    3    3    0    0 -0.52462113076E+02 -0.13532605100E+02  0.10454271374E+03  0.11775221317E+03  0.10000000000E+01 0.  0.
    9000005    1    3    3    0    0  0.72142055774E+02  0.44649546553E-01  0.10475496599E+03  0.12719701689E+03  0.10000000000E+01 0.  0.
         21    1    1    2  502  501 -0.19679942698E+02  0.13487955554E+02  0.58882384710E+01  0.24574304505E+02  0.00000000000E+00 0.  1.
<mgrwt>
<rscale>  1 0.12725803E+03</rscale>
<asrwt>0</asrwt>
<pdfrwt beam="2">  1        4 0.41798166E-02 0.12725803E+03</pdfrwt>
<pdfrwt beam="1">  1       -4 0.37285342E-01 0.12725803E+03</pdfrwt>
<totfact> 0.35908916E+03</totfact>
</mgrwt>
</event>
<event>
 6    4  0.5642870E-004  0.1302669E+03  0.7818608E-02  0.1227060E+00
         -4   -1    0    0    0  501 -0.00000000000E+00  0.00000000000E+00  0.54093797859E+02  0.54108704169E+02  0.12700000000E+01 0. -1.
          4   -1    0    0  502    0  0.00000000000E+00 -0.00000000000E+00 -0.14625016482E+03  0.14625567890E+03  0.12700000000E+01 0. -1.
         25    2    1    2    0    0  0.15046961301E+02 -0.33456852247E+02 -0.39377258769E+02  0.13608836679E+03  0.12499481214E+03 0.  0.
    9000005    1    3    3    0    0 -0.53608177074E+02 -0.22098378795E+02 -0.42981753272E+01  0.58151950145E+02  0.10000000000E+01 0.  0.
    9000005    1    3    3    0    0  0.68655138375E+02 -0.11358473452E+02 -0.35079083442E+02  0.77936416646E+02  0.10000000000E+01 0.  0.
         21    1    1    2  502  501 -0.15046961301E+02  0.33456852247E+02 -0.52779108193E+02  0.64276016276E+02  0.00000000000E+00 0. -1.
<mgrwt>
<rscale>  1 0.13026694E+03</rscale>
<asrwt>0</asrwt>
<pdfrwt beam="2">  1        4 0.22501596E-01 0.13026694E+03</pdfrwt>
<pdfrwt beam="1">  1       -4 0.83236936E-02 0.13026694E+03</pdfrwt>
<totfact> 0.30521735E+03</totfact>
</mgrwt>
</event>
<event>
 6    4  0.5642870E-004  0.1276120E+03  0.7818608E-02  0.1231043E+00
         -4   -1    0    0    0  501 -0.00000000000E+00  0.00000000000E+00  0.24858862889E+03  0.24859187299E+03  0.12700000000E+01 0. -1.
          4   -1    0    0  502    0  0.00000000000E+00 -0.00000000000E+00 -0.28103004151E+02  0.28131685735E+02  0.12700000000E+01 0. -1.
         25    2    1    2    0    0 -0.25627722926E+02  0.19826682135E+01  0.21563454117E+03  0.25056549749E+03  0.12499640808E+03 0.  0.
    9000005    1    3    3    0    0 -0.20055734271E+02  0.58700781129E+02  0.66683810040E+02  0.91080978826E+02  0.10000000000E+01 0.  0.
    9000005    1    3    3    0    0 -0.55719886543E+01 -0.56718112916E+02  0.14895073113E+03  0.15948451866E+03  0.10000000000E+01 0.  0.
         21    1    1    2  502  501  0.25627722926E+02 -0.19826682135E+01  0.48510835759E+01  0.26158061233E+02  0.00000000000E+00 0. -1.
<mgrwt>
<rscale>  1 0.12761196E+03</rscale>
<asrwt>0</asrwt>
<pdfrwt beam="2">  1        4 0.43259948E-02 0.12761196E+03</pdfrwt>
<pdfrwt beam="1">  1       -4 0.38246862E-01 0.12761196E+03</pdfrwt>
<totfact> 0.32373859E+03</totfact>
</mgrwt>
</event>
<event>
 6    4  0.5642870E-004  0.1318070E+03  0.7818608E-02  0.1224799E+00
         -4   -1    0    0    0  501 -0.00000000000E+00  0.00000000000E+00  0.44409860882E+03  0.44410042474E+03  0.12700000000E+01 0. -1.
          4   -1    0    0  502    0  0.00000000000E+00 -0.00000000000E+00 -0.42698682543E+02  0.42717565367E+02  0.12700000000E+01 0. -1.
         25    2    1    2    0    0  0.39524698424E+02  0.13257265341E+02  0.42071001702E+03  0.44087414966E+03  0.12504055562E+03 0.  0.
    9000005    1    3    3    0    0  0.60824642485E+02 -0.40629286001E+02  0.25705179829E+03  0.26725830767E+03  0.10000000000E+01 0.  0.
    9000005    1    3    3    0    0 -0.21299944061E+02  0.53886551342E+02  0.16365821873E+03  0.17361584200E+03  0.10000000000E+01 0.  0.
         21    1    1    2  502  501 -0.39524698424E+02 -0.13257265341E+02 -0.19310090748E+02  0.45943840442E+02  0.00000000000E+00 0. -1.
<mgrwt>
<rscale>  1 0.13180705E+03</rscale>
<asrwt>0</asrwt>
<pdfrwt beam="2">  1        4 0.65706200E-02 0.13180705E+03</pdfrwt>
<pdfrwt beam="1">  1       -4 0.68324458E-01 0.13180705E+03</pdfrwt>
<totfact> 0.50743245E+02</totfact>
</mgrwt>
</event>
<event>
 6    4  0.5642870E-004  0.1385419E+03  0.7818608E-02  0.1215304E+00
          4   -1    0    0  502    0  0.00000000000E+00  0.00000000000E+00  0.59192462612E+02  0.59206085245E+02  0.12700000000E+01 0. -1.
         -4   -1    0    0    0  501 -0.00000000000E+00 -0.00000000000E+00 -0.16757950915E+03  0.16758432143E+03  0.12700000000E+01 0. -1.
         25    2    1    2    0    0 -0.26200449211E+02  0.53694126759E+02 -0.65497285708E+02  0.15324413300E+03  0.12499738827E+03 0.  0.
    9000005    1    3    3    0    0  0.16586411234E+02 -0.34872329331E+02 -0.29090949442E+02  0.48357747363E+02  0.10000000000E+01 0.  0.
    9000005    1    3    3    0    0 -0.42786860446E+02  0.88566456089E+02 -0.36406336266E+02  0.10488638563E+03  0.10000000000E+01 0.  0.
         21    1    1    2  502  501  0.26200449211E+02 -0.53694126759E+02 -0.42889760833E+02  0.73546273675E+02  0.00000000000E+00 0. -1.
<mgrwt>
<rscale>  1 0.13854194E+03</rscale>
<asrwt>0</asrwt>
<pdfrwt beam="1">  1        4 0.91079508E-02 0.13854194E+03</pdfrwt>
<pdfrwt beam="2">  1       -4 0.25782881E-01 0.13854194E+03</pdfrwt>
<totfact> 0.20745070E+03</totfact>
</mgrwt>
</event>
<event>
 6    4  0.5642870E-004  0.1276363E+03  0.7818608E-02  0.1231006E+00
          4   -1    0    0  502    0  0.00000000000E+00  0.00000000000E+00  0.11053146915E+03  0.11053876502E+03  0.12700000000E+01 0. -1.
         -4   -1    0    0    0  501 -0.00000000000E+00 -0.00000000000E+00 -0.53284224781E+02  0.53299357505E+02  0.12700000000E+01 0. -1.
         25    2    1    2    0    0  0.18262374258E+02 -0.18244860078E+02  0.45882022309E+02  0.13563249356E+03  0.12499849642E+03 0.  0.
    9000005    1    3    3    0    0 -0.49906219038E+02  0.11405921581E+02  0.30865896668E+02  0.59786531283E+02  0.10000000000E+01 0.  0.
    9000005    1    3    3    0    0  0.68168593296E+02 -0.29650781658E+02  0.15016125641E+02  0.75845962280E+02  0.10000000000E+01 0.  0.
         21    1    1    2  502  501 -0.18262374258E+02  0.18244860078E+02  0.11365222063E+02  0.28205628966E+02  0.00000000000E+00 0.  1.
<mgrwt>
<rscale>  1 0.12763625E+03</rscale>
<asrwt>0</asrwt>
<pdfrwt beam="1">  1        4 0.17006567E-01 0.12763625E+03</pdfrwt>
<pdfrwt beam="2">  1       -4 0.81992983E-02 0.12763625E+03</pdfrwt>
<totfact> 0.51437346E+03</totfact>
</mgrwt>
</event>
<event>
 6    4  0.5642870E-004  0.1348029E+03  0.7818608E-02  0.1220498E+00
         -4   -1    0    0    0  501 -0.00000000000E+00  0.00000000000E+00  0.28940292613E+02  0.28968145203E+02  0.12700000000E+01 0.  1.
          4   -1    0    0  502    0  0.00000000000E+00 -0.00000000000E+00 -0.40894944182E+03  0.40895141382E+03  0.12700000000E+01 0.  1.
         25    2    1    2    0    0  0.40822730280E+02 -0.29679712878E+02 -0.14676926724E+03  0.19928129050E+03  0.12499773707E+03 0.  0.
    9000005    1    3    3    0    0  0.26837770948E+02  0.14995517003E+02 -0.14925513459E+03  0.15239168836E+03  0.10000000000E+01 0.  0.
    9000005    1    3    3    0    0  0.13984959332E+02 -0.44675229881E+02  0.24858673488E+01  0.46889602141E+02  0.10000000000E+01 0.  0.
         21    1    1    2  502  501 -0.40822730280E+02  0.29679712878E+02 -0.23323988197E+03  0.23863826853E+03  0.00000000000E+00 0.  1.
<mgrwt>
<rscale>  1 0.13480287E+03</rscale>
<asrwt>0</asrwt>
<pdfrwt beam="2">  1        4 0.62917589E-01 0.13480287E+03</pdfrwt>
<pdfrwt beam="1">  1       -4 0.44546472E-02 0.13480287E+03</pdfrwt>
<totfact> 0.11382770E+03</totfact>
</mgrwt>
</event>
<event>
 6    4  0.5642870E-004  0.1272419E+03  0.7818608E-02  0.1231607E+00
         -4   -1    0    0    0  501 -0.00000000000E+00  0.00000000000E+00  0.10417150703E+03  0.10417924830E+03  0.12700000000E+01 0.  1.
          4   -1    0    0  502    0  0.00000000000E+00 -0.00000000000E+00 -0.54727395777E+02  0.54742129558E+02  0.12700000000E+01 0.  1.
         25    2    1    2    0    0 -0.22756898496E+02  0.69290146450E+01  0.42061467442E+02  0.13401372637E+03  0.12499849655E+03 0.  0.
    9000005    1    3    3    0    0 -0.49056285025E+02 -0.17453241745E+02  0.70908297843E+02  0.87977960029E+02  0.10000000000E+01 0.  0.
    9000005    1    3    3    0    0  0.26299386529E+02  0.24382256390E+02 -0.28846830402E+02  0.46035766342E+02  0.10000000000E+01 0.  0.
         21    1    1    2  502  501  0.22756898496E+02 -0.69290146450E+01  0.73826438120E+01  0.24907651490E+02  0.00000000000E+00 0.  1.
<mgrwt>
<rscale>  1 0.12724194E+03</rscale>
<asrwt>0</asrwt>
<pdfrwt beam="2">  1        4 0.84213282E-02 0.12724194E+03</pdfrwt>
<pdfrwt beam="1">  1       -4 0.16028114E-01 0.12724194E+03</pdfrwt>
<totfact> 0.54573955E+03</totfact>
</mgrwt>
</event>
<event>
 6    4  0.5642870E-004  0.1616060E+03  0.7818608E-02  0.1186895E+00
          4   -1    0    0  502    0  0.00000000000E+00  0.00000000000E+00  0.20962483751E+03  0.20962868459E+03  0.12700000000E+01 0. -1.
         -4   -1    0    0    0  501 -0.00000000000E+00 -0.00000000000E+00 -0.14571461857E+03  0.14572015292E+03  0.12700000000E+01 0. -1.
         25    2    1    2    0    0 -0.56184547271E+02 -0.85638817907E+02 -0.78714703169E+02  0.17975675656E+03  0.12500310616E+03 0.  0.
    9000005    1    3    3    0    0 -0.20455853194E+02 -0.11193427284E+03 -0.39245986672E+02  0.12037014096E+03  0.10000000000E+01 0.  0.
    9000005    1    3    3    0    0 -0.35728694076E+02  0.26295454929E+02 -0.39468716496E+02  0.59386615598E+02  0.10000000000E+01 0.  0.
         21    1    1    2  502  501  0.56184547271E+02  0.85638817907E+02  0.14262492211E+03  0.17559208095E+03  0.00000000000E+00 0. -1.
<mgrwt>
<rscale>  1 0.16160596E+03</rscale>
<asrwt>0</asrwt>
<pdfrwt beam="1">  1        4 0.32250696E-01 0.16160596E+03</pdfrwt>
<pdfrwt beam="2">  1       -4 0.22418355E-01 0.16160596E+03</pdfrwt>
<totfact> 0.29139084E+02</totfact>
</mgrwt>
</event>
<event>
 6    4  0.5642870E-004  0.1268488E+03  0.7818608E-02  0.1232208E+00
          4   -1    0    0  502    0  0.00000000000E+00  0.00000000000E+00  0.16279695620E+04  0.16279700574E+04  0.12700000000E+01 0. -1.
         -4   -1    0    0    0  501 -0.00000000000E+00 -0.00000000000E+00 -0.32755422780E+01  0.35131292625E+01  0.12700000000E+01 0. -1.
         25    2    1    2    0    0 -0.53104742307E+01 -0.20891816075E+02  0.14217699463E+04  0.14274173916E+04  0.12500384242E+03 0.  0.
    9000005    1    3    3    0    0 -0.42871226020E+02  0.34993213462E+02  0.46544487174E+03  0.46872422131E+03  0.10000000000E+01 0.  0.
    9000005    1    3    3    0    0  0.37560751789E+02 -0.55885029536E+02  0.95632507454E+03  0.95869317031E+03  0.10000000000E+01 0.  0.
         21    1    1    2  502  501  0.53104742307E+01  0.20891816075E+02  0.20292407348E+03  0.20406579506E+03  0.00000000000E+00 0. -1.
<mgrwt>
<rscale>  1 0.12684885E+03</rscale>
<asrwt>0</asrwt>
<pdfrwt beam="1">  1        4 0.25047558E+00 0.12684885E+03</pdfrwt>
<pdfrwt beam="2">  1       -4 0.52224275E-03 0.12684885E+03</pdfrwt>
<totfact> 0.93263217E+02</totfact>
</mgrwt>
</event>
<event>
 6    4  0.5642870E-004  0.1306974E+03  0.7818608E-02  0.1226425E+00
          4   -1    0    0  502    0  0.00000000000E+00  0.00000000000E+00  0.41577729486E+02  0.41597121165E+02  0.12700000000E+01 0. -1.
         -4   -1    0    0    0  501 -0.00000000000E+00 -0.00000000000E+00 -0.17216067300E+03  0.17216535723E+03  0.12700000000E+01 0. -1.
         25    2    1    2    0    0  0.14833944929E+02  0.35170598994E+02 -0.10684403358E+03  0.16881191888E+03  0.12499919795E+03 0.  0.
    9000005    1    3    3    0    0  0.90579337125E+01 -0.44559229972E+02 -0.62792066535E+02  0.77533313863E+02  0.10000000000E+01 0.  0.
    9000005    1    3    3    0    0  0.57760112164E+01  0.79729828967E+02 -0.44051967047E+02  0.91278605014E+02  0.10000000000E+01 0.  0.
         21    1    1    2  502  501 -0.14833944929E+02 -0.35170598994E+02 -0.23738909934E+02  0.44950559514E+02  0.00000000000E+00 0.  1.
<mgrwt>
<rscale>  1 0.13069742E+03</rscale>
<asrwt>0</asrwt>
<pdfrwt beam="1">  1        4 0.63984259E-02 0.13069742E+03</pdfrwt>
<pdfrwt beam="2">  1       -4 0.26488109E-01 0.13069742E+03</pdfrwt>
<totfact> 0.34880207E+03</totfact>
</mgrwt>
</event>
<event>
 6    4  0.5642870E-004  0.1275858E+03  0.7818608E-02  0.1231083E+00
         -4   -1    0    0    0  501 -0.00000000000E+00  0.00000000000E+00  0.70100631862E+02  0.70112135094E+02  0.12700000000E+01 0. -1.
          4   -1    0    0  502    0  0.00000000000E+00 -0.00000000000E+00 -0.86874826815E+02  0.86884109215E+02  0.12700000000E+01 0. -1.
         25    2    1    2    0    0  0.18296836448E+02  0.17864080228E+02 -0.22872796361E+01  0.12760627490E+03  0.12499692060E+03 0.  0.
    9000005    1    3    3    0    0 -0.94659565773E+01 -0.46353133573E+02  0.23754973838E+02  0.52948239895E+02  0.10000000000E+01 0.  0.
    9000005    1    3    3    0    0  0.27762793025E+02  0.64217213801E+02 -0.26042253474E+02  0.74658035006E+02  0.10000000000E+01 0.  0.
         21    1    1    2  502  501 -0.18296836448E+02 -0.17864080228E+02 -0.14486915317E+02  0.29389969408E+02  0.00000000000E+00 0.  1.
<mgrwt>
<rscale>  1 0.12758577E+03</rscale>
<asrwt>0</asrwt>
<pdfrwt beam="2">  1        4 0.13366957E-01 0.12758577E+03</pdfrwt>
<pdfrwt beam="1">  1       -4 0.10786311E-01 0.12758577E+03</pdfrwt>
<totfact> 0.49460002E+03</totfact>
</mgrwt>
</event>
<event>
 6    4  0.5642870E-004  0.1695985E+03  0.7818608E-02  0.1178267E+00
         -4   -1    0    0    0  501 -0.00000000000E+00  0.00000000000E+00  0.97401670939E+02  0.97409950220E+02  0.12700000000E+01 0.  1.
          4   -1    0    0  502    0  0.00000000000E+00 -0.00000000000E+00 -0.21911947129E+03  0.21912315167E+03  0.12700000000E+01 0.  1.
         25    2    1    2    0    0  0.11282180401E+03  0.20241876220E+02 -0.35932347264E+02  0.17336314354E+03  0.12500061178E+03 0.  0.
    9000005    1    3    3    0    0 -0.22403124274E+02  0.24243205024E+02 -0.15714656221E+02  0.36572987124E+02  0.10000000000E+01 0.  0.
    9000005    1    3    3    0    0  0.13522492828E+03 -0.40013288038E+01 -0.20217691044E+02  0.13679015642E+03  0.10000000000E+01 0.  0.
         21    1    1    2  502  501 -0.11282180401E+03 -0.20241876220E+02 -0.85785453088E+02  0.14316995835E+03  0.00000000000E+00 0.  1.
<mgrwt>
<rscale>  1 0.16959848E+03</rscale>
<asrwt>0</asrwt>
<pdfrwt beam="2">  1        4 0.33711608E-01 0.16959848E+03</pdfrwt>
<pdfrwt beam="1">  1       -4 0.14985793E-01 0.16959848E+03</pdfrwt>
<totfact> 0.55489862E+02</totfact>
</mgrwt>
</event>
<event>
 6    4  0.5642870E-004  0.1287124E+03  0.7818608E-02  0.1229379E+00
         -4   -1    0    0    0  501 -0.00000000000E+00  0.00000000000E+00  0.38272192728E+02  0.38293258365E+02  0.12700000000E+01 0.  1.
          4   -1    0    0  502    0  0.00000000000E+00 -0.00000000000E+00 -0.55722350289E+03  0.55722495016E+03  0.12700000000E+01 0.  1.
         25    2    1    2    0    0 -0.27434040535E+01 -0.30546959743E+02 -0.71933169973E+02  0.14744917291E+03  0.12500493843E+03 0.  0.
    9000005    1    3    3    0    0  0.82985813827E+01 -0.39807766478E+02 -0.10432921929E+03  0.11197817074E+03  0.10000000000E+01 0.  0.
    9000005    1    3    3    0    0 -0.11041985436E+02  0.92608067352E+01  0.32396049313E+02  0.35471002169E+02  0.10000000000E+01 0.  0.
         21    1    1    2  502  501  0.27434040535E+01  0.30546959743E+02 -0.44701814019E+03  0.44806903562E+03  0.00000000000E+00 0.  1.
<mgrwt>
<rscale>  1 0.12871238E+03</rscale>
<asrwt>0</asrwt>
<pdfrwt beam="2">  1        4 0.85728419E-01 0.12871238E+03</pdfrwt>
<pdfrwt beam="1">  1       -4 0.58897618E-02 0.12871238E+03</pdfrwt>
<totfact> 0.36705060E+02</totfact>
</mgrwt>
</event>
<event>
 6    4  0.5642870E-004  0.1292058E+03  0.7818608E-02  0.1228639E+00
         -4   -1    0    0    0  501 -0.00000000000E+00  0.00000000000E+00  0.20056915360E+02  0.20097083215E+02  0.12700000000E+01 0.  1.
          4   -1    0    0  502    0  0.00000000000E+00 -0.00000000000E+00 -0.32674841359E+03  0.32675088169E+03  0.12700000000E+01 0.  1.
         25    2    1    2    0    0 -0.85910300452E+00  0.32689690150E+02 -0.24935563108E+03  0.28084224120E+03  0.12499911915E+03 0.  0.
    9000005    1    3    3    0    0 -0.53448452368E+02 -0.17463997796E+02 -0.11817739133E+03  0.13087636953E+03  0.10000000000E+01 0.  0.
    9000005    1    3    3    0    0  0.52589349364E+02  0.50153687946E+02 -0.13117823975E+03  0.14996587167E+03  0.10000000000E+01 0.  0.
         21    1    1    2  502  501  0.85910300452E+00 -0.32689690150E+02 -0.57335867146E+02  0.66005723702E+02  0.00000000000E+00 0. -1.
<mgrwt>
<rscale>  1 0.12920578E+03</rscale>
<asrwt>0</asrwt>
<pdfrwt beam="2">  1        4 0.50272263E-01 0.12920578E+03</pdfrwt>
<pdfrwt beam="1">  1       -4 0.30889592E-02 0.12920578E+03</pdfrwt>
<totfact> 0.32051457E+03</totfact>
</mgrwt>
</event>
<event>
 6    4  0.5642870E-004  0.1380543E+03  0.7818608E-02  0.1215971E+00
          4   -1    0    0  502    0  0.00000000000E+00  0.00000000000E+00  0.43289068266E+02  0.43307693674E+02  0.12700000000E+01 0.  1.
         -4   -1    0    0    0  501 -0.00000000000E+00 -0.00000000000E+00 -0.25055817436E+03  0.25056139296E+03  0.12700000000E+01 0.  1.
         25    2    1    2    0    0 -0.55463832165E+02  0.18958197047E+02 -0.96147045170E+02  0.16823564228E+03  0.12499330833E+03 0.  0.
    9000005    1    3    3    0    0 -0.73547948002E+02 -0.14137902740E+01 -0.57211616135E+01  0.73790454318E+02  0.10000000000E+01 0.  0.
    9000005    1    3    3    0    0  0.18084115837E+02  0.20371987321E+02 -0.90425883556E+02  0.94445187966E+02  0.10000000000E+01 0.  0.
         21    1    1    2  502  501  0.55463832165E+02 -0.18958197047E+02 -0.11112206093E+03  0.12563344435E+03  0.00000000000E+00 0.  1.
<mgrwt>
<rscale>  1 0.13805425E+03</rscale>
<asrwt>0</asrwt>
<pdfrwt beam="1">  1        4 0.66615371E-02 0.13805425E+03</pdfrwt>
<pdfrwt beam="2">  1       -4 0.38549091E-01 0.13805425E+03</pdfrwt>
<totfact> 0.16170712E+03</totfact>
</mgrwt>
</event>
<event>
 6    4  0.5642870E-004  0.1273512E+03  0.7818608E-02  0.1231440E+00
          4   -1    0    0  502    0  0.00000000000E+00  0.00000000000E+00  0.15333987727E+02  0.15386490165E+02  0.12700000000E+01 0.  1.
         -4   -1    0    0    0  501 -0.00000000000E+00 -0.00000000000E+00 -0.38961922385E+03  0.38962129369E+03  0.12700000000E+01 0.  1.
         25    2    1    2    0    0 -0.21516377987E+02 -0.11160969501E+02 -0.33959211856E+03  0.36268599079E+03  0.12502319450E+03 0.  0.
    9000005    1    3    3    0    0  0.21142281629E+02 -0.42062222824E+02 -0.27653983950E+03  0.28052006968E+03  0.10000000000E+01 0.  0.
    9000005    1    3    3    0    0 -0.42658659616E+02  0.30901253323E+02 -0.63052279061E+02  0.82165921111E+02  0.10000000000E+01 0.  0.
         21    1    1    2  502  501  0.21516377987E+02  0.11160969501E+02 -0.34693117566E+02  0.42321793067E+02  0.00000000000E+00 0.  1.
<mgrwt>
<rscale>  1 0.12735117E+03</rscale>
<asrwt>0</asrwt>
<pdfrwt beam="1">  1        4 0.23632732E-02 0.12735117E+03</pdfrwt>
<pdfrwt beam="2">  1       -4 0.59945609E-01 0.12735117E+03</pdfrwt>
<totfact> 0.33692959E+03</totfact>
</mgrwt>
</event>
<event>
 6    4  0.5642870E-004  0.1319454E+03  0.7818608E-02  0.1224597E+00
         -4   -1    0    0    0  501 -0.00000000000E+00  0.00000000000E+00  0.82718383000E+01  0.83687638789E+01  0.12700000000E+01 0.  1.
          4   -1    0    0  502    0  0.00000000000E+00 -0.00000000000E+00 -0.91897608681E+03  0.91897696436E+03  0.12700000000E+01 0.  1.
         25    2    1    2    0    0  0.17146404176E+02  0.38636025622E+02 -0.65289036440E+03  0.66608964603E+03  0.12499138759E+03 0.  0.
    9000005    1    3    3    0    0 -0.47166318437E+02  0.24027670182E+02 -0.15375014011E+03  0.16261025833E+03  0.10000000000E+01 0.  0.
    9000005    1    3    3    0    0  0.64312722613E+02  0.14608355440E+02 -0.49914022429E+03  0.50347938771E+03  0.10000000000E+01 0.  0.
         21    1    1    2  502  501 -0.17146404176E+02 -0.38636025622E+02 -0.25781388410E+03  0.26125608220E+03  0.00000000000E+00 0.  1.
<mgrwt>
<rscale>  1 0.13194540E+03</rscale>
<asrwt>0</asrwt>
<pdfrwt beam="2">  1        4 0.14138838E+00 0.13194540E+03</pdfrwt>
<pdfrwt beam="1">  1       -4 0.12801146E-02 0.13194540E+03</pdfrwt>
<totfact> 0.12296038E+03</totfact>
</mgrwt>
</event>
<event>
 6    4  0.5642870E-004  0.1314881E+03  0.7818608E-02  0.1225264E+00
         -4   -1    0    0    0  501 -0.00000000000E+00  0.00000000000E+00  0.25946940469E+03  0.25947251274E+03  0.12700000000E+01 0.  1.
          4   -1    0    0  502    0  0.00000000000E+00 -0.00000000000E+00 -0.35870194857E+02  0.35892670270E+02  0.12700000000E+01 0.  1.
         25    2    1    2    0    0 -0.18649190081E+02 -0.36330720656E+02  0.21738453482E+03  0.25405736608E+03  0.12498558208E+03 0.  0.
    9000005    1    3    3    0    0  0.20372947787E+02 -0.46319051767E+02  0.23091375010E+02  0.55630236005E+02  0.10000000000E+01 0.  0.
    9000005    1    3    3    0    0 -0.39022137868E+02  0.99883311108E+01  0.19429315981E+03  0.19842713008E+03  0.10000000000E+01 0.  0.
         21    1    1    2  502  501  0.18649190081E+02  0.36330720656E+02  0.62146750119E+01  0.41307816930E+02  0.00000000000E+00 0. -1.
<mgrwt>
<rscale>  1 0.13148806E+03</rscale>
<asrwt>0</asrwt>
<pdfrwt beam="2">  1        4 0.55204593E-02 0.13148806E+03</pdfrwt>
<pdfrwt beam="1">  1       -4 0.39920339E-01 0.13148806E+03</pdfrwt>
<totfact> 0.20275950E+03</totfact>
</mgrwt>
</event>
<event>
 6    4  0.5642870E-004  0.1270549E+03  0.7818608E-02  0.1231892E+00
          4   -1    0    0  502    0  0.00000000000E+00  0.00000000000E+00  0.20395666441E+02  0.20435168450E+02  0.12700000000E+01 0.  1.
         -4   -1    0    0    0  501 -0.00000000000E+00 -0.00000000000E+00 -0.57497777089E+03  0.57497917346E+03  0.12700000000E+01 0.  1.
         25    2    1    2    0    0 -0.22668777536E+02 -0.20358667673E+01 -0.55810384632E+03  0.57238347362E+03  0.12499967747E+03 0.  0.
    9000005    1    3    3    0    0  0.28015810363E+02  0.36597330084E+02 -0.10310383316E+03  0.11294091647E+03  0.10000000000E+01 0.  0.
    9000005    1    3    3    0    0 -0.50684587900E+02 -0.38633196851E+02 -0.45500001316E+03  0.45944255715E+03  0.10000000000E+01 0.  0.
         21    1    1    2  502  501  0.22668777536E+02  0.20358667673E+01  0.35217418731E+01  0.23030868293E+02  0.00000000000E+00 0.  1.
<mgrwt>
<rscale>  1 0.12705486E+03</rscale>
<asrwt>0</asrwt>
<pdfrwt beam="1">  1        4 0.31409418E-02 0.12705486E+03</pdfrwt>
<pdfrwt beam="2">  1       -4 0.88461253E-01 0.12705486E+03</pdfrwt>
<totfact> 0.92894969E+02</totfact>
</mgrwt>
</event>
<event>
 6    4  0.5642870E-004  0.1276083E+03  0.7818608E-02  0.1231048E+00
         -4   -1    0    0    0  501 -0.00000000000E+00  0.00000000000E+00  0.53479210769E+02  0.53494288335E+02  0.12700000000E+01 0.  1.
          4   -1    0    0  502    0  0.00000000000E+00 -0.00000000000E+00 -0.16586653026E+03  0.16587139223E+03  0.12700000000E+01 0.  1.
         25    2    1    2    0    0  0.15517827614E+02  0.20439902960E+02 -0.27304461847E+02  0.13049675871E+03  0.12500111116E+03 0.  0.
    9000005    1    3    3    0    0 -0.70793415623E+01  0.34554284555E+02  0.42813609817E+02  0.55480815095E+02  0.10000000000E+01 0.  0.
    9000005    1    3    3    0    0  0.22597169177E+02 -0.14114381595E+02 -0.70118071664E+02  0.75015943616E+02  0.10000000000E+01 0.  0.
         21    1    1    2  502  501 -0.15517827614E+02 -0.20439902960E+02 -0.85082857644E+02  0.88868921855E+02  0.00000000000E+00 0.  1.
<mgrwt>
<rscale>  1 0.12760827E+03</rscale>
<asrwt>0</asrwt>
<pdfrwt beam="2">  1        4 0.25519461E-01 0.12760827E+03</pdfrwt>
<pdfrwt beam="1">  1       -4 0.82291048E-02 0.12760827E+03</pdfrwt>
<totfact> 0.24570535E+03</totfact>
</mgrwt>
</event>
<event>
 6    4  0.5642870E-004  0.1268385E+03  0.7818608E-02  0.1232224E+00
          4   -1    0    0  502    0  0.00000000000E+00  0.00000000000E+00  0.21283225897E+03  0.21283604807E+03  0.12700000000E+01 0.  1.
         -4   -1    0    0    0  501 -0.00000000000E+00 -0.00000000000E+00 -0.27562483860E+02  0.27591727321E+02  0.12700000000E+01 0.  1.
         25    2    1    2    0    0 -0.21450653809E+02  0.54860416384E+00  0.13231180400E+03  0.18328778748E+03  0.12501027175E+03 0.  0.
    9000005    1    3    3    0    0  0.46456733614E+02  0.24222739763E+01  0.17173235015E+02  0.49598543428E+02  0.10000000000E+01 0.  0.
    9000005    1    3    3    0    0 -0.67907387423E+02 -0.18736698125E+01  0.11513856899E+03  0.13368924405E+03  0.10000000000E+01 0.  0.
         21    1    1    2  502  501  0.21450653809E+02 -0.54860416384E+00  0.52957971104E+02  0.57139987914E+02  0.00000000000E+00 0.  1.
<mgrwt>
<rscale>  1 0.12683848E+03</rscale>
<asrwt>0</asrwt>
<pdfrwt beam="1">  1        4 0.32745965E-01 0.12683848E+03</pdfrwt>
<pdfrwt beam="2">  1       -4 0.42429231E-02 0.12683848E+03</pdfrwt>
<totfact> 0.44992541E+03</totfact>
</mgrwt>
</event>
<event>
 6    4  0.5642870E-004  0.1298998E+03  0.7818608E-02  0.1227604E+00
          4   -1    0    0  502    0  0.00000000000E+00  0.00000000000E+00  0.48491844816E+02  0.48508472596E+02  0.12700000000E+01 0.  1.
         -4   -1    0    0    0  501 -0.00000000000E+00 -0.00000000000E+00 -0.16688116712E+03  0.16688599953E+03  0.12700000000E+01 0.  1.
         25    2    1    2    0    0 -0.60232706554E+01 -0.34827541481E+02 -0.12402903221E+03  0.17960280043E+03  0.12499891062E+03 0.  0.
    9000005    1    3    3    0    0  0.33105010674E+02  0.28240037894E+02 -0.85572895783E+02  0.96006051709E+02  0.10000000000E+01 0.  0.
    9000005    1    3    3    0    0 -0.39128281330E+02 -0.63067579375E+02 -0.38456136425E+02  0.83596748721E+02  0.10000000000E+01 0.  0.
         21    1    1    2  502  501  0.60232706554E+01  0.34827541481E+02  0.56397099047E+01  0.35791671696E+02  0.00000000000E+00 0.  1.
<mgrwt>
<rscale>  1 0.12989983E+03</rscale>
<asrwt>0</asrwt>
<pdfrwt beam="1">  1        4 0.74619347E-02 0.12989983E+03</pdfrwt>
<pdfrwt beam="2">  1       -4 0.25675676E-01 0.12989983E+03</pdfrwt>
<totfact> 0.28680342E+03</totfact>
</mgrwt>
</event>
<event>
 6    4  0.5642870E-004  0.1294989E+03  0.7818608E-02  0.1228201E+00
         -4   -1    0    0    0  501 -0.00000000000E+00  0.00000000000E+00  0.11906021753E+03  0.11906699080E+03  0.12700000000E+01 0.  1.
          4   -1    0    0  502    0  0.00000000000E+00 -0.00000000000E+00 -0.56190735713E+02  0.56205085890E+02  0.12700000000E+01 0.  1.
         25    2    1    2    0    0 -0.68923448711E+01  0.33153833304E+02  0.53686422981E+02  0.14018632958E+03  0.12499317545E+03 0.  0.
    9000005    1    3    3    0    0 -0.21852658824E+02  0.34158486738E+02 -0.32948090135E+02  0.52258181727E+02  0.10000000000E+01 0.  0.
    9000005    1    3    3    0    0  0.14960313953E+02 -0.10046534341E+01  0.86634513116E+02  0.87928147853E+02  0.10000000000E+01 0.  0.
         21    1    1    2  502  501  0.68923448711E+01 -0.33153833304E+02  0.91830588340E+01  0.35085747108E+02  0.00000000000E+00 0. -1.
<mgrwt>
<rscale>  1 0.12949894E+03</rscale>
<asrwt>0</asrwt>
<pdfrwt beam="2">  1        4 0.86463535E-02 0.12949894E+03</pdfrwt>
<pdfrwt beam="1">  1       -4 0.18318581E-01 0.12949894E+03</pdfrwt>
<totfact> 0.41433556E+03</totfact>
</mgrwt>
</event>
<event>
 6    4  0.5642870E-004  0.1268171E+03  0.7818608E-02  0.1232256E+00
          4   -1    0    0  502    0  0.00000000000E+00  0.00000000000E+00  0.11152550977E+03  0.11153274062E+03  0.12700000000E+01 0. -1.
         -4   -1    0    0    0  501 -0.00000000000E+00 -0.00000000000E+00 -0.62887902090E+02  0.62900724394E+02  0.12700000000E+01 0. -1.
         25    2    1    2    0    0 -0.60131369902E+01 -0.20535106047E+02  0.62734220241E+01  0.12697219003E+03  0.12499893127E+03 0.  0.
    9000005    1    3    3    0    0 -0.50226132158E+02 -0.51996871975E+02  0.74709296634E+01  0.72685306883E+02  0.10000000000E+01 0.  0.
    9000005    1    3    3    0    0  0.44212995168E+02  0.31461765927E+02 -0.11975076393E+01  0.54286883144E+02  0.10000000000E+01 0.  0.
         21    1    1    2  502  501  0.60131369902E+01  0.20535106047E+02  0.42364185658E+02  0.47461274986E+02  0.00000000000E+00 0. -1.
<mgrwt>
<rscale>  1 0.12681712E+03</rscale>
<asrwt>0</asrwt>
<pdfrwt beam="1">  1        4 0.17159313E-01 0.12681712E+03</pdfrwt>
<pdfrwt beam="2">  1       -4 0.96766044E-02 0.12681712E+03</pdfrwt>
<totfact> 0.38348032E+03</totfact>
</mgrwt>
</event>
<event>
 6    4  0.5642870E-004  0.1315974E+03  0.7818608E-02  0.1225105E+00
          4   -1    0    0  502    0  0.00000000000E+00  0.00000000000E+00  0.92329302996E+01  0.93198659817E+01  0.12700000000E+01 0.  1.
         -4   -1    0    0    0  501 -0.00000000000E+00 -0.00000000000E+00 -0.85419788623E+03  0.85419883033E+03  0.12700000000E+01 0.  1.
         25    2    1    2    0    0 -0.21674974305E+01  0.41089108007E+02 -0.72077703847E+03  0.73269189598E+03  0.12499944963E+03 0.  0.
    9000005    1    3    3    0    0  0.24676834084E+02 -0.11852760195E+02 -0.35463588826E+02  0.44811830994E+02  0.10000000000E+01 0.  0.
    9000005    1    3    3    0    0 -0.26844331515E+02  0.52941868202E+02 -0.68531344964E+03  0.68788006498E+03  0.10000000000E+01 0.  0.
         21    1    1    2  502  501  0.21674974305E+01 -0.41089108007E+02 -0.12418791746E+03  0.13082680033E+03  0.00000000000E+00 0.  1.
<mgrwt>
<rscale>  1 0.13159740E+03</rscale>
<asrwt>0</asrwt>
<pdfrwt beam="1">  1        4 0.14272115E-02 0.13159740E+03</pdfrwt>
<pdfrwt beam="2">  1       -4 0.13142176E+00 0.13159740E+03</pdfrwt>
<totfact> 0.12485340E+03</totfact>
</mgrwt>
</event>
<event>
 6    4  0.5642870E-004  0.2191242E+03  0.7818608E-02  0.1134538E+00
         -4   -1    0    0    0  501 -0.00000000000E+00  0.00000000000E+00  0.11408808568E+04  0.11408815637E+04  0.12700000000E+01 0. -1.
          4   -1    0    0  502    0  0.00000000000E+00 -0.00000000000E+00 -0.42908973629E+02  0.42927763952E+02  0.12700000000E+01 0. -1.
         25    2    1    2    0    0  0.17084692104E+03 -0.56581368155E+02  0.33797255202E+03  0.40279133487E+03  0.12500116749E+03 0.  0.
    9000005    1    3    3    0    0  0.69959793265E+02  0.36645076550E+02  0.93748961843E+02  0.12258508129E+03  0.10000000000E+01 0.  0.
    9000005    1    3    3    0    0  0.10088712778E+03 -0.93226444705E+02  0.24422359018E+03  0.28020625358E+03  0.10000000000E+01 0.  0.
         21    1    1    2  502  501 -0.17084692104E+03  0.56581368155E+02  0.75999933118E+03  0.78101799278E+03  0.00000000000E+00 0. -1.
<mgrwt>
<rscale>  1 0.21912420E+03</rscale>
<asrwt>0</asrwt>
<pdfrwt beam="2">  1        4 0.66028805E-02 0.21912420E+03</pdfrwt>
<pdfrwt beam="1">  1       -4 0.17552163E+00 0.21912420E+03</pdfrwt>
<totfact> 0.57073349E+01</totfact>
</mgrwt>
</event>
<event>
 6    4  0.5642870E-004  0.1291444E+03  0.7818608E-02  0.1228731E+00
          4   -1    0    0  502    0  0.00000000000E+00  0.00000000000E+00  0.48989911873E+02  0.49006370661E+02  0.12700000000E+01 0. -1.
         -4   -1    0    0    0  501 -0.00000000000E+00 -0.00000000000E+00 -0.15743183481E+03  0.15743695726E+03  0.12700000000E+01 0. -1.
         25    2    1    2    0    0 -0.30287027961E+02 -0.11644755482E+02 -0.11547439782E+03  0.17324151930E+03  0.12500153225E+03 0.  0.
    9000005    1    3    3    0    0  0.10229598898E+02  0.17669377995E+02  0.20140363613E+02  0.28696443313E+02  0.10000000000E+01 0.  0.
    9000005    1    3    3    0    0 -0.40516626859E+02 -0.29314133477E+02 -0.13561476143E+03  0.14454507599E+03  0.10000000000E+01 0.  0.
         21    1    1    2  502  501  0.30287027961E+02  0.11644755482E+02  0.70324748806E+01  0.33201808624E+02  0.00000000000E+00 0. -1.
<mgrwt>
<rscale>  1 0.12914444E+03</rscale>
<asrwt>0</asrwt>
<pdfrwt beam="1">  1        4 0.75385697E-02 0.12914444E+03</pdfrwt>
<pdfrwt beam="2">  1       -4 0.24221942E-01 0.12914444E+03</pdfrwt>
<totfact> 0.31356982E+03</totfact>
</mgrwt>
</event>
<event>
 6    4  0.5642870E-004  0.1339527E+03  0.7818608E-02  0.1221706E+00
         -4   -1    0    0    0  501 -0.00000000000E+00  0.00000000000E+00  0.70823512385E+02  0.70834898225E+02  0.12700000000E+01 0. -1.
          4   -1    0    0  502    0  0.00000000000E+00 -0.00000000000E+00 -0.11813081106E+03  0.11813763762E+03  0.12700000000E+01 0. -1.
         25    2    1    2    0    0  0.12744564784E+02 -0.46379280307E+02 -0.26413895263E+02  0.13653213272E+03  0.12501946980E+03 0.  0.
    9000005    1    3    3    0    0  0.37262530527E+02 -0.25722065279E+02  0.41497964979E+02  0.61426394334E+02  0.10000000000E+01 0.  0.
    9000005    1    3    3    0    0 -0.24517965743E+02 -0.20657215028E+02 -0.67911860242E+02  0.75105738386E+02  0.10000000000E+01 0.  0.
         21    1    1    2  502  501 -0.12744564784E+02  0.46379280307E+02 -0.20893403410E+02  0.52440403120E+02  0.00000000000E+00 0. -1.
<mgrwt>
<rscale>  1 0.13395271E+03</rscale>
<asrwt>0</asrwt>
<pdfrwt beam="2">  1        4 0.18175372E-01 0.13395271E+03</pdfrwt>
<pdfrwt beam="1">  1       -4 0.10897326E-01 0.13395271E+03</pdfrwt>
<totfact> 0.28715630E+03</totfact>
</mgrwt>
</event>
<event>
 6    4  0.5642870E-004  0.1374809E+03  0.7818608E-02  0.1216759E+00
         -4   -1    0    0    0  501 -0.00000000000E+00  0.00000000000E+00  0.84975177703E+03  0.84975272607E+03  0.12700000000E+01 0. -1.
          4   -1    0    0  502    0  0.00000000000E+00 -0.00000000000E+00 -0.12532570961E+02  0.12596754935E+02  0.12700000000E+01 0. -1.
         25    2    1    2    0    0  0.43998227781E+02  0.36600692063E+02  0.43858496388E+03  0.45962784792E+03  0.12500213333E+03 0.  0.
    9000005    1    3    3    0    0  0.76208572867E+02  0.60540308687E+02  0.31167959791E+03  0.32652419100E+03  0.10000000000E+01 0.  0.
    9000005    1    3    3    0    0 -0.32210345085E+02 -0.23939616625E+02  0.12690536597E+03  0.13310365693E+03  0.10000000000E+01 0.  0.
         21    1    1    2  502  501 -0.43998227781E+02 -0.36600692063E+02  0.39863424219E+03  0.40272163309E+03  0.00000000000E+00 0. -1.
<mgrwt>
<rscale>  1 0.13748086E+03</rscale>
<asrwt>0</asrwt>
<pdfrwt beam="2">  1        4 0.19330984E-02 0.13748086E+03</pdfrwt>
<pdfrwt beam="1">  1       -4 0.13073603E+00 0.13748086E+03</pdfrwt>
<totfact> 0.80209291E+02</totfact>
</mgrwt>
</event>
<event>
 6    4  0.5642870E-004  0.1266629E+03  0.7818608E-02  0.1232493E+00
          4   -1    0    0  502    0  0.00000000000E+00  0.00000000000E+00  0.95124076008E+02  0.95132553505E+02  0.12700000000E+01 0. -1.
         -4   -1    0    0    0  501 -0.00000000000E+00 -0.00000000000E+00 -0.69004887662E+02  0.69016573526E+02  0.12700000000E+01 0. -1.
         25    2    1    2    0    0 -0.74572062818E+01 -0.19043528655E+02 -0.51706290764E+01  0.12676840227E+03  0.12500090600E+03 0.  0.
    9000005    1    3    3    0    0  0.77134262121E+01 -0.50871329098E+02  0.43001267966E+02  0.67063388781E+02  0.10000000000E+01 0.  0.
    9000005    1    3    3    0    0 -0.15170632494E+02  0.31827800442E+02 -0.48171897042E+02  0.59705013491E+02  0.10000000000E+01 0.  0.
         21    1    1    2  502  501  0.74572062818E+01  0.19043528655E+02  0.31289817423E+02  0.37380724759E+02  0.00000000000E+00 0. -1.
<mgrwt>
<rscale>  1 0.12666291E+03</rscale>
<asrwt>0</asrwt>
<pdfrwt beam="1">  1        4 0.14636024E-01 0.12666291E+03</pdfrwt>
<pdfrwt beam="2">  1       -4 0.10617688E-01 0.12666291E+03</pdfrwt>
<totfact> 0.43332004E+03</totfact>
</mgrwt>
</event>
<event>
 6    4  0.5642870E-004  0.1284391E+03  0.7818608E-02  0.1229790E+00
         -4   -1    0    0    0  501 -0.00000000000E+00  0.00000000000E+00  0.51559199601E+03  0.51559356013E+03  0.12700000000E+01 0.  1.
          4   -1    0    0  502    0  0.00000000000E+00 -0.00000000000E+00 -0.12982400430E+02  0.13044371235E+02  0.12700000000E+01 0.  1.
         25    2    1    2    0    0  0.81401051860E+01 -0.28399457136E+02  0.34176348120E+03  0.36510119852E+03  0.12499527032E+03 0.  0.
    9000005    1    3    3    0    0 -0.49011640796E+02  0.20576753240E+02  0.14221127608E+03  0.15182421003E+03  0.10000000000E+01 0.  0.
    9000005    1    3    3    0    0  0.57151745982E+02 -0.48976210376E+02  0.19955220512E+03  0.21327698849E+03  0.10000000000E+01 0.  0.
         21    1    1    2  502  501 -0.81401051860E+01  0.28399457136E+02  0.16084611438E+03  0.16353673284E+03  0.00000000000E+00 0.  1.
<mgrwt>
<rscale>  1 0.12843912E+03</rscale>
<asrwt>0</asrwt>
<pdfrwt beam="2">  1        4 0.20021798E-02 0.12843912E+03</pdfrwt>
<pdfrwt beam="1">  1       -4 0.79326729E-01 0.12843912E+03</pdfrwt>
<totfact> 0.23881487E+03</totfact>
</mgrwt>
</event>
<event>
 6    4  0.5642870E-004  0.1373153E+03  0.7818608E-02  0.1216988E+00
         -4   -1    0    0    0  501 -0.00000000000E+00  0.00000000000E+00  0.10719712092E+02  0.10794680511E+02  0.12700000000E+01 0. -1.
          4   -1    0    0  502    0  0.00000000000E+00 -0.00000000000E+00 -0.94421055349E+03  0.94421140759E+03  0.12700000000E+01 0. -1.
         25    2    1    2    0    0  0.43112627595E+02  0.37042863379E+02 -0.52856705152E+03  0.54611227793E+03  0.12499847906E+03 0.  0.
    9000005    1    3    3    0    0 -0.93262224117E+01 -0.35617186276E+02 -0.26904641016E+03  0.27155576444E+03  0.10000000000E+01 0.  0.
    9000005    1    3    3    0    0  0.52438850007E+02  0.72660049655E+02 -0.25952064136E+03  0.27455651349E+03  0.10000000000E+01 0.  0.
         21    1    1    2  502  501 -0.43112627595E+02 -0.37042863379E+02 -0.40492378988E+03  0.40889381017E+03  0.00000000000E+00 0. -1.
<mgrwt>
<rscale>  1 0.13731530E+03</rscale>
<asrwt>0</asrwt>
<pdfrwt beam="2">  1        4 0.14526893E+00 0.13731530E+03</pdfrwt>
<pdfrwt beam="1">  1       -4 0.16550197E-02 0.13731530E+03</pdfrwt>
<totfact> 0.78295546E+02</totfact>
</mgrwt>
</event>
<event>
 6    4  0.5642870E-004  0.1291601E+03  0.7818608E-02  0.1228707E+00
          4   -1    0    0  502    0  0.00000000000E+00  0.00000000000E+00  0.21299624683E+03  0.21300003301E+03  0.12700000000E+01 0.  1.
         -4   -1    0    0    0  501 -0.00000000000E+00 -0.00000000000E+00 -0.51035198970E+02  0.51050998364E+02  0.12700000000E+01 0.  1.
         25    2    1    2    0    0 -0.12510551607E+02 -0.29999256859E+02  0.36170715463E+02  0.13412922013E+03  0.12500343084E+03 0.  0.
    9000005    1    3    3    0    0 -0.50687192315E+02  0.25386201781E+02  0.35414531608E+02  0.66849381109E+02  0.10000000000E+01 0.  0.
    9000005    1    3    3    0    0  0.38176640708E+02 -0.55385458639E+02  0.75618385477E+00  0.67279839019E+02  0.10000000000E+01 0.  0.
         21    1    1    2  502  501  0.12510551607E+02  0.29999256859E+02  0.12579033239E+03  0.12992181124E+03  0.00000000000E+00 0.  1.
<mgrwt>
<rscale>  1 0.12916008E+03</rscale>
<asrwt>0</asrwt>
<pdfrwt beam="1">  1        4 0.32770159E-01 0.12916008E+03</pdfrwt>
<pdfrwt beam="2">  1       -4 0.78530759E-02 0.12916008E+03</pdfrwt>
<totfact> 0.16641956E+03</totfact>
</mgrwt>
</event>
<event>
 6    4  0.5642870E-004  0.1344029E+03  0.7818608E-02  0.1221065E+00
          4   -1    0    0  502    0  0.00000000000E+00  0.00000000000E+00  0.20069674317E+04  0.20069678335E+04  0.12700000000E+01 0. -1.
         -4   -1    0    0    0  501 -0.00000000000E+00 -0.00000000000E+00 -0.17543095034E+02  0.17589004615E+02  0.12700000000E+01 0. -1.
         25    2    1    2    0    0  0.26574159070E+02  0.41627403897E+02  0.24508769461E+03  0.27952120885E+03  0.12500040584E+03 0.  0.
    9000005    1    3    3    0    0  0.51824825193E+01 -0.86027691412E+01  0.21859710254E+03  0.21882997738E+03  0.10000000000E+01 0.  0.
    9000005    1    3    3    0    0  0.21391676550E+02  0.50230173038E+02  0.26490592078E+02  0.60691231473E+02  0.10000000000E+01 0.  0.
         21    1    1    2  502  501 -0.26574159070E+02 -0.41627403897E+02  0.17443366420E+04  0.17450356293E+04  0.00000000000E+00 0. -1.
<mgrwt>
<rscale>  1 0.13440286E+03</rscale>
<asrwt>0</asrwt>
<pdfrwt beam="1">  1        4 0.30876776E+00 0.13440286E+03</pdfrwt>
<pdfrwt beam="2">  1       -4 0.27025003E-02 0.13440286E+03</pdfrwt>
<totfact> 0.36053519E+01</totfact>
</mgrwt>
</event>
<event>
 6    4  0.5642870E-004  0.1311369E+03  0.7818608E-02  0.1225779E+00
          4   -1    0    0  502    0  0.00000000000E+00  0.00000000000E+00  0.37046841210E+03  0.37047058893E+03  0.12700000000E+01 0. -1.
         -4   -1    0    0    0  501 -0.00000000000E+00 -0.00000000000E+00 -0.26115609958E+02  0.26146471721E+02  0.12700000000E+01 0. -1.
         25    2    1    2    0    0 -0.22830486933E+02 -0.32418782085E+02  0.15441874419E+03  0.20258831295E+03  0.12499866968E+03 0.  0.
    9000005    1    3    3    0    0 -0.38204803920E+02 -0.75907616173E+02  0.98673201261E+02  0.13022662509E+03  0.10000000000E+01 0.  0.
    9000005    1    3    3    0    0  0.15374316986E+02  0.43488834088E+02  0.55745542925E+02  0.72361687855E+02  0.10000000000E+01 0.  0.
         21    1    1    2  502  501  0.22830486933E+02  0.32418782085E+02  0.18993405796E+03  0.19402874771E+03  0.00000000000E+00 0. -1.
<mgrwt>
<rscale>  1 0.13113686E+03</rscale>
<asrwt>0</asrwt>
<pdfrwt beam="1">  1        4 0.56997685E-01 0.13113686E+03</pdfrwt>
<pdfrwt beam="2">  1       -4 0.40203274E-02 0.13113686E+03</pdfrwt>
<totfact> 0.16392394E+03</totfact>
</mgrwt>
</event>
<event>
 6    4  0.5642870E-004  0.1322256E+03  0.7818608E-02  0.1224190E+00
          4   -1    0    0  502    0  0.00000000000E+00  0.00000000000E+00  0.39119556542E+03  0.39119762692E+03  0.12700000000E+01 0.  1.
         -4   -1    0    0    0  501 -0.00000000000E+00 -0.00000000000E+00 -0.24700618396E+02  0.24733245827E+02  0.12700000000E+01 0.  1.
         25    2    1    2    0    0 -0.56023417285E+01  0.42730547783E+02  0.17327386093E+03  0.21796200130E+03  0.12500526863E+03 0.  0.
    9000005    1    3    3    0    0 -0.21362000996E+02  0.83324817372E+02  0.13443742214E+03  0.15960507745E+03  0.10000000000E+01 0.  0.
    9000005    1    3    3    0    0  0.15759659267E+02 -0.40594269588E+02  0.38836438784E+02  0.58356923848E+02  0.10000000000E+01 0.  0.
         21    1    1    2  502  501  0.56023417285E+01 -0.42730547783E+02  0.19322108610E+03  0.19796887144E+03  0.00000000000E+00 0.  1.
<mgrwt>
<rscale>  1 0.13222558E+03</rscale>
<asrwt>0</asrwt>
<pdfrwt beam="1">  1        4 0.60186597E-01 0.13222558E+03</pdfrwt>
<pdfrwt beam="2">  1       -4 0.38027638E-02 0.13222558E+03</pdfrwt>
<totfact> 0.16008541E+03</totfact>
</mgrwt>
</event>
<event>
 6    4  0.5642870E-004  0.1407022E+03  0.7818608E-02  0.1212387E+00
          4   -1    0    0  502    0  0.00000000000E+00  0.00000000000E+00  0.96449108201E+03  0.96449191815E+03  0.12700000000E+01 0.  1.
         -4   -1    0    0    0  501 -0.00000000000E+00 -0.00000000000E+00 -0.11018968766E+02  0.11091914743E+02  0.12700000000E+01 0.  1.
         25    2    1    2    0    0 -0.36904939478E+02  0.53007469352E+02  0.70096776867E+03  0.71494958650E+03  0.12500132862E+03 0.  0.
    9000005    1    3    3    0    0  0.20188987860E+02  0.66355093266E+02  0.22683090705E+03  0.23720002957E+03  0.10000000000E+01 0.  0.
    9000005    1    3    3    0    0 -0.57093927338E+02 -0.13347623914E+02  0.47413686162E+03  0.47774955693E+03  0.10000000000E+01 0.  0.
         21    1    1    2  502  501  0.36904939478E+02 -0.53007469352E+02  0.25250434458E+03  0.26063424640E+03  0.00000000000E+00 0.  1.
<mgrwt>
<rscale>  1 0.14070216E+03</rscale>
<asrwt>0</asrwt>
<pdfrwt beam="1">  1        4 0.14838896E+00 0.14070216E+03</pdfrwt>
<pdfrwt beam="2">  1       -4 0.17009010E-02 0.14070216E+03</pdfrwt>
<totfact> 0.71481457E+02</totfact>
</mgrwt>
</event>
<event>
 6    4  0.5642870E-004  0.1284487E+03  0.7818608E-02  0.1229776E+00
         -4   -1    0    0    0  501 -0.00000000000E+00  0.00000000000E+00  0.85642964890E+02  0.85652380791E+02  0.12700000000E+01 0.  1.
          4   -1    0    0  502    0  0.00000000000E+00 -0.00000000000E+00 -0.88480180628E+02  0.88489294629E+02  0.12700000000E+01 0.  1.
         25    2    1    2    0    0  0.27949389958E+02  0.96919991519E+01  0.27940532743E+02  0.13145241391E+03  0.12499584196E+03 0.  0.
    9000005    1    3    3    0    0  0.26668645266E+02  0.24450776794E+02 -0.44582394761E+02  0.57425143001E+02  0.10000000000E+01 0.  0.
    9000005    1    3    3    0    0  0.12807446928E+01 -0.14758777642E+02  0.72522927504E+02  0.74027270909E+02  0.10000000000E+01 0.  0.
         21    1    1    2  502  501 -0.27949389958E+02 -0.96919991519E+01 -0.30777748482E+02  0.42689261509E+02  0.00000000000E+00 0. -1.
<mgrwt>
<rscale>  1 0.12844868E+03</rscale>
<asrwt>0</asrwt>
<pdfrwt beam="2">  1        4 0.13613761E-01 0.12844868E+03</pdfrwt>
<pdfrwt beam="1">  1       -4 0.13177266E-01 0.12844868E+03</pdfrwt>
<totfact> 0.34102581E+03</totfact>
</mgrwt>
</event>
<event>
 6    4  0.5642870E-004  0.1345568E+03  0.7818608E-02  0.1220847E+00
          4   -1    0    0  502    0  0.00000000000E+00  0.00000000000E+00  0.22603058760E+03  0.22603415546E+03  0.12700000000E+01 0. -1.
         -4   -1    0    0    0  501 -0.00000000000E+00 -0.00000000000E+00 -0.51317269870E+02  0.51332982447E+02  0.12700000000E+01 0. -1.
         25    2    1    2    0    0 -0.45633858069E+02  0.19964477591E+02  0.50816600139E+02  0.14383277529E+03  0.12499804410E+03 0.  0.
    9000005    1    3    3    0    0 -0.17559425542E+02  0.55652623613E+02 -0.18266207707E+02  0.61157193235E+02  0.10000000000E+01 0.  0.
    9000005    1    3    3    0    0 -0.28074432527E+02 -0.35688146022E+02  0.69082807846E+02  0.82675582055E+02  0.10000000000E+01 0.  0.
         21    1    1    2  502  501  0.45633858069E+02 -0.19964477591E+02  0.12389671759E+03  0.13353436261E+03  0.00000000000E+00 0. -1.
<mgrwt>
<rscale>  1 0.13455683E+03</rscale>
<asrwt>0</asrwt>
<pdfrwt beam="1">  1        4 0.34775419E-01 0.13455683E+03</pdfrwt>
<pdfrwt beam="2">  1       -4 0.78964478E-02 0.13455683E+03</pdfrwt>
<totfact> 0.14849285E+03</totfact>
</mgrwt>
</event>
<event>
 6    4  0.5642870E-004  0.1274111E+03  0.7818608E-02  0.1231349E+00
         -4   -1    0    0    0  501 -0.00000000000E+00  0.00000000000E+00  0.26211525977E+02  0.26242274940E+02  0.12700000000E+01 0. -1.
          4   -1    0    0  502    0  0.00000000000E+00 -0.00000000000E+00 -0.23117268232E+03  0.23117617081E+03  0.12700000000E+01 0. -1.
         25    2    1    2    0    0 -0.13883315145E+02  0.20240285772E+02 -0.14734662766E+03  0.19479377392E+03  0.12502467782E+03 0.  0.
    9000005    1    3    3    0    0 -0.67207955589E+02 -0.47259731588E+01 -0.65561162926E+02  0.94013351185E+02  0.10000000000E+01 0.  0.
    9000005    1    3    3    0    0  0.53324640444E+02  0.24966258931E+02 -0.81785464737E+02  0.10078042273E+03  0.10000000000E+01 0.  0.
         21    1    1    2  502  501  0.13883315145E+02 -0.20240285772E+02 -0.57614528680E+02  0.62624671836E+02  0.00000000000E+00 0. -1.
<mgrwt>
<rscale>  1 0.12741109E+03</rscale>
<asrwt>0</asrwt>
<pdfrwt beam="2">  1        4 0.35567660E-01 0.12741109E+03</pdfrwt>
<pdfrwt beam="1">  1       -4 0.40351763E-02 0.12741109E+03</pdfrwt>
<totfact> 0.41622061E+03</totfact>
</mgrwt>
</event>
<event>
 6    4  0.5642870E-004  0.1301427E+03  0.7818608E-02  0.1227244E+00
          4   -1    0    0  502    0  0.00000000000E+00  0.00000000000E+00  0.61213016220E+01  0.62516584637E+01  0.12700000000E+01 0.  1.
         -4   -1    0    0    0  501 -0.00000000000E+00 -0.00000000000E+00 -0.11858972036E+04  0.11858978836E+04  0.12700000000E+01 0.  1.
         25    2    1    2    0    0  0.35013881399E+02  0.93104547770E+01 -0.10228155059E+04  0.10310619188E+04  0.12499785888E+03 0.  0.
    9000005    1    3    3    0    0  0.14656708997E+02 -0.57914020147E+02 -0.49471197216E+03  0.49830692173E+03  0.10000000000E+01 0.  0.
    9000005    1    3    3    0    0  0.20357172402E+02  0.67224474924E+02 -0.52810353378E+03  0.53275499706E+03  0.10000000000E+01 0.  0.
         21    1    1    2  502  501 -0.35013881399E+02 -0.93104547770E+01 -0.15696039602E+03  0.16108762329E+03  0.00000000000E+00 0.  1.
<mgrwt>
<rscale>  1 0.13014270E+03</rscale>
<asrwt>0</asrwt>
<pdfrwt beam="1">  1        4 0.95181941E-03 0.13014270E+03</pdfrwt>
<pdfrwt beam="2">  1       -4 0.18245562E+00 0.13014270E+03</pdfrwt>
<totfact> 0.98596770E+02</totfact>
</mgrwt>
</event>
<event>
 6    4  0.5642870E-004  0.1394826E+03  0.7818608E-02  0.1214027E+00
          4   -1    0    0  502    0  0.00000000000E+00  0.00000000000E+00  0.45359969197E+03  0.45360146985E+03  0.12700000000E+01 0.  1.
         -4   -1    0    0    0  501 -0.00000000000E+00 -0.00000000000E+00 -0.68463003466E+02  0.68474781808E+02  0.12700000000E+01 0.  1.
         25    2    1    2    0    0  0.58322269388E+02 -0.20683772874E+02  0.78015074004E+01  0.13970059283E+03  0.12500434614E+03 0.  0.
    9000005    1    3    3    0    0  0.11386146875E+02 -0.44253783769E+02 -0.45761264057E+02  0.64677159853E+02  0.10000000000E+01 0.  0.
    9000005    1    3    3    0    0  0.46936122513E+02  0.23570010894E+02  0.53562771458E+02  0.75023432982E+02  0.10000000000E+01 0.  0.
         21    1    1    2  502  501 -0.58322269388E+02  0.20683772874E+02  0.37733518110E+03  0.38237565883E+03  0.00000000000E+00 0.  1.
<mgrwt>
<rscale>  1 0.13948259E+03</rscale>
<asrwt>0</asrwt>
<pdfrwt beam="1">  1        4 0.69785611E-01 0.13948259E+03</pdfrwt>
<pdfrwt beam="2">  1       -4 0.10533812E-01 0.13948259E+03</pdfrwt>
<totfact> 0.22357896E+02</totfact>
</mgrwt>
</event>
<event>
 6    4  0.5642870E-004  0.1467269E+03  0.7818608E-02  0.1204554E+00
          4   -1    0    0  502    0  0.00000000000E+00  0.00000000000E+00  0.43776040604E+02  0.43794458907E+02  0.12700000000E+01 0.  1.
         -4   -1    0    0    0  501 -0.00000000000E+00 -0.00000000000E+00 -0.47474185444E+03  0.47474355315E+03  0.12700000000E+01 0.  1.
         25    2    1    2    0    0 -0.45215843572E+02  0.62122531988E+02 -0.41484646415E+03  0.44002995563E+03  0.12500036616E+03 0.  0.
    9000005    1    3    3    0    0 -0.81994604732E+02  0.71448463845E+02 -0.30528826807E+03  0.32408320662E+03  0.10000000000E+01 0.  0.
    9000005    1    3    3    0    0  0.36778761160E+02 -0.93259318573E+01 -0.10955819608E+03  0.11594674900E+03  0.10000000000E+01 0.  0.
         21    1    1    2  502  501  0.45215843572E+02 -0.62122531988E+02 -0.16119349690E+02  0.78508056434E+02  0.00000000000E+00 0.  1.
<mgrwt>
<rscale>  1 0.14672687E+03</rscale>
<asrwt>0</asrwt>
<pdfrwt beam="1">  1        4 0.67363233E-02 0.14672687E+03</pdfrwt>
<pdfrwt beam="2">  1       -4 0.73038752E-01 0.14672687E+03</pdfrwt>
<totfact> 0.43035816E+02</totfact>
</mgrwt>
</event>
<event>
 6    4  0.5642870E-004  0.1294623E+03  0.7818608E-02  0.1228256E+00
          4   -1    0    0  502    0  0.00000000000E+00  0.00000000000E+00  0.29423130028E+02  0.29450525983E+02  0.12700000000E+01 0. -1.
         -4   -1    0    0    0  501 -0.00000000000E+00 -0.00000000000E+00 -0.22875184093E+03  0.22875536634E+03  0.12700000000E+01 0. -1.
         25    2    1    2    0    0  0.32418921909E+02  0.92503412436E+01 -0.14617978139E+03  0.19526652452E+03  0.12499572713E+03 0.  0.
    9000005    1    3    3    0    0 -0.46746366231E+02 -0.68404854678E+01 -0.68279725336E+02  0.83036954961E+02  0.10000000000E+01 0.  0.
    9000005    1    3    3    0    0  0.79165288140E+02  0.16090826711E+02 -0.77900056054E+02  0.11222956956E+03  0.10000000000E+01 0.  0.
         21    1    1    2  502  501 -0.32418921909E+02 -0.92503412436E+01 -0.53148929515E+02  0.62939367804E+02  0.00000000000E+00 0. -1.
<mgrwt>
<rscale>  1 0.12946230E+03</rscale>
<asrwt>0</asrwt>
<pdfrwt beam="1">  1        4 0.45290141E-02 0.12946230E+03</pdfrwt>
<pdfrwt beam="2">  1       -4 0.35194968E-01 0.12946230E+03</pdfrwt>
<totfact> 0.35484300E+03</totfact>
</mgrwt>
</event>
<event>
 6    4  0.5642870E-004  0.1279831E+03  0.7818608E-02  0.1230480E+00
         -4   -1    0    0    0  501 -0.00000000000E+00  0.00000000000E+00  0.66966626834E+02  0.66978668317E+02  0.12700000000E+01 0. -1.
          4   -1    0    0  502    0  0.00000000000E+00 -0.00000000000E+00 -0.90185022171E+02  0.90193963900E+02  0.12700000000E+01 0. -1.
         25    2    1    2    0    0  0.12175551622E+02  0.24613114342E+02 -0.18627231201E+02  0.12933150718E+03  0.12500246219E+03 0.  0.
    9000005    1    3    3    0    0  0.52350458031E+02  0.54733827684E+01  0.32244348721E+02  0.61735130999E+02  0.10000000000E+01 0.  0.
    9000005    1    3    3    0    0 -0.40174906409E+02  0.19139731573E+02 -0.50871579922E+02  0.67596376186E+02  0.10000000000E+01 0.  0.
         21    1    1    2  502  501 -0.12175551622E+02 -0.24613114342E+02 -0.45911641361E+01  0.27841125032E+02  0.00000000000E+00 0. -1.
<mgrwt>
<rscale>  1 0.12798307E+03</rscale>
<asrwt>0</asrwt>
<pdfrwt beam="2">  1        4 0.13876233E-01 0.12798307E+03</pdfrwt>
<pdfrwt beam="1">  1       -4 0.10304172E-01 0.12798307E+03</pdfrwt>
<totfact> 0.50129498E+03</totfact>
</mgrwt>
</event>
<event>
 6    4  0.5642870E-004  0.1292366E+03  0.7818608E-02  0.1228593E+00
          4   -1    0    0  502    0  0.00000000000E+00  0.00000000000E+00  0.15510180022E+03  0.15510699962E+03  0.12700000000E+01 0. -1.
         -4   -1    0    0    0  501 -0.00000000000E+00 -0.00000000000E+00 -0.51202461082E+02  0.51218208880E+02  0.12700000000E+01 0. -1.
         25    2    1    2    0    0  0.32438142761E+02 -0.49829231616E+01  0.41352737937E+02  0.13569136427E+03  0.12500013910E+03 0.  0.
    9000005    1    3    3    0    0  0.52357208078E+02  0.38839662251E+01 -0.30411550452E+02  0.60681338418E+02  0.10000000000E+01 0.  0.
    9000005    1    3    3    0    0 -0.19919065317E+02 -0.88668893867E+01  0.71764288389E+02  0.75010025853E+02  0.10000000000E+01 0.  0.
         21    1    1    2  502  501 -0.32438142761E+02  0.49829231616E+01  0.62546601203E+02  0.70633844233E+02  0.00000000000E+00 0. -1.
<mgrwt>
<rscale>  1 0.12923659E+03</rscale>
<asrwt>0</asrwt>
<pdfrwt beam="1">  1        4 0.23863427E-01 0.12923659E+03</pdfrwt>
<pdfrwt beam="2">  1       -4 0.78789130E-02 0.12923659E+03</pdfrwt>
<totfact> 0.29966943E+03</totfact>
</mgrwt>
</event>
<event>
 6    4  0.5642870E-004  0.1313329E+03  0.7818608E-02  0.1225491E+00
         -4   -1    0    0    0  501 -0.00000000000E+00  0.00000000000E+00  0.93081348249E+02  0.93090011773E+02  0.12700000000E+01 0.  1.
          4   -1    0    0  502    0  0.00000000000E+00 -0.00000000000E+00 -0.79162595725E+02  0.79172782330E+02  0.12700000000E+01 0.  1.
         25    2    1    2    0    0 -0.40111122324E+02 -0.38154828065E+01  0.12798339102E+02  0.13195503592E+03  0.12499949591E+03 0.  0.
    9000005    1    3    3    0    0 -0.24861943015E+02 -0.22818982302E+02 -0.52406198283E+02  0.62339648557E+02  0.10000000000E+01 0.  0.
    9000005    1    3    3    0    0 -0.15249179309E+02  0.19003499495E+02  0.65204537385E+02  0.69615387367E+02  0.10000000000E+01 0.  0.
         21    1    1    2  502  501  0.40111122324E+02  0.38154828065E+01  0.11204134221E+01  0.40307758179E+02  0.00000000000E+00 0. -1.
<mgrwt>
<rscale>  1 0.13133291E+03</rscale>
<asrwt>0</asrwt>
<pdfrwt beam="2">  1        4 0.12180311E-01 0.13133291E+03</pdfrwt>
<pdfrwt beam="1">  1       -4 0.14321657E-01 0.13133291E+03</pdfrwt>
<totfact> 0.35946982E+03</totfact>
</mgrwt>
</event>
<event>
 6    4  0.5642870E-004  0.1355516E+03  0.7818608E-02  0.1219443E+00
          4   -1    0    0  502    0  0.00000000000E+00  0.00000000000E+00  0.29024786404E+03  0.29025064251E+03  0.12700000000E+01 0.  1.
         -4   -1    0    0    0  501 -0.00000000000E+00 -0.00000000000E+00 -0.34265848128E+02  0.34289375147E+02  0.12700000000E+01 0.  1.
         25    2    1    2    0    0 -0.48637142316E+02 -0.19578610071E+02  0.12884594663E+03  0.18701738789E+03  0.12500132730E+03 0.  0.
    9000005    1    3    3    0    0 -0.59405260278E+02  0.29000060874E+02  0.22904576563E+02  0.69968622303E+02  0.10000000000E+01 0.  0.
    9000005    1    3    3    0    0  0.10768117962E+02 -0.48578670945E+02  0.10594137006E+03  0.11704876559E+03  0.10000000000E+01 0.  0.
         21    1    1    2  502  501  0.48637142316E+02  0.19578610071E+02  0.12713606928E+03  0.13752262976E+03  0.00000000000E+00 0.  1.
<mgrwt>
<rscale>  1 0.13555156E+03</rscale>
<asrwt>0</asrwt>
<pdfrwt beam="1">  1        4 0.44655541E-01 0.13555156E+03</pdfrwt>
<pdfrwt beam="2">  1       -4 0.52736924E-02 0.13555156E+03</pdfrwt>
<totfact> 0.17596768E+03</totfact>
</mgrwt>
</event>
<event>
 6    4  0.5642870E-004  0.1350005E+03  0.7818608E-02  0.1220219E+00
         -4   -1    0    0    0  501 -0.00000000000E+00  0.00000000000E+00  0.23531627687E+02  0.23565873665E+02  0.12700000000E+01 0.  1.
          4   -1    0    0  502    0  0.00000000000E+00 -0.00000000000E+00 -0.39334660933E+03  0.39334865955E+03  0.12700000000E+01 0.  1.
         25    2    1    2    0    0 -0.50375010109E+02 -0.79022198153E+01 -0.21453528998E+03  0.25347687120E+03  0.12500018747E+03 0.  0.
    9000005    1    3    3    0    0 -0.24524963220E+02 -0.11712819301E+02  0.88238203814E+01  0.28592372463E+02  0.10000000000E+01 0.  0.
    9000005    1    3    3    0    0 -0.25850046889E+02  0.38105994862E+01 -0.22335911036E+03  0.22488449874E+03  0.10000000000E+01 0.  0.
         21    1    1    2  502  501  0.50375010109E+02  0.79022198153E+01 -0.15527969167E+03  0.16343766202E+03  0.00000000000E+00 0. -1.
<mgrwt>
<rscale>  1 0.13500049E+03</rscale>
<asrwt>0</asrwt>
<pdfrwt beam="2">  1        4 0.60517650E-01 0.13500049E+03</pdfrwt>
<pdfrwt beam="1">  1       -4 0.36230427E-02 0.13500049E+03</pdfrwt>
<totfact> 0.17162130E+03</totfact>
</mgrwt>
</event>
<event>
 6    4  0.5642870E-004  0.1561036E+03  0.7818608E-02  0.1193167E+00
          4   -1    0    0  502    0  0.00000000000E+00  0.00000000000E+00  0.98379195480E+02  0.98387392501E+02  0.12700000000E+01 0. -1.
         -4   -1    0    0    0  501 -0.00000000000E+00 -0.00000000000E+00 -0.16148289760E+03  0.16148789155E+03  0.12700000000E+01 0. -1.
         25    2    1    2    0    0  0.93202084526E+02  0.74703007367E+01 -0.21652955643E+02  0.15759821753E+03  0.12500365485E+03 0.  0.
    9000005    1    3    3    0    0  0.93009560852E+02  0.40733545789E+02  0.20804793922E+02  0.10365249448E+03  0.10000000000E+01 0.  0.
    9000005    1    3    3    0    0  0.19252367423E+00 -0.33263245052E+02 -0.42457749565E+02  0.53945723045E+02  0.10000000000E+01 0.  0.
         21    1    1    2  502  501 -0.93202084526E+02 -0.74703007367E+01 -0.41450746479E+02  0.10227706652E+03  0.00000000000E+00 0. -1.
<mgrwt>
<rscale>  1 0.15610364E+03</rscale>
<asrwt>0</asrwt>
<pdfrwt beam="1">  1        4 0.15136275E-01 0.15610364E+03</pdfrwt>
<pdfrwt beam="2">  1       -4 0.24844537E-01 0.15610364E+03</pdfrwt>
<totfact> 0.95534968E+02</totfact>
</mgrwt>
</event>
<event>
 6    4  0.5642870E-004  0.1279571E+03  0.7818608E-02  0.1230519E+00
          4   -1    0    0  502    0  0.00000000000E+00  0.00000000000E+00  0.93878283059E+02  0.93886873044E+02  0.12700000000E+01 0.  1.
         -4   -1    0    0    0  501 -0.00000000000E+00 -0.00000000000E+00 -0.68231715630E+02  0.68243533890E+02  0.12700000000E+01 0.  1.
         25    2    1    2    0    0  0.26410405961E+02 -0.71001724691E+01  0.35941007746E+02  0.13290888244E+03  0.12500037201E+03 0.  0.
    9000005    1    3    3    0    0  0.62317508619E+02 -0.48322251319E+01  0.62331304436E+02  0.88278048194E+02  0.10000000000E+01 0.  0.
    9000005    1    3    3    0    0 -0.35907102658E+02 -0.22679473372E+01 -0.26390296691E+02  0.44630834250E+02  0.10000000000E+01 0.  0.
         21    1    1    2  502  501 -0.26410405961E+02  0.71001724691E+01 -0.10294440317E+02  0.29221524490E+02  0.00000000000E+00 0.  1.
<mgrwt>
<rscale>  1 0.12795708E+03</rscale>
<asrwt>0</asrwt>
<pdfrwt beam="1">  1        4 0.14444383E-01 0.12795708E+03</pdfrwt>
<pdfrwt beam="2">  1       -4 0.10498757E-01 0.12795708E+03</pdfrwt>
<totfact> 0.45303346E+03</totfact>
</mgrwt>
</event>
<event>
 6    4  0.5642870E-004  0.1273121E+03  0.7818608E-02  0.1231500E+00
         -4   -1    0    0    0  501 -0.00000000000E+00  0.00000000000E+00  0.65457984542E+01  0.66678615315E+01  0.12700000000E+01 0.  1.
          4   -1    0    0  502    0  0.00000000000E+00 -0.00000000000E+00 -0.95114408063E+03  0.95114492850E+03  0.12700000000E+01 0.  1.
         25    2    1    2    0    0 -0.12499905143E+02  0.20689696143E+02 -0.65843001506E+03  0.67062541521E+03  0.12499620649E+03 0.  0.
    9000005    1    3    3    0    0 -0.64510341336E+02  0.23592543803E+02 -0.26494767784E+03  0.27370872156E+03  0.10000000000E+01 0.  0.
    9000005    1    3    3    0    0  0.52010436193E+02 -0.29028476604E+01 -0.39348233722E+03  0.39691669366E+03  0.10000000000E+01 0.  0.
         21    1    1    2  502  501  0.12499905143E+02 -0.20689696143E+02 -0.28616826711E+03  0.28718737482E+03  0.00000000000E+00 0.  1.
<mgrwt>
<rscale>  1 0.12731207E+03</rscale>
<asrwt>0</asrwt>
<pdfrwt beam="2">  1        4 0.14633921E+00 0.12731207E+03</pdfrwt>
<pdfrwt beam="1">  1       -4 0.10165014E-02 0.12731207E+03</pdfrwt>
<totfact> 0.15850918E+03</totfact>
</mgrwt>
</event>
<event>
 6    4  0.5642870E-004  0.1268551E+03  0.7818608E-02  0.1232198E+00
          4   -1    0    0  502    0  0.00000000000E+00  0.00000000000E+00  0.28787672429E+03  0.28787952565E+03  0.12700000000E+01 0. -1.
         -4   -1    0    0    0  501 -0.00000000000E+00 -0.00000000000E+00 -0.19592868780E+02  0.19633986020E+02  0.12700000000E+01 0. -1.
         25    2    1    2    0    0  0.18780657628E+02 -0.10561802474E+02  0.20959623735E+03  0.24499550389E+03  0.12501179720E+03 0.  0.
    9000005    1    3    3    0    0  0.34480601413E+02 -0.41108845253E+02  0.20304445296E+03  0.21001642534E+03  0.10000000000E+01 0.  0.
    9000005    1    3    3    0    0 -0.15699943785E+02  0.30547042780E+02  0.65517843905E+01  0.34979078549E+02  0.10000000000E+01 0.  0.
         21    1    1    2  502  501 -0.18780657628E+02  0.10561802474E+02  0.58687618159E+02  0.62518007786E+02  0.00000000000E+00 0. -1.
<mgrwt>
<rscale>  1 0.12685509E+03</rscale>
<asrwt>0</asrwt>
<pdfrwt beam="1">  1        4 0.44292105E-01 0.12685509E+03</pdfrwt>
<pdfrwt beam="2">  1       -4 0.30176658E-02 0.12685509E+03</pdfrwt>
<totfact> 0.42721782E+03</totfact>
</mgrwt>
</event>
<event>
 6    4  0.5642870E-004  0.1314788E+03  0.7818608E-02  0.1225278E+00
          4   -1    0    0  502    0  0.00000000000E+00  0.00000000000E+00  0.21754836206E+03  0.21755206902E+03  0.12700000000E+01 0. -1.
         -4   -1    0    0    0  501 -0.00000000000E+00 -0.00000000000E+00 -0.34088756851E+02  0.34112406008E+02  0.12700000000E+01 0. -1.
         25    2    1    2    0    0 -0.26119838962E+02  0.31274262956E+02  0.13755906743E+03  0.19028707789E+03  0.12500539776E+03 0.  0.
    9000005    1    3    3    0    0 -0.26748318507E+02  0.60919857353E+02  0.20649256529E+02  0.69671323786E+02  0.10000000000E+01 0.  0.
    9000005    1    3    3    0    0  0.62847954502E+00 -0.29645594397E+02  0.11690981090E+03  0.12061575411E+03  0.10000000000E+01 0.  0.
         21    1    1    2  502  501  0.26119838962E+02 -0.31274262956E+02  0.45900537780E+02  0.61377397137E+02  0.00000000000E+00 0. -1.
<mgrwt>
<rscale>  1 0.13147880E+03</rscale>
<asrwt>0</asrwt>
<pdfrwt beam="1">  1        4 0.33471083E-01 0.13147880E+03</pdfrwt>
<pdfrwt beam="2">  1       -4 0.52465285E-02 0.13147880E+03</pdfrwt>
<totfact> 0.30985407E+03</totfact>
</mgrwt>
</event>
<event>
 6    4  0.5642870E-004  0.1300190E+03  0.7818608E-02  0.1227428E+00
          4   -1    0    0  502    0  0.00000000000E+00  0.00000000000E+00  0.37142895322E+02  0.37164601073E+02  0.12700000000E+01 0. -1.
         -4   -1    0    0    0  501 -0.00000000000E+00 -0.00000000000E+00 -0.18587408336E+03  0.18587842200E+03  0.12700000000E+01 0. -1.
         25    2    1    2    0    0  0.27451372859E+02 -0.22891306634E+02 -0.10966157886E+03  0.17008998583E+03  0.12500940609E+03 0.  0.
    9000005    1    3    3    0    0  0.44937399519E+02  0.12505242501E+02  0.67687146467E+01  0.47144103168E+02  0.10000000000E+01 0.  0.
    9000005    1    3    3    0    0 -0.17486026661E+02 -0.35396549134E+02 -0.11643029350E+03  0.12294588267E+03  0.10000000000E+01 0.  0.
         21    1    1    2  502  501 -0.27451372859E+02  0.22891306634E+02 -0.39069609178E+02  0.52953037236E+02  0.00000000000E+00 0.  1.
<mgrwt>
<rscale>  1 0.13001900E+03</rscale>
<asrwt>0</asrwt>
<pdfrwt beam="1">  1        4 0.57162951E-02 0.13001900E+03</pdfrwt>
<pdfrwt beam="2">  1       -4 0.28598016E-01 0.13001900E+03</pdfrwt>
<totfact> 0.36259296E+03</totfact>
</mgrwt>
</event>
<event>
 6    4  0.5642870E-004  0.1274116E+03  0.7818608E-02  0.1231348E+00
         -4   -1    0    0    0  501 -0.00000000000E+00  0.00000000000E+00  0.13396389884E+03  0.13396991861E+03  0.12700000000E+01 0. -1.
          4   -1    0    0  502    0  0.00000000000E+00 -0.00000000000E+00 -0.51086870414E+02  0.51102653832E+02  0.12700000000E+01 0. -1.
         25    2    1    2    0    0  0.38200172280E+01  0.24385967876E+02  0.93664200070E+02  0.15813503296E+03  0.12499775324E+03 0.  0.
    9000005    1    3    3    0    0 -0.24963173366E+02  0.67290313004E+02  0.73303040245E+02  0.10259377154E+03  0.10000000000E+01 0.  0.
    9000005    1    3    3    0    0  0.28783190594E+02 -0.42904345128E+02  0.20361159825E+02  0.55541261429E+02  0.10000000000E+01 0.  0.
         21    1    1    2  502  501 -0.38200172280E+01 -0.24385967876E+02 -0.10787171647E+02  0.26937539475E+02  0.00000000000E+00 0.  1.
<mgrwt>
<rscale>  1 0.12741156E+03</rscale>
<asrwt>0</asrwt>
<pdfrwt beam="2">  1        4 0.78611956E-02 0.12741156E+03</pdfrwt>
<pdfrwt beam="1">  1       -4 0.20611508E-01 0.12741156E+03</pdfrwt>
<totfact> 0.39122167E+03</totfact>
</mgrwt>
</event>
<event>
 6    4  0.5642870E-004  0.1275501E+03  0.7818608E-02  0.1231137E+00
          4   -1    0    0  502    0  0.00000000000E+00  0.00000000000E+00  0.85542397778E+02  0.85551824748E+02  0.12700000000E+01 0. -1.
         -4   -1    0    0    0  501 -0.00000000000E+00 -0.00000000000E+00 -0.15351985942E+03  0.15352511239E+03  0.12700000000E+01 0. -1.
         25    2    1    2    0    0  0.25196569698E+02  0.30827186901E+01 -0.12380164925E+03  0.17775230749E+03  0.12499865672E+03 0.  0.
    9000005    1    3    3    0    0  0.46009297216E+02  0.54812646156E+02 -0.64483034945E+02  0.96334539002E+02  0.10000000000E+01 0.  0.
    9000005    1    3    3    0    0 -0.20812727518E+02 -0.51729927466E+02 -0.59318614309E+02  0.81417768490E+02  0.10000000000E+01 0.  0.
         21    1    1    2  502  501 -0.25196569698E+02 -0.30827186901E+01  0.55824187614E+02  0.61324629651E+02  0.00000000000E+00 0. -1.
<mgrwt>
<rscale>  1 0.12755013E+03</rscale>
<asrwt>0</asrwt>
<pdfrwt beam="1">  1        4 0.13161498E-01 0.12755013E+03</pdfrwt>
<pdfrwt beam="2">  1       -4 0.23619569E-01 0.12755013E+03</pdfrwt>
<totfact> 0.12816352E+03</totfact>
</mgrwt>
</event>
<event>
 6    4  0.5642870E-004  0.1295494E+03  0.7818608E-02  0.1228126E+00
          4   -1    0    0  502    0  0.00000000000E+00  0.00000000000E+00  0.56808485763E+02  0.56822679933E+02  0.12700000000E+01 0.  1.
         -4   -1    0    0    0  501 -0.00000000000E+00 -0.00000000000E+00 -0.40912310293E+03  0.40912507409E+03  0.12700000000E+01 0.  1.
         25    2    1    2    0    0 -0.18271611949E+02 -0.28706593439E+02 -0.39247862812E+03  0.41330681857E+03  0.12500052972E+03 0.  0.
    9000005    1    3    3    0    0  0.39632791140E+02  0.10107862821E+02 -0.54143568535E+02  0.67863488254E+02  0.10000000000E+01 0.  0.
    9000005    1    3    3    0    0 -0.57904403088E+02 -0.38814456260E+02 -0.33833505959E+03  0.34544333031E+03  0.10000000000E+01 0.  0.
         21    1    1    2  502  501  0.18271611949E+02  0.28706593439E+02  0.40164010954E+02  0.52640935459E+02  0.00000000000E+00 0.  1.
<mgrwt>
<rscale>  1 0.12954942E+03</rscale>
<asrwt>0</asrwt>
<pdfrwt beam="1">  1        4 0.87410108E-02 0.12954942E+03</pdfrwt>
<pdfrwt beam="2">  1       -4 0.62943257E-01 0.12954942E+03</pdfrwt>
<totfact> 0.37615426E+02</totfact>
</mgrwt>
</event>
<event>
 6    4  0.5642870E-004  0.1283285E+03  0.7818608E-02  0.1229957E+00
         -4   -1    0    0    0  501 -0.00000000000E+00  0.00000000000E+00  0.15789547567E+04  0.15789552675E+04  0.12700000000E+01 0. -1.
          4   -1    0    0  502    0  0.00000000000E+00 -0.00000000000E+00 -0.46374199786E+01  0.48081767915E+01  0.12700000000E+01 0. -1.
         25    2    1    2    0    0  0.17768489942E+02 -0.22968562187E+02  0.14664940114E+04  0.14720981248E+04  0.12499971788E+03 0.  0.
    9000005    1    3    3    0    0  0.53390296026E+02 -0.47182895280E+02  0.55068881107E+03  0.55528003382E+03  0.10000000000E+01 0.  0.
    9000005    1    3    3    0    0 -0.35621806085E+02  0.24214333093E+02  0.91580520031E+03  0.91681809096E+03  0.10000000000E+01 0.  0.
         21    1    1    2  502  501 -0.17768489942E+02  0.22968562187E+02  0.10782332536E+03  0.11166531948E+03  0.00000000000E+00 0. -1.
<mgrwt>
<rscale>  1 0.12832850E+03</rscale>
<asrwt>0</asrwt>
<pdfrwt beam="2">  1        4 0.72662378E-03 0.12832850E+03</pdfrwt>
<pdfrwt beam="1">  1       -4 0.24292925E+00 0.12832850E+03</pdfrwt>
<totfact> 0.63272780E+02</totfact>
</mgrwt>
</event>
<event>
 6    4  0.5642870E-004  0.1285672E+03  0.7818608E-02  0.1229597E+00
          4   -1    0    0  502    0  0.00000000000E+00  0.00000000000E+00  0.28378711123E+03  0.28378995296E+03  0.12700000000E+01 0.  1.
         -4   -1    0    0    0  501 -0.00000000000E+00 -0.00000000000E+00 -0.33236195104E+02  0.33260450463E+02  0.12700000000E+01 0.  1.
         25    2    1    2    0    0 -0.49455398301E+01  0.29657254677E+02  0.98250911800E+02  0.16181090318E+03  0.12500206237E+03 0.  0.
    9000005    1    3    3    0    0 -0.47767954282E+02  0.87869062625E+01  0.10304518229E+03  0.11392232780E+03  0.10000000000E+01 0.  0.
    9000005    1    3    3    0    0  0.42822414452E+02  0.20870348415E+02 -0.47942704857E+01  0.47888575380E+02  0.10000000000E+01 0.  0.
         21    1    1    2  502  501  0.49455398301E+01 -0.29657254677E+02  0.15230000433E+03  0.15523950025E+03  0.00000000000E+00 0.  1.
<mgrwt>
<rscale>  1 0.12856721E+03</rscale>
<asrwt>0</asrwt>
<pdfrwt beam="1">  1        4 0.43661640E-01 0.12856721E+03</pdfrwt>
<pdfrwt beam="2">  1       -4 0.51153452E-02 0.12856721E+03</pdfrwt>
<totfact> 0.19102496E+03</totfact>
</mgrwt>
</event>
<event>
 6    4  0.5642870E-004  0.1272862E+03  0.7818608E-02  0.1231539E+00
          4   -1    0    0  502    0  0.00000000000E+00  0.00000000000E+00  0.10593091245E+03  0.10593852515E+03  0.12700000000E+01 0. -1.
         -4   -1    0    0    0  501 -0.00000000000E+00 -0.00000000000E+00 -0.72592252701E+02  0.72603361163E+02  0.12700000000E+01 0. -1.
         25    2    1    2    0    0  0.21826892759E+02  0.10010324556E+02 -0.11369677409E+02  0.12779294291E+03  0.12500058740E+03 0.  0.
    9000005    1    3    3    0    0  0.66293335131E+02  0.34349511119E+02 -0.17580568467E+02  0.76712264890E+02  0.10000000000E+01 0.  0.
    9000005    1    3    3    0    0 -0.44466442372E+02 -0.24339186563E+02  0.62108910577E+01  0.51080678025E+02  0.10000000000E+01 0.  0.
         21    1    1    2  502  501 -0.21826892759E+02 -0.10010324556E+02  0.44708337154E+02  0.50748943401E+02  0.00000000000E+00 0. -1.
<mgrwt>
<rscale>  1 0.12728616E+03</rscale>
<asrwt>0</asrwt>
<pdfrwt beam="1">  1        4 0.16298503E-01 0.12728616E+03</pdfrwt>
<pdfrwt beam="2">  1       -4 0.11169479E-01 0.12728616E+03</pdfrwt>
<totfact> 0.32988162E+03</totfact>
</mgrwt>
</event>
<event>
 6    4  0.5642870E-004  0.1311130E+03  0.7818608E-02  0.1225813E+00
          4   -1    0    0  502    0  0.00000000000E+00  0.00000000000E+00  0.19942848151E+03  0.19943252528E+03  0.12700000000E+01 0. -1.
         -4   -1    0    0    0  501 -0.00000000000E+00 -0.00000000000E+00 -0.37260669964E+02  0.37282307147E+02  0.12700000000E+01 0. -1.
         25    2    1    2    0    0  0.39004597565E+02  0.69450081278E+01  0.10959149313E+03  0.17088276556E+03  0.12498412871E+03 0.  0.
    9000005    1    3    3    0    0  0.38207556172E+02 -0.71687992954E+01 -0.17756056361E+02  0.42749111915E+02  0.10000000000E+01 0.  0.
    9000005    1    3    3    0    0  0.79704139273E+00  0.14113807423E+02  0.12734754950E+03  0.12813365365E+03  0.10000000000E+01 0.  0.
         21    1    1    2  502  501 -0.39004597565E+02 -0.69450081278E+01  0.52576318415E+02  0.65832066861E+02  0.00000000000E+00 0. -1.
<mgrwt>
<rscale>  1 0.13111302E+03</rscale>
<asrwt>0</asrwt>
<pdfrwt beam="1">  1        4 0.30683280E-01 0.13111302E+03</pdfrwt>
<pdfrwt beam="2">  1       -4 0.57343863E-02 0.13111302E+03</pdfrwt>
<totfact> 0.31656135E+03</totfact>
</mgrwt>
</event>
<event>
 6    4  0.5642870E-004  0.1270515E+03  0.7818608E-02  0.1231898E+00
         -4   -1    0    0    0  501 -0.00000000000E+00  0.00000000000E+00  0.20924835546E+03  0.20925220945E+03  0.12700000000E+01 0. -1.
          4   -1    0    0  502    0  0.00000000000E+00 -0.00000000000E+00 -0.43295301809E+02  0.43313924537E+02  0.12700000000E+01 0. -1.
         25    2    1    2    0    0 -0.16063601716E+02  0.16079955824E+02  0.18395933204E+03  0.22356905930E+03  0.12500193660E+03 0.  0.
    9000005    1    3    3    0    0 -0.38220351874E+02  0.13306239282E+02  0.23088300379E+01  0.40548514120E+02  0.10000000000E+01 0.  0.
    9000005    1    3    3    0    0  0.22156750159E+02  0.27737165422E+01  0.18165050200E+03  0.18302054518E+03  0.10000000000E+01 0.  0.
         21    1    1    2  502  501  0.16063601716E+02 -0.16079955824E+02 -0.18006278388E+02  0.28997074693E+02  0.00000000000E+00 0. -1.
<mgrwt>
<rscale>  1 0.12705152E+03</rscale>
<asrwt>0</asrwt>
<pdfrwt beam="2">  1        4 0.66625446E-02 0.12705152E+03</pdfrwt>
<pdfrwt beam="1">  1       -4 0.32193784E-01 0.12705152E+03</pdfrwt>
<totfact> 0.22468571E+03</totfact>
</mgrwt>
</event>
<event>
 6    4  0.5642870E-004  0.1274429E+03  0.7818608E-02  0.1231300E+00
          4   -1    0    0  502    0  0.00000000000E+00  0.00000000000E+00  0.21932182156E+02  0.21968921551E+02  0.12700000000E+01 0.  1.
         -4   -1    0    0    0  501 -0.00000000000E+00 -0.00000000000E+00 -0.30530810999E+03  0.30531075141E+03  0.12700000000E+01 0.  1.
         25    2    1    2    0    0  0.20910800347E+02  0.13430635917E+02 -0.27109892873E+03  0.29956021663E+03  0.12499620265E+03 0.  0.
    9000005    1    3    3    0    0 -0.57102417110E+01 -0.41269962229E+02 -0.31183821540E+02  0.52050431012E+02  0.10000000000E+01 0.  0.
    9000005    1    3    3    0    0  0.26621042058E+02  0.54700598145E+02 -0.23991510719E+03  0.24750978562E+03  0.10000000000E+01 0.  0.
         21    1    1    2  502  501 -0.20910800347E+02 -0.13430635917E+02 -0.12276999104E+02  0.27719456332E+02  0.00000000000E+00 0.  1.
<mgrwt>
<rscale>  1 0.12744291E+03</rscale>
<asrwt>0</asrwt>
<pdfrwt beam="1">  1        4 0.33772114E-02 0.12744291E+03</pdfrwt>
<pdfrwt beam="2">  1       -4 0.46973505E-01 0.12744291E+03</pdfrwt>
<totfact> 0.31861622E+03</totfact>
</mgrwt>
</event>
<event>
 6    4  0.5642870E-004  0.1279119E+03  0.7818608E-02  0.1230587E+00
         -4   -1    0    0    0  501 -0.00000000000E+00  0.00000000000E+00  0.17645085339E+03  0.17645542373E+03  0.12700000000E+01 0. -1.
          4   -1    0    0  502    0  0.00000000000E+00 -0.00000000000E+00 -0.47213184801E+02  0.47230262746E+02  0.12700000000E+01 0. -1.
         25    2    1    2    0    0  0.88958715011E+01 -0.25584786262E+02  0.14418716568E+03  0.19274695216E+03  0.12501092353E+03 0.  0.
    9000005    1    3    3    0    0  0.60005166242E+02 -0.36758680758E+02  0.54901271410E+02  0.89257885866E+02  0.10000000000E+01 0.  0.
    9000005    1    3    3    0    0 -0.51109294741E+02  0.11173894496E+02  0.89285894269E+02  0.10348906629E+03  0.10000000000E+01 0.  0.
         21    1    1    2  502  501 -0.88958715011E+01  0.25584786262E+02 -0.14949497085E+02  0.30938734314E+02  0.00000000000E+00 0. -1.
<mgrwt>
<rscale>  1 0.12791188E+03</rscale>
<asrwt>0</asrwt>
<pdfrwt beam="2">  1        4 0.72652324E-02 0.12791188E+03</pdfrwt>
<pdfrwt beam="1">  1       -4 0.27147949E-01 0.12791188E+03</pdfrwt>
<totfact> 0.26922392E+03</totfact>
</mgrwt>
</event>
<event>
 6    4  0.5642870E-004  0.1267200E+03  0.7818608E-02  0.1232405E+00
          4   -1    0    0  502    0  0.00000000000E+00  0.00000000000E+00  0.29606713957E+02  0.29633940193E+02  0.12700000000E+01 0. -1.
         -4   -1    0    0    0  501 -0.00000000000E+00 -0.00000000000E+00 -0.25251382828E+03  0.25251702194E+03  0.12700000000E+01 0. -1.
         25    2    1    2    0    0  0.13249031454E+02 -0.16045733356E+02 -0.22789142281E+03  0.26075363229E+03  0.12499981507E+03 0.  0.
    9000005    1    3    3    0    0  0.60556600346E+01 -0.55496047733E+02 -0.20915685559E+03  0.21648111366E+03  0.10000000000E+01 0.  0.
    9000005    1    3    3    0    0  0.71933714191E+01  0.39450314377E+02 -0.18734567226E+02  0.44272518632E+02  0.10000000000E+01 0.  0.
         21    1    1    2  502  501 -0.13249031454E+02  0.16045733356E+02  0.49843084924E+01  0.21397329846E+02  0.00000000000E+00 0. -1.
<mgrwt>
<rscale>  1 0.12671999E+03</rscale>
<asrwt>0</asrwt>
<pdfrwt beam="1">  1        4 0.45572192E-02 0.12671999E+03</pdfrwt>
<pdfrwt beam="2">  1       -4 0.38850620E-01 0.12671999E+03</pdfrwt>
<totfact> 0.28846596E+03</totfact>
</mgrwt>
</event>
<event>
 6    4  0.5642870E-004  0.1273442E+03  0.7818608E-02  0.1231451E+00
         -4   -1    0    0    0  501 -0.00000000000E+00  0.00000000000E+00  0.98862773690E+02  0.98870930620E+02  0.12700000000E+01 0. -1.
          4   -1    0    0  502    0  0.00000000000E+00 -0.00000000000E+00 -0.58517707259E+02  0.58531486935E+02  0.12700000000E+01 0. -1.
         25    2    1    2    0    0  0.20782724958E+02 -0.12706778267E+02  0.29383123341E+02  0.13069009705E+03  0.12499259841E+03 0.  0.
    9000005    1    3    3    0    0  0.33211420840E+02  0.24197218884E+02  0.65657427809E+02  0.77462259859E+02  0.10000000000E+01 0.  0.
    9000005    1    3    3    0    0 -0.12428695882E+02 -0.36903997151E+02 -0.36274304468E+02  0.53227837188E+02  0.10000000000E+01 0.  0.
         21    1    1    2  502  501 -0.20782724958E+02  0.12706778267E+02  0.10961943090E+02  0.26712320508E+02  0.00000000000E+00 0. -1.
<mgrwt>
<rscale>  1 0.12734415E+03</rscale>
<asrwt>0</asrwt>
<pdfrwt beam="2">  1        4 0.90044116E-02 0.12734415E+03</pdfrwt>
<pdfrwt beam="1">  1       -4 0.15211345E-01 0.12734415E+03</pdfrwt>
<totfact> 0.53510311E+03</totfact>
</mgrwt>
</event>
<event>
 6    4  0.5642870E-004  0.1281432E+03  0.7818608E-02  0.1230237E+00
          4   -1    0    0  502    0  0.00000000000E+00  0.00000000000E+00  0.20950145778E+03  0.20950530712E+03  0.12700000000E+01 0.  1.
         -4   -1    0    0    0  501 -0.00000000000E+00 -0.00000000000E+00 -0.33667252458E+02  0.33691197487E+02  0.12700000000E+01 0.  1.
         25    2    1    2    0    0  0.29669170524E+01 -0.28070348169E+02  0.10082853128E+03  0.16305539043E+03  0.12499568227E+03 0.  0.
    9000005    1    3    3    0    0  0.41228596517E+02  0.87514675148E+01 -0.71131383180E+01  0.42754907217E+02  0.10000000000E+01 0.  0.
    9000005    1    3    3    0    0 -0.38261679465E+02 -0.36821815684E+02  0.10794166960E+03  0.12030048322E+03  0.10000000000E+01 0.  0.
         21    1    1    2  502  501 -0.29669170524E+01  0.28070348169E+02  0.75005674037E+02  0.80141114173E+02  0.00000000000E+00 0.  1.
<mgrwt>
<rscale>  1 0.12814315E+03</rscale>
<asrwt>0</asrwt>
<pdfrwt beam="1">  1        4 0.32233131E-01 0.12814315E+03</pdfrwt>
<pdfrwt beam="2">  1       -4 0.51817154E-02 0.12814315E+03</pdfrwt>
<totfact> 0.33761970E+03</totfact>
</mgrwt>
</event>
<event>
 6    4  0.5642870E-004  0.1368829E+03  0.7818608E-02  0.1217586E+00
          4   -1    0    0  502    0  0.00000000000E+00  0.00000000000E+00  0.92121167779E+02  0.92129921594E+02  0.12700000000E+01 0.  1.
         -4   -1    0    0    0  501 -0.00000000000E+00 -0.00000000000E+00 -0.10074321331E+03  0.10075121799E+03  0.12700000000E+01 0.  1.
         25    2    1    2    0    0  0.48228958968E+02 -0.28008574679E+02 -0.77547681305E+01  0.13710242583E+03  0.12500570387E+03 0.  0.
    9000005    1    3    3    0    0  0.50338791776E+02  0.40709528317E+02 -0.18894276631E+02  0.67448152997E+02  0.10000000000E+01 0.  0.
    9000005    1    3    3    0    0 -0.21098328081E+01 -0.68718102996E+02  0.11139508501E+02  0.69654272830E+02  0.10000000000E+01 0.  0.
         21    1    1    2  502  501 -0.48228958968E+02  0.28008574679E+02 -0.86727739704E+00  0.55778713761E+02  0.00000000000E+00 0.  1.
<mgrwt>
<rscale>  1 0.13688294E+03</rscale>
<asrwt>0</asrwt>
<pdfrwt beam="1">  1        4 0.14173777E-01 0.13688294E+03</pdfrwt>
<pdfrwt beam="2">  1       -4 0.15500245E-01 0.13688294E+03</pdfrwt>
<totfact> 0.24345027E+03</totfact>
</mgrwt>
</event>
<event>
 6    4  0.5642870E-004  0.1297815E+03  0.7818608E-02  0.1227780E+00
         -4   -1    0    0    0  501 -0.00000000000E+00  0.00000000000E+00  0.19177002639E+03  0.19177423164E+03  0.12700000000E+01 0.  1.
          4   -1    0    0  502    0  0.00000000000E+00 -0.00000000000E+00 -0.35513194051E+02  0.35535895257E+02  0.12700000000E+01 0.  1.
         25    2    1    2    0    0 -0.16930723973E+02 -0.30520546651E+02  0.12941916230E+03  0.18328270686E+03  0.12500031152E+03 0.  0.
    9000005    1    3    3    0    0 -0.58885146408E+02 -0.57297277910E+01  0.11977794223E+03  0.13359657815E+03  0.10000000000E+01 0.  0.
    9000005    1    3    3    0    0  0.41954422435E+02 -0.24790818860E+02  0.96412200661E+01  0.49686128708E+02  0.10000000000E+01 0.  0.
         21    1    1    2  502  501  0.16930723973E+02  0.30520546651E+02  0.26837670039E+02  0.44027420038E+02  0.00000000000E+00 0.  1.
<mgrwt>
<rscale>  1 0.12978147E+03</rscale>
<asrwt>0</asrwt>
<pdfrwt beam="2">  1        4 0.54656381E-02 0.12978147E+03</pdfrwt>
<pdfrwt beam="1">  1       -4 0.29505151E-01 0.12978147E+03</pdfrwt>
<totfact> 0.36745765E+03</totfact>
</mgrwt>
</event>
<event>
 6    4  0.5642870E-004  0.1283636E+03  0.7818608E-02  0.1229904E+00
         -4   -1    0    0    0  501 -0.00000000000E+00  0.00000000000E+00  0.17114284722E+02  0.17161341484E+02  0.12700000000E+01 0.  1.
          4   -1    0    0  502    0  0.00000000000E+00 -0.00000000000E+00 -0.39514238989E+03  0.39514443079E+03  0.12700000000E+01 0.  1.
         25    2    1    2    0    0  0.27967187722E+02 -0.83571319574E+01 -0.25042807717E+03  0.28140973571E+03  0.12500084910E+03 0.  0.
    9000005    1    3    3    0    0  0.33632853820E+02 -0.33862353895E+02 -0.25075816209E+03  0.25526159860E+03  0.10000000000E+01 0.  0.
    9000005    1    3    3    0    0 -0.56656660979E+01  0.25505221937E+02  0.33008491471E+00  0.26148137113E+02  0.10000000000E+01 0.  0.
         21    1    1    2  502  501 -0.27967187722E+02  0.83571319574E+01 -0.12760002799E+03  0.13089603656E+03  0.00000000000E+00 0.  1.
<mgrwt>
<rscale>  1 0.12836361E+03</rscale>
<asrwt>0</asrwt>
<pdfrwt beam="2">  1        4 0.60794907E-01 0.12836361E+03</pdfrwt>
<pdfrwt beam="1">  1       -4 0.26367439E-02 0.12836361E+03</pdfrwt>
<totfact> 0.27652403E+03</totfact>
</mgrwt>
</event>
<event>
 6    4  0.5642870E-004  0.1350300E+03  0.7818608E-02  0.1220177E+00
          4   -1    0    0  502    0  0.00000000000E+00  0.00000000000E+00  0.14166761900E+02  0.14223573487E+02  0.12700000000E+01 0. -1.
         -4   -1    0    0    0  501 -0.00000000000E+00 -0.00000000000E+00 -0.62524999564E+03  0.62525128544E+03  0.12700000000E+01 0. -1.
         25    2    1    2    0    0  0.51025162336E+02 -0.20862653922E+01 -0.48488758808E+03  0.50333794006E+03  0.12500075655E+03 0.  0.
    9000005    1    3    3    0    0 -0.83228912768E+01 -0.40644031684E+02 -0.33520227910E+03  0.33776141838E+03  0.10000000000E+01 0.  0.
    9000005    1    3    3    0    0  0.59348053613E+02  0.38557766292E+02 -0.14968530898E+03  0.16557652169E+03  0.10000000000E+01 0.  0.
         21    1    1    2  502  501 -0.51025162336E+02  0.20862653922E+01 -0.12619564566E+03  0.13613691886E+03  0.00000000000E+00 0. -1.
<mgrwt>
<rscale>  1 0.13503003E+03</rscale>
<asrwt>0</asrwt>
<pdfrwt beam="1">  1        4 0.21839716E-02 0.13503003E+03</pdfrwt>
<pdfrwt beam="2">  1       -4 0.96196755E-01 0.13503003E+03</pdfrwt>
<totfact> 0.13697637E+03</totfact>
</mgrwt>
</event>
<event>
 6    4  0.5642870E-004  0.1320078E+03  0.7818608E-02  0.1224507E+00
         -4   -1    0    0    0  501 -0.00000000000E+00  0.00000000000E+00  0.11631105492E+03  0.11631798827E+03  0.12700000000E+01 0. -1.
          4   -1    0    0  502    0  0.00000000000E+00 -0.00000000000E+00 -0.84941220918E+02  0.84950714600E+02  0.12700000000E+01 0. -1.
         25    2    1    2    0    0 -0.34997939940E+02  0.23935817941E+02  0.65007149895E+02  0.14714617336E+03  0.12501314977E+03 0.  0.
    9000005    1    3    3    0    0  0.13476373010E+02  0.65727161781E+02  0.24704950944E+02  0.71505293695E+02  0.10000000000E+01 0.  0.
    9000005    1    3    3    0    0 -0.48474312950E+02 -0.41791343840E+02  0.40302198951E+02  0.75640879663E+02  0.10000000000E+01 0.  0.
         21    1    1    2  502  501  0.34997939940E+02 -0.23935817941E+02 -0.33637315895E+02  0.54122529516E+02  0.00000000000E+00 0.  1.
<mgrwt>
<rscale>  1 0.13200783E+03</rscale>
<asrwt>0</asrwt>
<pdfrwt beam="2">  1        4 0.13069144E-01 0.13200783E+03</pdfrwt>
<pdfrwt beam="1">  1       -4 0.17895272E-01 0.13200783E+03</pdfrwt>
<totfact> 0.21566070E+03</totfact>
</mgrwt>
</event>
<event>
 6    4  0.5642870E-004  0.1315015E+03  0.7818608E-02  0.1225245E+00
         -4   -1    0    0    0  501 -0.00000000000E+00  0.00000000000E+00  0.61782884682E+02  0.61795936271E+02  0.12700000000E+01 0. -1.
          4   -1    0    0  502    0  0.00000000000E+00 -0.00000000000E+00 -0.12994233708E+03  0.12994854314E+03  0.12700000000E+01 0. -1.
         25    2    1    2    0    0 -0.40046074976E+02 -0.79156182387E+01 -0.27936391857E+02  0.13443619265E+03  0.12500521097E+03 0.  0.
    9000005    1    3    3    0    0 -0.46527051838E+02  0.45628373807E+02 -0.43420506730E+02  0.78313826708E+02  0.10000000000E+01 0.  0.
    9000005    1    3    3    0    0  0.64809768618E+01 -0.53543992046E+02  0.15484114873E+02  0.56122365940E+02  0.10000000000E+01 0.  0.
         21    1    1    2  502  501  0.40046074976E+02  0.79156182387E+01 -0.40223060539E+02  0.57308286767E+02  0.00000000000E+00 0. -1.
<mgrwt>
<rscale>  1 0.13150151E+03</rscale>
<asrwt>0</asrwt>
<pdfrwt beam="2">  1        4 0.19992610E-01 0.13150151E+03</pdfrwt>
<pdfrwt beam="1">  1       -4 0.95065406E-02 0.13150151E+03</pdfrwt>
<totfact> 0.30354774E+03</totfact>
</mgrwt>
</event>
<event>
 6    4  0.5642870E-004  0.1271898E+03  0.7818608E-02  0.1231686E+00
         -4   -1    0    0    0  501 -0.00000000000E+00  0.00000000000E+00  0.80148551191E+02  0.80158612500E+02  0.12700000000E+01 0. -1.
          4   -1    0    0  502    0  0.00000000000E+00 -0.00000000000E+00 -0.74512022513E+02  0.74522844812E+02  0.12700000000E+01 0. -1.
         25    2    1    2    0    0  0.14542364120E+02  0.18455100080E+02  0.17452349078E+02  0.12838155836E+03  0.12500067586E+03 0.  0.
    9000005    1    3    3    0    0 -0.12737921636E+02 -0.48369973392E+02 -0.10239759019E+02  0.51066247545E+02  0.10000000000E+01 0.  0.
    9000005    1    3    3    0    0  0.27280285756E+02  0.66825073473E+02  0.27692108097E+02  0.77315310815E+02  0.10000000000E+01 0.  0.
         21    1    1    2  502  501 -0.14542364120E+02 -0.18455100080E+02 -0.11815820400E+02  0.26299898952E+02  0.00000000000E+00 0.  1.
<mgrwt>
<rscale>  1 0.12718978E+03</rscale>
<asrwt>0</asrwt>
<pdfrwt beam="2">  1        4 0.11464995E-01 0.12718978E+03</pdfrwt>
<pdfrwt beam="1">  1       -4 0.12332153E-01 0.12718978E+03</pdfrwt>
<totfact> 0.51176734E+03</totfact>
</mgrwt>
</event>
<event>
 6    4  0.5642870E-004  0.1561201E+03  0.7818608E-02  0.1193148E+00
         -4   -1    0    0    0  501 -0.00000000000E+00  0.00000000000E+00  0.77785467286E+02  0.77795834213E+02  0.12700000000E+01 0.  1.
          4   -1    0    0  502    0  0.00000000000E+00 -0.00000000000E+00 -0.35527611991E+03  0.35527838983E+03  0.12700000000E+01 0.  1.
         25    2    1    2    0    0  0.92334401890E+02  0.14921224225E+02 -0.17894559650E+02  0.15714231905E+03  0.12500083386E+03 0.  0.
    9000005    1    3    3    0    0 -0.14459828478E+02 -0.32146160162E+02 -0.19750318543E+02  0.40417042634E+02  0.10000000000E+01 0.  0.
    9000005    1    3    3    0    0  0.10679423037E+03  0.47067384387E+02  0.18557588929E+01  0.11672527641E+03  0.10000000000E+01 0.  0.
         21    1    1    2  502  501 -0.92334401890E+02 -0.14921224225E+02 -0.25959609298E+03  0.27593190500E+03  0.00000000000E+00 0.  1.
<mgrwt>
<rscale>  1 0.15612012E+03</rscale>
<asrwt>0</asrwt>
<pdfrwt beam="2">  1        4 0.54658836E-01 0.15612012E+03</pdfrwt>
<pdfrwt beam="1">  1       -4 0.11967967E-01 0.15612012E+03</pdfrwt>
<totfact> 0.30756216E+02</totfact>
</mgrwt>
</event>
<event>
 6    4  0.5642870E-004  0.1301548E+03  0.7818608E-02  0.1227226E+00
          4   -1    0    0  502    0  0.00000000000E+00  0.00000000000E+00  0.15265104018E+03  0.15265632305E+03  0.12700000000E+01 0.  1.
         -4   -1    0    0    0  501 -0.00000000000E+00 -0.00000000000E+00 -0.12452730746E+03  0.12453378338E+03  0.12700000000E+01 0.  1.
         25    2    1    2    0    0  0.32232439141E+02  0.16652343125E+02 -0.86954099149E+02  0.15652885311E+03  0.12499614327E+03 0.  0.
    9000005    1    3    3    0    0  0.27950274019E+02  0.47811589075E+02 -0.10610384717E+03  0.11969207264E+03  0.10000000000E+01 0.  0.
    9000005    1    3    3    0    0  0.42821651212E+01 -0.31159245951E+02  0.19149748021E+02  0.36836780473E+02  0.10000000000E+01 0.  0.
         21    1    1    2  502  501 -0.32232439141E+02 -0.16652343125E+02  0.11507783187E+03  0.12066125332E+03  0.00000000000E+00 0.  1.
<mgrwt>
<rscale>  1 0.13015478E+03</rscale>
<asrwt>0</asrwt>
<pdfrwt beam="1">  1        4 0.23485680E-01 0.13015478E+03</pdfrwt>
<pdfrwt beam="2">  1       -4 0.19158952E-01 0.13015478E+03</pdfrwt>
<totfact> 0.67312539E+02</totfact>
</mgrwt>
</event>
<event>
 6    4  0.5642870E-004  0.1266905E+03  0.7818608E-02  0.1232451E+00
          4   -1    0    0  502    0  0.00000000000E+00  0.00000000000E+00  0.13648149685E+02  0.13707110922E+02  0.12700000000E+01 0. -1.
         -4   -1    0    0    0  501 -0.00000000000E+00 -0.00000000000E+00 -0.39654050562E+03  0.39654253933E+03  0.12700000000E+01 0. -1.
         25    2    1    2    0    0 -0.14268920462E+02 -0.14859570655E+02 -0.32754232674E+03  0.35119006455E+03  0.12500430673E+03 0.  0.
    9000005    1    3    3    0    0 -0.29472146728E+02 -0.65538116021E+02 -0.21788603148E+03  0.22943228805E+03  0.10000000000E+01 0.  0.
    9000005    1    3    3    0    0  0.15203226267E+02  0.50678545365E+02 -0.10965629526E+03  0.12175777651E+03  0.10000000000E+01 0.  0.
         21    1    1    2  502  501  0.14268920462E+02  0.14859570655E+02 -0.55350029194E+02  0.59059585700E+02  0.00000000000E+00 0.  1.
<mgrwt>
<rscale>  1 0.12669051E+03</rscale>
<asrwt>0</asrwt>
<pdfrwt beam="1">  1        4 0.21044076E-02 0.12669051E+03</pdfrwt>
<pdfrwt beam="2">  1       -4 0.61010915E-01 0.12669051E+03</pdfrwt>
<totfact> 0.38793778E+03</totfact>
</mgrwt>
</event>
<event>
 6    4  0.5642870E-004  0.1292030E+03  0.7818608E-02  0.1228643E+00
         -4   -1    0    0    0  501 -0.00000000000E+00  0.00000000000E+00  0.35644749278E+02  0.35667366753E+02  0.12700000000E+01 0.  1.
          4   -1    0    0  502    0  0.00000000000E+00 -0.00000000000E+00 -0.18542302179E+03  0.18542737099E+03  0.12700000000E+01 0.  1.
         25    2    1    2    0    0 -0.23615415595E+02  0.22675887980E+02 -0.12730970861E+03  0.18138680260E+03  0.12498610523E+03 0.  0.
    9000005    1    3    3    0    0 -0.88230180035E+01 -0.23160572481E+02  0.16454404819E+02  0.29765839520E+02  0.10000000000E+01 0.  0.
    9000005    1    3    3    0    0 -0.14792397591E+02  0.45836460461E+02 -0.14376411343E+03  0.15162096308E+03  0.10000000000E+01 0.  0.
         21    1    1    2  502  501  0.23615415595E+02 -0.22675887980E+02 -0.22468563901E+02  0.39707935141E+02  0.00000000000E+00 0.  1.
<mgrwt>
<rscale>  1 0.12920298E+03</rscale>
<asrwt>0</asrwt>
<pdfrwt beam="2">  1        4 0.28528693E-01 0.12920298E+03</pdfrwt>
<pdfrwt beam="1">  1       -4 0.54858821E-02 0.12920298E+03</pdfrwt>
<totfact> 0.38869863E+03</totfact>
</mgrwt>
</event>
<event>
 6    4  0.5642870E-004  0.1332182E+03  0.7818608E-02  0.1222757E+00
          4   -1    0    0  502    0  0.00000000000E+00  0.00000000000E+00  0.20788758161E+02  0.20827514635E+02  0.12700000000E+01 0. -1.
         -4   -1    0    0    0  501 -0.00000000000E+00 -0.00000000000E+00 -0.42324665682E+03  0.42324856221E+03  0.12700000000E+01 0. -1.
         25    2    1    2    0    0  0.38977205020E+02  0.24550192944E+02 -0.34870326255E+03  0.37328416072E+03  0.12500065939E+03 0.  0.
    9000005    1    3    3    0    0 -0.43340137939E+01  0.41655687516E+02 -0.30823852448E+02  0.52010478346E+02  0.10000000000E+01 0.  0.
    9000005    1    3    3    0    0  0.43311218814E+02 -0.17105494572E+02 -0.31787941011E+03  0.32127368238E+03  0.10000000000E+01 0.  0.
         21    1    1    2  502  501 -0.38977205020E+02 -0.24550192944E+02 -0.53754636105E+02  0.70791916117E+02  0.00000000000E+00 0.  1.
<mgrwt>
<rscale>  1 0.13321824E+03</rscale>
<asrwt>0</asrwt>
<pdfrwt beam="1">  1        4 0.32013986E-02 0.13321824E+03</pdfrwt>
<pdfrwt beam="2">  1       -4 0.65117992E-01 0.13321824E+03</pdfrwt>
<totfact> 0.17809021E+03</totfact>
</mgrwt>
</event>
<event>
 6    4  0.5642870E-004  0.1283910E+03  0.7818608E-02  0.1229863E+00
          4   -1    0    0  502    0  0.00000000000E+00  0.00000000000E+00  0.50867745343E+02  0.50883596731E+02  0.12700000000E+01 0. -1.
         -4   -1    0    0    0  501 -0.00000000000E+00 -0.00000000000E+00 -0.12286363224E+03  0.12287019585E+03  0.12700000000E+01 0. -1.
         25    2    1    2    0    0  0.28778805945E+02  0.55690309315E+01 -0.53487640788E+02  0.13908696476E+03  0.12500008908E+03 0.  0.
    9000005    1    3    3    0    0 -0.30476262777E+02 -0.42343191699E+02 -0.22165758443E+02  0.56692762531E+02  0.10000000000E+01 0.  0.
    9000005    1    3    3    0    0  0.59255068722E+02  0.47912222630E+02 -0.31321882346E+02  0.82394202225E+02  0.10000000000E+01 0.  0.
         21    1    1    2  502  501 -0.28778805945E+02 -0.55690309315E+01 -0.18508246108E+02  0.34666827821E+02  0.00000000000E+00 0. -1.
<mgrwt>
<rscale>  1 0.12839103E+03</rscale>
<asrwt>0</asrwt>
<pdfrwt beam="1">  1        4 0.78275312E-02 0.12839103E+03</pdfrwt>
<pdfrwt beam="2">  1       -4 0.18903821E-01 0.12839103E+03</pdfrwt>
<totfact> 0.46102105E+03</totfact>
</mgrwt>
</event>
<event>
 6    4  0.5642870E-004  0.1278869E+03  0.7818608E-02  0.1230625E+00
         -4   -1    0    0    0  501 -0.00000000000E+00  0.00000000000E+00  0.16119003769E+04  0.16119008772E+04  0.12700000000E+01 0. -1.
          4   -1    0    0  502    0  0.00000000000E+00 -0.00000000000E+00 -0.42155923624E+01  0.44027399385E+01  0.12700000000E+01 0. -1.
         25    2    1    2    0    0 -0.26746731838E+02 -0.35316384412E+01  0.14939087024E+04  0.14993726247E+04  0.12500878522E+03 0.  0.
    9000005    1    3    3    0    0  0.31310057166E+02  0.43169279159E+02  0.64025948537E+03  0.64247732641E+03  0.10000000000E+01 0.  0.
    9000005    1    3    3    0    0 -0.58056789004E+02 -0.46700917600E+02  0.85364921704E+03  0.85689529828E+03  0.10000000000E+01 0.  0.
         21    1    1    2  502  501  0.26746731838E+02  0.35316384412E+01  0.11377608209E+03  0.11693099242E+03  0.00000000000E+00 0. -1.
<mgrwt>
<rscale>  1 0.12788689E+03</rscale>
<asrwt>0</asrwt>
<pdfrwt beam="2">  1        4 0.66298699E-03 0.12788689E+03</pdfrwt>
<pdfrwt beam="1">  1       -4 0.24799916E+00 0.12788689E+03</pdfrwt>
<totfact> 0.67757608E+02</totfact>
</mgrwt>
</event>
<event>
 6    4  0.5642870E-004  0.1561108E+03  0.7818608E-02  0.1193159E+00
          4   -1    0    0  502    0  0.00000000000E+00  0.00000000000E+00  0.10967647606E+03  0.10968382880E+03  0.12700000000E+01 0.  1.
         -4   -1    0    0    0  501 -0.00000000000E+00 -0.00000000000E+00 -0.29848225357E+03  0.29848495540E+03  0.12700000000E+01 0.  1.
         25    2    1    2    0    0  0.92998022653E+02 -0.98742990017E+01 -0.25119145314E+03  0.29574945080E+03  0.12499783007E+03 0.  0.
    9000005    1    3    3    0    0  0.75755132742E+01 -0.16101234730E+02  0.10301381668E+02  0.20585349777E+02  0.10000000000E+01 0.  0.
    9000005    1    3    3    0    0  0.85422509379E+02  0.62269357280E+01 -0.26149283481E+03  0.27516410103E+03  0.10000000000E+01 0.  0.
         21    1    1    2  502  501 -0.92998022653E+02  0.98742990017E+01  0.62385675626E+02  0.11241933340E+03  0.00000000000E+00 0.  1.
<mgrwt>
<rscale>  1 0.15611083E+03</rscale>
<asrwt>0</asrwt>
<pdfrwt beam="1">  1        4 0.16874078E-01 0.15611083E+03</pdfrwt>
<pdfrwt beam="2">  1       -4 0.45921120E-01 0.15611083E+03</pdfrwt>
<totfact> 0.24129996E+02</totfact>
</mgrwt>
</event>
<event>
 6    4  0.5642870E-004  0.1279856E+03  0.7818608E-02  0.1230476E+00
         -4   -1    0    0    0  501 -0.00000000000E+00  0.00000000000E+00  0.40709769520E+02  0.40729574443E+02  0.12700000000E+01 0. -1.
          4   -1    0    0  502    0  0.00000000000E+00 -0.00000000000E+00 -0.40996392922E+03  0.40996589634E+03  0.12700000000E+01 0. -1.
         25    2    1    2    0    0 -0.26172349043E+02 -0.83866644595E+01 -0.61995812345E+02  0.14221043060E+03  0.12499999132E+03 0.  0.
    9000005    1    3    3    0    0  0.15812916188E+02  0.35352313673E+02  0.17266116019E+02  0.42414067982E+02  0.10000000000E+01 0.  0.
    9000005    1    3    3    0    0 -0.41985265230E+02 -0.43738978132E+02 -0.79261928364E+02  0.99796362621E+02  0.10000000000E+01 0.  0.
         21    1    1    2  502  501  0.26172349043E+02  0.83866644595E+01 -0.30725834735E+03  0.30848504018E+03  0.00000000000E+00 0. -1.
<mgrwt>
<rscale>  1 0.12798565E+03</rscale>
<asrwt>0</asrwt>
<pdfrwt beam="2">  1        4 0.63073046E-01 0.12798565E+03</pdfrwt>
<pdfrwt beam="1">  1       -4 0.62647165E-02 0.12798565E+03</pdfrwt>
<totfact> 0.64645529E+02</totfact>
</mgrwt>
</event>
<event>
 6    4  0.5642870E-004  0.1331576E+03  0.7818608E-02  0.1222844E+00
          4   -1    0    0  502    0  0.00000000000E+00  0.00000000000E+00  0.33603857859E+03  0.33604097845E+03  0.12700000000E+01 0.  1.
         -4   -1    0    0    0  501 -0.00000000000E+00 -0.00000000000E+00 -0.24002041880E+02  0.24035617621E+02  0.12700000000E+01 0.  1.
         25    2    1    2    0    0  0.10415612091E+02 -0.44696519282E+02  0.24476719210E+03  0.27864301249E+03  0.12499874508E+03 0.  0.
    9000005    1    3    3    0    0 -0.21806626856E+01 -0.52846414124E+02  0.25501668422E+03  0.26044578708E+03  0.10000000000E+01 0.  0.
    9000005    1    3    3    0    0  0.12596274777E+02  0.81498948419E+01 -0.10249492118E+02  0.18197225416E+02  0.10000000000E+01 0.  0.
         21    1    1    2  502  501 -0.10415612091E+02  0.44696519282E+02  0.67269344609E+02  0.81433583584E+02  0.00000000000E+00 0.  1.
<mgrwt>
<rscale>  1 0.13315761E+03</rscale>
<asrwt>0</asrwt>
<pdfrwt beam="1">  1        4 0.51701011E-01 0.13315761E+03</pdfrwt>
<pdfrwt beam="2">  1       -4 0.36953891E-02 0.13315761E+03</pdfrwt>
<totfact> 0.22990591E+03</totfact>
</mgrwt>
</event>
<event>
 6    4  0.5642870E-004  0.1596954E+03  0.7818608E-02  0.1189041E+00
         -4   -1    0    0    0  501 -0.00000000000E+00  0.00000000000E+00  0.70834365596E+02  0.70845749691E+02  0.12700000000E+01 0.  1.
          4   -1    0    0  502    0  0.00000000000E+00 -0.00000000000E+00 -0.38691327513E+03  0.38691535944E+03  0.12700000000E+01 0.  1.
         25    2    1    2    0    0  0.92436334509E+01  0.98952291435E+02 -0.40416012681E+02  0.16473033696E+03  0.12500251635E+03 0.  0.
    9000005    1    3    3    0    0  0.56191059152E+02  0.86718749518E+02 -0.50734730303E+02  0.11511989188E+03  0.10000000000E+01 0.  0.
    9000005    1    3    3    0    0 -0.46947425702E+02  0.12233541917E+02  0.10318717623E+02  0.49610445082E+02  0.10000000000E+01 0.  0.
         21    1    1    2  502  501 -0.92436334509E+01 -0.98952291435E+02 -0.27566289685E+03  0.29303077217E+03  0.00000000000E+00 0.  1.
<mgrwt>
<rscale>  1 0.15969543E+03</rscale>
<asrwt>0</asrwt>
<pdfrwt beam="2">  1        4 0.59526154E-01 0.15969543E+03</pdfrwt>
<pdfrwt beam="1">  1       -4 0.10898631E-01 0.15969543E+03</pdfrwt>
<totfact> 0.30321733E+02</totfact>
</mgrwt>
</event>
<event>
 6    4  0.5642870E-004  0.1390706E+03  0.7818608E-02  0.1214585E+00
          4   -1    0    0  502    0  0.00000000000E+00  0.00000000000E+00  0.55068385915E+03  0.55068532360E+03  0.12700000000E+01 0.  1.
         -4   -1    0    0    0  501 -0.00000000000E+00 -0.00000000000E+00 -0.20821099857E+02  0.20859796242E+02  0.12700000000E+01 0.  1.
         25    2    1    2    0    0 -0.81700804493E+01 -0.60437009210E+02  0.25978732342E+03  0.29466947382E+03  0.12498505149E+03 0.  0.
    9000005    1    3    3    0    0 -0.45388416430E+02  0.11775400102E+02  0.44870784630E+02  0.64908826109E+02  0.10000000000E+01 0.  0.
    9000005    1    3    3    0    0  0.37218335981E+02 -0.72212409312E+02  0.21491653879E+03  0.22976064771E+03  0.10000000000E+01 0.  0.
         21    1    1    2  502  501  0.81700804493E+01  0.60437009210E+02  0.27007543587E+03  0.27687564602E+03  0.00000000000E+00 0.  1.
<mgrwt>
<rscale>  1 0.13907065E+03</rscale>
<asrwt>0</asrwt>
<pdfrwt beam="1">  1        4 0.84723671E-01 0.13907065E+03</pdfrwt>
<pdfrwt beam="2">  1       -4 0.32063359E-02 0.13907065E+03</pdfrwt>
<totfact> 0.10096891E+03</totfact>
</mgrwt>
</event>
<event>
 6    4  0.5642870E-004  0.1278595E+03  0.7818608E-02  0.1230667E+00
          4   -1    0    0  502    0  0.00000000000E+00  0.00000000000E+00  0.17677052199E+03  0.17677508406E+03  0.12700000000E+01 0. -1.
         -4   -1    0    0    0  501 -0.00000000000E+00 -0.00000000000E+00 -0.34123781206E+02  0.34147406106E+02  0.12700000000E+01 0. -1.
         25    2    1    2    0    0  0.11434376938E+01  0.26852763159E+02  0.12472663333E+03  0.17861910660E+03  0.12500269533E+03 0.  0.
    9000005    1    3    3    0    0  0.10709076531E+02  0.67726651450E+02  0.29704008658E+02  0.74732267242E+02  0.10000000000E+01 0.  0.
    9000005    1    3    3    0    0 -0.95656388374E+01 -0.40873888292E+02  0.95022624677E+02  0.10388683935E+03  0.10000000000E+01 0.  0.
         21    1    1    2  502  501 -0.11434376938E+01 -0.26852763159E+02  0.17920107445E+02  0.32303383567E+02  0.00000000000E+00 0. -1.
<mgrwt>
<rscale>  1 0.12785950E+03</rscale>
<asrwt>0</asrwt>
<pdfrwt beam="1">  1        4 0.27197634E-01 0.12785950E+03</pdfrwt>
<pdfrwt beam="2">  1       -4 0.52519806E-02 0.12785950E+03</pdfrwt>
<totfact> 0.45477229E+03</totfact>
</mgrwt>
</event>
<event>
 6    4  0.5642870E-004  0.1280555E+03  0.7818608E-02  0.1230370E+00
          4   -1    0    0  502    0  0.00000000000E+00  0.00000000000E+00  0.29181990296E+04  0.29181993059E+04  0.12700000000E+01 0. -1.
         -4   -1    0    0    0  501 -0.00000000000E+00 -0.00000000000E+00 -0.37960630296E+01  0.40028732836E+01  0.12700000000E+01 0. -1.
         25    2    1    2    0    0  0.20339562043E+02 -0.18965076165E+02  0.10766253256E+04  0.10842141408E+04  0.12499935768E+03 0.  0.
    9000005    1    3    3    0    0  0.56846816152E+01  0.29111981782E+02  0.66308062690E+02  0.72646970109E+02  0.10000000000E+01 0.  0.
    9000005    1    3    3    0    0  0.14654880428E+02 -0.48077057947E+02  0.10103172629E+04  0.10115671707E+04  0.10000000000E+01 0.  0.
         21    1    1    2  502  501 -0.20339562043E+02  0.18965076165E+02  0.18377776410E+04  0.18379880384E+04  0.00000000000E+00 0. -1.
<mgrwt>
<rscale>  1 0.12805550E+03</rscale>
<asrwt>0</asrwt>
<pdfrwt beam="1">  1        4 0.44897081E+00 0.12805550E+03</pdfrwt>
<pdfrwt beam="2">  1       -4 0.59993786E-03 0.12805550E+03</pdfrwt>
<totfact> 0.44877495E+01</totfact>
</mgrwt>
</event>
<event>
 6    4  0.5642870E-004  0.1270126E+03  0.7818608E-02  0.1231957E+00
         -4   -1    0    0    0  501 -0.00000000000E+00  0.00000000000E+00  0.21380854260E+02  0.21418539373E+02  0.12700000000E+01 0.  1.
          4   -1    0    0  502    0  0.00000000000E+00 -0.00000000000E+00 -0.29974118679E+03  0.29974387726E+03  0.12700000000E+01 0.  1.
         25    2    1    2    0    0 -0.89910526626E+01  0.20649429886E+02 -0.18027762865E+03  0.22052716047E+03  0.12499986853E+03 0.  0.
    9000005    1    3    3    0    0  0.52987437039E+02 -0.16509256551E+01 -0.43019997237E+02  0.68279676345E+02  0.10000000000E+01 0.  0.
    9000005    1    3    3    0    0 -0.61978489701E+02  0.22300355541E+02 -0.13725763141E+03  0.15224748413E+03  0.10000000000E+01 0.  0.
         21    1    1    2  502  501  0.89910526626E+01 -0.20649429886E+02 -0.98082703880E+02  0.10063525616E+03  0.00000000000E+00 0.  1.
<mgrwt>
<rscale>  1 0.12701262E+03</rscale>
<asrwt>0</asrwt>
<pdfrwt beam="2">  1        4 0.46117132E-01 0.12701262E+03</pdfrwt>
<pdfrwt beam="1">  1       -4 0.32924682E-02 0.12701262E+03</pdfrwt>
<totfact> 0.34382016E+03</totfact>
</mgrwt>
</event>
<event>
 6    4  0.5642870E-004  0.1454315E+03  0.7818608E-02  0.1206202E+00
          4   -1    0    0  502    0  0.00000000000E+00  0.00000000000E+00  0.68270091730E+02  0.68281903348E+02  0.12700000000E+01 0. -1.
         -4   -1    0    0    0  501 -0.00000000000E+00 -0.00000000000E+00 -0.19607377821E+03  0.19607789116E+03  0.12700000000E+01 0. -1.
         25    2    1    2    0    0 -0.62703248968E+02 -0.39909027717E+02 -0.12196454704E+03  0.18980428852E+03  0.12500355707E+03 0.  0.
    9000005    1    3    3    0    0  0.25642863780E+01  0.33056490064E+02  0.30065944533E+00  0.33172239841E+02  0.10000000000E+01 0.  0.
    9000005    1    3    3    0    0 -0.65267535346E+02 -0.72965517780E+02 -0.12226520649E+03  0.15663204868E+03  0.10000000000E+01 0.  0.
         21    1    1    2  502  501  0.62703248968E+02  0.39909027717E+02 -0.58391394393E+01  0.74555505993E+02  0.00000000000E+00 0. -1.
<mgrwt>
<rscale>  1 0.14543149E+03</rscale>
<asrwt>0</asrwt>
<pdfrwt beam="1">  1        4 0.10504316E-01 0.14543149E+03</pdfrwt>
<pdfrwt beam="2">  1       -4 0.30166421E-01 0.14543149E+03</pdfrwt>
<totfact> 0.12284368E+03</totfact>
</mgrwt>
</event>
<event>
 6    4  0.5642870E-004  0.1318193E+03  0.7818608E-02  0.1224781E+00
          4   -1    0    0  502    0  0.00000000000E+00  0.00000000000E+00  0.11412664890E+03  0.11413371495E+03  0.12700000000E+01 0. -1.
         -4   -1    0    0    0  501 -0.00000000000E+00 -0.00000000000E+00 -0.23420265456E+03  0.23420609792E+03  0.12700000000E+01 0. -1.
         25    2    1    2    0    0 -0.91817173123E+01 -0.40832741920E+02 -0.21068917409E+03  0.24852817508E+03  0.12499883593E+03 0.  0.
    9000005    1    3    3    0    0  0.25680187093E+01 -0.97489513017E+01 -0.21479177886E+03  0.21503056768E+03  0.10000000000E+01 0.  0.
    9000005    1    3    3    0    0 -0.11749736022E+02 -0.31083790618E+02  0.41026047678E+01  0.33497607402E+02  0.10000000000E+01 0.  0.
         21    1    1    2  502  501  0.91817173123E+01  0.40832741920E+02  0.90613168430E+02  0.99811637791E+02  0.00000000000E+00 0. -1.
<mgrwt>
<rscale>  1 0.13181929E+03</rscale>
<asrwt>0</asrwt>
<pdfrwt beam="1">  1        4 0.17558754E-01 0.13181929E+03</pdfrwt>
<pdfrwt beam="2">  1       -4 0.36031986E-01 0.13181929E+03</pdfrwt>
<totfact> 0.35226514E+02</totfact>
</mgrwt>
</event>
<event>
 6    4  0.5642870E-004  0.1315149E+03  0.7818608E-02  0.1225225E+00
          4   -1    0    0  502    0  0.00000000000E+00  0.00000000000E+00  0.48398354813E+02  0.48415014702E+02  0.12700000000E+01 0.  1.
         -4   -1    0    0    0  501 -0.00000000000E+00 -0.00000000000E+00 -0.32021088199E+03  0.32021340048E+03  0.12700000000E+01 0.  1.
         25    2    1    2    0    0 -0.40408647006E+02  0.62581064912E+01 -0.29402267835E+03  0.32209548636E+03  0.12499657714E+03 0.  0.
    9000005    1    3    3    0    0 -0.82709762905E+02 -0.15143903165E+02 -0.18955226490E+03  0.20736755728E+03  0.10000000000E+01 0.  0.
    9000005    1    3    3    0    0  0.42301115900E+02  0.21402009656E+02 -0.10447041346E+03  0.11472792908E+03  0.10000000000E+01 0.  0.
         21    1    1    2  502  501  0.40408647006E+02 -0.62581064912E+01  0.22210151174E+02  0.46532928823E+02  0.00000000000E+00 0.  1.
<mgrwt>
<rscale>  1 0.13151489E+03</rscale>
<asrwt>0</asrwt>
<pdfrwt beam="1">  1        4 0.74473762E-02 0.13151489E+03</pdfrwt>
<pdfrwt beam="2">  1       -4 0.49264687E-01 0.13151489E+03</pdfrwt>
<totfact> 0.81736789E+02</totfact>
</mgrwt>
</event>
<event>
 6    4  0.5642870E-004  0.1272624E+03  0.7818608E-02  0.1231575E+00
          4   -1    0    0  502    0  0.00000000000E+00  0.00000000000E+00  0.20035059668E+02  0.20075271253E+02  0.12700000000E+01 0. -1.
         -4   -1    0    0    0  501 -0.00000000000E+00 -0.00000000000E+00 -0.31061400326E+03  0.31061659956E+03  0.12700000000E+01 0. -1.
         25    2    1    2    0    0 -0.23713494233E+02 -0.27262103755E+01 -0.20029051692E+03  0.23730149646E+03  0.12500378802E+03 0.  0.
    9000005    1    3    3    0    0 -0.74713237916E+02 -0.10353381196E+02 -0.11155200174E+03  0.13466294782E+03  0.10000000000E+01 0.  0.
    9000005    1    3    3    0    0  0.50999743683E+02  0.76271708209E+01 -0.88738515183E+02  0.10263854864E+03  0.10000000000E+01 0.  0.
         21    1    1    2  502  501  0.23713494233E+02  0.27262103755E+01 -0.90288426664E+02  0.93390374350E+02  0.00000000000E+00 0.  1.
<mgrwt>
<rscale>  1 0.12726236E+03</rscale>
<asrwt>0</asrwt>
<pdfrwt beam="1">  1        4 0.30856100E-02 0.12726236E+03</pdfrwt>
<pdfrwt beam="2">  1       -4 0.47790059E-01 0.12726236E+03</pdfrwt>
<totfact> 0.35447349E+03</totfact>
</mgrwt>
</event>
<event>
 6    4  0.5642870E-004  0.1279970E+03  0.7818608E-02  0.1230458E+00
          4   -1    0    0  502    0  0.00000000000E+00  0.00000000000E+00  0.35908682379E+02  0.35931133717E+02  0.12700000000E+01 0.  1.
         -4   -1    0    0    0  501 -0.00000000000E+00 -0.00000000000E+00 -0.16836429773E+03  0.16836908757E+03  0.12700000000E+01 0.  1.
         25    2    1    2    0    0  0.22713782122E+02 -0.15568932251E+02 -0.10811052314E+03  0.16754439094E+03  0.12499972069E+03 0.  0.
    9000005    1    3    3    0    0  0.49210541785E+02  0.37156100911E+02 -0.83009991142E+02  0.10341137214E+03  0.10000000000E+01 0.  0.
    9000005    1    3    3    0    0 -0.26496759663E+02 -0.52725033162E+02 -0.25100531998E+02  0.64133018806E+02  0.10000000000E+01 0.  0.
         21    1    1    2  502  501 -0.22713782122E+02  0.15568932251E+02 -0.24345092208E+02  0.36755830345E+02  0.00000000000E+00 0. -1.
<mgrwt>
<rscale>  1 0.12799702E+03</rscale>
<asrwt>0</asrwt>
<pdfrwt beam="1">  1        4 0.55265083E-02 0.12799702E+03</pdfrwt>
<pdfrwt beam="2">  1       -4 0.25904295E-01 0.12799702E+03</pdfrwt>
<totfact> 0.45870292E+03</totfact>
</mgrwt>
</event>
<event>
 6    4  0.5642870E-004  0.1281687E+03  0.7818608E-02  0.1230199E+00
         -4   -1    0    0    0  501 -0.00000000000E+00  0.00000000000E+00  0.89505629204E+02  0.89514638798E+02  0.12700000000E+01 0.  1.
          4   -1    0    0  502    0  0.00000000000E+00 -0.00000000000E+00 -0.10210499276E+03  0.10211289069E+03  0.12700000000E+01 0.  1.
         25    2    1    2    0    0  0.24600124341E+02 -0.14035253868E+02  0.37963391357E+02  0.13367283466E+03  0.12500021270E+03 0.  0.
    9000005    1    3    3    0    0  0.61904422214E+01 -0.69292759421E+02  0.25504897119E+02  0.74103359304E+02  0.10000000000E+01 0.  0.
    9000005    1    3    3    0    0  0.18409682120E+02  0.55257505553E+02  0.12458494238E+02  0.59569475358E+02  0.10000000000E+01 0.  0.
         21    1    1    2  502  501 -0.24600124341E+02  0.14035253868E+02 -0.50562754909E+02  0.57954694830E+02  0.00000000000E+00 0.  1.
<mgrwt>
<rscale>  1 0.12816867E+03</rscale>
<asrwt>0</asrwt>
<pdfrwt beam="2">  1        4 0.15709761E-01 0.12816867E+03</pdfrwt>
<pdfrwt beam="1">  1       -4 0.13771397E-01 0.12816867E+03</pdfrwt>
<totfact> 0.24620093E+03</totfact>
</mgrwt>
</event>
<event>
 6    4  0.5642870E-004  0.1276485E+03  0.7818608E-02  0.1230987E+00
          4   -1    0    0  502    0  0.00000000000E+00  0.00000000000E+00  0.20597515774E+03  0.20597907298E+03  0.12700000000E+01 0.  1.
         -4   -1    0    0    0  501 -0.00000000000E+00 -0.00000000000E+00 -0.36306021666E+02  0.36328227443E+02  0.12700000000E+01 0.  1.
         25    2    1    2    0    0  0.25826288509E+02  0.12960010475E+01  0.83968050157E+02  0.15278996733E+03  0.12500185548E+03 0.  0.
    9000005    1    3    3    0    0 -0.18970530643E+02 -0.20511587124E+01 -0.26995990631E+02  0.33073732706E+02  0.10000000000E+01 0.  0.
    9000005    1    3    3    0    0  0.44796819152E+02  0.33471597600E+01  0.11096404079E+03  0.11971623462E+03  0.10000000000E+01 0.  0.
         21    1    1    2  502  501 -0.25826288509E+02 -0.12960010475E+01  0.85701085919E+02  0.89517333096E+02  0.00000000000E+00 0. -1.
<mgrwt>
<rscale>  1 0.12764850E+03</rscale>
<asrwt>0</asrwt>
<pdfrwt beam="1">  1        4 0.31690495E-01 0.12764850E+03</pdfrwt>
<pdfrwt beam="2">  1       -4 0.55875511E-02 0.12764850E+03</pdfrwt>
<totfact> 0.30849707E+03</totfact>
</mgrwt>
</event>
<event>
 6    4  0.5642870E-004  0.1278223E+03  0.7818608E-02  0.1230723E+00
         -4   -1    0    0    0  501 -0.00000000000E+00  0.00000000000E+00  0.11775327936E+02  0.11843616340E+02  0.12700000000E+01 0.  1.
          4   -1    0    0  502    0  0.00000000000E+00 -0.00000000000E+00 -0.51061848805E+03  0.51062006741E+03  0.12700000000E+01 0.  1.
         25    2    1    2    0    0  0.37999636112E+00  0.26701927030E+02 -0.39098475254E+03  0.41134854802E+03  0.12500165571E+03 0.  0.
    9000005    1    3    3    0    0  0.52997750227E+02 -0.18696620520E+02 -0.21252261730E+03  0.21982990700E+03  0.10000000000E+01 0.  0.
    9000005    1    3    3    0    0 -0.52617753866E+02  0.45398547550E+02 -0.17846213524E+03  0.19151864101E+03  0.10000000000E+01 0.  0.
         21    1    1    2  502  501 -0.37999636112E+00 -0.26701927030E+02 -0.10785840758E+03  0.11111513574E+03  0.00000000000E+00 0.  1.
<mgrwt>
<rscale>  1 0.12782234E+03</rscale>
<asrwt>0</asrwt>
<pdfrwt beam="2">  1        4 0.78562048E-01 0.12782234E+03</pdfrwt>
<pdfrwt beam="1">  1       -4 0.18169638E-02 0.12782234E+03</pdfrwt>
<totfact> 0.28286334E+03</totfact>
</mgrwt>
</event>
<event>
 6    4  0.5642870E-004  0.1278507E+03  0.7818608E-02  0.1230680E+00
         -4   -1    0    0    0  501 -0.00000000000E+00  0.00000000000E+00  0.23965453174E+02  0.23999080104E+02  0.12700000000E+01 0. -1.
          4   -1    0    0  502    0  0.00000000000E+00 -0.00000000000E+00 -0.25100818836E+03  0.25101140118E+03  0.12700000000E+01 0. -1.
         25    2    1    2    0    0 -0.23966816650E+02 -0.12122295140E+02 -0.17900097381E+03  0.21997077584E+03  0.12499774101E+03 0.  0.
    9000005    1    3    3    0    0  0.40675642042E+02  0.19598777711E+02 -0.29256684699E+02  0.53810533754E+02  0.10000000000E+01 0.  0.
    9000005    1    3    3    0    0 -0.64642458691E+02 -0.31721072851E+02 -0.14974428911E+03  0.16616024208E+03  0.10000000000E+01 0.  0.
         21    1    1    2  502  501  0.23966816650E+02  0.12122295140E+02 -0.48041761375E+02  0.55039705448E+02  0.00000000000E+00 0. -1.
<mgrwt>
<rscale>  1 0.12785067E+03</rscale>
<asrwt>0</asrwt>
<pdfrwt beam="2">  1        4 0.38619476E-01 0.12785067E+03</pdfrwt>
<pdfrwt beam="1">  1       -4 0.36898268E-02 0.12785067E+03</pdfrwt>
<totfact> 0.40901666E+03</totfact>
</mgrwt>
</event>
<event>
 6    4  0.5642870E-004  0.1280020E+03  0.7818608E-02  0.1230451E+00
          4   -1    0    0  502    0  0.00000000000E+00  0.00000000000E+00  0.20217897880E+03  0.20218296755E+03  0.12700000000E+01 0. -1.
         -4   -1    0    0    0  501 -0.00000000000E+00 -0.00000000000E+00 -0.62793118813E+02  0.62805960467E+02  0.12700000000E+01 0. -1.
         25    2    1    2    0    0  0.12487628685E+02 -0.24558969093E+02  0.53105954261E+01  0.12811212063E+03  0.12500171677E+03 0.  0.
    9000005    1    3    3    0    0  0.66781831672E+02 -0.28549346757E+02  0.10605655093E+02  0.73405436867E+02  0.10000000000E+01 0.  0.
    9000005    1    3    3    0    0 -0.54294202987E+02  0.39903776638E+01 -0.52950596668E+01  0.54706683767E+02  0.10000000000E+01 0.  0.
         21    1    1    2  502  501 -0.12487628685E+02  0.24558969093E+02  0.13407526456E+03  0.13687680738E+03  0.00000000000E+00 0. -1.
<mgrwt>
<rscale>  1 0.12800200E+03</rscale>
<asrwt>0</asrwt>
<pdfrwt beam="1">  1        4 0.31105754E-01 0.12800200E+03</pdfrwt>
<pdfrwt beam="2">  1       -4 0.96617743E-02 0.12800200E+03</pdfrwt>
<totfact> 0.12987170E+03</totfact>
</mgrwt>
</event>
<event>
 6    4  0.5642870E-004  0.1312356E+03  0.7818608E-02  0.1225634E+00
         -4   -1    0    0    0  501 -0.00000000000E+00  0.00000000000E+00  0.36358882914E+03  0.36359104716E+03  0.12700000000E+01 0.  1.
          4   -1    0    0  502    0  0.00000000000E+00 -0.00000000000E+00 -0.20145472422E+02  0.20185464055E+02  0.12700000000E+01 0.  1.
         25    2    1    2    0    0 -0.32220787788E+02 -0.23651514902E+02  0.25897892945E+03  0.29033234181E+03  0.12500083791E+03 0.  0.
    9000005    1    3    3    0    0  0.32703912084E+02 -0.49242376570E+02  0.92056631005E+02  0.10940649354E+03  0.10000000000E+01 0.  0.
    9000005    1    3    3    0    0 -0.64924699872E+02  0.25590861668E+02  0.16692229845E+03  0.18092584827E+03  0.10000000000E+01 0.  0.
         21    1    1    2  502  501  0.32220787788E+02  0.23651514902E+02  0.84464427264E+02  0.93444169406E+02  0.00000000000E+00 0.  1.
<mgrwt>
<rscale>  1 0.13123560E+03</rscale>
<asrwt>0</asrwt>
<pdfrwt beam="2">  1        4 0.31025508E-02 0.13123560E+03</pdfrwt>
<pdfrwt beam="1">  1       -4 0.55939982E-01 0.13123560E+03</pdfrwt>
<totfact> 0.25653284E+03</totfact>
</mgrwt>
</event>
<event>
 6    4  0.5642870E-004  0.1274414E+03  0.7818608E-02  0.1231302E+00
          4   -1    0    0  502    0  0.00000000000E+00  0.00000000000E+00  0.24380640639E+03  0.24380971411E+03  0.12700000000E+01 0. -1.
         -4   -1    0    0    0  501 -0.00000000000E+00 -0.00000000000E+00 -0.24223487936E+02  0.24256757157E+02  0.12700000000E+01 0. -1.
         25    2    1    2    0    0  0.71384639739E+01 -0.23778810867E+02  0.16846747349E+03  0.21124061247E+03  0.12499966888E+03 0.  0.
    9000005    1    3    3    0    0 -0.28255664672E+02 -0.12618723058E+02 -0.71213486540E+01  0.31769928616E+02  0.10000000000E+01 0.  0.
    9000005    1    3    3    0    0  0.35394128645E+02 -0.11160087810E+02  0.17558882214E+03  0.17947068386E+03  0.10000000000E+01 0.  0.
         21    1    1    2  502  501 -0.71384639739E+01  0.23778810867E+02  0.51115444963E+02  0.56825858797E+02  0.00000000000E+00 0.  1.
<mgrwt>
<rscale>  1 0.12744139E+03</rscale>
<asrwt>0</asrwt>
<pdfrwt beam="1">  1        4 0.37511491E-01 0.12744139E+03</pdfrwt>
<pdfrwt beam="2">  1       -4 0.37295041E-02 0.12744139E+03</pdfrwt>
<totfact> 0.42532073E+03</totfact>
</mgrwt>
</event>
<event>
 6    4  0.5642870E-004  0.1277789E+03  0.7818608E-02  0.1230789E+00
          4   -1    0    0  502    0  0.00000000000E+00  0.00000000000E+00  0.32369625845E+02  0.32394530052E+02  0.12700000000E+01 0.  1.
         -4   -1    0    0    0  501 -0.00000000000E+00 -0.00000000000E+00 -0.21084187689E+03  0.21084570176E+03  0.12700000000E+01 0.  1.
         25    2    1    2    0    0 -0.23581918824E+02 -0.12073561939E+02 -0.17475567977E+03  0.21648783575E+03  0.12500223046E+03 0.  0.
    9000005    1    3    3    0    0 -0.37303764155E+01  0.11881517162E+02 -0.18368138408E+03  0.18410577670E+03  0.10000000000E+01 0.  0.
    9000005    1    3    3    0    0 -0.19851542408E+02 -0.23955079101E+02  0.89257043058E+01  0.32382059046E+02  0.10000000000E+01 0.  0.
         21    1    1    2  502  501  0.23581918824E+02  0.12073561939E+02 -0.37165712774E+01  0.26752396068E+02  0.00000000000E+00 0.  1.
<mgrwt>
<rscale>  1 0.12777885E+03</rscale>
<asrwt>0</asrwt>
<pdfrwt beam="1">  1        4 0.49821525E-02 0.12777885E+03</pdfrwt>
<pdfrwt beam="2">  1       -4 0.32439421E-01 0.12777885E+03</pdfrwt>
<totfact> 0.35502267E+03</totfact>
</mgrwt>
</event>
<event>
 6    4  0.5642870E-004  0.1433234E+03  0.7818608E-02  0.1208926E+00
         -4   -1    0    0    0  501 -0.00000000000E+00  0.00000000000E+00  0.63955571662E+03  0.63955697757E+03  0.12700000000E+01 0. -1.
          4   -1    0    0  502    0  0.00000000000E+00 -0.00000000000E+00 -0.18004690227E+02  0.18049425758E+02  0.12700000000E+01 0. -1.
         25    2    1    2    0    0 -0.69172876307E+02  0.11456217644E+02  0.45026225849E+03  0.47252270943E+03  0.12500191104E+03 0.  0.
    9000005    1    3    3    0    0 -0.91292422927E+02  0.26861410644E+02  0.20769384118E+03  0.22845912879E+03  0.10000000000E+01 0.  0.
    9000005    1    3    3    0    0  0.22119546620E+02 -0.15405193001E+02  0.24256841732E+03  0.24406358064E+03  0.10000000000E+01 0.  0.
         21    1    1    2  502  501  0.69172876307E+02 -0.11456217644E+02  0.17128876790E+03  0.18508369390E+03  0.00000000000E+00 0. -1.
<mgrwt>
<rscale>  1 0.14332344E+03</rscale>
<asrwt>0</asrwt>
<pdfrwt beam="2">  1        4 0.27734904E-02 0.14332344E+03</pdfrwt>
<pdfrwt beam="1">  1       -4 0.98396730E-01 0.14332344E+03</pdfrwt>
<totfact> 0.90811397E+02</totfact>
</mgrwt>
</event>
<event>
 6    4  0.5642870E-004  0.1502204E+03  0.7818608E-02  0.1200202E+00
         -4   -1    0    0    0  501 -0.00000000000E+00  0.00000000000E+00  0.20452413575E+03  0.20452807877E+03  0.12700000000E+01 0.  1.
          4   -1    0    0  502    0  0.00000000000E+00 -0.00000000000E+00 -0.72961629366E+02  0.72972681599E+02  0.12700000000E+01 0.  1.
         25    2    1    2    0    0 -0.41526178593E+02 -0.72225621387E+02  0.43764054400E+02  0.15646550904E+03  0.12500079667E+03 0.  0.
    9000005    1    3    3    0    0 -0.60349024573E+02  0.78594247656E+01 -0.45815230000E+01  0.61039050432E+02  0.10000000000E+01 0.  0.
    9000005    1    3    3    0    0  0.18822845980E+02 -0.80085046153E+02  0.48345577400E+02  0.95426458607E+02  0.10000000000E+01 0.  0.
         21    1    1    2  502  501  0.41526178593E+02  0.72225621387E+02  0.87798451985E+02  0.12103525133E+03  0.00000000000E+00 0.  1.
<mgrwt>
<rscale>  1 0.15022038E+03</rscale>
<asrwt>0</asrwt>
<pdfrwt beam="2">  1        4 0.11226020E-01 0.15022038E+03</pdfrwt>
<pdfrwt beam="1">  1       -4 0.31466405E-01 0.15022038E+03</pdfrwt>
<totfact> 0.10195224E+03</totfact>
</mgrwt>
</event>
<event>
 6    4  0.5642870E-004  0.1276192E+03  0.7818608E-02  0.1231032E+00
         -4   -1    0    0    0  501 -0.00000000000E+00  0.00000000000E+00  0.63111271097E+03  0.63111398879E+03  0.12700000000E+01 0.  1.
          4   -1    0    0  502    0  0.00000000000E+00 -0.00000000000E+00 -0.94035663614E+01  0.94889388402E+01  0.12700000000E+01 0.  1.
         25    2    1    2    0    0  0.19595349384E+02  0.16732913546E+02  0.48648632658E+03  0.50294691204E+03  0.12499072872E+03 0.  0.
    9000005    1    3    3    0    0  0.70500665249E+02 -0.75923582605E+01  0.28722738939E+03  0.29585226199E+03  0.10000000000E+01 0.  0.
    9000005    1    3    3    0    0 -0.50905315865E+02  0.24325271807E+02  0.19925893719E+03  0.20709465006E+03  0.10000000000E+01 0.  0.
         21    1    1    2  502  501 -0.19595349384E+02 -0.16732913546E+02  0.13522281803E+03  0.13765601559E+03  0.00000000000E+00 0.  1.
<mgrwt>
<rscale>  1 0.12761916E+03</rscale>
<asrwt>0</asrwt>
<pdfrwt beam="2">  1        4 0.14533673E-02 0.12761916E+03</pdfrwt>
<pdfrwt beam="1">  1       -4 0.97100974E-01 0.12761916E+03</pdfrwt>
<totfact> 0.24716623E+03</totfact>
</mgrwt>
</event>
<event>
 6    4  0.5642870E-004  0.1291030E+03  0.7818608E-02  0.1228793E+00
         -4   -1    0    0    0  501 -0.00000000000E+00  0.00000000000E+00  0.34500807881E+03  0.34501041628E+03  0.12700000000E+01 0.  1.
          4   -1    0    0  502    0  0.00000000000E+00 -0.00000000000E+00 -0.21450844334E+02  0.21488406703E+02  0.12700000000E+01 0.  1.
         25    2    1    2    0    0 -0.32193800735E+02  0.23628468269E+01  0.19436807654E+03  0.23333778372E+03  0.12500219311E+03 0.  0.
    9000005    1    3    3    0    0 -0.36861015990E+02 -0.35380009456E+02  0.20014925902E+02  0.54882390872E+02  0.10000000000E+01 0.  0.
    9000005    1    3    3    0    0  0.46672152556E+01  0.37742856283E+02  0.17435315064E+03  0.17845539285E+03  0.10000000000E+01 0.  0.
         21    1    1    2  502  501  0.32193800735E+02 -0.23628468269E+01  0.12918915793E+03  0.13316103927E+03  0.00000000000E+00 0.  1.
<mgrwt>
<rscale>  1 0.12910295E+03</rscale>
<asrwt>0</asrwt>
<pdfrwt beam="2">  1        4 0.33031994E-02 0.12910295E+03</pdfrwt>
<pdfrwt beam="1">  1       -4 0.53081231E-01 0.12910295E+03</pdfrwt>
<totfact> 0.25808032E+03</totfact>
</mgrwt>
</event>
<event>
 6    4  0.5642870E-004  0.1270075E+03  0.7818608E-02  0.1231965E+00
          4   -1    0    0  502    0  0.00000000000E+00  0.00000000000E+00  0.18416473735E+02  0.18460211397E+02  0.12700000000E+01 0.  1.
         -4   -1    0    0    0  501 -0.00000000000E+00 -0.00000000000E+00 -0.31520866649E+03  0.31521122494E+03  0.12700000000E+01 0.  1.
         25    2    1    2    0    0  0.81130448389E+01 -0.21021696745E+02 -0.27186658978E+03  0.30007055965E+03  0.12499265938E+03 0.  0.
    9000005    1    3    3    0    0  0.56724842667E+02  0.23189728605E+02 -0.13143560498E+03  0.14502341033E+03  0.10000000000E+01 0.  0.
    9000005    1    3    3    0    0 -0.48611797828E+02 -0.44211425350E+02 -0.14043098481E+03  0.15504714932E+03  0.10000000000E+01 0.  0.
         21    1    1    2  502  501 -0.81130448389E+01  0.21021696745E+02 -0.24925602972E+02  0.33600876687E+02  0.00000000000E+00 0.  1.
<mgrwt>
<rscale>  1 0.12700747E+03</rscale>
<asrwt>0</asrwt>
<pdfrwt beam="1">  1        4 0.28368651E-02 0.12700747E+03</pdfrwt>
<pdfrwt beam="2">  1       -4 0.48497198E-01 0.12700747E+03</pdfrwt>
<totfact> 0.39222903E+03</totfact>
</mgrwt>
</event>
<event>
 6    4  0.5642870E-004  0.1268034E+03  0.7818608E-02  0.1232278E+00
          4   -1    0    0  502    0  0.00000000000E+00  0.00000000000E+00  0.57478948370E+02  0.57492977013E+02  0.12700000000E+01 0. -1.
         -4   -1    0    0    0  501 -0.00000000000E+00 -0.00000000000E+00 -0.95473460959E+02  0.95481907436E+02  0.12700000000E+01 0. -1.
         25    2    1    2    0    0  0.44541877049E+01  0.20861695858E+02 -0.33855152739E+02  0.13124507906E+03  0.12499619702E+03 0.  0.
    9000005    1    3    3    0    0  0.22745521498E+02 -0.47211143812E+02 -0.30562051129E+02  0.60673633627E+02  0.10000000000E+01 0.  0.
    9000005    1    3    3    0    0 -0.18291333794E+02  0.68072839669E+02 -0.32931016094E+01  0.70571445435E+02  0.10000000000E+01 0.  0.
         21    1    1    2  502  501 -0.44541877049E+01 -0.20861695858E+02 -0.41393598500E+01  0.21729805386E+02  0.00000000000E+00 0.  1.
<mgrwt>
<rscale>  1 0.12680339E+03</rscale>
<asrwt>0</asrwt>
<pdfrwt beam="1">  1        4 0.88446440E-02 0.12680339E+03</pdfrwt>
<pdfrwt beam="2">  1       -4 0.14689954E-01 0.12680339E+03</pdfrwt>
<totfact> 0.58524195E+03</totfact>
</mgrwt>
</event>
<event>
 6    4  0.5642870E-004  0.1277968E+03  0.7818608E-02  0.1230762E+00
          4   -1    0    0  502    0  0.00000000000E+00  0.00000000000E+00  0.45908059260E+02  0.45925622533E+02  0.12700000000E+01 0.  1.
         -4   -1    0    0    0  501 -0.00000000000E+00 -0.00000000000E+00 -0.14293475279E+03  0.14294039476E+03  0.12700000000E+01 0.  1.
         25    2    1    2    0    0  0.21178455539E+02 -0.16087553477E+02 -0.99769080349E+02  0.16212920669E+03  0.12499869564E+03 0.  0.
    9000005    1    3    3    0    0  0.70241938809E+02 -0.26416658946E+02 -0.43462929906E+02  0.86728289004E+02  0.10000000000E+01 0.  0.
    9000005    1    3    3    0    0 -0.49063483270E+02  0.10329105469E+02 -0.56306150443E+02  0.75400917687E+02  0.10000000000E+01 0.  0.
         21    1    1    2  502  501 -0.21178455539E+02  0.16087553477E+02  0.27423868190E+01  0.26736810605E+02  0.00000000000E+00 0.  1.
<mgrwt>
<rscale>  1 0.12779675E+03</rscale>
<asrwt>0</asrwt>
<pdfrwt beam="1">  1        4 0.70645634E-02 0.12779675E+03</pdfrwt>
<pdfrwt beam="2">  1       -4 0.21991747E-01 0.12779675E+03</pdfrwt>
<totfact> 0.41515698E+03</totfact>
</mgrwt>
</event>
<event>
 6    4  0.5642870E-004  0.1284276E+03  0.7818608E-02  0.1229808E+00
         -4   -1    0    0    0  501 -0.00000000000E+00  0.00000000000E+00  0.89555965733E+02  0.89564970264E+02  0.12700000000E+01 0.  1.
          4   -1    0    0  502    0  0.00000000000E+00 -0.00000000000E+00 -0.88749281724E+02  0.88758368093E+02  0.12700000000E+01 0.  1.
         25    2    1    2    0    0  0.26457959731E+02 -0.12973632349E+02  0.35071512292E+02  0.13313022797E+03  0.12500123141E+03 0.  0.
    9000005    1    3    3    0    0  0.26233022987E+02 -0.67999329229E+02  0.25783872766E+02  0.77316805194E+02  0.10000000000E+01 0.  0.
    9000005    1    3    3    0    0  0.22493674395E+00  0.55025696880E+02  0.92876395254E+01  0.55813422773E+02  0.10000000000E+01 0.  0.
         21    1    1    2  502  501 -0.26457959731E+02  0.12973632349E+02 -0.34264828283E+02  0.45193110390E+02  0.00000000000E+00 0.  1.
<mgrwt>
<rscale>  1 0.12842759E+03</rscale>
<asrwt>0</asrwt>
<pdfrwt beam="2">  1        4 0.13655127E-01 0.12842759E+03</pdfrwt>
<pdfrwt beam="1">  1       -4 0.13779233E-01 0.12842759E+03</pdfrwt>
<totfact> 0.31404875E+03</totfact>
</mgrwt>
</event>
<event>
 6    4  0.5642870E-004  0.1275240E+03  0.7818608E-02  0.1231177E+00
         -4   -1    0    0    0  501 -0.00000000000E+00  0.00000000000E+00  0.10224841801E+02  0.10303411564E+02  0.12700000000E+01 0.  1.
          4   -1    0    0  502    0  0.00000000000E+00 -0.00000000000E+00 -0.56912122945E+03  0.56912264646E+03  0.12700000000E+01 0.  1.
         25    2    1    2    0    0 -0.25059030144E+02 -0.30933756006E+01 -0.47396803829E+03  0.49082386567E+03  0.12499936731E+03 0.  0.
    9000005    1    3    3    0    0  0.11534004942E+02  0.85097089375E+01  0.90864257951E+00  0.14397015230E+02  0.10000000000E+01 0.  0.
    9000005    1    3    3    0    0 -0.36593035087E+02 -0.11603084538E+02 -0.47487668087E+03  0.47642685044E+03  0.10000000000E+01 0.  0.
         21    1    1    2  502  501  0.25059030144E+02  0.30933756006E+01 -0.84928349359E+02  0.88602192350E+02  0.00000000000E+00 0.  1.
<mgrwt>
<rscale>  1 0.12752398E+03</rscale>
<asrwt>0</asrwt>
<pdfrwt beam="2">  1        4 0.87563240E-01 0.12752398E+03</pdfrwt>
<pdfrwt beam="1">  1       -4 0.15792059E-02 0.12752398E+03</pdfrwt>
<totfact> 0.27528988E+03</totfact>
</mgrwt>
</event>
<event>
 6    4  0.5642870E-004  0.1276985E+03  0.7818608E-02  0.1230911E+00
          4   -1    0    0  502    0  0.00000000000E+00  0.00000000000E+00  0.15041057063E+03  0.15041593219E+03  0.12700000000E+01 0. -1.
         -4   -1    0    0    0  501 -0.00000000000E+00 -0.00000000000E+00 -0.41465878359E+02  0.41485322321E+02  0.12700000000E+01 0. -1.
         25    2    1    2    0    0  0.51792165915E+01 -0.25590117652E+02  0.10534971100E+03  0.16554594582E+03  0.12500088065E+03 0.  0.
    9000005    1    3    3    0    0 -0.92091115715E+01 -0.29906989275E+02  0.13160638852E+03  0.13527925651E+03  0.10000000000E+01 0.  0.
    9000005    1    3    3    0    0  0.14388328163E+02  0.43168716238E+01 -0.26256677514E+02  0.30266689314E+02  0.10000000000E+01 0.  0.
         21    1    1    2  502  501 -0.51792165915E+01  0.25590117652E+02  0.35949812708E+01  0.26355308692E+02  0.00000000000E+00 0.  1.
<mgrwt>
<rscale>  1 0.12769847E+03</rscale>
<asrwt>0</asrwt>
<pdfrwt beam="1">  1        4 0.23141996E-01 0.12769847E+03</pdfrwt>
<pdfrwt beam="2">  1       -4 0.63812741E-02 0.12769847E+03</pdfrwt>
<totfact> 0.44671757E+03</totfact>
</mgrwt>
</event>
<event>
 6    4  0.5642870E-004  0.1270175E+03  0.7818608E-02  0.1231950E+00
         -4   -1    0    0    0  501 -0.00000000000E+00  0.00000000000E+00  0.63821034528E+02  0.63833669393E+02  0.12700000000E+01 0.  1.
          4   -1    0    0  502    0  0.00000000000E+00 -0.00000000000E+00 -0.90068246496E+02  0.90077199817E+02  0.12700000000E+01 0.  1.
         25    2    1    2    0    0  0.17383751021E+02  0.14359265335E+02 -0.12806739526E+02  0.12766149588E+03  0.12500024661E+03 0.  0.
    9000005    1    3    3    0    0 -0.16404179245E+02  0.46454828889E+02 -0.48356263734E+02  0.69039673132E+02  0.10000000000E+01 0.  0.
    9000005    1    3    3    0    0  0.33787930265E+02 -0.32095563554E+02  0.35549524208E+02  0.58621822753E+02  0.10000000000E+01 0.  0.
         21    1    1    2  502  501 -0.17383751021E+02 -0.14359265335E+02 -0.13440472442E+02  0.26249373325E+02  0.00000000000E+00 0.  1.
<mgrwt>
<rscale>  1 0.12701750E+03</rscale>
<asrwt>0</asrwt>
<pdfrwt beam="2">  1        4 0.13858314E-01 0.12701750E+03</pdfrwt>
<pdfrwt beam="1">  1       -4 0.98202813E-02 0.12701750E+03</pdfrwt>
<totfact> 0.54374964E+03</totfact>
</mgrwt>
</event>
<event>
 6    4  0.5642870E-004  0.1384518E+03  0.7818608E-02  0.1215427E+00
          4   -1    0    0  502    0  0.00000000000E+00  0.00000000000E+00  0.41600841335E+03  0.41601035189E+03  0.12700000000E+01 0.  1.
         -4   -1    0    0    0  501 -0.00000000000E+00 -0.00000000000E+00 -0.25578418198E+02  0.25609927324E+02  0.12700000000E+01 0.  1.
         25    2    1    2    0    0 -0.99560111227E+00  0.59524707036E+02  0.20922567001E+03  0.25088698527E+03  0.12499886566E+03 0.  0.
    9000005    1    3    3    0    0 -0.18252682605E+02 -0.28396416473E+02  0.11911053492E+03  0.12380563969E+03  0.10000000000E+01 0.  0.
    9000005    1    3    3    0    0  0.17257081493E+02  0.87921123509E+02  0.90115135096E+02  0.12708134558E+03  0.10000000000E+01 0.  0.
         21    1    1    2  502  501  0.99560111227E+00 -0.59524707036E+02  0.18120432514E+03  0.19073329394E+03  0.00000000000E+00 0.  1.
<mgrwt>
<rscale>  1 0.13845179E+03</rscale>
<asrwt>0</asrwt>
<pdfrwt beam="1">  1        4 0.64003869E-01 0.13845179E+03</pdfrwt>
<pdfrwt beam="2">  1       -4 0.39377141E-02 0.13845179E+03</pdfrwt>
<totfact> 0.13434418E+03</totfact>
</mgrwt>
</event>
<event>
 6    4  0.5642870E-004  0.1268278E+03  0.7818608E-02  0.1232240E+00
         -4   -1    0    0    0  501 -0.00000000000E+00  0.00000000000E+00  0.12949552408E+03  0.12950175156E+03  0.12700000000E+01 0.  1.
          4   -1    0    0  502    0  0.00000000000E+00 -0.00000000000E+00 -0.53213098805E+02  0.53228251750E+02  0.12700000000E+01 0.  1.
         25    2    1    2    0    0 -0.20890990362E+02 -0.50657969851E+01  0.91502860822E+02  0.15639072777E+03  0.12499276146E+03 0.  0.
    9000005    1    3    3    0    0 -0.38140196620E+02 -0.57704499789E+02  0.65205452814E+02  0.95064372773E+02  0.10000000000E+01 0.  0.
    9000005    1    3    3    0    0  0.17249206258E+02  0.52638702804E+02  0.26297408009E+02  0.61326354999E+02  0.10000000000E+01 0.  0.
         21    1    1    2  502  501  0.20890990362E+02  0.50657969851E+01 -0.15220435549E+02  0.26339275535E+02  0.00000000000E+00 0.  1.
<mgrwt>
<rscale>  1 0.12682778E+03</rscale>
<asrwt>0</asrwt>
<pdfrwt beam="2">  1        4 0.81882753E-02 0.12682778E+03</pdfrwt>
<pdfrwt beam="1">  1       -4 0.19924033E-01 0.12682778E+03</pdfrwt>
<totfact> 0.38827790E+03</totfact>
</mgrwt>
</event>
<event>
 6    4  0.5642870E-004  0.1317083E+03  0.7818608E-02  0.1224943E+00
         -4   -1    0    0    0  501 -0.00000000000E+00  0.00000000000E+00  0.89471495520E+01  0.90368349054E+01  0.12700000000E+01 0.  1.
          4   -1    0    0  502    0  0.00000000000E+00 -0.00000000000E+00 -0.85808920395E+03  0.85809014377E+03  0.12700000000E+01 0.  1.
         25    2    1    2    0    0  0.84883133462E+01  0.40631594574E+02 -0.57727298823E+03  0.59210740287E+03  0.12499638252E+03 0.  0.
    9000005    1    3    3    0    0 -0.64970142075E+01 -0.44639462031E+02 -0.19562310067E+03  0.20075928441E+03  0.10000000000E+01 0.  0.
    9000005    1    3    3    0    0  0.14985327554E+02  0.85271056605E+02 -0.38164988757E+03  0.39134811845E+03  0.10000000000E+01 0.  0.
         21    1    1    2  502  501 -0.84883133462E+01 -0.40631594574E+02 -0.27186906617E+03  0.27501957581E+03  0.00000000000E+00 0.  1.
<mgrwt>
<rscale>  1 0.13170829E+03</rscale>
<asrwt>0</asrwt>
<pdfrwt beam="2">  1        4 0.13202063E+00 0.13170829E+03</pdfrwt>
<pdfrwt beam="1">  1       -4 0.13834564E-02 0.13170829E+03</pdfrwt>
<totfact> 0.12947976E+03</totfact>
</mgrwt>
</event>
<event>
 6    4  0.5642870E-004  0.1468941E+03  0.7818608E-02  0.1204342E+00
          4   -1    0    0  502    0  0.00000000000E+00  0.00000000000E+00  0.13357324862E+03  0.13357928600E+03  0.12700000000E+01 0.  1.
         -4   -1    0    0    0  501 -0.00000000000E+00 -0.00000000000E+00 -0.97059834198E+02  0.97068142634E+02  0.12700000000E+01 0.  1.
         25    2    1    2    0    0  0.77152395030E+02  0.99916442563E+00  0.40846335821E+01  0.14695085633E+03  0.12499751820E+03 0.  0.
    9000005    1    3    3    0    0  0.95392187053E+02  0.24002077183E+02  0.34900358643E+02  0.10437817824E+03  0.10000000000E+01 0.  0.
    9000005    1    3    3    0    0 -0.18239792023E+02 -0.23002912757E+02 -0.30815725061E+02  0.42572678086E+02  0.10000000000E+01 0.  0.
         21    1    1    2  502  501 -0.77152395030E+02 -0.99916442563E+00  0.32428780844E+02  0.83696572304E+02  0.00000000000E+00 0.  1.
<mgrwt>
<rscale>  1 0.14689408E+03</rscale>
<asrwt>0</asrwt>
<pdfrwt beam="1">  1        4 0.20550834E-01 0.14689408E+03</pdfrwt>
<pdfrwt beam="2">  1       -4 0.14933386E-01 0.14689408E+03</pdfrwt>
<totfact> 0.13666595E+03</totfact>
</mgrwt>
</event>
<event>
 6    4  0.5642870E-004  0.1305746E+03  0.7818608E-02  0.1226606E+00
         -4   -1    0    0    0  501 -0.00000000000E+00  0.00000000000E+00  0.47369270593E+02  0.47386292285E+02  0.12700000000E+01 0.  1.
          4   -1    0    0  502    0  0.00000000000E+00 -0.00000000000E+00 -0.14959052960E+03  0.14959592055E+03  0.12700000000E+01 0.  1.
         25    2    1    2    0    0  0.28082470367E+02  0.25225626550E+02 -0.77087996582E+02  0.15163203911E+03  0.12499903476E+03 0.  0.
    9000005    1    3    3    0    0 -0.40965744287E+02 -0.19534767260E+02 -0.12688643438E+02  0.47135984228E+02  0.10000000000E+01 0.  0.
    9000005    1    3    3    0    0  0.69048214654E+02  0.44760393810E+02 -0.64399353143E+02  0.10449605488E+03  0.10000000000E+01 0.  0.
         21    1    1    2  502  501 -0.28082470367E+02 -0.25225626550E+02 -0.25133262425E+02  0.45350173725E+02  0.00000000000E+00 0.  1.
<mgrwt>
<rscale>  1 0.13057456E+03</rscale>
<asrwt>0</asrwt>
<pdfrwt beam="2">  1        4 0.23015651E-01 0.13057456E+03</pdfrwt>
<pdfrwt beam="1">  1       -4 0.72893042E-02 0.13057456E+03</pdfrwt>
<totfact> 0.36490436E+03</totfact>
</mgrwt>
</event>
<event>
 6    4  0.5642870E-004  0.1463382E+03  0.7818608E-02  0.1205046E+00
         -4   -1    0    0    0  501 -0.00000000000E+00  0.00000000000E+00  0.74743083499E+02  0.74753872348E+02  0.12700000000E+01 0. -1.
          4   -1    0    0  502    0  0.00000000000E+00 -0.00000000000E+00 -0.17356784849E+03  0.17357249474E+03  0.12700000000E+01 0. -1.
         25    2    1    2    0    0 -0.19931102383E+02  0.73436271763E+02 -0.38762017138E+02  0.15138479431E+03  0.12499890849E+03 0.  0.
    9000005    1    3    3    0    0 -0.57963325884E+02  0.78519504776E+01  0.12551311412E+02  0.59832563809E+02  0.10000000000E+01 0.  0.
    9000005    1    3    3    0    0  0.38032223500E+02  0.65584321286E+02 -0.51313328550E+02  0.91552230501E+02  0.10000000000E+01 0.  0.
         21    1    1    2  502  501  0.19931102383E+02 -0.73436271763E+02 -0.60062747858E+02  0.96941572779E+02  0.00000000000E+00 0. -1.
<mgrwt>
<rscale>  1 0.14633818E+03</rscale>
<asrwt>0</asrwt>
<pdfrwt beam="2">  1        4 0.26703933E-01 0.14633818E+03</pdfrwt>
<pdfrwt beam="1">  1       -4 0.11500123E-01 0.14633818E+03</pdfrwt>
<totfact> 0.13259484E+03</totfact>
</mgrwt>
</event>
<event>
 6    4  0.5642870E-004  0.1294633E+03  0.7818608E-02  0.1228254E+00
          4   -1    0    0  502    0  0.00000000000E+00  0.00000000000E+00  0.14880121421E+02  0.14934219548E+02  0.12700000000E+01 0. -1.
         -4   -1    0    0    0  501 -0.00000000000E+00 -0.00000000000E+00 -0.47391041837E+03  0.47391212006E+03  0.12700000000E+01 0. -1.
         25    2    1    2    0    0 -0.17613482524E+02  0.28731897527E+02 -0.40478910420E+03  0.42498818670E+03  0.12499993301E+03 0.  0.
    9000005    1    3    3    0    0 -0.48851675090E+02  0.44163906256E+02 -0.11048308778E+03  0.12862522871E+03  0.10000000000E+01 0.  0.
    9000005    1    3    3    0    0  0.31238192566E+02 -0.15432008729E+02 -0.29430601642E+03  0.29636295799E+03  0.10000000000E+01 0.  0.
         21    1    1    2  502  501  0.17613482524E+02 -0.28731897527E+02 -0.54241192749E+02  0.63858152909E+02  0.00000000000E+00 0. -1.
<mgrwt>
<rscale>  1 0.12946328E+03</rscale>
<asrwt>0</asrwt>
<pdfrwt beam="1">  1        4 0.22935421E-02 0.12946328E+03</pdfrwt>
<pdfrwt beam="2">  1       -4 0.72913576E-01 0.12946328E+03</pdfrwt>
<totfact> 0.23330821E+03</totfact>
</mgrwt>
</event>
<event>
 6    4  0.5642870E-004  0.1273621E+03  0.7818608E-02  0.1231423E+00
         -4   -1    0    0    0  501 -0.00000000000E+00  0.00000000000E+00  0.18031175049E+03  0.18031622297E+03  0.12700000000E+01 0.  1.
          4   -1    0    0  502    0  0.00000000000E+00 -0.00000000000E+00 -0.32566233037E+02  0.32590987009E+02  0.12700000000E+01 0.  1.
         25    2    1    2    0    0  0.56060837034E+00 -0.24384410441E+02  0.13416638061E+03  0.18499114450E+03  0.12500476832E+03 0.  0.
    9000005    1    3    3    0    0 -0.40913414998E+01  0.51327795973E+02  0.54082880072E+02  0.74680918792E+02  0.10000000000E+01 0.  0.
    9000005    1    3    3    0    0  0.46519498701E+01 -0.75712206414E+02  0.80083500533E+02  0.11031022571E+03  0.10000000000E+01 0.  0.
         21    1    1    2  502  501 -0.56060837034E+00  0.24384410441E+02  0.13579136849E+02  0.27916065479E+02  0.00000000000E+00 0.  1.
<mgrwt>
<rscale>  1 0.12736211E+03</rscale>
<asrwt>0</asrwt>
<pdfrwt beam="2">  1        4 0.50124380E-02 0.12736211E+03</pdfrwt>
<pdfrwt beam="1">  1       -4 0.27742517E-01 0.12736211E+03</pdfrwt>
<totfact> 0.47194905E+03</totfact>
</mgrwt>
</event>
<event>
 6    4  0.5642870E-004  0.1607857E+03  0.7818608E-02  0.1187813E+00
          4   -1    0    0  502    0  0.00000000000E+00  0.00000000000E+00  0.18138558085E+03  0.18139002685E+03  0.12700000000E+01 0. -1.
         -4   -1    0    0    0  501 -0.00000000000E+00 -0.00000000000E+00 -0.98384903371E+02  0.98393099917E+02  0.12700000000E+01 0. -1.
         25    2    1    2    0    0  0.91676465004E+02  0.42658164462E+02  0.23592796920E+02  0.16250742808E+03  0.12501100304E+03 0.  0.
    9000005    1    3    3    0    0  0.85318563103E+02  0.69296488532E+02  0.53240203347E+02  0.12213426950E+03  0.10000000000E+01 0.  0.
    9000005    1    3    3    0    0  0.63579019006E+01 -0.26638324069E+02 -0.29647406427E+02  0.40373158579E+02  0.10000000000E+01 0.  0.
         21    1    1    2  502  501 -0.91676465004E+02 -0.42658164462E+02  0.59407880559E+02  0.11727569869E+03  0.00000000000E+00 0. -1.
<mgrwt>
<rscale>  1 0.16078571E+03</rscale>
<asrwt>0</asrwt>
<pdfrwt beam="1">  1        4 0.27906447E-01 0.16078571E+03</pdfrwt>
<pdfrwt beam="2">  1       -4 0.15137111E-01 0.16078571E+03</pdfrwt>
<totfact> 0.77367343E+02</totfact>
</mgrwt>
</event>
<event>
 6    4  0.5642870E-004  0.1506453E+03  0.7818608E-02  0.1199682E+00
         -4   -1    0    0    0  501 -0.00000000000E+00  0.00000000000E+00  0.48861794264E+03  0.48861959311E+03  0.12700000000E+01 0. -1.
          4   -1    0    0  502    0  0.00000000000E+00 -0.00000000000E+00 -0.31076123742E+02  0.31102063707E+02  0.12700000000E+01 0. -1.
         25    2    1    2    0    0  0.64629739544E+02  0.53783402242E+02  0.36401952174E+03  0.39395966870E+03  0.12499740302E+03 0.  0.
    9000005    1    3    3    0    0  0.59250751344E+02  0.52346729027E+02  0.89668300845E+02  0.11955013907E+03  0.10000000000E+01 0.  0.
    9000005    1    3    3    0    0  0.53789882004E+01  0.14366732151E+01  0.27435122090E+03  0.27440952963E+03  0.10000000000E+01 0.  0.
         21    1    1    2  502  501 -0.64629739544E+02 -0.53783402242E+02  0.93522297156E+02  0.12576198812E+03  0.00000000000E+00 0. -1.
<mgrwt>
<rscale>  1 0.15064531E+03</rscale>
<asrwt>0</asrwt>
<pdfrwt beam="2">  1        4 0.47830651E-02 0.15064531E+03</pdfrwt>
<pdfrwt beam="1">  1       -4 0.75174104E-01 0.15064531E+03</pdfrwt>
<totfact> 0.70802249E+02</totfact>
</mgrwt>
</event>
<event>
 6    4  0.5642870E-004  0.1385369E+03  0.7818608E-02  0.1215311E+00
         -4   -1    0    0    0  501 -0.00000000000E+00  0.00000000000E+00  0.83060682319E+02  0.83070390919E+02  0.12700000000E+01 0. -1.
          4   -1    0    0  502    0  0.00000000000E+00 -0.00000000000E+00 -0.16012333682E+03  0.16012837317E+03  0.12700000000E+01 0. -1.
         25    2    1    2    0    0  0.28810922693E+02  0.52317350527E+02  0.85624546062E+01  0.13880128451E+03  0.12500122608E+03 0.  0.
    9000005    1    3    3    0    0  0.48807008292E+02 -0.94143911623E+01  0.42643130820E+02  0.65499552865E+02  0.10000000000E+01 0.  0.
    9000005    1    3    3    0    0 -0.19996085599E+02  0.61731741689E+02 -0.34080676214E+02  0.73301731647E+02  0.10000000000E+01 0.  0.
         21    1    1    2  502  501 -0.28810922693E+02 -0.52317350527E+02 -0.85625109106E+02  0.10439747958E+03  0.00000000000E+00 0. -1.
<mgrwt>
<rscale>  1 0.13853693E+03</rscale>
<asrwt>0</asrwt>
<pdfrwt beam="2">  1        4 0.24635494E-01 0.13853693E+03</pdfrwt>
<pdfrwt beam="1">  1       -4 0.12779701E-01 0.13853693E+03</pdfrwt>
<totfact> 0.12703661E+03</totfact>
</mgrwt>
</event>
<event>
 6    4  0.5642870E-004  0.1703744E+03  0.7818608E-02  0.1177458E+00
          4   -1    0    0  502    0  0.00000000000E+00  0.00000000000E+00  0.48979891889E+02  0.48996354043E+02  0.12700000000E+01 0.  1.
         -4   -1    0    0    0  501 -0.00000000000E+00 -0.00000000000E+00 -0.49539968515E+03  0.49540131302E+03  0.12700000000E+01 0.  1.
         25    2    1    2    0    0 -0.49187353486E+02  0.10479894105E+03 -0.15309328937E+03  0.22905237747E+03  0.12500089034E+03 0.  0.
    9000005    1    3    3    0    0 -0.34448456104E+02  0.51158764982E+02 -0.16141184045E+03  0.17279669441E+03  0.10000000000E+01 0.  0.
    9000005    1    3    3    0    0 -0.14738897382E+02  0.53640176066E+02  0.83185510760E+01  0.56255683059E+02  0.10000000000E+01 0.  0.
         21    1    1    2  502  501  0.49187353486E+02 -0.10479894105E+03 -0.29332650389E+03  0.31534528960E+03  0.00000000000E+00 0.  1.
<mgrwt>
<rscale>  1 0.17037440E+03</rscale>
<asrwt>0</asrwt>
<pdfrwt beam="1">  1        4 0.75367599E-02 0.17037440E+03</pdfrwt>
<pdfrwt beam="2">  1       -4 0.76216724E-01 0.17037440E+03</pdfrwt>
<totfact> 0.33452274E+02</totfact>
</mgrwt>
</event>
<event>
 6    4  0.5642870E-004  0.1335353E+03  0.7818608E-02  0.1222302E+00
          4   -1    0    0  502    0  0.00000000000E+00  0.00000000000E+00  0.69856147148E+02  0.69867690633E+02  0.12700000000E+01 0.  1.
         -4   -1    0    0    0  501 -0.00000000000E+00 -0.00000000000E+00 -0.11684816290E+03  0.11685506439E+03  0.12700000000E+01 0.  1.
         25    2    1    2    0    0 -0.46774466932E+02  0.43312315539E+01 -0.30854306271E+02  0.13705348896E+03  0.12500024119E+03 0.  0.
    9000005    1    3    3    0    0 -0.25365998255E+02  0.45209010856E+02  0.30593706092E+02  0.60201855308E+02  0.10000000000E+01 0.  0.
    9000005    1    3    3    0    0 -0.21408468677E+02 -0.40877779302E+02 -0.61448012363E+02  0.76851633654E+02  0.10000000000E+01 0.  0.
         21    1    1    2  502  501  0.46774466932E+02 -0.43312315539E+01 -0.16137709481E+02  0.49669266059E+02  0.00000000000E+00 0. -1.
<mgrwt>
<rscale>  1 0.13353528E+03</rscale>
<asrwt>0</asrwt>
<pdfrwt beam="1">  1        4 0.10748518E-01 0.13353528E+03</pdfrwt>
<pdfrwt beam="2">  1       -4 0.17978059E-01 0.13353528E+03</pdfrwt>
<totfact> 0.29947553E+03</totfact>
</mgrwt>
</event>
<event>
 6    4  0.5642870E-004  0.1270351E+03  0.7818608E-02  0.1231923E+00
          4   -1    0    0  502    0  0.00000000000E+00  0.00000000000E+00  0.34555259137E+03  0.34555492516E+03  0.12700000000E+01 0. -1.
         -4   -1    0    0    0  501 -0.00000000000E+00 -0.00000000000E+00 -0.19488262168E+02  0.19529599645E+02  0.12700000000E+01 0. -1.
         25    2    1    2    0    0  0.17638094376E+02  0.13809618936E+02  0.19921303974E+03  0.23627048215E+03  0.12504438245E+03 0.  0.
    9000005    1    3    3    0    0 -0.10439419834E+02  0.65444258199E+02  0.12609366434E+03  0.14245190277E+03  0.10000000000E+01 0.  0.
    9000005    1    3    3    0    0  0.28077514210E+02 -0.51634639263E+02  0.73119375404E+02  0.93818579373E+02  0.10000000000E+01 0.  0.
         21    1    1    2  502  501 -0.17638094376E+02 -0.13809618936E+02  0.12685128946E+03  0.12881404265E+03  0.00000000000E+00 0. -1.
<mgrwt>
<rscale>  1 0.12703506E+03</rscale>
<asrwt>0</asrwt>
<pdfrwt beam="1">  1        4 0.53165295E-01 0.12703506E+03</pdfrwt>
<pdfrwt beam="2">  1       -4 0.30015536E-02 0.12703506E+03</pdfrwt>
<totfact> 0.29777115E+03</totfact>
</mgrwt>
</event>
<event>
 6    4  0.5642870E-004  0.1283594E+03  0.7818608E-02  0.1229911E+00
         -4   -1    0    0    0  501 -0.00000000000E+00  0.00000000000E+00  0.62205058509E+02  0.62218021538E+02  0.12700000000E+01 0. -1.
          4   -1    0    0  502    0  0.00000000000E+00 -0.00000000000E+00 -0.11231821413E+03  0.11232539395E+03  0.12700000000E+01 0. -1.
         25    2    1    2    0    0  0.15851743626E+02  0.24453323143E+02 -0.15493320795E+02  0.12929105917E+03  0.12500756858E+03 0.  0.
    9000005    1    3    3    0    0  0.60921101786E+02 -0.18254848208E+02 -0.20916512034E+02  0.66956109517E+02  0.10000000000E+01 0.  0.
    9000005    1    3    3    0    0 -0.45069358160E+02  0.42708171351E+02  0.54231912388E+01  0.62334949654E+02  0.10000000000E+01 0.  0.
         21    1    1    2  502  501 -0.15851743626E+02 -0.24453323143E+02 -0.34619834828E+02  0.45252356317E+02  0.00000000000E+00 0. -1.
<mgrwt>
<rscale>  1 0.12835940E+03</rscale>
<asrwt>0</asrwt>
<pdfrwt beam="2">  1        4 0.17281275E-01 0.12835940E+03</pdfrwt>
<pdfrwt beam="1">  1       -4 0.95715585E-02 0.12835940E+03</pdfrwt>
<totfact> 0.38685983E+03</totfact>
</mgrwt>
</event>
<event>
 6    4  0.5642870E-004  0.1293575E+03  0.7818608E-02  0.1228412E+00
          4   -1    0    0  502    0  0.00000000000E+00  0.00000000000E+00  0.51080176867E+02  0.51095962353E+02  0.12700000000E+01 0. -1.
         -4   -1    0    0    0  501 -0.00000000000E+00 -0.00000000000E+00 -0.13025031218E+03  0.13025650357E+03  0.12700000000E+01 0. -1.
         25    2    1    2    0    0  0.31505332047E+02 -0.10744539884E+02 -0.68634143496E+02  0.14643773826E+03  0.12500133778E+03 0.  0.
    9000005    1    3    3    0    0  0.83892948773E+01  0.31808099496E+02  0.24790704306E+02  0.41203330958E+02  0.10000000000E+01 0.  0.
    9000005    1    3    3    0    0  0.23116037170E+02 -0.42552639380E+02 -0.93424847802E+02  0.10523440730E+03  0.10000000000E+01 0.  0.
         21    1    1    2  502  501 -0.31505332047E+02  0.10744539884E+02 -0.10535991818E+02  0.34914727670E+02  0.00000000000E+00 0. -1.
<mgrwt>
<rscale>  1 0.12935751E+03</rscale>
<asrwt>0</asrwt>
<pdfrwt beam="1">  1        4 0.78601793E-02 0.12935751E+03</pdfrwt>
<pdfrwt beam="2">  1       -4 0.20040200E-01 0.12935751E+03</pdfrwt>
<totfact> 0.41316112E+03</totfact>
</mgrwt>
</event>
<event>
 6    4  0.5642870E-004  0.1332878E+03  0.7818608E-02  0.1222657E+00
          4   -1    0    0  502    0  0.00000000000E+00  0.00000000000E+00  0.46651937402E+03  0.46652110267E+03  0.12700000000E+01 0. -1.
         -4   -1    0    0    0  501 -0.00000000000E+00 -0.00000000000E+00 -0.25846955142E+02  0.25878137300E+02  0.12700000000E+01 0. -1.
         25    2    1    2    0    0 -0.99092808769E+01  0.45169437940E+02  0.16138943553E+03  0.20931364027E+03  0.12500871222E+03 0.  0.
    9000005    1    3    3    0    0 -0.56766919805E+02 -0.37714129840E+01  0.11145446297E+03  0.12513913879E+03  0.10000000000E+01 0.  0.
    9000005    1    3    3    0    0  0.46857638928E+02  0.48940850924E+02  0.49934972559E+02  0.84174501481E+02  0.10000000000E+01 0.  0.
         21    1    1    2  502  501  0.99092808769E+01 -0.45169437940E+02  0.27928298335E+03  0.28308559970E+03  0.00000000000E+00 0. -1.
<mgrwt>
<rscale>  1 0.13328785E+03</rscale>
<asrwt>0</asrwt>
<pdfrwt beam="1">  1        4 0.71774744E-01 0.13328785E+03</pdfrwt>
<pdfrwt beam="2">  1       -4 0.39789862E-02 0.13328785E+03</pdfrwt>
<totfact> 0.10252260E+03</totfact>
</mgrwt>
</event>
<event>
 6    4  0.5642870E-004  0.1267240E+03  0.7818608E-02  0.1232399E+00
         -4   -1    0    0    0  501 -0.00000000000E+00  0.00000000000E+00  0.52980865655E+02  0.52996085002E+02  0.12700000000E+01 0. -1.
          4   -1    0    0  502    0  0.00000000000E+00 -0.00000000000E+00 -0.10387988306E+03  0.10388764607E+03  0.12700000000E+01 0. -1.
         25    2    1    2    0    0 -0.18227428697E+02 -0.99668522028E+01 -0.37472882243E+02  0.13214836357E+03  0.12500958280E+03 0.  0.
    9000005    1    3    3    0    0  0.39490766252E+02 -0.29479566540E+02 -0.49700767799E+02  0.69998084133E+02  0.10000000000E+01 0.  0.
    9000005    1    3    3    0    0 -0.57718194949E+02  0.19512714337E+02  0.12227885556E+02  0.62150279438E+02  0.10000000000E+01 0.  0.
         21    1    1    2  502  501  0.18227428697E+02  0.99668522028E+01 -0.13426135166E+02  0.24735367498E+02  0.00000000000E+00 0. -1.
<mgrwt>
<rscale>  1 0.12672400E+03</rscale>
<asrwt>0</asrwt>
<pdfrwt beam="2">  1        4 0.15983288E-01 0.12672400E+03</pdfrwt>
<pdfrwt beam="1">  1       -4 0.81526703E-02 0.12672400E+03</pdfrwt>
<totfact> 0.57812235E+03</totfact>
</mgrwt>
</event>
<event>
 6    4  0.5642870E-004  0.1305376E+03  0.7818608E-02  0.1226660E+00
         -4   -1    0    0    0  501 -0.00000000000E+00  0.00000000000E+00  0.63118674811E+01  0.64383671143E+01  0.12700000000E+01 0.  1.
          4   -1    0    0  502    0  0.00000000000E+00 -0.00000000000E+00 -0.12931478089E+04  0.12931484325E+04  0.12700000000E+01 0.  1.
         25    2    1    2    0    0  0.34926985239E+02 -0.13971250169E+02 -0.11590853637E+04  0.11664128524E+04  0.12499988667E+03 0.  0.
    9000005    1    3    3    0    0  0.62721548306E+02  0.25711831554E+02 -0.91832879771E+03  0.92082781865E+03  0.10000000000E+01 0.  0.
    9000005    1    3    3    0    0 -0.27794563067E+02 -0.39683081723E+02 -0.24075656601E+03  0.24558503372E+03  0.10000000000E+01 0.  0.
         21    1    1    2  502  501 -0.34926985239E+02  0.13971250169E+02 -0.12775057767E+03  0.13317394724E+03  0.00000000000E+00 0.  1.
<mgrwt>
<rscale>  1 0.13053759E+03</rscale>
<asrwt>0</asrwt>
<pdfrwt beam="2">  1        4 0.19895539E+00 0.13053759E+03</pdfrwt>
<pdfrwt beam="1">  1       -4 0.98083628E-03 0.13053759E+03</pdfrwt>
<totfact> 0.74073928E+02</totfact>
</mgrwt>
</event>
<event>
 6    4  0.5642870E-004  0.1276439E+03  0.7818608E-02  0.1230994E+00
         -4   -1    0    0    0  501 -0.00000000000E+00  0.00000000000E+00  0.24282495684E+02  0.24315684170E+02  0.12700000000E+01 0.  1.
          4   -1    0    0  502    0  0.00000000000E+00 -0.00000000000E+00 -0.41132017191E+03  0.41132213254E+03  0.12700000000E+01 0.  1.
         25    2    1    2    0    0  0.16732887463E+02  0.19610312545E+02 -0.14895950298E+03  0.19616804732E+03  0.12501366076E+03 0.  0.
    9000005    1    3    3    0    0 -0.40968490554E+02 -0.17780187417E+02 -0.10615097320E+03  0.11516762303E+03  0.10000000000E+01 0.  0.
    9000005    1    3    3    0    0  0.57701378017E+02  0.37390499962E+02 -0.42808529785E+02  0.81000424288E+02  0.10000000000E+01 0.  0.
         21    1    1    2  502  501 -0.16732887463E+02 -0.19610312545E+02 -0.23807817324E+03  0.23946976939E+03  0.00000000000E+00 0.  1.
<mgrwt>
<rscale>  1 0.12764392E+03</rscale>
<asrwt>0</asrwt>
<pdfrwt beam="2">  1        4 0.63282725E-01 0.12764392E+03</pdfrwt>
<pdfrwt beam="1">  1       -4 0.37384726E-02 0.12764392E+03</pdfrwt>
<totfact> 0.14678420E+03</totfact>
</mgrwt>
</event>
<event>
 6    4  0.5642870E-004  0.1296664E+03  0.7818608E-02  0.1227952E+00
          4   -1    0    0  502    0  0.00000000000E+00  0.00000000000E+00  0.45756209355E+03  0.45756385604E+03  0.12700000000E+01 0.  1.
         -4   -1    0    0    0  501 -0.00000000000E+00 -0.00000000000E+00 -0.15824337277E+02  0.15875218117E+02  0.12700000000E+01 0.  1.
         25    2    1    2    0    0  0.24351573404E+02  0.24358002608E+02  0.28727766999E+03  0.31518538645E+03  0.12500822668E+03 0.  0.
    9000005    1    3    3    0    0 -0.81380273291E+01  0.70908841596E+02  0.13581160685E+03  0.15342778060E+03  0.10000000000E+01 0.  0.
    9000005    1    3    3    0    0  0.32489600733E+02 -0.46550838988E+02  0.15146606315E+03  0.16175760585E+03  0.10000000000E+01 0.  0.
         21    1    1    2  502  501 -0.24351573404E+02 -0.24358002608E+02  0.15446008628E+03  0.15825368770E+03  0.00000000000E+00 0.  1.
<mgrwt>
<rscale>  1 0.12966637E+03</rscale>
<asrwt>0</asrwt>
<pdfrwt beam="1">  1        4 0.70398226E-01 0.12966637E+03</pdfrwt>
<pdfrwt beam="2">  1       -4 0.24385626E-02 0.12966637E+03</pdfrwt>
<totfact> 0.22900310E+03</totfact>
</mgrwt>
</event>
<event>
 6    4  0.5642870E-004  0.1293374E+03  0.7818608E-02  0.1228442E+00
         -4   -1    0    0    0  501 -0.00000000000E+00  0.00000000000E+00  0.23871548514E+03  0.23871886340E+03  0.12700000000E+01 0.  1.
          4   -1    0    0  502    0  0.00000000000E+00 -0.00000000000E+00 -0.27674047103E+02  0.27703172798E+02  0.12700000000E+01 0.  1.
         25    2    1    2    0    0 -0.67241597214E+01  0.32499719134E+02  0.17135795520E+03  0.21468979405E+03  0.12500685098E+03 0.  0.
    9000005    1    3    3    0    0 -0.48356357060E+02 -0.26182329594E+02  0.94979982566E+02  0.10975449303E+03  0.10000000000E+01 0.  0.
    9000005    1    3    3    0    0  0.41632197338E+02  0.58682048728E+02  0.76377972632E+02  0.10493530103E+03  0.10000000000E+01 0.  0.
         21    1    1    2  502  501  0.67241597214E+01 -0.32499719134E+02  0.39683482837E+02  0.51732242149E+02  0.00000000000E+00 0. -1.
<mgrwt>
<rscale>  1 0.12933738E+03</rscale>
<asrwt>0</asrwt>
<pdfrwt beam="2">  1        4 0.42600460E-02 0.12933738E+03</pdfrwt>
<pdfrwt beam="1">  1       -4 0.36727960E-01 0.12933738E+03</pdfrwt>
<totfact> 0.36016410E+03</totfact>
</mgrwt>
</event>
<event>
 6    4  0.5642870E-004  0.1637265E+03  0.7818608E-02  0.1184553E+00
          4   -1    0    0  502    0  0.00000000000E+00  0.00000000000E+00  0.34996284312E+02  0.35019320606E+02  0.12700000000E+01 0. -1.
         -4   -1    0    0    0  501 -0.00000000000E+00 -0.00000000000E+00 -0.59031041164E+03  0.59031177779E+03  0.12700000000E+01 0. -1.
         25    2    1    2    0    0 -0.70450240969E+02  0.78857789275E+02 -0.43692070691E+03  0.46658983287E+03  0.12499832249E+03 0.  0.
    9000005    1    3    3    0    0 -0.40331558387E+02  0.52478744380E+02 -0.65868967149E+02  0.93382943019E+02  0.10000000000E+01 0.  0.
    9000005    1    3    3    0    0 -0.30118682582E+02  0.26379044895E+02 -0.37105173976E+03  0.37320688985E+03  0.10000000000E+01 0.  0.
         21    1    1    2  502  501  0.70450240969E+02 -0.78857789275E+02 -0.11839342042E+03  0.15874126552E+03  0.00000000000E+00 0. -1.
<mgrwt>
<rscale>  1 0.16372650E+03</rscale>
<asrwt>0</asrwt>
<pdfrwt beam="1">  1        4 0.53859213E-02 0.16372650E+03</pdfrwt>
<pdfrwt beam="2">  1       -4 0.90818856E-01 0.16372650E+03</pdfrwt>
<totfact> 0.38932523E+02</totfact>
</mgrwt>
</event>
<event>
 6    4  0.5642870E-004  0.1278745E+03  0.7818608E-02  0.1230644E+00
         -4   -1    0    0    0  501 -0.00000000000E+00  0.00000000000E+00  0.74081053993E+03  0.74081162853E+03  0.12700000000E+01 0.  1.
          4   -1    0    0  502    0  0.00000000000E+00 -0.00000000000E+00 -0.12200289832E+02  0.12266212618E+02  0.12700000000E+01 0.  1.
         25    2    1    2    0    0  0.12625373972E+02  0.23823675727E+02  0.70714656453E+03  0.71861543568E+03  0.12499965228E+03 0.  0.
    9000005    1    3    3    0    0  0.63749711142E+02  0.38133054099E+02  0.38111949373E+03  0.38829270401E+03  0.10000000000E+01 0.  0.
    9000005    1    3    3    0    0 -0.51124337170E+02 -0.14309378372E+02  0.32602707080E+03  0.33032273166E+03  0.10000000000E+01 0.  0.
         21    1    1    2  502  501 -0.12625373972E+02 -0.23823675727E+02  0.21463685563E+02  0.34462405474E+02  0.00000000000E+00 0.  1.
<mgrwt>
<rscale>  1 0.12787447E+03</rscale>
<asrwt>0</asrwt>
<pdfrwt beam="2">  1        4 0.18821212E-02 0.12787447E+03</pdfrwt>
<pdfrwt beam="1">  1       -4 0.11397608E+00 0.12787447E+03</pdfrwt>
<totfact> 0.11461664E+03</totfact>
</mgrwt>
</event>
<event>
 6    4  0.5642870E-004  0.1272416E+03  0.7818608E-02  0.1231607E+00
          4   -1    0    0  502    0  0.00000000000E+00  0.00000000000E+00  0.11612561744E+02  0.11681801670E+02  0.12700000000E+01 0.  1.
         -4   -1    0    0    0  501 -0.00000000000E+00 -0.00000000000E+00 -0.69535588891E+03  0.69535704868E+03  0.12700000000E+01 0.  1.
         25    2    1    2    0    0  0.15302482275E+02  0.18202009035E+02 -0.66414391878E+03  0.67622301179E+03  0.12499975091E+03 0.  0.
    9000005    1    3    3    0    0 -0.25597478369E+02  0.24590929319E+02 -0.59181804825E+03  0.59288240565E+03  0.10000000000E+01 0.  0.
    9000005    1    3    3    0    0  0.40899960644E+02 -0.63889202840E+01 -0.72325870531E+02  0.83340606136E+02  0.10000000000E+01 0.  0.
         21    1    1    2  502  501 -0.15302482275E+02 -0.18202009035E+02 -0.19599408390E+02  0.30815838556E+02  0.00000000000E+00 0.  1.
<mgrwt>
<rscale>  1 0.12724157E+03</rscale>
<asrwt>0</asrwt>
<pdfrwt beam="1">  1        4 0.17919639E-02 0.12724157E+03</pdfrwt>
<pdfrwt beam="2">  1       -4 0.10698321E+00 0.12724157E+03</pdfrwt>
<totfact> 0.14328344E+03</totfact>
</mgrwt>
</event>
<event>
 6    4  0.5642870E-004  0.1269985E+03  0.7818608E-02  0.1231979E+00
         -4   -1    0    0    0  501 -0.00000000000E+00  0.00000000000E+00  0.51052129401E+03  0.51052287367E+03  0.12700000000E+01 0.  1.
          4   -1    0    0  502    0  0.00000000000E+00 -0.00000000000E+00 -0.16592328519E+02  0.16640861326E+02  0.12700000000E+01 0.  1.
         25    2    1    2    0    0  0.15078453977E+02  0.16627763237E+02  0.48756361472E+03  0.50383221179E+03  0.12499910779E+03 0.  0.
    9000005    1    3    3    0    0 -0.29650165885E+02  0.90227253682E+01  0.27231620805E+02  0.41268669493E+02  0.10000000000E+01 0.  0.
    9000005    1    3    3    0    0  0.44728619862E+02  0.76050378691E+01  0.46033199392E+03  0.46256354230E+03  0.10000000000E+01 0.  0.
         21    1    1    2  502  501 -0.15078453977E+02 -0.16627763237E+02  0.63653507663E+01  0.23331523203E+02  0.00000000000E+00 0.  1.
<mgrwt>
<rscale>  1 0.12699850E+03</rscale>
<asrwt>0</asrwt>
<pdfrwt beam="2">  1        4 0.25565206E-02 0.12699850E+03</pdfrwt>
<pdfrwt beam="1">  1       -4 0.78545596E-01 0.12699850E+03</pdfrwt>
<totfact> 0.16683647E+03</totfact>
</mgrwt>
</event>
<event>
 6    4  0.5642870E-004  0.1278450E+03  0.7818608E-02  0.1230689E+00
          4   -1    0    0  502    0  0.00000000000E+00  0.00000000000E+00  0.14668851924E+03  0.14669401684E+03  0.12700000000E+01 0. -1.
         -4   -1    0    0    0  501 -0.00000000000E+00 -0.00000000000E+00 -0.49214290189E+02  0.49230673963E+02  0.12700000000E+01 0. -1.
         25    2    1    2    0    0 -0.13087941345E+02  0.23417123083E+02  0.42448303070E+02  0.13470779451E+03  0.12499870241E+03 0.  0.
    9000005    1    3    3    0    0 -0.65318166860E+02  0.33809906247E+02  0.16162941197E+02  0.75311442362E+02  0.10000000000E+01 0.  0.
    9000005    1    3    3    0    0  0.52230225516E+02 -0.10392783165E+02  0.26285361873E+02  0.59396352145E+02  0.10000000000E+01 0.  0.
         21    1    1    2  502  501  0.13087941345E+02 -0.23417123083E+02  0.55025925980E+02  0.61216896295E+02  0.00000000000E+00 0.  1.
<mgrwt>
<rscale>  1 0.12784495E+03</rscale>
<asrwt>0</asrwt>
<pdfrwt beam="1">  1        4 0.22569148E-01 0.12784495E+03</pdfrwt>
<pdfrwt beam="2">  1       -4 0.75731124E-02 0.12784495E+03</pdfrwt>
<totfact> 0.35329780E+03</totfact>
</mgrwt>
</event>
<event>
 6    4  0.5642870E-004  0.1448162E+03  0.7818608E-02  0.1206991E+00
          4   -1    0    0  502    0  0.00000000000E+00  0.00000000000E+00  0.11176636620E+03  0.11177358146E+03  0.12700000000E+01 0.  1.
         -4   -1    0    0    0  501 -0.00000000000E+00 -0.00000000000E+00 -0.11074188123E+03  0.11074916324E+03  0.12700000000E+01 0.  1.
         25    2    1    2    0    0 -0.53519876590E+02 -0.49835017990E+02  0.21922170528E+02  0.14646605880E+03  0.12499527436E+03 0.  0.
    9000005    1    3    3    0    0  0.38499004409E+02 -0.30715847487E+02 -0.26027467817E+01  0.49329615021E+02  0.10000000000E+01 0.  0.
    9000005    1    3    3    0    0 -0.92018880998E+02 -0.19119170502E+02  0.24524917310E+02  0.97136443779E+02  0.10000000000E+01 0.  0.
         21    1    1    2  502  501  0.53519876590E+02  0.49835017990E+02 -0.20897685557E+02  0.76056685899E+02  0.00000000000E+00 0.  1.
<mgrwt>
<rscale>  1 0.14481618E+03</rscale>
<asrwt>0</asrwt>
<pdfrwt beam="1">  1        4 0.17195941E-01 0.14481618E+03</pdfrwt>
<pdfrwt beam="2">  1       -4 0.17038328E-01 0.14481618E+03</pdfrwt>
<totfact> 0.14863563E+03</totfact>
</mgrwt>
</event>
<event>
 6    4  0.5642870E-004  0.1296429E+03  0.7818608E-02  0.1227987E+00
          4   -1    0    0  502    0  0.00000000000E+00  0.00000000000E+00  0.29089194518E+02  0.29116904673E+02  0.12700000000E+01 0.  1.
         -4   -1    0    0    0  501 -0.00000000000E+00 -0.00000000000E+00 -0.23905604980E+03  0.23905942325E+03  0.12700000000E+01 0.  1.
         25    2    1    2    0    0 -0.30939052223E+02 -0.15036008362E+02 -0.18396086884E+03  0.22505304152E+03  0.12499585486E+03 0.  0.
    9000005    1    3    3    0    0 -0.68406161329E+01 -0.71504253349E+01 -0.19649788679E+03  0.19674943996E+03  0.10000000000E+01 0.  0.
    9000005    1    3    3    0    0 -0.24098436090E+02 -0.78855830275E+01  0.12537017955E+02  0.28303601553E+02  0.10000000000E+01 0.  0.
         21    1    1    2  502  501  0.30939052223E+02  0.15036008362E+02 -0.26005986445E+02  0.43123286411E+02  0.00000000000E+00 0. -1.
<mgrwt>
<rscale>  1 0.12964286E+03</rscale>
<asrwt>0</asrwt>
<pdfrwt beam="1">  1        4 0.44776519E-02 0.12964286E+03</pdfrwt>
<pdfrwt beam="2">  1       -4 0.36780244E-01 0.12964286E+03</pdfrwt>
<totfact> 0.33193796E+03</totfact>
</mgrwt>
</event>
<event>
 6    4  0.5642870E-004  0.1303965E+03  0.7818608E-02  0.1226869E+00
          4   -1    0    0  502    0  0.00000000000E+00  0.00000000000E+00  0.22774575698E+03  0.22774929797E+03  0.12700000000E+01 0. -1.
         -4   -1    0    0    0  501 -0.00000000000E+00 -0.00000000000E+00 -0.72528662400E+02  0.72539780600E+02  0.12700000000E+01 0. -1.
         25    2    1    2    0    0  0.34980333050E+02  0.12445520357E+02 -0.10163503515E+02  0.13079200808E+03  0.12499895158E+03 0.  0.
    9000005    1    3    3    0    0  0.27882782766E+02 -0.23786225712E+02 -0.59059530237E+02  0.69514474897E+02  0.10000000000E+01 0.  0.
    9000005    1    3    3    0    0  0.70975502838E+01  0.36231746068E+02  0.48896026722E+02  0.61277533178E+02  0.10000000000E+01 0.  0.
         21    1    1    2  502  501 -0.34980333050E+02 -0.12445520357E+02  0.16538059810E+03  0.16949707049E+03  0.00000000000E+00 0. -1.
<mgrwt>
<rscale>  1 0.13039652E+03</rscale>
<asrwt>0</asrwt>
<pdfrwt beam="1">  1        4 0.35038937E-01 0.13039652E+03</pdfrwt>
<pdfrwt beam="2">  1       -4 0.11159383E-01 0.13039652E+03</pdfrwt>
<totfact> 0.81416985E+02</totfact>
</mgrwt>
</event>
<event>
 6    4  0.5642870E-004  0.1333817E+03  0.7818608E-02  0.1222522E+00
         -4   -1    0    0    0  501 -0.00000000000E+00  0.00000000000E+00  0.27799240414E+03  0.27799530510E+03  0.12700000000E+01 0.  1.
          4   -1    0    0  502    0  0.00000000000E+00 -0.00000000000E+00 -0.57540018146E+02  0.57554031903E+02  0.12700000000E+01 0.  1.
         25    2    1    2    0    0 -0.32839602544E+02 -0.32976846802E+02  0.24791000400E+03  0.28151386064E+03  0.12499908691E+03 0.  0.
    9000005    1    3    3    0    0  0.36949258222E+02 -0.10395503488E+02  0.17088394672E+03  0.17514461860E+03  0.10000000000E+01 0.  0.
    9000005    1    3    3    0    0 -0.69788860766E+02 -0.22581343315E+02  0.77026057275E+02  0.10636924204E+03  0.10000000000E+01 0.  0.
         21    1    1    2  502  501  0.32839602544E+02  0.32976846802E+02 -0.27457618002E+02  0.54035476371E+02  0.00000000000E+00 0.  1.
<mgrwt>
<rscale>  1 0.13338172E+03</rscale>
<asrwt>0</asrwt>
<pdfrwt beam="2">  1        4 0.88536116E-02 0.13338172E+03</pdfrwt>
<pdfrwt beam="1">  1       -4 0.42769363E-01 0.13338172E+03</pdfrwt>
<totfact> 0.81754856E+02</totfact>
</mgrwt>
</event>
<event>
 6    4  0.5642870E-004  0.1270143E+03  0.7818608E-02  0.1231954E+00
          4   -1    0    0  502    0  0.00000000000E+00  0.00000000000E+00  0.31733347669E+02  0.31758750830E+02  0.12700000000E+01 0. -1.
         -4   -1    0    0    0  501 -0.00000000000E+00 -0.00000000000E+00 -0.20569472739E+03  0.20569864797E+03  0.12700000000E+01 0. -1.
         25    2    1    2    0    0 -0.72325436292E+01  0.21332817909E+02 -0.17337768674E+03  0.21492432300E+03  0.12500097421E+03 0.  0.
    9000005    1    3    3    0    0  0.44812958261E+02  0.30177293686E+02 -0.14551218949E+03  0.15522135025E+03  0.10000000000E+01 0.  0.
    9000005    1    3    3    0    0 -0.52045501890E+02 -0.88444757774E+01 -0.27865497241E+02  0.59702972750E+02  0.10000000000E+01 0.  0.
         21    1    1    2  502  501  0.72325436292E+01 -0.21332817909E+02 -0.58369298343E+00  0.22533075795E+02  0.00000000000E+00 0. -1.
<mgrwt>
<rscale>  1 0.12701434E+03</rscale>
<asrwt>0</asrwt>
<pdfrwt beam="1">  1        4 0.48843093E-02 0.12701434E+03</pdfrwt>
<pdfrwt beam="2">  1       -4 0.31647598E-01 0.12701434E+03</pdfrwt>
<totfact> 0.38359273E+03</totfact>
</mgrwt>
</event>
<event>
 6    4  0.5642870E-004  0.1293451E+03  0.7818608E-02  0.1228431E+00
          4   -1    0    0  502    0  0.00000000000E+00  0.00000000000E+00  0.80869364110E+03  0.80869463833E+03  0.12700000000E+01 0.  1.
         -4   -1    0    0    0  501 -0.00000000000E+00 -0.00000000000E+00 -0.14743644946E+02  0.14798242001E+02  0.12700000000E+01 0.  1.
         25    2    1    2    0    0  0.27166235036E+02 -0.19334839663E+02  0.27966095663E+03  0.30812402550E+03  0.12497329345E+03 0.  0.
    9000005    1    3    3    0    0 -0.98497575729E+01  0.12830240659E+01  0.26203069128E+03  0.26222079827E+03  0.10000000000E+01 0.  0.
    9000005    1    3    3    0    0  0.37015992609E+02 -0.20617863728E+02  0.17630265354E+02  0.45903227229E+02  0.10000000000E+01 0.  0.
         21    1    1    2  502  501 -0.27166235036E+02  0.19334839663E+02  0.51428903952E+03  0.51536885483E+03  0.00000000000E+00 0.  1.
<mgrwt>
<rscale>  1 0.12934514E+03</rscale>
<asrwt>0</asrwt>
<pdfrwt beam="1">  1        4 0.12441872E+00 0.12934514E+03</pdfrwt>
<pdfrwt beam="2">  1       -4 0.22725289E-02 0.12934514E+03</pdfrwt>
<totfact> 0.69660179E+02</totfact>
</mgrwt>
</event>
<event>
 6    4  0.5642870E-004  0.1358992E+03  0.7818608E-02  0.1218956E+00
          4   -1    0    0  502    0  0.00000000000E+00  0.00000000000E+00  0.53393642511E+02  0.53408744233E+02  0.12700000000E+01 0. -1.
         -4   -1    0    0    0  501 -0.00000000000E+00 -0.00000000000E+00 -0.27267273363E+03  0.27267569119E+03  0.12700000000E+01 0. -1.
         25    2    1    2    0    0  0.40150304316E+02  0.35097495417E+02 -0.23414258957E+03  0.27072375707E+03  0.12499887708E+03 0.  0.
    9000005    1    3    3    0    0  0.34830746858E+02 -0.40712405079E+02 -0.13886226749E+03  0.14884357623E+03  0.10000000000E+01 0.  0.
    9000005    1    3    3    0    0  0.53195574573E+01  0.75809900496E+02 -0.95280322088E+02  0.12188018084E+03  0.10000000000E+01 0.  0.
         21    1    1    2  502  501 -0.40150304316E+02 -0.35097495417E+02  0.14863498453E+02  0.55360678350E+02  0.00000000000E+00 0. -1.
<mgrwt>
<rscale>  1 0.13589923E+03</rscale>
<asrwt>0</asrwt>
<pdfrwt beam="1">  1        4 0.82157959E-02 0.13589923E+03</pdfrwt>
<pdfrwt beam="2">  1       -4 0.41951040E-01 0.13589923E+03</pdfrwt>
<totfact> 0.96570748E+02</totfact>
</mgrwt>
</event>
<event>
 6    4  0.5642870E-004  0.1266263E+03  0.7818608E-02  0.1232549E+00
         -4   -1    0    0    0  501 -0.00000000000E+00  0.00000000000E+00  0.43644094931E+03  0.43644279709E+03  0.12700000000E+01 0.  1.
          4   -1    0    0  502    0  0.00000000000E+00 -0.00000000000E+00 -0.12975714818E+02  0.13037717401E+02  0.12700000000E+01 0.  1.
         25    2    1    2    0    0 -0.13764549761E+02  0.14818282745E+02  0.39314223720E+03  0.41303152962E+03  0.12500072582E+03 0.  0.
    9000005    1    3    3    0    0  0.21073380397E+02  0.30990431703E+02  0.30417364970E+02  0.48277430651E+02  0.10000000000E+01 0.  0.
    9000005    1    3    3    0    0 -0.34837930159E+02 -0.16172148958E+02  0.36272487223E+03  0.36475409897E+03  0.10000000000E+01 0.  0.
         21    1    1    2  502  501  0.13764549761E+02 -0.14818282745E+02  0.30322997293E+02  0.36448984876E+02  0.00000000000E+00 0.  1.
<mgrwt>
<rscale>  1 0.12662632E+03</rscale>
<asrwt>0</asrwt>
<pdfrwt beam="2">  1        4 0.20011753E-02 0.12662632E+03</pdfrwt>
<pdfrwt beam="1">  1       -4 0.67149674E-01 0.12662632E+03</pdfrwt>
<totfact> 0.34202560E+03</totfact>
</mgrwt>
</event>
<event>
 6    4  0.5642870E-004  0.1293438E+03  0.7818608E-02  0.1228433E+00
         -4   -1    0    0    0  501 -0.00000000000E+00  0.00000000000E+00  0.85064966291E+03  0.85065061095E+03  0.12700000000E+01 0.  1.
          4   -1    0    0  502    0  0.00000000000E+00 -0.00000000000E+00 -0.88747655365E+01  0.89651750305E+01  0.12700000000E+01 0.  1.
         25    2    1    2    0    0  0.31764838860E+02  0.97857465931E+01  0.76639756844E+03  0.77723552414E+03  0.12500024498E+03 0.  0.
    9000005    1    3    3    0    0  0.18963098678E+02 -0.36113039687E+02  0.86184054884E+02  0.95354297560E+02  0.10000000000E+01 0.  0.
    9000005    1    3    3    0    0  0.12801740182E+02  0.45898786280E+02  0.68021351356E+03  0.68188122658E+03  0.10000000000E+01 0.  0.
         21    1    1    2  502  501 -0.31764838860E+02 -0.97857465931E+01  0.75377328935E+02  0.82380261845E+02  0.00000000000E+00 0. -1.
<mgrwt>
<rscale>  1 0.12934383E+03</rscale>
<asrwt>0</asrwt>
<pdfrwt beam="2">  1        4 0.13723763E-02 0.12934383E+03</pdfrwt>
<pdfrwt beam="1">  1       -4 0.13087618E+00 0.12934383E+03</pdfrwt>
<totfact> 0.13337375E+03</totfact>
</mgrwt>
</event>
<event>
 6    4  0.5642870E-004  0.1293726E+03  0.7818608E-02  0.1228390E+00
         -4   -1    0    0    0  501 -0.00000000000E+00  0.00000000000E+00  0.76620617660E+01  0.77666009622E+01  0.12700000000E+01 0.  1.
          4   -1    0    0  502    0  0.00000000000E+00 -0.00000000000E+00 -0.17090406309E+04  0.17090411028E+04  0.12700000000E+01 0.  1.
         25    2    1    2    0    0  0.26701445767E+02  0.19974088123E+02 -0.16529738657E+04  0.16580289089E+04  0.12500132338E+03 0.  0.
    9000005    1    3    3    0    0 -0.21743196963E+00  0.22045644705E+02 -0.48030633446E+02  0.52858296192E+02  0.10000000000E+01 0.  0.
    9000005    1    3    3    0    0  0.26918877737E+02 -0.20715565821E+01 -0.16049432322E+04  0.16051706127E+04  0.10000000000E+01 0.  0.
         21    1    1    2  502  501 -0.26701445767E+02 -0.19974088123E+02 -0.48404703501E+02  0.58778794845E+02  0.00000000000E+00 0.  1.
<mgrwt>
<rscale>  1 0.12937257E+03</rscale>
<asrwt>0</asrwt>
<pdfrwt beam="2">  1        4 0.26293710E+00 0.12937257E+03</pdfrwt>
<pdfrwt beam="1">  1       -4 0.11868579E-02 0.12937257E+03</pdfrwt>
<totfact> 0.23271078E+02</totfact>
</mgrwt>
</event>
<event>
 6    4  0.5642870E-004  0.1268283E+03  0.7818608E-02  0.1232239E+00
          4   -1    0    0  502    0  0.00000000000E+00  0.00000000000E+00  0.37736291917E+03  0.37736505623E+03  0.12700000000E+01 0. -1.
         -4   -1    0    0    0  501 -0.00000000000E+00 -0.00000000000E+00 -0.24689038947E+02  0.24721681660E+02  0.12700000000E+01 0. -1.
         25    2    1    2    0    0  0.16767991181E+02  0.13410828646E+02  0.14228646022E+03  0.19060652050E+03  0.12499757214E+03 0.  0.
    9000005    1    3    3    0    0  0.28403186439E+02  0.66565876468E+02  0.83132963571E+02  0.11022634232E+03  0.10000000000E+01 0.  0.
    9000005    1    3    3    0    0 -0.11635195258E+02 -0.53155047822E+02  0.59153496651E+02  0.80380178176E+02  0.10000000000E+01 0.  0.
         21    1    1    2  502  501 -0.16767991181E+02 -0.13410828646E+02  0.21038742000E+03  0.21148021739E+03  0.00000000000E+00 0. -1.
<mgrwt>
<rscale>  1 0.12682827E+03</rscale>
<asrwt>0</asrwt>
<pdfrwt beam="1">  1        4 0.58058510E-01 0.12682827E+03</pdfrwt>
<pdfrwt beam="2">  1       -4 0.38009890E-02 0.12682827E+03</pdfrwt>
<totfact> 0.17110485E+03</totfact>
</mgrwt>
</event>
<event>
 6    4  0.5642870E-004  0.1276033E+03  0.7818608E-02  0.1231056E+00
          4   -1    0    0  502    0  0.00000000000E+00  0.00000000000E+00  0.21896063973E+02  0.21932863870E+02  0.12700000000E+01 0.  1.
         -4   -1    0    0    0  501 -0.00000000000E+00 -0.00000000000E+00 -0.27434113203E+03  0.27434407161E+03  0.12700000000E+01 0.  1.
         25    2    1    2    0    0 -0.19758565554E+02  0.16355418792E+02 -0.19111093033E+03  0.22979553140E+03  0.12499879169E+03 0.  0.
    9000005    1    3    3    0    0  0.13595145459E+02  0.20922576884E+01  0.15079988938E+02  0.20435547183E+02  0.10000000000E+01 0.  0.
    9000005    1    3    3    0    0 -0.33353711013E+02  0.14263161104E+02 -0.20619091927E+03  0.20935998422E+03  0.10000000000E+01 0.  0.
         21    1    1    2  502  501  0.19758565554E+02 -0.16355418792E+02 -0.61334137727E+02  0.66481404071E+02  0.00000000000E+00 0.  1.
<mgrwt>
<rscale>  1 0.12760329E+03</rscale>
<asrwt>0</asrwt>
<pdfrwt beam="1">  1        4 0.33716823E-02 0.12760329E+03</pdfrwt>
<pdfrwt beam="2">  1       -4 0.42209383E-01 0.12760329E+03</pdfrwt>
<totfact> 0.39563303E+03</totfact>
</mgrwt>
</event>
<event>
 6    4  0.5642870E-004  0.1267699E+03  0.7818608E-02  0.1232329E+00
         -4   -1    0    0    0  501 -0.00000000000E+00  0.00000000000E+00  0.11112880971E+02  0.11185214503E+02  0.12700000000E+01 0.  1.
          4   -1    0    0  502    0  0.00000000000E+00 -0.00000000000E+00 -0.58699103968E+03  0.58699241355E+03  0.12700000000E+01 0.  1.
         25    2    1    2    0    0  0.35458524382E+01  0.20798335300E+02 -0.36782890757E+03  0.38906130942E+03  0.12500181367E+03 0.  0.
    9000005    1    3    3    0    0 -0.11553028323E+02  0.28652075869E+02 -0.12528842101E+02  0.33352448177E+02  0.10000000000E+01 0.  0.
    9000005    1    3    3    0    0  0.15098880762E+02 -0.78537405696E+01 -0.35530006547E+03  0.35570886124E+03  0.10000000000E+01 0.  0.
         21    1    1    2  502  501 -0.35458524382E+01 -0.20798335300E+02 -0.20804925113E+03  0.20911631863E+03  0.00000000000E+00 0.  1.
<mgrwt>
<rscale>  1 0.12676986E+03</rscale>
<asrwt>0</asrwt>
<pdfrwt beam="2">  1        4 0.90311960E-01 0.12676986E+03</pdfrwt>
<pdfrwt beam="1">  1       -4 0.17153443E-02 0.12676986E+03</pdfrwt>
<totfact> 0.22599996E+03</totfact>
</mgrwt>
</event>
<event>
 6    4  0.5642870E-004  0.1344515E+03  0.7818608E-02  0.1220996E+00
          4   -1    0    0  502    0  0.00000000000E+00  0.00000000000E+00  0.71643023624E+02  0.71654279244E+02  0.12700000000E+01 0. -1.
         -4   -1    0    0    0  501 -0.00000000000E+00 -0.00000000000E+00 -0.11884292273E+03  0.11884970838E+03  0.12700000000E+01 0. -1.
         25    2    1    2    0    0 -0.22669209484E+02  0.44011827883E+02 -0.41271813571E+02  0.14064341953E+03  0.12500509914E+03 0.  0.
    9000005    1    3    3    0    0  0.26244586179E+02  0.66722055035E+02 -0.47999112169E+02  0.86287459696E+02  0.10000000000E+01 0.  0.
    9000005    1    3    3    0    0 -0.48913795663E+02 -0.22710227152E+02  0.67272985976E+01  0.54355959838E+02  0.10000000000E+01 0.  0.
         21    1    1    2  502  501  0.22669209484E+02 -0.44011827883E+02 -0.59280855306E+01  0.49860568091E+02  0.00000000000E+00 0. -1.
<mgrwt>
<rscale>  1 0.13445151E+03</rscale>
<asrwt>0</asrwt>
<pdfrwt beam="1">  1        4 0.11023391E-01 0.13445151E+03</pdfrwt>
<pdfrwt beam="2">  1       -4 0.18284914E-01 0.13445151E+03</pdfrwt>
<totfact> 0.27884537E+03</totfact>
</mgrwt>
</event>
<event>
 6    4  0.5642870E-004  0.1337128E+03  0.7818608E-02  0.1222048E+00
          4   -1    0    0  502    0  0.00000000000E+00  0.00000000000E+00  0.89470791814E+02  0.89479804916E+02  0.12700000000E+01 0. -1.
         -4   -1    0    0    0  501 -0.00000000000E+00 -0.00000000000E+00 -0.16355319107E+03  0.16355812181E+03  0.12700000000E+01 0. -1.
         25    2    1    2    0    0  0.91091200250E+01  0.46601477602E+02 -0.12526440058E+03  0.18322194689E+03  0.12499775193E+03 0.  0.
    9000005    1    3    3    0    0 -0.33806244530E+02 -0.17062680915E+02 -0.92091064910E+02  0.99577916655E+02  0.10000000000E+01 0.  0.
    9000005    1    3    3    0    0  0.42915364555E+02  0.63664158517E+02 -0.33173335666E+02  0.83644030234E+02  0.10000000000E+01 0.  0.
         21    1    1    2  502  501 -0.91091200250E+01 -0.46601477602E+02  0.51182001315E+02  0.69815979839E+02  0.00000000000E+00 0. -1.
<mgrwt>
<rscale>  1 0.13371280E+03</rscale>
<asrwt>0</asrwt>
<pdfrwt beam="1">  1        4 0.13765810E-01 0.13371280E+03</pdfrwt>
<pdfrwt beam="2">  1       -4 0.25163102E-01 0.13371280E+03</pdfrwt>
<totfact> 0.10666283E+03</totfact>
</mgrwt>
</event>
<event>
 6    4  0.5642870E-004  0.1275571E+03  0.7818608E-02  0.1231126E+00
          4   -1    0    0  502    0  0.00000000000E+00  0.00000000000E+00  0.45134123278E+03  0.45134301956E+03  0.12700000000E+01 0. -1.
         -4   -1    0    0    0  501 -0.00000000000E+00 -0.00000000000E+00 -0.14442241966E+02  0.14497974100E+02  0.12700000000E+01 0. -1.
         25    2    1    2    0    0 -0.24761587049E+02  0.57920719752E+01  0.29080906879E+03  0.31755427946E+03  0.12499648645E+03 0.  0.
    9000005    1    3    3    0    0  0.10272415543E+02  0.54134710335E+01 -0.96049668838E+01  0.15102436179E+02  0.10000000000E+01 0.  0.
    9000005    1    3    3    0    0 -0.35034002592E+02  0.37860094168E+00  0.30041403567E+03  0.30245184328E+03  0.10000000000E+01 0.  0.
         21    1    1    2  502  501  0.24761587049E+02 -0.57920719752E+01  0.14608992203E+03  0.14828671420E+03  0.00000000000E+00 0.  1.
<mgrwt>
<rscale>  1 0.12755707E+03</rscale>
<asrwt>0</asrwt>
<pdfrwt beam="1">  1        4 0.69441533E-01 0.12755707E+03</pdfrwt>
<pdfrwt beam="2">  1       -4 0.22263080E-02 0.12755707E+03</pdfrwt>
<totfact> 0.27050996E+03</totfact>
</mgrwt>
</event>
<event>
 6    4  0.5642870E-004  0.1275644E+03  0.7818608E-02  0.1231115E+00
         -4   -1    0    0    0  501 -0.00000000000E+00  0.00000000000E+00  0.68120153708E+03  0.68120272095E+03  0.12700000000E+01 0.  1.
          4   -1    0    0  502    0  0.00000000000E+00 -0.00000000000E+00 -0.58174672590E+02  0.58188533501E+02  0.12700000000E+01 0.  1.
         25    2    1    2    0    0  0.14849065829E+01  0.25404392780E+02  0.67210725560E+03  0.68410587744E+03  0.12500040161E+03 0.  0.
    9000005    1    3    3    0    0 -0.36834821870E+02  0.31015915074E+01  0.58675849491E+03  0.58792257596E+03  0.10000000000E+01 0.  0.
    9000005    1    3    3    0    0  0.38319728453E+02  0.22302801273E+02  0.85348760688E+02  0.96183301484E+02  0.10000000000E+01 0.  0.
         21    1    1    2  502  501 -0.14849065829E+01 -0.25404392780E+02 -0.49080391103E+02  0.55285377008E+02  0.00000000000E+00 0.  1.
<mgrwt>
<rscale>  1 0.12756445E+03</rscale>
<asrwt>0</asrwt>
<pdfrwt beam="2">  1        4 0.89511064E-02 0.12756445E+03</pdfrwt>
<pdfrwt beam="1">  1       -4 0.10480140E+00 0.12756445E+03</pdfrwt>
<totfact> 0.11641723E+02</totfact>
</mgrwt>
</event>
<event>
 6    4  0.5642870E-004  0.1266653E+03  0.7818608E-02  0.1232489E+00
          4   -1    0    0  502    0  0.00000000000E+00  0.00000000000E+00  0.27943683972E+03  0.27943972569E+03  0.12700000000E+01 0. -1.
         -4   -1    0    0    0  501 -0.00000000000E+00 -0.00000000000E+00 -0.28313812190E+02  0.28342280444E+02  0.12700000000E+01 0. -1.
         25    2    1    2    0    0 -0.16799397456E+02 -0.11722564037E+02  0.11806807346E+03  0.17315935178E+03  0.12499781148E+03 0.  0.
    9000005    1    3    3    0    0  0.13857324800E+02  0.42550265219E+01 -0.23389436069E+02  0.27535366730E+02  0.10000000000E+01 0.  0.
    9000005    1    3    3    0    0 -0.30656722256E+02 -0.15977590559E+02  0.14145750953E+03  0.14562398505E+03  0.10000000000E+01 0.  0.
         21    1    1    2  502  501  0.16799397456E+02  0.11722564037E+02  0.13305495407E+03  0.13462265435E+03  0.00000000000E+00 0. -1.
<mgrwt>
<rscale>  1 0.12666527E+03</rscale>
<asrwt>0</asrwt>
<pdfrwt beam="1">  1        4 0.42992696E-01 0.12666527E+03</pdfrwt>
<pdfrwt beam="2">  1       -4 0.43583828E-02 0.12666527E+03</pdfrwt>
<totfact> 0.25364526E+03</totfact>
</mgrwt>
</event>
<event>
 6    4  0.5642870E-004  0.1278471E+03  0.7818608E-02  0.1230686E+00
          4   -1    0    0  502    0  0.00000000000E+00  0.00000000000E+00  0.40389291705E+02  0.40409253698E+02  0.12700000000E+01 0.  1.
         -4   -1    0    0    0  501 -0.00000000000E+00 -0.00000000000E+00 -0.14811546662E+03  0.14812091125E+03  0.12700000000E+01 0.  1.
         25    2    1    2    0    0 -0.21163620414E+02  0.16488190330E+02 -0.87281667422E+02  0.15479980569E+03  0.12500052450E+03 0.  0.
    9000005    1    3    3    0    0  0.45804431612E+02  0.15731007101E+02 -0.70862191977E+02  0.85836826546E+02  0.10000000000E+01 0.  0.
    9000005    1    3    3    0    0 -0.66968052027E+02  0.75718322931E+00 -0.16419475445E+02  0.68962979145E+02  0.10000000000E+01 0.  0.
         21    1    1    2  502  501  0.21163620414E+02 -0.16488190330E+02 -0.20444507488E+02  0.33730359261E+02  0.00000000000E+00 0.  1.
<mgrwt>
<rscale>  1 0.12784714E+03</rscale>
<asrwt>0</asrwt>
<pdfrwt beam="1">  1        4 0.62156916E-02 0.12784714E+03</pdfrwt>
<pdfrwt beam="2">  1       -4 0.22788949E-01 0.12784714E+03</pdfrwt>
<totfact> 0.47966421E+03</totfact>
</mgrwt>
</event>
<event>
 6    4  0.5642870E-004  0.1265934E+03  0.7818608E-02  0.1232600E+00
         -4   -1    0    0    0  501 -0.00000000000E+00  0.00000000000E+00  0.44106722984E+02  0.44125003257E+02  0.12700000000E+01 0.  1.
          4   -1    0    0  502    0  0.00000000000E+00 -0.00000000000E+00 -0.24030878318E+03  0.24031213905E+03  0.12700000000E+01 0.  1.
         25    2    1    2    0    0  0.51515775175E+01 -0.19364694381E+02 -0.48791008278E+02  0.13567038403E+03  0.12499744187E+03 0.  0.
    9000005    1    3    3    0    0 -0.43898956901E+02 -0.48193621167E+01  0.21176148048E+02  0.48987487324E+02  0.10000000000E+01 0.  0.
    9000005    1    3    3    0    0  0.49050534418E+02 -0.14545332264E+02 -0.69967156326E+02  0.86682896708E+02  0.10000000000E+01 0.  0.
         21    1    1    2  502  501 -0.51515775175E+01  0.19364694381E+02 -0.14741105192E+03  0.14876675828E+03  0.00000000000E+00 0.  1.
<mgrwt>
<rscale>  1 0.12659341E+03</rscale>
<asrwt>0</asrwt>
<pdfrwt beam="2">  1        4 0.36972246E-01 0.12659341E+03</pdfrwt>
<pdfrwt beam="1">  1       -4 0.67873141E-02 0.12659341E+03</pdfrwt>
<totfact> 0.16688962E+03</totfact>
</mgrwt>
</event>
<event>
 6    4  0.5642870E-004  0.1273853E+03  0.7818608E-02  0.1231388E+00
          4   -1    0    0  502    0  0.00000000000E+00  0.00000000000E+00  0.40234234735E+03  0.40234435173E+03  0.12700000000E+01 0.  1.
         -4   -1    0    0    0  501 -0.00000000000E+00 -0.00000000000E+00 -0.19480971541E+02  0.19522324456E+02  0.12700000000E+01 0.  1.
         25    2    1    2    0    0 -0.24481743286E+02 -0.65050058754E+00  0.19831834786E+03  0.23570570264E+03  0.12500892871E+03 0.  0.
    9000005    1    3    3    0    0  0.24230437197E+02 -0.46721393303E+02  0.12868368781E+03  0.13903414755E+03  0.10000000000E+01 0.  0.
    9000005    1    3    3    0    0 -0.48712180483E+02  0.46070892715E+02  0.69634660050E+02  0.96671555088E+02  0.10000000000E+01 0.  0.
         21    1    1    2  502  501  0.24481743286E+02  0.65050058754E+00  0.18454302796E+03  0.18616097355E+03  0.00000000000E+00 0. -1.
<mgrwt>
<rscale>  1 0.12738529E+03</rscale>
<asrwt>0</asrwt>
<pdfrwt beam="1">  1        4 0.61902153E-01 0.12738529E+03</pdfrwt>
<pdfrwt beam="2">  1       -4 0.30004080E-02 0.12738529E+03</pdfrwt>
<totfact> 0.21722564E+03</totfact>
</mgrwt>
</event>
<event>
 6    4  0.5642870E-004  0.1298104E+03  0.7818608E-02  0.1227737E+00
         -4   -1    0    0    0  501 -0.00000000000E+00  0.00000000000E+00  0.17972134378E+03  0.17972583095E+03  0.12700000000E+01 0.  1.
          4   -1    0    0  502    0  0.00000000000E+00 -0.00000000000E+00 -0.67716854867E+02  0.67728762967E+02  0.12700000000E+01 0.  1.
         25    2    1    2    0    0  0.27100188358E+02 -0.22176695344E+02  0.14825426965E+03  0.19705347658E+03  0.12499807253E+03 0.  0.
    9000005    1    3    3    0    0 -0.29556822164E+02 -0.55359696245E+02  0.86810601630E+02  0.10712321065E+03  0.10000000000E+01 0.  0.
    9000005    1    3    3    0    0  0.56657010523E+02  0.33183000901E+02  0.61443668020E+02  0.89930265928E+02  0.10000000000E+01 0.  0.
         21    1    1    2  502  501 -0.27100188358E+02  0.22176695344E+02 -0.36249780736E+02  0.50401117337E+02  0.00000000000E+00 0.  1.
<mgrwt>
<rscale>  1 0.12981042E+03</rscale>
<asrwt>0</asrwt>
<pdfrwt beam="2">  1        4 0.10419239E-01 0.12981042E+03</pdfrwt>
<pdfrwt beam="1">  1       -4 0.27650699E-01 0.12981042E+03</pdfrwt>
<totfact> 0.14320081E+03</totfact>
</mgrwt>
</event>
<event>
 6    4  0.5642870E-004  0.1266698E+03  0.7818608E-02  0.1232483E+00
          4   -1    0    0  502    0  0.00000000000E+00  0.00000000000E+00  0.10684233335E+03  0.10684988112E+03  0.12700000000E+01 0. -1.
         -4   -1    0    0    0  501 -0.00000000000E+00 -0.00000000000E+00 -0.50681134217E+02  0.50697043953E+02  0.12700000000E+01 0. -1.
         25    2    1    2    0    0  0.19073793480E+02 -0.74049289539E+01  0.49971387309E+02  0.13617038792E+03  0.12500636954E+03 0.  0.
    9000005    1    3    3    0    0  0.54649519401E+02  0.30106428285E+02 -0.25672279880E+01  0.62454444633E+02  0.10000000000E+01 0.  0.
    9000005    1    3    3    0    0 -0.35575725921E+02 -0.37511357239E+02  0.52538615297E+02  0.73715943283E+02  0.10000000000E+01 0.  0.
         21    1    1    2  502  501 -0.19073793480E+02  0.74049289539E+01  0.61898118255E+01  0.21376537160E+02  0.00000000000E+00 0. -1.
<mgrwt>
<rscale>  1 0.12666979E+03</rscale>
<asrwt>0</asrwt>
<pdfrwt beam="1">  1        4 0.16439086E-01 0.12666979E+03</pdfrwt>
<pdfrwt beam="2">  1       -4 0.77989020E-02 0.12666979E+03</pdfrwt>
<totfact> 0.59208354E+03</totfact>
</mgrwt>
</event>
<event>
 6    4  0.5642870E-004  0.1268880E+03  0.7818608E-02  0.1232148E+00
          4   -1    0    0  502    0  0.00000000000E+00  0.00000000000E+00  0.37762988342E+03  0.37763201897E+03  0.12700000000E+01 0. -1.
         -4   -1    0    0    0  501 -0.00000000000E+00 -0.00000000000E+00 -0.14632754234E+02  0.14687763495E+02  0.12700000000E+01 0. -1.
         25    2    1    2    0    0  0.19468290669E+02 -0.98711907258E+01  0.31477372849E+03  0.33938632308E+03  0.12499648554E+03 0.  0.
    9000005    1    3    3    0    0  0.58580485684E+02  0.25308310267E+00  0.69932153443E+02  0.91231811553E+02  0.10000000000E+01 0.  0.
    9000005    1    3    3    0    0 -0.39112195015E+02 -0.10124273828E+02  0.24484157505E+03  0.24815451153E+03  0.10000000000E+01 0.  0.
         21    1    1    2  502  501 -0.19468290669E+02  0.98711907258E+01  0.48223400693E+02  0.52933459384E+02  0.00000000000E+00 0. -1.
<mgrwt>
<rscale>  1 0.12688805E+03</rscale>
<asrwt>0</asrwt>
<pdfrwt beam="1">  1        4 0.58101287E-01 0.12688805E+03</pdfrwt>
<pdfrwt beam="2">  1       -4 0.22555893E-02 0.12688805E+03</pdfrwt>
<totfact> 0.38624547E+03</totfact>
</mgrwt>
</event>
<event>
 6    4  0.5642870E-004  0.1274571E+03  0.7818608E-02  0.1231278E+00
          4   -1    0    0  502    0  0.00000000000E+00  0.00000000000E+00  0.66443995319E+01  0.67646836688E+01  0.12700000000E+01 0.  1.
         -4   -1    0    0    0  501 -0.00000000000E+00 -0.00000000000E+00 -0.90064777801E+03  0.90064867342E+03  0.12700000000E+01 0.  1.
         25    2    1    2    0    0 -0.22624723454E+02 -0.10439362650E+02 -0.80334262426E+03  0.81339085574E+03  0.12499781538E+03 0.  0.
    9000005    1    3    3    0    0 -0.71637411234E+02 -0.90261036544E+01 -0.59437153128E+03  0.59874193642E+03  0.10000000000E+01 0.  0.
    9000005    1    3    3    0    0  0.49012687779E+02 -0.14132589953E+01 -0.20897109298E+03  0.21464891932E+03  0.10000000000E+01 0.  0.
         21    1    1    2  502  501  0.22624723454E+02  0.10439362650E+02 -0.90660754223E+02  0.94022501351E+02  0.00000000000E+00 0.  1.
<mgrwt>
<rscale>  1 0.12745710E+03</rscale>
<asrwt>0</asrwt>
<pdfrwt beam="1">  1        4 0.10315375E-02 0.12745710E+03</pdfrwt>
<pdfrwt beam="2">  1       -4 0.13857042E+00 0.12745710E+03</pdfrwt>
<totfact> 0.17781802E+03</totfact>
</mgrwt>
</event>
<event>
 6    4  0.5642870E-004  0.1266892E+03  0.7818608E-02  0.1232453E+00
         -4   -1    0    0    0  501 -0.00000000000E+00  0.00000000000E+00  0.17389099269E+03  0.17389563030E+03  0.12700000000E+01 0. -1.
          4   -1    0    0  502    0  0.00000000000E+00 -0.00000000000E+00 -0.31262111254E+02  0.31287897022E+02  0.12700000000E+01 0. -1.
         25    2    1    2    0    0 -0.16709113575E+02  0.12101977451E+02  0.11897679774E+03  0.17379764837E+03  0.12499796736E+03 0.  0.
    9000005    1    3    3    0    0  0.50798878228E+02  0.22572263287E+02  0.35663915619E+02  0.66052615212E+02  0.10000000000E+01 0.  0.
    9000005    1    3    3    0    0 -0.67507991803E+02 -0.10470285836E+02  0.83312882117E+02  0.10774503315E+03  0.10000000000E+01 0.  0.
         21    1    1    2  502  501  0.16709113575E+02 -0.12101977451E+02  0.23652083699E+02  0.31385878958E+02  0.00000000000E+00 0.  1.
<mgrwt>
<rscale>  1 0.12668916E+03</rscale>
<asrwt>0</asrwt>
<pdfrwt beam="2">  1        4 0.48118958E-02 0.12668916E+03</pdfrwt>
<pdfrwt beam="1">  1       -4 0.26754801E-01 0.12668916E+03</pdfrwt>
<totfact> 0.53838868E+03</totfact>
</mgrwt>
</event>
<event>
 6    4  0.5642870E-004  0.1277543E+03  0.7818608E-02  0.1230827E+00
          4   -1    0    0  502    0  0.00000000000E+00  0.00000000000E+00  0.37040602165E+02  0.37062367824E+02  0.12700000000E+01 0.  1.
         -4   -1    0    0    0  501 -0.00000000000E+00 -0.00000000000E+00 -0.16104389926E+03  0.16104890682E+03  0.12700000000E+01 0.  1.
         25    2    1    2    0    0 -0.15597910087E+02  0.21302360886E+02 -0.10758785240E+03  0.16702185196E+03  0.12499627063E+03 0.  0.
    9000005    1    3    3    0    0  0.54079221427E+02  0.36805831066E+01 -0.33151698442E+02  0.63546392436E+02  0.10000000000E+01 0.  0.
    9000005    1    3    3    0    0 -0.69677131513E+02  0.17621777779E+02 -0.74436153957E+02  0.10347545952E+03  0.10000000000E+01 0.  0.
         21    1    1    2  502  501  0.15597910087E+02 -0.21302360886E+02 -0.16415444697E+02  0.31089422687E+02  0.00000000000E+00 0.  1.
<mgrwt>
<rscale>  1 0.12775427E+03</rscale>
<asrwt>0</asrwt>
<pdfrwt beam="1">  1        4 0.57006138E-02 0.12775427E+03</pdfrwt>
<pdfrwt beam="2">  1       -4 0.24778044E-01 0.12775427E+03</pdfrwt>
<totfact> 0.47337127E+03</totfact>
</mgrwt>
</event>
<event>
 6    4  0.5642870E-004  0.1320547E+03  0.7818608E-02  0.1224438E+00
         -4   -1    0    0    0  501 -0.00000000000E+00  0.00000000000E+00  0.40462583614E+03  0.40462782921E+03  0.12700000000E+01 0.  1.
          4   -1    0    0  502    0  0.00000000000E+00 -0.00000000000E+00 -0.18866753490E+02  0.18909449681E+02  0.12700000000E+01 0.  1.
         25    2    1    2    0    0  0.41763805467E+02  0.83409877649E+01  0.28253046186E+03  0.31186841271E+03  0.12499862977E+03 0.  0.
    9000005    1    3    3    0    0  0.11939138556E+02 -0.71708900147E+01  0.27751287394E+03  0.27786392334E+03  0.10000000000E+01 0.  0.
    9000005    1    3    3    0    0  0.29824666911E+02  0.15511877780E+02  0.50175879192E+01  0.34004489367E+02  0.10000000000E+01 0.  0.
         21    1    1    2  502  501 -0.41763805467E+02 -0.83409877649E+01  0.10322862079E+03  0.11166886618E+03  0.00000000000E+00 0.  1.
<mgrwt>
<rscale>  1 0.13205470E+03</rscale>
<asrwt>0</asrwt>
<pdfrwt beam="2">  1        4 0.29060152E-02 0.13205470E+03</pdfrwt>
<pdfrwt beam="1">  1       -4 0.62253564E-01 0.13205470E+03</pdfrwt>
<totfact> 0.22755704E+03</totfact>
</mgrwt>
</event>
<event>
 6    4  0.5642870E-004  0.1274297E+03  0.7818608E-02  0.1231320E+00
         -4   -1    0    0    0  501 -0.00000000000E+00  0.00000000000E+00  0.49833426075E+02  0.49849606361E+02  0.12700000000E+01 0.  1.
          4   -1    0    0  502    0  0.00000000000E+00 -0.00000000000E+00 -0.12606384855E+03  0.12607024554E+03  0.12700000000E+01 0.  1.
         25    2    1    2    0    0  0.22492990490E+02  0.10370666497E+02 -0.43031131579E+02  0.13449910516E+03  0.12499938264E+03 0.  0.
    9000005    1    3    3    0    0 -0.23928358059E+02  0.53249867217E+02 -0.62979868990E+00  0.58391020923E+02  0.10000000000E+01 0.  0.
    9000005    1    3    3    0    0  0.46421348550E+02 -0.42879200720E+02 -0.42401332889E+02  0.76108084238E+02  0.10000000000E+01 0.  0.
         21    1    1    2  502  501 -0.22492990490E+02 -0.10370666497E+02 -0.33199290895E+02  0.41420746743E+02  0.00000000000E+00 0. -1.
<mgrwt>
<rscale>  1 0.12742971E+03</rscale>
<asrwt>0</asrwt>
<pdfrwt beam="2">  1        4 0.19396175E-01 0.12742971E+03</pdfrwt>
<pdfrwt beam="1">  1       -4 0.76684177E-02 0.12742971E+03</pdfrwt>
<totfact> 0.45463102E+03</totfact>
</mgrwt>
</event>
<event>
 6    4  0.5642870E-004  0.1272345E+03  0.7818608E-02  0.1231618E+00
         -4   -1    0    0    0  501 -0.00000000000E+00  0.00000000000E+00  0.40233615846E+03  0.40233816287E+03  0.12700000000E+01 0. -1.
          4   -1    0    0  502    0  0.00000000000E+00 -0.00000000000E+00 -0.14905360988E+02  0.14959367840E+02  0.12700000000E+01 0. -1.
         25    2    1    2    0    0  0.22693569118E+02  0.69931630644E+01  0.35492581338E+03  0.37704238943E+03  0.12499891205E+03 0.  0.
    9000005    1    3    3    0    0  0.13450849693E+02  0.40763306372E+02  0.33291890377E+03  0.33567628601E+03  0.10000000000E+01 0.  0.
    9000005    1    3    3    0    0  0.92427194251E+01 -0.33770143308E+02  0.22006909612E+02  0.41366103419E+02  0.10000000000E+01 0.  0.
         21    1    1    2  502  501 -0.22693569118E+02 -0.69931630644E+01  0.32504984090E+02  0.40255141282E+02  0.00000000000E+00 0. -1.
<mgrwt>
<rscale>  1 0.12723455E+03</rscale>
<asrwt>0</asrwt>
<pdfrwt beam="2">  1        4 0.22974411E-02 0.12723455E+03</pdfrwt>
<pdfrwt beam="1">  1       -4 0.61902177E-01 0.12723455E+03</pdfrwt>
<totfact> 0.32893133E+03</totfact>
</mgrwt>
</event>
<event>
 6    4  0.5642870E-004  0.1437937E+03  0.7818608E-02  0.1208313E+00
         -4   -1    0    0    0  501 -0.00000000000E+00  0.00000000000E+00  0.85558633598E+02  0.85568058779E+02  0.12700000000E+01 0. -1.
          4   -1    0    0  502    0  0.00000000000E+00 -0.00000000000E+00 -0.22857195802E+03  0.22857548620E+03  0.12700000000E+01 0. -1.
         25    2    1    2    0    0  0.59080807200E+02  0.39510514590E+02  0.11311894907E+02  0.14423799515E+03  0.12500007095E+03 0.  0.
    9000005    1    3    3    0    0 -0.57540750664E+01  0.31142224796E+02  0.56488320537E+02  0.64767877086E+02  0.10000000000E+01 0.  0.
    9000005    1    3    3    0    0  0.64834882267E+02  0.83682897938E+01 -0.45176425630E+02  0.79470118065E+02  0.10000000000E+01 0.  0.
         21    1    1    2  502  501 -0.59080807200E+02 -0.39510514590E+02 -0.15432521932E+03  0.16990554983E+03  0.00000000000E+00 0. -1.
<mgrwt>
<rscale>  1 0.14379374E+03</rscale>
<asrwt>0</asrwt>
<pdfrwt beam="2">  1        4 0.35165913E-01 0.14379374E+03</pdfrwt>
<pdfrwt beam="1">  1       -4 0.13163863E-01 0.14379374E+03</pdfrwt>
<totfact> 0.62133095E+02</totfact>
</mgrwt>
</event>
<event>
 6    4  0.5642870E-004  0.1281535E+03  0.7818608E-02  0.1230222E+00
          4   -1    0    0  502    0  0.00000000000E+00  0.00000000000E+00  0.20699780589E+02  0.20738703345E+02  0.12700000000E+01 0. -1.
         -4   -1    0    0    0  501 -0.00000000000E+00 -0.00000000000E+00 -0.29825759054E+03  0.29826029440E+03  0.12700000000E+01 0. -1.
         25    2    1    2    0    0 -0.28241627130E+02 -0.60933594680E+00 -0.23913664805E+03  0.27131098588E+03  0.12500141530E+03 0.  0.
    9000005    1    3    3    0    0 -0.32280308811E+02  0.45650139029E+02 -0.45236443718E+02  0.71925582170E+02  0.10000000000E+01 0.  0.
    9000005    1    3    3    0    0  0.40386816817E+01 -0.46259474975E+02 -0.19390020433E+03  0.19938540371E+03  0.10000000000E+01 0.  0.
         21    1    1    2  502  501  0.28241627130E+02  0.60933594680E+00 -0.38421161905E+02  0.47688011862E+02  0.00000000000E+00 0. -1.
<mgrwt>
<rscale>  1 0.12815348E+03</rscale>
<asrwt>0</asrwt>
<pdfrwt beam="1">  1        4 0.31877839E-02 0.12815348E+03</pdfrwt>
<pdfrwt beam="2">  1       -4 0.45888982E-01 0.12815348E+03</pdfrwt>
<totfact> 0.36613199E+03</totfact>
</mgrwt>
</event>
<event>
 6    4  0.5642870E-004  0.1278676E+03  0.7818608E-02  0.1230655E+00
         -4   -1    0    0    0  501 -0.00000000000E+00  0.00000000000E+00  0.44102618114E+03  0.44102800971E+03  0.12700000000E+01 0.  1.
          4   -1    0    0  502    0  0.00000000000E+00 -0.00000000000E+00 -0.17562505345E+02  0.17608364319E+02  0.12700000000E+01 0.  1.
         25    2    1    2    0    0  0.19510215645E-01  0.26925094373E+02  0.40804148625E+03  0.42760727449E+03  0.12500066245E+03 0.  0.
    9000005    1    3    3    0    0  0.45342884496E+02  0.56026131042E+02  0.19616450336E+03  0.20898903538E+03  0.10000000000E+01 0.  0.
    9000005    1    3    3    0    0 -0.45323374280E+02 -0.29101036670E+02  0.21187698289E+03  0.21861823911E+03  0.10000000000E+01 0.  0.
         21    1    1    2  502  501 -0.19510215645E-01 -0.26925094373E+02  0.15422189541E+02  0.31029099534E+02  0.00000000000E+00 0.  1.
<mgrwt>
<rscale>  1 0.12786761E+03</rscale>
<asrwt>0</asrwt>
<pdfrwt beam="2">  1        4 0.27055921E-02 0.12786761E+03</pdfrwt>
<pdfrwt beam="1">  1       -4 0.67853851E-01 0.12786761E+03</pdfrwt>
<totfact> 0.21021529E+03</totfact>
</mgrwt>
</event>
<event>
 6    4  0.5642870E-004  0.1280918E+03  0.7818608E-02  0.1230315E+00
         -4   -1    0    0    0  501 -0.00000000000E+00  0.00000000000E+00  0.48832373388E+02  0.48848885256E+02  0.12700000000E+01 0. -1.
          4   -1    0    0  502    0  0.00000000000E+00 -0.00000000000E+00 -0.13037521724E+03  0.13038140270E+03  0.12700000000E+01 0. -1.
         25    2    1    2    0    0 -0.83630468860E+01 -0.26705847423E+02 -0.80376458168E+02  0.15122130199E+03  0.12499745720E+03 0.  0.
    9000005    1    3    3    0    0  0.41432879094E+02 -0.12837189890E+02  0.12301656507E+02  0.45097756786E+02  0.10000000000E+01 0.  0.
    9000005    1    3    3    0    0 -0.49795925980E+02 -0.13868657533E+02 -0.92678114675E+02  0.10612354520E+03  0.10000000000E+01 0.  0.
         21    1    1    2  502  501  0.83630468860E+01  0.26705847423E+02 -0.11663856868E+01  0.28008985975E+02  0.00000000000E+00 0.  1.
<mgrwt>
<rscale>  1 0.12809179E+03</rscale>
<asrwt>0</asrwt>
<pdfrwt beam="2">  1        4 0.20059472E-01 0.12809179E+03</pdfrwt>
<pdfrwt beam="1">  1       -4 0.75144188E-02 0.12809179E+03</pdfrwt>
<totfact> 0.44314547E+03</totfact>
</mgrwt>
</event>
<event>
 6    4  0.5642870E-004  0.1272324E+03  0.7818608E-02  0.1231621E+00
         -4   -1    0    0    0  501 -0.00000000000E+00  0.00000000000E+00  0.10207140876E+03  0.10207930930E+03  0.12700000000E+01 0. -1.
          4   -1    0    0  502    0  0.00000000000E+00 -0.00000000000E+00 -0.73742692528E+02  0.73753627716E+02  0.12700000000E+01 0. -1.
         25    2    1    2    0    0 -0.21843066205E+02  0.92894561342E+01  0.56313293002E+02  0.13913756846E+03  0.12499864980E+03 0.  0.
    9000005    1    3    3    0    0  0.26283250719E+02  0.49475015178E+02  0.18192061380E+01  0.56061536781E+02  0.10000000000E+01 0.  0.
    9000005    1    3    3    0    0 -0.48126316924E+02 -0.40185559044E+02  0.54494086864E+02  0.83076031679E+02  0.10000000000E+01 0.  0.
         21    1    1    2  502  501  0.21843066205E+02 -0.92894561342E+01 -0.27984576768E+02  0.36695368554E+02  0.00000000000E+00 0. -1.
<mgrwt>
<rscale>  1 0.12723237E+03</rscale>
<asrwt>0</asrwt>
<pdfrwt beam="2">  1        4 0.11346479E-01 0.12723237E+03</pdfrwt>
<pdfrwt beam="1">  1       -4 0.15704743E-01 0.12723237E+03</pdfrwt>
<totfact> 0.34276178E+03</totfact>
</mgrwt>
</event>
<event>
 6    4  0.5642870E-004  0.1272195E+03  0.7818608E-02  0.1231641E+00
         -4   -1    0    0    0  501 -0.00000000000E+00  0.00000000000E+00  0.14902347226E+04  0.14902352638E+04  0.12700000000E+01 0.  1.
          4   -1    0    0  502    0  0.00000000000E+00 -0.00000000000E+00 -0.10390617427E+02  0.10467942993E+02  0.12700000000E+01 0.  1.
         25    2    1    2    0    0 -0.75278189137E+01  0.22423767310E+02  0.14693144310E+04  0.14748117519E+04  0.12500125174E+03 0.  0.
    9000005    1    3    3    0    0  0.50502656486E+02 -0.91644933005E+01  0.93804435806E+03  0.93944809540E+03  0.10000000000E+01 0.  0.
    9000005    1    3    3    0    0 -0.58030475400E+02  0.31588260611E+02  0.53127007292E+03  0.53536365646E+03  0.10000000000E+01 0.  0.
         21    1    1    2  502  501  0.75278189137E+01 -0.22423767310E+02  0.10529674200E+02  0.25891454898E+02  0.00000000000E+00 0.  1.
<mgrwt>
<rscale>  1 0.12721952E+03</rscale>
<asrwt>0</asrwt>
<pdfrwt beam="2">  1        4 0.16045459E-02 0.12721952E+03</pdfrwt>
<pdfrwt beam="1">  1       -4 0.22927292E+00 0.12721952E+03</pdfrwt>
<totfact> 0.22985410E+02</totfact>
</mgrwt>
</event>
<event>
 6    4  0.5642870E-004  0.1311608E+03  0.7818608E-02  0.1225743E+00
          4   -1    0    0  502    0  0.00000000000E+00  0.00000000000E+00  0.57773232341E+02  0.57787189542E+02  0.12700000000E+01 0. -1.
         -4   -1    0    0    0  501 -0.00000000000E+00 -0.00000000000E+00 -0.16549777482E+03  0.16550264762E+03  0.12700000000E+01 0. -1.
         25    2    1    2    0    0 -0.18353391868E+01  0.39686509520E+02 -0.12386797135E+03  0.18040629949E+03  0.12499908424E+03 0.  0.
    9000005    1    3    3    0    0 -0.45554486067E+02 -0.23603596376E+02 -0.31557522759E+02  0.60242992998E+02  0.10000000000E+01 0.  0.
    9000005    1    3    3    0    0  0.43719146880E+02  0.63290105896E+02 -0.92310448592E+02  0.12016330649E+03  0.10000000000E+01 0.  0.
         21    1    1    2  502  501  0.18353391868E+01 -0.39686509520E+02  0.16143428871E+02  0.42883537675E+02  0.00000000000E+00 0. -1.
<mgrwt>
<rscale>  1 0.13116081E+03</rscale>
<asrwt>0</asrwt>
<pdfrwt beam="1">  1        4 0.88896381E-02 0.13116081E+03</pdfrwt>
<pdfrwt beam="2">  1       -4 0.25462644E-01 0.13116081E+03</pdfrwt>
<totfact> 0.21839910E+03</totfact>
</mgrwt>
</event>
<event>
 6    4  0.5642870E-004  0.1301001E+03  0.7818608E-02  0.1227307E+00
         -4   -1    0    0    0  501 -0.00000000000E+00  0.00000000000E+00  0.29280921782E+02  0.29308450665E+02  0.12700000000E+01 0.  1.
          4   -1    0    0  502    0  0.00000000000E+00 -0.00000000000E+00 -0.23663114213E+03  0.23663455016E+03  0.12700000000E+01 0.  1.
         25    2    1    2    0    0  0.30587263836E+02 -0.19100104850E+02 -0.15481183442E+03  0.20221956156E+03  0.12500260913E+03 0.  0.
    9000005    1    3    3    0    0  0.64800761334E+02 -0.31659484557E+02 -0.14867454696E+03  0.16524703491E+03  0.10000000000E+01 0.  0.
    9000005    1    3    3    0    0 -0.34213497498E+02  0.12559379707E+02 -0.61372874523E+01  0.36972526651E+02  0.10000000000E+01 0.  0.
         21    1    1    2  502  501 -0.30587263836E+02  0.19100104850E+02 -0.52538385936E+02  0.63723439259E+02  0.00000000000E+00 0.  1.
<mgrwt>
<rscale>  1 0.13010014E+03</rscale>
<asrwt>0</asrwt>
<pdfrwt beam="2">  1        4 0.36407170E-01 0.13010014E+03</pdfrwt>
<pdfrwt beam="1">  1       -4 0.45071371E-02 0.13010014E+03</pdfrwt>
<totfact> 0.33532683E+03</totfact>
</mgrwt>
</event>
<event>
 6    4  0.5642870E-004  0.1271485E+03  0.7818608E-02  0.1231749E+00
          4   -1    0    0  502    0  0.00000000000E+00  0.00000000000E+00  0.18293464141E+03  0.18293904977E+03  0.12700000000E+01 0. -1.
         -4   -1    0    0    0  501 -0.00000000000E+00 -0.00000000000E+00 -0.43937554872E+02  0.43955905497E+02  0.12700000000E+01 0. -1.
         25    2    1    2    0    0 -0.20538876620E+02 -0.10931818775E+02  0.52907821529E+02  0.13771697780E+03  0.12500151311E+03 0.  0.
    9000005    1    3    3    0    0 -0.58942678653E+02  0.26640357048E+02  0.53546956384E+02  0.83977523947E+02  0.10000000000E+01 0.  0.
    9000005    1    3    3    0    0  0.38403802033E+02 -0.37572175823E+02 -0.63913485464E+00  0.53739453849E+02  0.10000000000E+01 0.  0.
         21    1    1    2  502  501  0.20538876620E+02  0.10931818775E+02  0.86089265013E+02  0.89177977467E+02  0.00000000000E+00 0. -1.
<mgrwt>
<rscale>  1 0.12714845E+03</rscale>
<asrwt>0</asrwt>
<pdfrwt beam="1">  1        4 0.28145542E-01 0.12714845E+03</pdfrwt>
<pdfrwt beam="2">  1       -4 0.67613745E-02 0.12714845E+03</pdfrwt>
<totfact> 0.28274918E+03</totfact>
</mgrwt>
</event>
<event>
 6    4  0.5642870E-004  0.2254028E+03  0.7818608E-02  0.1129918E+00
          4   -1    0    0  502    0  0.00000000000E+00  0.00000000000E+00  0.14411115772E+03  0.14411675364E+03  0.12700000000E+01 0.  1.
         -4   -1    0    0    0  501 -0.00000000000E+00 -0.00000000000E+00 -0.29712435456E+03  0.29712706873E+03  0.12700000000E+01 0.  1.
         25    2    1    2    0    0 -0.14052545172E+03  0.12423441518E+03 -0.69059332715E+02  0.23574481070E+03  0.12499932737E+03 0.  0.
    9000005    1    3    3    0    0 -0.97538813801E+01  0.26557858356E+02 -0.66746238941E+02  0.72501851392E+02  0.10000000000E+01 0.  0.
    9000005    1    3    3    0    0 -0.13077157034E+03  0.97676556820E+02 -0.23130937739E+01  0.16324295931E+03  0.10000000000E+01 0.  0.
         21    1    1    2  502  501  0.14052545172E+03 -0.12423441518E+03 -0.83953864124E+02  0.20549901167E+03  0.00000000000E+00 0.  1.
<mgrwt>
<rscale>  1 0.22540280E+03</rscale>
<asrwt>0</asrwt>
<pdfrwt beam="1">  1        4 0.22171587E-01 0.22540280E+03</pdfrwt>
<pdfrwt beam="2">  1       -4 0.45712078E-01 0.22540280E+03</pdfrwt>
<totfact> 0.15736927E+02</totfact>
</mgrwt>
</event>
<event>
 6    4  0.5642870E-004  0.1346246E+03  0.7818608E-02  0.1220751E+00
         -4   -1    0    0    0  501 -0.00000000000E+00  0.00000000000E+00  0.50788748118E+02  0.50804624154E+02  0.12700000000E+01 0. -1.
          4   -1    0    0  502    0  0.00000000000E+00 -0.00000000000E+00 -0.16773179288E+03  0.16773660078E+03  0.12700000000E+01 0. -1.
         25    2    1    2    0    0 -0.44790781529E+02  0.22199391508E+02 -0.84543235749E+02  0.15896963173E+03  0.12499903203E+03 0.  0.
    9000005    1    3    3    0    0 -0.81121903095E+02  0.31508117906E+02 -0.84710540247E+02  0.12145122595E+03  0.10000000000E+01 0.  0.
    9000005    1    3    3    0    0  0.36331121566E+02 -0.93087263977E+01  0.16730449837E+00  0.37518405779E+02  0.10000000000E+01 0.  0.
         21    1    1    2  502  501  0.44790781529E+02 -0.22199391508E+02 -0.32399809010E+02  0.59571593206E+02  0.00000000000E+00 0. -1.
<mgrwt>
<rscale>  1 0.13462461E+03</rscale>
<asrwt>0</asrwt>
<pdfrwt beam="2">  1        4 0.25806482E-01 0.13462461E+03</pdfrwt>
<pdfrwt beam="1">  1       -4 0.78152447E-02 0.13462461E+03</pdfrwt>
<totfact> 0.26544102E+03</totfact>
</mgrwt>
</event>
<event>
 6    4  0.5642870E-004  0.1297235E+03  0.7818608E-02  0.1227867E+00
         -4   -1    0    0    0  501 -0.00000000000E+00  0.00000000000E+00  0.11050533179E+02  0.11123272160E+02  0.12700000000E+01 0.  1.
          4   -1    0    0  502    0  0.00000000000E+00 -0.00000000000E+00 -0.64540036921E+03  0.64540161875E+03  0.12700000000E+01 0.  1.
         25    2    1    2    0    0 -0.30205981659E+02 -0.17028966705E+02 -0.42614478586E+03  0.44545208367E+03  0.12500317315E+03 0.  0.
    9000005    1    3    3    0    0 -0.32601204878E+02 -0.53510114665E+01 -0.18985720348E+02  0.38117311819E+02  0.10000000000E+01 0.  0.
    9000005    1    3    3    0    0  0.23952232190E+01 -0.11677955238E+02 -0.40715906551E+03  0.40733477185E+03  0.10000000000E+01 0.  0.
         21    1    1    2  502  501  0.30205981659E+02  0.17028966705E+02 -0.20820505018E+03  0.21107280724E+03  0.00000000000E+00 0.  1.
<mgrwt>
<rscale>  1 0.12972348E+03</rscale>
<asrwt>0</asrwt>
<pdfrwt beam="2">  1        4 0.99298027E-01 0.12972348E+03</pdfrwt>
<pdfrwt beam="1">  1       -4 0.17057740E-02 0.12972348E+03</pdfrwt>
<totfact> 0.18458826E+03</totfact>
</mgrwt>
</event>
<event>
 6    4  0.5642870E-004  0.1266817E+03  0.7818608E-02  0.1232464E+00
         -4   -1    0    0    0  501 -0.00000000000E+00  0.00000000000E+00  0.58058226315E+02  0.58072115020E+02  0.12700000000E+01 0. -1.
          4   -1    0    0  502    0  0.00000000000E+00 -0.00000000000E+00 -0.10327574529E+03  0.10328355370E+03  0.12700000000E+01 0. -1.
         25    2    1    2    0    0  0.15912325144E+02  0.13105018904E+02 -0.19147906281E+02  0.12812062219E+03  0.12499323143E+03 0.  0.
    9000005    1    3    3    0    0  0.19941170692E+02  0.22975646093E+02 -0.69905904350E+02  0.76245433076E+02  0.10000000000E+01 0.  0.
    9000005    1    3    3    0    0 -0.40288455479E+01 -0.98706271886E+01  0.50757998069E+02  0.51875189113E+02  0.10000000000E+01 0.  0.
         21    1    1    2  502  501 -0.15912325144E+02 -0.13105018904E+02 -0.26069612690E+02  0.33235046529E+02  0.00000000000E+00 0.  1.
<mgrwt>
<rscale>  1 0.12668169E+03</rscale>
<asrwt>0</asrwt>
<pdfrwt beam="2">  1        4 0.15890245E-01 0.12668169E+03</pdfrwt>
<pdfrwt beam="1">  1       -4 0.89337039E-02 0.12668169E+03</pdfrwt>
<totfact> 0.50164721E+03</totfact>
</mgrwt>
</event>
<event>
 6    4  0.5642870E-004  0.1323206E+03  0.7818608E-02  0.1224053E+00
         -4   -1    0    0    0  501 -0.00000000000E+00  0.00000000000E+00  0.86244429896E+03  0.86244523403E+03  0.12700000000E+01 0.  1.
          4   -1    0    0  502    0  0.00000000000E+00 -0.00000000000E+00 -0.13205382352E+02  0.13266311585E+02  0.12700000000E+01 0.  1.
         25    2    1    2    0    0 -0.13309162280E+02 -0.41303446608E+02  0.79649136143E+03  0.80740771645E+03  0.12500249295E+03 0.  0.
    9000005    1    3    3    0    0  0.55501842765E+02 -0.24064720111E+02  0.32086230318E+03  0.32651674215E+03  0.10000000000E+01 0.  0.
    9000005    1    3    3    0    0 -0.68811005045E+02 -0.17238726497E+02  0.47562905825E+03  0.48089097429E+03  0.10000000000E+01 0.  0.
         21    1    1    2  502  501  0.13309162280E+02  0.41303446608E+02  0.52747555178E+02  0.68303829172E+02  0.00000000000E+00 0.  1.
<mgrwt>
<rscale>  1 0.13232056E+03</rscale>
<asrwt>0</asrwt>
<pdfrwt beam="2">  1        4 0.20363560E-02 0.13232056E+03</pdfrwt>
<pdfrwt beam="1">  1       -4 0.13268850E+00 0.13232056E+03</pdfrwt>
<totfact> 0.70858361E+02</totfact>
</mgrwt>
</event>
<event>
 6    4  0.5642870E-004  0.1279664E+03  0.7818608E-02  0.1230505E+00
         -4   -1    0    0    0  501 -0.00000000000E+00  0.00000000000E+00  0.17467515522E+03  0.17467977201E+03  0.12700000000E+01 0.  1.
          4   -1    0    0  502    0  0.00000000000E+00 -0.00000000000E+00 -0.54755459793E+02  0.54770186024E+02  0.12700000000E+01 0.  1.
         25    2    1    2    0    0 -0.49184185545E+01  0.26879014647E+02  0.14427295283E+03  0.19284731584E+03  0.12501491927E+03 0.  0.
    9000005    1    3    3    0    0  0.33940973256E+02 -0.21205470096E+01  0.14009848464E+03  0.14417028745E+03  0.10000000000E+01 0.  0.
    9000005    1    3    3    0    0 -0.38859391811E+02  0.28999561656E+02  0.41744681859E+01  0.48677028389E+02  0.10000000000E+01 0.  0.
         21    1    1    2  502  501  0.49184185545E+01 -0.26879014647E+02 -0.24353257403E+02  0.36602642194E+02  0.00000000000E+00 0.  1.
<mgrwt>
<rscale>  1 0.12796641E+03</rscale>
<asrwt>0</asrwt>
<pdfrwt beam="2">  1        4 0.84254050E-02 0.12796641E+03</pdfrwt>
<pdfrwt beam="1">  1       -4 0.26874588E-01 0.12796641E+03</pdfrwt>
<totfact> 0.21480592E+03</totfact>
</mgrwt>
</event>
<event>
 6    4  0.5642870E-004  0.1275561E+03  0.7818608E-02  0.1231128E+00
          4   -1    0    0  502    0  0.00000000000E+00  0.00000000000E+00  0.29138255785E+03  0.29138532550E+03  0.12700000000E+01 0.  1.
         -4   -1    0    0    0  501 -0.00000000000E+00 -0.00000000000E+00 -0.20662909110E+02  0.20701901190E+02  0.12700000000E+01 0.  1.
         25    2    1    2    0    0 -0.23850628429E+02 -0.85550136146E+01  0.20263019685E+03  0.23943590741E+03  0.12501406461E+03 0.  0.
    9000005    1    3    3    0    0  0.47325100952E+02 -0.52918373005E+01  0.41195788331E+02  0.62974293949E+02  0.10000000000E+01 0.  0.
    9000005    1    3    3    0    0 -0.71175729382E+02 -0.32631763141E+01  0.16143440852E+03  0.17646161346E+03  0.10000000000E+01 0.  0.
         21    1    1    2  502  501  0.23850628429E+02  0.85550136146E+01  0.68089451887E+02  0.72651319277E+02  0.00000000000E+00 0.  1.
<mgrwt>
<rscale>  1 0.12755609E+03</rscale>
<asrwt>0</asrwt>
<pdfrwt beam="1">  1        4 0.44831299E-01 0.12755609E+03</pdfrwt>
<pdfrwt beam="2">  1       -4 0.31821213E-02 0.12755609E+03</pdfrwt>
<totfact> 0.38427101E+03</totfact>
</mgrwt>
</event>
<event>
 6    4  0.5642870E-004  0.1282631E+03  0.7818608E-02  0.1230056E+00
          4   -1    0    0  502    0  0.00000000000E+00  0.00000000000E+00  0.53240530143E+02  0.53255675284E+02  0.12700000000E+01 0.  1.
         -4   -1    0    0    0  501 -0.00000000000E+00 -0.00000000000E+00 -0.20847012378E+03  0.20847399216E+03  0.12700000000E+01 0.  1.
         25    2    1    2    0    0 -0.18302073155E+02 -0.22070096675E+02 -0.18189852580E+03  0.22257245877E+03  0.12501748144E+03 0.  0.
    9000005    1    3    3    0    0  0.11868586164E+01 -0.18696696895E+02 -0.19686017059E+03  0.19775212230E+03  0.10000000000E+01 0.  0.
    9000005    1    3    3    0    0 -0.19488931772E+02 -0.33733997796E+01  0.14961644792E+02  0.24820336472E+02  0.10000000000E+01 0.  0.
         21    1    1    2  502  501  0.18302073155E+02  0.22070096675E+02  0.26668932160E+02  0.39157208680E+02  0.00000000000E+00 0. -1.
<mgrwt>
<rscale>  1 0.12826311E+03</rscale>
<asrwt>0</asrwt>
<pdfrwt beam="1">  1        4 0.81923135E-02 0.12826311E+03</pdfrwt>
<pdfrwt beam="2">  1       -4 0.32073789E-01 0.12826311E+03</pdfrwt>
<totfact> 0.16140229E+03</totfact>
</mgrwt>
</event>
<event>
 6    4  0.5642870E-004  0.1276281E+03  0.7818608E-02  0.1231018E+00
         -4   -1    0    0    0  501 -0.00000000000E+00  0.00000000000E+00  0.22485559658E+02  0.22521396341E+02  0.12700000000E+01 0.  1.
          4   -1    0    0  502    0  0.00000000000E+00 -0.00000000000E+00 -0.31641190659E+03  0.31641445532E+03  0.12700000000E+01 0.  1.
         25    2    1    2    0    0  0.22397321341E+02 -0.12820272694E+02 -0.17126921271E+03  0.21359323332E+03  0.12499170654E+03 0.  0.
    9000005    1    3    3    0    0 -0.43875180228E+02  0.57289309005E+00 -0.12276863689E+03  0.13037828749E+03  0.10000000000E+01 0.  0.
    9000005    1    3    3    0    0  0.66272501569E+02 -0.13393165784E+02 -0.48500575820E+02  0.83214945826E+02  0.10000000000E+01 0.  0.
         21    1    1    2  502  501 -0.22397321341E+02  0.12820272694E+02 -0.12265713423E+03  0.12534261834E+03  0.00000000000E+00 0.  1.
<mgrwt>
<rscale>  1 0.12762808E+03</rscale>
<asrwt>0</asrwt>
<pdfrwt beam="2">  1        4 0.48681704E-01 0.12762808E+03</pdfrwt>
<pdfrwt beam="1">  1       -4 0.34622698E-02 0.12762808E+03</pdfrwt>
<totfact> 0.28515611E+03</totfact>
</mgrwt>
</event>
<event>
 6    4  0.5642870E-004  0.1328904E+03  0.7818608E-02  0.1223229E+00
         -4   -1    0    0    0  501 -0.00000000000E+00  0.00000000000E+00  0.78127770370E+03  0.78127873592E+03  0.12700000000E+01 0.  1.
          4   -1    0    0  502    0  0.00000000000E+00 -0.00000000000E+00 -0.12087514952E+02  0.12154049437E+02  0.12700000000E+01 0.  1.
         25    2    1    2    0    0 -0.43016298487E+02  0.13586783765E+02  0.40000883208E+03  0.42150553878E+03  0.12499940343E+03 0.  0.
    9000005    1    3    3    0    0 -0.46087734688E+02 -0.50627052288E+02  0.19714484335E+03  0.20869659071E+03  0.10000000000E+01 0.  0.
    9000005    1    3    3    0    0  0.30714362006E+01  0.64213836054E+02  0.20286398872E+03  0.21280894808E+03  0.10000000000E+01 0.  0.
         21    1    1    2  502  501  0.43016298487E+02 -0.13586783765E+02  0.36918135667E+03  0.37192724657E+03  0.00000000000E+00 0.  1.
<mgrwt>
<rscale>  1 0.13289038E+03</rscale>
<asrwt>0</asrwt>
<pdfrwt beam="2">  1        4 0.18648155E-02 0.13289038E+03</pdfrwt>
<pdfrwt beam="1">  1       -4 0.12020175E+00 0.13289038E+03</pdfrwt>
<totfact> 0.10326392E+03</totfact>
</mgrwt>
</event>
<event>
 6    4  0.5642870E-004  0.1285848E+03  0.7818608E-02  0.1229571E+00
         -4   -1    0    0    0  501 -0.00000000000E+00  0.00000000000E+00  0.45284119319E+02  0.45301924490E+02  0.12700000000E+01 0. -1.
          4   -1    0    0  502    0  0.00000000000E+00 -0.00000000000E+00 -0.16149959610E+03  0.16150458953E+03  0.12700000000E+01 0. -1.
         25    2    1    2    0    0 -0.30145512131E+02  0.46716958861E+00 -0.57609574425E+02  0.14090035392E+03  0.12500030608E+03 0.  0.
    9000005    1    3    3    0    0 -0.33228586251E+02  0.43530509783E+02  0.14669292399E+02  0.56703019017E+02  0.10000000000E+01 0.  0.
    9000005    1    3    3    0    0  0.30830741206E+01 -0.43063340194E+02 -0.72278866824E+02  0.84197334899E+02  0.10000000000E+01 0.  0.
         21    1    1    2  502  501  0.30145512131E+02 -0.46716958861E+00 -0.58605902353E+02  0.65906160104E+02  0.00000000000E+00 0.  1.
<mgrwt>
<rscale>  1 0.12858478E+03</rscale>
<asrwt>0</asrwt>
<pdfrwt beam="2">  1        4 0.24847845E-01 0.12858478E+03</pdfrwt>
<pdfrwt beam="1">  1       -4 0.69685414E-02 0.12858478E+03</pdfrwt>
<totfact> 0.34010653E+03</totfact>
</mgrwt>
</event>
<event>
 6    4  0.5642870E-004  0.1366920E+03  0.7818608E-02  0.1217851E+00
         -4   -1    0    0    0  501 -0.00000000000E+00  0.00000000000E+00  0.83973961969E+02  0.83983564992E+02  0.12700000000E+01 0. -1.
          4   -1    0    0  502    0  0.00000000000E+00 -0.00000000000E+00 -0.11148347475E+03  0.11149070832E+03  0.12700000000E+01 0. -1.
         25    2    1    2    0    0  0.27051728748E+02 -0.48253692793E+02 -0.84090477953E+01  0.13695040930E+03  0.12499795049E+03 0.  0.
    9000005    1    3    3    0    0 -0.18733511009E+02  0.32825053167E+02  0.15419876473E+02  0.40831374464E+02  0.10000000000E+01 0.  0.
    9000005    1    3    3    0    0  0.45785239758E+02 -0.81078745960E+02 -0.23828924268E+02  0.96119034836E+02  0.10000000000E+01 0.  0.
         21    1    1    2  502  501 -0.27051728748E+02  0.48253692793E+02 -0.19100464983E+02  0.58523864013E+02  0.00000000000E+00 0. -1.
<mgrwt>
<rscale>  1 0.13669200E+03</rscale>
<asrwt>0</asrwt>
<pdfrwt beam="2">  1        4 0.17152599E-01 0.13669200E+03</pdfrwt>
<pdfrwt beam="1">  1       -4 0.12920366E-01 0.13669200E+03</pdfrwt>
<totfact> 0.23898405E+03</totfact>
</mgrwt>
</event>
<event>
 6    4  0.5642870E-004  0.1703740E+03  0.7818608E-02  0.1177458E+00
          4   -1    0    0  502    0  0.00000000000E+00  0.00000000000E+00  0.59414072977E+03  0.59414208710E+03  0.12700000000E+01 0. -1.
         -4   -1    0    0    0  501 -0.00000000000E+00 -0.00000000000E+00 -0.34440753056E+02  0.34464160676E+02  0.12700000000E+01 0. -1.
         25    2    1    2    0    0  0.39058871877E+02 -0.10898017653E+03  0.33099462980E+03  0.37226973057E+03  0.12500013198E+03 0.  0.
    9000005    1    3    3    0    0 -0.20712693485E+02 -0.41583893571E+02  0.23939631588E+02  0.52271807281E+02  0.10000000000E+01 0.  0.
    9000005    1    3    3    0    0  0.59771565363E+02 -0.67396282960E+02  0.30705499821E+03  0.31999792329E+03  0.10000000000E+01 0.  0.
         21    1    1    2  502  501 -0.39058871877E+02  0.10898017653E+03  0.22870534691E+03  0.25633651721E+03  0.00000000000E+00 0. -1.
<mgrwt>
<rscale>  1 0.17037402E+03</rscale>
<asrwt>0</asrwt>
<pdfrwt beam="1">  1        4 0.91408179E-01 0.17037402E+03</pdfrwt>
<pdfrwt beam="2">  1       -4 0.53004820E-02 0.17037402E+03</pdfrwt>
<totfact> 0.39638793E+02</totfact>
</mgrwt>
</event>
<event>
 6    4  0.5642870E-004  0.1273006E+03  0.7818608E-02  0.1231517E+00
         -4   -1    0    0    0  501 -0.00000000000E+00  0.00000000000E+00  0.22549302225E+04  0.22549305801E+04  0.12700000000E+01 0. -1.
          4   -1    0    0  502    0  0.00000000000E+00 -0.00000000000E+00 -0.23876427204E+01  0.27043923089E+01  0.12700000000E+01 0. -1.
         25    2    1    2    0    0  0.28090995958E+00  0.24067734274E+02  0.18521924532E+04  0.18565619633E+04  0.12500442178E+03 0.  0.
    9000005    1    3    3    0    0 -0.18212006186E+01 -0.20920271352E+02  0.16145841140E+04  0.16147209776E+04  0.10000000000E+01 0.  0.
    9000005    1    3    3    0    0  0.21021105782E+01  0.44988005626E+02  0.23760833920E+03  0.24184098573E+03  0.10000000000E+01 0.  0.
         21    1    1    2  502  501 -0.28090995958E+00 -0.24067734274E+02  0.40035012660E+03  0.40107300908E+03  0.00000000000E+00 0. -1.
<mgrwt>
<rscale>  1 0.12730059E+03</rscale>
<asrwt>0</asrwt>
<pdfrwt beam="2">  1        4 0.39172343E-03 0.12730059E+03</pdfrwt>
<pdfrwt beam="1">  1       -4 0.34693592E+00 0.12730059E+03</pdfrwt>
<totfact> 0.39221102E+02</totfact>
</mgrwt>
</event>
<event>
 6    4  0.5642870E-004  0.1298715E+03  0.7818608E-02  0.1227646E+00
          4   -1    0    0  502    0  0.00000000000E+00  0.00000000000E+00  0.21963027915E+03  0.21963395097E+03  0.12700000000E+01 0. -1.
         -4   -1    0    0    0  501 -0.00000000000E+00 -0.00000000000E+00 -0.32611284284E+02  0.32636004085E+02  0.12700000000E+01 0. -1.
         25    2    1    2    0    0 -0.34663017942E+02  0.60978359652E+01  0.12124208952E+03  0.17766895176E+03  0.12501161439E+03 0.  0.
    9000005    1    3    3    0    0 -0.38337444789E+02  0.35792492142E+02  0.13491642423E+03  0.14475601437E+03  0.10000000000E+01 0.  0.
    9000005    1    3    3    0    0  0.36744268473E+01 -0.29694656176E+02 -0.13674334712E+02  0.32912937394E+02  0.10000000000E+01 0.  0.
         21    1    1    2  502  501  0.34663017942E+02 -0.60978359652E+01  0.65776905341E+02  0.74601003295E+02  0.00000000000E+00 0.  1.
<mgrwt>
<rscale>  1 0.12987152E+03</rscale>
<asrwt>0</asrwt>
<pdfrwt beam="1">  1        4 0.33791458E-01 0.12987152E+03</pdfrwt>
<pdfrwt beam="2">  1       -4 0.50193046E-02 0.12987152E+03</pdfrwt>
<totfact> 0.32573689E+03</totfact>
</mgrwt>
</event>
<event>
 6    4  0.5642870E-004  0.1273735E+03  0.7818608E-02  0.1231406E+00
         -4   -1    0    0    0  501 -0.00000000000E+00  0.00000000000E+00  0.49051157835E+02  0.49067596078E+02  0.12700000000E+01 0.  1.
          4   -1    0    0  502    0  0.00000000000E+00 -0.00000000000E+00 -0.26092339022E+03  0.26092648096E+03  0.12700000000E+01 0.  1.
         25    2    1    2    0    0 -0.19637255414E+02  0.14683028406E+02 -0.35919776091E+02  0.13234138215E+03  0.12499119166E+03 0.  0.
    9000005    1    3    3    0    0 -0.47206093742E+02 -0.15642001080E+02  0.27491684073E+02  0.56832034781E+02  0.10000000000E+01 0.  0.
    9000005    1    3    3    0    0  0.27568838328E+02  0.30325029486E+02 -0.63411460164E+02  0.75509347369E+02  0.10000000000E+01 0.  0.
         21    1    1    2  502  501  0.19637255414E+02 -0.14683028406E+02 -0.17595245630E+03  0.17765269488E+03  0.00000000000E+00 0.  1.
<mgrwt>
<rscale>  1 0.12737351E+03</rscale>
<asrwt>0</asrwt>
<pdfrwt beam="2">  1        4 0.40143561E-01 0.12737351E+03</pdfrwt>
<pdfrwt beam="1">  1       -4 0.75478344E-02 0.12737351E+03</pdfrwt>
<totfact> 0.11952788E+03</totfact>
</mgrwt>
</event>
<event>
 6    4  0.5642870E-004  0.1282731E+03  0.7818608E-02  0.1230041E+00
         -4   -1    0    0    0  501 -0.00000000000E+00  0.00000000000E+00  0.50677164990E+02  0.50693075972E+02  0.12700000000E+01 0.  1.
          4   -1    0    0  502    0  0.00000000000E+00 -0.00000000000E+00 -0.18288172686E+03  0.18288613649E+03  0.12700000000E+01 0.  1.
         25    2    1    2    0    0  0.25265257618E+02  0.13822112778E+02 -0.36105414047E+02  0.13325757842E+03  0.12499838894E+03 0.  0.
    9000005    1    3    3    0    0 -0.46796750693E+01 -0.28027372847E+02 -0.67309240129E+02  0.73068233824E+02  0.10000000000E+01 0.  0.
    9000005    1    3    3    0    0  0.29944932687E+02  0.41849485625E+02  0.31203826082E+02  0.60189344595E+02  0.10000000000E+01 0.  0.
         21    1    1    2  502  501 -0.25265257618E+02 -0.13822112778E+02 -0.96099147824E+02  0.10032163404E+03  0.00000000000E+00 0.  1.
<mgrwt>
<rscale>  1 0.12827307E+03</rscale>
<asrwt>0</asrwt>
<pdfrwt beam="2">  1        4 0.28137213E-01 0.12827307E+03</pdfrwt>
<pdfrwt beam="1">  1       -4 0.77980501E-02 0.12827307E+03</pdfrwt>
<totfact> 0.22424997E+03</totfact>
</mgrwt>
</event>
<event>
 6    4  0.5642870E-004  0.1484604E+03  0.7818608E-02  0.1202378E+00
          4   -1    0    0  502    0  0.00000000000E+00  0.00000000000E+00  0.29034333460E+03  0.29034611216E+03  0.12700000000E+01 0.  1.
         -4   -1    0    0    0  501 -0.00000000000E+00 -0.00000000000E+00 -0.61603386735E+02  0.61616476345E+02  0.12700000000E+01 0.  1.
         25    2    1    2    0    0  0.74875135353E+02  0.28425411730E+02  0.50939073806E+02  0.15695633029E+03  0.12500484172E+03 0.  0.
    9000005    1    3    3    0    0 -0.99166158635E+01 -0.35837651252E+02  0.31616220090E+02  0.48818663339E+02  0.10000000000E+01 0.  0.
    9000005    1    3    3    0    0  0.84791751217E+02  0.64263062982E+02  0.19322853716E+02  0.10813766695E+03  0.10000000000E+01 0.  0.
         21    1    1    2  502  501 -0.74875135353E+02 -0.28425411730E+02  0.17780087406E+03  0.19500625821E+03  0.00000000000E+00 0.  1.
<mgrwt>
<rscale>  1 0.14846043E+03</rscale>
<asrwt>0</asrwt>
<pdfrwt beam="1">  1        4 0.44669426E-01 0.14846043E+03</pdfrwt>
<pdfrwt beam="2">  1       -4 0.94786647E-02 0.14846043E+03</pdfrwt>
<totfact> 0.68304986E+02</totfact>
</mgrwt>
</event>
<event>
 6    4  0.5642870E-004  0.1293014E+03  0.7818608E-02  0.1228496E+00
          4   -1    0    0  502    0  0.00000000000E+00  0.00000000000E+00  0.26557350986E+02  0.26587700002E+02  0.12700000000E+01 0. -1.
         -4   -1    0    0    0  501 -0.00000000000E+00 -0.00000000000E+00 -0.27672441185E+03  0.27672732611E+03  0.12700000000E+01 0. -1.
         25    2    1    2    0    0 -0.70918832481E+01 -0.32299914582E+02 -0.23196188004E+03  0.26556574931E+03  0.12500109649E+03 0.  0.
    9000005    1    3    3    0    0 -0.43668981070E+00 -0.26334860375E+02 -0.24680632282E+03  0.24820974307E+03  0.10000000000E+01 0.  0.
    9000005    1    3    3    0    0 -0.66551934374E+01 -0.59650542063E+01  0.14844442778E+02  0.17356006245E+02  0.10000000000E+01 0.  0.
         21    1    1    2  502  501  0.70918832481E+01  0.32299914582E+02 -0.18205180823E+02  0.37749276798E+02  0.00000000000E+00 0. -1.
<mgrwt>
<rscale>  1 0.12930141E+03</rscale>
<asrwt>0</asrwt>
<pdfrwt beam="1">  1        4 0.40883052E-02 0.12930141E+03</pdfrwt>
<pdfrwt beam="2">  1       -4 0.42575543E-01 0.12930141E+03</pdfrwt>
<totfact> 0.28771784E+03</totfact>
</mgrwt>
</event>
<event>
 6    4  0.5642870E-004  0.1319685E+03  0.7818608E-02  0.1224564E+00
         -4   -1    0    0    0  501 -0.00000000000E+00  0.00000000000E+00  0.30723781920E+03  0.30724044403E+03  0.12700000000E+01 0. -1.
          4   -1    0    0  502    0  0.00000000000E+00 -0.00000000000E+00 -0.36318534556E+02  0.36340732688E+02  0.12700000000E+01 0. -1.
         25    2    1    2    0    0 -0.40687925647E+02  0.11664476780E+02  0.27081058383E+03  0.30125412712E+03  0.12499643786E+03 0.  0.
    9000005    1    3    3    0    0 -0.45635078067E+02 -0.16405545456E+02  0.26827148182E+03  0.27262114780E+03  0.10000000000E+01 0.  0.
    9000005    1    3    3    0    0  0.49471524198E+01  0.28070022235E+02  0.25391020148E+01  0.28632979314E+02  0.10000000000E+01 0.  0.
         21    1    1    2  502  501  0.40687925647E+02 -0.11664476780E+02  0.10870080987E+00  0.42327049600E+02  0.00000000000E+00 0. -1.
<mgrwt>
<rscale>  1 0.13196847E+03</rscale>
<asrwt>0</asrwt>
<pdfrwt beam="2">  1        4 0.55893762E-02 0.13196847E+03</pdfrwt>
<pdfrwt beam="1">  1       -4 0.47269267E-01 0.13196847E+03</pdfrwt>
<totfact> 0.14206734E+03</totfact>
</mgrwt>
</event>
<event>
 6    4  0.5642870E-004  0.1301616E+03  0.7818608E-02  0.1227216E+00
         -4   -1    0    0    0  501 -0.00000000000E+00  0.00000000000E+00  0.27047047010E+02  0.27076847157E+02  0.12700000000E+01 0. -1.
          4   -1    0    0  502    0  0.00000000000E+00 -0.00000000000E+00 -0.31336414088E+03  0.31336671439E+03  0.12700000000E+01 0. -1.
         25    2    1    2    0    0  0.26028358621E+01  0.36173426820E+02 -0.14636714382E+03  0.19587081141E+03  0.12500696945E+03 0.  0.
    9000005    1    3    3    0    0 -0.21993128623E+01  0.42339775854E+02  0.64102360782E+01  0.42890380309E+02  0.10000000000E+01 0.  0.
    9000005    1    3    3    0    0  0.48021487243E+01 -0.61663490340E+01 -0.15277737990E+03  0.15298043111E+03  0.10000000000E+01 0.  0.
         21    1    1    2  502  501 -0.26028358621E+01 -0.36173426820E+02 -0.13994995005E+03  0.14457275013E+03  0.00000000000E+00 0.  1.
<mgrwt>
<rscale>  1 0.13016157E+03</rscale>
<asrwt>0</asrwt>
<pdfrwt beam="2">  1        4 0.48212355E-01 0.13016157E+03</pdfrwt>
<pdfrwt beam="1">  1       -4 0.41635747E-02 0.13016157E+03</pdfrwt>
<totfact> 0.21820486E+03</totfact>
</mgrwt>
</event>
<event>
 6    4  0.5642870E-004  0.1390039E+03  0.7818608E-02  0.1214676E+00
         -4   -1    0    0    0  501 -0.00000000000E+00  0.00000000000E+00  0.33642502511E+03  0.33642742221E+03  0.12700000000E+01 0. -1.
          4   -1    0    0  502    0  0.00000000000E+00 -0.00000000000E+00 -0.35098658504E+02  0.35121627650E+02  0.12700000000E+01 0. -1.
         25    2    1    2    0    0 -0.57745866399E+02  0.19035097981E+02  0.26874932073E+03  0.30256945898E+03  0.12500064028E+03 0.  0.
    9000005    1    3    3    0    0  0.39516507805E+02  0.97598835117E+01  0.92089898072E+02  0.10068941872E+03  0.10000000000E+01 0.  0.
    9000005    1    3    3    0    0 -0.97262374204E+02  0.92752144689E+01  0.17665942266E+03  0.20188004026E+03  0.10000000000E+01 0.  0.
         21    1    1    2  502  501  0.57745866399E+02 -0.19035097981E+02  0.32577045868E+02  0.68979590887E+02  0.00000000000E+00 0.  1.
<mgrwt>
<rscale>  1 0.13900389E+03</rscale>
<asrwt>0</asrwt>
<pdfrwt beam="2">  1        4 0.54017449E-02 0.13900389E+03</pdfrwt>
<pdfrwt beam="1">  1       -4 0.51759647E-01 0.13900389E+03</pdfrwt>
<totfact> 0.12621822E+03</totfact>
</mgrwt>
</event>
<event>
 6    4  0.5642870E-004  0.1265930E+03  0.7818608E-02  0.1232601E+00
          4   -1    0    0  502    0  0.00000000000E+00  0.00000000000E+00  0.76798169170E+02  0.76808669353E+02  0.12700000000E+01 0.  1.
         -4   -1    0    0    0  501 -0.00000000000E+00 -0.00000000000E+00 -0.94613451516E+02  0.94621974762E+02  0.12700000000E+01 0.  1.
         25    2    1    2    0    0 -0.18505668299E+02 -0.76411148259E+01 -0.47850101916E+02  0.13533442850E+03  0.12499971556E+03 0.  0.
    9000005    1    3    3    0    0 -0.17311395702E+02 -0.14623661723E+02 -0.89880936489E+02  0.92699075764E+02  0.10000000000E+01 0.  0.
    9000005    1    3    3    0    0 -0.11942725965E+01  0.69825468974E+01  0.42030834573E+02  0.42635352739E+02  0.10000000000E+01 0.  0.
         21    1    1    2  502  501  0.18505668299E+02  0.76411148259E+01  0.30034819569E+02  0.36096215612E+02  0.00000000000E+00 0. -1.
<mgrwt>
<rscale>  1 0.12659295E+03</rscale>
<asrwt>0</asrwt>
<pdfrwt beam="1">  1        4 0.11816566E-01 0.12659295E+03</pdfrwt>
<pdfrwt beam="2">  1       -4 0.14557379E-01 0.12659295E+03</pdfrwt>
<totfact> 0.36469221E+03</totfact>
</mgrwt>
</event>
<event>
 6    4  0.5642870E-004  0.1275553E+03  0.7818608E-02  0.1231129E+00
         -4   -1    0    0    0  501 -0.00000000000E+00  0.00000000000E+00  0.63927671841E+03  0.63927797991E+03  0.12700000000E+01 0.  1.
          4   -1    0    0  502    0  0.00000000000E+00 -0.00000000000E+00 -0.11521032266E+02  0.11590818973E+02  0.12700000000E+01 0.  1.
         25    2    1    2    0    0  0.18545330457E+02  0.17409537948E+02  0.59920224895E+03  0.61262850510E+03  0.12499331509E+03 0.  0.
    9000005    1    3    3    0    0  0.66607385882E+02  0.81583163630E+01  0.46415912492E+03  0.46898592220E+03  0.10000000000E+01 0.  0.
    9000005    1    3    3    0    0 -0.48062055424E+02  0.92512215847E+01  0.13504312404E+03  0.14364258290E+03  0.10000000000E+01 0.  0.
         21    1    1    2  502  501 -0.18545330457E+02 -0.17409537948E+02  0.28553437192E+02  0.38240293785E+02  0.00000000000E+00 0.  1.
<mgrwt>
<rscale>  1 0.12755528E+03</rscale>
<asrwt>0</asrwt>
<pdfrwt beam="2">  1        4 0.17779309E-02 0.12755528E+03</pdfrwt>
<pdfrwt beam="1">  1       -4 0.98355776E-01 0.12755528E+03</pdfrwt>
<totfact> 0.17640777E+03</totfact>
</mgrwt>
</event>
<event>
 6    4  0.5642870E-004  0.1316450E+03  0.7818608E-02  0.1225035E+00
         -4   -1    0    0    0  501 -0.00000000000E+00  0.00000000000E+00  0.59714777341E+02  0.59728280847E+02  0.12700000000E+01 0. -1.
          4   -1    0    0  502    0  0.00000000000E+00 -0.00000000000E+00 -0.12822764107E+03  0.12823393013E+03  0.12700000000E+01 0. -1.
         25    2    1    2    0    0 -0.30305766445E+01  0.41189162910E+02 -0.64115878483E+02  0.14642830897E+03  0.12499868903E+03 0.  0.
    9000005    1    3    3    0    0  0.30686979658E+02 -0.10773395112E+02  0.22772471558E+02  0.39715767947E+02  0.10000000000E+01 0.  0.
    9000005    1    3    3    0    0 -0.33717556303E+02  0.51962558022E+02 -0.86888350041E+02  0.10671254103E+03  0.10000000000E+01 0.  0.
         21    1    1    2  502  501  0.30305766445E+01 -0.41189162910E+02 -0.43969852509E+01  0.41533902000E+02  0.00000000000E+00 0. -1.
<mgrwt>
<rscale>  1 0.13164499E+03</rscale>
<asrwt>0</asrwt>
<pdfrwt beam="2">  1        4 0.19728852E-01 0.13164499E+03</pdfrwt>
<pdfrwt beam="1">  1       -4 0.91884114E-02 0.13164499E+03</pdfrwt>
<totfact> 0.32920262E+03</totfact>
</mgrwt>
</event>
<event>
 6    4  0.5642870E-004  0.1294450E+03  0.7818608E-02  0.1228282E+00
         -4   -1    0    0    0  501 -0.00000000000E+00  0.00000000000E+00  0.18850600064E+03  0.18851027870E+03  0.12700000000E+01 0. -1.
          4   -1    0    0  502    0  0.00000000000E+00 -0.00000000000E+00 -0.10453706798E+03  0.10454478218E+03  0.12700000000E+01 0. -1.
         25    2    1    2    0    0  0.20022117936E+02  0.27024772010E+02  0.16242323407E+03  0.20769522889E+03  0.12499911051E+03 0.  0.
    9000005    1    3    3    0    0 -0.41052163715E+01  0.21334530703E+02 -0.16349739951E+02  0.27208987453E+02  0.10000000000E+01 0.  0.
    9000005    1    3    3    0    0  0.24127334308E+02  0.56902413075E+01  0.17877297402E+03  0.18048624144E+03  0.10000000000E+01 0.  0.
         21    1    1    2  502  501 -0.20022117936E+02 -0.27024772010E+02 -0.78454301411E+02  0.85359831999E+02  0.00000000000E+00 0. -1.
<mgrwt>
<rscale>  1 0.12944497E+03</rscale>
<asrwt>0</asrwt>
<pdfrwt beam="2">  1        4 0.16083548E-01 0.12944497E+03</pdfrwt>
<pdfrwt beam="1">  1       -4 0.29001846E-01 0.12944497E+03</pdfrwt>
<totfact> 0.61993051E+02</totfact>
</mgrwt>
</event>
<event>
 6    4  0.5642870E-004  0.1286886E+03  0.7818608E-02  0.1229415E+00
         -4   -1    0    0    0  501 -0.00000000000E+00  0.00000000000E+00  0.12000615220E+02  0.12067628833E+02  0.12700000000E+01 0.  1.
          4   -1    0    0  502    0  0.00000000000E+00 -0.00000000000E+00 -0.52820622210E+03  0.52820774887E+03  0.12700000000E+01 0.  1.
         25    2    1    2    0    0 -0.17585433279E+02  0.25021533220E+02 -0.40619952033E+03  0.42609716758E+03  0.12500168526E+03 0.  0.
    9000005    1    3    3    0    0  0.82960368730E+01  0.42307264864E+02 -0.38725337455E+03  0.38964715448E+03  0.10000000000E+01 0.  0.
    9000005    1    3    3    0    0 -0.25881470152E+02 -0.17285731644E+02 -0.18946145777E+02  0.36450013107E+02  0.10000000000E+01 0.  0.
         21    1    1    2  502  501  0.17585433279E+02 -0.25021533220E+02 -0.11000608655E+03  0.11417821012E+03  0.00000000000E+00 0. -1.
<mgrwt>
<rscale>  1 0.12868856E+03</rscale>
<asrwt>0</asrwt>
<pdfrwt beam="2">  1        4 0.81267750E-01 0.12868856E+03</pdfrwt>
<pdfrwt beam="1">  1       -4 0.18515212E-02 0.12868856E+03</pdfrwt>
<totfact> 0.25542260E+03</totfact>
</mgrwt>
</event>
<event>
 6    4  0.5642870E-004  0.1319010E+03  0.7818608E-02  0.1224662E+00
         -4   -1    0    0    0  501 -0.00000000000E+00  0.00000000000E+00  0.96636674221E+03  0.96636757673E+03  0.12700000000E+01 0.  1.
          4   -1    0    0  502    0  0.00000000000E+00 -0.00000000000E+00 -0.79522510849E+01  0.80530241100E+01  0.12700000000E+01 0.  1.
         25    2    1    2    0    0  0.38122556047E+02 -0.17895446904E+02  0.78222851664E+03  0.79327128700E+03  0.12499722489E+03 0.  0.
    9000005    1    3    3    0    0 -0.44110652709E+02 -0.24567556974E+01  0.18472470132E+03  0.18993683321E+03  0.10000000000E+01 0.  0.
    9000005    1    3    3    0    0  0.82233208756E+02 -0.15438691206E+02  0.59750381532E+03  0.60333445379E+03  0.10000000000E+01 0.  0.
         21    1    1    2  502  501 -0.38122556047E+02  0.17895446904E+02  0.17618597449E+03  0.18114931384E+03  0.00000000000E+00 0. -1.
<mgrwt>
<rscale>  1 0.13190103E+03</rscale>
<asrwt>0</asrwt>
<pdfrwt beam="2">  1        4 0.12312392E-02 0.13190103E+03</pdfrwt>
<pdfrwt beam="1">  1       -4 0.14867962E+00 0.13190103E+03</pdfrwt>
<totfact> 0.11489009E+03</totfact>
</mgrwt>
</event>
<event>
 6    4  0.5642870E-004  0.1276052E+03  0.7818608E-02  0.1231053E+00
         -4   -1    0    0    0  501 -0.00000000000E+00  0.00000000000E+00  0.17497632370E+03  0.17498093255E+03  0.12700000000E+01 0.  1.
          4   -1    0    0  502    0  0.00000000000E+00 -0.00000000000E+00 -0.58491581810E+02  0.58505367640E+02  0.12700000000E+01 0.  1.
         25    2    1    2    0    0 -0.23728529367E+02  0.97158609172E+01  0.14632070521E+03  0.19414642518E+03  0.12500257828E+03 0.  0.
    9000005    1    3    3    0    0 -0.71270568248E+02 -0.16476028484E+02  0.88762968173E+02  0.11502529258E+03  0.10000000000E+01 0.  0.
    9000005    1    3    3    0    0  0.47542038881E+02  0.26191889402E+02  0.57557737035E+02  0.79121132601E+02  0.10000000000E+01 0.  0.
         21    1    1    2  502  501  0.23728529367E+02 -0.97158609172E+01 -0.29835963316E+02  0.39339875016E+02  0.00000000000E+00 0.  1.
<mgrwt>
<rscale>  1 0.12760519E+03</rscale>
<asrwt>0</asrwt>
<pdfrwt beam="2">  1        4 0.90001198E-02 0.12760519E+03</pdfrwt>
<pdfrwt beam="1">  1       -4 0.26920850E-01 0.12760519E+03</pdfrwt>
<totfact> 0.19171819E+03</totfact>
</mgrwt>
</event>
<event>
 6    4  0.5642870E-004  0.1276833E+03  0.7818608E-02  0.1230934E+00
         -4   -1    0    0    0  501 -0.00000000000E+00  0.00000000000E+00  0.13873482696E+03  0.13874063973E+03  0.12700000000E+01 0.  1.
          4   -1    0    0  502    0  0.00000000000E+00 -0.00000000000E+00 -0.42563802315E+02  0.42582744950E+02  0.12700000000E+01 0.  1.
         25    2    1    2    0    0  0.21784240741E+02  0.14236980150E+02  0.80698355697E+02  0.15104718556E+03  0.12500313158E+03 0.  0.
    9000005    1    3    3    0    0 -0.40190625075E+02  0.11422156562E+02  0.78534059120E+02  0.88962635113E+02  0.10000000000E+01 0.  0.
    9000005    1    3    3    0    0  0.61974865816E+02  0.28148235884E+01  0.21642965775E+01  0.62084550449E+02  0.10000000000E+01 0.  0.
         21    1    1    2  502  501 -0.21784240741E+02 -0.14236980150E+02  0.15472668947E+02  0.30276199114E+02  0.00000000000E+00 0.  1.
<mgrwt>
<rscale>  1 0.12768331E+03</rscale>
<asrwt>0</asrwt>
<pdfrwt beam="2">  1        4 0.65501816E-02 0.12768331E+03</pdfrwt>
<pdfrwt beam="1">  1       -4 0.21345724E-01 0.12768331E+03</pdfrwt>
<totfact> 0.49581259E+03</totfact>
</mgrwt>
</event>
<event>
 6    4  0.5642870E-004  0.1854539E+03  0.7818608E-02  0.1162627E+00
          4   -1    0    0  502    0  0.00000000000E+00  0.00000000000E+00  0.10499240404E+03  0.10500008479E+03  0.12700000000E+01 0.  1.
         -4   -1    0    0    0  501 -0.00000000000E+00 -0.00000000000E+00 -0.25801884120E+03  0.25802196673E+03  0.12700000000E+01 0.  1.
         25    2    1    2    0    0  0.62637062141E+02  0.12184075079E+03 -0.12368998104E+03  0.22291781260E+03  0.12499827861E+03 0.  0.
    9000005    1    3    3    0    0  0.65893554405E+02  0.18058726807E+02 -0.91512303902E+02  0.11420849308E+03  0.10000000000E+01 0.  0.
    9000005    1    3    3    0    0 -0.32564922639E+01  0.10378202398E+03 -0.32177677137E+02  0.10870931952E+03  0.10000000000E+01 0.  0.
         21    1    1    2  502  501 -0.62637062141E+02 -0.12184075079E+03 -0.29336456116E+02  0.14010423892E+03  0.00000000000E+00 0.  1.
<mgrwt>
<rscale>  1 0.18545388E+03</rscale>
<asrwt>0</asrwt>
<pdfrwt beam="1">  1        4 0.16153509E-01 0.18545388E+03</pdfrwt>
<pdfrwt beam="2">  1       -4 0.39696038E-01 0.18545388E+03</pdfrwt>
<totfact> 0.35885291E+02</totfact>
</mgrwt>
</event>
<event>
 6    4  0.5642870E-004  0.1266413E+03  0.7818608E-02  0.1232526E+00
          4   -1    0    0  502    0  0.00000000000E+00  0.00000000000E+00  0.34966261934E+02  0.34989317993E+02  0.12700000000E+01 0.  1.
         -4   -1    0    0    0  501 -0.00000000000E+00 -0.00000000000E+00 -0.16688297160E+03  0.16688780395E+03  0.12700000000E+01 0.  1.
         25    2    1    2    0    0  0.20074052958E+02 -0.31996209022E+01 -0.12995355422E+03  0.18145509572E+03  0.12499928132E+03 0.  0.
    9000005    1    3    3    0    0 -0.28265603346E+02  0.48480673075E+01 -0.12928917655E+03  0.13243541544E+03  0.10000000000E+01 0.  0.
    9000005    1    3    3    0    0  0.48339656304E+02 -0.80476882096E+01 -0.66437767127E+00  0.49019680280E+02  0.10000000000E+01 0.  0.
         21    1    1    2  502  501 -0.20074052958E+02  0.31996209022E+01 -0.19631554424E+01  0.20422026231E+02  0.00000000000E+00 0.  1.
<mgrwt>
<rscale>  1 0.12664133E+03</rscale>
<asrwt>0</asrwt>
<pdfrwt beam="1">  1        4 0.53815703E-02 0.12664133E+03</pdfrwt>
<pdfrwt beam="2">  1       -4 0.25676448E-01 0.12664133E+03</pdfrwt>
<totfact> 0.48539440E+03</totfact>
</mgrwt>
</event>
<event>
 6    4  0.5642870E-004  0.1298635E+03  0.7818608E-02  0.1227658E+00
         -4   -1    0    0    0  501 -0.00000000000E+00  0.00000000000E+00  0.35345393675E+02  0.35368202584E+02  0.12700000000E+01 0.  1.
          4   -1    0    0  502    0  0.00000000000E+00 -0.00000000000E+00 -0.23789914798E+03  0.23790253784E+03  0.12700000000E+01 0.  1.
         25    2    1    2    0    0  0.92118004321E+01 -0.33992397944E+02 -0.97270490306E+02  0.16225314694E+03  0.12499678004E+03 0.  0.
    9000005    1    3    3    0    0  0.13721517029E+01  0.31904915774E+02  0.12228606503E+02  0.34210309380E+02  0.10000000000E+01 0.  0.
    9000005    1    3    3    0    0  0.78396487292E+01 -0.65897313718E+02 -0.10949909681E+03  0.12804283756E+03  0.10000000000E+01 0.  0.
         21    1    1    2  502  501 -0.92118004321E+01  0.33992397944E+02 -0.10528326400E+03  0.11101759349E+03  0.00000000000E+00 0.  1.
<mgrwt>
<rscale>  1 0.12986353E+03</rscale>
<asrwt>0</asrwt>
<pdfrwt beam="2">  1        4 0.36601883E-01 0.12986353E+03</pdfrwt>
<pdfrwt beam="1">  1       -4 0.54397683E-02 0.12986353E+03</pdfrwt>
<totfact> 0.24527577E+03</totfact>
</mgrwt>
</event>
<event>
 6    4  0.5642870E-004  0.1271273E+03  0.7818608E-02  0.1231782E+00
          4   -1    0    0  502    0  0.00000000000E+00  0.00000000000E+00  0.12757251270E+03  0.12757883405E+03  0.12700000000E+01 0. -1.
         -4   -1    0    0    0  501 -0.00000000000E+00 -0.00000000000E+00 -0.44267210877E+02  0.44285424903E+02  0.12700000000E+01 0. -1.
         25    2    1    2    0    0  0.22737793506E+02 -0.45031103736E+01  0.71414211845E+02  0.14581270856E+03  0.12499628422E+03 0.  0.
    9000005    1    3    3    0    0  0.62502329271E+01  0.43443307626E+02  0.82908249721E+02  0.93814520523E+02  0.10000000000E+01 0.  0.
    9000005    1    3    3    0    0  0.16487560579E+02 -0.47946418000E+02 -0.11494037876E+02  0.51998188041E+02  0.10000000000E+01 0.  0.
         21    1    1    2  502  501 -0.22737793506E+02  0.45031103736E+01  0.11891089978E+02  0.26051550385E+02  0.00000000000E+00 0. -1.
<mgrwt>
<rscale>  1 0.12712732E+03</rscale>
<asrwt>0</asrwt>
<pdfrwt beam="1">  1        4 0.19628428E-01 0.12712732E+03</pdfrwt>
<pdfrwt beam="2">  1       -4 0.68122274E-02 0.12712732E+03</pdfrwt>
<totfact> 0.54026639E+03</totfact>
</mgrwt>
</event>
<event>
 6    4  0.5642870E-004  0.1312852E+03  0.7818608E-02  0.1225561E+00
         -4   -1    0    0    0  501 -0.00000000000E+00  0.00000000000E+00  0.21051127214E+03  0.21051510301E+03  0.12700000000E+01 0.  1.
          4   -1    0    0  502    0  0.00000000000E+00 -0.00000000000E+00 -0.34882107975E+02  0.34905219621E+02  0.12700000000E+01 0.  1.
         25    2    1    2    0    0  0.29779720212E+02 -0.26908018453E+02  0.13490279240E+03  0.18824068859E+03  0.12499968100E+03 0.  0.
    9000005    1    3    3    0    0  0.52124187529E+02 -0.49945729605E+02  0.13824067276E+03  0.15595829710E+03  0.10000000000E+01 0.  0.
    9000005    1    3    3    0    0 -0.22344467317E+02  0.23037711152E+02 -0.33378803528E+01  0.32282391486E+02  0.10000000000E+01 0.  0.
         21    1    1    2  502  501 -0.29779720212E+02  0.26908018453E+02  0.40726371760E+02  0.57179634047E+02  0.00000000000E+00 0.  1.
<mgrwt>
<rscale>  1 0.13128516E+03</rscale>
<asrwt>0</asrwt>
<pdfrwt beam="2">  1        4 0.53685507E-02 0.13128516E+03</pdfrwt>
<pdfrwt beam="1">  1       -4 0.32388422E-01 0.13128516E+03</pdfrwt>
<totfact> 0.31784493E+03</totfact>
</mgrwt>
</event>
<event>
 6    4  0.5642870E-004  0.1502445E+03  0.7818608E-02  0.1200173E+00
          4   -1    0    0  502    0  0.00000000000E+00  0.00000000000E+00  0.49684308944E+02  0.49700537776E+02  0.12700000000E+01 0. -1.
         -4   -1    0    0    0  501 -0.00000000000E+00 -0.00000000000E+00 -0.33723931014E+03  0.33724170146E+03  0.12700000000E+01 0. -1.
         25    2    1    2    0    0 -0.83147272528E+02  0.58864337201E+01 -0.25789319815E+03  0.29846658388E+03  0.12500112404E+03 0.  0.
    9000005    1    3    3    0    0 -0.41787597357E+02 -0.54372765304E+01 -0.25160881836E+03  0.25511519897E+03  0.10000000000E+01 0.  0.
    9000005    1    3    3    0    0 -0.41359675171E+02  0.11323710250E+02 -0.62843797872E+01  0.43351384908E+02  0.10000000000E+01 0.  0.
         21    1    1    2  502  501  0.83147272528E+02 -0.58864337201E+01 -0.29661803048E+02  0.88475655357E+02  0.00000000000E+00 0. -1.
<mgrwt>
<rscale>  1 0.15024447E+03</rscale>
<asrwt>0</asrwt>
<pdfrwt beam="1">  1        4 0.76451724E-02 0.15024447E+03</pdfrwt>
<pdfrwt beam="2">  1       -4 0.51884402E-01 0.15024447E+03</pdfrwt>
<totfact> 0.72314216E+02</totfact>
</mgrwt>
</event>
<event>
 6    4  0.5642870E-004  0.1272392E+03  0.7818608E-02  0.1231611E+00
         -4   -1    0    0    0  501 -0.00000000000E+00  0.00000000000E+00  0.44159698819E+02  0.44177957171E+02  0.12700000000E+01 0. -1.
          4   -1    0    0  502    0  0.00000000000E+00 -0.00000000000E+00 -0.13206164428E+03  0.13206775076E+03  0.12700000000E+01 0. -1.
         25    2    1    2    0    0  0.20042458992E+02  0.12778427697E+02 -0.63588856076E+02  0.14224402132E+03  0.12499932243E+03 0.  0.
    9000005    1    3    3    0    0 -0.32676034325E+02  0.31949338405E+02  0.12796316807E+02  0.47468191113E+02  0.10000000000E+01 0.  0.
    9000005    1    3    3    0    0  0.52718493317E+02 -0.19170910708E+02 -0.76385172882E+02  0.94775830206E+02  0.10000000000E+01 0.  0.
         21    1    1    2  502  501 -0.20042458992E+02 -0.12778427697E+02 -0.24313089389E+02  0.34001686612E+02  0.00000000000E+00 0. -1.
<mgrwt>
<rscale>  1 0.12723922E+03</rscale>
<asrwt>0</asrwt>
<pdfrwt beam="2">  1        4 0.20319050E-01 0.12723922E+03</pdfrwt>
<pdfrwt beam="1">  1       -4 0.67956741E-02 0.12723922E+03</pdfrwt>
<totfact> 0.50986741E+03</totfact>
</mgrwt>
</event>
<event>
 6    4  0.5642870E-004  0.1331776E+03  0.7818608E-02  0.1222816E+00
         -4   -1    0    0    0  501 -0.00000000000E+00  0.00000000000E+00  0.15142957502E+02  0.15196119962E+02  0.12700000000E+01 0. -1.
          4   -1    0    0  502    0  0.00000000000E+00 -0.00000000000E+00 -0.62684741890E+03  0.62684870542E+03  0.12700000000E+01 0. -1.
         25    2    1    2    0    0  0.20442297636E+01 -0.45897489953E+02 -0.31788463899E+03  0.34465476754E+03  0.12500202648E+03 0.  0.
    9000005    1    3    3    0    0  0.37604522492E+02 -0.69667095659E+02 -0.26530627497E+03  0.27686824280E+03  0.10000000000E+01 0.  0.
    9000005    1    3    3    0    0 -0.35560292728E+02  0.23769605706E+02 -0.52578364016E+02  0.67786524745E+02  0.10000000000E+01 0.  0.
         21    1    1    2  502  501 -0.20442297636E+01  0.45897489953E+02 -0.29381982241E+03  0.29739005784E+03  0.00000000000E+00 0. -1.
<mgrwt>
<rscale>  1 0.13317757E+03</rscale>
<asrwt>0</asrwt>
<pdfrwt beam="2">  1        4 0.96442233E-01 0.13317757E+03</pdfrwt>
<pdfrwt beam="1">  1       -4 0.23338746E-02 0.13317757E+03</pdfrwt>
<totfact> 0.12252885E+03</totfact>
</mgrwt>
</event>
<event>
 6    4  0.5642870E-004  0.1295004E+03  0.7818608E-02  0.1228199E+00
          4   -1    0    0  502    0  0.00000000000E+00  0.00000000000E+00  0.13047191503E+02  0.13108856018E+02  0.12700000000E+01 0. -1.
         -4   -1    0    0    0  501 -0.00000000000E+00 -0.00000000000E+00 -0.51063530760E+03  0.51063688690E+03  0.12700000000E+01 0. -1.
         25    2    1    2    0    0  0.33121688567E+02  0.69516587101E+01 -0.40193425463E+03  0.42228130075E+03  0.12499992042E+03 0.  0.
    9000005    1    3    3    0    0 -0.60844112562E+01  0.50165696081E+02 -0.76719760499E+02  0.91872404859E+02  0.10000000000E+01 0.  0.
    9000005    1    3    3    0    0  0.39206099823E+02 -0.43214037371E+02 -0.32521449413E+03  0.33040889589E+03  0.10000000000E+01 0.  0.
         21    1    1    2  502  501 -0.33121688567E+02 -0.69516587101E+01 -0.95653861465E+02  0.10146444217E+03  0.00000000000E+00 0. -1.
<mgrwt>
<rscale>  1 0.12950039E+03</rscale>
<asrwt>0</asrwt>
<pdfrwt beam="1">  1        4 0.20121255E-02 0.12950039E+03</pdfrwt>
<pdfrwt beam="2">  1       -4 0.78564128E-01 0.12950039E+03</pdfrwt>
<totfact> 0.24256642E+03</totfact>
</mgrwt>
</event>
<event>
 6    4  0.5642870E-004  0.1282766E+03  0.7818608E-02  0.1230036E+00
         -4   -1    0    0    0  501 -0.00000000000E+00  0.00000000000E+00  0.63541203576E+03  0.63541330493E+03  0.12700000000E+01 0. -1.
          4   -1    0    0  502    0  0.00000000000E+00 -0.00000000000E+00 -0.97517127143E+01  0.98340632935E+01  0.12700000000E+01 0. -1.
         25    2    1    2    0    0 -0.28700344918E+02  0.25107489770E+01  0.53257558723E+03  0.54780619777E+03  0.12499944216E+03 0.  0.
    9000005    1    3    3    0    0 -0.48867986890E+02  0.54002080834E+02  0.31484968212E+03  0.32316501545E+03  0.10000000000E+01 0.  0.
    9000005    1    3    3    0    0  0.20167641973E+02 -0.51491331857E+02  0.21772590511E+03  0.22464118232E+03  0.10000000000E+01 0.  0.
         21    1    1    2  502  501  0.28700344918E+02 -0.25107489770E+01  0.93084735810E+02  0.97441170455E+02  0.00000000000E+00 0. -1.
<mgrwt>
<rscale>  1 0.12827655E+03</rscale>
<asrwt>0</asrwt>
<pdfrwt beam="2">  1        4 0.15066960E-02 0.12827655E+03</pdfrwt>
<pdfrwt beam="1">  1       -4 0.97762119E-01 0.12827655E+03</pdfrwt>
<totfact> 0.23063632E+03</totfact>
</mgrwt>
</event>
<event>
 6    4  0.5642870E-004  0.1283448E+03  0.7818608E-02  0.1229933E+00
          4   -1    0    0  502    0  0.00000000000E+00  0.00000000000E+00  0.19945595898E+02  0.19985987484E+02  0.12700000000E+01 0.  1.
         -4   -1    0    0    0  501 -0.00000000000E+00 -0.00000000000E+00 -0.31472012699E+03  0.31472268942E+03  0.12700000000E+01 0.  1.
         25    2    1    2    0    0 -0.27066122889E+02 -0.10704983145E+02 -0.22366503981E+03  0.25787293377E+03  0.12500091305E+03 0.  0.
    9000005    1    3    3    0    0  0.40445352010E+02 -0.33885711665E+02 -0.12844990997E+03  0.13886845332E+03  0.10000000000E+01 0.  0.
    9000005    1    3    3    0    0 -0.67511474898E+02  0.23180728520E+02 -0.95215129839E+02  0.11900448045E+03  0.10000000000E+01 0.  0.
         21    1    1    2  502  501  0.27066122889E+02  0.10704983145E+02 -0.71109491279E+02  0.76835743130E+02  0.00000000000E+00 0.  1.
<mgrwt>
<rscale>  1 0.12834485E+03</rscale>
<asrwt>0</asrwt>
<pdfrwt beam="1">  1        4 0.30718576E-02 0.12834485E+03</pdfrwt>
<pdfrwt beam="2">  1       -4 0.48421782E-01 0.12834485E+03</pdfrwt>
<totfact> 0.34832955E+03</totfact>
</mgrwt>
</event>
<event>
 6    4  0.5642870E-004  0.1269003E+03  0.7818608E-02  0.1232129E+00
          4   -1    0    0  502    0  0.00000000000E+00  0.00000000000E+00  0.14335296504E+02  0.14391442800E+02  0.12700000000E+01 0.  1.
         -4   -1    0    0    0  501 -0.00000000000E+00 -0.00000000000E+00 -0.42099798132E+03  0.42099989689E+03  0.12700000000E+01 0.  1.
         25    2    1    2    0    0  0.31286259027E+01  0.21657420754E+02 -0.38146205859E+03  0.40201614327E+03  0.12499938051E+03 0.  0.
    9000005    1    3    3    0    0 -0.22360777281E+02  0.67292969972E+02 -0.17025483807E+03  0.18443442752E+03  0.10000000000E+01 0.  0.
    9000005    1    3    3    0    0  0.25489403184E+02 -0.45635549218E+02 -0.21120722052E+03  0.21758171575E+03  0.10000000000E+01 0.  0.
         21    1    1    2  502  501 -0.31286259027E+01 -0.21657420754E+02 -0.25200626227E+02  0.33375196419E+02  0.00000000000E+00 0.  1.
<mgrwt>
<rscale>  1 0.12690027E+03</rscale>
<asrwt>0</asrwt>
<pdfrwt beam="1">  1        4 0.22098968E-02 0.12690027E+03</pdfrwt>
<pdfrwt beam="2">  1       -4 0.64773377E-01 0.12690027E+03</pdfrwt>
<totfact> 0.31712402E+03</totfact>
</mgrwt>
</event>
<event>
 6    4  0.5642870E-004  0.1283909E+03  0.7818608E-02  0.1229863E+00
          4   -1    0    0  502    0  0.00000000000E+00  0.00000000000E+00  0.13584839305E+03  0.13585432932E+03  0.12700000000E+01 0. -1.
         -4   -1    0    0    0  501 -0.00000000000E+00 -0.00000000000E+00 -0.49964542551E+02  0.49980680390E+02  0.12700000000E+01 0. -1.
         25    2    1    2    0    0 -0.67962542018E+01 -0.28531839888E+02  0.46117464277E+02  0.13642225395E+03  0.12499582354E+03 0.  0.
    9000005    1    3    3    0    0  0.55068566387E+02 -0.53235766639E+01  0.43330738183E+02  0.70281152124E+02  0.10000000000E+01 0.  0.
    9000005    1    3    3    0    0 -0.61864820588E+02 -0.23208263224E+02  0.27867260940E+01  0.66141101825E+02  0.10000000000E+01 0.  0.
         21    1    1    2  502  501  0.67962542018E+01  0.28531839888E+02  0.39766386226E+02  0.49412755763E+02  0.00000000000E+00 0. -1.
<mgrwt>
<rscale>  1 0.12839085E+03</rscale>
<asrwt>0</asrwt>
<pdfrwt beam="1">  1        4 0.20901451E-01 0.12839085E+03</pdfrwt>
<pdfrwt beam="2">  1       -4 0.76885508E-02 0.12839085E+03</pdfrwt>
<totfact> 0.39648200E+03</totfact>
</mgrwt>
</event>
<event>
 6    4  0.5642870E-004  0.1539572E+03  0.7818608E-02  0.1195693E+00
          4   -1    0    0  502    0  0.00000000000E+00  0.00000000000E+00  0.13216902270E+03  0.13217512422E+03  0.12700000000E+01 0.  1.
         -4   -1    0    0    0  501 -0.00000000000E+00 -0.00000000000E+00 -0.12342944926E+03  0.12343598278E+03  0.12700000000E+01 0.  1.
         25    2    1    2    0    0  0.88128107553E+02  0.17645778250E+02 -0.31484091141E+02  0.15714344721E+03  0.12499951270E+03 0.  0.
    9000005    1    3    3    0    0  0.37625364996E+02  0.83774148035E+00 -0.77896094896E+02  0.86516885646E+02  0.10000000000E+01 0.  0.
    9000005    1    3    3    0    0  0.50502742556E+02  0.16808036770E+02  0.46412003754E+02  0.70626561564E+02  0.10000000000E+01 0.  0.
         21    1    1    2  502  501 -0.88128107553E+02 -0.17645778250E+02  0.40223664589E+02  0.98467659787E+02  0.00000000000E+00 0.  1.
<mgrwt>
<rscale>  1 0.15395719E+03</rscale>
<asrwt>0</asrwt>
<pdfrwt beam="1">  1        4 0.20334668E-01 0.15395719E+03</pdfrwt>
<pdfrwt beam="2">  1       -4 0.18990118E-01 0.15395719E+03</pdfrwt>
<totfact> 0.91917463E+02</totfact>
</mgrwt>
</event>
<event>
 6    4  0.5642870E-004  0.1657645E+03  0.7818608E-02  0.1182338E+00
          4   -1    0    0  502    0  0.00000000000E+00  0.00000000000E+00  0.53459087650E+02  0.53474170890E+02  0.12700000000E+01 0.  1.
         -4   -1    0    0    0  501 -0.00000000000E+00 -0.00000000000E+00 -0.36549002922E+03  0.36549223571E+03  0.12700000000E+01 0.  1.
         25    2    1    2    0    0  0.92664848624E+02 -0.57146504258E+02 -0.22564191798E+03  0.27998597446E+03  0.12500149449E+03 0.  0.
    9000005    1    3    3    0    0  0.68050087857E+02  0.28087574399E+02 -0.13091428531E+03  0.15019745801E+03  0.10000000000E+01 0.  0.
    9000005    1    3    3    0    0  0.24614760767E+02 -0.85234078657E+02 -0.94727632668E+02  0.12978851645E+03  0.10000000000E+01 0.  0.
         21    1    1    2  502  501 -0.92664848624E+02  0.57146504258E+02 -0.86389023594E+02  0.13898043214E+03  0.00000000000E+00 0.  1.
<mgrwt>
<rscale>  1 0.16576450E+03</rscale>
<asrwt>0</asrwt>
<pdfrwt beam="1">  1        4 0.82258052E-02 0.16576450E+03</pdfrwt>
<pdfrwt beam="2">  1       -4 0.56230564E-01 0.16576450E+03</pdfrwt>
<totfact> 0.55230905E+02</totfact>
</mgrwt>
</event>
<event>
 6    4  0.5642870E-004  0.1278813E+03  0.7818608E-02  0.1230634E+00
         -4   -1    0    0    0  501 -0.00000000000E+00  0.00000000000E+00  0.37479415111E+03  0.37479630282E+03  0.12700000000E+01 0.  1.
          4   -1    0    0  502    0  0.00000000000E+00 -0.00000000000E+00 -0.18502709227E+02  0.18546243521E+02  0.12700000000E+01 0.  1.
         25    2    1    2    0    0 -0.21312378640E+02  0.16561858015E+02  0.33618431782E+03  0.35968531736E+03  0.12500047742E+03 0.  0.
    9000005    1    3    3    0    0  0.90868087583E+01  0.45030126690E+02  0.41017865594E+02  0.61593406311E+02  0.10000000000E+01 0.  0.
    9000005    1    3    3    0    0 -0.30399187398E+02 -0.28468268674E+02  0.29516645222E+03  0.29809191105E+03  0.10000000000E+01 0.  0.
         21    1    1    2  502  501  0.21312378640E+02 -0.16561858015E+02  0.20107124063E+02  0.33657228975E+02  0.00000000000E+00 0. -1.
<mgrwt>
<rscale>  1 0.12788132E+03</rscale>
<asrwt>0</asrwt>
<pdfrwt beam="2">  1        4 0.28500850E-02 0.12788132E+03</pdfrwt>
<pdfrwt beam="1">  1       -4 0.57664153E-01 0.12788132E+03</pdfrwt>
<totfact> 0.27336120E+03</totfact>
</mgrwt>
</event>
<event>
 6    4  0.5642870E-004  0.1328330E+03  0.7818608E-02  0.1223312E+00
          4   -1    0    0  502    0  0.00000000000E+00  0.00000000000E+00  0.14997715595E+03  0.14998253301E+03  0.12700000000E+01 0. -1.
         -4   -1    0    0    0  501 -0.00000000000E+00 -0.00000000000E+00 -0.63191949513E+02  0.63204710135E+02  0.12700000000E+01 0. -1.
         25    2    1    2    0    0  0.41115672082E+02 -0.18147202297E+02  0.22461865472E+02  0.13471870400E+03  0.12499909746E+03 0.  0.
    9000005    1    3    3    0    0  0.80445477987E+02  0.80720580828E+01  0.31149643199E+02  0.86648331326E+02  0.10000000000E+01 0.  0.
    9000005    1    3    3    0    0 -0.39329805904E+02 -0.26219260379E+02 -0.86877777266E+01  0.48070372675E+02  0.10000000000E+01 0.  0.
         21    1    1    2  502  501 -0.41115672082E+02  0.18147202297E+02  0.64323340968E+02  0.78468539143E+02  0.00000000000E+00 0.  1.
<mgrwt>
<rscale>  1 0.13283295E+03</rscale>
<asrwt>0</asrwt>
<pdfrwt beam="1">  1        4 0.23074804E-01 0.13283295E+03</pdfrwt>
<pdfrwt beam="2">  1       -4 0.97232336E-02 0.13283295E+03</pdfrwt>
<totfact> 0.22592190E+03</totfact>
</mgrwt>
</event>
<event>
 6    4  0.5642870E-004  0.1389150E+03  0.7818608E-02  0.1214796E+00
          4   -1    0    0  502    0  0.00000000000E+00  0.00000000000E+00  0.83754112241E+03  0.83754208529E+03  0.12700000000E+01 0. -1.
         -4   -1    0    0    0  501 -0.00000000000E+00 -0.00000000000E+00 -0.11861538897E+02  0.11929333803E+02  0.12700000000E+01 0. -1.
         25    2    1    2    0    0 -0.16905912060E+02  0.58194524421E+02  0.58832038880E+03  0.60449835965E+03  0.12499989764E+03 0.  0.
    9000005    1    3    3    0    0 -0.17154087833E+02  0.36103599518E+02  0.42953812847E+02  0.58683580886E+02  0.10000000000E+01 0.  0.
    9000005    1    3    3    0    0  0.24817577282E+00  0.22090924903E+02  0.54536657595E+03  0.54581477877E+03  0.10000000000E+01 0.  0.
         21    1    1    2  502  501  0.16905912060E+02 -0.58194524421E+02  0.23735919471E+03  0.24497305944E+03  0.00000000000E+00 0. -1.
<mgrwt>
<rscale>  1 0.13891503E+03</rscale>
<asrwt>0</asrwt>
<pdfrwt beam="1">  1        4 0.12885775E+00 0.13891503E+03</pdfrwt>
<pdfrwt beam="2">  1       -4 0.18301415E-02 0.13891503E+03</pdfrwt>
<totfact> 0.90580941E+02</totfact>
</mgrwt>
</event>
<event>
 6    4  0.5642870E-004  0.1281943E+03  0.7818608E-02  0.1230160E+00
          4   -1    0    0  502    0  0.00000000000E+00  0.00000000000E+00  0.13889624730E+03  0.13890205331E+03  0.12700000000E+01 0. -1.
         -4   -1    0    0    0  501 -0.00000000000E+00 -0.00000000000E+00 -0.48658790609E+02  0.48675361360E+02  0.12700000000E+01 0. -1.
         25    2    1    2    0    0 -0.24279301851E+01 -0.28338189381E+02  0.48482598283E+02  0.13705597345E+03  0.12499931880E+03 0.  0.
    9000005    1    3    3    0    0 -0.44696848548E+02 -0.13170602280E+02 -0.23508348268E+02  0.52200722915E+02  0.10000000000E+01 0.  0.
    9000005    1    3    3    0    0  0.42268918363E+02 -0.15167587101E+02  0.71990946550E+02  0.84855250534E+02  0.10000000000E+01 0.  0.
         21    1    1    2  502  501  0.24279301851E+01  0.28338189381E+02  0.41754858404E+02  0.50521441217E+02  0.00000000000E+00 0. -1.
<mgrwt>
<rscale>  1 0.12819430E+03</rscale>
<asrwt>0</asrwt>
<pdfrwt beam="1">  1        4 0.21370374E-01 0.12819430E+03</pdfrwt>
<pdfrwt beam="2">  1       -4 0.74876893E-02 0.12819430E+03</pdfrwt>
<totfact> 0.39773208E+03</totfact>
</mgrwt>
</event>
<event>
 6    4  0.5642870E-004  0.1411690E+03  0.7818608E-02  0.1211765E+00
          4   -1    0    0  502    0  0.00000000000E+00  0.00000000000E+00  0.98913317212E+02  0.98921469975E+02  0.12700000000E+01 0. -1.
         -4   -1    0    0    0  501 -0.00000000000E+00 -0.00000000000E+00 -0.36891901398E+03  0.36892119995E+03  0.12700000000E+01 0. -1.
         25    2    1    2    0    0 -0.28314065643E+02  0.59163024342E+02 -0.34227694286E+03  0.37024613938E+03  0.12500699319E+03 0.  0.
    9000005    1    3    3    0    0 -0.34524417749E+02  0.40352072489E+02 -0.34601001341E+03  0.35006307225E+03  0.10000000000E+01 0.  0.
    9000005    1    3    3    0    0  0.62103521062E+01  0.18810951853E+02  0.37330705456E+01  0.20183067126E+02  0.10000000000E+01 0.  0.
         21    1    1    2  502  501  0.28314065643E+02 -0.59163024342E+02  0.72271246099E+02  0.97596530549E+02  0.00000000000E+00 0. -1.
<mgrwt>
<rscale>  1 0.14116904E+03</rscale>
<asrwt>0</asrwt>
<pdfrwt beam="1">  1        4 0.15218229E-01 0.14116904E+03</pdfrwt>
<pdfrwt beam="2">  1       -4 0.56757566E-01 0.14116904E+03</pdfrwt>
<totfact> 0.18433984E+02</totfact>
</mgrwt>
</event>
<event>
 6    4  0.5642870E-004  0.1279678E+03  0.7818608E-02  0.1230503E+00
         -4   -1    0    0    0  501 -0.00000000000E+00  0.00000000000E+00  0.98074430652E+02  0.98082653143E+02  0.12700000000E+01 0.  1.
          4   -1    0    0  502    0  0.00000000000E+00 -0.00000000000E+00 -0.11835014614E+03  0.11835696004E+03  0.12700000000E+01 0.  1.
         25    2    1    2    0    0  0.26596563419E+02  0.66180509264E+01  0.52770089828E+02  0.13842124703E+03  0.12499833385E+03 0.  0.
    9000005    1    3    3    0    0 -0.19469365596E+02  0.12414501753E+02 -0.33351158054E+02  0.40576788858E+02  0.10000000000E+01 0.  0.
    9000005    1    3    3    0    0  0.46065929015E+02 -0.57964508264E+01  0.86121247882E+02  0.97844458172E+02  0.10000000000E+01 0.  0.
         21    1    1    2  502  501 -0.26596563419E+02 -0.66180509264E+01 -0.73045805314E+02  0.78018366157E+02  0.00000000000E+00 0.  1.
<mgrwt>
<rscale>  1 0.12796781E+03</rscale>
<asrwt>0</asrwt>
<pdfrwt beam="2">  1        4 0.18208871E-01 0.12796781E+03</pdfrwt>
<pdfrwt beam="1">  1       -4 0.15089531E-01 0.12796781E+03</pdfrwt>
<totfact> 0.16181493E+03</totfact>
</mgrwt>
</event>
<event>
 6    4  0.5642870E-004  0.1290025E+03  0.7818608E-02  0.1228943E+00
         -4   -1    0    0    0  501 -0.00000000000E+00  0.00000000000E+00  0.34453055436E+03  0.34453289507E+03  0.12700000000E+01 0.  1.
          4   -1    0    0  502    0  0.00000000000E+00 -0.00000000000E+00 -0.19614131069E+02  0.19655203830E+02  0.12700000000E+01 0.  1.
         25    2    1    2    0    0  0.14075276510E+01  0.31856359175E+02  0.22560798089E+03  0.25988577158E+03  0.12499937789E+03 0.  0.
    9000005    1    3    3    0    0  0.40840149922E+02  0.51464943410E+02  0.61607650273E+02  0.90072530874E+02  0.10000000000E+01 0.  0.
    9000005    1    3    3    0    0 -0.39432622271E+02 -0.19608584235E+02  0.16400033062E+03  0.16981324070E+03  0.10000000000E+01 0.  0.
         21    1    1    2  502  501 -0.14075276510E+01 -0.31856359175E+02  0.99308442396E+02  0.10430232732E+03  0.00000000000E+00 0.  1.
<mgrwt>
<rscale>  1 0.12900253E+03</rscale>
<asrwt>0</asrwt>
<pdfrwt beam="2">  1        4 0.30208983E-02 0.12900253E+03</pdfrwt>
<pdfrwt beam="1">  1       -4 0.53008036E-01 0.12900253E+03</pdfrwt>
<totfact> 0.29769110E+03</totfact>
</mgrwt>
</event>
<event>
 6    4  0.5642870E-004  0.1265901E+03  0.7818608E-02  0.1232605E+00
          4   -1    0    0  502    0  0.00000000000E+00  0.00000000000E+00  0.90770024448E+01  0.91654172509E+01  0.12700000000E+01 0. -1.
         -4   -1    0    0    0  501 -0.00000000000E+00 -0.00000000000E+00 -0.82995639805E+03  0.82995736972E+03  0.12700000000E+01 0. -1.
         25    2    1    2    0    0  0.19410187778E+02 -0.49756464777E+01 -0.80084185559E+03  0.81078525961E+03  0.12499418822E+03 0.  0.
    9000005    1    3    3    0    0  0.32890990801E+02  0.40426350139E+02 -0.66269775278E+03  0.66474462661E+03  0.10000000000E+01 0.  0.
    9000005    1    3    3    0    0 -0.13480803023E+02 -0.45401996617E+02 -0.13814410281E+03  0.14604063300E+03  0.10000000000E+01 0.  0.
         21    1    1    2  502  501 -0.19410187778E+02  0.49756464777E+01 -0.20037540013E+02  0.28337527366E+02  0.00000000000E+00 0. -1.
<mgrwt>
<rscale>  1 0.12659012E+03</rscale>
<asrwt>0</asrwt>
<pdfrwt beam="1">  1        4 0.14033385E-02 0.12659012E+03</pdfrwt>
<pdfrwt beam="2">  1       -4 0.12769242E+00 0.12659012E+03</pdfrwt>
<totfact> 0.13627589E+03</totfact>
</mgrwt>
</event>
<event>
 6    4  0.5642870E-004  0.1283459E+03  0.7818608E-02  0.1229931E+00
          4   -1    0    0  502    0  0.00000000000E+00  0.00000000000E+00  0.40828498702E+03  0.40828696223E+03  0.12700000000E+01 0.  1.
         -4   -1    0    0    0  501 -0.00000000000E+00 -0.00000000000E+00 -0.15293483875E+02  0.15346124887E+02  0.12700000000E+01 0.  1.
         25    2    1    2    0    0 -0.25229363062E+02 -0.14542382817E+02  0.30347969933E+03  0.32950357697E+03  0.12499871068E+03 0.  0.
    9000005    1    3    3    0    0 -0.56979086380E+02  0.43663510787E+01  0.27985563936E+03  0.28563238645E+03  0.10000000000E+01 0.  0.
    9000005    1    3    3    0    0  0.31749723318E+02 -0.18908733896E+02  0.23624059975E+02  0.43871190524E+02  0.10000000000E+01 0.  0.
         21    1    1    2  502  501  0.25229363062E+02  0.14542382817E+02  0.89511803809E+02  0.94129510142E+02  0.00000000000E+00 0.  1.
<mgrwt>
<rscale>  1 0.12834594E+03</rscale>
<asrwt>0</asrwt>
<pdfrwt beam="1">  1        4 0.62817268E-01 0.12834594E+03</pdfrwt>
<pdfrwt beam="2">  1       -4 0.23570452E-02 0.12834594E+03</pdfrwt>
<totfact> 0.30714831E+03</totfact>
</mgrwt>
</event>
<event>
 6    4  0.5642870E-004  0.1289515E+03  0.7818608E-02  0.1229020E+00
         -4   -1    0    0    0  501 -0.00000000000E+00  0.00000000000E+00  0.31147275990E+02  0.31173156747E+02  0.12700000000E+01 0. -1.
          4   -1    0    0  502    0  0.00000000000E+00 -0.00000000000E+00 -0.20928424149E+03  0.20928809483E+03  0.12700000000E+01 0. -1.
         25    2    1    2    0    0 -0.31197310901E+02  0.56990552381E+01 -0.13253836370E+03  0.18491861998E+03  0.12499090657E+03 0.  0.
    9000005    1    3    3    0    0 -0.19422587194E+02 -0.50422230942E+02 -0.11136098097E+03  0.12378168826E+03  0.10000000000E+01 0.  0.
    9000005    1    3    3    0    0 -0.11774723707E+02  0.56121286180E+02 -0.21177382732E+02  0.61136931721E+02  0.10000000000E+01 0.  0.
         21    1    1    2  502  501  0.31197310901E+02 -0.56990552381E+01 -0.45598601804E+02  0.55542631596E+02  0.00000000000E+00 0. -1.
<mgrwt>
<rscale>  1 0.12895146E+03</rscale>
<asrwt>0</asrwt>
<pdfrwt beam="2">  1        4 0.32199862E-01 0.12895146E+03</pdfrwt>
<pdfrwt beam="1">  1       -4 0.47941760E-02 0.12895146E+03</pdfrwt>
<totfact> 0.38384445E+03</totfact>
</mgrwt>
</event>
<event>
 6    4  0.5642870E-004  0.1277063E+03  0.7818608E-02  0.1230899E+00
          4   -1    0    0  502    0  0.00000000000E+00  0.00000000000E+00  0.87680035373E+01  0.88595025837E+01  0.12700000000E+01 0. -1.
         -4   -1    0    0    0  501 -0.00000000000E+00 -0.00000000000E+00 -0.68459656500E+03  0.68459774299E+03  0.12700000000E+01 0. -1.
         25    2    1    2    0    0  0.25980343533E+02 -0.31647400337E+01 -0.59286267851E+03  0.60646108725E+03  0.12499560371E+03 0.  0.
    9000005    1    3    3    0    0  0.21210080777E+02 -0.38092237361E+02 -0.54636408496E+03  0.54810181482E+03  0.10000000000E+01 0.  0.
    9000005    1    3    3    0    0  0.47702627554E+01  0.34927497327E+02 -0.46498593548E+02  0.58359272428E+02  0.10000000000E+01 0.  0.
         21    1    1    2  502  501 -0.25980343533E+02  0.31647400337E+01 -0.82965882949E+02  0.86996158324E+02  0.00000000000E+00 0. -1.
<mgrwt>
<rscale>  1 0.12770628E+03</rscale>
<asrwt>0</asrwt>
<pdfrwt beam="1">  1        4 0.13560532E-02 0.12770628E+03</pdfrwt>
<pdfrwt beam="2">  1       -4 0.10532964E+00 0.12770628E+03</pdfrwt>
<totfact> 0.22749595E+03</totfact>
</mgrwt>
</event>
<event>
 6    4  0.5642870E-004  0.1319938E+03  0.7818608E-02  0.1224527E+00
         -4   -1    0    0    0  501 -0.00000000000E+00  0.00000000000E+00  0.27451805201E+02  0.27481166438E+02  0.12700000000E+01 0. -1.
          4   -1    0    0  502    0  0.00000000000E+00 -0.00000000000E+00 -0.30464052843E+03  0.30464317563E+03  0.12700000000E+01 0. -1.
         25    2    1    2    0    0 -0.33165570924E+02 -0.26408348872E+02 -0.15950269311E+03  0.20703494336E+03  0.12500001072E+03 0.  0.
    9000005    1    3    3    0    0  0.29831084114E+02  0.28811600663E+02 -0.24587421827E+02  0.48223886450E+02  0.10000000000E+01 0.  0.
    9000005    1    3    3    0    0 -0.62996655038E+02 -0.55219949535E+02 -0.13491527128E+03  0.15881105691E+03  0.10000000000E+01 0.  0.
         21    1    1    2  502  501  0.33165570924E+02  0.26408348872E+02 -0.11768603012E+03  0.12508939871E+03  0.00000000000E+00 0.  1.
<mgrwt>
<rscale>  1 0.13199378E+03</rscale>
<asrwt>0</asrwt>
<pdfrwt beam="2">  1        4 0.46870233E-01 0.13199378E+03</pdfrwt>
<pdfrwt beam="1">  1       -4 0.42258171E-02 0.13199378E+03</pdfrwt>
<totfact> 0.22635425E+03</totfact>
</mgrwt>
</event>
<event>
 6    4  0.5642870E-004  0.1267476E+03  0.7818608E-02  0.1232363E+00
         -4   -1    0    0    0  501 -0.00000000000E+00  0.00000000000E+00  0.58318791226E+02  0.58332617892E+02  0.12700000000E+01 0. -1.
          4   -1    0    0  502    0  0.00000000000E+00 -0.00000000000E+00 -0.11425974931E+03  0.11426680714E+03  0.12700000000E+01 0. -1.
         25    2    1    2    0    0 -0.20933862287E+02 -0.24306572479E+00 -0.16328447862E+02  0.12779499849E+03  0.12500663086E+03 0.  0.
    9000005    1    3    3    0    0  0.26276906448E+02  0.50446166285E+02 -0.12803147690E+01  0.56902818131E+02  0.10000000000E+01 0.  0.
    9000005    1    3    3    0    0 -0.47210768735E+02 -0.50689232010E+02 -0.15048133093E+02  0.70892180358E+02  0.10000000000E+01 0.  0.
         21    1    1    2  502  501  0.20933862287E+02  0.24306572479E+00 -0.39612510226E+02  0.44804426541E+02  0.00000000000E+00 0.  1.
<mgrwt>
<rscale>  1 0.12674756E+03</rscale>
<asrwt>0</asrwt>
<pdfrwt beam="2">  1        4 0.17580029E-01 0.12674756E+03</pdfrwt>
<pdfrwt beam="1">  1       -4 0.89737283E-02 0.12674756E+03</pdfrwt>
<totfact> 0.41675047E+03</totfact>
</mgrwt>
</event>
<event>
 6    4  0.5642870E-004  0.1285879E+03  0.7818608E-02  0.1229566E+00
         -4   -1    0    0    0  501 -0.00000000000E+00  0.00000000000E+00  0.49747540346E+03  0.49747702454E+03  0.12700000000E+01 0.  1.
          4   -1    0    0  502    0  0.00000000000E+00 -0.00000000000E+00 -0.17694292044E+02  0.17739810342E+02  0.12700000000E+01 0.  1.
         25    2    1    2    0    0 -0.30041292841E+02 -0.15168967247E+01  0.46351505455E+03  0.48102085767E+03  0.12502031624E+03 0.  0.
    9000005    1    3    3    0    0 -0.78213583972E+02 -0.10827522145E+02  0.30697838388E+03  0.31697212515E+03  0.10000000000E+01 0.  0.
    9000005    1    3    3    0    0  0.48172291131E+02  0.93106254207E+01  0.15653667067E+03  0.16404873252E+03  0.10000000000E+01 0.  0.
         21    1    1    2  502  501  0.30041292841E+02  0.15168967247E+01  0.16266056866E+02  0.34195977208E+02  0.00000000000E+00 0.  1.
<mgrwt>
<rscale>  1 0.12858795E+03</rscale>
<asrwt>0</asrwt>
<pdfrwt beam="2">  1        4 0.27258245E-02 0.12858795E+03</pdfrwt>
<pdfrwt beam="1">  1       -4 0.76538315E-01 0.12858795E+03</pdfrwt>
<totfact> 0.16027887E+03</totfact>
</mgrwt>
</event>
<event>
 6    4  0.5642870E-004  0.1345726E+03  0.7818608E-02  0.1220824E+00
          4   -1    0    0  502    0  0.00000000000E+00  0.00000000000E+00  0.36619489938E+02  0.36641505745E+02  0.12700000000E+01 0.  1.
         -4   -1    0    0    0  501 -0.00000000000E+00 -0.00000000000E+00 -0.23627965262E+03  0.23628306571E+03  0.12700000000E+01 0.  1.
         25    2    1    2    0    0  0.45130041771E+01  0.49638905798E+02 -0.16106546845E+03  0.20988538841E+03  0.12500161186E+03 0.  0.
    9000005    1    3    3    0    0  0.69822147143E+01 -0.26399561548E+02 -0.12070242962E+03  0.12375687733E+03  0.10000000000E+01 0.  0.
    9000005    1    3    3    0    0 -0.24692105372E+01  0.76038467346E+02 -0.40363038832E+02  0.86128511080E+02  0.10000000000E+01 0.  0.
         21    1    1    2  502  501 -0.45130041771E+01 -0.49638905798E+02 -0.38594694231E+02  0.63039183040E+02  0.00000000000E+00 0.  1.
<mgrwt>
<rscale>  1 0.13457262E+03</rscale>
<asrwt>0</asrwt>
<pdfrwt beam="1">  1        4 0.56357239E-02 0.13457262E+03</pdfrwt>
<pdfrwt beam="2">  1       -4 0.36352671E-01 0.13457262E+03</pdfrwt>
<totfact> 0.23667088E+03</totfact>
</mgrwt>
</event>
<event>
 6    4  0.5642870E-004  0.1390891E+03  0.7818608E-02  0.1214560E+00
         -4   -1    0    0    0  501 -0.00000000000E+00  0.00000000000E+00  0.13491482967E+03  0.13492080702E+03  0.12700000000E+01 0. -1.
          4   -1    0    0  502    0  0.00000000000E+00 -0.00000000000E+00 -0.78300677374E+02  0.78310976097E+02  0.12700000000E+01 0. -1.
         25    2    1    2    0    0 -0.32259232207E+02 -0.51764951090E+02  0.61424215529E+02  0.15204841174E+03  0.12500206813E+03 0.  0.
    9000005    1    3    3    0    0 -0.85239935595E+01 -0.70299393665E+02 -0.12775285622E+02  0.71964374093E+02  0.10000000000E+01 0.  0.
    9000005    1    3    3    0    0 -0.23735238648E+02  0.18534442575E+02  0.74199501151E+02  0.80084037650E+02  0.10000000000E+01 0.  0.
         21    1    1    2  502  501  0.32259232207E+02  0.51764951090E+02 -0.48100632298E+01  0.61183371370E+02  0.00000000000E+00 0. -1.
<mgrwt>
<rscale>  1 0.13908913E+03</rscale>
<asrwt>0</asrwt>
<pdfrwt beam="2">  1        4 0.12047510E-01 0.13908913E+03</pdfrwt>
<pdfrwt beam="1">  1       -4 0.20757379E-01 0.13908913E+03</pdfrwt>
<totfact> 0.19233210E+03</totfact>
</mgrwt>
</event>
<event>
 6    4  0.5642870E-004  0.1277279E+03  0.7818608E-02  0.1230867E+00
          4   -1    0    0  502    0  0.00000000000E+00  0.00000000000E+00  0.19622173833E+03  0.19622584818E+03  0.12700000000E+01 0.  1.
         -4   -1    0    0    0  501 -0.00000000000E+00 -0.00000000000E+00 -0.30227075634E+02  0.30253743593E+02  0.12700000000E+01 0.  1.
         25    2    1    2    0    0 -0.25957169498E+02  0.39087120299E+01  0.14063824059E+03  0.18998300535E+03  0.12500149971E+03 0.  0.
    9000005    1    3    3    0    0  0.23047882142E+02  0.47836839519E+02  0.98279724765E+02  0.11171155887E+03  0.10000000000E+01 0.  0.
    9000005    1    3    3    0    0 -0.49005051640E+02 -0.43928127489E+02  0.42358515823E+02  0.78271446477E+02  0.10000000000E+01 0.  0.
         21    1    1    2  502  501  0.25957169498E+02 -0.39087120299E+01  0.25356422105E+02  0.36496586417E+02  0.00000000000E+00 0.  1.
<mgrwt>
<rscale>  1 0.12772794E+03</rscale>
<asrwt>0</asrwt>
<pdfrwt beam="1">  1        4 0.30190327E-01 0.12772794E+03</pdfrwt>
<pdfrwt beam="2">  1       -4 0.46526870E-02 0.12772794E+03</pdfrwt>
<totfact> 0.45399895E+03</totfact>
</mgrwt>
</event>
<event>
 6    4  0.5642870E-004  0.1266091E+03  0.7818608E-02  0.1232576E+00
         -4   -1    0    0    0  501 -0.00000000000E+00  0.00000000000E+00  0.23925857247E+01  0.27087573627E+01  0.12700000000E+01 0. -1.
          4   -1    0    0  502    0  0.00000000000E+00 -0.00000000000E+00 -0.23845116167E+04  0.23845119549E+04  0.12700000000E+01 0. -1.
         25    2    1    2    0    0 -0.19840774837E+02  0.34041630325E+01 -0.16600513199E+04  0.16648724417E+04  0.12499847047E+03 0.  0.
    9000005    1    3    3    0    0 -0.38024556173E+02 -0.49840005010E+02 -0.58518001261E+03  0.58852913278E+03  0.10000000000E+01 0.  0.
    9000005    1    3    3    0    0  0.18183781336E+02  0.53244168042E+02 -0.10748713073E+04  0.10763433089E+04  0.10000000000E+01 0.  0.
         21    1    1    2  502  501  0.19840774837E+02 -0.34041630325E+01 -0.72206771104E+03  0.72234827058E+03  0.00000000000E+00 0. -1.
<mgrwt>
<rscale>  1 0.12660909E+03</rscale>
<asrwt>0</asrwt>
<pdfrwt beam="2">  1        4 0.36687051E+00 0.12660909E+03</pdfrwt>
<pdfrwt beam="1">  1       -4 0.39243893E-03 0.12660909E+03</pdfrwt>
<totfact> 0.29500962E+02</totfact>
</mgrwt>
</event>
<event>
 6    4  0.5642870E-004  0.1304843E+03  0.7818608E-02  0.1226739E+00
          4   -1    0    0  502    0  0.00000000000E+00  0.00000000000E+00  0.44164893565E+02  0.44183149770E+02  0.12700000000E+01 0.  1.
         -4   -1    0    0    0  501 -0.00000000000E+00 -0.00000000000E+00 -0.31264579858E+03  0.31264837801E+03  0.12700000000E+01 0.  1.
         25    2    1    2    0    0 -0.56846069977E+01 -0.36998782904E+02 -0.28685074203E+03  0.31513409854E+03  0.12499970866E+03 0.  0.
    9000005    1    3    3    0    0 -0.38975878587E+01 -0.14467549549E+02 -0.29162530495E+03  0.29201167728E+03  0.10000000000E+01 0.  0.
    9000005    1    3    3    0    0 -0.17870191389E+01 -0.22531233356E+02  0.47745629167E+01  0.23122421261E+02  0.10000000000E+01 0.  0.
         21    1    1    2  502  501  0.56846069977E+01  0.36998782904E+02  0.18369837015E+02  0.41697429238E+02  0.00000000000E+00 0.  1.
<mgrwt>
<rscale>  1 0.13048430E+03</rscale>
<asrwt>0</asrwt>
<pdfrwt beam="1">  1        4 0.67962019E-02 0.13048430E+03</pdfrwt>
<pdfrwt beam="2">  1       -4 0.48100955E-01 0.13048430E+03</pdfrwt>
<totfact> 0.99535707E+02</totfact>
</mgrwt>
</event>
<event>
 6    4  0.5642870E-004  0.1269771E+03  0.7818608E-02  0.1232011E+00
         -4   -1    0    0    0  501 -0.00000000000E+00  0.00000000000E+00  0.35808398831E+02  0.35830913006E+02  0.12700000000E+01 0. -1.
          4   -1    0    0  502    0  0.00000000000E+00 -0.00000000000E+00 -0.15626708637E+03  0.15627224700E+03  0.12700000000E+01 0. -1.
         25    2    1    2    0    0 -0.74004201062E+01 -0.21031969355E+02 -0.97427205934E+02  0.16004759735E+03  0.12500425196E+03 0.  0.
    9000005    1    3    3    0    0 -0.15221392796E+02 -0.72916869590E+02 -0.57488977523E+02  0.94098582381E+02  0.10000000000E+01 0.  0.
    9000005    1    3    3    0    0  0.78209726897E+01  0.51884900235E+02 -0.39938228411E+02  0.65949014965E+02  0.10000000000E+01 0.  0.
         21    1    1    2  502  501  0.74004201062E+01  0.21031969355E+02 -0.23031481607E+02  0.32055562664E+02  0.00000000000E+00 0.  1.
<mgrwt>
<rscale>  1 0.12697706E+03</rscale>
<asrwt>0</asrwt>
<pdfrwt beam="2">  1        4 0.24043219E-01 0.12697706E+03</pdfrwt>
<pdfrwt beam="1">  1       -4 0.55111134E-02 0.12697706E+03</pdfrwt>
<totfact> 0.52759117E+03</totfact>
</mgrwt>
</event>
<event>
 6    4  0.5642870E-004  0.1270129E+03  0.7818608E-02  0.1231957E+00
          4   -1    0    0  502    0  0.00000000000E+00  0.00000000000E+00  0.44742661581E+02  0.44760682137E+02  0.12700000000E+01 0. -1.
         -4   -1    0    0    0  501 -0.00000000000E+00 -0.00000000000E+00 -0.13848427228E+03  0.13849009556E+03  0.12700000000E+01 0. -1.
         25    2    1    2    0    0 -0.15419324080E+02  0.16467132420E+02 -0.97833188613E+02  0.16032343561E+03  0.12499339666E+03 0.  0.
    9000005    1    3    3    0    0 -0.36618048294E+02 -0.38250203461E+02 -0.85154375688E+02  0.10028074204E+03  0.10000000000E+01 0.  0.
    9000005    1    3    3    0    0  0.21198724214E+02  0.54717335882E+02 -0.12678812925E+02  0.60042693573E+02  0.10000000000E+01 0.  0.
         21    1    1    2  502  501  0.15419324080E+02 -0.16467132420E+02  0.40915779143E+01  0.22927342084E+02  0.00000000000E+00 0. -1.
<mgrwt>
<rscale>  1 0.12701288E+03</rscale>
<asrwt>0</asrwt>
<pdfrwt beam="1">  1        4 0.68853206E-02 0.12701288E+03</pdfrwt>
<pdfrwt beam="2">  1       -4 0.21307107E-01 0.12701288E+03</pdfrwt>
<totfact> 0.45786367E+03</totfact>
</mgrwt>
</event>
<event>
 6    4  0.5642870E-004  0.1266191E+03  0.7818608E-02  0.1232560E+00
          4   -1    0    0  502    0  0.00000000000E+00  0.00000000000E+00  0.49221840521E+02  0.49238221783E+02  0.12700000000E+01 0. -1.
         -4   -1    0    0    0  501 -0.00000000000E+00 -0.00000000000E+00 -0.41044305709E+03  0.41044502192E+03  0.12700000000E+01 0. -1.
         25    2    1    2    0    0  0.16603599078E+02 -0.11501483520E+02 -0.39803683701E+03  0.41769094043E+03  0.12499773790E+03 0.  0.
    9000005    1    3    3    0    0 -0.30137391763E+01 -0.66340947471E+02 -0.17521086767E+03  0.18737676506E+03  0.10000000000E+01 0.  0.
    9000005    1    3    3    0    0  0.19617338254E+02  0.54839463951E+02 -0.22282596934E+03  0.23031417537E+03  0.10000000000E+01 0.  0.
         21    1    1    2  502  501 -0.16603599078E+02  0.11501483520E+02  0.36815620435E+02  0.41992303265E+02  0.00000000000E+00 0. -1.
<mgrwt>
<rscale>  1 0.12661911E+03</rscale>
<asrwt>0</asrwt>
<pdfrwt beam="1">  1        4 0.75740024E-02 0.12661911E+03</pdfrwt>
<pdfrwt beam="2">  1       -4 0.63146495E-01 0.12661911E+03</pdfrwt>
<totfact> 0.47155059E+02</totfact>
</mgrwt>
</event>
<event>
 6    4  0.5642870E-004  0.1288209E+03  0.7818608E-02  0.1229216E+00
         -4   -1    0    0    0  501 -0.00000000000E+00  0.00000000000E+00  0.92599399604E+02  0.92608108214E+02  0.12700000000E+01 0. -1.
          4   -1    0    0  502    0  0.00000000000E+00 -0.00000000000E+00 -0.69847476813E+02  0.69859021731E+02  0.12700000000E+01 0. -1.
         25    2    1    2    0    0 -0.91250369873E+01  0.29748542092E+02  0.25169521676E+02  0.13125676563E+03  0.12500636642E+03 0.  0.
    9000005    1    3    3    0    0 -0.94680061461E+01 -0.48539794863E+02  0.15997643807E+01  0.49490545277E+02  0.10000000000E+01 0.  0.
    9000005    1    3    3    0    0  0.34296915879E+00  0.78288336955E+02  0.23569757295E+02  0.81766220348E+02  0.10000000000E+01 0.  0.
         21    1    1    2  502  501  0.91250369873E+01 -0.29748542092E+02 -0.24175988848E+01  0.31210364320E+02  0.00000000000E+00 0. -1.
<mgrwt>
<rscale>  1 0.12882094E+03</rscale>
<asrwt>0</asrwt>
<pdfrwt beam="2">  1        4 0.10747324E-01 0.12882094E+03</pdfrwt>
<pdfrwt beam="1">  1       -4 0.14247619E-01 0.12882094E+03</pdfrwt>
<totfact> 0.44670303E+03</totfact>
</mgrwt>
</event>
<event>
 6    4  0.5642870E-004  0.1346745E+03  0.7818608E-02  0.1220680E+00
          4   -1    0    0  502    0  0.00000000000E+00  0.00000000000E+00  0.14900499888E+03  0.14901041102E+03  0.12700000000E+01 0.  1.
         -4   -1    0    0    0  501 -0.00000000000E+00 -0.00000000000E+00 -0.59666671109E+02  0.59680185499E+02  0.12700000000E+01 0.  1.
         25    2    1    2    0    0  0.61419641303E+01  0.49748892736E+02  0.45661024042E+02  0.14220463625E+03  0.12499821360E+03 0.  0.
    9000005    1    3    3    0    0 -0.47157205228E+02 -0.15826934197E+02  0.22324768223E+02  0.54531542498E+02  0.10000000000E+01 0.  0.
    9000005    1    3    3    0    0  0.53299169358E+02  0.65575826932E+02  0.23336255819E+02  0.87673093750E+02  0.10000000000E+01 0.  0.
         21    1    1    2  502  501 -0.61419641303E+01 -0.49748892736E+02  0.43677303732E+02  0.66485960270E+02  0.00000000000E+00 0.  1.
<mgrwt>
<rscale>  1 0.13467453E+03</rscale>
<asrwt>0</asrwt>
<pdfrwt beam="1">  1        4 0.22925302E-01 0.13467453E+03</pdfrwt>
<pdfrwt beam="2">  1       -4 0.91809439E-02 0.13467453E+03</pdfrwt>
<totfact> 0.25249639E+03</totfact>
</mgrwt>
</event>
<event>
 6    4  0.5642870E-004  0.1298318E+03  0.7818608E-02  0.1227705E+00
          4   -1    0    0  502    0  0.00000000000E+00  0.00000000000E+00  0.12874065202E+02  0.12936554983E+02  0.12700000000E+01 0. -1.
         -4   -1    0    0    0  501 -0.00000000000E+00 -0.00000000000E+00 -0.54329681338E+03  0.54329829774E+03  0.12700000000E+01 0. -1.
         25    2    1    2    0    0 -0.34798176320E+02  0.56007224485E+01 -0.45156552557E+03  0.46985926170E+03  0.12495607530E+03 0.  0.
    9000005    1    3    3    0    0 -0.43254948594E+02  0.12659184022E+02 -0.45579395243E+03  0.45801787366E+03  0.10000000000E+01 0.  0.
    9000005    1    3    3    0    0  0.84567722734E+01 -0.70584615735E+01  0.42284268605E+01  0.11841388043E+02  0.10000000000E+01 0.  0.
         21    1    1    2  502  501  0.34798176320E+02 -0.56007224485E+01 -0.78857222609E+02  0.86375591024E+02  0.00000000000E+00 0. -1.
<mgrwt>
<rscale>  1 0.12983182E+03</rscale>
<asrwt>0</asrwt>
<pdfrwt beam="1">  1        4 0.19855469E-02 0.12983182E+03</pdfrwt>
<pdfrwt beam="2">  1       -4 0.83589029E-01 0.12983182E+03</pdfrwt>
<totfact> 0.21595783E+03</totfact>
</mgrwt>
</event>
<event>
 6    4  0.5642870E-004  0.1287217E+03  0.7818608E-02  0.1229365E+00
         -4   -1    0    0    0  501 -0.00000000000E+00  0.00000000000E+00  0.41799995004E+01  0.43686720892E+01  0.12700000000E+01 0.  1.
          4   -1    0    0  502    0  0.00000000000E+00 -0.00000000000E+00 -0.15927202315E+04  0.15927207378E+04  0.12700000000E+01 0.  1.
         25    2    1    2    0    0  0.21130875478E+02  0.22314175909E+02 -0.10843503157E+04  0.10919637740E+04  0.12499936111E+03 0.  0.
    9000005    1    3    3    0    0  0.32764696811E+02  0.29966623376E+02 -0.12754250701E+03  0.13505411866E+03  0.10000000000E+01 0.  0.
    9000005    1    3    3    0    0 -0.11633821333E+02 -0.76524474672E+01 -0.95680780869E+03  0.95690965536E+03  0.10000000000E+01 0.  0.
         21    1    1    2  502  501 -0.21130875478E+02 -0.22314175909E+02 -0.50418991626E+03  0.50512563586E+03  0.00000000000E+00 0.  1.
<mgrwt>
<rscale>  1 0.12872170E+03</rscale>
<asrwt>0</asrwt>
<pdfrwt beam="2">  1        4 0.24504796E+00 0.12872170E+03</pdfrwt>
<pdfrwt beam="1">  1       -4 0.65763034E-03 0.12872170E+03</pdfrwt>
<totfact> 0.71403269E+02</totfact>
</mgrwt>
</event>
<event>
 6    4  0.5642870E-004  0.1268107E+03  0.7818608E-02  0.1232266E+00
          4   -1    0    0  502    0  0.00000000000E+00  0.00000000000E+00  0.36444590919E+03  0.36444812200E+03  0.12700000000E+01 0. -1.
         -4   -1    0    0    0  501 -0.00000000000E+00 -0.00000000000E+00 -0.23695476759E+02  0.23729486274E+02  0.12700000000E+01 0. -1.
         25    2    1    2    0    0 -0.20956546562E+02 -0.41074555526E+01  0.15080635863E+03  0.19703682453E+03  0.12499961753E+03 0.  0.
    9000005    1    3    3    0    0  0.42692695368E+02  0.89763232148E+00  0.12188149230E+02  0.44418723115E+02  0.10000000000E+01 0.  0.
    9000005    1    3    3    0    0 -0.63649241930E+02 -0.50050878741E+01  0.13861820940E+03  0.15261810141E+03  0.10000000000E+01 0.  0.
         21    1    1    2  502  501  0.20956546562E+02  0.41074555526E+01  0.18994407381E+03  0.19114078374E+03  0.00000000000E+00 0.  1.
<mgrwt>
<rscale>  1 0.12681070E+03</rscale>
<asrwt>0</asrwt>
<pdfrwt beam="1">  1        4 0.56071387E-01 0.12681070E+03</pdfrwt>
<pdfrwt beam="2">  1       -4 0.36482444E-02 0.12681070E+03</pdfrwt>
<totfact> 0.19626369E+03</totfact>
</mgrwt>
</event>
<event>
 6    4  0.5642870E-004  0.1302751E+03  0.7818608E-02  0.1227048E+00
         -4   -1    0    0    0  501 -0.00000000000E+00  0.00000000000E+00  0.15674477236E+03  0.15674991726E+03  0.12700000000E+01 0.  1.
          4   -1    0    0  502    0  0.00000000000E+00 -0.00000000000E+00 -0.53600901509E+02  0.53615944854E+02  0.12700000000E+01 0.  1.
         25    2    1    2    0    0  0.15573371530E+02  0.33209672641E+02  0.11292368356E+03  0.17240460562E+03  0.12500470981E+03 0.  0.
    9000005    1    3    3    0    0  0.66629865553E+02  0.31018473870E+02  0.40987730462E+02  0.84158652278E+02  0.10000000000E+01 0.  0.
    9000005    1    3    3    0    0 -0.51056494024E+02  0.21911987713E+01  0.71935953095E+02  0.88245953345E+02  0.10000000000E+01 0.  0.
         21    1    1    2  502  501 -0.15573371530E+02 -0.33209672641E+02 -0.97798127093E+01  0.37961256491E+02  0.00000000000E+00 0.  1.
<mgrwt>
<rscale>  1 0.13027505E+03</rscale>
<asrwt>0</asrwt>
<pdfrwt beam="2">  1        4 0.82478455E-02 0.13027505E+03</pdfrwt>
<pdfrwt beam="1">  1       -4 0.24116133E-01 0.13027505E+03</pdfrwt>
<totfact> 0.27300419E+03</totfact>
</mgrwt>
</event>
<event>
 6    4  0.5642870E-004  0.1268642E+03  0.7818608E-02  0.1232184E+00
          4   -1    0    0  502    0  0.00000000000E+00  0.00000000000E+00  0.12432560174E+02  0.12497257798E+02  0.12700000000E+01 0.  1.
         -4   -1    0    0    0  501 -0.00000000000E+00 -0.00000000000E+00 -0.44485491637E+03  0.44485672920E+03  0.12700000000E+01 0.  1.
         25    2    1    2    0    0 -0.18294987946E+02 -0.11599762155E+02 -0.38057569442E+03  0.40116379744E+03  0.12500108850E+03 0.  0.
    9000005    1    3    3    0    0  0.59332908875E+01 -0.29813184286E+02 -0.36644698503E+03  0.36770697945E+03  0.10000000000E+01 0.  0.
    9000005    1    3    3    0    0 -0.24228278833E+02  0.18213422131E+02 -0.14128709391E+02  0.33456817990E+02  0.10000000000E+01 0.  0.
         21    1    1    2  502  501  0.18294987946E+02  0.11599762155E+02 -0.51846661771E+02  0.56190189560E+02  0.00000000000E+00 0.  1.
<mgrwt>
<rscale>  1 0.12686423E+03</rscale>
<asrwt>0</asrwt>
<pdfrwt beam="1">  1        4 0.19178181E-02 0.12686423E+03</pdfrwt>
<pdfrwt beam="2">  1       -4 0.68444322E-01 0.12686423E+03</pdfrwt>
<totfact> 0.35066427E+03</totfact>
</mgrwt>
</event>
<event>
 6    4  0.5642870E-004  0.1265962E+03  0.7818608E-02  0.1232596E+00
          4   -1    0    0  502    0  0.00000000000E+00  0.00000000000E+00  0.24228860900E+03  0.24229193745E+03  0.12700000000E+01 0.  1.
         -4   -1    0    0    0  501 -0.00000000000E+00 -0.00000000000E+00 -0.27091076790E+02  0.27120828557E+02  0.12700000000E+01 0.  1.
         25    2    1    2    0    0  0.19641117576E+02 -0.38898842158E+01  0.12831725930E+03  0.18025511619E+03  0.12500273269E+03 0.  0.
    9000005    1    3    3    0    0  0.52753963934E+02 -0.47458455977E+02  0.61708808234E+02  0.94043940625E+02  0.10000000000E+01 0.  0.
    9000005    1    3    3    0    0 -0.33112846358E+02  0.43568571761E+02  0.66608451061E+02  0.86211175563E+02  0.10000000000E+01 0.  0.
         21    1    1    2  502  501 -0.19641117576E+02  0.38898842158E+01  0.86880272915E+02  0.89157649815E+02  0.00000000000E+00 0. -1.
<mgrwt>
<rscale>  1 0.12659616E+03</rscale>
<asrwt>0</asrwt>
<pdfrwt beam="1">  1        4 0.37277714E-01 0.12659616E+03</pdfrwt>
<pdfrwt beam="2">  1       -4 0.41704027E-02 0.12659616E+03</pdfrwt>
<totfact> 0.36006098E+03</totfact>
</mgrwt>
</event>
<event>
 6    4  0.5642870E-004  0.1283403E+03  0.7818608E-02  0.1229939E+00
          4   -1    0    0  502    0  0.00000000000E+00  0.00000000000E+00  0.91949796414E+02  0.91958566543E+02  0.12700000000E+01 0.  1.
         -4   -1    0    0    0  501 -0.00000000000E+00 -0.00000000000E+00 -0.10169211009E+03  0.10170004009E+03  0.12700000000E+01 0.  1.
         25    2    1    2    0    0  0.22026164835E+02  0.19024243925E+02 -0.55179151527E+02  0.13969954782E+03  0.12499660437E+03 0.  0.
    9000005    1    3    3    0    0  0.62004110135E+02  0.18043989995E+02 -0.71629872426E+02  0.96446533750E+02  0.10000000000E+01 0.  0.
    9000005    1    3    3    0    0 -0.39977945300E+02  0.98025393070E+00  0.16450720899E+02  0.43253014072E+02  0.10000000000E+01 0.  0.
         21    1    1    2  502  501 -0.22026164835E+02 -0.19024243925E+02  0.45436837850E+02  0.53959058814E+02  0.00000000000E+00 0.  1.
<mgrwt>
<rscale>  1 0.12834027E+03</rscale>
<asrwt>0</asrwt>
<pdfrwt beam="1">  1        4 0.14147407E-01 0.12834027E+03</pdfrwt>
<pdfrwt beam="2">  1       -4 0.15646225E-01 0.12834027E+03</pdfrwt>
<totfact> 0.23672576E+03</totfact>
</mgrwt>
</event>
<event>
 6    4  0.5642870E-004  0.1268355E+03  0.7818608E-02  0.1232228E+00
          4   -1    0    0  502    0  0.00000000000E+00  0.00000000000E+00  0.20698838733E+02  0.20737763257E+02  0.12700000000E+01 0. -1.
         -4   -1    0    0    0  501 -0.00000000000E+00 -0.00000000000E+00 -0.27030851817E+03  0.27031150159E+03  0.12700000000E+01 0. -1.
         25    2    1    2    0    0  0.87747991102E+01 -0.19916289967E+02 -0.22422412906E+03  0.25761153357E+03  0.12495433754E+03 0.  0.
    9000005    1    3    3    0    0  0.38119032191E+02  0.36296858239E+02 -0.15515379320E+03  0.16384206443E+03  0.10000000000E+01 0.  0.
    9000005    1    3    3    0    0 -0.29344233081E+02 -0.56213148205E+02 -0.69070335857E+02  0.93769469134E+02  0.10000000000E+01 0.  0.
         21    1    1    2  502  501 -0.87747991102E+01  0.19916289967E+02 -0.25385550378E+02  0.33437731284E+02  0.00000000000E+00 0. -1.
<mgrwt>
<rscale>  1 0.12683549E+03</rscale>
<asrwt>0</asrwt>
<pdfrwt beam="1">  1        4 0.31876606E-02 0.12683549E+03</pdfrwt>
<pdfrwt beam="2">  1       -4 0.41589147E-01 0.12683549E+03</pdfrwt>
<totfact> 0.44427477E+03</totfact>
</mgrwt>
</event>
<event>
 6    4  0.5642870E-004  0.1428729E+03  0.7818608E-02  0.1209515E+00
         -4   -1    0    0    0  501 -0.00000000000E+00  0.00000000000E+00  0.51887230595E+02  0.51902770628E+02  0.12700000000E+01 0.  1.
          4   -1    0    0  502    0  0.00000000000E+00 -0.00000000000E+00 -0.24814596563E+03  0.24814921551E+03  0.12700000000E+01 0.  1.
         25    2    1    2    0    0 -0.68169115542E+02  0.11886077250E+02 -0.77332228159E+02  0.16245903144E+03  0.12499742492E+03 0.  0.
    9000005    1    3    3    0    0 -0.78094936207E+02  0.88847051762E+01 -0.10599544427E+03  0.13196132484E+03  0.10000000000E+01 0.  0.
    9000005    1    3    3    0    0  0.99258206644E+01  0.30013720739E+01  0.28663216108E+02  0.30497706599E+02  0.10000000000E+01 0.  0.
         21    1    1    2  502  501  0.68169115542E+02 -0.11886077250E+02 -0.11892650688E+03  0.13759295471E+03  0.00000000000E+00 0.  1.
<mgrwt>
<rscale>  1 0.14287289E+03</rscale>
<asrwt>0</asrwt>
<pdfrwt beam="2">  1        4 0.38177747E-01 0.14287289E+03</pdfrwt>
<pdfrwt beam="1">  1       -4 0.79840964E-02 0.14287289E+03</pdfrwt>
<totfact> 0.12318203E+03</totfact>
</mgrwt>
</event>
<event>
 6    4  0.5642870E-004  0.1449795E+03  0.7818608E-02  0.1206781E+00
         -4   -1    0    0    0  501 -0.00000000000E+00  0.00000000000E+00  0.20879283829E+03  0.20879670069E+03  0.12700000000E+01 0. -1.
          4   -1    0    0  502    0  0.00000000000E+00 -0.00000000000E+00 -0.82229240327E+02  0.82239047080E+02  0.12700000000E+01 0. -1.
         25    2    1    2    0    0 -0.69180603919E+02 -0.24657939813E+02  0.15503969387E+03  0.21226482679E+03  0.12500032025E+03 0.  0.
    9000005    1    3    3    0    0  0.20894570807E+02  0.29102076807E+02  0.19278119594E+02  0.40695944010E+02  0.10000000000E+01 0.  0.
    9000005    1    3    3    0    0 -0.90075174726E+02 -0.53760016620E+02  0.13576157427E+03  0.17156888278E+03  0.10000000000E+01 0.  0.
         21    1    1    2  502  501  0.69180603919E+02  0.24657939813E+02 -0.28476095908E+02  0.78770920983E+02  0.00000000000E+00 0. -1.
<mgrwt>
<rscale>  1 0.14497948E+03</rscale>
<asrwt>0</asrwt>
<pdfrwt beam="2">  1        4 0.12651704E-01 0.14497948E+03</pdfrwt>
<pdfrwt beam="1">  1       -4 0.32123026E-01 0.14497948E+03</pdfrwt>
<totfact> 0.79298581E+02</totfact>
</mgrwt>
</event>
<event>
 6    4  0.5642870E-004  0.1274321E+03  0.7818608E-02  0.1231317E+00
          4   -1    0    0  502    0  0.00000000000E+00  0.00000000000E+00  0.38906407908E+02  0.38927130338E+02  0.12700000000E+01 0. -1.
         -4   -1    0    0    0  501 -0.00000000000E+00 -0.00000000000E+00 -0.17195067150E+03  0.17195536144E+03  0.12700000000E+01 0. -1.
         25    2    1    2    0    0  0.18604850657E+02  0.16404540181E+02 -0.13543752872E+03  0.18596307918E+03  0.12499477280E+03 0.  0.
    9000005    1    3    3    0    0 -0.36883353590E+02  0.30981747213E+02 -0.11562134174E+03  0.12525791431E+03  0.10000000000E+01 0.  0.
    9000005    1    3    3    0    0  0.55488204247E+02 -0.14577207032E+02 -0.19816186981E+02  0.60705164870E+02  0.10000000000E+01 0.  0.
         21    1    1    2  502  501 -0.18604850657E+02 -0.16404540181E+02  0.23932651243E+01  0.24919412603E+02  0.00000000000E+00 0.  1.
<mgrwt>
<rscale>  1 0.12743211E+03</rscale>
<asrwt>0</asrwt>
<pdfrwt beam="1">  1        4 0.59875561E-02 0.12743211E+03</pdfrwt>
<pdfrwt beam="2">  1       -4 0.26455904E-01 0.12743211E+03</pdfrwt>
<totfact> 0.38703814E+03</totfact>
</mgrwt>
</event>
<event>
 6    4  0.5642870E-004  0.1302720E+03  0.7818608E-02  0.1227053E+00
          4   -1    0    0  502    0  0.00000000000E+00  0.00000000000E+00  0.54712305112E+03  0.54712452510E+03  0.12700000000E+01 0. -1.
         -4   -1    0    0    0  501 -0.00000000000E+00 -0.00000000000E+00 -0.22448191811E+02  0.22484088053E+02  0.12700000000E+01 0. -1.
         25    2    1    2    0    0  0.16607995187E+02  0.32706336555E+02  0.17577990203E+03  0.21879068150E+03  0.12500103359E+03 0.  0.
    9000005    1    3    3    0    0  0.35850024653E+01  0.79167205478E+02  0.86619246252E+02  0.11740610072E+03  0.10000000000E+01 0.  0.
    9000005    1    3    3    0    0  0.13022992721E+02 -0.46460868922E+02  0.89160655777E+02  0.10138458078E+03  0.10000000000E+01 0.  0.
         21    1    1    2  502  501 -0.16607995187E+02 -0.32706336555E+02  0.34889495728E+03  0.35081793165E+03  0.00000000000E+00 0. -1.
<mgrwt>
<rscale>  1 0.13027198E+03</rscale>
<asrwt>0</asrwt>
<pdfrwt beam="1">  1        4 0.84175646E-01 0.13027198E+03</pdfrwt>
<pdfrwt beam="2">  1       -4 0.34564429E-02 0.13027198E+03</pdfrwt>
<totfact> 0.89798415E+02</totfact>
</mgrwt>
</event>
<event>
 6    4  0.5642870E-004  0.1438051E+03  0.7818608E-02  0.1208299E+00
          4   -1    0    0  502    0  0.00000000000E+00  0.00000000000E+00  0.33211960438E+02  0.33236233483E+02  0.12700000000E+01 0.  1.
         -4   -1    0    0    0  501 -0.00000000000E+00 -0.00000000000E+00 -0.69184748948E+03  0.69184865512E+03  0.12700000000E+01 0.  1.
         25    2    1    2    0    0 -0.24855833316E+02 -0.66606930950E+02 -0.63359617244E+03  0.64971072142E+03  0.12500246437E+03 0.  0.
    9000005    1    3    3    0    0 -0.23315121823E+02 -0.18755792985E+02 -0.24366091372E+02  0.38601568425E+02  0.10000000000E+01 0.  0.
    9000005    1    3    3    0    0 -0.15407114930E+01 -0.47851137965E+02 -0.60923008106E+03  0.61110915299E+03  0.10000000000E+01 0.  0.
         21    1    1    2  502  501  0.24855833316E+02  0.66606930950E+02 -0.25039356604E+02  0.75374167190E+02  0.00000000000E+00 0.  1.
<mgrwt>
<rscale>  1 0.14380512E+03</rscale>
<asrwt>0</asrwt>
<pdfrwt beam="1">  1        4 0.51114897E-02 0.14380512E+03</pdfrwt>
<pdfrwt beam="2">  1       -4 0.10644002E+00 0.14380512E+03</pdfrwt>
<totfact> 0.28695260E+02</totfact>
</mgrwt>
</event>
<event>
 6    4  0.5642870E-004  0.1569890E+03  0.7818608E-02  0.1192139E+00
         -4   -1    0    0    0  501 -0.00000000000E+00  0.00000000000E+00  0.70199088121E+03  0.70199203002E+03  0.12700000000E+01 0. -1.
          4   -1    0    0  502    0  0.00000000000E+00 -0.00000000000E+00 -0.24247977981E+03  0.24248310563E+03  0.12700000000E+01 0. -1.
         25    2    1    2    0    0  0.88564633446E+02 -0.34318875544E+02  0.68343816689E+03  0.70123695983E+03  0.12499626534E+03 0.  0.
    9000005    1    3    3    0    0  0.51901627911E+02 -0.59132670403E+02  0.18771100695E+03  0.20353592759E+03  0.10000000000E+01 0.  0.
    9000005    1    3    3    0    0  0.36663005535E+02  0.24813794859E+02  0.49572715994E+03  0.49770103224E+03  0.10000000000E+01 0.  0.
         21    1    1    2  502  501 -0.88564633446E+02  0.34318875544E+02 -0.22392706549E+03  0.24323817582E+03  0.00000000000E+00 0. -1.
<mgrwt>
<rscale>  1 0.15698900E+03</rscale>
<asrwt>0</asrwt>
<pdfrwt beam="2">  1        4 0.37304926E-01 0.15698900E+03</pdfrwt>
<pdfrwt beam="1">  1       -4 0.10799894E+00 0.15698900E+03</pdfrwt>
<totfact> 0.86370787E+00</totfact>
</mgrwt>
</event>
<event>
 6    4  0.5642870E-004  0.1273824E+03  0.7818608E-02  0.1231392E+00
         -4   -1    0    0    0  501 -0.00000000000E+00  0.00000000000E+00  0.32830151806E+03  0.32830397448E+03  0.12700000000E+01 0.  1.
          4   -1    0    0  502    0  0.00000000000E+00 -0.00000000000E+00 -0.17635851534E+02  0.17681520278E+02  0.12700000000E+01 0.  1.
         25    2    1    2    0    0  0.21430359757E+02 -0.11928949246E+02  0.26901796641E+03  0.29765236870E+03  0.12499882477E+03 0.  0.
    9000005    1    3    3    0    0 -0.91911124871E+01 -0.40365810328E+02  0.24692242635E+03  0.25037084461E+03  0.10000000000E+01 0.  0.
    9000005    1    3    3    0    0  0.30621472244E+02  0.28436861082E+02  0.22095540058E+02  0.47281524098E+02  0.10000000000E+01 0.  0.
         21    1    1    2  502  501 -0.21430359757E+02  0.11928949246E+02  0.41647700114E+02  0.48333126054E+02  0.00000000000E+00 0.  1.
<mgrwt>
<rscale>  1 0.12738236E+03</rscale>
<asrwt>0</asrwt>
<pdfrwt beam="2">  1        4 0.27169101E-02 0.12738236E+03</pdfrwt>
<pdfrwt beam="1">  1       -4 0.50511624E-01 0.12738236E+03</pdfrwt>
<totfact> 0.38655329E+03</totfact>
</mgrwt>
</event>
<event>
 6    4  0.5642870E-004  0.1416856E+03  0.7818608E-02  0.1211079E+00
          4   -1    0    0  502    0  0.00000000000E+00  0.00000000000E+00  0.27208089997E+02  0.27237713951E+02  0.12700000000E+01 0.  1.
         -4   -1    0    0    0  501 -0.00000000000E+00 -0.00000000000E+00 -0.65719781158E+03  0.65719903868E+03  0.12700000000E+01 0.  1.
         25    2    1    2    0    0  0.44989766664E+02  0.49249888963E+02 -0.58975614572E+03  0.60653700106E+03  0.12500076633E+03 0.  0.
    9000005    1    3    3    0    0  0.10278639187E+02  0.88104307679E+02 -0.33820798283E+03  0.34964790733E+03  0.10000000000E+01 0.  0.
    9000005    1    3    3    0    0  0.34711127477E+02 -0.38854418716E+02 -0.25154816289E+03  0.25688909373E+03  0.10000000000E+01 0.  0.
         21    1    1    2  502  501 -0.44989766664E+02 -0.49249888963E+02 -0.40233575863E+02  0.77899751566E+02  0.00000000000E+00 0.  1.
<mgrwt>
<rscale>  1 0.14168565E+03</rscale>
<asrwt>0</asrwt>
<pdfrwt beam="1">  1        4 0.41882337E-02 0.14168565E+03</pdfrwt>
<pdfrwt beam="2">  1       -4 0.10110972E+00 0.14168565E+03</pdfrwt>
<totfact> 0.44405817E+02</totfact>
</mgrwt>
</event>
<event>
 6    4  0.5642870E-004  0.1313850E+03  0.7818608E-02  0.1225415E+00
          4   -1    0    0  502    0  0.00000000000E+00  0.00000000000E+00  0.70665006083E+02  0.70676417458E+02  0.12700000000E+01 0. -1.
         -4   -1    0    0    0  501 -0.00000000000E+00 -0.00000000000E+00 -0.13926745010E+03  0.13927324064E+03  0.12700000000E+01 0. -1.
         25    2    1    2    0    0  0.22255747226E+02  0.33790109988E+02 -0.94562400682E+02  0.16187670138E+03  0.12499971604E+03 0.  0.
    9000005    1    3    3    0    0 -0.96393447525E+01 -0.42314808704E+02 -0.11764819828E+02  0.44976338095E+02  0.10000000000E+01 0.  0.
    9000005    1    3    3    0    0  0.31895091978E+02  0.76104918692E+02 -0.82797580853E+02  0.11690036329E+03  0.10000000000E+01 0.  0.
         21    1    1    2  502  501 -0.22255747226E+02 -0.33790109988E+02  0.25959956661E+02  0.48072956716E+02  0.00000000000E+00 0. -1.
<mgrwt>
<rscale>  1 0.13138500E+03</rscale>
<asrwt>0</asrwt>
<pdfrwt beam="1">  1        4 0.10872863E-01 0.13138500E+03</pdfrwt>
<pdfrwt beam="2">  1       -4 0.21427085E-01 0.13138500E+03</pdfrwt>
<totfact> 0.21354625E+03</totfact>
</mgrwt>
</event>
<event>
 6    4  0.5642870E-004  0.1327096E+03  0.7818608E-02  0.1223490E+00
          4   -1    0    0  502    0  0.00000000000E+00  0.00000000000E+00  0.51992749005E+02  0.52008257509E+02  0.12700000000E+01 0.  1.
         -4   -1    0    0    0  501 -0.00000000000E+00 -0.00000000000E+00 -0.15354135736E+03  0.15354660961E+03  0.12700000000E+01 0.  1.
         25    2    1    2    0    0  0.93806922006E+01 -0.43578908165E+02 -0.86911248271E+02  0.15863609759E+03  0.12499891104E+03 0.  0.
    9000005    1    3    3    0    0  0.33289227820E+02 -0.72229268049E+02 -0.19995623698E+02  0.82012589393E+02  0.10000000000E+01 0.  0.
    9000005    1    3    3    0    0 -0.23908535620E+02  0.28650359884E+02 -0.66915624573E+02  0.76623508201E+02  0.10000000000E+01 0.  0.
         21    1    1    2  502  501 -0.93806922006E+01  0.43578908165E+02 -0.14637360088E+02  0.46918769521E+02  0.00000000000E+00 0.  1.
<mgrwt>
<rscale>  1 0.13270963E+03</rscale>
<asrwt>0</asrwt>
<pdfrwt beam="1">  1        4 0.80004815E-02 0.13270963E+03</pdfrwt>
<pdfrwt beam="2">  1       -4 0.23623344E-01 0.13270963E+03</pdfrwt>
<totfact> 0.29954024E+03</totfact>
</mgrwt>
</event>
<event>
 6    4  0.5642870E-004  0.1321701E+03  0.7818608E-02  0.1224271E+00
         -4   -1    0    0    0  501 -0.00000000000E+00  0.00000000000E+00  0.74923645973E+02  0.74934408824E+02  0.12700000000E+01 0. -1.
          4   -1    0    0  502    0  0.00000000000E+00 -0.00000000000E+00 -0.35323126982E+03  0.35323355287E+03  0.12700000000E+01 0. -1.
         25    2    1    2    0    0  0.31975300943E+02 -0.28730060389E+02  0.13823526650E+02  0.13289106567E+03  0.12498443585E+03 0.  0.
    9000005    1    3    3    0    0 -0.21753274707E+02 -0.42589487306E+02  0.47959859275E+02  0.67736382330E+02  0.10000000000E+01 0.  0.
    9000005    1    3    3    0    0  0.53728575650E+02  0.13859426917E+02 -0.34136332625E+02  0.65154683339E+02  0.10000000000E+01 0.  0.
         21    1    1    2  502  501 -0.31975300943E+02  0.28730060389E+02 -0.29213115049E+03  0.29527689603E+03  0.00000000000E+00 0. -1.
<mgrwt>
<rscale>  1 0.13217014E+03</rscale>
<asrwt>0</asrwt>
<pdfrwt beam="2">  1        4 0.54344275E-01 0.13217014E+03</pdfrwt>
<pdfrwt beam="1">  1       -4 0.11527719E-01 0.13217014E+03</pdfrwt>
<totfact> 0.32204255E+02</totfact>
</mgrwt>
</event>
<event>
 6    4  0.5642870E-004  0.1314731E+03  0.7818608E-02  0.1225286E+00
          4   -1    0    0  502    0  0.00000000000E+00  0.00000000000E+00  0.29089886236E+02  0.29117595732E+02  0.12700000000E+01 0.  1.
         -4   -1    0    0    0  501 -0.00000000000E+00 -0.00000000000E+00 -0.25567860063E+03  0.25568175476E+03  0.12700000000E+01 0.  1.
         25    2    1    2    0    0 -0.38950154546E+02  0.11943653565E+02 -0.18015226822E+03  0.22302468795E+03  0.12500162515E+03 0.  0.
    9000005    1    3    3    0    0  0.36718896900E+01  0.59035585733E+02 -0.12735469885E+03  0.14042400961E+03  0.10000000000E+01 0.  0.
    9000005    1    3    3    0    0 -0.42622044236E+02 -0.47091932168E+02 -0.52797569374E+02  0.82600678339E+02  0.10000000000E+01 0.  0.
         21    1    1    2  502  501  0.38950154546E+02 -0.11943653565E+02 -0.46436446170E+02  0.61774662545E+02  0.00000000000E+00 0. -1.
<mgrwt>
<rscale>  1 0.13147308E+03</rscale>
<asrwt>0</asrwt>
<pdfrwt beam="1">  1        4 0.44777414E-02 0.13147308E+03</pdfrwt>
<pdfrwt beam="2">  1       -4 0.39337542E-01 0.13147308E+03</pdfrwt>
<totfact> 0.29210667E+03</totfact>
</mgrwt>
</event>
<event>
 6    4  0.5642870E-004  0.1269964E+03  0.7818608E-02  0.1231982E+00
          4   -1    0    0  502    0  0.00000000000E+00  0.00000000000E+00  0.15652046133E+03  0.15652561361E+03  0.12700000000E+01 0.  1.
         -4   -1    0    0    0  501 -0.00000000000E+00 -0.00000000000E+00 -0.37656805957E+02  0.37678215655E+02  0.12700000000E+01 0.  1.
         25    2    1    2    0    0  0.22152926343E+02 -0.34985006409E+01  0.82371718513E+02  0.15137097846E+03  0.12500032582E+03 0.  0.
    9000005    1    3    3    0    0  0.25301546656E+02  0.55057766344E+02  0.67804836376E+02  0.90939659852E+02  0.10000000000E+01 0.  0.
    9000005    1    3    3    0    0 -0.31486203136E+01 -0.58556266985E+02  0.14566882137E+02  0.60431318605E+02  0.10000000000E+01 0.  0.
         21    1    1    2  502  501 -0.22152926343E+02  0.34985006409E+01  0.36491936861E+02  0.42832850805E+02  0.00000000000E+00 0. -1.
<mgrwt>
<rscale>  1 0.12699635E+03</rscale>
<asrwt>0</asrwt>
<pdfrwt beam="1">  1        4 0.24082114E-01 0.12699635E+03</pdfrwt>
<pdfrwt beam="2">  1       -4 0.57953980E-02 0.12699635E+03</pdfrwt>
<totfact> 0.48496096E+03</totfact>
</mgrwt>
</event>
<event>
 6    4  0.5642870E-004  0.1298600E+03  0.7818608E-02  0.1227664E+00
         -4   -1    0    0    0  501 -0.00000000000E+00  0.00000000000E+00  0.18873188754E+03  0.18873616048E+03  0.12700000000E+01 0.  1.
          4   -1    0    0  502    0  0.00000000000E+00 -0.00000000000E+00 -0.42747411704E+02  0.42766273013E+02  0.12700000000E+01 0.  1.
         25    2    1    2    0    0  0.16479819115E+02 -0.31095454268E+02  0.14719311913E+03  0.19628918978E+03  0.12500047996E+03 0.  0.
    9000005    1    3    3    0    0  0.68675972060E+02 -0.28092468868E+02  0.63826082762E+02  0.97879235726E+02  0.10000000000E+01 0.  0.
    9000005    1    3    3    0    0 -0.52196152945E+02 -0.30029854005E+01  0.83367036372E+02  0.98409954055E+02  0.10000000000E+01 0.  0.
         21    1    1    2  502  501 -0.16479819115E+02  0.31095454268E+02 -0.12086433016E+01  0.35213243714E+02  0.00000000000E+00 0.  1.
<mgrwt>
<rscale>  1 0.12986005E+03</rscale>
<asrwt>0</asrwt>
<pdfrwt beam="2">  1        4 0.65783044E-02 0.12986005E+03</pdfrwt>
<pdfrwt beam="1">  1       -4 0.29037455E-01 0.12986005E+03</pdfrwt>
<totfact> 0.28032838E+03</totfact>
</mgrwt>
</event>
<event>
 6    4  0.5642870E-004  0.1459531E+03  0.7818608E-02  0.1205536E+00
         -4   -1    0    0    0  501 -0.00000000000E+00  0.00000000000E+00  0.34224716990E+03  0.34224952623E+03  0.12700000000E+01 0. -1.
          4   -1    0    0  502    0  0.00000000000E+00 -0.00000000000E+00 -0.40550935113E+02  0.40570817573E+02  0.12700000000E+01 0. -1.
         25    2    1    2    0    0 -0.65453910155E+02  0.37321146226E+02  0.13054065416E+03  0.19581415382E+03  0.12500095255E+03 0.  0.
    9000005    1    3    3    0    0  0.93596224689E+01 -0.15418121803E+02 -0.15268066180E+02  0.23652375305E+02  0.10000000000E+01 0.  0.
    9000005    1    3    3    0    0 -0.74813532624E+02  0.52739268029E+02  0.14580872034E+03  0.17216177852E+03  0.10000000000E+01 0.  0.
         21    1    1    2  502  501  0.65453910155E+02 -0.37321146226E+02  0.17115558062E+03  0.18700618997E+03  0.00000000000E+00 0. -1.
<mgrwt>
<rscale>  1 0.14595314E+03</rscale>
<asrwt>0</asrwt>
<pdfrwt beam="2">  1        4 0.62403159E-02 0.14595314E+03</pdfrwt>
<pdfrwt beam="1">  1       -4 0.52655123E-01 0.14595314E+03</pdfrwt>
<totfact> 0.97375398E+02</totfact>
</mgrwt>
</event>
<event>
 6    4  0.5642870E-004  0.1292815E+03  0.7818608E-02  0.1228526E+00
          4   -1    0    0  502    0  0.00000000000E+00  0.00000000000E+00  0.87274147290E+03  0.87274239694E+03  0.12700000000E+01 0.  1.
         -4   -1    0    0    0  501 -0.00000000000E+00 -0.00000000000E+00 -0.77402627809E+01  0.78437598075E+01  0.12700000000E+01 0.  1.
         25    2    1    2    0    0 -0.32915632576E+02 -0.31081393069E+01  0.61764489032E+03  0.63103005415E+03  0.12498247601E+03 0.  0.
    9000005    1    3    3    0    0  0.89690106415E+01 -0.55685492061E+02  0.19225234857E+03  0.20035788657E+03  0.10000000000E+01 0.  0.
    9000005    1    3    3    0    0 -0.41884643217E+02  0.52577352754E+02  0.42539254174E+03  0.43067216758E+03  0.10000000000E+01 0.  0.
         21    1    1    2  502  501  0.32915632576E+02  0.31081393069E+01  0.24735631980E+03  0.24955610260E+03  0.00000000000E+00 0. -1.
<mgrwt>
<rscale>  1 0.12928155E+03</rscale>
<asrwt>0</asrwt>
<pdfrwt beam="1">  1        4 0.13427599E+00 0.12928155E+03</pdfrwt>
<pdfrwt beam="2">  1       -4 0.11988417E-02 0.12928155E+03</pdfrwt>
<totfact> 0.15370107E+03</totfact>
</mgrwt>
</event>
<event>
 6    4  0.5642870E-004  0.1339116E+03  0.7818608E-02  0.1221764E+00
          4   -1    0    0  502    0  0.00000000000E+00  0.00000000000E+00  0.38462629597E+02  0.38483590990E+02  0.12700000000E+01 0. -1.
         -4   -1    0    0    0  501 -0.00000000000E+00 -0.00000000000E+00 -0.21753259754E+03  0.21753630477E+03  0.12700000000E+01 0. -1.
         25    2    1    2    0    0 -0.10903816165E+02  0.46783252702E+02 -0.14327967488E+03  0.19611571379E+03  0.12499896807E+03 0.  0.
    9000005    1    3    3    0    0 -0.20354635411E+02  0.39307922314E+02  0.74523889531E+01  0.44899465926E+02  0.10000000000E+01 0.  0.
    9000005    1    3    3    0    0  0.94508192455E+01  0.74753303883E+01 -0.15073206383E+03  0.15121624786E+03  0.10000000000E+01 0.  0.
         21    1    1    2  502  501  0.10903816165E+02 -0.46783252702E+02 -0.35790293061E+02  0.59904181973E+02  0.00000000000E+00 0. -1.
<mgrwt>
<rscale>  1 0.13391157E+03</rscale>
<asrwt>0</asrwt>
<pdfrwt beam="1">  1        4 0.59192253E-02 0.13391157E+03</pdfrwt>
<pdfrwt beam="2">  1       -4 0.33468450E-01 0.13391157E+03</pdfrwt>
<totfact> 0.25606756E+03</totfact>
</mgrwt>
</event>
<event>
 6    4  0.5642870E-004  0.1355815E+03  0.7818608E-02  0.1219401E+00
         -4   -1    0    0    0  501 -0.00000000000E+00  0.00000000000E+00  0.10336560239E+02  0.10414287185E+02  0.12700000000E+01 0.  1.
          4   -1    0    0  502    0  0.00000000000E+00 -0.00000000000E+00 -0.15104729315E+04  0.15104734654E+04  0.12700000000E+01 0.  1.
         25    2    1    2    0    0  0.51719334004E+01 -0.52248650246E+02 -0.46350896355E+03  0.48293156240E+03  0.12500265725E+03 0.  0.
    9000005    1    3    3    0    0 -0.40324581762E+02 -0.39794535760E+02 -0.89299649017E+02  0.10575965339E+03  0.10000000000E+01 0.  0.
    9000005    1    3    3    0    0  0.45496515162E+02 -0.12454114486E+02 -0.37420931453E+03  0.37717190901E+03  0.10000000000E+01 0.  0.
         21    1    1    2  502  501 -0.51719334004E+01  0.52248650246E+02 -0.10366274077E+04  0.10379561902E+04  0.00000000000E+00 0.  1.
<mgrwt>
<rscale>  1 0.13558147E+03</rscale>
<asrwt>0</asrwt>
<pdfrwt beam="2">  1        4 0.23238630E+00 0.13558147E+03</pdfrwt>
<pdfrwt beam="1">  1       -4 0.15962613E-02 0.13558147E+03</pdfrwt>
<totfact> 0.22431605E+02</totfact>
</mgrwt>
</event>
<event>
 6    4  0.5642870E-004  0.1267403E+03  0.7818608E-02  0.1232374E+00
          4   -1    0    0  502    0  0.00000000000E+00  0.00000000000E+00  0.10391105723E+03  0.10391881790E+03  0.12700000000E+01 0.  1.
         -4   -1    0    0    0  501 -0.00000000000E+00 -0.00000000000E+00 -0.52478943409E+02  0.52494308276E+02  0.12700000000E+01 0.  1.
         25    2    1    2    0    0 -0.18838354696E+01  0.20826724297E+02  0.42536448701E+02  0.13368793886E+03  0.12500325694E+03 0.  0.
    9000005    1    3    3    0    0 -0.71525892446E+01 -0.49473147245E+02  0.38437082908E+02  0.63064737958E+02  0.10000000000E+01 0.  0.
    9000005    1    3    3    0    0  0.52687537750E+01  0.70299871542E+02  0.40993657929E+01  0.70623200898E+02  0.10000000000E+01 0.  0.
         21    1    1    2  502  501  0.18838354696E+01 -0.20826724297E+02  0.88956651200E+01  0.22725187325E+02  0.00000000000E+00 0. -1.
<mgrwt>
<rscale>  1 0.12674035E+03</rscale>
<asrwt>0</asrwt>
<pdfrwt beam="1">  1        4 0.15988095E-01 0.12674035E+03</pdfrwt>
<pdfrwt beam="2">  1       -4 0.80754625E-02 0.12674035E+03</pdfrwt>
<totfact> 0.58701311E+03</totfact>
</mgrwt>
</event>
<event>
 6    4  0.5642870E-004  0.1294157E+03  0.7818608E-02  0.1228325E+00
          4   -1    0    0  502    0  0.00000000000E+00  0.00000000000E+00  0.54804856178E+02  0.54819569140E+02  0.12700000000E+01 0.  1.
         -4   -1    0    0    0  501 -0.00000000000E+00 -0.00000000000E+00 -0.13259699799E+03  0.13260307982E+03  0.12700000000E+01 0.  1.
         25    2    1    2    0    0  0.13523292028E+02  0.30667389545E+02 -0.82649629569E+02  0.15355580092E+03  0.12500021808E+03 0.  0.
    9000005    1    3    3    0    0  0.57058571863E+02  0.75500097145E+00 -0.82994518110E+02  0.10072408196E+03  0.10000000000E+01 0.  0.
    9000005    1    3    3    0    0 -0.43535279835E+02  0.29912388574E+02  0.34488854044E+00  0.52831718964E+02  0.10000000000E+01 0.  0.
         21    1    1    2  502  501 -0.13523292028E+02 -0.30667389545E+02  0.48574877525E+01  0.33866848038E+02  0.00000000000E+00 0. -1.
<mgrwt>
<rscale>  1 0.12941570E+03</rscale>
<asrwt>0</asrwt>
<pdfrwt beam="1">  1        4 0.84331160E-02 0.12941570E+03</pdfrwt>
<pdfrwt beam="2">  1       -4 0.20401138E-01 0.12941570E+03</pdfrwt>
<totfact> 0.35611224E+03</totfact>
</mgrwt>
</event>
<event>
 6    4  0.5642870E-004  0.1303138E+03  0.7818608E-02  0.1226991E+00
          4   -1    0    0  502    0  0.00000000000E+00  0.00000000000E+00  0.17568491690E+02  0.17614335078E+02  0.12700000000E+01 0. -1.
         -4   -1    0    0    0  501 -0.00000000000E+00 -0.00000000000E+00 -0.49310558968E+03  0.49310722513E+03  0.12700000000E+01 0. -1.
         25    2    1    2    0    0 -0.32281764230E+02  0.17739193030E+02 -0.24732224469E+03  0.27955320048E+03  0.12499963164E+03 0.  0.
    9000005    1    3    3    0    0 -0.21871863026E+00  0.33261789604E+02 -0.24108954659E+03  0.24337535611E+03  0.10000000000E+01 0.  0.
    9000005    1    3    3    0    0 -0.32063045600E+02 -0.15522596575E+02 -0.62326980936E+01  0.36177844367E+02  0.10000000000E+01 0.  0.
         21    1    1    2  502  501  0.32281764230E+02 -0.17739193030E+02 -0.22821485330E+03  0.23116835973E+03  0.00000000000E+00 0. -1.
<mgrwt>
<rscale>  1 0.13031385E+03</rscale>
<asrwt>0</asrwt>
<pdfrwt beam="1">  1        4 0.27064975E-02 0.13031385E+03</pdfrwt>
<pdfrwt beam="2">  1       -4 0.75866040E-01 0.13031385E+03</pdfrwt>
<totfact> 0.16572590E+03</totfact>
</mgrwt>
</event>
<event>
 6    4  0.5642870E-004  0.1278346E+03  0.7818608E-02  0.1230705E+00
         -4   -1    0    0    0  501 -0.00000000000E+00  0.00000000000E+00  0.11996254424E+03  0.11996926656E+03  0.12700000000E+01 0.  1.
          4   -1    0    0  502    0  0.00000000000E+00 -0.00000000000E+00 -0.53375280799E+02  0.53390387715E+02  0.12700000000E+01 0.  1.
         25    2    1    2    0    0  0.26651166041E+02  0.21849391560E+01  0.71045084679E+02  0.14625004748E+03  0.12500645472E+03 0.  0.
    9000005    1    3    3    0    0 -0.32252566826E+01 -0.26178228863E+02 -0.28299352318E+02  0.38698259504E+02  0.10000000000E+01 0.  0.
    9000005    1    3    3    0    0  0.29876422724E+02  0.28363168019E+02  0.99344436997E+02  0.10755178798E+03  0.10000000000E+01 0.  0.
         21    1    1    2  502  501 -0.26651166041E+02 -0.21849391560E+01 -0.44578212413E+01  0.27109606797E+02  0.00000000000E+00 0. -1.
<mgrwt>
<rscale>  1 0.12783455E+03</rscale>
<asrwt>0</asrwt>
<pdfrwt beam="2">  1        4 0.82132610E-02 0.12783455E+03</pdfrwt>
<pdfrwt beam="1">  1       -4 0.18457455E-01 0.12783455E+03</pdfrwt>
<totfact> 0.44379611E+03</totfact>
</mgrwt>
</event>
<event>
 6    4  0.5642870E-004  0.1312066E+03  0.7818608E-02  0.1225676E+00
         -4   -1    0    0    0  501 -0.00000000000E+00  0.00000000000E+00  0.63822979473E+02  0.63835613953E+02  0.12700000000E+01 0. -1.
          4   -1    0    0  502    0  0.00000000000E+00 -0.00000000000E+00 -0.11704506064E+03  0.11705195052E+03  0.12700000000E+01 0. -1.
         25    2    1    2    0    0 -0.31395768201E+02  0.24592034216E+02 -0.29489815488E+02  0.13447977588E+03  0.12499879397E+03 0.  0.
    9000005    1    3    3    0    0 -0.34992526551E+02  0.19133874193E+02  0.44747045137E+02  0.59948979178E+02  0.10000000000E+01 0.  0.
    9000005    1    3    3    0    0  0.35967583497E+01  0.54581600225E+01 -0.74236860624E+02  0.74530796701E+02  0.10000000000E+01 0.  0.
         21    1    1    2  502  501  0.31395768201E+02 -0.24592034216E+02 -0.23732265681E+02  0.46407788594E+02  0.00000000000E+00 0. -1.
<mgrwt>
<rscale>  1 0.13120656E+03</rscale>
<asrwt>0</asrwt>
<pdfrwt beam="2">  1        4 0.18008434E-01 0.13120656E+03</pdfrwt>
<pdfrwt beam="1">  1       -4 0.98204218E-02 0.13120656E+03</pdfrwt>
<totfact> 0.34628583E+03</totfact>
</mgrwt>
</event>
<event>
 6    4  0.5642870E-004  0.1349770E+03  0.7818608E-02  0.1220252E+00
         -4   -1    0    0    0  501 -0.00000000000E+00  0.00000000000E+00  0.80410914098E+02  0.80420942584E+02  0.12700000000E+01 0.  1.
          4   -1    0    0  502    0  0.00000000000E+00 -0.00000000000E+00 -0.11082672890E+03  0.11083400533E+03  0.12700000000E+01 0.  1.
         25    2    1    2    0    0  0.34951268177E+02  0.37041888794E+02 -0.68826487917E+01  0.13515234036E+03  0.12500036631E+03 0.  0.
    9000005    1    3    3    0    0  0.21624641190E+02  0.81698221051E+02  0.10992229403E+02  0.85229417086E+02  0.10000000000E+01 0.  0.
    9000005    1    3    3    0    0  0.13326626987E+02 -0.44656332257E+02 -0.17874878195E+02  0.49922923272E+02  0.10000000000E+01 0.  0.
         21    1    1    2  502  501 -0.34951268177E+02 -0.37041888794E+02 -0.23533166009E+02  0.56102607559E+02  0.00000000000E+00 0.  1.
<mgrwt>
<rscale>  1 0.13497698E+03</rscale>
<asrwt>0</asrwt>
<pdfrwt beam="2">  1        4 0.17051597E-01 0.13497698E+03</pdfrwt>
<pdfrwt beam="1">  1       -4 0.12372241E-01 0.13497698E+03</pdfrwt>
<totfact> 0.25943123E+03</totfact>
</mgrwt>
</event>
<event>
 6    4  0.5642870E-004  0.1268687E+03  0.7818608E-02  0.1232177E+00
         -4   -1    0    0    0  501 -0.00000000000E+00  0.00000000000E+00  0.23568327118E+03  0.23568669291E+03  0.12700000000E+01 0.  1.
          4   -1    0    0  502    0  0.00000000000E+00 -0.00000000000E+00 -0.28390768647E+02  0.28419159811E+02  0.12700000000E+01 0.  1.
         25    2    1    2    0    0  0.21635135472E+02 -0.72191126404E+00  0.20660406154E+03  0.24244773199E+03  0.12500825676E+03 0.  0.
    9000005    1    3    3    0    0 -0.23815608721E+02  0.49942399074E+02  0.12118843980E+03  0.13322561460E+03  0.10000000000E+01 0.  0.
    9000005    1    3    3    0    0  0.45450744193E+02 -0.50664310339E+02  0.85415621742E+02  0.10922211739E+03  0.10000000000E+01 0.  0.
         21    1    1    2  502  501 -0.21635135472E+02  0.72191126404E+00  0.68844099734E+00  0.21658120735E+02  0.00000000000E+00 0.  1.
<mgrwt>
<rscale>  1 0.12686869E+03</rscale>
<asrwt>0</asrwt>
<pdfrwt beam="2">  1        4 0.43702576E-02 0.12686869E+03</pdfrwt>
<pdfrwt beam="1">  1       -4 0.36261413E-01 0.12686869E+03</pdfrwt>
<totfact> 0.35281616E+03</totfact>
</mgrwt>
</event>
<event>
 6    4  0.5642870E-004  0.1285222E+03  0.7818608E-02  0.1229665E+00
          4   -1    0    0  502    0  0.00000000000E+00  0.00000000000E+00  0.27453713163E+03  0.27454006911E+03  0.12700000000E+01 0.  1.
         -4   -1    0    0    0  501 -0.00000000000E+00 -0.00000000000E+00 -0.22877095322E+02  0.22912319620E+02  0.12700000000E+01 0.  1.
         25    2    1    2    0    0  0.29287885316E+02 -0.58772853101E+01  0.19850335029E+03  0.23647734484E+03  0.12500252731E+03 0.  0.
    9000005    1    3    3    0    0  0.60039438795E+02 -0.45380889326E+02  0.14387140169E+03  0.16237037769E+03  0.10000000000E+01 0.  0.
    9000005    1    3    3    0    0 -0.30751553479E+02  0.39503604016E+02  0.54631948600E+02  0.74106967145E+02  0.10000000000E+01 0.  0.
         21    1    1    2  502  501 -0.29287885316E+02  0.58772853101E+01  0.53156686016E+02  0.60975043888E+02  0.00000000000E+00 0. -1.
<mgrwt>
<rscale>  1 0.12852219E+03</rscale>
<asrwt>0</asrwt>
<pdfrwt beam="1">  1        4 0.42239414E-01 0.12852219E+03</pdfrwt>
<pdfrwt beam="2">  1       -4 0.35224889E-02 0.12852219E+03</pdfrwt>
<totfact> 0.36942233E+03</totfact>
</mgrwt>
</event>
<event>
 6    4  0.5642870E-004  0.1400685E+03  0.7818608E-02  0.1213237E+00
          4   -1    0    0  502    0  0.00000000000E+00  0.00000000000E+00  0.42426645627E+02  0.42445649473E+02  0.12700000000E+01 0.  1.
         -4   -1    0    0    0  501 -0.00000000000E+00 -0.00000000000E+00 -0.32861136472E+03  0.32861381882E+03  0.12700000000E+01 0.  1.
         25    2    1    2    0    0  0.11451553567E+02  0.62149436774E+02 -0.27251201034E+03  0.30640164947E+03  0.12500193778E+03 0.  0.
    9000005    1    3    3    0    0 -0.54966804451E+02  0.10614394830E+02 -0.11011872793E+03  0.12353602393E+03  0.10000000000E+01 0.  0.
    9000005    1    3    3    0    0  0.66418358018E+02  0.51535041944E+02 -0.16239328241E+03  0.18286562554E+03  0.10000000000E+01 0.  0.
         21    1    1    2  502  501 -0.11451553567E+02 -0.62149436774E+02 -0.13672708747E+02  0.64657818823E+02  0.00000000000E+00 0.  1.
<mgrwt>
<rscale>  1 0.14006847E+03</rscale>
<asrwt>0</asrwt>
<pdfrwt beam="1">  1        4 0.65288271E-02 0.14006847E+03</pdfrwt>
<pdfrwt beam="2">  1       -4 0.50557244E-01 0.14006847E+03</pdfrwt>
<totfact> 0.97484585E+02</totfact>
</mgrwt>
</event>
<event>
 6    4  0.5642870E-004  0.1266965E+03  0.7818608E-02  0.1232442E+00
          4   -1    0    0  502    0  0.00000000000E+00  0.00000000000E+00  0.25599962141E+03  0.25600277160E+03  0.12700000000E+01 0. -1.
         -4   -1    0    0    0  501 -0.00000000000E+00 -0.00000000000E+00 -0.24475158249E+02  0.24508085836E+02  0.12700000000E+01 0. -1.
         25    2    1    2    0    0 -0.20655632890E+02 -0.75289574656E+00  0.14970660224E+03  0.19612256211E+03  0.12499908235E+03 0.  0.
    9000005    1    3    3    0    0 -0.26301899179E+02 -0.35787935722E+02  0.22816965641E+01  0.44483394462E+02  0.10000000000E+01 0.  0.
    9000005    1    3    3    0    0  0.56462662898E+01  0.35035039975E+02  0.14742490568E+03  0.15163916764E+03  0.10000000000E+01 0.  0.
         21    1    1    2  502  501  0.20655632890E+02  0.75289574656E+00  0.81817860922E+02  0.84388295325E+02  0.00000000000E+00 0. -1.
<mgrwt>
<rscale>  1 0.12669646E+03</rscale>
<asrwt>0</asrwt>
<pdfrwt beam="1">  1        4 0.39387333E-01 0.12669646E+03</pdfrwt>
<pdfrwt beam="2">  1       -4 0.37681841E-02 0.12669646E+03</pdfrwt>
<totfact> 0.37984485E+03</totfact>
</mgrwt>
</event>
<event>
 6    4  0.5642870E-004  0.1274038E+03  0.7818608E-02  0.1231360E+00
         -4   -1    0    0    0  501 -0.00000000000E+00  0.00000000000E+00  0.24578870125E+03  0.24579198230E+03  0.12700000000E+01 0. -1.
          4   -1    0    0  502    0  0.00000000000E+00 -0.00000000000E+00 -0.25291425820E+02  0.25323292045E+02  0.12700000000E+01 0. -1.
         25    2    1    2    0    0  0.24151619416E+02  0.47649448718E+01  0.20693354414E+03  0.24300868746E+03  0.12500290024E+03 0.  0.
    9000005    1    3    3    0    0  0.68497090601E+02 -0.12131692048E+01  0.17526252610E+03  0.18817884115E+03  0.10000000000E+01 0.  0.
    9000005    1    3    3    0    0 -0.44345471185E+02  0.59781140766E+01  0.31671018041E+02  0.54829846309E+02  0.10000000000E+01 0.  0.
         21    1    1    2  502  501 -0.24151619416E+02 -0.47649448718E+01  0.13563731291E+02  0.28106586890E+02  0.00000000000E+00 0. -1.
<mgrwt>
<rscale>  1 0.12740381E+03</rscale>
<asrwt>0</asrwt>
<pdfrwt beam="2">  1        4 0.38936921E-02 0.12740381E+03</pdfrwt>
<pdfrwt beam="1">  1       -4 0.37816351E-01 0.12740381E+03</pdfrwt>
<totfact> 0.39105120E+03</totfact>
</mgrwt>
</event>
<event>
 6    4  0.5642870E-004  0.1399313E+03  0.7818608E-02  0.1213421E+00
          4   -1    0    0  502    0  0.00000000000E+00  0.00000000000E+00  0.80407582951E+03  0.80407683246E+03  0.12700000000E+01 0. -1.
         -4   -1    0    0    0  501 -0.00000000000E+00 -0.00000000000E+00 -0.13028695889E+02  0.13090447531E+02  0.12700000000E+01 0. -1.
         25    2    1    2    0    0  0.42020565497E+02  0.46793019414E+02  0.48816600256E+03  0.50782556902E+03  0.12500179163E+03 0.  0.
    9000005    1    3    3    0    0  0.45350370092E+02  0.87250513945E+02  0.31665111155E+03  0.33156935127E+03  0.10000000000E+01 0.  0.
    9000005    1    3    3    0    0 -0.33298045958E+01 -0.40457494531E+02  0.17151489100E+03  0.17625621776E+03  0.10000000000E+01 0.  0.
         21    1    1    2  502  501 -0.42020565497E+02 -0.46793019414E+02  0.30288113106E+03  0.30934171097E+03  0.00000000000E+00 0.  1.
<mgrwt>
<rscale>  1 0.13993128E+03</rscale>
<asrwt>0</asrwt>
<pdfrwt beam="1">  1        4 0.12370881E+00 0.13993128E+03</pdfrwt>
<pdfrwt beam="2">  1       -4 0.20092419E-02 0.13993128E+03</pdfrwt>
<totfact> 0.86776417E+02</totfact>
</mgrwt>
</event>
<event>
 6    4  0.5642870E-004  0.1272597E+03  0.7818608E-02  0.1231579E+00
          4   -1    0    0  502    0  0.00000000000E+00  0.00000000000E+00  0.82674513915E+01  0.83644278053E+01  0.12700000000E+01 0.  1.
         -4   -1    0    0    0  501 -0.00000000000E+00 -0.00000000000E+00 -0.70578325186E+03  0.70578439449E+03  0.12700000000E+01 0.  1.
         25    2    1    2    0    0 -0.23803335384E+02  0.18283563957E+01 -0.62431952041E+03  0.63715767296E+03  0.12500037991E+03 0.  0.
    9000005    1    3    3    0    0 -0.36146628189E+01 -0.56200827598E+02 -0.17994136816E+03  0.18855104027E+03  0.10000000000E+01 0.  0.
    9000005    1    3    3    0    0 -0.20188672565E+02  0.58029183993E+02 -0.44437815225E+03  0.44860663269E+03  0.10000000000E+01 0.  0.
         21    1    1    2  502  501  0.23803335384E+02 -0.18283563957E+01 -0.73196280051E+02  0.76991149335E+02  0.00000000000E+00 0.  1.
<mgrwt>
<rscale>  1 0.12725972E+03</rscale>
<asrwt>0</asrwt>
<pdfrwt beam="1">  1        4 0.12794638E-02 0.12725972E+03</pdfrwt>
<pdfrwt beam="2">  1       -4 0.10858954E+00 0.12725972E+03</pdfrwt>
<totfact> 0.23115204E+03</totfact>
</mgrwt>
</event>
<event>
 6    4  0.5642870E-004  0.1274386E+03  0.7818608E-02  0.1231307E+00
          4   -1    0    0  502    0  0.00000000000E+00  0.00000000000E+00  0.34273540586E+03  0.34273775884E+03  0.12700000000E+01 0.  1.
         -4   -1    0    0    0  501 -0.00000000000E+00 -0.00000000000E+00 -0.17149468233E+02  0.17196428719E+02  0.12700000000E+01 0.  1.
         25    2    1    2    0    0 -0.75303447645E+01 -0.23615606574E+02  0.25397526778E+03  0.28415496215E+03  0.12500481153E+03 0.  0.
    9000005    1    3    3    0    0  0.56129143536E+02 -0.48348588006E+01  0.15552237974E+03  0.16541483372E+03  0.10000000000E+01 0.  0.
    9000005    1    3    3    0    0 -0.63659488300E+02 -0.18780747773E+02  0.98452888037E+02  0.11874012843E+03  0.10000000000E+01 0.  0.
         21    1    1    2  502  501  0.75303447645E+01  0.23615606574E+02  0.71610669855E+02  0.75779225406E+02  0.00000000000E+00 0.  1.
<mgrwt>
<rscale>  1 0.12743864E+03</rscale>
<asrwt>0</asrwt>
<pdfrwt beam="1">  1        4 0.52732316E-01 0.12743864E+03</pdfrwt>
<pdfrwt beam="2">  1       -4 0.26421731E-02 0.12743864E+03</pdfrwt>
<totfact> 0.36974719E+03</totfact>
</mgrwt>
</event>
<event>
 6    4  0.5642870E-004  0.1293907E+03  0.7818608E-02  0.1228363E+00
         -4   -1    0    0    0  501 -0.00000000000E+00  0.00000000000E+00  0.69194378413E+03  0.69194494962E+03  0.12700000000E+01 0.  1.
          4   -1    0    0  502    0  0.00000000000E+00 -0.00000000000E+00 -0.95377829740E+01  0.96219646673E+01  0.12700000000E+01 0.  1.
         25    2    1    2    0    0 -0.11956973526E+02  0.31211142964E+02  0.53678336318E+03  0.55215788727E+03  0.12499939531E+03 0.  0.
    9000005    1    3    3    0    0  0.97413196040E+01 -0.26408588197E+02  0.28187190126E+02  0.39847515925E+02  0.10000000000E+01 0.  0.
    9000005    1    3    3    0    0 -0.21698293130E+02  0.57619731161E+02  0.50859617306E+03  0.51231037135E+03  0.10000000000E+01 0.  0.
         21    1    1    2  502  501  0.11956973526E+02 -0.31211142964E+02  0.14562263797E+03  0.14940902701E+03  0.00000000000E+00 0. -1.
<mgrwt>
<rscale>  1 0.12939070E+03</rscale>
<asrwt>0</asrwt>
<pdfrwt beam="2">  1        4 0.14739166E-02 0.12939070E+03</pdfrwt>
<pdfrwt beam="1">  1       -4 0.10645944E+00 0.12939070E+03</pdfrwt>
<totfact> 0.19607382E+03</totfact>
</mgrwt>
</event>
<event>
 6    4  0.5642870E-004  0.1288978E+03  0.7818608E-02  0.1229100E+00
          4   -1    0    0  502    0  0.00000000000E+00  0.00000000000E+00  0.34883931953E+02  0.34907042391E+02  0.12700000000E+01 0. -1.
         -4   -1    0    0    0  501 -0.00000000000E+00 -0.00000000000E+00 -0.18400889720E+03  0.18401327981E+03  0.12700000000E+01 0. -1.
         25    2    1    2    0    0  0.54287588455E+01 -0.30901063509E+02 -0.11947619033E+03  0.17575323981E+03  0.12502117460E+03 0.  0.
    9000005    1    3    3    0    0  0.60260244732E+02 -0.39091954107E+02 -0.53494298272E+02  0.89566276682E+02  0.10000000000E+01 0.  0.
    9000005    1    3    3    0    0 -0.54831485887E+02  0.81908905979E+01 -0.65981892061E+02  0.86186963129E+02  0.10000000000E+01 0.  0.
         21    1    1    2  502  501 -0.54287588455E+01  0.30901063509E+02 -0.29648774909E+02  0.43167082391E+02  0.00000000000E+00 0. -1.
<mgrwt>
<rscale>  1 0.12889779E+03</rscale>
<asrwt>0</asrwt>
<pdfrwt beam="1">  1        4 0.53688737E-02 0.12889779E+03</pdfrwt>
<pdfrwt beam="2">  1       -4 0.28311175E-01 0.12889779E+03</pdfrwt>
<totfact> 0.40803630E+03</totfact>
</mgrwt>
</event>
<event>
 6    4  0.5642870E-004  0.1307201E+03  0.7818608E-02  0.1226391E+00
         -4   -1    0    0    0  501 -0.00000000000E+00  0.00000000000E+00  0.77334819928E+01  0.78370685675E+01  0.12700000000E+01 0.  1.
          4   -1    0    0  502    0  0.00000000000E+00 -0.00000000000E+00 -0.16685028829E+04  0.16685033662E+04  0.12700000000E+01 0.  1.
         25    2    1    2    0    0  0.68216207549E+01 -0.37628855741E+02 -0.56583143591E+03  0.58073484314E+03  0.12500111551E+03 0.  0.
    9000005    1    3    3    0    0 -0.26570844633E+02  0.16254057318E+02 -0.42673418344E+03  0.42787062002E+03  0.10000000000E+01 0.  0.
    9000005    1    3    3    0    0  0.33392465387E+02 -0.53882913059E+02 -0.13909725247E+03  0.15286422312E+03  0.10000000000E+01 0.  0.
         21    1    1    2  502  501 -0.68216207549E+01  0.37628855741E+02 -0.10949379650E+04  0.10956055916E+04  0.00000000000E+00 0.  1.
<mgrwt>
<rscale>  1 0.13072010E+03</rscale>
<asrwt>0</asrwt>
<pdfrwt beam="2">  1        4 0.25670047E+00 0.13072010E+03</pdfrwt>
<pdfrwt beam="1">  1       -4 0.11977732E-02 0.13072010E+03</pdfrwt>
<totfact> 0.24959870E+02</totfact>
</mgrwt>
</event>
<event>
 6    4  0.5642870E-004  0.1266422E+03  0.7818608E-02  0.1232525E+00
         -4   -1    0    0    0  501 -0.00000000000E+00  0.00000000000E+00  0.43766573993E+03  0.43766758254E+03  0.12700000000E+01 0.  1.
          4   -1    0    0  502    0  0.00000000000E+00 -0.00000000000E+00 -0.12398438689E+02  0.12463313441E+02  0.12700000000E+01 0.  1.
         25    2    1    2    0    0  0.19202017010E+02 -0.66742894264E+01  0.37886725971E+03  0.39947295040E+03  0.12499989610E+03 0.  0.
    9000005    1    3    3    0    0 -0.14713582012E+02  0.52219866679E+02  0.22159278822E+03  0.22813979873E+03  0.10000000000E+01 0.  0.
    9000005    1    3    3    0    0  0.33915599022E+02 -0.58894156105E+02  0.15727447149E+03  0.17133315168E+03  0.10000000000E+01 0.  0.
         21    1    1    2  502  501 -0.19202017010E+02  0.66742894264E+01  0.46400041526E+02  0.50657945578E+02  0.00000000000E+00 0.  1.
<mgrwt>
<rscale>  1 0.12664216E+03</rscale>
<asrwt>0</asrwt>
<pdfrwt beam="2">  1        4 0.19125841E-02 0.12664216E+03</pdfrwt>
<pdfrwt beam="1">  1       -4 0.67338325E-01 0.12664216E+03</pdfrwt>
<totfact> 0.36449137E+03</totfact>
</mgrwt>
</event>
<event>
 6    4  0.5642870E-004  0.1269711E+03  0.7818608E-02  0.1232021E+00
         -4   -1    0    0    0  501 -0.00000000000E+00  0.00000000000E+00  0.58024650039E+02  0.58038546778E+02  0.12700000000E+01 0. -1.
          4   -1    0    0  502    0  0.00000000000E+00 -0.00000000000E+00 -0.10346338337E+03  0.10347117762E+03  0.12700000000E+01 0. -1.
         25    2    1    2    0    0  0.22311205036E+02 -0.14331408629E+01 -0.21542735080E+02  0.12878568896E+03  0.12498728129E+03 0.  0.
    9000005    1    3    3    0    0  0.11630676241E+02  0.59797069832E+02  0.51314444734E+01  0.61141589059E+02  0.10000000000E+01 0.  0.
    9000005    1    3    3    0    0  0.10680528795E+02 -0.61230210695E+02 -0.26674179553E+02  0.67644099904E+02  0.10000000000E+01 0.  0.
         21    1    1    2  502  501 -0.22311205036E+02  0.14331408629E+01 -0.23895998254E+02  0.32724035439E+02  0.00000000000E+00 0. -1.
<mgrwt>
<rscale>  1 0.12697112E+03</rscale>
<asrwt>0</asrwt>
<pdfrwt beam="2">  1        4 0.15919112E-01 0.12697112E+03</pdfrwt>
<pdfrwt beam="1">  1       -4 0.89285378E-02 0.12697112E+03</pdfrwt>
<totfact> 0.50082445E+03</totfact>
</mgrwt>
</event>
<event>
 6    4  0.5642870E-004  0.1271177E+03  0.7818608E-02  0.1231796E+00
          4   -1    0    0  502    0  0.00000000000E+00  0.00000000000E+00  0.14701769529E+03  0.14702318058E+03  0.12700000000E+01 0.  1.
         -4   -1    0    0    0  501 -0.00000000000E+00 -0.00000000000E+00 -0.40173105419E+02  0.40193174781E+02  0.12700000000E+01 0.  1.
         25    2    1    2    0    0  0.16513102114E+02  0.16178046472E+02  0.74115166250E+02  0.14714608085E+03  0.12499799803E+03 0.  0.
    9000005    1    3    3    0    0  0.71066043680E+02  0.38951082399E+01  0.42437625656E+02  0.82870419957E+02  0.10000000000E+01 0.  0.
    9000005    1    3    3    0    0 -0.54552941565E+02  0.12282938232E+02  0.31677540595E+02  0.64275660893E+02  0.10000000000E+01 0.  0.
         21    1    1    2  502  501 -0.16513102114E+02 -0.16178046472E+02  0.32729423624E+02  0.40070274516E+02  0.00000000000E+00 0. -1.
<mgrwt>
<rscale>  1 0.12711771E+03</rscale>
<asrwt>0</asrwt>
<pdfrwt beam="1">  1        4 0.22620073E-01 0.12711771E+03</pdfrwt>
<pdfrwt beam="2">  1       -4 0.61824435E-02 0.12711771E+03</pdfrwt>
<totfact> 0.48976609E+03</totfact>
</mgrwt>
</event>
<event>
 6    4  0.5642870E-004  0.1288434E+03  0.7818608E-02  0.1229182E+00
         -4   -1    0    0    0  501 -0.00000000000E+00  0.00000000000E+00  0.80911673316E+01  0.81902313025E+01  0.12700000000E+01 0.  1.
          4   -1    0    0  502    0  0.00000000000E+00 -0.00000000000E+00 -0.78998800893E+03  0.78998902977E+03  0.12700000000E+01 0.  1.
         25    2    1    2    0    0  0.27677505493E+02 -0.14475793469E+02 -0.60838868953E+03  0.62188214895E+03  0.12500006692E+03 0.  0.
    9000005    1    3    3    0    0 -0.64204366143E+01 -0.29675060029E+02 -0.55968299379E+03  0.56050681061E+03  0.10000000000E+01 0.  0.
    9000005    1    3    3    0    0  0.34097942108E+02  0.15199266560E+02 -0.48705695737E+02  0.61375338346E+02  0.10000000000E+01 0.  0.
         21    1    1    2  502  501 -0.27677505493E+02  0.14475793469E+02 -0.17350815207E+03  0.17629711212E+03  0.00000000000E+00 0.  1.
<mgrwt>
<rscale>  1 0.12884335E+03</rscale>
<asrwt>0</asrwt>
<pdfrwt beam="2">  1        4 0.12154426E+00 0.12884335E+03</pdfrwt>
<pdfrwt beam="1">  1       -4 0.12524944E-02 0.12884335E+03</pdfrwt>
<totfact> 0.18321258E+03</totfact>
</mgrwt>
</event>
<event>
 6    4  0.5642870E-004  0.1291353E+03  0.7818608E-02  0.1228744E+00
         -4   -1    0    0    0  501 -0.00000000000E+00  0.00000000000E+00  0.64640172772E+02  0.64652647556E+02  0.12700000000E+01 0.  1.
          4   -1    0    0  502    0  0.00000000000E+00 -0.00000000000E+00 -0.11834989596E+03  0.11835670988E+03  0.12700000000E+01 0.  1.
         25    2    1    2    0    0  0.19544468322E+02  0.25884494357E+02 -0.11314402449E+02  0.12962999335E+03  0.12499570466E+03 0.  0.
    9000005    1    3    3    0    0 -0.42271745592E+02  0.91742267026E+01 -0.40486950645E+02  0.59255886489E+02  0.10000000000E+01 0.  0.
    9000005    1    3    3    0    0  0.61816213914E+02  0.16710267654E+02  0.29172548197E+02  0.70374106858E+02  0.10000000000E+01 0.  0.
         21    1    1    2  502  501 -0.19544468322E+02 -0.25884494357E+02 -0.42395320740E+02  0.53379364091E+02  0.00000000000E+00 0.  1.
<mgrwt>
<rscale>  1 0.12913528E+03</rscale>
<asrwt>0</asrwt>
<pdfrwt beam="2">  1        4 0.18209160E-01 0.12913528E+03</pdfrwt>
<pdfrwt beam="1">  1       -4 0.99461258E-02 0.12913528E+03</pdfrwt>
<totfact> 0.33105903E+03</totfact>
</mgrwt>
</event>
<event>
 6    4  0.5642870E-004  0.1277753E+03  0.7818608E-02  0.1230795E+00
         -4   -1    0    0    0  501 -0.00000000000E+00  0.00000000000E+00  0.15854496727E+02  0.15905281088E+02  0.12700000000E+01 0. -1.
          4   -1    0    0  502    0  0.00000000000E+00 -0.00000000000E+00 -0.53995785432E+03  0.53995934786E+03  0.12700000000E+01 0. -1.
         25    2    1    2    0    0  0.13580599121E+02  0.22737648841E+02 -0.25265511631E+03  0.28312742752E+03  0.12500039627E+03 0.  0.
    9000005    1    3    3    0    0  0.52213805068E+02 -0.28181968958E+02 -0.15920671023E+03  0.16990668438E+03  0.10000000000E+01 0.  0.
    9000005    1    3    3    0    0 -0.38633205946E+02  0.50919617799E+02 -0.93448406073E+02  0.11322074314E+03  0.10000000000E+01 0.  0.
         21    1    1    2  502  501 -0.13580599121E+02 -0.22737648841E+02 -0.27144824129E+03  0.27273720143E+03  0.00000000000E+00 0. -1.
<mgrwt>
<rscale>  1 0.12777532E+03</rscale>
<asrwt>0</asrwt>
<pdfrwt beam="2">  1        4 0.83074446E-01 0.12777532E+03</pdfrwt>
<pdfrwt beam="1">  1       -4 0.24431751E-02 0.12777532E+03</pdfrwt>
<totfact> 0.15834806E+03</totfact>
</mgrwt>
</event>
<event>
 6    4  0.5642870E-004  0.1300846E+03  0.7818608E-02  0.1227330E+00
         -4   -1    0    0    0  501 -0.00000000000E+00  0.00000000000E+00  0.11764849727E+03  0.11765535181E+03  0.12700000000E+01 0.  1.
          4   -1    0    0  502    0  0.00000000000E+00 -0.00000000000E+00 -0.64166505150E+02  0.64179072003E+02  0.12700000000E+01 0.  1.
         25    2    1    2    0    0  0.16257727365E+02  0.32138869642E+02  0.63063336771E+02  0.14456482754E+03  0.12499913710E+03 0.  0.
    9000005    1    3    3    0    0 -0.18613390635E+02 -0.18984155823E+02  0.76704669396E+02  0.81187824151E+02  0.10000000000E+01 0.  0.
    9000005    1    3    3    0    0  0.34871118000E+02  0.51123025464E+02 -0.13641332625E+02  0.63377003392E+02  0.10000000000E+01 0.  0.
         21    1    1    2  502  501 -0.16257727365E+02 -0.32138869642E+02 -0.95813446503E+01  0.37269596271E+02  0.00000000000E+00 0. -1.
<mgrwt>
<rscale>  1 0.13008461E+03</rscale>
<asrwt>0</asrwt>
<pdfrwt beam="2">  1        4 0.98732640E-02 0.13008461E+03</pdfrwt>
<pdfrwt beam="1">  1       -4 0.18101263E-01 0.13008461E+03</pdfrwt>
<totfact> 0.33934343E+03</totfact>
</mgrwt>
</event>
<event>
 6    4  0.5642870E-004  0.1268871E+03  0.7818608E-02  0.1232149E+00
          4   -1    0    0  502    0  0.00000000000E+00  0.00000000000E+00  0.23467445225E+02  0.23501784728E+02  0.12700000000E+01 0.  1.
         -4   -1    0    0    0  501 -0.00000000000E+00 -0.00000000000E+00 -0.24855821647E+03  0.24856146096E+03  0.12700000000E+01 0.  1.
         25    2    1    2    0    0  0.15333255823E+02 -0.15552833650E+02 -0.21053933414E+03  0.24581931895E+03  0.12499330775E+03 0.  0.
    9000005    1    3    3    0    0 -0.11586678538E+02  0.23546978843E+02 -0.19365137420E+03  0.19542406725E+03  0.10000000000E+01 0.  0.
    9000005    1    3    3    0    0  0.26919934361E+02 -0.39099812493E+02 -0.16887959938E+02  0.50395251700E+02  0.10000000000E+01 0.  0.
         21    1    1    2  502  501 -0.15333255823E+02  0.15552833650E+02 -0.14551437109E+02  0.26243926738E+02  0.00000000000E+00 0. -1.
<mgrwt>
<rscale>  1 0.12688706E+03</rscale>
<asrwt>0</asrwt>
<pdfrwt beam="1">  1        4 0.36132674E-02 0.12688706E+03</pdfrwt>
<pdfrwt beam="2">  1       -4 0.38242615E-01 0.12688706E+03</pdfrwt>
<totfact> 0.43015139E+03</totfact>
</mgrwt>
</event>
<event>
 6    4  0.5642870E-004  0.1269253E+03  0.7818608E-02  0.1232091E+00
          4   -1    0    0  502    0  0.00000000000E+00  0.00000000000E+00  0.10422592149E+03  0.10423365872E+03  0.12700000000E+01 0.  1.
         -4   -1    0    0    0  501 -0.00000000000E+00 -0.00000000000E+00 -0.55679268647E+02  0.55693750611E+02  0.12700000000E+01 0.  1.
         25    2    1    2    0    0  0.18825625654E+02  0.11434232235E+02  0.28370656567E+02  0.13005741312E+03  0.12499956282E+03 0.  0.
    9000005    1    3    3    0    0 -0.50863590812E+02  0.19550226795E+02  0.24581933773E+02  0.59787855841E+02  0.10000000000E+01 0.  0.
    9000005    1    3    3    0    0  0.69689216466E+02 -0.81159945600E+01  0.37887227941E+01  0.70269557276E+02  0.10000000000E+01 0.  0.
         21    1    1    2  502  501 -0.18825625654E+02 -0.11434232235E+02  0.20175996272E+02  0.29869996211E+02  0.00000000000E+00 0.  1.
<mgrwt>
<rscale>  1 0.12692532E+03</rscale>
<asrwt>0</asrwt>
<pdfrwt beam="1">  1        4 0.16036466E-01 0.12692532E+03</pdfrwt>
<pdfrwt beam="2">  1       -4 0.85677505E-02 0.12692532E+03</pdfrwt>
<totfact> 0.52951201E+03</totfact>
</mgrwt>
</event>
<event>
 6    4  0.5642870E-004  0.1270093E+03  0.7818608E-02  0.1231962E+00
         -4   -1    0    0    0  501 -0.00000000000E+00  0.00000000000E+00  0.24667805340E+02  0.24700476114E+02  0.12700000000E+01 0. -1.
          4   -1    0    0  502    0  0.00000000000E+00 -0.00000000000E+00 -0.24496712431E+03  0.24497041636E+03  0.12700000000E+01 0. -1.
         25    2    1    2    0    0  0.18936797422E+02  0.12149682854E+02 -0.15377337047E+03  0.19944327032E+03  0.12500060608E+03 0.  0.
    9000005    1    3    3    0    0 -0.18480589717E+02 -0.97287317806E+01  0.14649101464E+02  0.25529915629E+02  0.10000000000E+01 0.  0.
    9000005    1    3    3    0    0  0.37417387138E+02  0.21878414634E+02 -0.16842247194E+03  0.17391335469E+03  0.10000000000E+01 0.  0.
         21    1    1    2  502  501 -0.18936797422E+02 -0.12149682854E+02 -0.66525948496E+02  0.70227622154E+02  0.00000000000E+00 0. -1.
<mgrwt>
<rscale>  1 0.12700932E+03</rscale>
<asrwt>0</asrwt>
<pdfrwt beam="2">  1        4 0.37690015E-01 0.12700932E+03</pdfrwt>
<pdfrwt beam="1">  1       -4 0.37978135E-02 0.12700932E+03</pdfrwt>
<totfact> 0.40913946E+03</totfact>
</mgrwt>
</event>
<event>
 6    4  0.5642870E-004  0.1268496E+03  0.7818608E-02  0.1232207E+00
          4   -1    0    0  502    0  0.00000000000E+00  0.00000000000E+00  0.25650673861E+02  0.25682094337E+02  0.12700000000E+01 0.  1.
         -4   -1    0    0    0  501 -0.00000000000E+00 -0.00000000000E+00 -0.32173670749E+03  0.32173921403E+03  0.12700000000E+01 0.  1.
         25    2    1    2    0    0 -0.12911013220E+02 -0.17298498088E+02 -0.29978808859E+03  0.32552068031E+03  0.12499953180E+03 0.  0.
    9000005    1    3    3    0    0 -0.14631834222E+02  0.53628920412E+02 -0.14282214526E+03  0.15326224863E+03  0.10000000000E+01 0.  0.
    9000005    1    3    3    0    0  0.17208210021E+01 -0.70927418500E+02 -0.15696594332E+03  0.17225843168E+03  0.10000000000E+01 0.  0.
         21    1    1    2  502  501  0.12911013220E+02  0.17298498088E+02  0.37020549631E+01  0.21900628059E+02  0.00000000000E+00 0.  1.
<mgrwt>
<rscale>  1 0.12684958E+03</rscale>
<asrwt>0</asrwt>
<pdfrwt beam="1">  1        4 0.39488675E-02 0.12684958E+03</pdfrwt>
<pdfrwt beam="2">  1       -4 0.49500562E-01 0.12684958E+03</pdfrwt>
<totfact> 0.22362963E+03</totfact>
</mgrwt>
</event>
<event>
 6    4  0.5642870E-004  0.6262237E+03  0.7818608E-02  0.9852446E-01
         -4   -1    0    0    0  501 -0.00000000000E+00  0.00000000000E+00  0.40373486049E+03  0.40373685795E+03  0.12700000000E+01 0. -1.
          4   -1    0    0  502    0  0.00000000000E+00 -0.00000000000E+00 -0.10231000253E+04  0.10231008136E+04  0.12700000000E+01 0. -1.
         25    2    1    2    0    0 -0.45690180448E+03  0.40960008827E+03 -0.12437505974E+03  0.63845534334E+03  0.12499831483E+03 0.  0.
    9000005    1    3    3    0    0 -0.22052123099E+03  0.20431709914E+03 -0.12447596453E+03  0.32537725192E+03  0.10000000000E+01 0.  0.
    9000005    1    3    3    0    0 -0.23638057350E+03  0.20528298912E+03  0.10090478927E+00  0.31307809143E+03  0.10000000000E+01 0.  0.
         21    1    1    2  502  501  0.45690180448E+03 -0.40960008827E+03 -0.49499010511E+03  0.78838232819E+03  0.00000000000E+00 0. -1.
<mgrwt>
<rscale>  1 0.62622366E+03</rscale>
<asrwt>0</asrwt>
<pdfrwt beam="2">  1        4 0.15740022E+00 0.62622366E+03</pdfrwt>
<pdfrwt beam="1">  1       -4 0.62113270E-01 0.62622366E+03</pdfrwt>
<totfact> 0.12509527E+00</totfact>
</mgrwt>
</event>
<event>
 6    4  0.5642870E-004  0.1507223E+03  0.7818608E-02  0.1199588E+00
         -4   -1    0    0    0  501 -0.00000000000E+00  0.00000000000E+00  0.35641313189E+02  0.35663932843E+02  0.12700000000E+01 0. -1.
          4   -1    0    0  502    0  0.00000000000E+00 -0.00000000000E+00 -0.39766996680E+03  0.39767199474E+03  0.12700000000E+01 0. -1.
         25    2    1    2    0    0 -0.43696362606E+02 -0.71990023353E+02 -0.26494801560E+03  0.30481905769E+03  0.12500108558E+03 0.  0.
    9000005    1    3    3    0    0  0.41678751558E+02 -0.46338297117E+01 -0.76199207846E+02  0.86982239483E+02  0.10000000000E+01 0.  0.
    9000005    1    3    3    0    0 -0.85375114164E+02 -0.67356193641E+02 -0.18874880775E+03  0.21783681821E+03  0.10000000000E+01 0.  0.
         21    1    1    2  502  501  0.43696362606E+02  0.71990023353E+02 -0.97080638018E+02  0.12851686989E+03  0.00000000000E+00 0. -1.
<mgrwt>
<rscale>  1 0.15072228E+03</rscale>
<asrwt>0</asrwt>
<pdfrwt beam="2">  1        4 0.61181888E-01 0.15072228E+03</pdfrwt>
<pdfrwt beam="1">  1       -4 0.54851752E-02 0.15072228E+03</pdfrwt>
<totfact> 0.88404630E+02</totfact>
</mgrwt>
</event>
<event>
 6    4  0.5642870E-004  0.1298256E+03  0.7818608E-02  0.1227715E+00
         -4   -1    0    0    0  501 -0.00000000000E+00  0.00000000000E+00  0.18614925515E+02  0.18658197982E+02  0.12700000000E+01 0.  1.
          4   -1    0    0  502    0  0.00000000000E+00 -0.00000000000E+00 -0.40997635479E+03  0.40997832185E+03  0.12700000000E+01 0.  1.
         25    2    1    2    0    0 -0.18287736883E+02 -0.29938711568E+02 -0.23588927611E+03  0.26925534723E+03  0.12499569455E+03 0.  0.
    9000005    1    3    3    0    0  0.30057595618E+02 -0.19680999754E+02 -0.21076047271E+03  0.21380312828E+03  0.10000000000E+01 0.  0.
    9000005    1    3    3    0    0 -0.48345332501E+02 -0.10257711814E+02 -0.25128803407E+02  0.55452218955E+02  0.10000000000E+01 0.  0.
         21    1    1    2  502  501  0.18287736883E+02  0.29938711568E+02 -0.15547215316E+03  0.15938117260E+03  0.00000000000E+00 0.  1.
<mgrwt>
<rscale>  1 0.12982562E+03</rscale>
<asrwt>0</asrwt>
<pdfrwt beam="2">  1        4 0.63076758E-01 0.12982562E+03</pdfrwt>
<pdfrwt beam="1">  1       -4 0.28673150E-02 0.12982562E+03</pdfrwt>
<totfact> 0.22511163E+03</totfact>
</mgrwt>
</event>
<event>
 6    4  0.5642870E-004  0.1334533E+03  0.7818608E-02  0.1222420E+00
         -4   -1    0    0    0  501 -0.00000000000E+00  0.00000000000E+00  0.41095614198E+02  0.41115233263E+02  0.12700000000E+01 0.  1.
          4   -1    0    0  502    0  0.00000000000E+00 -0.00000000000E+00 -0.23404977663E+03  0.23405322224E+03  0.12700000000E+01 0.  1.
         25    2    1    2    0    0 -0.43468726884E+02 -0.17167292736E+02 -0.18444933731E+03  0.22766500082E+03  0.12500219361E+03 0.  0.
    9000005    1    3    3    0    0 -0.14979278880E+02  0.32251870845E+02 -0.16280351500E+03  0.16664497132E+03  0.10000000000E+01 0.  0.
    9000005    1    3    3    0    0 -0.28489448004E+02 -0.49419163581E+02 -0.21645822302E+02  0.61020029497E+02  0.10000000000E+01 0.  0.
         21    1    1    2  502  501  0.43468726884E+02  0.17167292736E+02 -0.85048251290E+01  0.47503454688E+02  0.00000000000E+00 0. -1.
<mgrwt>
<rscale>  1 0.13345334E+03</rscale>
<asrwt>0</asrwt>
<pdfrwt beam="2">  1        4 0.36009431E-01 0.13345334E+03</pdfrwt>
<pdfrwt beam="1">  1       -4 0.63241765E-02 0.13345334E+03</pdfrwt>
<totfact> 0.19953733E+03</totfact>
</mgrwt>
</event>
<event>
 6    4  0.5642870E-004  0.1267825E+03  0.7818608E-02  0.1232309E+00
         -4   -1    0    0    0  501 -0.00000000000E+00  0.00000000000E+00  0.41331797511E+02  0.41351304520E+02  0.12700000000E+01 0.  1.
          4   -1    0    0  502    0  0.00000000000E+00 -0.00000000000E+00 -0.13265304873E+03  0.13265912799E+03  0.12700000000E+01 0.  1.
         25    2    1    2    0    0  0.98339891574E+01 -0.18768355307E+02 -0.80929047649E+02  0.15041050881E+03  0.12499940761E+03 0.  0.
    9000005    1    3    3    0    0 -0.31582983184E+02  0.31735025383E+02 -0.71562688836E+02  0.84420466099E+02  0.10000000000E+01 0.  0.
    9000005    1    3    3    0    0  0.41416972341E+02 -0.50503380690E+02 -0.93663588127E+01  0.65990042707E+02  0.10000000000E+01 0.  0.
         21    1    1    2  502  501 -0.98339891574E+01  0.18768355307E+02 -0.10392203575E+02  0.23599923703E+02  0.00000000000E+00 0. -1.
<mgrwt>
<rscale>  1 0.12678253E+03</rscale>
<asrwt>0</asrwt>
<pdfrwt beam="2">  1        4 0.20410129E-01 0.12678253E+03</pdfrwt>
<pdfrwt beam="1">  1       -4 0.63607063E-02 0.12678253E+03</pdfrwt>
<totfact> 0.56294217E+03</totfact>
</mgrwt>
</event>
<event>
 6    4  0.5642870E-004  0.1269915E+03  0.7818608E-02  0.1231989E+00
          4   -1    0    0  502    0  0.00000000000E+00  0.00000000000E+00  0.84735245026E+02  0.84744761783E+02  0.12700000000E+01 0.  1.
         -4   -1    0    0    0  501 -0.00000000000E+00 -0.00000000000E+00 -0.70743051516E+02  0.70754450304E+02  0.12700000000E+01 0.  1.
         25    2    1    2    0    0  0.22151724603E+02  0.35021448286E+01 -0.35273845755E+01  0.12704047815E+03  0.12499550682E+03 0.  0.
    9000005    1    3    3    0    0 -0.18805637450E+02 -0.25988796865E+02 -0.49347547381E+02  0.58866374060E+02  0.10000000000E+01 0.  0.
    9000005    1    3    3    0    0  0.40957362053E+02  0.29490941694E+02  0.45820162805E+02  0.68174104086E+02  0.10000000000E+01 0.  0.
         21    1    1    2  502  501 -0.22151724603E+02 -0.35021448286E+01  0.17519578085E+02  0.28458733942E+02  0.00000000000E+00 0.  1.
<mgrwt>
<rscale>  1 0.12699150E+03</rscale>
<asrwt>0</asrwt>
<pdfrwt beam="1">  1        4 0.13037800E-01 0.12699150E+03</pdfrwt>
<pdfrwt beam="2">  1       -4 0.10885155E-01 0.12699150E+03</pdfrwt>
<totfact> 0.50779750E+03</totfact>
</mgrwt>
</event>
<event>
 6    4  0.5642870E-004  0.1314851E+03  0.7818608E-02  0.1225269E+00
         -4   -1    0    0    0  501 -0.00000000000E+00  0.00000000000E+00  0.24675696180E+02  0.24708356521E+02  0.12700000000E+01 0. -1.
          4   -1    0    0  502    0  0.00000000000E+00 -0.00000000000E+00 -0.59676514644E+03  0.59676649781E+03  0.12700000000E+01 0. -1.
         25    2    1    2    0    0 -0.22261735252E+02  0.34172582751E+02 -0.15876152686E+03  0.20613966134E+03  0.12499994920E+03 0.  0.
    9000005    1    3    3    0    0 -0.61051435771E+02  0.44843932314E+02 -0.51574773992E+02  0.91647222476E+02  0.10000000000E+01 0.  0.
    9000005    1    3    3    0    0  0.38789700519E+02 -0.10671349563E+02 -0.10718675286E+03  0.11449243887E+03  0.10000000000E+01 0.  0.
         21    1    1    2  502  501  0.22261735252E+02 -0.34172582751E+02 -0.41332792340E+03  0.41533519299E+03  0.00000000000E+00 0. -1.
<mgrwt>
<rscale>  1 0.13148512E+03</rscale>
<asrwt>0</asrwt>
<pdfrwt beam="2">  1        4 0.91812628E-01 0.13148512E+03</pdfrwt>
<pdfrwt beam="1">  1       -4 0.37988777E-02 0.13148512E+03</pdfrwt>
<totfact> 0.63760511E+02</totfact>
</mgrwt>
</event>
<event>
 6    4  0.5642870E-004  0.1276261E+03  0.7818608E-02  0.1231021E+00
          4   -1    0    0  502    0  0.00000000000E+00  0.00000000000E+00  0.23731334287E+02  0.23765292488E+02  0.12700000000E+01 0.  1.
         -4   -1    0    0    0  501 -0.00000000000E+00 -0.00000000000E+00 -0.36038765677E+03  0.36038989449E+03  0.12700000000E+01 0.  1.
         25    2    1    2    0    0 -0.97894432307E+01  0.23816711329E+02 -0.33484335380E+03  0.35834131875E+03  0.12500144080E+03 0.  0.
    9000005    1    3    3    0    0  0.43938445625E+02  0.35713788598E+02 -0.25599239146E+03  0.26218155195E+03  0.10000000000E+01 0.  0.
    9000005    1    3    3    0    0 -0.53727888856E+02 -0.11897077270E+02 -0.78850962346E+02  0.96159766802E+02  0.10000000000E+01 0.  0.
         21    1    1    2  502  501  0.97894432307E+01 -0.23816711329E+02 -0.18129686765E+01  0.25813868224E+02  0.00000000000E+00 0. -1.
<mgrwt>
<rscale>  1 0.12762613E+03</rscale>
<asrwt>0</asrwt>
<pdfrwt beam="1">  1        4 0.36537591E-02 0.12762613E+03</pdfrwt>
<pdfrwt beam="2">  1       -4 0.55447035E-01 0.12762613E+03</pdfrwt>
<totfact> 0.20068834E+03</totfact>
</mgrwt>
</event>
<event>
 6    4  0.5642870E-004  0.1293169E+03  0.7818608E-02  0.1228473E+00
          4   -1    0    0  502    0  0.00000000000E+00  0.00000000000E+00  0.27531528149E+03  0.27531821066E+03  0.12700000000E+01 0. -1.
         -4   -1    0    0    0  501 -0.00000000000E+00 -0.00000000000E+00 -0.34630173471E+02  0.34653453141E+02  0.12700000000E+01 0. -1.
         25    2    1    2    0    0  0.16704872437E+02 -0.28560892859E+02  0.94700254302E+02  0.16028413968E+03  0.12501235900E+03 0.  0.
    9000005    1    3    3    0    0  0.25573706570E+02  0.46610408074E+02  0.45657368151E+02  0.70086659751E+02  0.10000000000E+01 0.  0.
    9000005    1    3    3    0    0 -0.88688341335E+01 -0.75171300933E+02  0.49042886151E+02  0.90197479926E+02  0.10000000000E+01 0.  0.
         21    1    1    2  502  501 -0.16704872437E+02  0.28560892859E+02  0.14598485372E+03  0.14968752413E+03  0.00000000000E+00 0.  1.
<mgrwt>
<rscale>  1 0.12931693E+03</rscale>
<asrwt>0</asrwt>
<pdfrwt beam="1">  1        4 0.42358215E-01 0.12931693E+03</pdfrwt>
<pdfrwt beam="2">  1       -4 0.53297348E-02 0.12931693E+03</pdfrwt>
<totfact> 0.19016247E+03</totfact>
</mgrwt>
</event>
<event>
 6    4  0.5642870E-004  0.1387388E+03  0.7818608E-02  0.1215036E+00
         -4   -1    0    0    0  501 -0.00000000000E+00  0.00000000000E+00  0.32295440091E+03  0.32295689801E+03  0.12700000000E+01 0.  1.
          4   -1    0    0  502    0  0.00000000000E+00 -0.00000000000E+00 -0.90591148880E+02  0.90600050526E+02  0.12700000000E+01 0.  1.
         25    2    1    2    0    0  0.57379281090E+02 -0.18191821620E+02  0.29542353905E+03  0.32637940515E+03  0.12500049763E+03 0.  0.
    9000005    1    3    3    0    0 -0.26718828757E+02 -0.27703507694E+02  0.33216544825E+02  0.50849965573E+02  0.10000000000E+01 0.  0.
    9000005    1    3    3    0    0  0.84098109847E+02  0.95116860735E+01  0.26220699422E+03  0.27552943957E+03  0.10000000000E+01 0.  0.
         21    1    1    2  502  501 -0.57379281090E+02  0.18191821620E+02 -0.63060287015E+02  0.87177543385E+02  0.00000000000E+00 0.  1.
<mgrwt>
<rscale>  1 0.13873878E+03</rscale>
<asrwt>0</asrwt>
<pdfrwt beam="2">  1        4 0.13937977E-01 0.13873878E+03</pdfrwt>
<pdfrwt beam="1">  1       -4 0.49686170E-01 0.13873878E+03</pdfrwt>
<totfact> 0.28168615E+02</totfact>
</mgrwt>
</event>
<event>
 6    4  0.5642870E-004  0.1287773E+03  0.7818608E-02  0.1229281E+00
          4   -1    0    0  502    0  0.00000000000E+00  0.00000000000E+00  0.16321265703E+03  0.16321759805E+03  0.12700000000E+01 0.  1.
         -4   -1    0    0    0  501 -0.00000000000E+00 -0.00000000000E+00 -0.46180709153E+02  0.46198168772E+02  0.12700000000E+01 0.  1.
         25    2    1    2    0    0 -0.20767816888E+02 -0.22986716388E+02  0.54904825907E+02  0.13999335954E+03  0.12499563776E+03 0.  0.
    9000005    1    3    3    0    0  0.22459790206E+02  0.43771489654E+02  0.22500291966E+02  0.54107750103E+02  0.10000000000E+01 0.  0.
    9000005    1    3    3    0    0 -0.43227607095E+02 -0.66758206043E+02  0.32404533941E+02  0.85885609441E+02  0.10000000000E+01 0.  0.
         21    1    1    2  502  501  0.20767816888E+02  0.22986716388E+02  0.62127121965E+02  0.69422407278E+02  0.00000000000E+00 0.  1.
<mgrwt>
<rscale>  1 0.12877733E+03</rscale>
<asrwt>0</asrwt>
<pdfrwt beam="1">  1        4 0.25111362E-01 0.12877733E+03</pdfrwt>
<pdfrwt beam="2">  1       -4 0.71064477E-02 0.12877733E+03</pdfrwt>
<totfact> 0.32312100E+03</totfact>
</mgrwt>
</event>
<event>
 6    4  0.5642870E-004  0.1658150E+03  0.7818608E-02  0.1182284E+00
          4   -1    0    0  502    0  0.00000000000E+00  0.00000000000E+00  0.14123248413E+03  0.14123819410E+03  0.12700000000E+01 0.  1.
         -4   -1    0    0    0  501 -0.00000000000E+00 -0.00000000000E+00 -0.15878868568E+03  0.15879376436E+03  0.12700000000E+01 0.  1.
         25    2    1    2    0    0 -0.55383306571E+02 -0.93824732921E+02 -0.68935374806E+02  0.17957362293E+03  0.12499683595E+03 0.  0.
    9000005    1    3    3    0    0 -0.56760260007E+02  0.12571244404E+02 -0.35084896046E+02  0.67909596026E+02  0.10000000000E+01 0.  0.
    9000005    1    3    3    0    0  0.13769534353E+01 -0.10639597733E+03 -0.33850478760E+02  0.11166402690E+03  0.10000000000E+01 0.  0.
         21    1    1    2  502  501  0.55383306571E+02  0.93824732921E+02  0.51379173255E+02  0.12045833553E+03  0.00000000000E+00 0.  1.
<mgrwt>
<rscale>  1 0.16581496E+03</rscale>
<asrwt>0</asrwt>
<pdfrwt beam="1">  1        4 0.21728904E-01 0.16581496E+03</pdfrwt>
<pdfrwt beam="2">  1       -4 0.24429859E-01 0.16581496E+03</pdfrwt>
<totfact> 0.52247067E+02</totfact>
</mgrwt>
</event>
<event>
 6    4  0.5642870E-004  0.1362585E+03  0.7818608E-02  0.1218454E+00
          4   -1    0    0  502    0  0.00000000000E+00  0.00000000000E+00  0.21877958467E+02  0.21914788767E+02  0.12700000000E+01 0.  1.
         -4   -1    0    0    0  501 -0.00000000000E+00 -0.00000000000E+00 -0.50613625109E+03  0.50613784444E+03  0.12700000000E+01 0.  1.
         25    2    1    2    0    0  0.39543848269E+02  0.37113634200E+02 -0.43106465953E+03  0.45208750711E+03  0.12500094247E+03 0.  0.
    9000005    1    3    3    0    0 -0.14694614403E+02 -0.89274533685E+01 -0.31820826937E+03  0.31867402438E+03  0.10000000000E+01 0.  0.
    9000005    1    3    3    0    0  0.54238462672E+02  0.46041087568E+02 -0.11285639015E+03  0.13341348274E+03  0.10000000000E+01 0.  0.
         21    1    1    2  502  501 -0.39543848269E+02 -0.37113634200E+02 -0.53193633102E+02  0.75965126091E+02  0.00000000000E+00 0.  1.
<mgrwt>
<rscale>  1 0.13625848E+03</rscale>
<asrwt>0</asrwt>
<pdfrwt beam="1">  1        4 0.33687958E-02 0.13625848E+03</pdfrwt>
<pdfrwt beam="2">  1       -4 0.77870063E-01 0.13625848E+03</pdfrwt>
<totfact> 0.11215622E+03</totfact>
</mgrwt>
</event>
<event>
 6    4  0.5642870E-004  0.1270176E+03  0.7818608E-02  0.1231949E+00
         -4   -1    0    0    0  501 -0.00000000000E+00  0.00000000000E+00  0.87390026862E+02  0.87399254545E+02  0.12700000000E+01 0.  1.
          4   -1    0    0  502    0  0.00000000000E+00 -0.00000000000E+00 -0.68206043486E+02  0.68217866194E+02  0.12700000000E+01 0.  1.
         25    2    1    2    0    0  0.13795360847E+02  0.17804814119E+02  0.30178019952E+02  0.13055335751E+03  0.12500457145E+03 0.  0.
    9000005    1    3    3    0    0 -0.47819772849E+02 -0.86639255630E+01  0.39768451828E+02  0.62803853722E+02  0.10000000000E+01 0.  0.
    9000005    1    3    3    0    0  0.61615133695E+02  0.26468739682E+02 -0.95904318758E+01  0.67749503793E+02  0.10000000000E+01 0.  0.
         21    1    1    2  502  501 -0.13795360847E+02 -0.17804814119E+02 -0.10994036576E+02  0.25063763224E+02  0.00000000000E+00 0. -1.
<mgrwt>
<rscale>  1 0.12701758E+03</rscale>
<asrwt>0</asrwt>
<pdfrwt beam="2">  1        4 0.10494857E-01 0.12701758E+03</pdfrwt>
<pdfrwt beam="1">  1       -4 0.13446239E-01 0.12701758E+03</pdfrwt>
<totfact> 0.51221272E+03</totfact>
</mgrwt>
</event>
<event>
 6    4  0.5642870E-004  0.1316637E+03  0.7818608E-02  0.1225008E+00
          4   -1    0    0  502    0  0.00000000000E+00  0.00000000000E+00  0.10432292742E+03  0.10433065746E+03  0.12700000000E+01 0.  1.
         -4   -1    0    0    0  501 -0.00000000000E+00 -0.00000000000E+00 -0.74585916113E+02  0.74596727693E+02  0.12700000000E+01 0.  1.
         25    2    1    2    0    0  0.38495384343E+02 -0.15124287944E+02  0.37380488235E+02  0.13686717306E+03  0.12499873383E+03 0.  0.
    9000005    1    3    3    0    0  0.37522817996E+01 -0.60186337736E+02 -0.12031631840E+02  0.61499878321E+02  0.10000000000E+01 0.  0.
    9000005    1    3    3    0    0  0.34743102543E+02  0.45062049793E+02  0.49412120076E+02  0.75367294739E+02  0.10000000000E+01 0.  0.
         21    1    1    2  502  501 -0.38495384343E+02  0.15124287944E+02 -0.76434769286E+01  0.42060212090E+02  0.00000000000E+00 0.  1.
<mgrwt>
<rscale>  1 0.13166367E+03</rscale>
<asrwt>0</asrwt>
<pdfrwt beam="1">  1        4 0.16051107E-01 0.13166367E+03</pdfrwt>
<pdfrwt beam="2">  1       -4 0.11476183E-01 0.13166367E+03</pdfrwt>
<totfact> 0.32628108E+03</totfact>
</mgrwt>
</event>
<event>
 6    4  0.5642870E-004  0.1284530E+03  0.7818608E-02  0.1229769E+00
         -4   -1    0    0    0  501 -0.00000000000E+00  0.00000000000E+00  0.31076388633E+02  0.31102328377E+02  0.12700000000E+01 0. -1.
          4   -1    0    0  502    0  0.00000000000E+00 -0.00000000000E+00 -0.20091337252E+03  0.20091738640E+03  0.12700000000E+01 0. -1.
         25    2    1    2    0    0  0.87845522560E+00  0.29574866168E+02 -0.13996770070E+03  0.18997665981E+03  0.12499891856E+03 0.  0.
    9000005    1    3    3    0    0 -0.58742282841E+01  0.10453985365E+00 -0.15574493830E+03  0.15585892112E+03  0.10000000000E+01 0.  0.
    9000005    1    3    3    0    0  0.67526835097E+01  0.29470326315E+02  0.15777237596E+02  0.34117738697E+02  0.10000000000E+01 0.  0.
         21    1    1    2  502  501 -0.87845522560E+00 -0.29574866168E+02 -0.29869283184E+02  0.42043054961E+02  0.00000000000E+00 0. -1.
<mgrwt>
<rscale>  1 0.12845300E+03</rscale>
<asrwt>0</asrwt>
<pdfrwt beam="2">  1        4 0.30912053E-01 0.12845300E+03</pdfrwt>
<pdfrwt beam="1">  1       -4 0.47832871E-02 0.12845300E+03</pdfrwt>
<totfact> 0.41592082E+03</totfact>
</mgrwt>
</event>
<event>
 6    4  0.5642870E-004  0.1267737E+03  0.7818608E-02  0.1232323E+00
          4   -1    0    0  502    0  0.00000000000E+00  0.00000000000E+00  0.85658612108E+02  0.85668026289E+02  0.12700000000E+01 0.  1.
         -4   -1    0    0    0  501 -0.00000000000E+00 -0.00000000000E+00 -0.73244797992E+02  0.73255807503E+02  0.12700000000E+01 0.  1.
         25    2    1    2    0    0  0.14561609158E+02  0.15337180543E+02 -0.11147730809E+02  0.12726288043E+03  0.12499719703E+03 0.  0.
    9000005    1    3    3    0    0  0.89851348918E+00 -0.54194792130E+02  0.54248359353E+01  0.54482214212E+02  0.10000000000E+01 0.  0.
    9000005    1    3    3    0    0  0.13663095669E+02  0.69531972673E+02 -0.16572566745E+02  0.72780666221E+02  0.10000000000E+01 0.  0.
         21    1    1    2  502  501 -0.14561609158E+02 -0.15337180543E+02  0.23561544925E+02  0.31660953358E+02  0.00000000000E+00 0.  1.
<mgrwt>
<rscale>  1 0.12677369E+03</rscale>
<asrwt>0</asrwt>
<pdfrwt beam="1">  1        4 0.13179819E-01 0.12677369E+03</pdfrwt>
<pdfrwt beam="2">  1       -4 0.11270002E-01 0.12677369E+03</pdfrwt>
<totfact> 0.46968073E+03</totfact>
</mgrwt>
</event>
<event>
 6    4  0.5642870E-004  0.1336598E+03  0.7818608E-02  0.1222124E+00
          4   -1    0    0  502    0  0.00000000000E+00  0.00000000000E+00  0.62536422103E+02  0.62549316459E+02  0.12700000000E+01 0. -1.
         -4   -1    0    0    0  501 -0.00000000000E+00 -0.00000000000E+00 -0.19565484224E+03  0.19565896400E+03  0.12700000000E+01 0. -1.
         25    2    1    2    0    0  0.45835791230E+02 -0.11776125700E+02 -0.15617873365E+03  0.20556443036E+03  0.12500136515E+03 0.  0.
    9000005    1    3    3    0    0  0.30719255082E+02 -0.66923987343E+02 -0.66640451514E+02  0.99319899781E+02  0.10000000000E+01 0.  0.
    9000005    1    3    3    0    0  0.15116536148E+02  0.55147861643E+02 -0.89538282137E+02  0.10624453057E+03  0.10000000000E+01 0.  0.
         21    1    1    2  502  501 -0.45835791230E+02  0.11776125700E+02  0.23060313512E+02  0.52643850101E+02  0.00000000000E+00 0.  1.
<mgrwt>
<rscale>  1 0.13365979E+03</rscale>
<asrwt>0</asrwt>
<pdfrwt beam="1">  1        4 0.96222971E-02 0.13365979E+03</pdfrwt>
<pdfrwt beam="2">  1       -4 0.30102054E-01 0.13365979E+03</pdfrwt>
<totfact> 0.14048561E+03</totfact>
</mgrwt>
</event>
<event>
 6    4  0.5642870E-004  0.1266908E+03  0.7818608E-02  0.1232450E+00
          4   -1    0    0  502    0  0.00000000000E+00  0.00000000000E+00  0.33092346523E+02  0.33116707240E+02  0.12700000000E+01 0. -1.
         -4   -1    0    0    0  501 -0.00000000000E+00 -0.00000000000E+00 -0.17236111507E+03  0.17236579384E+03  0.12700000000E+01 0. -1.
         25    2    1    2    0    0 -0.20625955748E+02 -0.30313191302E+00 -0.13353760654E+03  0.18407296682E+03  0.12500017125E+03 0.  0.
    9000005    1    3    3    0    0 -0.84811210241E+01  0.57152384008E+02 -0.30180367794E+02  0.65193396995E+02  0.10000000000E+01 0.  0.
    9000005    1    3    3    0    0 -0.12144834724E+02 -0.57455515921E+02 -0.10335723875E+03  0.11887956982E+03  0.10000000000E+01 0.  0.
         21    1    1    2  502  501  0.20625955748E+02  0.30313191302E+00 -0.57311620019E+01  0.21409534263E+02  0.00000000000E+00 0.  1.
<mgrwt>
<rscale>  1 0.12669082E+03</rscale>
<asrwt>0</asrwt>
<pdfrwt beam="1">  1        4 0.50933641E-02 0.12669082E+03</pdfrwt>
<pdfrwt beam="2">  1       -4 0.26519328E-01 0.12669082E+03</pdfrwt>
<totfact> 0.49959499E+03</totfact>
</mgrwt>
</event>
<event>
 6    4  0.5642870E-004  0.1268641E+03  0.7818608E-02  0.1232184E+00
          4   -1    0    0  502    0  0.00000000000E+00  0.00000000000E+00  0.30928921061E+02  0.30954984380E+02  0.12700000000E+01 0. -1.
         -4   -1    0    0    0  501 -0.00000000000E+00 -0.00000000000E+00 -0.18952797040E+03  0.18953222539E+03  0.12700000000E+01 0. -1.
         25    2    1    2    0    0  0.10362790530E+02 -0.19017373092E+02 -0.15170325646E+03  0.19775837641E+03  0.12500179803E+03 0.  0.
    9000005    1    3    3    0    0  0.34202678858E+02  0.11136007551E+02  0.50692301395E+01  0.36339111154E+02  0.10000000000E+01 0.  0.
    9000005    1    3    3    0    0 -0.23839888328E+02 -0.30153380642E+02 -0.15677248660E+03  0.16141926525E+03  0.10000000000E+01 0.  0.
         21    1    1    2  502  501 -0.10362790530E+02  0.19017373092E+02 -0.68957928753E+01  0.22728833368E+02  0.00000000000E+00 0. -1.
<mgrwt>
<rscale>  1 0.12686409E+03</rscale>
<asrwt>0</asrwt>
<pdfrwt beam="1">  1        4 0.47606278E-02 0.12686409E+03</pdfrwt>
<pdfrwt beam="2">  1       -4 0.29160481E-01 0.12686409E+03</pdfrwt>
<totfact> 0.46642901E+03</totfact>
</mgrwt>
</event>
<event>
 6    4  0.5642870E-004  0.1277210E+03  0.7818608E-02  0.1230877E+00
          4   -1    0    0  502    0  0.00000000000E+00  0.00000000000E+00  0.16839125467E+02  0.16886948999E+02  0.12700000000E+01 0.  1.
         -4   -1    0    0    0  501 -0.00000000000E+00 -0.00000000000E+00 -0.37561187508E+03  0.37561402210E+03  0.12700000000E+01 0.  1.
         25    2    1    2    0    0  0.26187135831E+02  0.20977117190E+00 -0.32859834774E+03  0.35254719011E+03  0.12500734791E+03 0.  0.
    9000005    1    3    3    0    0  0.40821823586E+02 -0.56135207176E+02 -0.18497386403E+03  0.19757002086E+03  0.10000000000E+01 0.  0.
    9000005    1    3    3    0    0 -0.14634687756E+02  0.56344978348E+02 -0.14362448371E+03  0.15497716926E+03  0.10000000000E+01 0.  0.
         21    1    1    2  502  501 -0.26187135831E+02 -0.20977117190E+00 -0.30174401868E+02  0.39953780986E+02  0.00000000000E+00 0.  1.
<mgrwt>
<rscale>  1 0.12772097E+03</rscale>
<asrwt>0</asrwt>
<pdfrwt beam="1">  1        4 0.25944789E-02 0.12772097E+03</pdfrwt>
<pdfrwt beam="2">  1       -4 0.57790280E-01 0.12772097E+03</pdfrwt>
<totfact> 0.31491402E+03</totfact>
</mgrwt>
</event>
<event>
 6    4  0.5642870E-004  0.1267772E+03  0.7818608E-02  0.1232318E+00
         -4   -1    0    0    0  501 -0.00000000000E+00  0.00000000000E+00  0.12617779014E+02  0.12681531739E+02  0.12700000000E+01 0. -1.
          4   -1    0    0  502    0  0.00000000000E+00 -0.00000000000E+00 -0.56426331942E+03  0.56426474862E+03  0.12700000000E+01 0. -1.
         25    2    1    2    0    0  0.17692771745E+02  0.11552090880E+02 -0.31788763244E+03  0.34223529955E+03  0.12500387365E+03 0.  0.
    9000005    1    3    3    0    0 -0.25257839481E+02 -0.40940874711E+02 -0.20469320139E+03  0.21027225298E+03  0.10000000000E+01 0.  0.
    9000005    1    3    3    0    0  0.42950611226E+02  0.52492965591E+02 -0.11319443104E+03  0.13196304657E+03  0.10000000000E+01 0.  0.
         21    1    1    2  502  501 -0.17692771745E+02 -0.11552090880E+02 -0.23375790797E+03  0.23471098081E+03  0.00000000000E+00 0. -1.
<mgrwt>
<rscale>  1 0.12677718E+03</rscale>
<asrwt>0</asrwt>
<pdfrwt beam="2">  1        4 0.86814736E-01 0.12677718E+03</pdfrwt>
<pdfrwt beam="1">  1       -4 0.19462112E-02 0.12677718E+03</pdfrwt>
<totfact> 0.20352434E+03</totfact>
</mgrwt>
</event>
<event>
 6    4  0.5642870E-004  0.1275290E+03  0.7818608E-02  0.1231169E+00
         -4   -1    0    0    0  501 -0.00000000000E+00  0.00000000000E+00  0.97499709102E+02  0.97507980058E+02  0.12700000000E+01 0. -1.
          4   -1    0    0  502    0  0.00000000000E+00 -0.00000000000E+00 -0.61323154746E+02  0.61336304159E+02  0.12700000000E+01 0. -1.
         25    2    1    2    0    0  0.20405155626E+02  0.14903933007E+02  0.20659078741E+02  0.12919146572E+03  0.12500055874E+03 0.  0.
    9000005    1    3    3    0    0 -0.75542636164E+01  0.61123307011E+02  0.38089513089E+02  0.72421934288E+02  0.10000000000E+01 0.  0.
    9000005    1    3    3    0    0  0.27959419243E+02 -0.46219374003E+02 -0.17430434348E+02  0.56769531434E+02  0.10000000000E+01 0.  0.
         21    1    1    2  502  501 -0.20405155626E+02 -0.14903933007E+02  0.15517475616E+02  0.29652818495E+02  0.00000000000E+00 0. -1.
<mgrwt>
<rscale>  1 0.12752897E+03</rscale>
<asrwt>0</asrwt>
<pdfrwt beam="2">  1        4 0.94359793E-02 0.12752897E+03</pdfrwt>
<pdfrwt beam="1">  1       -4 0.15001603E-01 0.12752897E+03</pdfrwt>
<totfact> 0.50713249E+03</totfact>
</mgrwt>
</event>
<event>
 6    4  0.5642870E-004  0.1315705E+03  0.7818608E-02  0.1225144E+00
          4   -1    0    0  502    0  0.00000000000E+00  0.00000000000E+00  0.14773246863E+03  0.14773792738E+03  0.12700000000E+01 0. -1.
         -4   -1    0    0    0  501 -0.00000000000E+00 -0.00000000000E+00 -0.52858329310E+02  0.52873583928E+02  0.12700000000E+01 0. -1.
         25    2    1    2    0    0  0.83994302077E+01 -0.40180593904E+02  0.52624774811E+02  0.14170447136E+03  0.12500303886E+03 0.  0.
    9000005    1    3    3    0    0  0.22449743756E+02  0.20771616115E+02  0.70321161160E+02  0.76691047310E+02  0.10000000000E+01 0.  0.
    9000005    1    3    3    0    0 -0.14050313549E+02 -0.60952210019E+02 -0.17696386348E+02  0.65013424050E+02  0.10000000000E+01 0.  0.
         21    1    1    2  502  501 -0.83994302077E+01  0.40180593904E+02  0.42249364510E+02  0.58907039951E+02  0.00000000000E+00 0. -1.
<mgrwt>
<rscale>  1 0.13157048E+03</rscale>
<asrwt>0</asrwt>
<pdfrwt beam="1">  1        4 0.22729666E-01 0.13157048E+03</pdfrwt>
<pdfrwt beam="2">  1       -4 0.81336440E-02 0.13157048E+03</pdfrwt>
<totfact> 0.31210866E+03</totfact>
</mgrwt>
</event>
<event>
 6    4  0.5642870E-004  0.1276683E+03  0.7818608E-02  0.1230957E+00
         -4   -1    0    0    0  501 -0.00000000000E+00  0.00000000000E+00  0.27147804152E+02  0.27177493819E+02  0.12700000000E+01 0.  1.
          4   -1    0    0  502    0  0.00000000000E+00 -0.00000000000E+00 -0.26424591719E+03  0.26424896907E+03  0.12700000000E+01 0.  1.
         25    2    1    2    0    0  0.58554243947E+01 -0.25332803603E+02 -0.13392395471E+03  0.18502653863E+03  0.12499262947E+03 0.  0.
    9000005    1    3    3    0    0 -0.12412796551E+02 -0.49818381481E+02 -0.39455929273E+01  0.51502585908E+02  0.10000000000E+01 0.  0.
    9000005    1    3    3    0    0  0.18268220945E+02  0.24485577878E+02 -0.12997836178E+03  0.13352395273E+03  0.10000000000E+01 0.  0.
         21    1    1    2  502  501 -0.58554243947E+01  0.25332803603E+02 -0.10317415833E+03  0.10639992425E+03  0.00000000000E+00 0.  1.
<mgrwt>
<rscale>  1 0.12766830E+03</rscale>
<asrwt>0</asrwt>
<pdfrwt beam="2">  1        4 0.40655735E-01 0.12766830E+03</pdfrwt>
<pdfrwt beam="1">  1       -4 0.41791040E-02 0.12766830E+03</pdfrwt>
<totfact> 0.30345781E+03</totfact>
</mgrwt>
</event>
<event>
 6    4  0.5642870E-004  0.1275027E+03  0.7818608E-02  0.1231209E+00
         -4   -1    0    0    0  501 -0.00000000000E+00  0.00000000000E+00  0.21841690093E+03  0.21842059315E+03  0.12700000000E+01 0. -1.
          4   -1    0    0  502    0  0.00000000000E+00 -0.00000000000E+00 -0.86126690449E+02  0.86136053472E+02  0.12700000000E+01 0. -1.
         25    2    1    2    0    0  0.19783845194E+01  0.25004085426E+02  0.19727899114E+03  0.23489561086E+03  0.12501131694E+03 0.  0.
    9000005    1    3    3    0    0  0.40974640716E+02  0.39887489805E+02  0.18143983621E+03  0.19024023546E+03  0.10000000000E+01 0.  0.
    9000005    1    3    3    0    0 -0.38996256196E+02 -0.14883404379E+02  0.15839154933E+02  0.44655375401E+02  0.10000000000E+01 0.  0.
         21    1    1    2  502  501 -0.19783845194E+01 -0.25004085426E+02 -0.64988780653E+02  0.69661035767E+02  0.00000000000E+00 0. -1.
<mgrwt>
<rscale>  1 0.12750274E+03</rscale>
<asrwt>0</asrwt>
<pdfrwt beam="2">  1        4 0.13251265E-01 0.12750274E+03</pdfrwt>
<pdfrwt beam="1">  1       -4 0.33603604E-01 0.12750274E+03</pdfrwt>
<totfact> 0.65454088E+02</totfact>
</mgrwt>
</event>
<event>
 6    4  0.5642870E-004  0.1270684E+03  0.7818608E-02  0.1231872E+00
          4   -1    0    0  502    0  0.00000000000E+00  0.00000000000E+00  0.23293959758E+03  0.23294305961E+03  0.12700000000E+01 0.  1.
         -4   -1    0    0    0  501 -0.00000000000E+00 -0.00000000000E+00 -0.25590796811E+02  0.25622290714E+02  0.12700000000E+01 0.  1.
         25    2    1    2    0    0  0.22468856025E+02  0.42887251861E+01  0.19450146365E+03  0.23232994055E+03  0.12499255682E+03 0.  0.
    9000005    1    3    3    0    0 -0.46483350596E+02  0.27829365999E+02  0.81181955878E+02  0.97604740944E+02  0.10000000000E+01 0.  0.
    9000005    1    3    3    0    0  0.68952206621E+02 -0.23540640813E+02  0.11331950777E+03  0.13472519961E+03  0.10000000000E+01 0.  0.
         21    1    1    2  502  501 -0.22468856025E+02 -0.42887251861E+01  0.12847337115E+02  0.26235409769E+02  0.00000000000E+00 0.  1.
<mgrwt>
<rscale>  1 0.12706841E+03</rscale>
<asrwt>0</asrwt>
<pdfrwt beam="1">  1        4 0.35839548E-01 0.12706841E+03</pdfrwt>
<pdfrwt beam="2">  1       -4 0.39397348E-02 0.12706841E+03</pdfrwt>
<totfact> 0.42572167E+03</totfact>
</mgrwt>
</event>
<event>
 6    4  0.5642870E-004  0.1269378E+03  0.7818608E-02  0.1232071E+00
         -4   -1    0    0    0  501 -0.00000000000E+00  0.00000000000E+00  0.33586966595E+01  0.35907858820E+01  0.12700000000E+01 0. -1.
          4   -1    0    0  502    0  0.00000000000E+00 -0.00000000000E+00 -0.21071460516E+04  0.21071464343E+04  0.12700000000E+01 0. -1.
         25    2    1    2    0    0 -0.16885649153E+02  0.14223296910E+02 -0.12028484146E+04  0.12095278097E+04  0.12500314659E+03 0.  0.
    9000005    1    3    3    0    0  0.24306514946E+01  0.57048689408E+02 -0.98570831492E+03  0.98736130324E+03  0.10000000000E+01 0.  0.
    9000005    1    3    3    0    0 -0.19316300648E+02 -0.42825392498E+02 -0.21714009970E+03  0.22216650650E+03  0.10000000000E+01 0.  0.
         21    1    1    2  502  501  0.16885649153E+02 -0.14223296910E+02 -0.90093894034E+03  0.90120941048E+03  0.00000000000E+00 0. -1.
<mgrwt>
<rscale>  1 0.12693784E+03</rscale>
<asrwt>0</asrwt>
<pdfrwt beam="2">  1        4 0.32419318E+00 0.12693784E+03</pdfrwt>
<pdfrwt beam="1">  1       -4 0.53460670E-03 0.12693784E+03</pdfrwt>
<totfact> 0.33878042E+02</totfact>
</mgrwt>
</event>
<event>
 6    4  0.5642870E-004  0.1266555E+03  0.7818608E-02  0.1232505E+00
          4   -1    0    0  502    0  0.00000000000E+00  0.00000000000E+00  0.15877434967E+02  0.15928146193E+02  0.12700000000E+01 0.  1.
         -4   -1    0    0    0  501 -0.00000000000E+00 -0.00000000000E+00 -0.40589511441E+03  0.40589710125E+03  0.12700000000E+01 0.  1.
         25    2    1    2    0    0  0.14201123019E+02 -0.14669820546E+02 -0.37676454508E+03  0.39748349113E+03  0.12499891104E+03 0.  0.
    9000005    1    3    3    0    0 -0.31323391291E+02  0.35797188533E+02 -0.80388834471E+02  0.93412837750E+02  0.10000000000E+01 0.  0.
    9000005    1    3    3    0    0  0.45524514310E+02 -0.50467009079E+02 -0.29637571061E+03  0.30407065338E+03  0.10000000000E+01 0.  0.
         21    1    1    2  502  501 -0.14201123019E+02  0.14669820546E+02 -0.13253134363E+02  0.24341756311E+02  0.00000000000E+00 0.  1.
<mgrwt>
<rscale>  1 0.12665545E+03</rscale>
<asrwt>0</asrwt>
<pdfrwt beam="1">  1        4 0.24467363E-02 0.12665545E+03</pdfrwt>
<pdfrwt beam="2">  1       -4 0.62449448E-01 0.12665545E+03</pdfrwt>
<totfact> 0.29256205E+03</totfact>
</mgrwt>
</event>
<event>
 6    4  0.5642870E-004  0.1444222E+03  0.7818608E-02  0.1207499E+00
          4   -1    0    0  502    0  0.00000000000E+00  0.00000000000E+00  0.34655722918E+02  0.34678985437E+02  0.12700000000E+01 0. -1.
         -4   -1    0    0    0  501 -0.00000000000E+00 -0.00000000000E+00 -0.33922356048E+03  0.33922593781E+03  0.12700000000E+01 0. -1.
         25    2    1    2    0    0  0.19007406275E+02  0.69795010123E+02 -0.19662831280E+03  0.24396814656E+03  0.12500055283E+03 0.  0.
    9000005    1    3    3    0    0  0.84158439243E+01  0.63299058852E+02 -0.20031195907E+02  0.66931652378E+02  0.10000000000E+01 0.  0.
    9000005    1    3    3    0    0  0.10591562350E+02  0.64959512709E+01 -0.17659711690E+03  0.17703649418E+03  0.10000000000E+01 0.  0.
         21    1    1    2  502  501 -0.19007406275E+02 -0.69795010123E+02 -0.10793952476E+03  0.12993677669E+03  0.00000000000E+00 0. -1.
<mgrwt>
<rscale>  1 0.14442217E+03</rscale>
<asrwt>0</asrwt>
<pdfrwt beam="1">  1        4 0.53336222E-02 0.14442217E+03</pdfrwt>
<pdfrwt beam="2">  1       -4 0.52190210E-01 0.14442217E+03</pdfrwt>
<totfact> 0.12768050E+03</totfact>
</mgrwt>
</event>
<event>
 6    4  0.5642870E-004  0.1274836E+03  0.7818608E-02  0.1231238E+00
         -4   -1    0    0    0  501 -0.00000000000E+00  0.00000000000E+00  0.18526633185E+04  0.18526637538E+04  0.12700000000E+01 0.  1.
          4   -1    0    0  502    0  0.00000000000E+00 -0.00000000000E+00 -0.30843914125E+01  0.33356214392E+01  0.12700000000E+01 0.  1.
         25    2    1    2    0    0  0.23128923658E+02  0.96080709466E+01  0.16353383051E+04  0.16402998011E+04  0.12499921393E+03 0.  0.
    9000005    1    3    3    0    0 -0.43741806130E+02  0.33853202741E+02  0.61402249665E+03  0.61650953872E+03  0.10000000000E+01 0.  0.
    9000005    1    3    3    0    0  0.66870729788E+02 -0.24245131794E+02  0.10213158084E+04  0.10237902624E+04  0.10000000000E+01 0.  0.
         21    1    1    2  502  501 -0.23128923658E+02 -0.96080709466E+01  0.21424062205E+03  0.21569957411E+03  0.00000000000E+00 0. -1.
<mgrwt>
<rscale>  1 0.12748359E+03</rscale>
<asrwt>0</asrwt>
<pdfrwt beam="2">  1        4 0.49388150E-03 0.12748359E+03</pdfrwt>
<pdfrwt beam="1">  1       -4 0.28504398E+00 0.12748359E+03</pdfrwt>
<totfact> 0.64251242E+02</totfact>
</mgrwt>
</event>
<event>
 6    4  0.5642870E-004  0.1287660E+03  0.7818608E-02  0.1229298E+00
         -4   -1    0    0    0  501 -0.00000000000E+00  0.00000000000E+00  0.16030303276E+02  0.16080532427E+02  0.12700000000E+01 0. -1.
          4   -1    0    0  502    0  0.00000000000E+00 -0.00000000000E+00 -0.41276465288E+03  0.41276660666E+03  0.12700000000E+01 0. -1.
         25    2    1    2    0    0  0.90123260404E+01 -0.29563837794E+02 -0.34883382991E+03  0.37184097878E+03  0.12500172031E+03 0.  0.
    9000005    1    3    3    0    0 -0.28974408450E+02 -0.21764962043E+02 -0.21359018710E+02  0.42076568278E+02  0.10000000000E+01 0.  0.
    9000005    1    3    3    0    0  0.37986734490E+02 -0.77988757513E+01 -0.32747481120E+03  0.32976441050E+03  0.10000000000E+01 0.  0.
         21    1    1    2  502  501 -0.90123260404E+01  0.29563837794E+02 -0.47900519697E+02  0.57006160308E+02  0.00000000000E+00 0. -1.
<mgrwt>
<rscale>  1 0.12876596E+03</rscale>
<asrwt>0</asrwt>
<pdfrwt beam="2">  1        4 0.63506260E-01 0.12876596E+03</pdfrwt>
<pdfrwt beam="1">  1       -4 0.24702149E-02 0.12876596E+03</pdfrwt>
<totfact> 0.27931368E+03</totfact>
</mgrwt>
</event>
<event>
 6    4  0.5642870E-004  0.1275065E+03  0.7818608E-02  0.1231203E+00
         -4   -1    0    0    0  501 -0.00000000000E+00  0.00000000000E+00  0.10730647005E+03  0.10731398517E+03  0.12700000000E+01 0.  1.
          4   -1    0    0  502    0  0.00000000000E+00 -0.00000000000E+00 -0.80215573244E+02  0.80225626148E+02  0.12700000000E+01 0.  1.
         25    2    1    2    0    0  0.24798306985E+02  0.45086353118E+01  0.64139861867E+02  0.14272990664E+03  0.12499048182E+03 0.  0.
    9000005    1    3    3    0    0 -0.42403788753E+02  0.30363356000E+02  0.43219113377E+02  0.67741467723E+02  0.10000000000E+01 0.  0.
    9000005    1    3    3    0    0  0.67202095737E+02 -0.25854720688E+02  0.20920748490E+02  0.74988438914E+02  0.10000000000E+01 0.  0.
         21    1    1    2  502  501 -0.24798306985E+02 -0.45086353118E+01 -0.37048965064E+02  0.44809704685E+02  0.00000000000E+00 0.  1.
<mgrwt>
<rscale>  1 0.12750649E+03</rscale>
<asrwt>0</asrwt>
<pdfrwt beam="2">  1        4 0.12342209E-01 0.12750649E+03</pdfrwt>
<pdfrwt beam="1">  1       -4 0.16510039E-01 0.12750649E+03</pdfrwt>
<totfact> 0.27212038E+03</totfact>
</mgrwt>
</event>
<event>
 6    4  0.5642870E-004  0.1279499E+03  0.7818608E-02  0.1230530E+00
         -4   -1    0    0    0  501 -0.00000000000E+00  0.00000000000E+00  0.28388249848E+03  0.28388533925E+03  0.12700000000E+01 0. -1.
          4   -1    0    0  502    0  0.00000000000E+00 -0.00000000000E+00 -0.24971191787E+02  0.25003466145E+02  0.12700000000E+01 0. -1.
         25    2    1    2    0    0 -0.26442502583E+02  0.69312347632E+01  0.24874538863E+03  0.27972386329E+03  0.12499569340E+03 0.  0.
    9000005    1    3    3    0    0  0.46952636943E+01 -0.39658405305E+02  0.20896701281E+02  0.45083331032E+02  0.10000000000E+01 0.  0.
    9000005    1    3    3    0    0 -0.31137766277E+02  0.46589640068E+02  0.22784868735E+03  0.23464053225E+03  0.10000000000E+01 0.  0.
         21    1    1    2  502  501  0.26442502583E+02 -0.69312347632E+01  0.10165918058E+02  0.29164942108E+02  0.00000000000E+00 0. -1.
<mgrwt>
<rscale>  1 0.12794988E+03</rscale>
<asrwt>0</asrwt>
<pdfrwt beam="2">  1        4 0.38444229E-02 0.12794988E+03</pdfrwt>
<pdfrwt beam="1">  1       -4 0.43676933E-01 0.12794988E+03</pdfrwt>
<totfact> 0.30072964E+03</totfact>
</mgrwt>
</event>
<event>
 6    4  0.5642870E-004  0.1312825E+03  0.7818608E-02  0.1225565E+00
         -4   -1    0    0    0  501 -0.00000000000E+00  0.00000000000E+00  0.72255077039E+02  0.72266237330E+02  0.12700000000E+01 0.  1.
          4   -1    0    0  502    0  0.00000000000E+00 -0.00000000000E+00 -0.11553437867E+03  0.11554135863E+03  0.12700000000E+01 0.  1.
         25    2    1    2    0    0 -0.38879823745E+02  0.10059792995E+02 -0.35709218821E+01  0.13133109154E+03  0.12498905549E+03 0.  0.
    9000005    1    3    3    0    0 -0.47233862528E+02  0.15741400468E+02  0.53659962755E+02  0.73206700929E+02  0.10000000000E+01 0.  0.
    9000005    1    3    3    0    0  0.83540387829E+01 -0.56816074738E+01 -0.57230884637E+02  0.58124390610E+02  0.10000000000E+01 0.  0.
         21    1    1    2  502  501  0.38879823745E+02 -0.10059792995E+02 -0.39708379748E+02  0.56476504423E+02  0.00000000000E+00 0.  1.
<mgrwt>
<rscale>  1 0.13128254E+03</rscale>
<asrwt>0</asrwt>
<pdfrwt beam="2">  1        4 0.17775915E-01 0.13128254E+03</pdfrwt>
<pdfrwt beam="1">  1       -4 0.11117561E-01 0.13128254E+03</pdfrwt>
<totfact> 0.28739446E+03</totfact>
</mgrwt>
</event>
<event>
 6    4  0.5642870E-004  0.1284129E+03  0.7818608E-02  0.1229830E+00
         -4   -1    0    0    0  501 -0.00000000000E+00  0.00000000000E+00  0.89194311659E+01  0.90093924503E+01  0.12700000000E+01 0.  1.
          4   -1    0    0  502    0  0.00000000000E+00 -0.00000000000E+00 -0.76663915997E+03  0.76664021190E+03  0.12700000000E+01 0.  1.
         25    2    1    2    0    0  0.18939042753E+01 -0.29344517101E+02 -0.49875812305E+03  0.51502381742E+03  0.12500071858E+03 0.  0.
    9000005    1    3    3    0    0  0.47027895854E+02  0.14350327710E+01 -0.80771675978E+02  0.93481259875E+02  0.10000000000E+01 0.  0.
    9000005    1    3    3    0    0 -0.45133991578E+02 -0.30779549872E+02 -0.41798644707E+03  0.42154255754E+03  0.10000000000E+01 0.  0.
         21    1    1    2  502  501 -0.18939042753E+01  0.29344517101E+02 -0.25896160576E+03  0.26062578693E+03  0.00000000000E+00 0.  1.
<mgrwt>
<rscale>  1 0.12841288E+03</rscale>
<asrwt>0</asrwt>
<pdfrwt beam="2">  1        4 0.11795144E+00 0.12841288E+03</pdfrwt>
<pdfrwt beam="1">  1       -4 0.13792218E-02 0.12841288E+03</pdfrwt>
<totfact> 0.17000680E+03</totfact>
</mgrwt>
</event>
<event>
 6    4  0.5642870E-004  0.1268055E+03  0.7818608E-02  0.1232274E+00
          4   -1    0    0  502    0  0.00000000000E+00  0.00000000000E+00  0.16953009929E+03  0.16953485619E+03  0.12700000000E+01 0. -1.
         -4   -1    0    0    0  501 -0.00000000000E+00 -0.00000000000E+00 -0.33795744864E+02  0.33819598917E+02  0.12700000000E+01 0. -1.
         25    2    1    2    0    0 -0.21275662048E+02  0.11983219684E+01  0.12928194163E+03  0.18108960833E+03  0.12500214416E+03 0.  0.
    9000005    1    3    3    0    0 -0.27220332020E+02  0.24825626361E+02  0.14661277553E+03  0.15117395327E+03  0.10000000000E+01 0.  0.
    9000005    1    3    3    0    0  0.59446699720E+01 -0.23627304392E+02 -0.17330833902E+02  0.29915655060E+02  0.10000000000E+01 0.  0.
         21    1    1    2  502  501  0.21275662048E+02 -0.11983219684E+01  0.64524127944E+01  0.22264846776E+02  0.00000000000E+00 0. -1.
<mgrwt>
<rscale>  1 0.12680546E+03</rscale>
<asrwt>0</asrwt>
<pdfrwt beam="1">  1        4 0.26083755E-01 0.12680546E+03</pdfrwt>
<pdfrwt beam="2">  1       -4 0.52015462E-02 0.12680546E+03</pdfrwt>
<totfact> 0.49817443E+03</totfact>
</mgrwt>
</event>
<event>
 6    4  0.5642870E-004  0.1333527E+03  0.7818608E-02  0.1222564E+00
          4   -1    0    0  502    0  0.00000000000E+00  0.00000000000E+00  0.74812286909E+02  0.74823065778E+02  0.12700000000E+01 0.  1.
         -4   -1    0    0    0  501 -0.00000000000E+00 -0.00000000000E+00 -0.13390849672E+03  0.13391451898E+03  0.12700000000E+01 0.  1.
         25    2    1    2    0    0  0.13823451717E+02  0.44353794698E+02 -0.82405755311E+02  0.15675987960E+03  0.12499841768E+03 0.  0.
    9000005    1    3    3    0    0  0.56039607862E+02  0.27030587390E+02 -0.91072777719E+02  0.11030113846E+03  0.10000000000E+01 0.  0.
    9000005    1    3    3    0    0 -0.42216156145E+02  0.17323207308E+02  0.86670224075E+01  0.46458741142E+02  0.10000000000E+01 0.  0.
         21    1    1    2  502  501 -0.13823451717E+02 -0.44353794698E+02  0.23309545504E+02  0.51977705154E+02  0.00000000000E+00 0.  1.
<mgrwt>
<rscale>  1 0.13335273E+03</rscale>
<asrwt>0</asrwt>
<pdfrwt beam="1">  1        4 0.11510875E-01 0.13335273E+03</pdfrwt>
<pdfrwt beam="2">  1       -4 0.20602600E-01 0.13335273E+03</pdfrwt>
<totfact> 0.20878155E+03</totfact>
</mgrwt>
</event>
<event>
 6    4  0.5642870E-004  0.1268440E+03  0.7818608E-02  0.1232215E+00
          4   -1    0    0  502    0  0.00000000000E+00  0.00000000000E+00  0.15562315227E+03  0.15562833426E+03  0.12700000000E+01 0.  1.
         -4   -1    0    0    0  501 -0.00000000000E+00 -0.00000000000E+00 -0.43029891796E+02  0.43048629339E+02  0.12700000000E+01 0.  1.
         25    2    1    2    0    0  0.16887870685E+02  0.13389350507E+02  0.57019484464E+02  0.13907059260E+03  0.12499973293E+03 0.  0.
    9000005    1    3    3    0    0 -0.11054944990E+02 -0.13691650814E+02  0.87733792042E+02  0.89486822364E+02  0.10000000000E+01 0.  0.
    9000005    1    3    3    0    0  0.27942815674E+02  0.27081001321E+02 -0.30714307579E+02  0.49583770232E+02  0.10000000000E+01 0.  0.
         21    1    1    2  502  501 -0.16887870685E+02 -0.13389350507E+02  0.55573776014E+02  0.59606370999E+02  0.00000000000E+00 0.  1.
<mgrwt>
<rscale>  1 0.12684403E+03</rscale>
<asrwt>0</asrwt>
<pdfrwt beam="1">  1        4 0.23943863E-01 0.12684403E+03</pdfrwt>
<pdfrwt beam="2">  1       -4 0.66218234E-02 0.12684403E+03</pdfrwt>
<totfact> 0.39446946E+03</totfact>
</mgrwt>
</event>
<event>
 6    4  0.5642870E-004  0.1270534E+03  0.7818608E-02  0.1231895E+00
         -4   -1    0    0    0  501 -0.00000000000E+00  0.00000000000E+00  0.28456604154E+02  0.28484929700E+02  0.12700000000E+01 0.  1.
          4   -1    0    0  502    0  0.00000000000E+00 -0.00000000000E+00 -0.31090353764E+03  0.31090613152E+03  0.12700000000E+01 0.  1.
         25    2    1    2    0    0  0.20378127278E+02 -0.10094237498E+02 -0.11805798021E+03  0.17343658053E+03  0.12500159628E+03 0.  0.
    9000005    1    3    3    0    0  0.55579848870E+02  0.37563994066E+02 -0.53543033499E+02  0.85837227861E+02  0.10000000000E+01 0.  0.
    9000005    1    3    3    0    0 -0.35201721593E+02 -0.47658231564E+02 -0.64514946710E+02  0.87599352668E+02  0.10000000000E+01 0.  0.
         21    1    1    2  502  501 -0.20378127278E+02  0.10094237498E+02 -0.16438895328E+03  0.16595448069E+03  0.00000000000E+00 0.  1.
<mgrwt>
<rscale>  1 0.12705338E+03</rscale>
<asrwt>0</asrwt>
<pdfrwt beam="2">  1        4 0.47833690E-01 0.12705338E+03</pdfrwt>
<pdfrwt beam="1">  1       -4 0.43803177E-02 0.12705338E+03</pdfrwt>
<totfact> 0.20335301E+03</totfact>
</mgrwt>
</event>
<event>
 6    4  0.5642870E-004  0.1269240E+03  0.7818608E-02  0.1232093E+00
         -4   -1    0    0    0  501 -0.00000000000E+00  0.00000000000E+00  0.41531230511E+02  0.41550643891E+02  0.12700000000E+01 0.  1.
          4   -1    0    0  502    0  0.00000000000E+00 -0.00000000000E+00 -0.22848701374E+03  0.22849054323E+03  0.12700000000E+01 0.  1.
         25    2    1    2    0    0  0.95750847059E+01 -0.19776626548E+02 -0.58565359167E+02  0.13978414050E+03  0.12500762951E+03 0.  0.
    9000005    1    3    3    0    0 -0.82700403119E+01 -0.60088867197E+02 -0.71559479380E+02  0.93812710316E+02  0.10000000000E+01 0.  0.
    9000005    1    3    3    0    0  0.17845125018E+02  0.40312240650E+02  0.12994120213E+02  0.45971430184E+02  0.10000000000E+01 0.  0.
         21    1    1    2  502  501 -0.95750847059E+01  0.19776626548E+02 -0.12839042406E+03  0.13025704662E+03  0.00000000000E+00 0.  1.
<mgrwt>
<rscale>  1 0.12692401E+03</rscale>
<asrwt>0</asrwt>
<pdfrwt beam="2">  1        4 0.35153612E-01 0.12692401E+03</pdfrwt>
<pdfrwt beam="1">  1       -4 0.63911851E-02 0.12692401E+03</pdfrwt>
<totfact> 0.20310757E+03</totfact>
</mgrwt>
</event>
<event>
 6    4  0.5642870E-004  0.1323815E+03  0.7818608E-02  0.1223964E+00
         -4   -1    0    0    0  501 -0.00000000000E+00  0.00000000000E+00  0.33275789094E+03  0.33276031446E+03  0.12700000000E+01 0. -1.
          4   -1    0    0  502    0  0.00000000000E+00 -0.00000000000E+00 -0.52316443011E+02  0.52331855589E+02  0.12700000000E+01 0. -1.
         25    2    1    2    0    0  0.39828234374E+02  0.17722618421E+02  0.30680500636E+03  0.33414693798E+03  0.12499793911E+03 0.  0.
    9000005    1    3    3    0    0  0.57426223154E+02  0.60069283720E+02  0.23157021580E+03  0.24603222309E+03  0.10000000000E+01 0.  0.
    9000005    1    3    3    0    0 -0.17597988780E+02 -0.42346665298E+02  0.75234790552E+02  0.88114714891E+02  0.10000000000E+01 0.  0.
         21    1    1    2  502  501 -0.39828234374E+02 -0.17722618421E+02 -0.26363558432E+02  0.50945232066E+02  0.00000000000E+00 0. -1.
<mgrwt>
<rscale>  1 0.13238151E+03</rscale>
<asrwt>0</asrwt>
<pdfrwt beam="2">  1        4 0.80500560E-02 0.13238151E+03</pdfrwt>
<pdfrwt beam="1">  1       -4 0.51194891E-01 0.13238151E+03</pdfrwt>
<totfact> 0.66556154E+02</totfact>
</mgrwt>
</event>
<event>
 6    4  0.5642870E-004  0.1349181E+03  0.7818608E-02  0.1220335E+00
         -4   -1    0    0    0  501 -0.00000000000E+00  0.00000000000E+00  0.13411333696E+02  0.13471331468E+02  0.12700000000E+01 0.  1.
          4   -1    0    0  502    0  0.00000000000E+00 -0.00000000000E+00 -0.64611311615E+03  0.64611436430E+03  0.12700000000E+01 0.  1.
         25    2    1    2    0    0  0.12200072081E+02 -0.49303766475E+02 -0.43345200108E+03  0.45396425107E+03  0.12499280321E+03 0.  0.
    9000005    1    3    3    0    0 -0.39359866396E+02 -0.45591797862E+02 -0.10165655680E+03  0.11816457446E+03  0.10000000000E+01 0.  0.
    9000005    1    3    3    0    0  0.51559938477E+02 -0.37119686124E+01 -0.33179544428E+03  0.33579967661E+03  0.10000000000E+01 0.  0.
         21    1    1    2  502  501 -0.12200072081E+02  0.49303766475E+02 -0.19924978137E+03  0.20562144471E+03  0.00000000000E+00 0.  1.
<mgrwt>
<rscale>  1 0.13491814E+03</rscale>
<asrwt>0</asrwt>
<pdfrwt beam="2">  1        4 0.99406705E-01 0.13491814E+03</pdfrwt>
<pdfrwt beam="1">  1       -4 0.20679938E-02 0.13491814E+03</pdfrwt>
<totfact> 0.13816629E+03</totfact>
</mgrwt>
</event>
<event>
 6    4  0.5642870E-004  0.1300747E+03  0.7818608E-02  0.1227345E+00
          4   -1    0    0  502    0  0.00000000000E+00  0.00000000000E+00  0.11274176464E+03  0.11274891749E+03  0.12700000000E+01 0.  1.
         -4   -1    0    0    0  501 -0.00000000000E+00 -0.00000000000E+00 -0.64265158424E+02  0.64277705989E+02  0.12700000000E+01 0.  1.
         25    2    1    2    0    0  0.24936206742E+02  0.25929198385E+02  0.53607743185E+02  0.14068840252E+03  0.12500119495E+03 0.  0.
    9000005    1    3    3    0    0  0.30554234781E+02  0.71138516278E+02  0.10821508026E+02  0.78181550235E+02  0.10000000000E+01 0.  0.
    9000005    1    3    3    0    0 -0.56180280384E+01 -0.45209317893E+02  0.42786235159E+02  0.62506852284E+02  0.10000000000E+01 0.  0.
         21    1    1    2  502  501 -0.24936206742E+02 -0.25929198385E+02 -0.51311369690E+01  0.36338220955E+02  0.00000000000E+00 0.  1.
<mgrwt>
<rscale>  1 0.13007473E+03</rscale>
<asrwt>0</asrwt>
<pdfrwt beam="1">  1        4 0.17346402E-01 0.13007473E+03</pdfrwt>
<pdfrwt beam="2">  1       -4 0.98884630E-02 0.13007473E+03</pdfrwt>
<totfact> 0.36502313E+03</totfact>
</mgrwt>
</event>
<event>
 6    4  0.5642870E-004  0.1294728E+03  0.7818608E-02  0.1228240E+00
          4   -1    0    0  502    0  0.00000000000E+00  0.00000000000E+00  0.58584765590E+02  0.58598529498E+02  0.12700000000E+01 0.  1.
         -4   -1    0    0    0  501 -0.00000000000E+00 -0.00000000000E+00 -0.13593833560E+03  0.13594426794E+03  0.12700000000E+01 0.  1.
         25    2    1    2    0    0 -0.33761189352E+02 -0.80309413598E-02 -0.90867442887E+02  0.15817739175E+03  0.12499350828E+03 0.  0.
    9000005    1    3    3    0    0  0.27890956568E+02  0.25806903356E+02  0.79884532694E+01  0.38842207773E+02  0.10000000000E+01 0.  0.
    9000005    1    3    3    0    0 -0.61652145919E+02 -0.25814934297E+02 -0.98855896156E+02  0.11933518397E+03  0.10000000000E+01 0.  0.
         21    1    1    2  502  501  0.33761189352E+02  0.80309413598E-02  0.13513872877E+02  0.36365405691E+02  0.00000000000E+00 0.  1.
<mgrwt>
<rscale>  1 0.12947276E+03</rscale>
<asrwt>0</asrwt>
<pdfrwt beam="1">  1        4 0.90145560E-02 0.12947276E+03</pdfrwt>
<pdfrwt beam="2">  1       -4 0.20915105E-01 0.12947276E+03</pdfrwt>
<totfact> 0.30473376E+03</totfact>
</mgrwt>
</event>
<event>
 6    4  0.5642870E-004  0.1318301E+03  0.7818608E-02  0.1224765E+00
         -4   -1    0    0    0  501 -0.00000000000E+00  0.00000000000E+00  0.65937871570E+03  0.65937993875E+03  0.12700000000E+01 0.  1.
          4   -1    0    0  502    0  0.00000000000E+00 -0.00000000000E+00 -0.13392247235E+02  0.13452330133E+02  0.12700000000E+01 0.  1.
         25    2    1    2    0    0 -0.23523347800E+01 -0.41810263175E+02  0.57911871959E+03  0.59393405961E+03  0.12500217679E+03 0.  0.
    9000005    1    3    3    0    0  0.17080123829E+02 -0.70089339383E+02  0.52439760950E+03  0.52933741506E+03  0.10000000000E+01 0.  0.
    9000005    1    3    3    0    0 -0.19432458609E+02  0.28279076208E+02  0.54721110082E+02  0.64596644552E+02  0.10000000000E+01 0.  0.
         21    1    1    2  502  501  0.23523347800E+01  0.41810263175E+02  0.66867748884E+02  0.78898209273E+02  0.00000000000E+00 0.  1.
<mgrwt>
<rscale>  1 0.13183010E+03</rscale>
<asrwt>0</asrwt>
<pdfrwt beam="2">  1        4 0.20650618E-02 0.13183010E+03</pdfrwt>
<pdfrwt beam="1">  1       -4 0.10144758E+00 0.13183010E+03</pdfrwt>
<totfact> 0.13145116E+03</totfact>
</mgrwt>
</event>
<event>
 6    4  0.5642870E-004  0.1280869E+03  0.7818608E-02  0.1230322E+00
          4   -1    0    0  502    0  0.00000000000E+00  0.00000000000E+00  0.77491462220E+02  0.77501868474E+02  0.12700000000E+01 0. -1.
         -4   -1    0    0    0  501 -0.00000000000E+00 -0.00000000000E+00 -0.16690321989E+03  0.16690805166E+03  0.12700000000E+01 0. -1.
         25    2    1    2    0    0 -0.18051413718E+02  0.21350114233E+02 -0.13804345689E+03  0.18831426001E+03  0.12499833446E+03 0.  0.
    9000005    1    3    3    0    0 -0.67920309413E+02  0.16286672541E+02 -0.46418208730E+02  0.83869387949E+02  0.10000000000E+01 0.  0.
    9000005    1    3    3    0    0  0.49868895696E+02  0.50634416928E+01 -0.91625248164E+02  0.10444487207E+03  0.10000000000E+01 0.  0.
         21    1    1    2  502  501  0.18051413718E+02 -0.21350114233E+02  0.48631699224E+02  0.56095660121E+02  0.00000000000E+00 0. -1.
<mgrwt>
<rscale>  1 0.12808694E+03</rscale>
<asrwt>0</asrwt>
<pdfrwt beam="1">  1        4 0.11922936E-01 0.12808694E+03</pdfrwt>
<pdfrwt beam="2">  1       -4 0.25678591E-01 0.12808694E+03</pdfrwt>
<totfact> 0.13030632E+03</totfact>
</mgrwt>
</event>
<event>
 6    4  0.5642870E-004  0.1305997E+03  0.7818608E-02  0.1226569E+00
         -4   -1    0    0    0  501 -0.00000000000E+00  0.00000000000E+00  0.29612834630E+03  0.29613106960E+03  0.12700000000E+01 0. -1.
          4   -1    0    0  502    0  0.00000000000E+00 -0.00000000000E+00 -0.32822932587E+02  0.32847493110E+02  0.12700000000E+01 0. -1.
         25    2    1    2    0    0  0.86916726920E+01  0.36792850370E+02  0.26008821371E+03  0.29103637790E+03  0.12500814108E+03 0.  0.
    9000005    1    3    3    0    0 -0.51870906500E+02 -0.10085067440E+02  0.87618056480E+02  0.10232410932E+03  0.10000000000E+01 0.  0.
    9000005    1    3    3    0    0  0.60562579192E+02  0.46877917810E+02  0.17247015723E+03  0.18871226858E+03  0.10000000000E+01 0.  0.
         21    1    1    2  502  501 -0.86916726920E+01 -0.36792850370E+02  0.32172000003E+01  0.37942184813E+02  0.00000000000E+00 0. -1.
<mgrwt>
<rscale>  1 0.13059975E+03</rscale>
<asrwt>0</asrwt>
<pdfrwt beam="2">  1        4 0.50517808E-02 0.13059975E+03</pdfrwt>
<pdfrwt beam="1">  1       -4 0.45560305E-01 0.13059975E+03</pdfrwt>
<totfact> 0.17965627E+03</totfact>
</mgrwt>
</event>
<event>
 6    4  0.5642870E-004  0.1272791E+03  0.7818608E-02  0.1231550E+00
          4   -1    0    0  502    0  0.00000000000E+00  0.00000000000E+00  0.30279499247E+03  0.30279765581E+03  0.12700000000E+01 0.  1.
         -4   -1    0    0    0  501 -0.00000000000E+00 -0.00000000000E+00 -0.19977691372E+02  0.20018018198E+02  0.12700000000E+01 0.  1.
         25    2    1    2    0    0  0.23875962871E+02 -0.22847428554E+01  0.26105094775E+03  0.29042654325E+03  0.12499879221E+03 0.  0.
    9000005    1    3    3    0    0  0.47373463986E+01 -0.62564406431E+02  0.10951562868E+03  0.12621973035E+03  0.10000000000E+01 0.  0.
    9000005    1    3    3    0    0  0.19138616472E+02  0.60279663576E+02  0.15153531906E+03  0.16420681291E+03  0.10000000000E+01 0.  0.
         21    1    1    2  502  501 -0.23875962871E+02  0.22847428554E+01  0.21766353351E+02  0.32389130756E+02  0.00000000000E+00 0.  1.
<mgrwt>
<rscale>  1 0.12727914E+03</rscale>
<asrwt>0</asrwt>
<pdfrwt beam="1">  1        4 0.46587145E-01 0.12727914E+03</pdfrwt>
<pdfrwt beam="2">  1       -4 0.30767984E-02 0.12727914E+03</pdfrwt>
<totfact> 0.37485029E+03</totfact>
</mgrwt>
</event>
<event>
 6    4  0.5642870E-004  0.1278977E+03  0.7818608E-02  0.1230609E+00
          4   -1    0    0  502    0  0.00000000000E+00  0.00000000000E+00  0.39676856496E+01  0.41659848072E+01  0.12700000000E+01 0.  1.
         -4   -1    0    0    0  501 -0.00000000000E+00 -0.00000000000E+00 -0.14772585582E+04  0.14772591041E+04  0.12700000000E+01 0.  1.
         25    2    1    2    0    0 -0.26759022924E+02  0.42161634873E+01 -0.12022350332E+04  0.12090189778E+04  0.12499596881E+03 0.  0.
    9000005    1    3    3    0    0 -0.35466664494E+02  0.23843101541E+02 -0.11667392898E+04  0.11675221403E+04  0.10000000000E+01 0.  0.
    9000005    1    3    3    0    0  0.87076415700E+01 -0.19626938054E+02 -0.35495743420E+02  0.41496837470E+02  0.10000000000E+01 0.  0.
         21    1    1    2  502  501  0.26759022924E+02 -0.42161634873E+01 -0.27105583928E+03  0.27240611107E+03  0.00000000000E+00 0. -1.
<mgrwt>
<rscale>  1 0.12789767E+03</rscale>
<asrwt>0</asrwt>
<pdfrwt beam="1">  1        4 0.62571013E-03 0.12789767E+03</pdfrwt>
<pdfrwt beam="2">  1       -4 0.22728542E+00 0.12789767E+03</pdfrwt>
<totfact> 0.97455591E+02</totfact>
</mgrwt>
</event>
<event>
 6    4  0.5642870E-004  0.1270293E+03  0.7818608E-02  0.1231931E+00
         -4   -1    0    0    0  501 -0.00000000000E+00  0.00000000000E+00  0.31387648064E+03  0.31387904995E+03  0.12700000000E+01 0. -1.
          4   -1    0    0  502    0  0.00000000000E+00 -0.00000000000E+00 -0.19143568197E+02  0.19185648368E+02  0.12700000000E+01 0. -1.
         25    2    1    2    0    0  0.70776389277E+01 -0.21507575865E+02  0.27542707176E+03  0.30330929080E+03  0.12499514084E+03 0.  0.
    9000005    1    3    3    0    0  0.16362743564E+02  0.28964906957E+02  0.12712636189E+02  0.35627465961E+02  0.10000000000E+01 0.  0.
    9000005    1    3    3    0    0 -0.92851046363E+01 -0.50472482821E+02  0.26271443557E+03  0.26768182484E+03  0.10000000000E+01 0.  0.
         21    1    1    2  502  501 -0.70776389277E+01  0.21507575865E+02  0.19305840685E+02  0.29755407524E+02  0.00000000000E+00 0.  1.
<mgrwt>
<rscale>  1 0.12702934E+03</rscale>
<asrwt>0</asrwt>
<pdfrwt beam="2">  1        4 0.29485987E-02 0.12702934E+03</pdfrwt>
<pdfrwt beam="1">  1       -4 0.48292127E-01 0.12702934E+03</pdfrwt>
<totfact> 0.37246206E+03</totfact>
</mgrwt>
</event>
<event>
 6    4  0.5642870E-004  0.1274211E+03  0.7818608E-02  0.1231333E+00
         -4   -1    0    0    0  501 -0.00000000000E+00  0.00000000000E+00  0.33110674679E+02  0.33135021921E+02  0.12700000000E+01 0. -1.
          4   -1    0    0  502    0  0.00000000000E+00 -0.00000000000E+00 -0.17519601583E+03  0.17520061890E+03  0.12700000000E+01 0. -1.
         25    2    1    2    0    0 -0.22828322699E+02  0.95418044303E+01 -0.11488290321E+03  0.17156403521E+03  0.12499583345E+03 0.  0.
    9000005    1    3    3    0    0  0.37321788801E+02  0.10946261038E+02 -0.10316667334E+03  0.11025923561E+03  0.10000000000E+01 0.  0.
    9000005    1    3    3    0    0 -0.60150111500E+02 -0.14044566076E+01 -0.11716229874E+02  0.61304799603E+02  0.10000000000E+01 0.  0.
         21    1    1    2  502  501  0.22828322699E+02 -0.95418044303E+01 -0.27202437939E+02  0.36771605607E+02  0.00000000000E+00 0. -1.
<mgrwt>
<rscale>  1 0.12742110E+03</rscale>
<asrwt>0</asrwt>
<pdfrwt beam="2">  1        4 0.26955460E-01 0.12742110E+03</pdfrwt>
<pdfrwt beam="1">  1       -4 0.50961770E-02 0.12742110E+03</pdfrwt>
<totfact> 0.48494542E+03</totfact>
</mgrwt>
</event>
<event>
 6    4  0.5642870E-004  0.1308485E+03  0.7818608E-02  0.1226202E+00
         -4   -1    0    0    0  501 -0.00000000000E+00  0.00000000000E+00  0.23584988612E+02  0.23619157221E+02  0.12700000000E+01 0.  1.
          4   -1    0    0  502    0  0.00000000000E+00 -0.00000000000E+00 -0.30670780280E+03  0.30671043217E+03  0.12700000000E+01 0.  1.
         25    2    1    2    0    0  0.18770136654E+02 -0.33828705085E+02 -0.20592683581E+03  0.24398192934E+03  0.12499848327E+03 0.  0.
    9000005    1    3    3    0    0 -0.40903889490E+01  0.13089342340E+02 -0.18842408549E+03  0.18892511256E+03  0.10000000000E+01 0.  0.
    9000005    1    3    3    0    0  0.22860525603E+02 -0.46918047425E+02 -0.17502750324E+02  0.55056816780E+02  0.10000000000E+01 0.  0.
         21    1    1    2  502  501 -0.18770136654E+02  0.33828705085E+02 -0.77195978381E+02  0.86347660049E+02  0.00000000000E+00 0.  1.
<mgrwt>
<rscale>  1 0.13084846E+03</rscale>
<asrwt>0</asrwt>
<pdfrwt beam="2">  1        4 0.47188644E-01 0.13084846E+03</pdfrwt>
<pdfrwt beam="1">  1       -4 0.36312906E-02 0.13084846E+03</pdfrwt>
<totfact> 0.28338048E+03</totfact>
</mgrwt>
</event>
<event>
 6    4  0.5642870E-004  0.1275008E+03  0.7818608E-02  0.1231212E+00
         -4   -1    0    0    0  501 -0.00000000000E+00  0.00000000000E+00  0.62817389231E+02  0.62830225925E+02  0.12700000000E+01 0.  1.
          4   -1    0    0  502    0  0.00000000000E+00 -0.00000000000E+00 -0.14303071102E+03  0.14303634921E+03  0.12700000000E+01 0.  1.
         25    2    1    2    0    0 -0.65628676541E+01  0.24284759958E+02 -0.61515646255E+01  0.12764915590E+03  0.12499457770E+03 0.  0.
    9000005    1    3    3    0    0  0.35906679754E+02 -0.18628088963E+02  0.35877586143E+02  0.54078614413E+02  0.10000000000E+01 0.  0.
    9000005    1    3    3    0    0 -0.42469547408E+02  0.42912848922E+02 -0.42029150769E+02  0.73570541482E+02  0.10000000000E+01 0.  0.
         21    1    1    2  502  501  0.65628676541E+01 -0.24284759958E+02 -0.74061757165E+02  0.78217419239E+02  0.00000000000E+00 0.  1.
<mgrwt>
<rscale>  1 0.12750084E+03</rscale>
<asrwt>0</asrwt>
<pdfrwt beam="2">  1        4 0.22006146E-01 0.12750084E+03</pdfrwt>
<pdfrwt beam="1">  1       -4 0.96656349E-02 0.12750084E+03</pdfrwt>
<totfact> 0.24639371E+03</totfact>
</mgrwt>
</event>
<event>
 6    4  0.5642870E-004  0.1269895E+03  0.7818608E-02  0.1231992E+00
          4   -1    0    0  502    0  0.00000000000E+00  0.00000000000E+00  0.72017089253E+02  0.72028286419E+02  0.12700000000E+01 0.  1.
         -4   -1    0    0    0  501 -0.00000000000E+00 -0.00000000000E+00 -0.84414297519E+02  0.84423850455E+02  0.12700000000E+01 0.  1.
         25    2    1    2    0    0 -0.13000786282E+02 -0.18221135179E+02 -0.26864682352E+02  0.12979996965E+03  0.12500116301E+03 0.  0.
    9000005    1    3    3    0    0 -0.41428207746E+02  0.37316502457E+02  0.10959898483E+02  0.56832535817E+02  0.10000000000E+01 0.  0.
    9000005    1    3    3    0    0  0.28427421464E+02 -0.55537637636E+02 -0.37824580835E+02  0.72967433836E+02  0.10000000000E+01 0.  0.
         21    1    1    2  502  501  0.13000786282E+02  0.18221135179E+02  0.14467474086E+02  0.26652167222E+02  0.00000000000E+00 0.  1.
<mgrwt>
<rscale>  1 0.12698945E+03</rscale>
<asrwt>0</asrwt>
<pdfrwt beam="1">  1        4 0.11081148E-01 0.12698945E+03</pdfrwt>
<pdfrwt beam="2">  1       -4 0.12988411E-01 0.12698945E+03</pdfrwt>
<totfact> 0.49589085E+03</totfact>
</mgrwt>
</event>
<event>
 6    4  0.5642870E-004  0.1270004E+03  0.7818608E-02  0.1231976E+00
          4   -1    0    0  502    0  0.00000000000E+00  0.00000000000E+00  0.98892448409E+02  0.98900602892E+02  0.12700000000E+01 0. -1.
         -4   -1    0    0    0  501 -0.00000000000E+00 -0.00000000000E+00 -0.65821696973E+02  0.65833947872E+02  0.12700000000E+01 0. -1.
         25    2    1    2    0    0 -0.93325387933E+01 -0.20414402653E+02  0.27765912129E+01  0.12703070136E+03  0.12500098205E+03 0.  0.
    9000005    1    3    3    0    0 -0.28443026670E+02 -0.63726229018E+02 -0.22532729667E+02  0.73340043205E+02  0.10000000000E+01 0.  0.
    9000005    1    3    3    0    0  0.19110487877E+02  0.43311826365E+02  0.25309320880E+02  0.53690658158E+02  0.10000000000E+01 0.  0.
         21    1    1    2  502  501  0.93325387933E+01  0.20414402653E+02  0.30294160223E+02  0.37703849401E+02  0.00000000000E+00 0. -1.
<mgrwt>
<rscale>  1 0.12700035E+03</rscale>
<asrwt>0</asrwt>
<pdfrwt beam="1">  1        4 0.15215792E-01 0.12700035E+03</pdfrwt>
<pdfrwt beam="2">  1       -4 0.10127985E-01 0.12700035E+03</pdfrwt>
<totfact> 0.43883260E+03</totfact>
</mgrwt>
</event>
<event>
 6    4  0.5642870E-004  0.1269154E+03  0.7818608E-02  0.1232106E+00
         -4   -1    0    0    0  501 -0.00000000000E+00  0.00000000000E+00  0.28118502963E+03  0.28118789766E+03  0.12700000000E+01 0. -1.
          4   -1    0    0  502    0  0.00000000000E+00 -0.00000000000E+00 -0.19954480716E+02  0.19994854354E+02  0.12700000000E+01 0. -1.
         25    2    1    2    0    0  0.18936931930E+02 -0.11131656644E+02  0.23394690471E+03  0.26615535685E+03  0.12499999435E+03 0.  0.
    9000005    1    3    3    0    0  0.65829396219E+02 -0.33896388314E+02  0.12302473673E+03  0.14359164459E+03  0.10000000000E+01 0.  0.
    9000005    1    3    3    0    0 -0.46892464288E+02  0.22764731670E+02  0.11092216798E+03  0.12256371226E+03  0.10000000000E+01 0.  0.
         21    1    1    2  502  501 -0.18936931930E+02  0.11131656644E+02  0.27283644210E+02  0.35027395164E+02  0.00000000000E+00 0. -1.
<mgrwt>
<rscale>  1 0.12691540E+03</rscale>
<asrwt>0</asrwt>
<pdfrwt beam="2">  1        4 0.30732465E-02 0.12691540E+03</pdfrwt>
<pdfrwt beam="1">  1       -4 0.43262560E-01 0.12691540E+03</pdfrwt>
<totfact> 0.43514972E+03</totfact>
</mgrwt>
</event>
<event>
 6    4  0.5642870E-004  0.1384503E+03  0.7818608E-02  0.1215430E+00
          4   -1    0    0  502    0  0.00000000000E+00  0.00000000000E+00  0.13863969218E+02  0.13922016466E+02  0.12700000000E+01 0. -1.
         -4   -1    0    0    0  501 -0.00000000000E+00 -0.00000000000E+00 -0.98657041340E+03  0.98657123082E+03  0.12700000000E+01 0. -1.
         25    2    1    2    0    0 -0.59201780332E+02  0.60289877743E+01 -0.87651928967E+03  0.88738635899E+03  0.12500914155E+03 0.  0.
    9000005    1    3    3    0    0  0.17037261035E+02  0.14202527766E+02 -0.29596222251E+02  0.36998870659E+02  0.10000000000E+01 0.  0.
    9000005    1    3    3    0    0 -0.76239041366E+02 -0.81735399921E+01 -0.84692306742E+03  0.85038748834E+03  0.10000000000E+01 0.  0.
         21    1    1    2  502  501  0.59201780332E+02 -0.60289877743E+01 -0.96187154504E+02  0.11310688829E+03  0.00000000000E+00 0. -1.
<mgrwt>
<rscale>  1 0.13845030E+03</rscale>
<asrwt>0</asrwt>
<pdfrwt beam="1">  1        4 0.21374472E-02 0.13845030E+03</pdfrwt>
<pdfrwt beam="2">  1       -4 0.15178454E+00 0.13845030E+03</pdfrwt>
<totfact> 0.47337402E+02</totfact>
</mgrwt>
</event>
<event>
 6    4  0.5642870E-004  0.1315390E+03  0.7818608E-02  0.1225190E+00
          4   -1    0    0  502    0  0.00000000000E+00  0.00000000000E+00  0.56491560386E+03  0.56491703142E+03  0.12700000000E+01 0. -1.
         -4   -1    0    0    0  501 -0.00000000000E+00 -0.00000000000E+00 -0.14924414643E+02  0.14978352795E+02  0.12700000000E+01 0. -1.
         25    2    1    2    0    0 -0.36767340804E+02 -0.18048750857E+02  0.48932896520E+03  0.50670043781E+03  0.12499961091E+03 0.  0.
    9000005    1    3    3    0    0 -0.79507363343E+02 -0.33198694203E+02  0.32435115721E+03  0.33560132197E+03  0.10000000000E+01 0.  0.
    9000005    1    3    3    0    0  0.42740022539E+02  0.15149943347E+02  0.16497780799E+03  0.17109911584E+03  0.10000000000E+01 0.  0.
         21    1    1    2  502  501  0.36767340804E+02  0.18048750857E+02  0.60662224015E+02  0.73194946408E+02  0.00000000000E+00 0. -1.
<mgrwt>
<rscale>  1 0.13153896E+03</rscale>
<asrwt>0</asrwt>
<pdfrwt beam="1">  1        4 0.86914346E-01 0.13153896E+03</pdfrwt>
<pdfrwt beam="2">  1       -4 0.23003228E-02 0.13153896E+03</pdfrwt>
<totfact> 0.15819289E+03</totfact>
</mgrwt>
</event>
<event>
 6    4  0.5642870E-004  0.1279725E+03  0.7818608E-02  0.1230496E+00
         -4   -1    0    0    0  501 -0.00000000000E+00  0.00000000000E+00  0.29506189210E+02  0.29533508117E+02  0.12700000000E+01 0.  1.
          4   -1    0    0  502    0  0.00000000000E+00 -0.00000000000E+00 -0.63337673460E+03  0.63337800785E+03  0.12700000000E+01 0.  1.
         25    2    1    2    0    0  0.22856592605E+02  0.15131522906E+02 -0.11136598080E+03  0.16964471904E+03  0.12500224881E+03 0.  0.
    9000005    1    3    3    0    0  0.62685821319E+02  0.17189066234E+02 -0.11227796604E+03  0.12973942288E+03  0.10000000000E+01 0.  0.
    9000005    1    3    3    0    0 -0.39829228713E+02 -0.20575433274E+01  0.91198523869E+00  0.39905296159E+02  0.10000000000E+01 0.  0.
         21    1    1    2  502  501 -0.22856592605E+02 -0.15131522906E+02 -0.49250456459E+03  0.49326679693E+03  0.00000000000E+00 0.  1.
<mgrwt>
<rscale>  1 0.12797245E+03</rscale>
<asrwt>0</asrwt>
<pdfrwt beam="2">  1        4 0.97444764E-01 0.12797245E+03</pdfrwt>
<pdfrwt beam="1">  1       -4 0.45416136E-02 0.12797245E+03</pdfrwt>
<totfact> 0.41679339E+02</totfact>
</mgrwt>
</event>
<event>
 6    4  0.5642870E-004  0.1274357E+03  0.7818608E-02  0.1231311E+00
         -4   -1    0    0    0  501 -0.00000000000E+00  0.00000000000E+00  0.22326455916E+03  0.22326817121E+03  0.12700000000E+01 0. -1.
          4   -1    0    0  502    0  0.00000000000E+00 -0.00000000000E+00 -0.42267311113E+02  0.42286386565E+02  0.12700000000E+01 0. -1.
         25    2    1    2    0    0 -0.20931099490E+02 -0.13295207711E+02  0.19801656481E+03  0.23547914229E+03  0.12499997215E+03 0.  0.
    9000005    1    3    3    0    0 -0.70443516869E+02 -0.27737810219E+02  0.12306969997E+03  0.14449507339E+03  0.10000000000E+01 0.  0.
    9000005    1    3    3    0    0  0.49512417380E+02  0.14442602508E+02  0.74946864844E+02  0.90984068891E+02  0.10000000000E+01 0.  0.
         21    1    1    2  502  501  0.20931099490E+02  0.13295207711E+02 -0.17019316766E+02  0.30075415493E+02  0.00000000000E+00 0. -1.
<mgrwt>
<rscale>  1 0.12743573E+03</rscale>
<asrwt>0</asrwt>
<pdfrwt beam="2">  1        4 0.65044083E-02 0.12743573E+03</pdfrwt>
<pdfrwt beam="1">  1       -4 0.34350139E-01 0.12743573E+03</pdfrwt>
<totfact> 0.20655337E+03</totfact>
</mgrwt>
</event>
<event>
 6    4  0.5642870E-004  0.1267209E+03  0.7818608E-02  0.1232404E+00
          4   -1    0    0  502    0  0.00000000000E+00  0.00000000000E+00  0.16881853332E+03  0.16882331027E+03  0.12700000000E+01 0.  1.
         -4   -1    0    0    0  501 -0.00000000000E+00 -0.00000000000E+00 -0.33767158707E+02  0.33791032940E+02  0.12700000000E+01 0.  1.
         25    2    1    2    0    0 -0.77559244531E+01 -0.19308604489E+02  0.12926144076E+03  0.18101573433E+03  0.12500079775E+03 0.  0.
    9000005    1    3    3    0    0  0.70941432867E+00 -0.14259156004E+02  0.15384581420E+03  0.15451006875E+03  0.10000000000E+01 0.  0.
    9000005    1    3    3    0    0 -0.84653387817E+01 -0.50494484841E+01 -0.24584373439E+02  0.26505665584E+02  0.10000000000E+01 0.  0.
         21    1    1    2  502  501  0.77559244531E+01  0.19308604489E+02  0.57899338475E+01  0.21598608876E+02  0.00000000000E+00 0. -1.
<mgrwt>
<rscale>  1 0.12672086E+03</rscale>
<asrwt>0</asrwt>
<pdfrwt beam="1">  1        4 0.25974287E-01 0.12672086E+03</pdfrwt>
<pdfrwt beam="2">  1       -4 0.51971513E-02 0.12672086E+03</pdfrwt>
<totfact> 0.50266963E+03</totfact>
</mgrwt>
</event>
<event>
 6    4  0.5642870E-004  0.1270151E+03  0.7818608E-02  0.1231953E+00
          4   -1    0    0  502    0  0.00000000000E+00  0.00000000000E+00  0.68167553660E+03  0.68167671964E+03  0.12700000000E+01 0.  1.
         -4   -1    0    0    0  501 -0.00000000000E+00 -0.00000000000E+00 -0.30573759279E+02  0.30600125105E+02  0.12700000000E+01 0.  1.
         25    2    1    2    0    0  0.99378453192E+01  0.20214438250E+02  0.10250553598E+03  0.16321835943E+03  0.12500185464E+03 0.  0.
    9000005    1    3    3    0    0 -0.22604212315E+02 -0.45857446246E+02  0.27367557448E+02  0.57998611977E+02  0.10000000000E+01 0.  0.
    9000005    1    3    3    0    0  0.32542057634E+02  0.66071884496E+02  0.75137978529E+02  0.10521974745E+03  0.10000000000E+01 0.  0.
         21    1    1    2  502  501 -0.99378453192E+01 -0.20214438250E+02  0.54859624134E+03  0.54905848531E+03  0.00000000000E+00 0.  1.
<mgrwt>
<rscale>  1 0.12701515E+03</rscale>
<asrwt>0</asrwt>
<pdfrwt beam="1">  1        4 0.10487527E+00 0.12701515E+03</pdfrwt>
<pdfrwt beam="2">  1       -4 0.47057746E-02 0.12701515E+03</pdfrwt>
<totfact> 0.33168005E+02</totfact>
</mgrwt>
</event>
<event>
 6    4  0.5642870E-004  0.1278247E+03  0.7818608E-02  0.1230720E+00
         -4   -1    0    0    0  501 -0.00000000000E+00  0.00000000000E+00  0.26183398924E+03  0.26183706922E+03  0.12700000000E+01 0.  1.
          4   -1    0    0  502    0  0.00000000000E+00 -0.00000000000E+00 -0.44178056173E+02  0.44196306941E+02  0.12700000000E+01 0.  1.
         25    2    1    2    0    0  0.25508590506E+01  0.26552165650E+02  0.23955256488E+03  0.27152269857E+03  0.12501048003E+03 0.  0.
    9000005    1    3    3    0    0 -0.11616092460E+00 -0.21783265320E+02 -0.48756147322E+01  0.22344926950E+02  0.10000000000E+01 0.  0.
    9000005    1    3    3    0    0  0.26670199752E+01  0.48335430970E+02  0.24442817961E+03  0.24917777163E+03  0.10000000000E+01 0.  0.
         21    1    1    2  502  501 -0.25508590506E+01 -0.26552165650E+02 -0.21896631820E+02  0.34510677589E+02  0.00000000000E+00 0. -1.
<mgrwt>
<rscale>  1 0.12782466E+03</rscale>
<asrwt>0</asrwt>
<pdfrwt beam="2">  1        4 0.67982648E-02 0.12782466E+03</pdfrwt>
<pdfrwt beam="1">  1       -4 0.40283793E-01 0.12782466E+03</pdfrwt>
<totfact> 0.14106497E+03</totfact>
</mgrwt>
</event>
<event>
 6    4  0.5642870E-004  0.1372641E+03  0.7818608E-02  0.1217059E+00
          4   -1    0    0  502    0  0.00000000000E+00  0.00000000000E+00  0.91075646118E+01  0.91956855731E+01  0.12700000000E+01 0. -1.
         -4   -1    0    0    0  501 -0.00000000000E+00 -0.00000000000E+00 -0.10419703161E+04  0.10419710901E+04  0.12700000000E+01 0. -1.
         25    2    1    2    0    0  0.43807272673E+01 -0.56542346514E+02 -0.67209361760E+03  0.68596738396E+03  0.12500077324E+03 0.  0.
    9000005    1    3    3    0    0 -0.51742237624E+02 -0.74623225984E+01 -0.41495688689E+03  0.41823816587E+03  0.10000000000E+01 0.  0.
    9000005    1    3    3    0    0  0.56122964891E+02 -0.49080023916E+02 -0.25713673071E+03  0.26772921809E+03  0.10000000000E+01 0.  0.
         21    1    1    2  502  501 -0.43807272673E+01  0.56542346514E+02 -0.36076913390E+03  0.36519939170E+03  0.00000000000E+00 0. -1.
<mgrwt>
<rscale>  1 0.13726406E+03</rscale>
<asrwt>0</asrwt>
<pdfrwt beam="1">  1        4 0.14080027E-02 0.13726406E+03</pdfrwt>
<pdfrwt beam="2">  1       -4 0.16030987E+00 0.13726406E+03</pdfrwt>
<totfact> 0.77832930E+02</totfact>
</mgrwt>
</event>
<event>
 6    4  0.5642870E-004  0.1267197E+03  0.7818608E-02  0.1232406E+00
         -4   -1    0    0    0  501 -0.00000000000E+00  0.00000000000E+00  0.15295864158E+02  0.15348497006E+02  0.12700000000E+01 0. -1.
          4   -1    0    0  502    0  0.00000000000E+00 -0.00000000000E+00 -0.38919322956E+03  0.38919530166E+03  0.12700000000E+01 0. -1.
         25    2    1    2    0    0 -0.19997971290E+02 -0.56701281401E+01 -0.35305620788E+03  0.37510873360E+03  0.12500322751E+03 0.  0.
    9000005    1    3    3    0    0 -0.47986693954E+02 -0.51427005958E+02 -0.16092691639E+03  0.17563010038E+03  0.10000000000E+01 0.  0.
    9000005    1    3    3    0    0  0.27988722664E+02  0.45756877818E+02 -0.19212929149E+03  0.19947863322E+03  0.10000000000E+01 0.  0.
         21    1    1    2  502  501  0.19997971290E+02  0.56701281401E+01 -0.20841157520E+02  0.29435065069E+02  0.00000000000E+00 0. -1.
<mgrwt>
<rscale>  1 0.12671968E+03</rscale>
<asrwt>0</asrwt>
<pdfrwt beam="2">  1        4 0.59880082E-01 0.12671968E+03</pdfrwt>
<pdfrwt beam="1">  1       -4 0.23574182E-02 0.12671968E+03</pdfrwt>
<totfact> 0.33859263E+03</totfact>
</mgrwt>
</event>
<event>
 6    4  0.5642870E-004  0.1275385E+03  0.7818608E-02  0.1231154E+00
         -4   -1    0    0    0  501 -0.00000000000E+00  0.00000000000E+00  0.20710321623E+03  0.20710711015E+03  0.12700000000E+01 0.  1.
          4   -1    0    0  502    0  0.00000000000E+00 -0.00000000000E+00 -0.14629277416E+03  0.14629828663E+03  0.12700000000E+01 0.  1.
         25    2    1    2    0    0 -0.36672293416E+01  0.25057190744E+02  0.18608528455E+03  0.22559656478E+03  0.12499906213E+03 0.  0.
    9000005    1    3    3    0    0  0.40328590925E+02  0.32484151483E+02  0.17070772243E+03  0.17839210139E+03  0.10000000000E+01 0.  0.
    9000005    1    3    3    0    0 -0.43995820267E+02 -0.74269607386E+01  0.15377562128E+02  0.47204463388E+02  0.10000000000E+01 0.  0.
         21    1    1    2  502  501  0.36672293416E+01 -0.25057190744E+02 -0.12527484248E+03  0.12780883200E+03  0.00000000000E+00 0.  1.
<mgrwt>
<rscale>  1 0.12753853E+03</rscale>
<asrwt>0</asrwt>
<pdfrwt beam="2">  1        4 0.22507304E-01 0.12753853E+03</pdfrwt>
<pdfrwt beam="1">  1       -4 0.31862757E-01 0.12753853E+03</pdfrwt>
<totfact> 0.28374476E+02</totfact>
</mgrwt>
</event>
<event>
 6    4  0.5642870E-004  0.1271704E+03  0.7818608E-02  0.1231716E+00
         -4   -1    0    0    0  501 -0.00000000000E+00  0.00000000000E+00  0.34561861466E+02  0.34585187118E+02  0.12700000000E+01 0. -1.
          4   -1    0    0  502    0  0.00000000000E+00 -0.00000000000E+00 -0.17148042432E+03  0.17148512712E+03  0.12700000000E+01 0. -1.
         25    2    1    2    0    0 -0.18304385025E+02  0.14549242490E+02 -0.97527136423E+02  0.16026184947E+03  0.12500234834E+03 0.  0.
    9000005    1    3    3    0    0  0.29063313993E+02 -0.32939391090E+02 -0.79444905757E+02  0.90786412840E+02  0.10000000000E+01 0.  0.
    9000005    1    3    3    0    0 -0.47367699018E+02  0.47488633580E+02 -0.18082230666E+02  0.69475436633E+02  0.10000000000E+01 0.  0.
         21    1    1    2  502  501  0.18304385025E+02 -0.14549242490E+02 -0.39391426427E+02  0.45808464765E+02  0.00000000000E+00 0. -1.
<mgrwt>
<rscale>  1 0.12717043E+03</rscale>
<asrwt>0</asrwt>
<pdfrwt beam="2">  1        4 0.26383759E-01 0.12717043E+03</pdfrwt>
<pdfrwt beam="1">  1       -4 0.53193656E-02 0.12717043E+03</pdfrwt>
<totfact> 0.47078564E+03</totfact>
</mgrwt>
</event>
<event>
 6    4  0.5642870E-004  0.1278435E+03  0.7818608E-02  0.1230691E+00
         -4   -1    0    0    0  501 -0.00000000000E+00  0.00000000000E+00  0.55192060105E+02  0.55206669874E+02  0.12700000000E+01 0. -1.
          4   -1    0    0  502    0  0.00000000000E+00 -0.00000000000E+00 -0.11104621771E+03  0.11105347977E+03  0.12700000000E+01 0. -1.
         25    2    1    2    0    0 -0.21444106173E+02  0.16099458027E+02 -0.35756889663E+02  0.13274981665E+03  0.12499966570E+03 0.  0.
    9000005    1    3    3    0    0 -0.39000952914E+02 -0.10268884135E+01  0.38330105305E+02  0.54702155357E+02  0.10000000000E+01 0.  0.
    9000005    1    3    3    0    0  0.17556846741E+02  0.17126346441E+02 -0.74086994968E+02  0.78047661293E+02  0.10000000000E+01 0.  0.
         21    1    1    2  502  501  0.21444106173E+02 -0.16099458027E+02 -0.20097267945E+02  0.33510332991E+02  0.00000000000E+00 0. -1.
<mgrwt>
<rscale>  1 0.12784349E+03</rscale>
<asrwt>0</asrwt>
<pdfrwt beam="2">  1        4 0.17085716E-01 0.12784349E+03</pdfrwt>
<pdfrwt beam="1">  1       -4 0.84927686E-02 0.12784349E+03</pdfrwt>
<totfact> 0.48144928E+03</totfact>
</mgrwt>
</event>
<event>
 6    4  0.5642870E-004  0.1315401E+03  0.7818608E-02  0.1225188E+00
         -4   -1    0    0    0  501 -0.00000000000E+00  0.00000000000E+00  0.19164304159E+03  0.19164724963E+03  0.12700000000E+01 0. -1.
          4   -1    0    0  502    0  0.00000000000E+00 -0.00000000000E+00 -0.14503325421E+03  0.14503881456E+03  0.12700000000E+01 0. -1.
         25    2    1    2    0    0  0.42315575034E+01 -0.40730225821E+02  0.16523032189E+03  0.21119626945E+03  0.12500379027E+03 0.  0.
    9000005    1    3    3    0    0  0.20560325554E+02 -0.81500086408E+02  0.83929677815E+02  0.11878628662E+03  0.10000000000E+01 0.  0.
    9000005    1    3    3    0    0 -0.16328768051E+02  0.40769860586E+02  0.81300644076E+02  0.92409982824E+02  0.10000000000E+01 0.  0.
         21    1    1    2  502  501 -0.42315575034E+01  0.40730225821E+02 -0.11862053452E+03  0.12548979474E+03  0.00000000000E+00 0. -1.
<mgrwt>
<rscale>  1 0.13154013E+03</rscale>
<asrwt>0</asrwt>
<pdfrwt beam="2">  1        4 0.22313560E-01 0.13154013E+03</pdfrwt>
<pdfrwt beam="1">  1       -4 0.29484296E-01 0.13154013E+03</pdfrwt>
<totfact> 0.33584565E+02</totfact>
</mgrwt>
</event>
<event>
 6    4  0.5642870E-004  0.1266059E+03  0.7818608E-02  0.1232581E+00
         -4   -1    0    0    0  501 -0.00000000000E+00  0.00000000000E+00  0.25206938405E+02  0.25238911303E+02  0.12700000000E+01 0.  1.
          4   -1    0    0  502    0  0.00000000000E+00 -0.00000000000E+00 -0.21986115004E+03  0.21986481801E+03  0.12700000000E+01 0.  1.
         25    2    1    2    0    0 -0.16225561717E+02 -0.11901153338E+02 -0.18060916675E+03  0.22056458528E+03  0.12499663541E+03 0.  0.
    9000005    1    3    3    0    0  0.25737568415E+01  0.25127191025E+02  0.87137545064E+01  0.26738165059E+02  0.10000000000E+01 0.  0.
    9000005    1    3    3    0    0 -0.18799318559E+02 -0.37028344363E+02 -0.18932292125E+03  0.19382642022E+03  0.10000000000E+01 0.  0.
         21    1    1    2  502  501  0.16225561717E+02  0.11901153338E+02 -0.14045044892E+02  0.24539144032E+02  0.00000000000E+00 0. -1.
<mgrwt>
<rscale>  1 0.12660594E+03</rscale>
<asrwt>0</asrwt>
<pdfrwt beam="2">  1        4 0.33827533E-01 0.12660594E+03</pdfrwt>
<pdfrwt beam="1">  1       -4 0.38807323E-02 0.12660594E+03</pdfrwt>
<totfact> 0.48689416E+03</totfact>
</mgrwt>
</event>
<event>
 6    4  0.5642870E-004  0.1268139E+03  0.7818608E-02  0.1232261E+00
         -4   -1    0    0    0  501 -0.00000000000E+00  0.00000000000E+00  0.80635596952E+02  0.80645597498E+02  0.12700000000E+01 0. -1.
          4   -1    0    0  502    0  0.00000000000E+00 -0.00000000000E+00 -0.75685180253E+02  0.75695834825E+02  0.12700000000E+01 0. -1.
         25    2    1    2    0    0  0.12434193898E+02 -0.17382467405E+02  0.22367305278E+02  0.12877138773E+03  0.12500005841E+03 0.  0.
    9000005    1    3    3    0    0  0.35184677231E+02 -0.40253520209E+02 -0.34320978682E+02  0.63539255415E+02  0.10000000000E+01 0.  0.
    9000005    1    3    3    0    0 -0.22750483333E+02  0.22871052803E+02  0.56688283960E+02  0.65232132317E+02  0.10000000000E+01 0.  0.
         21    1    1    2  502  501 -0.12434193898E+02  0.17382467405E+02 -0.17416888579E+02  0.27570044591E+02  0.00000000000E+00 0. -1.
<mgrwt>
<rscale>  1 0.12681393E+03</rscale>
<asrwt>0</asrwt>
<pdfrwt beam="2">  1        4 0.11645463E-01 0.12681393E+03</pdfrwt>
<pdfrwt beam="1">  1       -4 0.12407065E-01 0.12681393E+03</pdfrwt>
<totfact> 0.49282863E+03</totfact>
</mgrwt>
</event>
<event>
 6    4  0.5642870E-004  0.1274823E+03  0.7818608E-02  0.1231240E+00
          4   -1    0    0  502    0  0.00000000000E+00  0.00000000000E+00  0.18930640811E+02  0.18973193235E+02  0.12700000000E+01 0. -1.
         -4   -1    0    0    0  501 -0.00000000000E+00 -0.00000000000E+00 -0.48467185835E+03  0.48467352226E+03  0.12700000000E+01 0. -1.
         25    2    1    2    0    0  0.23567574895E+02 -0.85062294493E+01 -0.46079907299E+03  0.47810828722E+03  0.12499584839E+03 0.  0.
    9000005    1    3    3    0    0  0.20946094025E+02 -0.54217917457E+02 -0.11078293437E+03  0.12510867266E+03  0.10000000000E+01 0.  0.
    9000005    1    3    3    0    0  0.26214808703E+01  0.45711688008E+02 -0.35001613862E+03  0.35299961456E+03  0.10000000000E+01 0.  0.
         21    1    1    2  502  501 -0.23567574895E+02  0.85062294493E+01 -0.49421445513E+01  0.25538428273E+02  0.00000000000E+00 0. -1.
<mgrwt>
<rscale>  1 0.12748235E+03</rscale>
<asrwt>0</asrwt>
<pdfrwt beam="1">  1        4 0.29158079E-02 0.12748235E+03</pdfrwt>
<pdfrwt beam="2">  1       -4 0.74568293E-01 0.12748235E+03</pdfrwt>
<totfact> 0.15244750E+03</totfact>
</mgrwt>
</event>
<event>
 6    4  0.5642870E-004  0.1289997E+03  0.7818608E-02  0.1228948E+00
         -4   -1    0    0    0  501 -0.00000000000E+00  0.00000000000E+00  0.20743928925E+02  0.20782768998E+02  0.12700000000E+01 0. -1.
          4   -1    0    0  502    0  0.00000000000E+00 -0.00000000000E+00 -0.33677200402E+03  0.33677439866E+03  0.12700000000E+01 0. -1.
         25    2    1    2    0    0 -0.31875406615E+02 -0.27390065224E+00 -0.20646991760E+03  0.24345586862E+03  0.12499926609E+03 0.  0.
    9000005    1    3    3    0    0  0.19185583737E+02 -0.48316818581E+02 -0.50655190309E+02  0.72591665405E+02  0.10000000000E+01 0.  0.
    9000005    1    3    3    0    0 -0.51060990352E+02  0.48042917928E+02 -0.15581472729E+03  0.17086420321E+03  0.10000000000E+01 0.  0.
         21    1    1    2  502  501  0.31875406615E+02  0.27390065224E+00 -0.10955815750E+03  0.11410129904E+03  0.00000000000E+00 0. -1.
<mgrwt>
<rscale>  1 0.12899974E+03</rscale>
<asrwt>0</asrwt>
<pdfrwt beam="2">  1        4 0.51814246E-01 0.12899974E+03</pdfrwt>
<pdfrwt beam="1">  1       -4 0.31945458E-02 0.12899974E+03</pdfrwt>
<totfact> 0.28576030E+03</totfact>
</mgrwt>
</event>
<event>
 6    4  0.5642870E-004  0.1415078E+03  0.7818608E-02  0.1211314E+00
          4   -1    0    0  502    0  0.00000000000E+00  0.00000000000E+00  0.13229352390E+02  0.13290171731E+02  0.12700000000E+01 0.  1.
         -4   -1    0    0    0  501 -0.00000000000E+00 -0.00000000000E+00 -0.11029219270E+04  0.11029226582E+04  0.12700000000E+01 0.  1.
         25    2    1    2    0    0 -0.37373658457E+02  0.54880487233E+02 -0.96138072076E+03  0.97173933733E+03  0.12496315949E+03 0.  0.
    9000005    1    3    3    0    0 -0.31051959910E+00  0.20431306841E+02 -0.18749032496E+02  0.27749971913E+02  0.10000000000E+01 0.  0.
    9000005    1    3    3    0    0 -0.37063138858E+02  0.34449180393E+02 -0.94263168827E+03  0.94398936542E+03  0.10000000000E+01 0.  0.
         21    1    1    2  502  501  0.37373658457E+02 -0.54880487233E+02 -0.12831185385E+03  0.14447349260E+03  0.00000000000E+00 0.  1.
<mgrwt>
<rscale>  1 0.14150777E+03</rscale>
<asrwt>0</asrwt>
<pdfrwt beam="1">  1        4 0.20400205E-02 0.14150777E+03</pdfrwt>
<pdfrwt beam="2">  1       -4 0.16968496E+00 0.14150777E+03</pdfrwt>
<totfact> 0.38179290E+02</totfact>
</mgrwt>
</event>
<event>
 6    4  0.5642870E-004  0.1276631E+03  0.7818608E-02  0.1230965E+00
         -4   -1    0    0    0  501 -0.00000000000E+00  0.00000000000E+00  0.40248048251E+02  0.40268080263E+02  0.12700000000E+01 0. -1.
          4   -1    0    0  502    0  0.00000000000E+00 -0.00000000000E+00 -0.17506113996E+03  0.17506574658E+03  0.12700000000E+01 0. -1.
         25    2    1    2    0    0 -0.20279157968E+02  0.16184874525E+02 -0.70166949551E+02  0.14567524440E+03  0.12499872644E+03 0.  0.
    9000005    1    3    3    0    0  0.50186354321E+02  0.68002305638E+01 -0.51355463762E+02  0.72133882150E+02  0.10000000000E+01 0.  0.
    9000005    1    3    3    0    0 -0.70465512288E+02  0.93846439608E+01 -0.18811485789E+02  0.73541362252E+02  0.10000000000E+01 0.  0.
         21    1    1    2  502  501  0.20279157968E+02 -0.16184874525E+02 -0.64646142160E+02  0.69658582439E+02  0.00000000000E+00 0. -1.
<mgrwt>
<rscale>  1 0.12766313E+03</rscale>
<asrwt>0</asrwt>
<pdfrwt beam="2">  1        4 0.26934378E-01 0.12766313E+03</pdfrwt>
<pdfrwt beam="1">  1       -4 0.61939028E-02 0.12766313E+03</pdfrwt>
<totfact> 0.35446550E+03</totfact>
</mgrwt>
</event>
<event>
 6    4  0.5642870E-004  0.1279294E+03  0.7818608E-02  0.1230561E+00
         -4   -1    0    0    0  501 -0.00000000000E+00  0.00000000000E+00  0.38168348716E+03  0.38168560003E+03  0.12700000000E+01 0. -1.
          4   -1    0    0  502    0  0.00000000000E+00 -0.00000000000E+00 -0.15739524846E+02  0.15790678972E+02  0.12700000000E+01 0. -1.
         25    2    1    2    0    0 -0.24250304343E+02  0.12369319596E+02  0.30128169507E+03  0.32731727293E+03  0.12499944018E+03 0.  0.
    9000005    1    3    3    0    0 -0.73023704783E+02 -0.37953358840E+00  0.21856903722E+03  0.23044745505E+03  0.10000000000E+01 0.  0.
    9000005    1    3    3    0    0  0.48773400440E+02  0.12748853185E+02  0.82712657844E+02  0.96869817877E+02  0.10000000000E+01 0.  0.
         21    1    1    2  502  501  0.24250304343E+02 -0.12369319596E+02  0.64662267241E+02  0.70159006070E+02  0.00000000000E+00 0. -1.
<mgrwt>
<rscale>  1 0.12792942E+03</rscale>
<asrwt>0</asrwt>
<pdfrwt beam="2">  1        4 0.24255628E-02 0.12792942E+03</pdfrwt>
<pdfrwt beam="1">  1       -4 0.58724635E-01 0.12792942E+03</pdfrwt>
<totfact> 0.33823418E+03</totfact>
</mgrwt>
</event>
<event>
 6    4  0.5642870E-004  0.1535301E+03  0.7818608E-02  0.1196201E+00
         -4   -1    0    0    0  501 -0.00000000000E+00  0.00000000000E+00  0.18964705523E+02  0.19007181684E+02  0.12700000000E+01 0.  1.
          4   -1    0    0  502    0  0.00000000000E+00 -0.00000000000E+00 -0.91024662136E+03  0.91024750733E+03  0.12700000000E+01 0.  1.
         25    2    1    2    0    0  0.88354431669E+02  0.11972978470E+02 -0.37303695891E+03  0.40339568396E+03  0.12498658856E+03 0.  0.
    9000005    1    3    3    0    0  0.41114665728E+02 -0.36697896610E+02 -0.29452525293E+03  0.29963857557E+03  0.10000000000E+01 0.  0.
    9000005    1    3    3    0    0  0.47239765940E+02  0.48670875080E+02 -0.78511705975E+02  0.10375710839E+03  0.10000000000E+01 0.  0.
         21    1    1    2  502  501 -0.88354431669E+02 -0.11972978470E+02 -0.51824495693E+03  0.52585900505E+03  0.00000000000E+00 0.  1.
<mgrwt>
<rscale>  1 0.15353014E+03</rscale>
<asrwt>0</asrwt>
<pdfrwt beam="2">  1        4 0.14004124E+00 0.15353014E+03</pdfrwt>
<pdfrwt beam="1">  1       -4 0.29209833E-02 0.15353014E+03</pdfrwt>
<totfact> 0.36362029E+02</totfact>
</mgrwt>
</event>
<event>
 6    4  0.5642870E-004  0.1271522E+03  0.7818608E-02  0.1231744E+00
         -4   -1    0    0    0  501 -0.00000000000E+00  0.00000000000E+00  0.10883631314E+02  0.10957478295E+02  0.12700000000E+01 0.  1.
          4   -1    0    0  502    0  0.00000000000E+00 -0.00000000000E+00 -0.70813608132E+03  0.70813722015E+03  0.12700000000E+01 0.  1.
         25    2    1    2    0    0 -0.76901053096E+01 -0.21903028310E+02 -0.37427403711E+03  0.39528312428E+03  0.12501525154E+03 0.  0.
    9000005    1    3    3    0    0  0.23005462362E+02  0.42155793286E+02 -0.87256069636E+02  0.99604135930E+02  0.10000000000E+01 0.  0.
    9000005    1    3    3    0    0 -0.30695567672E+02 -0.64058821596E+02 -0.28701796748E+03  0.29567898835E+03  0.10000000000E+01 0.  0.
         21    1    1    2  502  501  0.76901053096E+01  0.21903028310E+02 -0.32297841289E+03  0.32381157416E+03  0.00000000000E+00 0.  1.
<mgrwt>
<rscale>  1 0.12715225E+03</rscale>
<asrwt>0</asrwt>
<pdfrwt beam="2">  1        4 0.10894974E+00 0.12715225E+03</pdfrwt>
<pdfrwt beam="1">  1       -4 0.16801735E-02 0.12715225E+03</pdfrwt>
<totfact> 0.15149020E+03</totfact>
</mgrwt>
</event>
<event>
 6    4  0.5642870E-004  0.1269502E+03  0.7818608E-02  0.1232052E+00
          4   -1    0    0  502    0  0.00000000000E+00  0.00000000000E+00  0.16972884833E+02  0.17020332533E+02  0.12700000000E+01 0.  1.
         -4   -1    0    0    0  501 -0.00000000000E+00 -0.00000000000E+00 -0.32712685581E+03  0.32712932105E+03  0.12700000000E+01 0.  1.
         25    2    1    2    0    0  0.74327375855E+01  0.20898093266E+02 -0.26246777211E+03  0.29155735897E+03  0.12499754511E+03 0.  0.
    9000005    1    3    3    0    0 -0.74123743300E+01 -0.21833525162E+02  0.20755829485E+01  0.23172271334E+02  0.10000000000E+01 0.  0.
    9000005    1    3    3    0    0  0.14845111916E+02  0.42731618428E+02 -0.26454335506E+03  0.26838508764E+03  0.10000000000E+01 0.  0.
         21    1    1    2  502  501 -0.74327375855E+01 -0.20898093266E+02 -0.47686198863E+02  0.52592294608E+02  0.00000000000E+00 0. -1.
<mgrwt>
<rscale>  1 0.12695024E+03</rscale>
<asrwt>0</asrwt>
<pdfrwt beam="1">  1        4 0.26150527E-02 0.12695024E+03</pdfrwt>
<pdfrwt beam="2">  1       -4 0.50331044E-01 0.12695024E+03</pdfrwt>
<totfact> 0.41289215E+03</totfact>
</mgrwt>
</event>
<event>
 6    4  0.5642870E-004  0.1279317E+03  0.7818608E-02  0.1230557E+00
          4   -1    0    0  502    0  0.00000000000E+00  0.00000000000E+00  0.12094791605E+03  0.12095458362E+03  0.12700000000E+01 0. -1.
         -4   -1    0    0    0  501 -0.00000000000E+00 -0.00000000000E+00 -0.62008519401E+02  0.62021523508E+02  0.12700000000E+01 0. -1.
         25    2    1    2    0    0 -0.78660063538E+01 -0.26071701386E+02  0.11721009562E+02  0.12846754130E+03  0.12499967773E+03 0.  0.
    9000005    1    3    3    0    0 -0.29398337289E+02 -0.34856701551E+02 -0.46883960466E+02  0.65409155531E+02  0.10000000000E+01 0.  0.
    9000005    1    3    3    0    0  0.21532330935E+02  0.87850001647E+01  0.58604970028E+02  0.63058385766E+02  0.10000000000E+01 0.  0.
         21    1    1    2  502  501  0.78660063538E+01  0.26071701386E+02  0.47218387092E+02  0.54508565828E+02  0.00000000000E+00 0. -1.
<mgrwt>
<rscale>  1 0.12793173E+03</rscale>
<asrwt>0</asrwt>
<pdfrwt beam="1">  1        4 0.18608885E-01 0.12793173E+03</pdfrwt>
<pdfrwt beam="2">  1       -4 0.95412854E-02 0.12793173E+03</pdfrwt>
<totfact> 0.34075091E+03</totfact>
</mgrwt>
</event>
<event>
 6    4  0.5642870E-004  0.1265872E+03  0.7818608E-02  0.1232609E+00
         -4   -1    0    0    0  501 -0.00000000000E+00  0.00000000000E+00  0.21661910711E+03  0.21662282998E+03  0.12700000000E+01 0. -1.
          4   -1    0    0  502    0  0.00000000000E+00 -0.00000000000E+00 -0.27023759969E+02  0.27053585767E+02  0.12700000000E+01 0. -1.
         25    2    1    2    0    0  0.13565544633E+02  0.14716555883E+02  0.18316924204E+03  0.22265509692E+03  0.12499487964E+03 0.  0.
    9000005    1    3    3    0    0  0.62319070322E+02  0.28617814039E+02  0.66892991178E+02  0.95803538948E+02  0.10000000000E+01 0.  0.
    9000005    1    3    3    0    0 -0.48753525689E+02 -0.13901258156E+02  0.11627625086E+03  0.12685155797E+03  0.10000000000E+01 0.  0.
         21    1    1    2  502  501 -0.13565544633E+02 -0.14716555883E+02  0.64261051055E+01  0.21021318824E+02  0.00000000000E+00 0. -1.
<mgrwt>
<rscale>  1 0.12658721E+03</rscale>
<asrwt>0</asrwt>
<pdfrwt beam="2">  1        4 0.41600822E-02 0.12658721E+03</pdfrwt>
<pdfrwt beam="1">  1       -4 0.33328597E-01 0.12658721E+03</pdfrwt>
<totfact> 0.44863945E+03</totfact>
</mgrwt>
</event>
<event>
 6    4  0.5642870E-004  0.1274020E+03  0.7818608E-02  0.1231362E+00
         -4   -1    0    0    0  501 -0.00000000000E+00  0.00000000000E+00  0.10696059063E+02  0.10771192110E+02  0.12700000000E+01 0.  1.
          4   -1    0    0  502    0  0.00000000000E+00 -0.00000000000E+00 -0.66289915426E+03  0.66290037081E+03  0.12700000000E+01 0.  1.
         25    2    1    2    0    0 -0.43579995761E+00 -0.24624462252E+02 -0.38928160232E+03  0.40959910037E+03  0.12499881220E+03 0.  0.
    9000005    1    3    3    0    0  0.16142071480E+02 -0.55709908305E+02 -0.82807141936E+02  0.10110481250E+03  0.10000000000E+01 0.  0.
    9000005    1    3    3    0    0 -0.16577871438E+02  0.31085446052E+02 -0.30647446039E+03  0.30849428787E+03  0.10000000000E+01 0.  0.
         21    1    1    2  502  501  0.43579995761E+00  0.24624462252E+02 -0.26292149287E+03  0.26407246255E+03  0.00000000000E+00 0.  1.
<mgrwt>
<rscale>  1 0.12740195E+03</rscale>
<asrwt>0</asrwt>
<pdfrwt beam="2">  1        4 0.10199033E+00 0.12740195E+03</pdfrwt>
<pdfrwt beam="1">  1       -4 0.16514211E-02 0.12740195E+03</pdfrwt>
<totfact> 0.18155932E+03</totfact>
</mgrwt>
</event>
<event>
 6    4  0.5642870E-004  0.1273658E+03  0.7818608E-02  0.1231418E+00
         -4   -1    0    0    0  501 -0.00000000000E+00  0.00000000000E+00  0.33541594365E+03  0.33541834797E+03  0.12700000000E+01 0.  1.
          4   -1    0    0  502    0  0.00000000000E+00 -0.00000000000E+00 -0.17843948990E+02  0.17889086493E+02  0.12700000000E+01 0.  1.
         25    2    1    2    0    0 -0.13014768470E+02  0.20677787314E+02  0.23626345765E+03  0.26840729738E+03  0.12500040311E+03 0.  0.
    9000005    1    3    3    0    0 -0.37260771604E+02  0.35735176524E+02  0.23414388009E+03  0.23977014936E+03  0.10000000000E+01 0.  0.
    9000005    1    3    3    0    0  0.24246003134E+02 -0.15057389210E+02  0.21195775682E+01  0.28637148022E+02  0.10000000000E+01 0.  0.
         21    1    1    2  502  501  0.13014768470E+02 -0.20677787314E+02  0.81308537007E+02  0.84900137083E+02  0.00000000000E+00 0.  1.
<mgrwt>
<rscale>  1 0.12736583E+03</rscale>
<asrwt>0</asrwt>
<pdfrwt beam="2">  1        4 0.27488801E-02 0.12736583E+03</pdfrwt>
<pdfrwt beam="1">  1       -4 0.51606107E-01 0.12736583E+03</pdfrwt>
<totfact> 0.36331074E+03</totfact>
</mgrwt>
</event>
<event>
 6    4  0.5642870E-004  0.1276624E+03  0.7818608E-02  0.1230966E+00
          4   -1    0    0  502    0  0.00000000000E+00  0.00000000000E+00  0.74765360983E+02  0.74776146618E+02  0.12700000000E+01 0.  1.
         -4   -1    0    0    0  501 -0.00000000000E+00 -0.00000000000E+00 -0.12809280187E+03  0.12809909754E+03  0.12700000000E+01 0.  1.
         25    2    1    2    0    0  0.19372912410E+01 -0.25863994679E+02 -0.91257403155E+02  0.15692547423E+03  0.12499996605E+03 0.  0.
    9000005    1    3    3    0    0  0.38771193267E+02 -0.14581087743E+02 -0.10742222868E+03  0.11513621829E+03  0.10000000000E+01 0.  0.
    9000005    1    3    3    0    0 -0.36833902025E+02 -0.11282906936E+02  0.16164825529E+02  0.41789255937E+02  0.10000000000E+01 0.  0.
         21    1    1    2  502  501 -0.19372912410E+01  0.25863994679E+02  0.37929962274E+02  0.45949769925E+02  0.00000000000E+00 0.  1.
<mgrwt>
<rscale>  1 0.12766241E+03</rscale>
<asrwt>0</asrwt>
<pdfrwt beam="1">  1        4 0.11503677E-01 0.12766241E+03</pdfrwt>
<pdfrwt beam="2">  1       -4 0.19707899E-01 0.12766241E+03</pdfrwt>
<totfact> 0.22410218E+03</totfact>
</mgrwt>
</event>
<event>
 6    4  0.5642870E-004  0.1268527E+03  0.7818608E-02  0.1232202E+00
          4   -1    0    0  502    0  0.00000000000E+00  0.00000000000E+00  0.94809583165E+03  0.94809668225E+03  0.12700000000E+01 0. -1.
         -4   -1    0    0    0  501 -0.00000000000E+00 -0.00000000000E+00 -0.70055435250E+01  0.71197289331E+01  0.12700000000E+01 0. -1.
         25    2    1    2    0    0  0.96090686147E+01  0.19338004553E+02  0.59099040603E+03  0.60445121898E+03  0.12500129393E+03 0.  0.
    9000005    1    3    3    0    0  0.56957289745E+02  0.35891934135E+02  0.21966856457E+03  0.22975561376E+03  0.10000000000E+01 0.  0.
    9000005    1    3    3    0    0 -0.47348221131E+02 -0.16553929582E+02  0.37132184146E+03  0.37469560522E+03  0.10000000000E+01 0.  0.
         21    1    1    2  502  501 -0.96090686147E+01 -0.19338004553E+02  0.35009988209E+03  0.35076519220E+03  0.00000000000E+00 0. -1.
<mgrwt>
<rscale>  1 0.12685273E+03</rscale>
<asrwt>0</asrwt>
<pdfrwt beam="1">  1        4 0.14586973E+00 0.12685273E+03</pdfrwt>
<pdfrwt beam="2">  1       -4 0.10866250E-02 0.12685273E+03</pdfrwt>
<totfact> 0.14441312E+03</totfact>
</mgrwt>
</event>
<event>
 6    4  0.5642870E-004  0.1316342E+03  0.7818608E-02  0.1225051E+00
         -4   -1    0    0    0  501 -0.00000000000E+00  0.00000000000E+00  0.23159848714E+03  0.23160196922E+03  0.12700000000E+01 0.  1.
          4   -1    0    0  502    0  0.00000000000E+00 -0.00000000000E+00 -0.32676124575E+02  0.32700795361E+02  0.12700000000E+01 0.  1.
         25    2    1    2    0    0  0.29254970898E+02 -0.29102504805E+02  0.13793071044E+03  0.19066316425E+03  0.12499900884E+03 0.  0.
    9000005    1    3    3    0    0  0.68300614313E+02 -0.14933637531E+02  0.13106639428E+03  0.14855095811E+03  0.10000000000E+01 0.  0.
    9000005    1    3    3    0    0 -0.39045643415E+02 -0.14168867274E+02  0.68643161626E+01  0.42112206139E+02  0.10000000000E+01 0.  0.
         21    1    1    2  502  501 -0.29254970898E+02  0.29102504805E+02  0.60991652120E+02  0.73639600329E+02  0.00000000000E+00 0.  1.
<mgrwt>
<rscale>  1 0.13163420E+03</rscale>
<asrwt>0</asrwt>
<pdfrwt beam="2">  1        4 0.50292616E-02 0.13163420E+03</pdfrwt>
<pdfrwt beam="1">  1       -4 0.35632702E-01 0.13163420E+03</pdfrwt>
<totfact> 0.29411190E+03</totfact>
</mgrwt>
</event>
<event>
 6    4  0.5642870E-004  0.1274739E+03  0.7818608E-02  0.1231253E+00
          4   -1    0    0  502    0  0.00000000000E+00  0.00000000000E+00  0.86560093831E+01  0.87486798113E+01  0.12700000000E+01 0. -1.
         -4   -1    0    0    0  501 -0.00000000000E+00 -0.00000000000E+00 -0.90632889336E+03  0.90632978316E+03  0.12700000000E+01 0. -1.
         25    2    1    2    0    0 -0.22345729326E+02  0.11190033673E+02 -0.86285391790E+03  0.87221928809E+03  0.12500021762E+03 0.  0.
    9000005    1    3    3    0    0 -0.42189786802E+02  0.60488819569E+02 -0.54136680646E+03  0.54636791134E+03  0.10000000000E+01 0.  0.
    9000005    1    3    3    0    0  0.19844057476E+02 -0.49298785896E+02 -0.32148711144E+03  0.32585137675E+03  0.10000000000E+01 0.  0.
         21    1    1    2  502  501  0.22345729326E+02 -0.11190033673E+02 -0.34818966071E+02  0.42859174875E+02  0.00000000000E+00 0. -1.
<mgrwt>
<rscale>  1 0.12747393E+03</rscale>
<asrwt>0</asrwt>
<pdfrwt beam="1">  1        4 0.13388914E-02 0.12747393E+03</pdfrwt>
<pdfrwt beam="2">  1       -4 0.13944234E+00 0.12747393E+03</pdfrwt>
<totfact> 0.11804878E+03</totfact>
</mgrwt>
</event>
<event>
 6    4  0.5642870E-004  0.1408927E+03  0.7818608E-02  0.1212133E+00
          4   -1    0    0  502    0  0.00000000000E+00  0.00000000000E+00  0.15909101353E+03  0.15909608256E+03  0.12700000000E+01 0.  1.
         -4   -1    0    0    0  501 -0.00000000000E+00 -0.00000000000E+00 -0.20748043138E+03  0.20748431822E+03  0.12700000000E+01 0.  1.
         25    2    1    2    0    0  0.60011191825E+02  0.24985115007E+02 -0.17475378012E+03  0.22447638547E+03  0.12500065941E+03 0.  0.
    9000005    1    3    3    0    0  0.26832770310E+02  0.43780367350E+02 -0.17888150875E+03  0.18610833485E+03  0.10000000000E+01 0.  0.
    9000005    1    3    3    0    0  0.33178421515E+02 -0.18795252343E+02  0.41277286311E+01  0.38368050622E+02  0.10000000000E+01 0.  0.
         21    1    1    2  502  501 -0.60011191825E+02 -0.24985115007E+02  0.12636436227E+03  0.14210401531E+03  0.00000000000E+00 0.  1.
<mgrwt>
<rscale>  1 0.14089274E+03</rscale>
<asrwt>0</asrwt>
<pdfrwt beam="1">  1        4 0.24476229E-01 0.14089274E+03</pdfrwt>
<pdfrwt beam="2">  1       -4 0.31920756E-01 0.14089274E+03</pdfrwt>
<totfact> 0.24692922E+02</totfact>
</mgrwt>
</event>
<event>
 6    4  0.5642870E-004  0.1301501E+03  0.7818608E-02  0.1227233E+00
         -4   -1    0    0    0  501 -0.00000000000E+00  0.00000000000E+00  0.84274061617E+02  0.84283630447E+02  0.12700000000E+01 0. -1.
          4   -1    0    0  502    0  0.00000000000E+00 -0.00000000000E+00 -0.95081965133E+02  0.95090446385E+02  0.12700000000E+01 0. -1.
         25    2    1    2    0    0 -0.38287417856E+01 -0.36047360431E+02  0.20153810161E+02  0.13170124210E+03  0.12499987859E+03 0.  0.
    9000005    1    3    3    0    0 -0.19703431256E+02 -0.72925537299E+02 -0.16499474339E+02  0.77327820654E+02  0.10000000000E+01 0.  0.
    9000005    1    3    3    0    0  0.15874689470E+02  0.36878176868E+02  0.36653284500E+02  0.54373421444E+02  0.10000000000E+01 0.  0.
         21    1    1    2  502  501  0.38287417856E+01  0.36047360431E+02 -0.30961713678E+02  0.47672834734E+02  0.00000000000E+00 0. -1.
<mgrwt>
<rscale>  1 0.13015007E+03</rscale>
<asrwt>0</asrwt>
<pdfrwt beam="2">  1        4 0.14629383E-01 0.13015007E+03</pdfrwt>
<pdfrwt beam="1">  1       -4 0.12966629E-01 0.13015007E+03</pdfrwt>
<totfact> 0.31048022E+03</totfact>
</mgrwt>
</event>
<event>
 6    4  0.5642870E-004  0.1267334E+03  0.7818608E-02  0.1232385E+00
          4   -1    0    0  502    0  0.00000000000E+00  0.00000000000E+00  0.33335824483E+03  0.33336066399E+03  0.12700000000E+01 0. -1.
         -4   -1    0    0    0  501 -0.00000000000E+00 -0.00000000000E+00 -0.20194826936E+02  0.20234721026E+02  0.12700000000E+01 0. -1.
         25    2    1    2    0    0 -0.63145580433E+01  0.19912691090E+02  0.18817072002E+03  0.22686905219E+03  0.12499983224E+03 0.  0.
    9000005    1    3    3    0    0  0.56501350311E+02  0.10205710413E+02  0.56018984107E+02  0.80222725536E+02  0.10000000000E+01 0.  0.
    9000005    1    3    3    0    0 -0.62815908355E+02  0.97069806774E+01  0.13215173591E+03  0.14664632665E+03  0.10000000000E+01 0.  0.
         21    1    1    2  502  501  0.63145580433E+01 -0.19912691090E+02  0.12499269788E+03  0.12672633283E+03  0.00000000000E+00 0. -1.
<mgrwt>
<rscale>  1 0.12673337E+03</rscale>
<asrwt>0</asrwt>
<pdfrwt beam="1">  1        4 0.51289132E-01 0.12673337E+03</pdfrwt>
<pdfrwt beam="2">  1       -4 0.31101517E-02 0.12673337E+03</pdfrwt>
<totfact> 0.30299041E+03</totfact>
</mgrwt>
</event>
<event>
 6    4  0.5642870E-004  0.1266241E+03  0.7818608E-02  0.1232553E+00
         -4   -1    0    0    0  501 -0.00000000000E+00  0.00000000000E+00  0.44468175438E+02  0.44486307183E+02  0.12700000000E+01 0.  1.
          4   -1    0    0  502    0  0.00000000000E+00 -0.00000000000E+00 -0.13575955506E+03  0.13576549522E+03  0.12700000000E+01 0.  1.
         25    2    1    2    0    0  0.20253141809E+02 -0.44233749581E+00 -0.53681604212E+02  0.13753318091E+03  0.12499310302E+03 0.  0.
    9000005    1    3    3    0    0  0.24607177174E+02  0.96916094914E+01 -0.92995992842E+02  0.96688650563E+02  0.10000000000E+01 0.  0.
    9000005    1    3    3    0    0 -0.43540353651E+01 -0.10133946987E+02  0.39314388630E+02  0.40844530342E+02  0.10000000000E+01 0.  0.
         21    1    1    2  502  501 -0.20253141809E+02  0.44233749581E+00 -0.37609775414E+02  0.42718621494E+02  0.00000000000E+00 0. -1.
<mgrwt>
<rscale>  1 0.12662409E+03</rscale>
<asrwt>0</asrwt>
<pdfrwt beam="2">  1        4 0.20887937E-01 0.12662409E+03</pdfrwt>
<pdfrwt beam="1">  1       -4 0.68431095E-02 0.12662409E+03</pdfrwt>
<totfact> 0.47903601E+03</totfact>
</mgrwt>
</event>
<event>
 6    4  0.5642870E-004  0.1266936E+03  0.7818608E-02  0.1232446E+00
         -4   -1    0    0    0  501 -0.00000000000E+00  0.00000000000E+00  0.28353872069E+02  0.28382300141E+02  0.12700000000E+01 0. -1.
          4   -1    0    0  502    0  0.00000000000E+00 -0.00000000000E+00 -0.19128422470E+03  0.19128844063E+03  0.12700000000E+01 0. -1.
         25    2    1    2    0    0  0.20567790717E+02  0.15248227351E+01 -0.13879536157E+03  0.18792397884E+03  0.12500364128E+03 0.  0.
    9000005    1    3    3    0    0 -0.47134226781E+01  0.28646680739E+02  0.12882091132E+02  0.31777302318E+02  0.10000000000E+01 0.  0.
    9000005    1    3    3    0    0  0.25281213395E+02 -0.27121858004E+02 -0.15167745270E+03  0.15614667653E+03  0.10000000000E+01 0.  0.
         21    1    1    2  502  501 -0.20567790717E+02 -0.15248227351E+01 -0.24134991060E+02  0.31746761926E+02  0.00000000000E+00 0. -1.
<mgrwt>
<rscale>  1 0.12669360E+03</rscale>
<asrwt>0</asrwt>
<pdfrwt beam="2">  1        4 0.29430853E-01 0.12669360E+03</pdfrwt>
<pdfrwt beam="1">  1       -4 0.43646454E-02 0.12669360E+03</pdfrwt>
<totfact> 0.52642650E+03</totfact>
</mgrwt>
</event>
<event>
 6    4  0.5642870E-004  0.1284886E+03  0.7818608E-02  0.1229716E+00
         -4   -1    0    0    0  501 -0.00000000000E+00  0.00000000000E+00  0.55672364563E+02  0.55686848322E+02  0.12700000000E+01 0.  1.
          4   -1    0    0  502    0  0.00000000000E+00 -0.00000000000E+00 -0.23867457489E+03  0.23867795374E+03  0.12700000000E+01 0.  1.
         25    2    1    2    0    0 -0.22489227801E+02  0.19592048777E+02 -0.21675452686E+02  0.13030403138E+03  0.12497880462E+03 0.  0.
    9000005    1    3    3    0    0  0.26376045602E+02  0.23084907856E+02 -0.59050200964E+02  0.68677033907E+02  0.10000000000E+01 0.  0.
    9000005    1    3    3    0    0 -0.48865273403E+02 -0.34928590789E+01  0.37374748278E+02  0.61626997478E+02  0.10000000000E+01 0.  0.
         21    1    1    2  502  501  0.22489227801E+02 -0.19592048777E+02 -0.16132675765E+03  0.16406077068E+03  0.00000000000E+00 0.  1.
<mgrwt>
<rscale>  1 0.12848858E+03</rscale>
<asrwt>0</asrwt>
<pdfrwt beam="2">  1        4 0.36720539E-01 0.12848858E+03</pdfrwt>
<pdfrwt beam="1">  1       -4 0.85663533E-02 0.12848858E+03</pdfrwt>
<totfact> 0.11559135E+03</totfact>
</mgrwt>
</event>
<event>
 6    4  0.5642870E-004  0.1269061E+03  0.7818608E-02  0.1232120E+00
          4   -1    0    0  502    0  0.00000000000E+00  0.00000000000E+00  0.12729691189E+03  0.12730324692E+03  0.12700000000E+01 0.  1.
         -4   -1    0    0    0  501 -0.00000000000E+00 -0.00000000000E+00 -0.22883047831E+03  0.22883400251E+03  0.12700000000E+01 0.  1.
         25    2    1    2    0    0 -0.16445067491E+02 -0.14481835050E+02 -0.21006108445E+03  0.24541965390E+03  0.12499993411E+03 0.  0.
    9000005    1    3    3    0    0  0.11791428355E+02 -0.16858427323E+01 -0.21383978236E+03  0.21417360335E+03  0.10000000000E+01 0.  0.
    9000005    1    3    3    0    0 -0.28236495846E+02 -0.12795992318E+02  0.37786979155E+01  0.31246050550E+02  0.10000000000E+01 0.  0.
         21    1    1    2  502  501  0.16445067491E+02  0.14481835050E+02  0.10852751802E+03  0.11071759553E+03  0.00000000000E+00 0.  1.
<mgrwt>
<rscale>  1 0.12690606E+03</rscale>
<asrwt>0</asrwt>
<pdfrwt beam="1">  1        4 0.19584899E-01 0.12690606E+03</pdfrwt>
<pdfrwt beam="2">  1       -4 0.35205447E-01 0.12690606E+03</pdfrwt>
<totfact> 0.30104213E+02</totfact>
</mgrwt>
</event>
<event>
 6    4  0.5642870E-004  0.1540672E+03  0.7818608E-02  0.1195562E+00
         -4   -1    0    0    0  501 -0.00000000000E+00  0.00000000000E+00  0.43080485235E+03  0.43080672431E+03  0.12700000000E+01 0. -1.
          4   -1    0    0  502    0  0.00000000000E+00 -0.00000000000E+00 -0.43473988750E+02  0.43492534966E+02  0.12700000000E+01 0. -1.
         25    2    1    2    0    0 -0.55522740979E+02  0.70915293943E+02  0.33835145181E+03  0.37177737644E+03  0.12499983604E+03 0.  0.
    9000005    1    3    3    0    0 -0.22694830077E+02 -0.12673201455E+02  0.22809093126E+03  0.22956946284E+03  0.10000000000E+01 0.  0.
    9000005    1    3    3    0    0 -0.32827910902E+02  0.83588495398E+02  0.11026052055E+03  0.14220791360E+03  0.10000000000E+01 0.  0.
         21    1    1    2  502  501  0.55522740979E+02 -0.70915293943E+02  0.48979411792E+02  0.10252188284E+03  0.00000000000E+00 0. -1.
<mgrwt>
<rscale>  1 0.15406723E+03</rscale>
<asrwt>0</asrwt>
<pdfrwt beam="2">  1        4 0.66898765E-02 0.15406723E+03</pdfrwt>
<pdfrwt beam="1">  1       -4 0.66279241E-01 0.15406723E+03</pdfrwt>
<totfact> 0.54179950E+02</totfact>
</mgrwt>
</event>
<event>
 6    4  0.5642870E-004  0.1349570E+03  0.7818608E-02  0.1220280E+00
         -4   -1    0    0    0  501 -0.00000000000E+00  0.00000000000E+00  0.10637019318E+02  0.10712566451E+02  0.12700000000E+01 0. -1.
          4   -1    0    0  502    0  0.00000000000E+00 -0.00000000000E+00 -0.81763145892E+03  0.81763244525E+03  0.12700000000E+01 0. -1.
         25    2    1    2    0    0  0.38356894603E+02 -0.33437644227E+02 -0.54556889184E+03  0.56201318025E+03  0.12499628644E+03 0.  0.
    9000005    1    3    3    0    0 -0.25353487549E+02  0.51906519253E+01 -0.37482526447E+03  0.37571893895E+03  0.10000000000E+01 0.  0.
    9000005    1    3    3    0    0  0.63710382152E+02 -0.38628296153E+02 -0.17074362737E+03  0.18629424131E+03  0.10000000000E+01 0.  0.
         21    1    1    2  502  501 -0.38356894603E+02  0.33437644227E+02 -0.26142554777E+03  0.26633183145E+03  0.00000000000E+00 0.  1.
<mgrwt>
<rscale>  1 0.13495703E+03</rscale>
<asrwt>0</asrwt>
<pdfrwt beam="2">  1        4 0.12579529E+00 0.13495703E+03</pdfrwt>
<pdfrwt beam="1">  1       -4 0.16423523E-02 0.13495703E+03</pdfrwt>
<totfact> 0.11273145E+03</totfact>
</mgrwt>
</event>
<event>
 6    4  0.5642870E-004  0.1471229E+03  0.7818608E-02  0.1204054E+00
          4   -1    0    0  502    0  0.00000000000E+00  0.00000000000E+00  0.73825702304E+02  0.73836625199E+02  0.12700000000E+01 0. -1.
         -4   -1    0    0    0  501 -0.00000000000E+00 -0.00000000000E+00 -0.19767233048E+03  0.19767641017E+03  0.12700000000E+01 0. -1.
         25    2    1    2    0    0 -0.28001312716E+00  0.77593237033E+02 -0.12627291652E+03  0.19388136840E+03  0.12499738688E+03 0.  0.
    9000005    1    3    3    0    0 -0.62308446104E+02  0.46324674191E+02 -0.66031423326E+02  0.10192873374E+03  0.10000000000E+01 0.  0.
    9000005    1    3    3    0    0  0.62028432977E+02  0.31268562842E+02 -0.60241493193E+02  0.91952634665E+02  0.10000000000E+01 0.  0.
         21    1    1    2  502  501  0.28001312716E+00 -0.77593237033E+02  0.24262883443E+01  0.77631666965E+02  0.00000000000E+00 0. -1.
<mgrwt>
<rscale>  1 0.14712286E+03</rscale>
<asrwt>0</asrwt>
<pdfrwt beam="1">  1        4 0.11358955E-01 0.14712286E+03</pdfrwt>
<pdfrwt beam="2">  1       -4 0.30412282E-01 0.14712286E+03</pdfrwt>
<totfact> 0.10616210E+03</totfact>
</mgrwt>
</event>
<event>
 6    4  0.5642870E-004  0.1292868E+03  0.7818608E-02  0.1228518E+00
         -4   -1    0    0    0  501 -0.00000000000E+00  0.00000000000E+00  0.79973787828E+01  0.80975902215E+01  0.12700000000E+01 0.  1.
          4   -1    0    0  502    0  0.00000000000E+00 -0.00000000000E+00 -0.82482148827E+03  0.82482246600E+03  0.12700000000E+01 0.  1.
         25    2    1    2    0    0  0.31887937487E+02 -0.85281075683E+01 -0.67892774272E+03  0.69112803549E+03  0.12500204967E+03 0.  0.
    9000005    1    3    3    0    0  0.36374871412E+01 -0.51183533681E+02 -0.55040642615E+03  0.55279401171E+03  0.10000000000E+01 0.  0.
    9000005    1    3    3    0    0  0.28250450346E+02  0.42655426112E+02 -0.12852131657E+03  0.13833402378E+03  0.10000000000E+01 0.  0.
         21    1    1    2  502  501 -0.31887937487E+02  0.85281075683E+01 -0.13789636677E+03  0.14179202074E+03  0.00000000000E+00 0.  1.
<mgrwt>
<rscale>  1 0.12928682E+03</rscale>
<asrwt>0</asrwt>
<pdfrwt beam="2">  1        4 0.12690333E+00 0.12928682E+03</pdfrwt>
<pdfrwt beam="1">  1       -4 0.12381504E-02 0.12928682E+03</pdfrwt>
<totfact> 0.16806012E+03</totfact>
</mgrwt>
</event>
<event>
 6    4  0.5642870E-004  0.1274194E+03  0.7818608E-02  0.1231336E+00
         -4   -1    0    0    0  501 -0.00000000000E+00  0.00000000000E+00  0.13907649724E+03  0.13908229572E+03  0.12700000000E+01 0.  1.
          4   -1    0    0  502    0  0.00000000000E+00 -0.00000000000E+00 -0.41923116430E+02  0.41942348423E+02  0.12700000000E+01 0.  1.
         25    2    1    2    0    0  0.11350571924E+02  0.21958516212E+02  0.75139412515E+02  0.14792439162E+03  0.12499872962E+03 0.  0.
    9000005    1    3    3    0    0  0.26642960903E+02 -0.16561270737E+02 -0.24622127888E+02  0.39892007167E+02  0.10000000000E+01 0.  0.
    9000005    1    3    3    0    0 -0.15292388979E+02  0.38519786949E+02  0.99761540404E+02  0.10803238445E+03  0.10000000000E+01 0.  0.
         21    1    1    2  502  501 -0.11350571924E+02 -0.21958516212E+02  0.22013968292E+02  0.33100252524E+02  0.00000000000E+00 0.  1.
<mgrwt>
<rscale>  1 0.12741936E+03</rscale>
<asrwt>0</asrwt>
<pdfrwt beam="2">  1        4 0.64516357E-02 0.12741936E+03</pdfrwt>
<pdfrwt beam="1">  1       -4 0.21398309E-01 0.12741936E+03</pdfrwt>
<totfact> 0.50570569E+03</totfact>
</mgrwt>
</event>
<event>
 6    4  0.5642870E-004  0.1335603E+03  0.7818608E-02  0.1222267E+00
         -4   -1    0    0    0  501 -0.00000000000E+00  0.00000000000E+00  0.57770201145E+02  0.57784159078E+02  0.12700000000E+01 0.  1.
          4   -1    0    0  502    0  0.00000000000E+00 -0.00000000000E+00 -0.27647564282E+03  0.27647855970E+03  0.12700000000E+01 0.  1.
         25    2    1    2    0    0  0.31092047627E+02  0.35311310107E+02 -0.26218713139E+02  0.13610938242E+03  0.12499895606E+03 0.  0.
    9000005    1    3    3    0    0  0.48891561589E+02  0.13327669952E+02  0.39692605282E+02  0.64377903779E+02  0.10000000000E+01 0.  0.
    9000005    1    3    3    0    0 -0.17799513962E+02  0.21983640155E+02 -0.65911318421E+02  0.71731478639E+02  0.10000000000E+01 0.  0.
         21    1    1    2  502  501 -0.31092047627E+02 -0.35311310107E+02 -0.19248672854E+03  0.19815333636E+03  0.00000000000E+00 0.  1.
<mgrwt>
<rscale>  1 0.13356026E+03</rscale>
<asrwt>0</asrwt>
<pdfrwt beam="2">  1        4 0.42536012E-01 0.13356026E+03</pdfrwt>
<pdfrwt beam="1">  1       -4 0.88890215E-02 0.13356026E+03</pdfrwt>
<totfact> 0.82121681E+02</totfact>
</mgrwt>
</event>
<event>
 6    4  0.5642870E-004  0.1311795E+03  0.7818608E-02  0.1225716E+00
          4   -1    0    0  502    0  0.00000000000E+00  0.00000000000E+00  0.20967139519E+03  0.20967524141E+03  0.12700000000E+01 0.  1.
         -4   -1    0    0    0  501 -0.00000000000E+00 -0.00000000000E+00 -0.34843536712E+02  0.34866673925E+02  0.12700000000E+01 0.  1.
         25    2    1    2    0    0  0.25108541591E+02 -0.30874515558E+02  0.13526931034E+03  0.18842994422E+03  0.12499753193E+03 0.  0.
    9000005    1    3    3    0    0  0.40198678374E+02 -0.28548082230E+02  0.15546122143E+03  0.16309542639E+03  0.10000000000E+01 0.  0.
    9000005    1    3    3    0    0 -0.15090136783E+02 -0.23264333281E+01 -0.20191911090E+02  0.25334517829E+02  0.10000000000E+01 0.  0.
         21    1    1    2  502  501 -0.25108541591E+02  0.30874515558E+02  0.39558548146E+02  0.56111971122E+02  0.00000000000E+00 0.  1.
<mgrwt>
<rscale>  1 0.13117949E+03</rscale>
<asrwt>0</asrwt>
<pdfrwt beam="1">  1        4 0.32259213E-01 0.13117949E+03</pdfrwt>
<pdfrwt beam="2">  1       -4 0.53626198E-02 0.13117949E+03</pdfrwt>
<totfact> 0.32078694E+03</totfact>
</mgrwt>
</event>
<event>
 6    4  0.5642870E-004  0.1303467E+03  0.7818608E-02  0.1226942E+00
          4   -1    0    0  502    0  0.00000000000E+00  0.00000000000E+00  0.49059564040E+02  0.49075999468E+02  0.12700000000E+01 0. -1.
         -4   -1    0    0    0  501 -0.00000000000E+00 -0.00000000000E+00 -0.16029737734E+03  0.16030240823E+03  0.12700000000E+01 0. -1.
         25    2    1    2    0    0 -0.33698659841E+02 -0.15177974475E+02 -0.11281229073E+03  0.17238584678E+03  0.12499718655E+03 0.  0.
    9000005    1    3    3    0    0  0.19662361188E+02  0.42333600439E+02 -0.19832132733E+02  0.50725296079E+02  0.10000000000E+01 0.  0.
    9000005    1    3    3    0    0 -0.53361021028E+02 -0.57511574914E+02 -0.92980157999E+02  0.12166055070E+03  0.10000000000E+01 0.  0.
         21    1    1    2  502  501  0.33698659841E+02  0.15177974475E+02  0.15744774271E+01  0.36992560919E+02  0.00000000000E+00 0. -1.
<mgrwt>
<rscale>  1 0.13034672E+03</rscale>
<asrwt>0</asrwt>
<pdfrwt beam="1">  1        4 0.75492766E-02 0.13034672E+03</pdfrwt>
<pdfrwt beam="2">  1       -4 0.24662786E-01 0.13034672E+03</pdfrwt>
<totfact> 0.30330647E+03</totfact>
</mgrwt>
</event>
<event>
 6    4  0.5642870E-004  0.1267127E+03  0.7818608E-02  0.1232417E+00
         -4   -1    0    0    0  501 -0.00000000000E+00  0.00000000000E+00  0.36146020645E+03  0.36146243753E+03  0.12700000000E+01 0.  1.
          4   -1    0    0  502    0  0.00000000000E+00 -0.00000000000E+00 -0.16675527575E+02  0.16723818939E+02  0.12700000000E+01 0.  1.
         25    2    1    2    0    0 -0.11458329996E+02 -0.17307381469E+02  0.32755654358E+03  0.35121131578E+03  0.12500104123E+03 0.  0.
    9000005    1    3    3    0    0 -0.59221886859E+02 -0.27628045383E+02  0.25833031450E+03  0.26646968338E+03  0.10000000000E+01 0.  0.
    9000005    1    3    3    0    0  0.47763556863E+02  0.10320663914E+02  0.69226229080E+02  0.84741632392E+02  0.10000000000E+01 0.  0.
         21    1    1    2  502  501  0.11458329996E+02  0.17307381469E+02  0.17228135296E+02  0.26974940693E+02  0.00000000000E+00 0.  1.
<mgrwt>
<rscale>  1 0.12671266E+03</rscale>
<asrwt>0</asrwt>
<pdfrwt beam="2">  1        4 0.25693521E-02 0.12671266E+03</pdfrwt>
<pdfrwt beam="1">  1       -4 0.55613150E-01 0.12671266E+03</pdfrwt>
<totfact> 0.34558838E+03</totfact>
</mgrwt>
</event>
<event>
 6    4  0.5642870E-004  0.1305162E+03  0.7818608E-02  0.1226692E+00
         -4   -1    0    0    0  501 -0.00000000000E+00  0.00000000000E+00  0.10177007791E+03  0.10177800183E+03  0.12700000000E+01 0. -1.
          4   -1    0    0  502    0  0.00000000000E+00 -0.00000000000E+00 -0.12006130768E+03  0.12006802448E+03  0.12700000000E+01 0. -1.
         25    2    1    2    0    0 -0.34391648244E+02 -0.15044691511E+02  0.53323844570E+02  0.14098907185E+03  0.12500143107E+03 0.  0.
    9000005    1    3    3    0    0  0.29711223499E+02  0.36797215171E+02  0.26852127689E+02  0.54395115659E+02  0.10000000000E+01 0.  0.
    9000005    1    3    3    0    0 -0.64102871743E+02 -0.51841906682E+02  0.26471716881E+02  0.86593956191E+02  0.10000000000E+01 0.  0.
         21    1    1    2  502  501  0.34391648244E+02  0.15044691511E+02 -0.71615074341E+02  0.80856954460E+02  0.00000000000E+00 0. -1.
<mgrwt>
<rscale>  1 0.13051623E+03</rscale>
<asrwt>0</asrwt>
<pdfrwt beam="2">  1        4 0.18472097E-01 0.13051623E+03</pdfrwt>
<pdfrwt beam="1">  1       -4 0.15658061E-01 0.13051623E+03</pdfrwt>
<totfact> 0.14851984E+03</totfact>
</mgrwt>
</event>
<event>
 6    4  0.5642870E-004  0.1717958E+03  0.7818608E-02  0.1175988E+00
          4   -1    0    0  502    0  0.00000000000E+00  0.00000000000E+00  0.15098160114E+02  0.15151479757E+02  0.12700000000E+01 0.  1.
         -4   -1    0    0    0  501 -0.00000000000E+00 -0.00000000000E+00 -0.16497258657E+04  0.16497263545E+04  0.12700000000E+01 0.  1.
         25    2    1    2    0    0  0.58376965628E+02  0.10243199479E+03 -0.12724161053E+04  0.12839612725E+04  0.12495447399E+03 0.  0.
    9000005    1    3    3    0    0  0.27190069419E+02  0.22432107017E+02 -0.93910099441E+03  0.93976283019E+03  0.10000000000E+01 0.  0.
    9000005    1    3    3    0    0  0.31186896209E+02  0.79999887774E+02 -0.33331511085E+03  0.34419844227E+03  0.10000000000E+01 0.  0.
         21    1    1    2  502  501 -0.58376965628E+02 -0.10243199479E+03 -0.36221160031E+03  0.38091656182E+03  0.00000000000E+00 0. -1.
<mgrwt>
<rscale>  1 0.17179582E+03</rscale>
<asrwt>0</asrwt>
<pdfrwt beam="1">  1        4 0.23269343E-02 0.17179582E+03</pdfrwt>
<pdfrwt beam="2">  1       -4 0.25380798E+00 0.17179582E+03</pdfrwt>
<totfact> 0.97016626E+01</totfact>
</mgrwt>
</event>
<event>
 6    4  0.5642870E-004  0.1305900E+03  0.7818608E-02  0.1226583E+00
          4   -1    0    0  502    0  0.00000000000E+00  0.00000000000E+00  0.29140894743E+04  0.29140897510E+04  0.12700000000E+01 0. -1.
         -4   -1    0    0    0  501 -0.00000000000E+00 -0.00000000000E+00 -0.22945914236E+01  0.26226036302E+01  0.12700000000E+01 0. -1.
         25    2    1    2    0    0  0.27279794008E+02 -0.26168001443E+02  0.21235772749E+04  0.21275888225E+04  0.12499921524E+03 0.  0.
    9000005    1    3    3    0    0  0.30640445265E+00  0.32921332523E+01  0.19264443037E+04  0.19264474006E+04  0.10000000000E+01 0.  0.
    9000005    1    3    3    0    0  0.26973389556E+02 -0.29460134695E+02  0.19713297122E+03  0.20114142195E+03  0.10000000000E+01 0.  0.
         21    1    1    2  502  501 -0.27279794008E+02  0.26168001443E+02  0.78821760793E+03  0.78912353210E+03  0.00000000000E+00 0.  1.
<mgrwt>
<rscale>  1 0.13059003E+03</rscale>
<asrwt>0</asrwt>
<pdfrwt beam="1">  1        4 0.44834301E+00 0.13059003E+03</pdfrwt>
<pdfrwt beam="2">  1       -4 0.37827018E-03 0.13059003E+03</pdfrwt>
<totfact> 0.89679014E+01</totfact>
</mgrwt>
</event>
<event>
 6    4  0.5642870E-004  0.1294858E+03  0.7818608E-02  0.1228221E+00
         -4   -1    0    0    0  501 -0.00000000000E+00  0.00000000000E+00  0.14275130707E+03  0.14275695629E+03  0.12700000000E+01 0. -1.
          4   -1    0    0  502    0  0.00000000000E+00 -0.00000000000E+00 -0.47140718155E+02  0.47157822343E+02  0.12700000000E+01 0. -1.
         25    2    1    2    0    0 -0.32978195071E+02 -0.73457941903E+01  0.67844578995E+02  0.14618294413E+03  0.12500017685E+03 0.  0.
    9000005    1    3    3    0    0 -0.66016810729E+02  0.33575771258E+02  0.24486601127E+02  0.78013751027E+02  0.10000000000E+01 0.  0.
    9000005    1    3    3    0    0  0.33038615658E+02 -0.40921565449E+02  0.43357977868E+02  0.68169193102E+02  0.10000000000E+01 0.  0.
         21    1    1    2  502  501  0.32978195071E+02  0.73457941903E+01  0.27766009916E+02  0.43731834504E+02  0.00000000000E+00 0. -1.
<mgrwt>
<rscale>  1 0.12948578E+03</rscale>
<asrwt>0</asrwt>
<pdfrwt beam="2">  1        4 0.72541685E-02 0.12948578E+03</pdfrwt>
<pdfrwt beam="1">  1       -4 0.21963490E-01 0.12948578E+03</pdfrwt>
<totfact> 0.39971403E+03</totfact>
</mgrwt>
</event>
<event>
 6    4  0.5642870E-004  0.1274492E+03  0.7818608E-02  0.1231291E+00
         -4   -1    0    0    0  501 -0.00000000000E+00  0.00000000000E+00  0.11225913238E+03  0.11226631598E+03  0.12700000000E+01 0.  1.
          4   -1    0    0  502    0  0.00000000000E+00 -0.00000000000E+00 -0.52986475471E+02  0.53001693208E+02  0.12700000000E+01 0.  1.
         25    2    1    2    0    0  0.24859552044E+02 -0.10094457987E+01  0.39323417608E+02  0.13337775272E+03  0.12499710972E+03 0.  0.
    9000005    1    3    3    0    0 -0.43514813704E+02  0.20332726878E+02  0.38781207434E+02  0.61740917097E+02  0.10000000000E+01 0.  0.
    9000005    1    3    3    0    0  0.68374365748E+02 -0.21342172677E+02  0.54221017427E+00  0.71636835622E+02  0.10000000000E+01 0.  0.
         21    1    1    2  502  501 -0.24859552044E+02  0.10094457987E+01  0.19949239301E+02  0.31890256464E+02  0.00000000000E+00 0. -1.
<mgrwt>
<rscale>  1 0.12744918E+03</rscale>
<asrwt>0</asrwt>
<pdfrwt beam="2">  1        4 0.81534887E-02 0.12744918E+03</pdfrwt>
<pdfrwt beam="1">  1       -4 0.17272359E-01 0.12744918E+03</pdfrwt>
<totfact> 0.50495131E+03</totfact>
</mgrwt>
</event>
<event>
 6    4  0.5642870E-004  0.1294794E+03  0.7818608E-02  0.1228230E+00
          4   -1    0    0  502    0  0.00000000000E+00  0.00000000000E+00  0.46521828020E+02  0.46539159665E+02  0.12700000000E+01 0.  1.
         -4   -1    0    0    0  501 -0.00000000000E+00 -0.00000000000E+00 -0.14421432452E+03  0.14421991643E+03  0.12700000000E+01 0.  1.
         25    2    1    2    0    0 -0.33732486589E+02 -0.50268572222E+00 -0.70501824091E+02  0.14742934023E+03  0.12500707907E+03 0.  0.
    9000005    1    3    3    0    0 -0.60727760946E+02  0.41663319763E+02 -0.62744047377E+02  0.96754889511E+02  0.10000000000E+01 0.  0.
    9000005    1    3    3    0    0  0.26995274357E+02 -0.42166005486E+02 -0.77577767147E+01  0.50674450720E+02  0.10000000000E+01 0.  0.
         21    1    1    2  502  501  0.33732486589E+02  0.50268572222E+00 -0.27190672405E+02  0.43329735866E+02  0.00000000000E+00 0.  1.
<mgrwt>
<rscale>  1 0.12947935E+03</rscale>
<asrwt>0</asrwt>
<pdfrwt beam="1">  1        4 0.71589677E-02 0.12947935E+03</pdfrwt>
<pdfrwt beam="2">  1       -4 0.22188582E-01 0.12947935E+03</pdfrwt>
<totfact> 0.40098065E+03</totfact>
</mgrwt>
</event>
<event>
 6    4  0.5642870E-004  0.1270311E+03  0.7818608E-02  0.1231929E+00
          4   -1    0    0  502    0  0.00000000000E+00  0.00000000000E+00  0.68180049770E+01  0.69352787880E+01  0.12700000000E+01 0.  1.
         -4   -1    0    0    0  501 -0.00000000000E+00 -0.00000000000E+00 -0.19001186189E+04  0.19001190433E+04  0.12700000000E+01 0.  1.
         25    2    1    2    0    0  0.12146908131E+02  0.19077917481E+02 -0.18709484922E+04  0.18752560257E+04  0.12500154754E+03 0.  0.
    9000005    1    3    3    0    0 -0.42330594887E+02 -0.26515901867E+02 -0.50617660710E+03  0.50863614686E+03  0.10000000000E+01 0.  0.
    9000005    1    3    3    0    0  0.54477503018E+02  0.45593819348E+02 -0.13647718851E+04  0.13666198788E+04  0.10000000000E+01 0.  0.
         21    1    1    2  502  501 -0.12146908131E+02 -0.19077917481E+02 -0.22352121680E+02  0.31798296435E+02  0.00000000000E+00 0.  1.
<mgrwt>
<rscale>  1 0.12703110E+03</rscale>
<asrwt>0</asrwt>
<pdfrwt beam="1">  1        4 0.10579791E-02 0.12703110E+03</pdfrwt>
<pdfrwt beam="2">  1       -4 0.29233458E+00 0.12703110E+03</pdfrwt>
<totfact> 0.18733638E+02</totfact>
</mgrwt>
</event>
<event>
 6    4  0.5642870E-004  0.1308924E+03  0.7818608E-02  0.1226138E+00
          4   -1    0    0  502    0  0.00000000000E+00  0.00000000000E+00  0.23961437831E+02  0.23995070388E+02  0.12700000000E+01 0.  1.
         -4   -1    0    0    0  501 -0.00000000000E+00 -0.00000000000E+00 -0.55189380659E+03  0.55189526783E+03  0.12700000000E+01 0.  1.
         25    2    1    2    0    0  0.23107208615E+02 -0.31220283593E+02 -0.52003430559E+03  0.53625413508E+03  0.12499667676E+03 0.  0.
    9000005    1    3    3    0    0  0.51493078181E+02  0.31161901316E+02 -0.19538609370E+03  0.20444883664E+03  0.10000000000E+01 0.  0.
    9000005    1    3    3    0    0 -0.28385869565E+02 -0.62382184909E+02 -0.32464821189E+03  0.33180529843E+03  0.10000000000E+01 0.  0.
         21    1    1    2  502  501 -0.23107208615E+02  0.31220283593E+02 -0.78980631715E+01  0.39636203142E+02  0.00000000000E+00 0.  1.
<mgrwt>
<rscale>  1 0.13089239E+03</rscale>
<asrwt>0</asrwt>
<pdfrwt beam="1">  1        4 0.36890750E-02 0.13089239E+03</pdfrwt>
<pdfrwt beam="2">  1       -4 0.84909430E-01 0.13089239E+03</pdfrwt>
<totfact> 0.79553465E+02</totfact>
</mgrwt>
</event>
<event>
 6    4  0.5642870E-004  0.1378680E+03  0.7818608E-02  0.1216227E+00
         -4   -1    0    0    0  501 -0.00000000000E+00  0.00000000000E+00  0.42497692476E+02  0.42516664565E+02  0.12700000000E+01 0. -1.
          4   -1    0    0  502    0  0.00000000000E+00 -0.00000000000E+00 -0.24387097856E+03  0.24387428541E+03  0.12700000000E+01 0. -1.
         25    2    1    2    0    0 -0.57869115820E+02 -0.55788567794E+01 -0.10289392084E+03  0.17203123859E+03  0.12501051914E+03 0.  0.
    9000005    1    3    3    0    0  0.20798173492E+01  0.35897613351E+02  0.10276287433E+02  0.37410778766E+02  0.10000000000E+01 0.  0.
    9000005    1    3    3    0    0 -0.59948933169E+02 -0.41476470130E+02 -0.11317020827E+03  0.13462045982E+03  0.10000000000E+01 0.  0.
         21    1    1    2  502  501  0.57869115820E+02  0.55788567794E+01 -0.98479365244E+02  0.11435971138E+03  0.00000000000E+00 0.  1.
<mgrwt>
<rscale>  1 0.13786801E+03</rscale>
<asrwt>0</asrwt>
<pdfrwt beam="2">  1        4 0.37520325E-01 0.13786801E+03</pdfrwt>
<pdfrwt beam="1">  1       -4 0.65398205E-02 0.13786801E+03</pdfrwt>
<totfact> 0.17565264E+03</totfact>
</mgrwt>
</event>
<event>
 6    4  0.5642870E-004  0.1268133E+03  0.7818608E-02  0.1232262E+00
          4   -1    0    0  502    0  0.00000000000E+00  0.00000000000E+00  0.12664931868E+03  0.12665568610E+03  0.12700000000E+01 0. -1.
         -4   -1    0    0    0  501 -0.00000000000E+00 -0.00000000000E+00 -0.43938919134E+02  0.43957269191E+02  0.12700000000E+01 0. -1.
         25    2    1    2    0    0 -0.20490905243E+02  0.60550729161E+01  0.63246921775E+02  0.14171022060E+03  0.12500028961E+03 0.  0.
    9000005    1    3    3    0    0  0.37133552803E+02 -0.27894055472E+02 -0.42949868499E+01  0.46652180940E+02  0.10000000000E+01 0.  0.
    9000005    1    3    3    0    0 -0.57624458046E+02  0.33949128389E+02  0.67541908625E+02  0.95058039661E+02  0.10000000000E+01 0.  0.
         21    1    1    2  502  501  0.20490905243E+02 -0.60550729161E+01  0.19463477769E+02  0.28902734690E+02  0.00000000000E+00 0.  1.
<mgrwt>
<rscale>  1 0.12681330E+03</rscale>
<asrwt>0</asrwt>
<pdfrwt beam="1">  1        4 0.19486412E-01 0.12681330E+03</pdfrwt>
<pdfrwt beam="2">  1       -4 0.67617351E-02 0.12681330E+03</pdfrwt>
<totfact> 0.55369686E+03</totfact>
</mgrwt>
</event>
<event>
 6    4  0.5642870E-004  0.1562638E+03  0.7818608E-02  0.1192981E+00
         -4   -1    0    0    0  501 -0.00000000000E+00  0.00000000000E+00  0.38174108730E+03  0.38174319985E+03  0.12700000000E+01 0. -1.
          4   -1    0    0  502    0  0.00000000000E+00 -0.00000000000E+00 -0.43874082642E+02  0.43892459804E+02  0.12700000000E+01 0. -1.
         25    2    1    2    0    0  0.92079964787E+02 -0.17743720297E+02  0.15484823546E+03  0.21999172125E+03  0.12499928747E+03 0.  0.
    9000005    1    3    3    0    0  0.87773680253E+01 -0.16667853348E+02 -0.19270150353E+02  0.26966613048E+02  0.10000000000E+01 0.  0.
    9000005    1    3    3    0    0  0.83302596762E+02 -0.10758669495E+01  0.17411838581E+03  0.19302510820E+03  0.10000000000E+01 0.  0.
         21    1    1    2  502  501 -0.92079964787E+02  0.17743720297E+02  0.18301876920E+03  0.20564393841E+03  0.00000000000E+00 0. -1.
<mgrwt>
<rscale>  1 0.15626382E+03</rscale>
<asrwt>0</asrwt>
<pdfrwt beam="2">  1        4 0.67514349E-02 0.15626382E+03</pdfrwt>
<pdfrwt beam="1">  1       -4 0.58730975E-01 0.15626382E+03</pdfrwt>
<totfact> 0.69154851E+02</totfact>
</mgrwt>
</event>
<event>
 6    4  0.5642870E-004  0.1268699E+03  0.7818608E-02  0.1232176E+00
          4   -1    0    0  502    0  0.00000000000E+00  0.00000000000E+00  0.23808588932E+02  0.23842437101E+02  0.12700000000E+01 0.  1.
         -4   -1    0    0    0  501 -0.00000000000E+00 -0.00000000000E+00 -0.71574366609E+03  0.71574479282E+03  0.12700000000E+01 0.  1.
         25    2    1    2    0    0 -0.21727127908E+02  0.39884671184E+00 -0.70358403276E+03  0.71493108804E+03  0.12499496919E+03 0.  0.
    9000005    1    3    3    0    0 -0.23471172580E+02 -0.12341688714E+02 -0.70133672577E+03  0.70183859693E+03  0.10000000000E+01 0.  0.
    9000005    1    3    3    0    0  0.17440446714E+01  0.12740535426E+02 -0.22473069892E+01  0.13092491110E+02  0.10000000000E+01 0.  0.
         21    1    1    2  502  501  0.21727127908E+02 -0.39884671184E+00  0.11648955603E+02  0.24656141882E+02  0.00000000000E+00 0.  1.
<mgrwt>
<rscale>  1 0.12686989E+03</rscale>
<asrwt>0</asrwt>
<pdfrwt beam="1">  1        4 0.36655508E-02 0.12686989E+03</pdfrwt>
<pdfrwt beam="2">  1       -4 0.11011708E+00 0.12686989E+03</pdfrwt>
<totfact> 0.43994926E+02</totfact>
</mgrwt>
</event>
<event>
 6    4  0.5642870E-004  0.1277739E+03  0.7818608E-02  0.1230797E+00
          4   -1    0    0  502    0  0.00000000000E+00  0.00000000000E+00  0.12291297798E+04  0.12291304359E+04  0.12700000000E+01 0. -1.
         -4   -1    0    0    0  501 -0.00000000000E+00 -0.00000000000E+00 -0.48286158661E+01  0.49928379888E+01  0.12700000000E+01 0. -1.
         25    2    1    2    0    0  0.21680196653E+02  0.15198864984E+02  0.10648852093E+04  0.10725235121E+04  0.12500055437E+03 0.  0.
    9000005    1    3    3    0    0  0.45154121947E+01 -0.53769416236E+02  0.57186378723E+03  0.57440467461E+03  0.10000000000E+01 0.  0.
    9000005    1    3    3    0    0  0.17164784458E+02  0.68968281220E+02  0.49302142207E+03  0.49811883749E+03  0.10000000000E+01 0.  0.
         21    1    1    2  502  501 -0.21680196653E+02 -0.15198864984E+02  0.15941595466E+03  0.16159976183E+03  0.00000000000E+00 0. -1.
<mgrwt>
<rscale>  1 0.12777392E+03</rscale>
<asrwt>0</asrwt>
<pdfrwt beam="1">  1        4 0.18910989E+00 0.12777392E+03</pdfrwt>
<pdfrwt beam="2">  1       -4 0.75554567E-03 0.12777392E+03</pdfrwt>
<totfact> 0.12576754E+03</totfact>
</mgrwt>
</event>
<event>
 6    4  0.5642870E-004  0.1283770E+03  0.7818608E-02  0.1229884E+00
          4   -1    0    0  502    0  0.00000000000E+00  0.00000000000E+00  0.36549956441E+03  0.36550177083E+03  0.12700000000E+01 0. -1.
         -4   -1    0    0    0  501 -0.00000000000E+00 -0.00000000000E+00 -0.21386153225E+02  0.21423829017E+02  0.12700000000E+01 0. -1.
         25    2    1    2    0    0 -0.53997999159E+01  0.28729888627E+02  0.18518584301E+03  0.22533186153E+03  0.12500434804E+03 0.  0.
    9000005    1    3    3    0    0  0.27877688971E+02  0.41700114973E+02  0.16365740889E+02  0.52772176438E+02  0.10000000000E+01 0.  0.
    9000005    1    3    3    0    0 -0.33277488887E+02 -0.12970226346E+02  0.16882010212E+03  0.17255968509E+03  0.10000000000E+01 0.  0.
         21    1    1    2  502  501  0.53997999159E+01 -0.28729888627E+02  0.15892756817E+03  0.16159373832E+03  0.00000000000E+00 0.  1.
<mgrwt>
<rscale>  1 0.12837699E+03</rscale>
<asrwt>0</asrwt>
<pdfrwt beam="1">  1        4 0.56233767E-01 0.12837699E+03</pdfrwt>
<pdfrwt beam="2">  1       -4 0.32932455E-02 0.12837699E+03</pdfrwt>
<totfact> 0.22988340E+03</totfact>
</mgrwt>
</event>
<event>
 6    4  0.5642870E-004  0.1283139E+03  0.7818608E-02  0.1229979E+00
          4   -1    0    0  502    0  0.00000000000E+00  0.00000000000E+00  0.35962892371E+02  0.35985309887E+02  0.12700000000E+01 0. -1.
         -4   -1    0    0    0  501 -0.00000000000E+00 -0.00000000000E+00 -0.30202122089E+03  0.30202389105E+03  0.12700000000E+01 0. -1.
         25    2    1    2    0    0  0.23934989680E+01  0.28881974510E+02 -0.27837142370E+03  0.30652095548E+03  0.12499819729E+03 0.  0.
    9000005    1    3    3    0    0 -0.13307102884E+02  0.64631222782E+02 -0.77066260714E+02  0.10146172917E+03  0.10000000000E+01 0.  0.
    9000005    1    3    3    0    0  0.15700601852E+02 -0.35749248272E+02 -0.20130516299E+03  0.20505922631E+03  0.10000000000E+01 0.  0.
         21    1    1    2  502  501 -0.23934989680E+01 -0.28881974510E+02  0.12313095187E+02  0.31488245457E+02  0.00000000000E+00 0. -1.
<mgrwt>
<rscale>  1 0.12831386E+03</rscale>
<asrwt>0</asrwt>
<pdfrwt beam="1">  1        4 0.55346827E-02 0.12831386E+03</pdfrwt>
<pdfrwt beam="2">  1       -4 0.46466731E-01 0.12831386E+03</pdfrwt>
<totfact> 0.14846717E+03</totfact>
</mgrwt>
</event>
<event>
 6    4  0.5642870E-004  0.1278727E+03  0.7818608E-02  0.1230647E+00
         -4   -1    0    0    0  501 -0.00000000000E+00  0.00000000000E+00  0.33822798677E+03  0.33823037110E+03  0.12700000000E+01 0.  1.
          4   -1    0    0  502    0  0.00000000000E+00 -0.00000000000E+00 -0.17826009962E+02  0.17871192774E+02  0.12700000000E+01 0.  1.
         25    2    1    2    0    0  0.21184314011E+02 -0.16638464645E+02  0.27569414350E+03  0.30390574005E+03  0.12500329759E+03 0.  0.
    9000005    1    3    3    0    0 -0.27672399892E+02 -0.19498123221E+02  0.24228589336E+03  0.24464135515E+03  0.10000000000E+01 0.  0.
    9000005    1    3    3    0    0  0.48856713903E+02  0.28596585760E+01  0.33408250136E+02  0.59264384901E+02  0.10000000000E+01 0.  0.
         21    1    1    2  502  501 -0.21184314011E+02  0.16638464645E+02  0.44707833312E+02  0.52195823830E+02  0.00000000000E+00 0.  1.
<mgrwt>
<rscale>  1 0.12787274E+03</rscale>
<asrwt>0</asrwt>
<pdfrwt beam="2">  1        4 0.27461220E-02 0.12787274E+03</pdfrwt>
<pdfrwt beam="1">  1       -4 0.52038736E-01 0.12787274E+03</pdfrwt>
<totfact> 0.35806444E+03</totfact>
</mgrwt>
</event>
<event>
 6    4  0.5642870E-004  0.1269949E+03  0.7818608E-02  0.1231984E+00
         -4   -1    0    0    0  501 -0.00000000000E+00  0.00000000000E+00  0.15973763472E+02  0.16024169852E+02  0.12700000000E+01 0. -1.
          4   -1    0    0  502    0  0.00000000000E+00 -0.00000000000E+00 -0.35605777008E+03  0.35606003502E+03  0.12700000000E+01 0. -1.
         25    2    1    2    0    0  0.21815937793E+02 -0.51617392561E+01 -0.26745703976E+03  0.29607594869E+03  0.12500048232E+03 0.  0.
    9000005    1    3    3    0    0  0.62445202024E+02 -0.38886972093E+01 -0.23740827919E+03  0.24551622401E+03  0.10000000000E+01 0.  0.
    9000005    1    3    3    0    0 -0.40629264231E+02 -0.12730420467E+01 -0.30048760568E+02  0.50559724679E+02  0.10000000000E+01 0.  0.
         21    1    1    2  502  501 -0.21815937793E+02  0.51617392561E+01 -0.72626966852E+02  0.76008256184E+02  0.00000000000E+00 0. -1.
<mgrwt>
<rscale>  1 0.12699488E+03</rscale>
<asrwt>0</asrwt>
<pdfrwt beam="2">  1        4 0.54782164E-01 0.12699488E+03</pdfrwt>
<pdfrwt beam="1">  1       -4 0.24615540E-02 0.12699488E+03</pdfrwt>
<totfact> 0.38124817E+03</totfact>
</mgrwt>
</event>
<event>
 6    4  0.5642870E-004  0.1317974E+03  0.7818608E-02  0.1224813E+00
         -4   -1    0    0    0  501 -0.00000000000E+00  0.00000000000E+00  0.12867424607E+03  0.12868051330E+03  0.12700000000E+01 0. -1.
          4   -1    0    0  502    0  0.00000000000E+00 -0.00000000000E+00 -0.66640780670E+02  0.66652881020E+02  0.12700000000E+01 0. -1.
         25    2    1    2    0    0 -0.16956849429E+02 -0.38205152712E+02  0.74906786632E+02  0.15159678682E+03  0.12499356245E+03 0.  0.
    9000005    1    3    3    0    0 -0.60597825852E+02  0.62742393140E+01  0.63932387216E+02  0.88316548348E+02  0.10000000000E+01 0.  0.
    9000005    1    3    3    0    0  0.43640976423E+02 -0.44479392026E+02  0.10974399416E+02  0.63280238469E+02  0.10000000000E+01 0.  0.
         21    1    1    2  502  501  0.16956849429E+02  0.38205152712E+02 -0.12873321227E+02  0.43736607501E+02  0.00000000000E+00 0. -1.
<mgrwt>
<rscale>  1 0.13179742E+03</rscale>
<asrwt>0</asrwt>
<pdfrwt beam="2">  1        4 0.10253841E-01 0.13179742E+03</pdfrwt>
<pdfrwt beam="1">  1       -4 0.19797451E-01 0.13179742E+03</pdfrwt>
<totfact> 0.27216479E+03</totfact>
</mgrwt>
</event>
<event>
 6    4  0.5642870E-004  0.1301854E+03  0.7818608E-02  0.1227181E+00
          4   -1    0    0  502    0  0.00000000000E+00  0.00000000000E+00  0.24473773216E+02  0.24506702663E+02  0.12700000000E+01 0. -1.
         -4   -1    0    0    0  501 -0.00000000000E+00 -0.00000000000E+00 -0.29284469400E+03  0.29284744784E+03  0.12700000000E+01 0. -1.
         25    2    1    2    0    0  0.31039032493E+02  0.18979708515E+02 -0.18326996225E+03  0.22480241352E+03  0.12499838075E+03 0.  0.
    9000005    1    3    3    0    0  0.30941111067E+02 -0.48504465764E+02 -0.11612527969E+03  0.12959983077E+03  0.10000000000E+01 0.  0.
    9000005    1    3    3    0    0  0.97921426471E-01  0.67484174280E+02 -0.67144682559E+02  0.95202582753E+02  0.10000000000E+01 0.  0.
         21    1    1    2  502  501 -0.31039032493E+02 -0.18979708515E+02 -0.85100958535E+02  0.92551736974E+02  0.00000000000E+00 0. -1.
<mgrwt>
<rscale>  1 0.13018543E+03</rscale>
<asrwt>0</asrwt>
<pdfrwt beam="1">  1        4 0.37679410E-02 0.13018543E+03</pdfrwt>
<pdfrwt beam="2">  1       -4 0.45055772E-01 0.13018543E+03</pdfrwt>
<totfact> 0.29298361E+03</totfact>
</mgrwt>
</event>
<event>
 6    4  0.5642870E-004  0.1313484E+03  0.7818608E-02  0.1225469E+00
          4   -1    0    0  502    0  0.00000000000E+00  0.00000000000E+00  0.20047294840E+03  0.20047697110E+03  0.12700000000E+01 0.  1.
         -4   -1    0    0    0  501 -0.00000000000E+00 -0.00000000000E+00 -0.65910530928E+02  0.65922765319E+02  0.12700000000E+01 0.  1.
         25    2    1    2    0    0  0.17449337781E+02 -0.36335809239E+02  0.16854244983E+03  0.21367959775E+03  0.12501057026E+03 0.  0.
    9000005    1    3    3    0    0  0.52263939574E+02 -0.24238230111E+02  0.20567335431E+02  0.61180278403E+02  0.10000000000E+01 0.  0.
    9000005    1    3    3    0    0 -0.34814601793E+02 -0.12097579127E+02  0.14797511440E+03  0.15249931935E+03  0.10000000000E+01 0.  0.
         21    1    1    2  502  501 -0.17449337781E+02  0.36335809239E+02 -0.33980032359E+02  0.52720138668E+02  0.00000000000E+00 0.  1.
<mgrwt>
<rscale>  1 0.13134844E+03</rscale>
<asrwt>0</asrwt>
<pdfrwt beam="1">  1        4 0.30843242E-01 0.13134844E+03</pdfrwt>
<pdfrwt beam="2">  1       -4 0.10141332E-01 0.13134844E+03</pdfrwt>
<totfact> 0.12234882E+03</totfact>
</mgrwt>
</event>
<event>
 6    4  0.5642870E-004  0.1267606E+03  0.7818608E-02  0.1232343E+00
         -4   -1    0    0    0  501 -0.00000000000E+00  0.00000000000E+00  0.69908383150E+02  0.69919918011E+02  0.12700000000E+01 0. -1.
          4   -1    0    0  502    0  0.00000000000E+00 -0.00000000000E+00 -0.84676290653E+02  0.84685814035E+02  0.12700000000E+01 0. -1.
         25    2    1    2    0    0  0.75083948683E+01  0.19680846241E+02  0.33743224614E+01  0.12680551244E+03  0.12499816091E+03 0.  0.
    9000005    1    3    3    0    0 -0.50024385585E+02  0.62258572535E+01 -0.30266771386E+02  0.58807124584E+02  0.10000000000E+01 0.  0.
    9000005    1    3    3    0    0  0.57532780453E+02  0.13454988988E+02  0.33641093847E+02  0.67998387853E+02  0.10000000000E+01 0.  0.
         21    1    1    2  502  501 -0.75083948683E+01 -0.19680846241E+02 -0.18142229964E+02  0.27800219609E+02  0.00000000000E+00 0. -1.
<mgrwt>
<rscale>  1 0.12676061E+03</rscale>
<asrwt>0</asrwt>
<pdfrwt beam="2">  1        4 0.13028742E-01 0.12676061E+03</pdfrwt>
<pdfrwt beam="1">  1       -4 0.10756756E-01 0.12676061E+03</pdfrwt>
<totfact> 0.51848448E+03</totfact>
</mgrwt>
</event>
<event>
 6    4  0.5642870E-004  0.1484591E+03  0.7818608E-02  0.1202379E+00
         -4   -1    0    0    0  501 -0.00000000000E+00  0.00000000000E+00  0.58312595200E+02  0.58326423334E+02  0.12700000000E+01 0.  1.
          4   -1    0    0  502    0  0.00000000000E+00 -0.00000000000E+00 -0.27479209208E+03  0.27479502682E+03  0.12700000000E+01 0.  1.
         25    2    1    2    0    0 -0.78387575834E+02 -0.16436290957E+02 -0.65610412764E+02  0.16231089941E+03  0.12500135239E+03 0.  0.
    9000005    1    3    3    0    0 -0.45543778041E+02  0.54005289553E+02 -0.33866415446E+02  0.78350118782E+02  0.10000000000E+01 0.  0.
    9000005    1    3    3    0    0 -0.32843797793E+02 -0.70441580511E+02 -0.31743997318E+02  0.83960780630E+02  0.10000000000E+01 0.  0.
         21    1    1    2  502  501  0.78387575834E+02  0.16436290957E+02 -0.15086908411E+03  0.17081055075E+03  0.00000000000E+00 0.  1.
<mgrwt>
<rscale>  1 0.14845909E+03</rscale>
<asrwt>0</asrwt>
<pdfrwt beam="2">  1        4 0.42276995E-01 0.14845909E+03</pdfrwt>
<pdfrwt beam="1">  1       -4 0.89724581E-02 0.14845909E+03</pdfrwt>
<totfact> 0.83591814E+02</totfact>
</mgrwt>
</event>
<event>
 6    4  0.5642870E-004  0.1466305E+03  0.7818608E-02  0.1204676E+00
         -4   -1    0    0    0  501 -0.00000000000E+00  0.00000000000E+00  0.14060543911E+02  0.14117782938E+02  0.12700000000E+01 0. -1.
          4   -1    0    0  502    0  0.00000000000E+00 -0.00000000000E+00 -0.88462102321E+03  0.88462193484E+03  0.12700000000E+01 0. -1.
         25    2    1    2    0    0 -0.41016682555E+02 -0.64757659788E+02 -0.56952001249E+03  0.58809315752E+03  0.12499837815E+03 0.  0.
    9000005    1    3    3    0    0 -0.16707997892E+02 -0.98776292532E+02 -0.46172673068E+03  0.47247062023E+03  0.10000000000E+01 0.  0.
    9000005    1    3    3    0    0 -0.24308684663E+02  0.34018632744E+02 -0.10779328181E+03  0.11562253728E+03  0.10000000000E+01 0.  0.
         21    1    1    2  502  501  0.41016682555E+02  0.64757659788E+02 -0.30104046681E+03  0.31064656027E+03  0.00000000000E+00 0.  1.
<mgrwt>
<rscale>  1 0.14663055E+03</rscale>
<asrwt>0</asrwt>
<pdfrwt beam="2">  1        4 0.13609997E+00 0.14663055E+03</pdfrwt>
<pdfrwt beam="1">  1       -4 0.21676344E-02 0.14663055E+03</pdfrwt>
<totfact> 0.61634043E+02</totfact>
</mgrwt>
</event>
<event>
 6    4  0.5642870E-004  0.1279843E+03  0.7818608E-02  0.1230478E+00
          4   -1    0    0  502    0  0.00000000000E+00  0.00000000000E+00  0.13767980721E+03  0.13768566452E+03  0.12700000000E+01 0. -1.
         -4   -1    0    0    0  501 -0.00000000000E+00 -0.00000000000E+00 -0.47069694347E+02  0.47086824335E+02  0.12700000000E+01 0. -1.
         25    2    1    2    0    0 -0.16679754615E+02 -0.21815126090E+02  0.53763288807E+02  0.13881813777E+03  0.12500348079E+03 0.  0.
    9000005    1    3    3    0    0  0.34371846100E+02  0.29048576758E+02 -0.57117833720E+01  0.45374751628E+02  0.10000000000E+01 0.  0.
    9000005    1    3    3    0    0 -0.51051600716E+02 -0.50863702848E+02  0.59475072179E+02  0.93443386143E+02  0.10000000000E+01 0.  0.
         21    1    1    2  502  501  0.16679754615E+02  0.21815126090E+02  0.36846824057E+02  0.45954351083E+02  0.00000000000E+00 0. -1.
<mgrwt>
<rscale>  1 0.12798431E+03</rscale>
<asrwt>0</asrwt>
<pdfrwt beam="1">  1        4 0.21183277E-01 0.12798431E+03</pdfrwt>
<pdfrwt beam="2">  1       -4 0.72432598E-02 0.12798431E+03</pdfrwt>
<totfact> 0.42661546E+03</totfact>
</mgrwt>
</event>
<event>
 6    4  0.5642870E-004  0.1290146E+03  0.7818608E-02  0.1228925E+00
         -4   -1    0    0    0  501 -0.00000000000E+00  0.00000000000E+00  0.40307817025E+02  0.40327819348E+02  0.12700000000E+01 0.  1.
          4   -1    0    0  502    0  0.00000000000E+00 -0.00000000000E+00 -0.16401876061E+03  0.16402367735E+03  0.12700000000E+01 0.  1.
         25    2    1    2    0    0  0.17080542398E+02  0.27000210717E+02 -0.86610505878E+02  0.15539029997E+03  0.12499603709E+03 0.  0.
    9000005    1    3    3    0    0 -0.46727846344E+02  0.42595170532E+02 -0.39676066662E+02  0.74652732317E+02  0.10000000000E+01 0.  0.
    9000005    1    3    3    0    0  0.63808388743E+02 -0.15594959815E+02 -0.46934439216E+02  0.80737567650E+02  0.10000000000E+01 0.  0.
         21    1    1    2  502  501 -0.17080542398E+02 -0.27000210717E+02 -0.37100437707E+02  0.48961196732E+02  0.00000000000E+00 0.  1.
<mgrwt>
<rscale>  1 0.12901459E+03</rscale>
<asrwt>0</asrwt>
<pdfrwt beam="2">  1        4 0.25235572E-01 0.12901459E+03</pdfrwt>
<pdfrwt beam="1">  1       -4 0.62031195E-02 0.12901459E+03</pdfrwt>
<totfact> 0.40002805E+03</totfact>
</mgrwt>
</event>
<event>
 6    4  0.5642870E-004  0.1463370E+03  0.7818608E-02  0.1205048E+00
          4   -1    0    0  502    0  0.00000000000E+00  0.00000000000E+00  0.10379455668E+02  0.10456863773E+02  0.12700000000E+01 0.  1.
         -4   -1    0    0    0  501 -0.00000000000E+00 -0.00000000000E+00 -0.15224208924E+04  0.15224214221E+04  0.12700000000E+01 0.  1.
         25    2    1    2    0    0 -0.55605340833E+02 -0.51935713739E+02 -0.12876314060E+04  0.12959202006E+04  0.12500102526E+03 0.  0.
    9000005    1    3    3    0    0 -0.90250999759E+02 -0.24344669787E+02 -0.10531306032E+04  0.10572714757E+04  0.10000000000E+01 0.  0.
    9000005    1    3    3    0    0  0.34645658926E+02 -0.27591043952E+02 -0.23450080277E+03  0.23864872489E+03  0.10000000000E+01 0.  0.
         21    1    1    2  502  501  0.55605340833E+02  0.51935713739E+02 -0.22441003074E+03  0.23695808530E+03  0.00000000000E+00 0.  1.
<mgrwt>
<rscale>  1 0.14633704E+03</rscale>
<asrwt>0</asrwt>
<pdfrwt beam="1">  1        4 0.16028358E-02 0.14633704E+03</pdfrwt>
<pdfrwt beam="2">  1       -4 0.23422442E+00 0.14633704E+03</pdfrwt>
<totfact> 0.21987094E+02</totfact>
</mgrwt>
</event>
<event>
 6    4  0.5642870E-004  0.1271370E+03  0.7818608E-02  0.1231767E+00
          4   -1    0    0  502    0  0.00000000000E+00  0.00000000000E+00  0.42330104024E+02  0.42349151192E+02  0.12700000000E+01 0. -1.
         -4   -1    0    0    0  501 -0.00000000000E+00 -0.00000000000E+00 -0.33964141560E+03  0.33964379001E+03  0.12700000000E+01 0. -1.
         25    2    1    2    0    0  0.15647713823E+02  0.17200375977E+02 -0.32313290684E+03  0.34724443528E+03  0.12499247364E+03 0.  0.
    9000005    1    3    3    0    0  0.14944258400E+02  0.62681080207E+02 -0.96172681980E+02  0.11576887939E+03  0.10000000000E+01 0.  0.
    9000005    1    3    3    0    0  0.70345542295E+00 -0.45480704230E+02 -0.22696022486E+03  0.23147555589E+03  0.10000000000E+01 0.  0.
         21    1    1    2  502  501 -0.15647713823E+02 -0.17200375977E+02  0.25821595266E+02  0.34748505921E+02  0.00000000000E+00 0. -1.
<mgrwt>
<rscale>  1 0.12713702E+03</rscale>
<asrwt>0</asrwt>
<pdfrwt beam="1">  1        4 0.65139717E-02 0.12713702E+03</pdfrwt>
<pdfrwt beam="2">  1       -4 0.52254171E-01 0.12713702E+03</pdfrwt>
<totfact> 0.89624065E+02</totfact>
</mgrwt>
</event>
<event>
 6    4  0.5642870E-004  0.1399172E+03  0.7818608E-02  0.1213440E+00
          4   -1    0    0  502    0  0.00000000000E+00  0.00000000000E+00  0.61345762099E+02  0.61358906668E+02  0.12700000000E+01 0.  1.
         -4   -1    0    0    0  501 -0.00000000000E+00 -0.00000000000E+00 -0.32642105641E+03  0.32642352698E+03  0.12700000000E+01 0.  1.
         25    2    1    2    0    0 -0.42770894535E+02 -0.46071288429E+02 -0.28854575660E+03  0.32067970914E+03  0.12499963665E+03 0.  0.
    9000005    1    3    3    0    0 -0.29696796969E+02 -0.87677927378E+02 -0.22780140400E+03  0.24589387623E+03  0.10000000000E+01 0.  0.
    9000005    1    3    3    0    0 -0.13074097566E+02  0.41606638950E+02 -0.60744352596E+02  0.74785832911E+02  0.10000000000E+01 0.  0.
         21    1    1    2  502  501  0.42770894535E+02  0.46071288429E+02  0.23470462291E+02  0.67102724512E+02  0.00000000000E+00 0.  1.
<mgrwt>
<rscale>  1 0.13991720E+03</rscale>
<asrwt>0</asrwt>
<pdfrwt beam="1">  1        4 0.94390109E-02 0.13991720E+03</pdfrwt>
<pdfrwt beam="2">  1       -4 0.50219824E-01 0.13991720E+03</pdfrwt>
<totfact> 0.53662958E+02</totfact>
</mgrwt>
</event>
<event>
 6    4  0.5642870E-004  0.1271775E+03  0.7818608E-02  0.1231705E+00
          4   -1    0    0  502    0  0.00000000000E+00  0.00000000000E+00  0.87977246172E+03  0.87977337838E+03  0.12700000000E+01 0.  1.
         -4   -1    0    0    0  501 -0.00000000000E+00 -0.00000000000E+00 -0.16501643798E+02  0.16550442533E+02  0.12700000000E+01 0.  1.
         25    2    1    2    0    0 -0.21953098857E+02  0.82537424043E+01  0.23162565415E+03  0.26424338636E+03  0.12499624301E+03 0.  0.
    9000005    1    3    3    0    0 -0.95577712330E+01  0.38976915596E+02  0.22730005803E+03  0.23081782280E+03  0.10000000000E+01 0.  0.
    9000005    1    3    3    0    0 -0.12395327624E+02 -0.30723173191E+02  0.43255961121E+01  0.33425563564E+02  0.10000000000E+01 0.  0.
         21    1    1    2  502  501  0.21953098857E+02 -0.82537424043E+01  0.63164516378E+03  0.63208043455E+03  0.00000000000E+00 0.  1.
<mgrwt>
<rscale>  1 0.12717753E+03</rscale>
<asrwt>0</asrwt>
<pdfrwt beam="1">  1        4 0.13535348E+00 0.12717753E+03</pdfrwt>
<pdfrwt beam="2">  1       -4 0.25425379E-02 0.12717753E+03</pdfrwt>
<totfact> 0.47488801E+02</totfact>
</mgrwt>
</event>
<event>
 6    4  0.5642870E-004  0.1281186E+03  0.7818608E-02  0.1230274E+00
         -4   -1    0    0    0  501 -0.00000000000E+00  0.00000000000E+00  0.18666107470E+02  0.18709261559E+02  0.12700000000E+01 0.  1.
          4   -1    0    0  502    0  0.00000000000E+00 -0.00000000000E+00 -0.33185889453E+03  0.33186132462E+03  0.12700000000E+01 0.  1.
         25    2    1    2    0    0 -0.18364408247E+02  0.21349752714E+02 -0.23828557325E+03  0.27054462719E+03  0.12498526894E+03 0.  0.
    9000005    1    3    3    0    0 -0.40960493970E+01  0.93814247692E+01 -0.24888199142E+03  0.24909442869E+03  0.10000000000E+01 0.  0.
    9000005    1    3    3    0    0 -0.14268358850E+02  0.11968327944E+02  0.10596418165E+02  0.21450198507E+02  0.10000000000E+01 0.  0.
         21    1    1    2  502  501  0.18364408247E+02 -0.21349752714E+02 -0.74907213804E+02  0.80025958982E+02  0.00000000000E+00 0. -1.
<mgrwt>
<rscale>  1 0.12811862E+03</rscale>
<asrwt>0</asrwt>
<pdfrwt beam="2">  1        4 0.51058717E-01 0.12811862E+03</pdfrwt>
<pdfrwt beam="1">  1       -4 0.28752156E-02 0.12811862E+03</pdfrwt>
<totfact> 0.34667812E+03</totfact>
</mgrwt>
</event>
<event>
 6    4  0.5642870E-004  0.1410239E+03  0.7818608E-02  0.1211958E+00
          4   -1    0    0  502    0  0.00000000000E+00  0.00000000000E+00  0.36610854058E+02  0.36632875055E+02  0.12700000000E+01 0. -1.
         -4   -1    0    0    0  501 -0.00000000000E+00 -0.00000000000E+00 -0.34703628272E+03  0.34703860653E+03  0.12700000000E+01 0. -1.
         25    2    1    2    0    0 -0.64847743449E+02 -0.76027211847E+01 -0.27580725519E+03  0.30976986365E+03  0.12499878083E+03 0.  0.
    9000005    1    3    3    0    0 -0.66131525172E+02 -0.24327761943E+02 -0.28288899548E+03  0.29153456465E+03  0.10000000000E+01 0.  0.
    9000005    1    3    3    0    0  0.12837817230E+01  0.16725040759E+02  0.70817402902E+01  0.18235298995E+02  0.10000000000E+01 0.  0.
         21    1    1    2  502  501  0.64847743449E+02  0.76027211847E+01 -0.34618173472E+02  0.73901617941E+02  0.00000000000E+00 0. -1.
<mgrwt>
<rscale>  1 0.14102385E+03</rscale>
<asrwt>0</asrwt>
<pdfrwt beam="1">  1        4 0.56343120E-02 0.14102385E+03</pdfrwt>
<pdfrwt beam="2">  1       -4 0.53392068E-01 0.14102385E+03</pdfrwt>
<totfact> 0.11094185E+03</totfact>
</mgrwt>
</event>
<event>
 6    4  0.5642870E-004  0.1398255E+03  0.7818608E-02  0.1213564E+00
          4   -1    0    0  502    0  0.00000000000E+00  0.00000000000E+00  0.15536481499E+02  0.15588301940E+02  0.12700000000E+01 0.  1.
         -4   -1    0    0    0  501 -0.00000000000E+00 -0.00000000000E+00 -0.10608000093E+04  0.10608007696E+04  0.12700000000E+01 0.  1.
         25    2    1    2    0    0  0.60043862193E+02 -0.17907296849E+02 -0.96239278308E+03  0.97249731531E+03  0.12500089083E+03 0.  0.
    9000005    1    3    3    0    0  0.75438414310E+02  0.27381954636E+02 -0.77296699470E+03  0.77712270633E+03  0.10000000000E+01 0.  0.
    9000005    1    3    3    0    0 -0.15394552117E+02 -0.45289251486E+02 -0.18942578838E+03  0.19537460899E+03  0.10000000000E+01 0.  0.
         21    1    1    2  502  501 -0.60043862193E+02  0.17907296849E+02 -0.82870744773E+02  0.10389175620E+03  0.00000000000E+00 0.  1.
<mgrwt>
<rscale>  1 0.13982546E+03</rscale>
<asrwt>0</asrwt>
<pdfrwt beam="1">  1        4 0.23942734E-02 0.13982546E+03</pdfrwt>
<pdfrwt beam="2">  1       -4 0.16320399E+00 0.13982546E+03</pdfrwt>
<totfact> 0.32961004E+02</totfact>
</mgrwt>
</event>
<event>
 6    4  0.5642870E-004  0.1359556E+03  0.7818608E-02  0.1218877E+00
          4   -1    0    0  502    0  0.00000000000E+00  0.00000000000E+00  0.90833854014E+01  0.91717386765E+01  0.12700000000E+01 0. -1.
         -4   -1    0    0    0  501 -0.00000000000E+00 -0.00000000000E+00 -0.18189318662E+04  0.18189323096E+04  0.12700000000E+01 0. -1.
         25    2    1    2    0    0  0.53159164160E+02 -0.56715368680E+01 -0.17050068805E+04  0.17104187721E+04  0.12500340152E+03 0.  0.
    9000005    1    3    3    0    0  0.40441835364E+02 -0.49717305408E+02 -0.14434651993E+04  0.14448875853E+04  0.10000000000E+01 0.  0.
    9000005    1    3    3    0    0  0.12717328797E+02  0.44045768540E+02 -0.26154168118E+03  0.26553118682E+03  0.10000000000E+01 0.  0.
         21    1    1    2  502  501 -0.53159164160E+02  0.56715368680E+01 -0.10484160035E+03  0.11768527618E+03  0.00000000000E+00 0. -1.
<mgrwt>
<rscale>  1 0.13595556E+03</rscale>
<asrwt>0</asrwt>
<pdfrwt beam="1">  1        4 0.14042759E-02 0.13595556E+03</pdfrwt>
<pdfrwt beam="2">  1       -4 0.27984221E+00 0.13595556E+03</pdfrwt>
<totfact> 0.14522709E+02</totfact>
</mgrwt>
</event>
